Title
42779
    1SAPS     N    1   6.249   1.291   0.595  0.0509  0.1606  0.6539
    1SAPS   HN1    2   6.253   1.259   0.496  0.1545 -2.7704  1.5207
    1SAPS   HN2    3   6.339   1.287   0.646  0.8927 -3.5281 -0.8149
    1SAPS   HN3    4   6.184   1.221   0.636 -1.3863  0.1989 -1.3759
    1SAPS   C12    5   6.186   1.424   0.624 -0.2254  0.6318 -0.3080
    1SAPS  H12A    6   6.082   1.410   0.598 -0.2334  0.2910 -0.0966
    1SAPS   C13    7   6.202   1.462   0.771 -0.0190  0.1503 -0.5569
    1SAPS  O13A    8   6.256   1.381   0.849  0.4018 -0.6531  0.6720
    1SAPS  O13B    9   6.147   1.567   0.815  0.1525 -0.1667  0.2788
    1SAPS   C11   10   6.246   1.528   0.540 -0.7730  0.6858 -0.2178
    1SAPS  H11A   11   6.192   1.624   0.553 -1.3404  0.4619 -0.8110
    1SAPS  H11B   12   6.229   1.505   0.432  1.9833 -1.7729 -0.2466
    1SAPS     P   13   6.481   1.628   0.483 -0.0047  0.2212  0.0813
    1SAPS   O13   14   6.438   1.767   0.482  0.6052 -0.4333 -0.5413
    1SAPS   O14   15   6.616   1.596   0.518  0.1250  0.1231 -0.3948
    1SAPS   O12   16   6.386   1.549   0.577 -0.6997  0.4633  0.6168
    1SAPS   O11   17   6.464   1.565   0.339 -0.3788 -0.4727 -0.1615
    1SAPS    C1   18   6.404   1.641   0.231  0.3680 -0.3982  0.0913
    1SAPS    HA   19   6.328   1.715   0.266  0.8982  0.1998 -0.0116
    1SAPS    HB   20   6.478   1.695   0.169 -0.0023  0.0667  0.0465
    1SAPS    C2   21   6.340   1.546   0.133  0.0374  0.2770 -0.6839
    1SAPS    HS   22   6.269   1.482   0.190 -1.3930  1.2647 -1.2953
    1SAPS   O21   23   6.439   1.467   0.062 -0.3045  0.2904 -0.0634
    1SAPS   C21   24   6.391   1.363   0.006  0.1223  0.0721 -0.0280
    1SAPS   O22   25   6.278   1.316   0.026 -0.7071  0.4048  0.6814
    1SAPS   C22   26   6.503   1.307  -0.088  0.1941 -0.4989  0.0956
    1SAPS   H2R   27   6.544   1.393  -0.146  0.6797  0.3075  1.5849
    1SAPS   H2S   28   6.581   1.261  -0.024  0.5782 -0.9402 -0.6772
    1SAPS    C3   29   6.250   1.629   0.040  0.7553 -0.2474 -0.5056
    1SAPS    HX   30   6.186   1.693   0.105  0.5051 -0.1143 -0.8798
    1SAPS    HY   31   6.181   1.561  -0.014 -0.0374 -0.8505  1.1876
    1SAPS   O31   32   6.323   1.714  -0.055 -0.1558 -1.0344 -0.1374
    1SAPS   C31   33   6.266   1.830  -0.074  0.1404  0.1390  0.2596
    1SAPS   O32   34   6.151   1.859  -0.035 -0.2184  0.1392 -0.2647
    1SAPS   C32   35   6.361   1.924  -0.150  0.3575  0.1338 -0.4320
    1SAPS   H2X   36   6.446   1.952  -0.084 -0.0428 -0.2013  0.2397
    1SAPS   H2Y   37   6.298   2.014  -0.166 -1.1688 -1.0478 -1.3994
    1SAPS   C23   38   6.461   1.181  -0.173  0.3117  0.6095  0.0534
    1SAPS   H3R   39   6.433   1.100  -0.102  0.5508  0.1617 -0.3601
    1SAPS   H3S   40   6.551   1.158  -0.234 -0.0054  1.3725 -0.7276
    1SAPS   C24   41   6.338   1.198  -0.271  0.2817 -0.7843  0.6875
    1SAPS   H4R   42   6.248   1.234  -0.218 -1.1359 -1.0774 -1.4316
    1SAPS   H4S   43   6.321   1.092  -0.300 -2.4045 -0.9932  2.7199
    1SAPS   C25   44   6.357   1.291  -0.388  0.0785  0.7187  0.4966
    1SAPS   H5R   45   6.354   1.398  -0.365 -1.6564  0.2118  2.8920
    1SAPS   C26   46   6.407   1.248  -0.505  0.5426 -0.0160  0.5785
    1SAPS   H6R   47   6.414   1.323  -0.585  2.2166 -1.4028 -0.6505
    1SAPS   C27   48   6.423   1.106  -0.556 -0.4894 -0.0588 -0.4666
    1SAPS   H7R   49   6.342   1.090  -0.630  0.7529 -0.7449 -1.7285
    1SAPS   H7S   50   6.419   1.028  -0.477 -1.3803  0.4016 -0.0520
    1SAPS   C28   51   6.554   1.083  -0.626 -0.3090 -0.1311  0.6107
    1SAPS   H8R   52   6.646   1.078  -0.566  0.6889 -1.4572 -0.9385
    1SAPS   C29   53   6.570   1.066  -0.759  0.5520  0.1495  0.4033
    1SAPS   H9R   54   6.671   1.032  -0.786  0.5847 -0.5229  1.3332
    1SAPS  C210   55   6.466   1.064  -0.872 -0.5410 -0.1688 -0.3403
    1SAPS  H10R   56   6.512   1.124  -0.954 -2.0570 -0.4630 -1.4673
    1SAPS  H10S   57   6.371   1.108  -0.835  0.3629  1.1186  0.5182
    1SAPS  C211   58   6.431   0.921  -0.918  0.2404 -0.5700  0.8326
    1SAPS  H11R   59   6.401   0.848  -0.841  0.1497 -2.1730 -0.6467
    1SAPS  C212   60   6.430   0.864  -1.040  0.1773 -0.2469  0.1498
    1SAPS  H12R   61   6.425   0.754  -1.049  3.0228 -0.6085  1.7577
    1SAPS  C213   62   6.468   0.950  -1.156 -0.2693  0.9319 -0.3429
    1SAPS  H13R   63   6.482   0.872  -1.234  1.2852 -0.2148  0.9852
    1SAPS  H13S   64   6.561   1.005  -1.129 -0.3586  0.5823  0.7475
    1SAPS  C214   65   6.361   1.048  -1.206 -0.5260  0.3295 -0.3903
    1SAPS  H14R   66   6.337   1.131  -1.138 -0.2037 -0.3799  0.6099
    1SAPS  C215   67   6.306   1.064  -1.325 -0.2177 -0.4758 -0.1603
    1SAPS  H15R   68   6.234   1.147  -1.331 -1.0769 -0.9640  2.2571
    1SAPS  C216   69   6.318   0.975  -1.449 -0.2618  0.3127  0.6872
    1SAPS  H16R   70   6.219   0.957  -1.496 -0.6670 -0.2511  1.7252
    1SAPS  H16S   71   6.354   0.876  -1.414 -2.8482 -0.3808  1.6060
    1SAPS  C217   72   6.411   1.009  -1.565  0.1629 -0.1660 -0.0321
    1SAPS  H17R   73   6.406   0.930  -1.643 -0.8505 -0.3772  0.2391
    1SAPS  H17S   74   6.514   1.018  -1.525 -0.0058  2.7708  0.0082
    1SAPS  C218   75   6.366   1.138  -1.636  0.9487  0.6790  0.0733
    1SAPS  H18R   76   6.337   1.219  -1.567  0.9892 -0.7269  1.8081
    1SAPS  H18S   77   6.269   1.110  -1.684 -0.9381  0.5571  3.6125
    1SAPS  C219   78   6.459   1.196  -1.742  0.7433 -0.2728  0.5055
    1SAPS  H19R   79   6.553   1.224  -1.690  0.6359  0.0677  0.5220
    1SAPS  H19S   80   6.423   1.298  -1.768 -0.2065 -0.2915  1.6818
    1SAPS  C220   81   6.487   1.106  -1.859  0.5717 -0.3366 -0.1566
    1SAPS  H20R   82   6.403   1.086  -1.930  0.9467 -0.6600 -0.5111
    1SAPS  H20S   83   6.517   1.006  -1.821 -0.4286 -1.5387 -2.3183
    1SAPS  H20T   84   6.572   1.134  -1.925 -0.7801  0.5023 -1.6434
    1SAPS   C33   85   6.416   1.869  -0.279  0.2521 -0.2185 -0.0874
    1SAPS   H3X   86   6.471   1.775  -0.255 -0.2748 -0.6077 -0.3899
    1SAPS   H3Y   87   6.484   1.948  -0.318  0.1256 -0.0307  0.0691
    1SAPS   C34   88   6.307   1.831  -0.391 -0.4579  0.2235 -0.9327
    1SAPS   H4X   89   6.241   1.919  -0.403  0.3522  0.5132 -4.1880
    1SAPS   H4Y   90   6.258   1.736  -0.359  1.0135 -0.8024 -1.6393
    1SAPS   C35   91   6.377   1.820  -0.525 -0.8821  0.2074 -0.1665
    1SAPS   H5X   92   6.444   1.731  -0.529 -1.7860 -0.5865  1.6122
    1SAPS   H5Y   93   6.427   1.910  -0.567 -1.5552 -0.8721 -3.5896
    1SAPS   C36   94   6.272   1.802  -0.632  0.0007  0.3807 -0.2796
    1SAPS   H6X   95   6.222   1.901  -0.632 -2.4507 -0.7863 -1.4011
    1SAPS   H6Y   96   6.196   1.725  -0.607  1.3254 -0.5268  1.1770
    1SAPS   C37   97   6.340   1.755  -0.757 -0.5575 -0.1456  0.0178
    1SAPS   H7X   98   6.420   1.828  -0.783 -1.0683  0.3128 -0.3007
    1SAPS   H7Y   99   6.269   1.774  -0.841  0.6605 -0.0854 -1.0335
    1SAPS   C38  100   6.383   1.612  -0.751  0.9063  0.2623  0.2757
    1SAPS   H8X  101   6.303   1.549  -0.704  1.0387  1.3121  1.9826
    1SAPS   H8Y  102   6.478   1.601  -0.695  0.7523  0.4408  0.5709
    1SAPS   C39  103   6.418   1.548  -0.886 -0.5055 -0.8799  0.0486
    1SAPS   H9X  104   6.462   1.447  -0.879  0.1311 -0.5874  0.2982
    1SAPS   H9Y  105   6.488   1.627  -0.920  0.3845 -1.5845  0.2225
    1SAPS  C310  106   6.304   1.535  -0.987  0.5173  0.4978  0.2501
    1SAPS  H10X  107   6.238   1.624  -0.978  0.4190  0.6654 -1.6618
    1SAPS  H10Y  108   6.245   1.448  -0.952  3.1972 -0.8892  1.5336
    1SAPS  C311  109   6.347   1.515  -1.131  0.1217 -0.3266  0.5662
    1SAPS  H11X  110   6.433   1.444  -1.134 -0.5431 -1.1467  0.2052
    1SAPS  H11Y  111   6.395   1.608  -1.166 -0.5495 -0.5295 -0.9903
    1SAPS  C312  112   6.234   1.465  -1.226 -0.3673  0.4207 -0.1403
    1SAPS  H12X  113   6.132   1.505  -1.207 -0.5391  1.0419 -2.1277
    1SAPS  H12Y  114   6.232   1.354  -1.225 -0.5936  0.3788 -1.7765
    1SAPS  C313  115   6.269   1.484  -1.372  0.4040  0.1151  0.3343
    1SAPS  H13X  116   6.351   1.415  -1.404  1.1789  1.3470 -0.4010
    1SAPS  H13Y  117   6.289   1.592  -1.384  1.3606 -0.1865 -1.1515
    1SAPS  C314  118   6.154   1.460  -1.473  0.3674  0.1046 -0.1245
    1SAPS  H14X  119   6.067   1.527  -1.453 -1.3700 -0.6841 -4.2019
    1SAPS  H14Y  120   6.123   1.354  -1.463  1.9438 -0.3032  0.9484
    1SAPS  C315  121   6.192   1.472  -1.623 -0.1093 -0.3155  0.3449
    1SAPS  H15X  122   6.262   1.389  -1.648  0.6351  0.0688  1.1090
    1SAPS  H15Y  123   6.250   1.563  -1.645 -2.4720  0.6274 -2.5155
    1SAPS  C316  124   6.072   1.474  -1.724  0.2500 -0.2585  1.0007
    1SAPS  H16X  125   6.091   1.554  -1.800 -1.7529  2.2188  2.9365
    1SAPS  H16Y  126   5.992   1.527  -1.668  1.0833  1.8480  0.3283
    1SAPS  C317  127   6.030   1.339  -1.769 -0.3210  0.5009 -0.6059
    1SAPS  H17X  128   6.033   1.264  -1.687 -1.4607  0.4231 -0.6222
    1SAPS  H17Y  129   6.106   1.304  -1.842 -1.4076 -3.3226 -0.1244
    1SAPS  C318  130   5.904   1.327  -1.850 -0.1660 -0.1887  0.1999
    1SAPS  H18X  131   5.917   1.381  -1.947 -0.9246  0.6216  0.5341
    1SAPS  H18Y  132   5.824   1.377  -1.792  1.7802 -0.6054  3.5119
    1SAPS  H18Z  133   5.873   1.227  -1.888 -1.9602  1.1029 -2.0583
    2SAPS     N  134   1.487   4.541   0.677  0.1786 -0.6122 -0.6858
    2SAPS   HN1  135   1.389   4.562   0.705  0.2816  0.2377 -0.9350
    2SAPS   HN2  136   1.489   4.485   0.589 -1.2245 -1.5551 -0.1587
    2SAPS   HN3  137   1.534   4.504   0.762 -0.8756  1.7758  1.0615
    2SAPS   C12  138   1.558   4.678   0.675  0.3147  0.7150 -0.2469
    2SAPS  H12A  139   1.525   4.735   0.589  2.8278 -0.7601 -2.3576
    2SAPS   C13  140   1.516   4.766   0.790  0.2488 -0.2247 -0.4360
    2SAPS  O13A  141   1.428   4.721   0.870 -0.0563 -0.2928  0.5669
    2SAPS  O13B  142   1.556   4.882   0.810  0.2679  0.5321  0.9495
    2SAPS   C11  143   1.707   4.656   0.677 -0.6323  0.1045 -0.1813
    2SAPS  H11A  144   1.729   4.617   0.778 -3.8051 -0.9769  0.2028
    2SAPS  H11B  145   1.769   4.748   0.666  0.6237 -0.7200 -0.1725
    2SAPS     P  146   1.886   4.556   0.513  0.2222 -0.0573 -0.3550
    2SAPS   O13  147   1.990   4.594   0.608  0.1647  0.0392  0.3615
    2SAPS   O14  148   1.896   4.421   0.458 -0.5478  0.1849  0.1360
    2SAPS   O12  149   1.749   4.556   0.582  0.1407  0.1784  0.1665
    2SAPS   O11  150   1.869   4.657   0.395 -0.3042 -0.2800 -0.3344
    2SAPS    C1  151   1.750   4.688   0.325  0.3081 -0.0175 -0.9910
    2SAPS    HA  152   1.663   4.697   0.394  0.8557 -0.8864 -0.1640
    2SAPS    HB  153   1.764   4.787   0.275  1.3191  0.9776  1.1404
    2SAPS    C2  154   1.706   4.579   0.221 -0.5391  0.4034  0.5310
    2SAPS    HS  155   1.701   4.486   0.283  1.9082 -0.0692  0.1403
    2SAPS   O21  156   1.804   4.571   0.115  0.5673 -0.0457  0.6305
    2SAPS   C21  157   1.815   4.444   0.065  1.3293  0.0071  0.3976
    2SAPS   O22  158   1.769   4.343   0.109 -0.4522  0.1469  0.3235
    2SAPS   C22  159   1.912   4.456  -0.055  0.2250  0.3056  0.1600
    2SAPS   H2R  160   2.017   4.460  -0.018 -0.2630  0.9522  1.5499
    2SAPS   H2S  161   1.905   4.366  -0.119  0.1328  0.9558 -0.7585
    2SAPS    C3  162   1.571   4.600   0.153  0.3157 -0.1524 -0.4139
    2SAPS    HX  163   1.486   4.621   0.221  1.6278  1.3544  0.8308
    2SAPS    HY  164   1.549   4.508   0.095 -0.2648 -0.1434 -0.2060
    2SAPS   O31  165   1.575   4.710   0.065  0.2223 -0.1058  0.1830
    2SAPS   C31  166   1.497   4.704  -0.043 -0.4241  0.0858 -0.3691
    2SAPS   O32  167   1.398   4.633  -0.048 -0.2629 -0.3517 -0.0573
    2SAPS   C32  168   1.558   4.794  -0.142 -0.0510  0.0965  0.5401
    2SAPS   H2X  169   1.658   4.754  -0.168  0.1328  2.4728 -3.1845
    2SAPS   H2Y  170   1.574   4.893  -0.095 -0.4129  0.3577  0.1206
    2SAPS   C23  171   1.872   4.567  -0.153 -0.1365  0.3675  0.3667
    2SAPS   H3R  172   1.925   4.660  -0.126 -0.4362  0.2760  1.3318
    2SAPS   H3S  173   1.762   4.581  -0.158 -0.2169 -0.6533 -2.5264
    2SAPS   C24  174   1.928   4.530  -0.293  0.7352  0.3312 -0.4535
    2SAPS   H4R  175   1.870   4.446  -0.338  0.7769  0.1059 -0.0873
    2SAPS   H4S  176   2.026   4.479  -0.277 -0.3604 -1.6969  0.2012
    2SAPS   C25  177   1.943   4.647  -0.382  0.2577 -0.0660  0.0470
    2SAPS   H5R  178   2.015   4.721  -0.345  2.9588 -2.7574  0.5682
    2SAPS   C26  179   1.916   4.652  -0.514 -0.1981  0.3667 -0.0960
    2SAPS   H6R  180   1.908   4.746  -0.570 -1.0539  0.0377 -0.5390
    2SAPS   C27  181   1.855   4.540  -0.593  0.5901 -0.4194 -0.5745
    2SAPS   H7R  182   1.822   4.592  -0.686 -0.8582  0.6939  0.5203
    2SAPS   H7S  183   1.767   4.507  -0.534  2.3360 -0.9542  1.8737
    2SAPS   C28  184   1.949   4.420  -0.620  0.2961  0.0574 -0.4760
    2SAPS   H8R  185   1.994   4.367  -0.534 -2.6803  0.6153  1.5847
    2SAPS   C29  186   1.994   4.390  -0.739  0.2737 -0.4991 -0.5381
    2SAPS   H9R  187   2.070   4.311  -0.751  1.4455 -0.2082  3.4314
    2SAPS  C210  188   1.942   4.453  -0.870 -0.1787  0.4016 -0.1641
    2SAPS  H10R  189   2.023   4.473  -0.944  0.5699 -0.2080  0.4683
    2SAPS  H10S  190   1.918   4.559  -0.847 -0.1103  0.2781  0.4853
    2SAPS  C211  191   1.822   4.380  -0.917 -1.1389 -0.0371  0.4287
    2SAPS  H11R  192   1.763   4.340  -0.834  2.2264 -0.7372  2.6703
    2SAPS  C212  193   1.789   4.351  -1.047  0.6757 -0.1606  0.4999
    2SAPS  H12R  194   1.696   4.296  -1.068  0.5999 -0.4210  1.4499
    2SAPS  C213  195   1.867   4.404  -1.169 -0.1955  0.3995  0.2534
    2SAPS  H13R  196   1.966   4.353  -1.171 -1.2941 -1.8032 -0.8289
    2SAPS  H13S  197   1.894   4.510  -1.150 -2.0736  0.5290  2.5005
    2SAPS  C214  198   1.786   4.395  -1.293  0.0102  0.3646 -0.5107
    2SAPS  H14R  199   1.694   4.455  -1.286  0.2170  0.6939 -0.6156
    2SAPS  C215  200   1.810   4.331  -1.408 -0.5371 -0.0102  1.5311
    2SAPS  H15R  201   1.730   4.340  -1.483  1.4075 -0.1716 -0.6733
    2SAPS  C216  202   1.934   4.253  -1.443  0.3196 -0.9806 -0.0473
    2SAPS  H16R  203   1.913   4.144  -1.454  1.6319 -1.1711 -0.8332
    2SAPS  H16S  204   1.997   4.272  -1.353 -2.2194  1.5281  1.3589
    2SAPS  C217  205   2.012   4.297  -1.567 -0.6947 -0.2824  0.5700
    2SAPS  H17R  206   2.107   4.240  -1.578  0.6814  2.0263 -0.2283
    2SAPS  H17S  207   2.036   4.405  -1.558 -3.9207  0.6174 -0.1348
    2SAPS  C218  208   1.936   4.275  -1.702  0.0347 -0.6534  0.0997
    2SAPS  H18R  209   1.845   4.340  -1.709  1.1802  1.1232  1.0513
    2SAPS  H18S  210   1.903   4.171  -1.722 -3.2706  0.4388 -0.9166
    2SAPS  C219  211   2.051   4.310  -1.814  0.1264  0.1644  0.5242
    2SAPS  H19R  212   2.110   4.216  -1.820 -1.0469 -0.4978 -2.0531
    2SAPS  H19S  213   2.114   4.394  -1.777  2.5124 -1.0002 -0.6881
    2SAPS  C220  214   1.979   4.317  -1.952  0.3920  0.4423 -0.1806
    2SAPS  H20R  215   1.899   4.391  -1.967  1.0561  0.9138 -1.5095
    2SAPS  H20S  216   1.919   4.223  -1.959 -1.3515  1.3277  1.8180
    2SAPS  H20T  217   2.048   4.328  -2.038 -1.0656 -2.4261 -1.8506
    2SAPS   C33  218   1.486   4.782  -0.279  0.2109  0.0711 -1.1074
    2SAPS   H3X  219   1.387   4.832  -0.282 -0.5077 -1.2681 -0.7609
    2SAPS   H3Y  220   1.480   4.677  -0.314  0.7434 -0.8406  1.3106
    2SAPS   C34  221   1.561   4.859  -0.387 -0.1003 -0.3724 -0.2413
    2SAPS   H4X  222   1.661   4.826  -0.424  0.2394  1.4545 -1.0566
    2SAPS   H4Y  223   1.565   4.966  -0.359 -0.2377 -0.7532  1.2746
    2SAPS   C35  224   1.483   4.864  -0.520  0.2251 -0.0514 -0.6500
    2SAPS   H5X  225   1.509   4.952  -0.582 -1.4708  0.5313 -0.5696
    2SAPS   H5Y  226   1.378   4.872  -0.485  0.2574 -1.5947 -0.0968
    2SAPS   C36  227   1.499   4.733  -0.597 -0.2114  0.4136  0.0099
    2SAPS   H6X  228   1.459   4.649  -0.537  0.5082 -0.0181 -0.1022
    2SAPS   H6Y  229   1.605   4.708  -0.620  0.0436  0.0539  1.4656
    2SAPS   C37  230   1.416   4.756  -0.724 -1.0380 -0.0390 -0.1627
    2SAPS   H7X  231   1.440   4.854  -0.770 -1.6034  0.4992  0.6676
    2SAPS   H7Y  232   1.307   4.756  -0.704 -0.7641 -0.6716  1.4055
    2SAPS   C38  233   1.463   4.661  -0.828  0.0799  0.1164  0.0681
    2SAPS   H8X  234   1.446   4.554  -0.804  0.0453 -0.4582 -2.2848
    2SAPS   H8Y  235   1.572   4.675  -0.847  0.2123 -1.4634 -0.5245
    2SAPS   C39  236   1.392   4.668  -0.964  0.6127 -0.2985 -0.5916
    2SAPS   H9X  237   1.395   4.770  -1.007 -1.9260  0.3983  0.6850
    2SAPS   H9Y  238   1.287   4.638  -0.945  1.2724 -1.9073  0.7764
    2SAPS  C310  239   1.443   4.564  -1.065 -0.2709  0.1162  0.0845
    2SAPS  H10X  240   1.463   4.469  -1.010  2.3856 -0.4129 -1.6188
    2SAPS  H10Y  241   1.538   4.610  -1.098 -0.7205  2.0869  1.3307
    2SAPS  C311  242   1.351   4.551  -1.186  0.5859  0.4786  0.2438
    2SAPS  H11X  243   1.330   4.648  -1.234  1.5027  0.2581 -0.6266
    2SAPS  H11Y  244   1.253   4.515  -1.148  0.6797 -0.7162 -0.6037
    2SAPS  C312  245   1.387   4.437  -1.284  0.0558 -0.6634 -0.1160
    2SAPS  H12X  246   1.357   4.343  -1.233  0.3459 -1.0226 -0.5912
    2SAPS  H12Y  247   1.493   4.444  -1.315  0.4051  2.5953  1.4027
    2SAPS  C313  248   1.304   4.430  -1.415  0.2370  0.6522 -1.1328
    2SAPS  H13X  249   1.340   4.518  -1.473 -0.5290  1.2487 -0.7407
    2SAPS  H13Y  250   1.197   4.443  -1.385  0.8268  1.3335  0.9085
    2SAPS  C314  251   1.310   4.294  -1.495 -0.5850 -0.6547 -0.2704
    2SAPS  H14X  252   1.287   4.216  -1.419  0.6823  0.6030  1.4981
    2SAPS  H14Y  253   1.413   4.273  -1.531  0.0131  0.3591  0.7610
    2SAPS  C315  254   1.222   4.278  -1.623 -0.1060 -0.5251 -0.4426
    2SAPS  H15X  255   1.260   4.186  -1.673  2.8384  0.2818  0.1197
    2SAPS  H15Y  256   1.262   4.361  -1.685 -1.1916  0.9551  0.7540
    2SAPS  C316  257   1.077   4.274  -1.587  0.2541 -0.6289 -0.2777
    2SAPS  H16X  258   1.027   4.371  -1.568  1.8417  0.0606  0.6113
    2SAPS  H16Y  259   1.069   4.222  -1.489  2.8106  0.5262  0.6597
    2SAPS  C317  260   1.002   4.206  -1.698 -0.7972 -0.1674  0.0299
    2SAPS  H17X  261   1.047   4.108  -1.725 -3.1227 -1.2032 -0.3648
    2SAPS  H17Y  262   1.014   4.263  -1.792  1.6161 -1.4509 -0.5197
    2SAPS  C318  263   0.848   4.187  -1.674 -0.0943 -0.3126 -0.2977
    2SAPS  H18X  264   0.808   4.291  -1.682 -0.1805 -0.3413 -0.2534
    2SAPS  H18Y  265   0.831   4.153  -1.569 -0.0078 -3.0402 -1.0813
    2SAPS  H18Z  266   0.807   4.110  -1.742  1.9910 -1.3812 -0.4178
    3SAPS     N  267   1.539   5.088   0.596  0.2301 -0.0074  0.9062
    3SAPS   HN1  268   1.499   5.151   0.668  0.4799 -0.2645  1.2707
    3SAPS   HN2  269   1.468   5.060   0.525 -0.0330  0.2424  1.0713
    3SAPS   HN3  270   1.569   5.000   0.641  2.9803  1.0075  1.2476
    3SAPS   C12  271   1.650   5.152   0.521 -0.6118  0.2781  0.4005
    3SAPS  H12A  272   1.619   5.238   0.464  1.9872  0.7561 -0.4288
    3SAPS   C13  273   1.752   5.200   0.614  0.3312  0.2103  0.0707
    3SAPS  O13A  274   1.728   5.211   0.739  0.3519 -0.2154  0.7006
    3SAPS  O13B  275   1.861   5.246   0.574 -0.1333  0.0404 -0.3534
    3SAPS   C11  276   1.698   5.036   0.436 -0.3224  0.0151  0.0137
    3SAPS  H11A  277   1.746   4.959   0.501 -0.2944  0.4860  0.5595
    3SAPS  H11B  278   1.771   5.081   0.366 -2.3926  1.8545 -1.0808
    3SAPS     P  279   1.543   5.047   0.220  0.1024 -0.2410  0.2749
    3SAPS   O13  280   1.496   5.189   0.242 -0.5609 -0.0536 -0.2782
    3SAPS   O14  281   1.663   5.035   0.136  0.0170  0.2947  0.6803
    3SAPS   O12  282   1.581   4.981   0.362 -1.0984 -0.4546 -0.1484
    3SAPS   O11  283   1.429   4.950   0.160 -0.0197 -0.5441 -0.2424
    3SAPS    C1  284   1.299   4.996   0.122  0.5543  0.5952 -0.1922
    3SAPS    HA  285   1.228   4.910   0.128 -0.2459  1.0331 -2.3181
    3SAPS    HB  286   1.267   5.072   0.197  1.4190 -0.6872  1.5567
    3SAPS    C2  287   1.290   5.051  -0.019 -0.9706  0.5319  0.8561
    3SAPS    HS  288   1.320   4.973  -0.092 -2.3760  1.7386 -1.1236
    3SAPS   O21  289   1.381   5.162  -0.035  0.6192  0.5613 -0.5191
    3SAPS   C21  290   1.432   5.194  -0.158  0.3234 -0.4379  0.7133
    3SAPS   O22  291   1.411   5.126  -0.260 -0.1885 -0.3910 -0.0375
    3SAPS   C22  292   1.504   5.329  -0.155 -0.4473 -0.2545  0.5901
    3SAPS   H2R  293   1.597   5.316  -0.095 -0.1223  1.0332  0.4120
    3SAPS   H2S  294   1.536   5.364  -0.255  1.7955  0.6770  1.5534
    3SAPS    C3  295   1.144   5.090  -0.066 -0.2380 -0.4194  0.4823
    3SAPS    HX  296   1.107   5.174  -0.003 -0.7291  0.1028 -0.4782
    3SAPS    HY  297   1.071   5.008  -0.048  0.0951 -1.2649 -1.7483
    3SAPS   O31  298   1.141   5.127  -0.206  0.3270  0.1818 -0.0052
    3SAPS   C31  299   1.117   5.031  -0.292 -0.1544  0.4315  0.4207
    3SAPS   O32  300   1.112   4.912  -0.264  0.3324  0.0716  0.0358
    3SAPS   C32  301   1.093   5.080  -0.433 -0.6161 -0.6204  0.9033
    3SAPS   H2X  302   1.189   5.130  -0.455 -0.3631 -1.4509  0.0516
    3SAPS   H2Y  303   1.010   5.154  -0.429 -1.2737 -1.2250 -0.5961
    3SAPS   C23  304   1.417   5.436  -0.087  0.9716 -0.0044 -0.4145
    3SAPS   H3R  305   1.484   5.513  -0.042  0.8565  0.8718 -1.6863
    3SAPS   H3S  306   1.367   5.397   0.005 -3.6873  3.4991 -1.0972
    3SAPS   C24  307   1.310   5.495  -0.184 -0.6225 -0.3856  0.1698
    3SAPS   H4R  308   1.259   5.555  -0.105  2.1828  2.1779  0.2329
    3SAPS   H4S  309   1.247   5.422  -0.238  0.8093 -0.2657 -1.7688
    3SAPS   C25  310   1.375   5.584  -0.288  0.0803 -0.3598 -0.3297
    3SAPS   H5R  311   1.435   5.669  -0.251 -1.2107  0.8359 -0.9153
    3SAPS   C26  312   1.381   5.568  -0.423  0.3998 -0.0683  0.8255
    3SAPS   H6R  313   1.441   5.636  -0.486 -0.1782 -0.4064 -0.1193
    3SAPS   C27  314   1.312   5.462  -0.516  0.2801 -0.3270 -0.5255
    3SAPS   H7R  315   1.283   5.512  -0.610 -0.5614  1.4952  0.6506
    3SAPS   H7S  316   1.210   5.443  -0.478 -0.2290 -0.9983 -2.1657
    3SAPS   C28  317   1.386   5.334  -0.542  0.4083 -0.0490  0.2303
    3SAPS   H8R  318   1.414   5.272  -0.455  1.7916 -1.1966 -0.9820
    3SAPS   C29  319   1.421   5.275  -0.655  0.6494  0.0979 -0.1967
    3SAPS   H9R  320   1.481   5.183  -0.656  1.2888  0.5173 -1.3226
    3SAPS  C210  321   1.384   5.327  -0.797  0.1980  0.2297 -1.1665
    3SAPS  H10R  322   1.289   5.383  -0.789  0.4683  0.4570  1.0235
    3SAPS  H10S  323   1.371   5.239  -0.864  0.3664 -0.1621 -0.6906
    3SAPS  C211  324   1.494   5.417  -0.846 -0.6509 -0.2804 -0.5175
    3SAPS  H11R  325   1.571   5.441  -0.772 -1.0730 -3.4534  1.0883
    3SAPS  C212  326   1.514   5.450  -0.972 -0.2719 -0.3827  0.1405
    3SAPS  H12R  327   1.599   5.517  -0.992  0.7060 -0.8757  2.2745
    3SAPS  C213  328   1.433   5.396  -1.090 -0.0494  0.0960  0.5190
    3SAPS  H13R  329   1.330   5.433  -1.074  0.2591  2.2846 -1.8939
    3SAPS  H13S  330   1.423   5.286  -1.084 -0.8594  0.0956 -0.5996
    3SAPS  C214  331   1.487   5.432  -1.227  0.1894  0.2409 -0.0947
    3SAPS  H14R  332   1.449   5.520  -1.281 -1.1366 -1.2873 -1.7869
    3SAPS  C215  333   1.569   5.360  -1.307  0.6525 -0.2315 -0.3732
    3SAPS  H15R  334   1.589   5.403  -1.406  0.0124 -2.1693 -1.3865
    3SAPS  C216  335   1.632   5.227  -1.272 -0.6786  0.3182 -0.2556
    3SAPS  H16R  336   1.643   5.222  -1.161  0.1512 -0.8650 -0.3772
    3SAPS  H16S  337   1.734   5.232  -1.315  0.5589  3.9378  2.5820
    3SAPS  C217  338   1.548   5.111  -1.327  0.3918  0.1741 -0.0219
    3SAPS  H17R  339   1.531   5.118  -1.437 -1.2061 -0.1714  0.1883
    3SAPS  H17S  340   1.451   5.104  -1.274  0.7757 -3.6332  0.4433
    3SAPS  C218  341   1.621   4.980  -1.292 -0.6497 -0.1380  0.6121
    3SAPS  H18R  342   1.542   4.903  -1.306  0.4782 -1.7394  2.5179
    3SAPS  H18S  343   1.657   4.981  -1.187  1.8847 -0.2364 -0.1759
    3SAPS  C219  344   1.746   4.955  -1.380 -0.1035 -0.3398  0.0864
    3SAPS  H19R  345   1.715   4.962  -1.487 -0.2987  0.4387  0.1887
    3SAPS  H19S  346   1.809   5.044  -1.362  1.1800 -1.1536 -0.2755
    3SAPS  C220  347   1.826   4.829  -1.357  0.1440  0.1607  0.6940
    3SAPS  H20R  348   1.763   4.738  -1.369 -0.1898  0.5030 -0.3171
    3SAPS  H20S  349   1.876   4.820  -1.259 -1.9499 -1.1187  1.7224
    3SAPS  H20T  350   1.903   4.817  -1.436  2.0249  1.2887  2.2752
    3SAPS   C33  351   1.078   4.959  -0.536 -0.3987  0.0491  0.1709
    3SAPS   H3X  352   1.005   4.888  -0.493 -0.5322 -0.7193 -1.2653
    3SAPS   H3Y  353   1.178   4.911  -0.537  0.1457  1.1179 -1.1915
    3SAPS   C34  354   1.040   4.990  -0.682  0.2188 -0.8638 -0.4537
    3SAPS   H4X  355   0.936   5.029  -0.684  0.6364  0.3569  0.6304
    3SAPS   H4Y  356   1.043   4.892  -0.736  0.1831 -1.4401  0.5589
    3SAPS   C35  357   1.135   5.091  -0.754  0.0133 -0.2254 -0.4977
    3SAPS   H5X  358   1.125   5.187  -0.698 -0.9188 -0.0069 -1.0099
    3SAPS   H5Y  359   1.239   5.055  -0.744 -0.3740 -1.1907  0.1561
    3SAPS   C36  360   1.105   5.134  -0.904  0.0634 -0.3387  0.0995
    3SAPS   H6X  361   1.133   5.239  -0.924 -0.5465  0.0272  1.1273
    3SAPS   H6Y  362   0.997   5.135  -0.931  0.1546 -1.2240 -0.3555
    3SAPS   C37  363   1.178   5.058  -1.008  0.2296  0.3821  0.0683
    3SAPS   H7X  364   1.166   4.948  -0.996  1.9302  0.0476 -0.8638
    3SAPS   H7Y  365   1.287   5.077  -0.997 -0.0119  0.8006  2.0801
    3SAPS   C38  366   1.129   5.093  -1.148 -0.5211 -0.5566 -0.4287
    3SAPS   H8X  367   1.166   5.195  -1.173 -1.0784 -0.8090 -2.5110
    3SAPS   H8Y  368   1.019   5.110  -1.148 -0.3736  0.4704  0.3782
    3SAPS   C39  369   1.165   4.984  -1.250 -0.5826 -0.0923  0.1650
    3SAPS   H9X  370   1.111   4.888  -1.235  0.5045 -1.3012 -2.9243
    3SAPS   H9Y  371   1.272   4.966  -1.229 -0.0186  1.2112 -1.4099
    3SAPS  C310  372   1.126   5.026  -1.394  0.7573 -0.9438 -0.1704
    3SAPS  H10X  373   1.171   5.120  -1.431 -0.7486  0.5923  1.6958
    3SAPS  H10Y  374   1.016   5.044  -1.398  1.0576  0.8906 -2.3323
    3SAPS  C311  375   1.158   4.914  -1.495 -0.1236 -0.1803 -0.1091
    3SAPS  H11X  376   1.127   4.949  -1.595 -0.6637 -1.7464 -0.5240
    3SAPS  H11Y  377   1.107   4.819  -1.467  1.8161 -1.1177  0.4469
    3SAPS  C312  378   1.310   4.887  -1.518 -0.1825  0.2053  0.1958
    3SAPS  H12X  379   1.353   4.867  -1.417 -1.0575  1.5365  0.8572
    3SAPS  H12Y  380   1.370   4.972  -1.556 -1.5715  1.6477  1.1047
    3SAPS  C313  381   1.341   4.766  -1.612 -0.1346 -0.1475  0.0555
    3SAPS  H13X  382   1.316   4.795  -1.716  1.8553 -2.4141 -1.1622
    3SAPS  H13Y  383   1.285   4.674  -1.584  0.0810 -1.1073 -2.4467
    3SAPS  C314  384   1.497   4.739  -1.632  0.1497  0.3358 -0.1209
    3SAPS  H14X  385   1.542   4.707  -1.536 -0.2087 -2.3911 -0.7806
    3SAPS  H14Y  386   1.551   4.828  -1.672 -1.4470  0.0993 -3.0986
    3SAPS  C315  387   1.525   4.641  -1.750  0.2939  0.1095 -0.4001
    3SAPS  H15X  388   1.514   4.707  -1.838 -1.9477  2.4846  1.5138
    3SAPS  H15Y  389   1.462   4.550  -1.744  0.9448 -0.3189  0.1402
    3SAPS  C316  390   1.674   4.584  -1.765  0.3895 -0.0684 -1.3089
    3SAPS  H16X  391   1.670   4.518  -1.854  0.0749  0.0469 -1.3823
    3SAPS  H16Y  392   1.701   4.528  -1.674  0.3230 -1.0740 -1.8963
    3SAPS  C317  393   1.778   4.690  -1.786  0.8178  0.4178 -0.2199
    3SAPS  H17X  394   1.773   4.760  -1.699 -0.2159 -0.4368  0.4369
    3SAPS  H17Y  395   1.736   4.739  -1.877 -0.2477 -1.8896 -1.0298
    3SAPS  C318  396   1.922   4.641  -1.802 -0.0362 -0.2580  0.1351
    3SAPS  H18X  397   1.934   4.585  -1.897 -1.0145 -0.1970 -0.0408
    3SAPS  H18Y  398   1.952   4.579  -1.715  0.4213  1.0893  0.9801
    3SAPS  H18Z  399   1.997   4.721  -1.819  0.2735 -0.9472 -2.0387
    4SAPS     N  400   4.621   6.574   0.583  0.2848  0.0670  0.1432
    4SAPS   HN1  401   4.596   6.545   0.487  1.4634 -0.3893 -0.0430
    4SAPS   HN2  402   4.559   6.528   0.653 -0.2074  0.4418 -0.0431
    4SAPS   HN3  403   4.611   6.678   0.588 -1.8415 -0.1265  0.7004
    4SAPS   C12  404   4.765   6.545   0.593 -0.0840  0.7212 -0.2714
    4SAPS  H12A  405   4.805   6.585   0.685  1.1057 -2.7919  0.8885
    4SAPS   C13  406   4.796   6.383   0.597 -0.1938 -0.0531  0.1395
    4SAPS  O13A  407   4.700   6.306   0.584  0.4689 -0.1989  0.4011
    4SAPS  O13B  408   4.915   6.346   0.582 -0.3083 -0.0479  0.3985
    4SAPS   C11  409   4.849   6.606   0.470  0.5022  0.8621  0.0548
    4SAPS  H11A  410   4.809   6.572   0.372  0.7607  2.5012 -0.6402
    4SAPS  H11B  411   4.952   6.564   0.468 -0.6075 -2.0712 -1.4984
    4SAPS     P  412   4.948   6.823   0.373 -0.0710 -0.1002  0.5773
    4SAPS   O13  413   4.878   6.922   0.290  0.0126  0.8447  0.4390
    4SAPS   O14  414   5.054   6.866   0.465  0.7508  0.0466  0.6053
    4SAPS   O12  415   4.845   6.752   0.473  0.1512  0.1967  0.1339
    4SAPS   O11  416   4.999   6.714   0.277 -0.1485  0.5886  0.1776
    4SAPS    C1  417   5.136   6.719   0.224 -0.1976  0.2387 -0.0788
    4SAPS    HA  418   5.211   6.679   0.295 -0.5336  1.1091  0.7731
    4SAPS    HB  419   5.131   6.649   0.137 -1.8913  0.4750 -0.1915
    4SAPS    C2  420   5.183   6.849   0.150  0.4890 -0.3359  0.2333
    4SAPS    HS  421   5.185   6.937   0.218  1.1205 -1.1193  1.2483
    4SAPS   O21  422   5.097   6.879   0.034 -0.6047 -0.4136  0.1498
    4SAPS   C21  423   5.121   7.003  -0.019 -0.2716  0.5945  0.8215
    4SAPS   O22  424   5.191   7.092   0.027  0.4989  0.5165  0.1016
    4SAPS   C22  425   5.037   7.025  -0.149 -0.3944 -0.3953 -0.0712
    4SAPS   H2R  426   4.965   6.941  -0.151 -0.6197 -0.3819  2.6471
    4SAPS   H2S  427   4.967   7.111  -0.140 -0.5846 -0.5513 -0.0500
    4SAPS    C3  428   5.333   6.841   0.094  0.0275 -0.0071  0.5099
    4SAPS    HX  429   5.397   6.811   0.179 -1.3629 -2.3823  0.7968
    4SAPS    HY  430   5.356   6.947   0.068 -1.4213  0.1761 -0.1503
    4SAPS   O31  431   5.336   6.766  -0.022  0.0132  0.1589 -0.0810
    4SAPS   C31  432   5.418   6.665  -0.026  0.3857  0.1105  0.2586
    4SAPS   O32  433   5.487   6.622   0.061 -0.0542  0.4956 -0.2248
    4SAPS   C32  434   5.424   6.613  -0.180 -0.2417 -0.0400  0.1478
    4SAPS   H2X  435   5.533   6.595  -0.190 -0.1569 -1.8580  2.9745
    4SAPS   H2Y  436   5.388   6.693  -0.248 -0.1838  0.1143  0.2969
    4SAPS   C23  437   5.116   7.067  -0.276  0.5555 -0.2396 -0.3496
    4SAPS   H3R  438   5.173   7.160  -0.258  3.2654 -1.6912 -0.8382
    4SAPS   H3S  439   5.043   7.079  -0.359 -0.6328 -2.9523  0.1697
    4SAPS   C24  440   5.221   6.971  -0.317  0.3198  0.2370 -0.2667
    4SAPS   H4R  441   5.311   6.964  -0.251 -1.1996  2.3058  2.2519
    4SAPS   H4S  442   5.254   7.000  -0.419  0.2412 -1.9417 -0.9693
    4SAPS   C25  443   5.165   6.833  -0.319  0.1329 -0.3038  0.1554
    4SAPS   H5R  444   5.139   6.795  -0.220  1.2969 -2.9491 -0.4670
    4SAPS   C26  445   5.149   6.755  -0.428  0.0603 -0.3133  0.5422
    4SAPS   H6R  446   5.095   6.660  -0.417 -0.6528 -0.1997 -1.4643
    4SAPS   C27  447   5.169   6.810  -0.571  0.0128  0.6636 -0.1828
    4SAPS   H7R  448   5.228   6.903  -0.580 -1.1455  1.4438  0.1218
    4SAPS   H7S  449   5.067   6.848  -0.591 -0.7157 -0.6926  0.7425
    4SAPS   C28  450   5.211   6.713  -0.675  0.0524 -0.1068  0.6767
    4SAPS   H8R  451   5.214   6.609  -0.639 -1.1111  0.5029  2.7243
    4SAPS   C29  452   5.239   6.738  -0.806  0.4272  0.3788  0.4349
    4SAPS   H9R  453   5.266   6.647  -0.863 -0.2620 -1.7467  3.2473
    4SAPS  C210  454   5.247   6.862  -0.889 -0.9274 -0.2142 -0.3266
    4SAPS  H10R  455   5.341   6.857  -0.948 -1.7103 -0.3380 -1.5844
    4SAPS  H10S  456   5.241   6.943  -0.814  0.3527 -0.9181  0.5766
    4SAPS  C211  457   5.134   6.876  -0.990  0.1728 -0.1220  0.0147
    4SAPS  H11R  458   5.033   6.884  -0.947 -0.1108  1.3673 -0.8871
    4SAPS  C212  459   5.139   6.872  -1.122  0.8578  0.2350  0.3444
    4SAPS  H12R  460   5.045   6.889  -1.177  0.2812  0.0647  1.2586
    4SAPS  C213  461   5.256   6.855  -1.207 -0.3377  0.4594  0.5200
    4SAPS  H13R  462   5.341   6.819  -1.145  0.0094 -0.2443 -0.3349
    4SAPS  H13S  463   5.286   6.946  -1.263  1.8758 -0.2663  0.4398
    4SAPS  C214  464   5.223   6.745  -1.309  0.1469  0.0202  0.5417
    4SAPS  H14R  465   5.175   6.660  -1.259 -3.0673  1.0865 -0.4645
    4SAPS  C215  466   5.230   6.761  -1.446 -0.2846 -0.2216 -0.3119
    4SAPS  H15R  467   5.203   6.680  -1.515  0.4106  0.0807 -0.9436
    4SAPS  C216  468   5.309   6.870  -1.516  0.1810  0.3954 -0.3646
    4SAPS  H16R  469   5.348   6.949  -1.449  0.6202 -0.5909  0.5672
    4SAPS  H16S  470   5.232   6.919  -1.580 -0.3389 -1.6780 -1.4429
    4SAPS  C217  471   5.436   6.817  -1.599  0.9465  0.5230 -0.5535
    4SAPS  H17R  472   5.464   6.898  -1.671 -0.5400 -1.5140 -3.6622
    4SAPS  H17S  473   5.407   6.730  -1.661  0.6023  0.2673 -0.0426
    4SAPS  C218  474   5.557   6.799  -1.517 -0.0385  0.6553  0.5397
    4SAPS  H18R  475   5.550   6.718  -1.441  2.1833  1.9830  2.2433
    4SAPS  H18S  476   5.573   6.891  -1.458  1.5069  0.4346  0.5043
    4SAPS  C219  477   5.682   6.786  -1.604 -0.1342 -0.1085  0.1679
    4SAPS  H19R  478   5.695   6.878  -1.665  1.2945 -0.9256 -0.8271
    4SAPS  H19S  479   5.672   6.700  -1.674 -1.4267 -0.4525  0.7458
    4SAPS  C220  480   5.816   6.768  -1.530  0.5550 -0.1295  0.5310
    4SAPS  H20R  481   5.857   6.664  -1.530  0.6029 -0.1229 -0.5146
    4SAPS  H20S  482   5.798   6.799  -1.425  2.7170 -0.2727  0.9951
    4SAPS  H20T  483   5.891   6.832  -1.581 -0.6195 -1.3677 -3.0097
    4SAPS   C33  484   5.339   6.483  -0.204  0.8929  0.0083 -0.0946
    4SAPS   H3X  485   5.228   6.495  -0.196  1.0634  0.7772  1.4872
    4SAPS   H3Y  486   5.364   6.405  -0.130 -2.0630  1.6115  2.8597
    4SAPS   C34  487   5.362   6.435  -0.348  0.5115 -0.5223 -0.1378
    4SAPS   H4X  488   5.463   6.389  -0.344  0.8962  0.3767  1.4436
    4SAPS   H4Y  489   5.361   6.531  -0.404 -1.7381 -0.1408  0.4651
    4SAPS   C35  490   5.244   6.347  -0.397  0.2550 -0.1764 -0.3797
    4SAPS   H5X  491   5.152   6.401  -0.367  2.2704  1.1938  4.2669
    4SAPS   H5Y  492   5.230   6.257  -0.333  0.2413  0.3897  0.4160
    4SAPS   C36  493   5.257   6.316  -0.536  0.6860  0.6008  0.3236
    4SAPS   H6X  494   5.341   6.243  -0.549  1.0017  0.6544  1.8761
    4SAPS   H6Y  495   5.297   6.404  -0.591 -0.0405  1.1234  0.6184
    4SAPS   C37  496   5.128   6.272  -0.603 -0.3493 -0.2046  0.4653
    4SAPS   H7X  497   5.064   6.363  -0.593  0.3705  0.2623  0.9597
    4SAPS   H7Y  498   5.074   6.199  -0.539 -1.3644 -0.8830 -1.1107
    4SAPS   C38  499   5.136   6.209  -0.746  1.2133  0.7914 -0.0023
    4SAPS   H8X  500   5.041   6.160  -0.777  1.4161  1.0684 -1.1118
    4SAPS   H8Y  501   5.201   6.119  -0.751 -1.5669 -1.3140 -1.6404
    4SAPS   C39  502   5.167   6.303  -0.857  0.3416  0.7349 -0.0126
    4SAPS   H9X  503   5.185   6.231  -0.940 -3.2544 -1.7743  1.1238
    4SAPS   H9Y  504   5.260   6.365  -0.856  1.3487 -0.5112 -3.4379
    4SAPS  C310  505   5.053   6.387  -0.892 -0.0164  0.2274  0.9625
    4SAPS  H10X  506   5.053   6.463  -0.811 -1.8193  0.0167  1.1821
    4SAPS  H10Y  507   4.963   6.323  -0.888  0.3007 -0.2392  0.6433
    4SAPS  C311  508   5.064   6.448  -1.033  0.4081  0.7113 -0.5400
    4SAPS  H11X  509   5.156   6.510  -1.035  1.2415 -0.2974  2.1396
    4SAPS  H11Y  510   4.973   6.508  -1.053 -1.4570 -1.7861 -0.1382
    4SAPS  C312  511   5.057   6.344  -1.146  0.4501 -1.3374 -0.8911
    4SAPS  H12X  512   4.950   6.318  -1.148  0.3216 -0.8124 -1.1284
    4SAPS  H12Y  513   5.131   6.266  -1.118  0.4861 -0.4490  1.7525
    4SAPS  C313  514   5.091   6.401  -1.286  0.4036 -0.8545  0.7095
    4SAPS  H13X  515   5.193   6.446  -1.295  0.3084 -0.8708 -0.6863
    4SAPS  H13Y  516   5.040   6.497  -1.307  1.3055 -0.1159  1.8046
    4SAPS  C314  517   5.071   6.306  -1.402  0.8497  0.5401 -0.4438
    4SAPS  H14X  518   4.994   6.233  -1.369  1.4627  0.4040  0.7457
    4SAPS  H14Y  519   5.163   6.244  -1.414 -0.6894 -2.0542  0.2980
    4SAPS  C315  520   5.037   6.371  -1.537 -0.7760  0.1928 -0.2665
    4SAPS  H15X  521   5.030   6.290  -1.612 -1.9254 -0.3192  0.3625
    4SAPS  H15Y  522   5.125   6.436  -1.555 -0.7384  0.0543 -0.5907
    4SAPS  C316  523   4.901   6.439  -1.550 -0.7071  0.3182  0.2345
    4SAPS  H16X  524   4.900   6.516  -1.470  0.2762 -0.7212  1.2970
    4SAPS  H16Y  525   4.833   6.352  -1.540 -0.2958 -0.0879 -0.4086
    4SAPS  C317  526   4.862   6.473  -1.695 -0.5799 -0.0133 -0.3504
    4SAPS  H17X  527   4.752   6.486  -1.690 -0.4471  1.0233  0.2279
    4SAPS  H17Y  528   4.888   6.394  -1.769 -0.4992  1.1224 -1.5756
    4SAPS  C318  529   4.917   6.615  -1.728  0.1576  0.4022  0.5090
    4SAPS  H18X  530   5.027   6.612  -1.716  0.1900 -1.8091  0.0450
    4SAPS  H18Y  531   4.867   6.693  -1.666  0.1391  0.1326  0.8359
    4SAPS  H18Z  532   4.899   6.652  -1.831  0.5495  3.2034  1.3600
    5SAPS     N  533   1.072   4.151   0.643 -0.4807 -0.3325 -0.7781
    5SAPS   HN1  534   1.010   4.112   0.569  0.1827 -0.4769 -1.2704
    5SAPS   HN2  535   1.163   4.104   0.625 -0.9121 -1.3816 -0.2661
    5SAPS   HN3  536   1.047   4.130   0.741  1.5881 -0.5236 -0.2525
    5SAPS   C12  537   1.096   4.302   0.630  0.4592 -0.8667 -0.9769
    5SAPS  H12A  538   1.006   4.353   0.662  0.2436 -2.0791  0.4527
    5SAPS   C13  539   1.205   4.373   0.713 -1.1160  0.3195 -0.1623
    5SAPS  O13A  540   1.253   4.313   0.816  0.2601 -0.0665  0.0989
    5SAPS  O13B  541   1.220   4.495   0.702 -0.9567 -0.2158 -0.4110
    5SAPS   C11  542   1.125   4.326   0.478 -0.2023 -0.3160  0.5628
    5SAPS  H11A  543   1.143   4.435   0.471 -1.7452 -0.0111  1.0347
    5SAPS  H11B  544   1.034   4.296   0.421  0.3279 -2.4357  0.7617
    5SAPS     P  545   1.372   4.312   0.394  0.4667  0.0831  0.5956
    5SAPS   O13  546   1.352   4.438   0.318 -0.0199 -0.1405 -0.4414
    5SAPS   O14  547   1.470   4.333   0.503  0.1660  0.0107  0.4542
    5SAPS   O12  548   1.241   4.248   0.439 -0.1064 -0.8895 -0.7336
    5SAPS   O11  549   1.437   4.199   0.294  0.1983 -0.7061 -0.2068
    5SAPS    C1  550   1.387   4.073   0.261 -0.2683 -0.7328 -0.5700
    5SAPS    HA  551   1.479   4.012   0.251  0.6710 -0.0484  2.6320
    5SAPS    HB  552   1.336   4.023   0.345 -0.8651  0.0260 -0.4673
    5SAPS    C2  553   1.299   4.054   0.136  0.1548 -0.0322  1.1769
    5SAPS    HS  554   1.310   3.952   0.093  1.7421  0.7955 -0.5749
    5SAPS   O21  555   1.329   4.153   0.038  0.0227  0.0134  0.1309
    5SAPS   C21  556   1.432   4.135  -0.033 -0.6175 -0.4945  0.1874
    5SAPS   O22  557   1.521   4.053  -0.036  0.0039  0.2498 -0.5560
    5SAPS   C22  558   1.445   4.258  -0.128  0.0259  0.2633  0.0550
    5SAPS   H2R  559   1.352   4.272  -0.187  1.4916  4.6392 -1.6370
    5SAPS   H2S  560   1.476   4.353  -0.082  1.9905  0.3256 -1.2566
    5SAPS    C3  561   1.146   4.057   0.173 -0.2267 -0.4294  0.1372
    5SAPS    HX  562   1.123   4.146   0.235  0.8572  0.4736 -0.6916
    5SAPS    HY  563   1.121   3.976   0.245 -0.3787 -0.6904 -0.2067
    5SAPS   O31  564   1.069   4.043   0.048  0.6917  0.5184 -1.0689
    5SAPS   C31  565   0.935   4.052   0.068  0.7214  0.3776 -0.0885
    5SAPS   O32  566   0.887   4.051   0.182 -0.5388  0.0474  0.3931
    5SAPS   C32  567   0.856   4.054  -0.068 -0.5474 -0.4535 -0.1867
    5SAPS   H2X  568   0.878   4.155  -0.107  0.8867 -1.0701 -1.0837
    5SAPS   H2Y  569   0.753   4.043  -0.029 -0.0912 -0.1202  1.1430
    5SAPS   C23  570   1.556   4.223  -0.233 -0.0871  0.1440  0.2726
    5SAPS   H3R  571   1.521   4.138  -0.295  0.9062  0.3652 -0.6153
    5SAPS   H3S  572   1.649   4.201  -0.176 -0.1768 -1.1308 -0.0517
    5SAPS   C24  573   1.583   4.344  -0.327  0.0718  0.3664 -0.0151
    5SAPS   H4R  574   1.678   4.330  -0.382  1.8045  0.8783  2.6907
    5SAPS   H4S  575   1.603   4.436  -0.268 -0.3663  0.2199  0.3651
    5SAPS   C25  576   1.466   4.359  -0.421 -0.7603  0.0201  0.3984
    5SAPS   H5R  577   1.380   4.405  -0.369 -2.7496 -2.8188 -0.1369
    5SAPS   C26  578   1.464   4.341  -0.556 -0.1338 -0.0047 -0.6183
    5SAPS   H6R  579   1.366   4.359  -0.603 -0.3806  1.5854  0.4356
    5SAPS   C27  580   1.563   4.257  -0.635  0.2205  1.0330  0.3065
    5SAPS   H7R  581   1.659   4.302  -0.601  0.0384  1.4391  0.2906
    5SAPS   H7S  582   1.547   4.272  -0.744 -1.0125  0.3216  0.3771
    5SAPS   C28  583   1.568   4.109  -0.608 -0.4483  0.3495  0.0153
    5SAPS   H8R  584   1.556   4.074  -0.504  0.0392  1.2763  0.4025
    5SAPS   C29  585   1.594   3.999  -0.688  0.4786 -1.8452 -0.0293
    5SAPS   H9R  586   1.563   3.900  -0.651 -0.8141 -1.3371  0.3290
    5SAPS  C210  587   1.623   3.999  -0.837  0.4540 -0.7369  0.2908
    5SAPS  H10R  588   1.655   3.898  -0.869  0.5406 -0.5297 -0.2871
    5SAPS  H10S  589   1.707   4.070  -0.855 -1.0294  1.5506  1.7903
    5SAPS  C211  590   1.506   4.040  -0.928 -0.1533 -0.3177 -0.3605
    5SAPS  H11R  591   1.415   4.044  -0.867 -1.0309 -0.3761 -1.6430
    5SAPS  C212  592   1.499   4.049  -1.062 -0.3129  0.5155  0.4578
    5SAPS  H12R  593   1.406   4.069  -1.117 -0.9221  0.0215  1.2786
    5SAPS  C213  594   1.625   4.034  -1.154 -0.0039 -0.3499  0.3322
    5SAPS  H13R  595   1.722   4.040  -1.100 -0.1180  0.9682  0.4189
    5SAPS  H13S  596   1.618   4.124  -1.218  1.4470  0.3659  1.1445
    5SAPS  C214  597   1.611   3.903  -1.223 -1.0695  0.4668  0.0486
    5SAPS  H14R  598   1.615   3.809  -1.165  0.9594 -0.7790 -1.9510
    5SAPS  C215  599   1.596   3.893  -1.355  0.0515 -0.3551 -0.2966
    5SAPS  H15R  600   1.583   3.792  -1.395 -3.9225  0.4502 -1.4615
    5SAPS  C216  601   1.590   3.999  -1.457  0.1410  0.9005 -0.3601
    5SAPS  H16R  602   1.668   4.072  -1.427 -0.0952  1.3682 -0.8606
    5SAPS  H16S  603   1.493   4.054  -1.450  0.3464  1.3197 -0.7933
    5SAPS  C217  604   1.630   3.951  -1.602 -0.3265 -1.3919  0.5001
    5SAPS  H17R  605   1.571   3.860  -1.626  0.9114 -1.8488 -0.9626
    5SAPS  H17S  606   1.738   3.924  -1.608  0.5394  1.6696  0.6139
    5SAPS  C218  607   1.610   4.057  -1.709 -0.3125  0.4245  0.3683
    5SAPS  H18R  608   1.668   4.150  -1.693  1.2517 -0.7385  1.8101
    5SAPS  H18S  609   1.501   4.079  -1.706 -1.0970 -2.8666  0.1965
    5SAPS  C219  610   1.639   3.994  -1.854  0.0457 -0.1671  0.3721
    5SAPS  H19R  611   1.552   3.927  -1.874 -0.7026  1.3338 -1.7387
    5SAPS  H19S  612   1.731   3.932  -1.859 -0.9484 -1.7430  0.8208
    5SAPS  C220  613   1.628   4.105  -1.966 -0.1989  0.1580 -0.3792
    5SAPS  H20R  614   1.639   4.070  -2.071  1.4624 -0.3800 -0.0446
    5SAPS  H20S  615   1.715   4.170  -1.944  1.6291 -2.9146  2.2947
    5SAPS  H20T  616   1.536   4.166  -1.949  0.7958  1.4268  0.6792
    5SAPS   C33  617   0.898   3.943  -0.178  0.1841 -0.1662  0.4172
    5SAPS   H3X  618   1.007   3.948  -0.198  0.1949  1.8004  0.7283
    5SAPS   H3Y  619   0.845   3.962  -0.274 -1.5808 -1.2965  1.1244
    5SAPS   C34  620   0.866   3.799  -0.136  0.4332  0.0774 -0.8829
    5SAPS   H4X  621   0.765   3.789  -0.092  1.7370 -1.8285  2.0317
    5SAPS   H4Y  622   0.931   3.772  -0.050 -1.3796 -3.7826 -0.5047
    5SAPS   C35  623   0.882   3.696  -0.245  0.0651  0.3829  0.7272
    5SAPS   H5X  624   0.880   3.595  -0.198 -0.7306  0.6366  1.2420
    5SAPS   H5Y  625   0.982   3.715  -0.290 -0.1011  0.5249  0.4153
    5SAPS   C36  626   0.767   3.690  -0.337  0.2243  0.1848  0.2371
    5SAPS   H6X  627   0.754   3.783  -0.397 -1.1635 -0.0681  0.1194
    5SAPS   H6Y  628   0.670   3.665  -0.289  0.0620  1.7890  0.8112
    5SAPS   C37  629   0.776   3.573  -0.442  0.0465  0.4196  0.2900
    5SAPS   H7X  630   0.817   3.483  -0.392 -0.3352 -0.3319 -0.7191
    5SAPS   H7Y  631   0.843   3.611  -0.522 -2.1364  0.4453 -1.6230
    5SAPS   C38  632   0.648   3.522  -0.513  0.4194  0.1474  0.0656
    5SAPS   H8X  633   0.579   3.608  -0.498 -0.8796 -1.2477  3.0123
    5SAPS   H8Y  634   0.606   3.450  -0.439 -3.4156  2.8504  0.8439
    5SAPS   C39  635   0.650   3.466  -0.653 -0.8096  0.1288 -0.3325
    5SAPS   H9X  636   0.657   3.548  -0.728  0.9673  0.3830  0.0603
    5SAPS   H9Y  637   0.548   3.422  -0.660 -1.0444  0.1023  2.1943
    5SAPS  C310  638   0.765   3.358  -0.668  0.3557 -0.3354  0.4925
    5SAPS  H10X  639   0.744   3.279  -0.592  0.1981 -0.7739 -0.0055
    5SAPS  H10Y  640   0.858   3.410  -0.635  0.3725  0.0395 -0.1450
    5SAPS  C311  641   0.775   3.282  -0.798 -0.4063 -0.0036 -0.4869
    5SAPS  H11X  642   0.761   3.359  -0.876  0.5471 -1.1271 -1.7996
    5SAPS  H11Y  643   0.690   3.210  -0.806  0.2239 -0.9913  1.0823
    5SAPS  C312  644   0.906   3.212  -0.814  0.2947  0.3175 -0.7430
    5SAPS  H12X  645   0.915   3.131  -0.738  0.2556  0.9224 -0.0824
    5SAPS  H12Y  646   0.991   3.274  -0.779  1.3775 -0.9347 -1.0494
    5SAPS  C313  647   0.944   3.173  -0.954  0.4236  0.7064  0.1118
    5SAPS  H13X  648   1.047   3.131  -0.952  0.3390  0.5129  0.6977
    5SAPS  H13Y  649   0.942   3.258  -1.025  0.0371  0.0851 -0.6289
    5SAPS  C314  650   0.838   3.075  -1.015 -0.1135  1.2220  0.1464
    5SAPS  H14X  651   0.741   3.127  -1.028 -0.1730  1.1231  0.1897
    5SAPS  H14Y  652   0.812   2.991  -0.947 -1.2538  0.8709 -0.6941
    5SAPS  C315  653   0.876   3.008  -1.148 -0.0138  0.1952  0.0654
    5SAPS  H15X  654   0.875   3.085  -1.227  1.1206 -0.8545 -1.0129
    5SAPS  H15Y  655   0.790   2.940  -1.171  0.0035  0.5986 -1.2943
    5SAPS  C316  656   1.012   2.937  -1.153  0.1590 -0.2533 -0.6104
    5SAPS  H16X  657   1.010   2.857  -1.076 -1.1797  1.9748  1.8424
    5SAPS  H16Y  658   1.098   3.003  -1.129  0.5490 -0.8838 -0.2524
    5SAPS  C317  659   1.030   2.866  -1.286 -0.1906  0.2888  0.4090
    5SAPS  H17X  660   1.120   2.803  -1.271 -0.1055  0.4374  0.5282
    5SAPS  H17Y  661   1.041   2.946  -1.363 -1.3920  1.0370  0.9927
    5SAPS  C318  662   0.915   2.783  -1.336  0.9014 -0.6405  0.2551
    5SAPS  H18X  663   0.877   2.711  -1.261 -2.4401  1.4317  0.7707
    5SAPS  H18Y  664   0.935   2.732  -1.433 -1.9843  0.4079 -1.0318
    5SAPS  H18Z  665   0.829   2.851  -1.359  0.7311 -0.8589  0.2450
    6SAPS     N  666   0.274   3.345   0.391 -0.2774  0.1924  0.0891
    6SAPS   HN1  667   0.228   3.438   0.399  1.2336  0.9721 -0.0783
    6SAPS   HN2  668   0.376   3.361   0.381  0.6570 -2.1839  3.7130
    6SAPS   HN3  669   0.243   3.286   0.311 -0.2898  1.2616 -0.7101
    6SAPS   C12  670   0.240   3.266   0.510  0.6674 -0.6009 -0.6309
    6SAPS  H12A  671   0.312   3.303   0.582 -1.2648 -1.3339  1.8526
    6SAPS   C13  672   0.091   3.288   0.570 -0.7494 -0.4095 -0.5172
    6SAPS  O13A  673   0.019   3.372   0.511  0.4505  0.3068  0.2569
    6SAPS  O13B  674   0.045   3.220   0.670  0.1685 -0.0933  0.4099
    6SAPS   C11  675   0.266   3.120   0.477  0.1318  0.7155 -0.4001
    6SAPS  H11A  676   0.183   3.085   0.412  0.7290 -3.1757  0.6979
    6SAPS  H11B  677   0.269   3.058   0.569 -3.5869  0.4178 -0.3350
    6SAPS     P  678   0.463   2.979   0.352 -0.5194  0.3647 -0.7010
    6SAPS   O13  679   0.610   2.987   0.368 -0.0471 -0.5162 -0.3021
    6SAPS   O14  680   0.396   2.858   0.411  0.6512  0.6509 -0.0944
    6SAPS   O12  681   0.398   3.111   0.411  0.1045  0.0871 -0.0110
    6SAPS   O11  682   0.415   3.003   0.205  0.2964  0.6982  0.5794
    6SAPS    C1  683   0.498   3.084   0.122  0.3786 -1.0946  0.1119
    6SAPS    HA  684   0.446   3.182   0.135  1.3541 -0.5965  0.3681
    6SAPS    HB  685   0.604   3.110   0.145  0.4137 -0.6059 -0.5709
    6SAPS    C2  686   0.489   3.046  -0.027 -0.1770 -0.2260  0.0207
    6SAPS    HS  687   0.382   3.029  -0.053  0.3776 -2.5938 -0.9635
    6SAPS   O21  688   0.565   2.932  -0.046 -0.0965  0.0207 -0.2179
    6SAPS   C21  689   0.495   2.841  -0.122  0.4778 -0.3041 -0.4209
    6SAPS   O22  690   0.389   2.864  -0.178  0.0130 -0.0644  0.0471
    6SAPS   C22  691   0.584   2.712  -0.136 -0.1526  0.2118  0.4827
    6SAPS   H2R  692   0.679   2.739  -0.187  1.5229 -0.2951  3.1591
    6SAPS   H2S  693   0.610   2.687  -0.031  2.5177 -1.8533 -0.5449
    6SAPS    C3  694   0.553   3.162  -0.117 -0.1427 -0.0873 -0.2411
    6SAPS    HX  695   0.654   3.179  -0.072 -0.4071  1.0344 -0.0651
    6SAPS    HY  696   0.495   3.255  -0.101  0.0987  0.5858 -2.8411
    6SAPS   O31  697   0.552   3.133  -0.255  0.5135 -0.0652 -0.1256
    6SAPS   C31  698   0.658   3.067  -0.298 -0.3326  0.6687  0.1295
    6SAPS   O32  699   0.758   3.039  -0.225 -0.6013 -0.3749  0.5538
    6SAPS   C32  700   0.650   3.018  -0.442  0.5271 -0.4593  0.2635
    6SAPS   H2X  701   0.751   3.029  -0.487  0.4001 -0.3386  0.0044
    6SAPS   H2Y  702   0.584   3.079  -0.508 -0.3731 -2.8213 -1.1450
    6SAPS   C23  703   0.527   2.590  -0.211  0.4013  0.8388  0.3717
    6SAPS   H3R  704   0.486   2.624  -0.308  1.1628  0.2081 -0.1826
    6SAPS   H3S  705   0.447   2.541  -0.151 -1.3460  1.1667 -1.5872
    6SAPS   C24  706   0.627   2.473  -0.242  0.0710  0.3702 -0.1917
    6SAPS   H4R  707   0.721   2.518  -0.282 -0.3995  1.5403 -0.0319
    6SAPS   H4S  708   0.570   2.409  -0.313  0.9378 -1.3971  0.6527
    6SAPS   C25  709   0.649   2.402  -0.111  0.1324  0.7645 -0.0626
    6SAPS   H5R  710   0.559   2.364  -0.061 -1.0917  2.4506 -0.8689
    6SAPS   C26  711   0.774   2.383  -0.059  0.0691  0.4935 -0.4232
    6SAPS   H6R  712   0.778   2.340   0.042 -1.9772 -0.4223 -0.6731
    6SAPS   C27  713   0.910   2.431  -0.112  0.6787  0.0071  0.6465
    6SAPS   H7R  714   0.965   2.481  -0.029  0.4045  0.0529  0.8026
    6SAPS   H7S  715   0.919   2.490  -0.206 -1.1505 -1.4405 -0.5301
    6SAPS   C28  716   0.977   2.301  -0.136  0.4785 -0.2339  0.4220
    6SAPS   H8R  717   1.003   2.252  -0.041  0.3307  3.4000  2.5011
    6SAPS   C29  718   0.988   2.233  -0.250 -0.1074 -0.0859 -0.8484
    6SAPS   H9R  719   1.029   2.131  -0.244 -3.6433 -1.5402  1.7611
    6SAPS  C210  720   0.933   2.282  -0.380 -0.4004  0.6942  0.1512
    6SAPS  H10R  721   0.859   2.361  -0.356 -1.1885  0.2046 -0.6119
    6SAPS  H10S  722   0.866   2.205  -0.423 -0.9486  1.4632 -0.4129
    6SAPS  C211  723   1.032   2.329  -0.480  0.4847 -0.1252 -0.0397
    6SAPS  H11R  724   1.048   2.438  -0.478 -2.2161  0.3426  1.4733
    6SAPS  C212  725   1.091   2.256  -0.575  0.4757 -0.4928 -0.5817
    6SAPS  H12R  726   1.141   2.317  -0.652  1.7294  0.1223  0.6638
    6SAPS  C213  727   1.063   2.113  -0.604 -0.7399 -0.1677  0.0704
    6SAPS  H13R  728   0.966   2.081  -0.561 -1.3556 -1.0315 -1.8400
    6SAPS  H13S  729   1.153   2.066  -0.560  2.3496  4.7390 -0.2716
    6SAPS  C214  730   1.055   2.072  -0.751  0.4154  0.6124 -0.9236
    6SAPS  H14R  731   1.070   2.154  -0.823 -0.5274  1.6349  0.0181
    6SAPS  C215  732   1.068   1.943  -0.788 -0.6028 -0.2214  0.7856
    6SAPS  H15R  733   1.081   1.924  -0.896  1.8397 -0.0203  0.9992
    6SAPS  C216  734   1.066   1.829  -0.699 -1.0840 -0.7397 -0.4009
    6SAPS  H16R  735   0.964   1.788  -0.680 -0.2101 -2.0493  1.8192
    6SAPS  H16S  736   1.081   1.859  -0.593 -0.3693 -1.0421 -0.4092
    6SAPS  C217  737   1.179   1.727  -0.729  0.1818  0.1789 -0.0243
    6SAPS  H17R  738   1.181   1.653  -0.646 -0.8634 -0.2118 -0.3368
    6SAPS  H17S  739   1.275   1.782  -0.733 -0.1018  0.6256 -0.7828
    6SAPS  C218  740   1.149   1.660  -0.857 -0.3038 -0.4124  0.7658
    6SAPS  H18R  741   1.209   1.568  -0.874  0.2970  0.2647 -0.9583
    6SAPS  H18S  742   1.167   1.739  -0.933  0.0985  0.5099  1.7860
    6SAPS  C219  743   1.001   1.625  -0.881  0.2423 -0.7135  1.2166
    6SAPS  H19R  744   0.937   1.715  -0.870 -2.6379 -2.4797  0.1432
    6SAPS  H19S  745   0.966   1.570  -0.791 -0.2256 -0.6547  1.0755
    6SAPS  C220  746   0.972   1.558  -1.015  0.3664  0.1211 -0.7268
    6SAPS  H20R  747   0.865   1.558  -1.046  0.2970 -1.0811 -0.5556
    6SAPS  H20S  748   1.002   1.452  -1.003  1.1897  0.3689 -0.5510
    6SAPS  H20T  749   1.036   1.602  -1.094 -1.9533  1.4510 -1.9802
    6SAPS   C33  750   0.585   2.882  -0.467 -0.3744  0.5069  0.3705
    6SAPS   H3X  751   0.484   2.864  -0.425 -0.2800 -2.3290 -0.4338
    6SAPS   H3Y  752   0.655   2.809  -0.421  0.3876  0.8170 -0.2788
    6SAPS   C34  753   0.576   2.860  -0.619 -0.6077 -0.5722  0.2564
    6SAPS   H4X  754   0.607   2.757  -0.646  2.9169  0.2165  0.9037
    6SAPS   H4Y  755   0.652   2.925  -0.666 -0.9971  0.2601  0.7517
    6SAPS   C35  756   0.441   2.883  -0.682  0.2734 -0.4044  0.5483
    6SAPS   H5X  757   0.405   2.983  -0.647  1.3511  0.6742 -1.2667
    6SAPS   H5Y  758   0.370   2.800  -0.661 -2.1342  1.6438  0.9959
    6SAPS   C36  759   0.457   2.887  -0.830  0.0754  0.0721  0.4647
    6SAPS   H6X  760   0.488   2.784  -0.858 -0.8201  0.0892 -0.6241
    6SAPS   H6Y  761   0.537   2.957  -0.862 -0.7970  0.1290 -1.7424
    6SAPS   C37  762   0.331   2.911  -0.900 -0.0192  0.4635 -0.5490
    6SAPS   H7X  763   0.302   3.017  -0.884  1.8980  0.8822  0.4384
    6SAPS   H7Y  764   0.255   2.856  -0.841  2.1879 -1.3337  0.7489
    6SAPS   C38  765   0.323   2.877  -1.055 -0.0037  0.1047 -0.6794
    6SAPS   H8X  766   0.225   2.903  -1.101 -1.2479 -0.2293  1.6589
    6SAPS   H8Y  767   0.331   2.769  -1.080 -1.8707  0.3486 -2.5600
    6SAPS   C39  768   0.422   2.961  -1.132  0.5103 -0.0158  0.4316
    6SAPS   H9X  769   0.525   2.949  -1.091  1.6224  0.6690 -1.9906
    6SAPS   H9Y  770   0.398   3.069  -1.122 -0.1537  0.0825 -1.6914
    6SAPS  C310  771   0.425   2.927  -1.282 -0.0940  0.5805  0.3584
    6SAPS  H10X  772   0.339   2.970  -1.338  0.7880  0.3532 -1.2077
    6SAPS  H10Y  773   0.425   2.816  -1.283 -1.6596  0.5468  0.4873
    6SAPS  C311  774   0.546   3.000  -1.355  0.4968  0.1680 -0.1775
    6SAPS  H11X  775   0.635   2.945  -1.316  0.9138  0.7968 -0.2195
    6SAPS  H11Y  776   0.551   3.104  -1.316 -0.9719 -0.5831  2.2053
    6SAPS  C312  777   0.548   2.984  -1.508 -0.1234  0.3652 -0.0382
    6SAPS  H12X  778   0.456   3.032  -1.546  0.2383 -0.7729 -2.5128
    6SAPS  H12Y  779   0.535   2.879  -1.541  1.3235  0.8098 -2.3020
    6SAPS  C313  780   0.670   3.047  -1.582 -0.1066 -0.0878  0.3139
    6SAPS  H13X  781   0.758   2.985  -1.554 -0.9802 -1.3792  0.2906
    6SAPS  H13Y  782   0.680   3.148  -1.536  1.5721 -0.0302 -0.1066
    6SAPS  C314  783   0.651   3.056  -1.734  0.7711  0.4600  0.0239
    6SAPS  H14X  784   0.551   3.101  -1.754  0.2084 -1.2042 -1.1292
    6SAPS  H14Y  785   0.657   2.957  -1.784  0.7951  1.3613 -1.8414
    6SAPS  C315  786   0.750   3.148  -1.811  0.1538  0.0428 -0.7520
    6SAPS  H15X  787   0.742   3.251  -1.769 -0.1756  0.8065 -2.5735
    6SAPS  H15Y  788   0.731   3.149  -1.920  0.8847  1.7817 -0.9031
    6SAPS  C316  789   0.896   3.101  -1.792 -0.4997  0.0032  0.4082
    6SAPS  H16X  790   0.899   2.993  -1.816 -1.0191  0.1497 -0.3430
    6SAPS  H16Y  791   0.934   3.120  -1.689  0.1416  0.8474  0.0282
    6SAPS  C317  792   0.990   3.184  -1.876 -0.3530  0.0101  0.2362
    6SAPS  H17X  793   0.986   3.290  -1.845 -0.3158  0.7898 -2.1695
    6SAPS  H17Y  794   0.943   3.182  -1.977  0.3513  1.4256 -0.1387
    6SAPS  C318  795   1.134   3.136  -1.874 -0.4503 -0.1779  0.2184
    6SAPS  H18X  796   1.148   3.071  -1.963 -1.2303  2.2534 -1.8200
    6SAPS  H18Y  797   1.151   3.064  -1.791  0.5767  1.8698  1.8857
    6SAPS  H18Z  798   1.207   3.220  -1.871  0.2852 -0.8189  2.0835
    7SAPS     N  799   6.646   4.617   0.457 -0.4850  0.0316  0.2491
    7SAPS   HN1  800   6.632   4.553   0.538  0.5395  0.1917  0.5632
    7SAPS   HN2  801   6.629   4.717   0.477  1.5871  0.2207  1.2394
    7SAPS   HN3  802   6.584   4.575   0.385  2.3642 -3.1999 -0.5854
    7SAPS   C12  803   6.787   4.606   0.409 -0.5289  0.0843 -0.4929
    7SAPS  H12A  804   6.850   4.648   0.485  1.2121 -0.8534 -1.3628
    7SAPS   C13  805   6.834   4.462   0.387  0.7549 -0.2238 -0.1188
    7SAPS  O13A  806   6.740   4.373   0.405 -0.0308 -0.3153  0.4368
    7SAPS  O13B  807   6.947   4.425   0.340 -0.1697 -0.5181  0.5807
    7SAPS   C11  808   6.792   4.684   0.266  0.7667 -0.0193  0.0686
    7SAPS  H11A  809   6.746   4.625   0.184  0.3608 -0.1454  0.3784
    7SAPS  H11B  810   6.898   4.698   0.238  0.3735  1.0183 -1.0217
    7SAPS     P  811   6.790   4.940   0.337  0.4344  0.0910 -0.1425
    7SAPS   O13  812   6.682   5.032   0.371  0.6124 -0.8265 -0.2187
    7SAPS   O14  813   6.876   4.898   0.451 -0.6631  0.4830  0.2613
    7SAPS   O12  814   6.730   4.810   0.273 -0.4650 -0.5240  0.1867
    7SAPS   O11  815   6.876   5.002   0.228 -0.1243 -1.0819 -0.8046
    7SAPS    C1  816   6.823   5.043   0.103  0.3623 -0.1103  0.3548
    7SAPS    HA  817   6.713   5.058   0.098  0.3541 -0.4175 -3.0230
    7SAPS    HB  818   6.874   5.137   0.070 -0.5585  0.2613 -0.0643
    7SAPS    C2  819   6.876   4.944  -0.011  0.1569  0.0629 -0.2943
    7SAPS    HS  820   6.863   5.001  -0.105 -1.3073 -2.6666 -1.8788
    7SAPS   O21  821   6.803   4.813  -0.019 -0.2731 -0.1770  0.2367
    7SAPS   C21  822   6.691   4.817  -0.085 -0.0974  0.2517 -0.4395
    7SAPS   O22  823   6.629   4.913  -0.124 -0.2118 -0.5022  0.4093
    7SAPS   C22  824   6.645   4.667  -0.099  0.5978 -0.5059 -0.0463
    7SAPS   H2R  825   6.742   4.614  -0.090  0.9622  0.2231  0.5097
    7SAPS   H2S  826   6.584   4.650  -0.008  1.2306  0.4075  0.5619
    7SAPS    C3  827   7.026   4.912   0.018  0.7472  0.0885  0.1253
    7SAPS    HX  828   7.035   4.853   0.112  0.7361  2.7705  1.9147
    7SAPS    HY  829   7.081   5.007   0.030  1.9899 -0.8136  2.2493
    7SAPS   O31  830   7.077   4.844  -0.096  0.0693  0.1433 -0.3483
    7SAPS   C31  831   7.087   4.710  -0.093  0.2821  1.1001 -0.9513
    7SAPS   O32  832   7.042   4.637  -0.007 -0.2022 -0.0201  0.1197
    7SAPS   C32  833   7.167   4.675  -0.213  0.4039 -0.2953 -0.3785
    7SAPS   H2X  834   7.252   4.746  -0.225  0.8197 -1.0494 -2.0871
    7SAPS   H2Y  835   7.103   4.692  -0.302 -1.4610 -0.5021  0.8679
    7SAPS   C23  836   6.568   4.637  -0.229 -0.3899  0.1236  0.0518
    7SAPS   H3R  837   6.480   4.705  -0.234  0.0737  0.6437 -1.7271
    7SAPS   H3S  838   6.531   4.532  -0.228 -1.4519  0.4776 -0.7252
    7SAPS   C24  839   6.648   4.672  -0.355 -0.0597  0.3095  0.4917
    7SAPS   H4R  840   6.696   4.772  -0.347  0.9573 -0.1903  0.9364
    7SAPS   H4S  841   6.573   4.681  -0.435  0.3084  0.2042  0.1312
    7SAPS   C25  842   6.763   4.571  -0.380  0.1119 -0.3093  0.3844
    7SAPS   H5R  843   6.756   4.480  -0.319 -0.5824 -0.2387  0.4190
    7SAPS   C26  844   6.873   4.585  -0.456  0.6661 -0.3620 -0.5853
    7SAPS   H6R  845   6.945   4.504  -0.478  0.4924 -0.9313  0.8460
    7SAPS   C27  846   6.907   4.703  -0.544 -0.0225 -0.0352  0.0705
    7SAPS   H7R  847   7.006   4.686  -0.591  0.4423  1.8482  0.2752
    7SAPS   H7S  848   6.927   4.788  -0.474  2.1129 -0.3824 -0.0315
    7SAPS   C28  849   6.813   4.755  -0.648  0.2728  0.0828  0.3440
    7SAPS   H8R  850   6.709   4.761  -0.615 -0.4673  1.1364 -1.9649
    7SAPS   C29  851   6.844   4.810  -0.768 -0.1951  0.8606 -0.2680
    7SAPS   H9R  852   6.755   4.843  -0.823 -1.0656 -2.2494 -0.9167
    7SAPS  C210  853   6.978   4.840  -0.833  0.0225 -0.2134  0.1279
    7SAPS  H10R  854   7.046   4.752  -0.834  0.3770  0.0570 -0.9175
    7SAPS  H10S  855   7.026   4.915  -0.767 -1.1780  1.0387 -0.3655
    7SAPS  C211  856   6.970   4.883  -0.979 -0.2032  0.3205  1.4347
    7SAPS  H11R  857   6.869   4.890  -1.022  0.2051  0.3138  0.4384
    7SAPS  C212  858   7.072   4.918  -1.062  0.9232  0.0067 -0.2291
    7SAPS  H12R  859   7.055   4.942  -1.169  1.4011 -0.5827 -0.4389
    7SAPS  C213  860   7.215   4.916  -1.022  0.2501  0.5445  0.0678
    7SAPS  H13R  861   7.282   4.860  -1.091 -1.0718 -1.0786  0.0557
    7SAPS  H13S  862   7.225   4.864  -0.924 -1.8926  0.1192  0.0990
    7SAPS  C214  863   7.276   5.052  -1.008 -0.2842 -0.5152 -0.2308
    7SAPS  H14R  864   7.230   5.121  -0.937  1.9145  2.8326 -1.8229
    7SAPS  C215  865   7.378   5.106  -1.072  0.2820 -0.6659  0.5004
    7SAPS  H15R  866   7.400   5.208  -1.038 -2.4760 -0.4082  1.7681
    7SAPS  C216  867   7.464   5.061  -1.178 -0.0360  0.1472  0.1976
    7SAPS  H16R  868   7.470   4.951  -1.161 -1.5777  0.1097  0.6653
    7SAPS  H16S  869   7.564   5.105  -1.161  0.3348 -0.1857 -1.0761
    7SAPS  C217  870   7.412   5.099  -1.324 -0.6582 -0.1444 -0.0957
    7SAPS  H17R  871   7.308   5.061  -1.337  0.1731 -3.1633  1.0214
    7SAPS  H17S  872   7.472   5.045  -1.400 -0.0696 -1.1575  1.0367
    7SAPS  C218  873   7.424   5.242  -1.366 -0.8003  0.6590  0.5741
    7SAPS  H18R  874   7.347   5.306  -1.318 -1.2841  1.0274 -0.6627
    7SAPS  H18S  875   7.407   5.251  -1.476  0.9445 -1.1085  0.1127
    7SAPS  C219  876   7.567   5.303  -1.350  1.5961 -0.2301 -0.4053
    7SAPS  H19R  877   7.571   5.310  -1.239 -1.6937  1.5220 -0.2616
    7SAPS  H19S  878   7.565   5.411  -1.380  1.9745 -0.6001 -1.8498
    7SAPS  C220  879   7.682   5.222  -1.421  0.0470 -0.2767  0.0292
    7SAPS  H20R  880   7.780   5.258  -1.383  0.0930 -1.3971  1.0432
    7SAPS  H20S  881   7.679   5.235  -1.531  1.8824  0.4456  0.0332
    7SAPS  H20T  882   7.686   5.111  -1.412  4.7043 -0.5522 -2.3383
    7SAPS   C33  883   7.204   4.524  -0.214  0.7855 -0.8876  0.8420
    7SAPS   H3X  884   7.115   4.458  -0.225 -0.7083  0.8936  1.5856
    7SAPS   H3Y  885   7.250   4.492  -0.118 -1.0755 -1.1100  1.7014
    7SAPS   C34  886   7.317   4.511  -0.324 -0.3851 -0.6495  0.8449
    7SAPS   H4X  887   7.349   4.405  -0.327 -0.5434 -0.7026  1.0151
    7SAPS   H4Y  888   7.409   4.564  -0.291 -0.0687 -2.0148  2.2687
    7SAPS   C35  889   7.268   4.562  -0.465 -0.6168 -0.2723  0.2256
    7SAPS   H5X  890   7.241   4.669  -0.448  1.3647  0.1673  0.8614
    7SAPS   H5Y  891   7.172   4.512  -0.487 -0.1724 -0.6390 -0.9839
    7SAPS   C36  892   7.360   4.567  -0.593  0.2646 -0.0647 -0.7098
    7SAPS   H6X  893   7.404   4.468  -0.617  0.9659  0.1240 -0.2166
    7SAPS   H6Y  894   7.439   4.643  -0.578  1.6407 -1.3828 -1.0617
    7SAPS   C37  895   7.276   4.608  -0.718 -0.4072  0.4302  0.2273
    7SAPS   H7X  896   7.227   4.707  -0.705  0.6959  1.0883 -0.4499
    7SAPS   H7Y  897   7.195   4.532  -0.714 -0.0605  0.1050  2.6577
    7SAPS   C38  898   7.353   4.617  -0.856  0.4265  0.1442 -1.2790
    7SAPS   H8X  899   7.414   4.710  -0.864  0.5053  0.2035 -0.1615
    7SAPS   H8Y  900   7.273   4.637  -0.931 -0.3592  1.3739 -0.1614
    7SAPS   C39  901   7.406   4.480  -0.888 -0.7541  0.6027  0.2041
    7SAPS   H9X  902   7.317   4.418  -0.863  0.7338 -1.8207 -0.2063
    7SAPS   H9Y  903   7.496   4.462  -0.824 -0.7223  0.2736  0.0683
    7SAPS  C310  904   7.448   4.434  -1.028 -0.0596 -0.1637 -0.5210
    7SAPS  H10X  905   7.547   4.484  -1.044 -1.0191  1.4676 -1.7045
    7SAPS  H10Y  906   7.379   4.472  -1.106 -0.9433 -0.1436  0.2511
    7SAPS  C311  907   7.464   4.280  -1.032  0.4739  0.6473 -0.0512
    7SAPS  H11X  908   7.366   4.230  -1.011 -0.3197  0.4315 -3.6854
    7SAPS  H11Y  909   7.528   4.236  -0.952 -0.5952 -0.1197  0.4161
    7SAPS  C312  910   7.526   4.242  -1.171  0.6055  0.2601 -0.8733
    7SAPS  H12X  911   7.617   4.305  -1.183  1.1201 -0.0160  1.1232
    7SAPS  H12Y  912   7.450   4.258  -1.250 -0.2261  0.1192 -0.1232
    7SAPS  C313  913   7.553   4.098  -1.181 -0.6702  0.5689 -0.6945
    7SAPS  H13X  914   7.455   4.047  -1.167 -0.3410  0.3535  0.9545
    7SAPS  H13Y  915   7.626   4.067  -1.104  1.5482  1.1570 -2.4208
    7SAPS  C314  916   7.611   4.070  -1.325 -0.3392 -0.0155  0.0068
    7SAPS  H14X  917   7.704   4.131  -1.321 -0.6519  0.4597  3.6795
    7SAPS  H14Y  918   7.533   4.112  -1.392 -0.7876 -2.6401 -1.2193
    7SAPS  C315  919   7.630   3.919  -1.371  0.6516 -0.2269 -0.7109
    7SAPS  H15X  920   7.557   3.870  -1.303  0.5702  2.1182  1.0229
    7SAPS  H15Y  921   7.719   3.864  -1.332 -0.5109 -1.8904 -0.3035
    7SAPS  C316  922   7.619   3.891  -1.517  0.6310  0.3694  0.1246
    7SAPS  H16X  923   7.700   3.926  -1.585 -1.7752  0.8648 -2.6619
    7SAPS  H16Y  924   7.523   3.939  -1.545  0.8309  0.6650 -0.0558
    7SAPS  C317  925   7.623   3.734  -1.534 -0.2563  0.3305  1.1130
    7SAPS  H17X  926   7.530   3.694  -1.488  0.5018 -1.7484  0.9232
    7SAPS  H17Y  927   7.713   3.699  -1.480 -0.4659 -0.7190  0.8067
    7SAPS  C318  928   7.643   3.700  -1.680 -0.3362 -0.3098  0.3878
    7SAPS  H18X  929   7.670   3.594  -1.699  0.6380  0.0614 -0.4171
    7SAPS  H18Y  930   7.729   3.759  -1.720  0.0928  1.1566  3.2257
    7SAPS  H18Z  931   7.552   3.731  -1.736  0.7685  1.2253 -0.6457
    8SAPS     N  932   6.153   3.573   0.544  0.0083  0.1957  0.2052
    8SAPS   HN1  933   6.129   3.669   0.511  1.7178  1.1299  1.4749
    8SAPS   HN2  934   6.217   3.582   0.626 -1.0726 -1.9606  1.3637
    8SAPS   HN3  935   6.203   3.516   0.472 -1.0706 -1.8172  0.9761
    8SAPS   C12  936   6.038   3.490   0.567 -0.4811  0.0148  0.3465
    8SAPS  H12A  937   6.083   3.407   0.619 -0.8838  1.1147  2.6161
    8SAPS   C13  938   5.935   3.552   0.666  0.1444  0.8209  0.4219
    8SAPS  O13A  939   5.964   3.651   0.731  0.2859  0.0748 -0.0428
    8SAPS  O13B  940   5.837   3.478   0.691 -0.4569  0.1547 -0.1892
    8SAPS   C11  941   5.976   3.441   0.438 -0.8989 -0.1231 -0.9106
    8SAPS  H11A  942   5.926   3.530   0.395  0.4428  1.4520  0.5879
    8SAPS  H11B  943   5.890   3.378   0.467 -1.5131  0.3261 -1.7167
    8SAPS     P  944   6.038   3.221   0.307 -0.0082  0.1921  0.3606
    8SAPS   O13  945   6.162   3.144   0.282 -0.1689  0.5827  0.5180
    8SAPS   O14  946   5.944   3.158   0.404 -0.1063  0.1610 -0.1714
    8SAPS   O12  947   6.076   3.362   0.364 -0.1662 -0.1503 -0.0837
    8SAPS   O11  948   5.953   3.255   0.180  0.6856 -0.3083 -0.5772
    8SAPS    C1  949   6.040   3.294   0.069  0.3765  0.1611  0.0615
    8SAPS    HA  950   6.121   3.363   0.101 -1.4368  2.5137 -0.1394
    8SAPS    HB  951   6.092   3.203   0.032  1.7255  0.8567  0.1588
    8SAPS    C2  952   5.962   3.354  -0.055  0.3614 -0.3530  0.1616
    8SAPS    HS  953   6.036   3.366  -0.137 -0.2700  1.7738 -0.1572
    8SAPS   O21  954   5.885   3.469  -0.038  0.3610  0.1617  0.1093
    8SAPS   C21  955   5.935   3.578   0.024 -0.3080 -0.1929 -0.2101
    8SAPS   O22  956   6.051   3.594   0.061 -0.0514 -0.7894 -0.0925
    8SAPS   C22  957   5.827   3.683   0.027 -0.4791  0.2436 -0.3640
    8SAPS   H2R  958   5.724   3.641   0.029  0.4604 -2.1850 -0.8129
    8SAPS   H2S  959   5.832   3.737   0.124 -0.5439  0.6050 -0.5564
    8SAPS    C3  960   5.868   3.248  -0.108 -0.0883 -0.0940  0.2965
    8SAPS    HX  961   5.789   3.244  -0.029 -0.6082  1.1145 -0.1377
    8SAPS    HY  962   5.921   3.150  -0.113 -0.1502 -0.2615  2.0777
    8SAPS   O31  963   5.800   3.289  -0.232  0.1641  0.5792 -0.0181
    8SAPS   C31  964   5.862   3.232  -0.341  0.1652 -0.5778  0.0293
    8SAPS   O32  965   5.967   3.169  -0.339 -0.2976  0.4824  0.4994
    8SAPS   C32  966   5.781   3.260  -0.464 -0.1647 -0.5693  0.4149
    8SAPS   H2X  967   5.744   3.365  -0.460  1.5128  0.0315  1.0244
    8SAPS   H2Y  968   5.690   3.196  -0.461 -2.2172  2.2114  3.2157
    8SAPS   C23  969   5.846   3.782  -0.094  0.4603 -0.3742  0.0005
    8SAPS   H3R  970   5.947   3.828  -0.089 -0.1940  1.2980 -1.1403
    8SAPS   H3S  971   5.778   3.866  -0.067  0.7772 -0.5695  1.4803
    8SAPS   C24  972   5.818   3.720  -0.229  0.4195 -0.3942  0.8606
    8SAPS   H4R  973   5.879   3.630  -0.252 -1.1960 -1.3288  0.0366
    8SAPS   H4S  974   5.836   3.805  -0.299 -0.5220  0.3004  1.4449
    8SAPS   C25  975   5.674   3.687  -0.250 -0.3335 -0.6627  0.2039
    8SAPS   H5R  976   5.619   3.651  -0.162  1.6179 -0.9669  1.3563
    8SAPS   C26  977   5.607   3.733  -0.360  0.1919  0.6830 -0.2206
    8SAPS   H6R  978   5.499   3.709  -0.365  0.2535  0.5612 -1.1357
    8SAPS   C27  979   5.656   3.787  -0.488 -0.0766 -0.8461 -0.8025
    8SAPS   H7R  980   5.748   3.731  -0.514  0.6844 -0.6101  1.2455
    8SAPS   H7S  981   5.698   3.888  -0.469 -0.2801 -1.1373  1.3934
    8SAPS   C28  982   5.561   3.798  -0.612 -0.5586 -0.3313 -0.4859
    8SAPS   H8R  983   5.489   3.880  -0.624 -1.5865 -1.4622 -2.8650
    8SAPS   C29  984   5.554   3.711  -0.717 -0.2713 -0.1039 -0.2227
    8SAPS   H9R  985   5.474   3.737  -0.788 -1.6029 -1.2326  0.8073
    8SAPS  C210  986   5.616   3.580  -0.738  0.7803  0.0472  0.6478
    8SAPS  H10R  987   5.653   3.536  -0.643  0.2698 -0.4324  0.6359
    8SAPS  H10S  988   5.706   3.584  -0.802  0.8486 -0.8614  0.6629
    8SAPS  C211  989   5.528   3.478  -0.814 -0.0429  0.0286 -0.1398
    8SAPS  H11R  990   5.443   3.437  -0.757  0.7390 -0.0696  0.9893
    8SAPS  C212  991   5.544   3.423  -0.936  0.5975  0.3433 -0.3539
    8SAPS  H12R  992   5.462   3.351  -0.950  1.9424 -1.3594  0.1783
    8SAPS  C213  993   5.654   3.447  -1.040 -0.0560  0.5118  0.0053
    8SAPS  H13R  994   5.704   3.545  -1.021  1.8399 -0.6956  1.6720
    8SAPS  H13S  995   5.601   3.443  -1.137  1.0542  0.2853 -0.6042
    8SAPS  C214  996   5.764   3.345  -1.025  0.3104 -0.4797  0.9111
    8SAPS  H14R  997   5.738   3.256  -0.967  2.6272 -1.3282  0.7653
    8SAPS  C215  998   5.876   3.334  -1.107 -0.2729  0.2396  0.0954
    8SAPS  H15R  999   5.947   3.257  -1.074  0.9734  0.8115 -1.1655
    8SAPS  C216 1000   5.922   3.426  -1.226  0.3005  0.9171  0.3248
    8SAPS  H16R 1001   6.027   3.458  -1.211  0.4707  0.5719 -0.1297
    8SAPS  H16S 1002   5.859   3.517  -1.237 -0.6117  0.0095 -2.6504
    8SAPS  C217 1003   5.909   3.347  -1.365 -0.2961  0.4789 -0.1422
    8SAPS  H17R 1004   5.982   3.263  -1.363  0.8571  1.3722 -1.9412
    8SAPS  H17S 1005   5.941   3.414  -1.448  0.3811 -0.5395 -0.7326
    8SAPS  C218 1006   5.770   3.284  -1.387  0.3750  0.4612  0.2846
    8SAPS  H18R 1007   5.692   3.341  -1.332  0.1494  1.1656 -0.7382
    8SAPS  H18S 1008   5.762   3.185  -1.337  3.0727 -0.0622 -0.1556
    8SAPS  C219 1009   5.729   3.247  -1.533 -0.3069  0.3347 -0.5899
    8SAPS  H19R 1010   5.810   3.185  -1.577 -1.4079 -1.2000 -0.5234
    8SAPS  H19S 1011   5.739   3.340  -1.594  1.2712 -0.1294 -1.0949
    8SAPS  C220 1012   5.598   3.177  -1.561  0.0062  0.7068 -0.0117
    8SAPS  H20R 1013   5.502   3.222  -1.529  0.3009  0.0944  1.8943
    8SAPS  H20S 1014   5.610   3.071  -1.531  1.1929  0.4747 -1.2041
    8SAPS  H20T 1015   5.596   3.175  -1.672 -0.9342  1.5401 -0.0220
    8SAPS   C33 1016   5.852   3.262  -0.600  0.0170 -1.4720  0.3681
    8SAPS   H3X 1017   5.952   3.309  -0.592 -0.7765 -0.0012  2.6207
    8SAPS   H3Y 1018   5.791   3.314  -0.677  0.3057 -1.5010  0.1211
    8SAPS   C34 1019   5.875   3.113  -0.644  0.3098 -0.4738  0.4774
    8SAPS   H4X 1020   5.771   3.073  -0.650  1.6685 -4.1763 -1.8295
    8SAPS   H4Y 1021   5.927   3.052  -0.567 -0.5884  0.5111  1.9296
    8SAPS   C35 1022   5.938   3.099  -0.787 -0.0105  0.1081 -0.3682
    8SAPS   H5X 1023   5.890   3.182  -0.843 -2.0333  0.6825  2.0500
    8SAPS   H5Y 1024   5.896   3.010  -0.840  0.9303 -0.0640 -0.8450
    8SAPS   C36 1025   6.085   3.096  -0.794 -0.3319 -0.6976  0.2312
    8SAPS   H6X 1026   6.136   3.013  -0.740  0.1840 -0.2186  0.5030
    8SAPS   H6Y 1027   6.121   3.191  -0.748 -0.9553  0.8127 -2.2226
    8SAPS   C37 1028   6.148   3.107  -0.926  0.1569 -0.3895  0.8917
    8SAPS   H7X 1029   6.258   3.096  -0.915  0.0647 -2.6959  0.0927
    8SAPS   H7Y 1030   6.115   3.209  -0.954 -2.1845 -0.3408  3.3572
    8SAPS   C38 1031   6.099   3.015  -1.041 -0.3168  0.6997 -0.2792
    8SAPS   H8X 1032   5.994   3.048  -1.052 -0.5186  0.1209 -0.1310
    8SAPS   H8Y 1033   6.103   2.908  -1.012  0.1733  0.5192 -0.9813
    8SAPS   C39 1034   6.183   3.040  -1.165  0.4604 -0.3601  0.6257
    8SAPS   H9X 1035   6.288   3.004  -1.165  1.0676  1.2902 -0.2525
    8SAPS   H9Y 1036   6.198   3.149  -1.184  1.0921 -0.6143 -0.3990
    8SAPS  C310 1037   6.126   2.987  -1.298  0.3219 -0.4955 -0.5421
    8SAPS  H10X 1038   6.033   3.036  -1.332  0.7004  1.1713  0.7027
    8SAPS  H10Y 1039   6.108   2.879  -1.276  1.8978 -0.5773  0.5034
    8SAPS  C311 1040   6.223   3.015  -1.412 -0.0185  0.7665  0.1201
    8SAPS  H11X 1041   6.195   2.952  -1.499  0.9479 -1.0077  1.0548
    8SAPS  H11Y 1042   6.320   2.981  -1.372 -1.0385 -0.8916  1.2927
    8SAPS  C312 1043   6.233   3.162  -1.454  0.0881  0.0407 -0.1744
    8SAPS  H12X 1044   6.248   3.223  -1.362 -1.7946 -0.3702  0.4415
    8SAPS  H12Y 1045   6.147   3.196  -1.515  0.8423 -0.6233 -1.6410
    8SAPS  C313 1046   6.369   3.193  -1.522  0.0800  0.2155 -0.0422
    8SAPS  H13X 1047   6.386   3.131  -1.613  2.1782 -1.6954  1.5390
    8SAPS  H13Y 1048   6.452   3.178  -1.450 -0.8956 -0.7541  0.9136
    8SAPS  C314 1049   6.371   3.341  -1.572 -0.0024  0.4527  0.1500
    8SAPS  H14X 1050   6.471   3.383  -1.595 -0.4112  0.4770 -1.7475
    8SAPS  H14Y 1051   6.316   3.407  -1.502 -1.4106 -0.5993  0.0864
    8SAPS  C315 1052   6.302   3.347  -1.709 -0.6678 -0.1978 -0.3104
    8SAPS  H15X 1053   6.196   3.316  -1.698 -1.1082  1.3061 -0.1026
    8SAPS  H15Y 1054   6.358   3.279  -1.777  2.6321  2.9818 -1.1472
    8SAPS  C316 1055   6.295   3.493  -1.753  0.2343 -0.1153  0.3401
    8SAPS  H16X 1056   6.260   3.566  -1.677 -2.1271  2.0620 -2.5553
    8SAPS  H16Y 1057   6.216   3.504  -1.830 -2.1602  2.1695  2.8907
    8SAPS  C317 1058   6.431   3.539  -1.824  0.8637  0.6486  0.2950
    8SAPS  H17X 1059   6.519   3.528  -1.758  0.5203  0.9641  0.8085
    8SAPS  H17Y 1060   6.421   3.648  -1.847  2.6753  0.4838 -1.5881
    8SAPS  C318 1061   6.461   3.459  -1.952 -0.4913  0.8536 -0.1652
    8SAPS  H18X 1062   6.481   3.351  -1.931 -0.1043  0.9718  0.1036
    8SAPS  H18Y 1063   6.556   3.496  -1.996 -0.2934 -2.1434 -2.5901
    8SAPS  H18Z 1064   6.378   3.470  -2.025  1.6534  0.0603 -2.8853
    9SAPS     N 1065   4.020   3.636   0.470 -0.3336  0.8935  0.1778
    9SAPS   HN1 1066   3.960   3.655   0.553  0.0886 -0.6437  0.8656
    9SAPS   HN2 1067   4.079   3.719   0.451 -0.3011  0.6344 -0.8898
    9SAPS   HN3 1068   3.961   3.631   0.385 -0.1648  1.2543  0.0390
    9SAPS   C12 1069   4.104   3.513   0.488  0.5620 -0.4545  0.0558
    9SAPS  H12A 1070   4.182   3.554   0.551 -1.2210  0.8246  1.5541
    9SAPS   C13 1071   4.026   3.404   0.559  0.3130 -0.1703 -0.0750
    9SAPS  O13A 1072   3.903   3.407   0.582  0.8628  0.0325 -0.6944
    9SAPS  O13B 1073   4.092   3.301   0.594  0.3173 -0.3778  0.0657
    9SAPS   C11 1074   4.162   3.462   0.352  0.0422 -0.1447 -0.6813
    9SAPS  H11A 1075   4.087   3.416   0.285  0.4119 -2.4238  0.3809
    9SAPS  H11B 1076   4.242   3.391   0.381  1.4061  2.2287  1.8781
    9SAPS     P 1077   4.172   3.645   0.168  0.0831  0.0509  0.1193
    9SAPS   O13 1078   4.058   3.723   0.205 -0.1794 -0.5220 -0.3719
    9SAPS   O14 1079   4.279   3.715   0.100  0.2476 -0.0082  0.2208
    9SAPS   O12 1080   4.225   3.579   0.294  0.0401 -0.1896 -0.3479
    9SAPS   O11 1081   4.119   3.524   0.078  0.1216  0.1752  0.3401
    9SAPS    C1 1082   4.213   3.421   0.042  0.2087  0.2657  0.7189
    9SAPS    HA 1083   4.300   3.409   0.109  0.7970 -2.1453 -0.3944
    9SAPS    HB 1084   4.159   3.324   0.038 -1.4351  1.1147  1.3917
    9SAPS    C2 1085   4.262   3.438  -0.107 -0.1193  0.1000 -0.3843
    9SAPS    HS 1086   4.342   3.515  -0.107 -1.9481  2.0663 -0.3299
    9SAPS   O21 1087   4.156   3.480  -0.193 -0.7584  0.0498  0.0299
    9SAPS   C21 1088   4.172   3.577  -0.269 -0.1826  0.0111 -0.0281
    9SAPS   O22 1089   4.276   3.646  -0.282  0.0838  0.0818  0.4539
    9SAPS   C22 1090   4.054   3.583  -0.373 -0.2203  0.5139 -0.4988
    9SAPS   H2R 1091   4.064   3.491  -0.435  0.4763 -0.4767  1.0288
    9SAPS   H2S 1092   3.959   3.567  -0.318  1.4477 -3.1384  1.7154
    9SAPS    C3 1093   4.333   3.304  -0.148  0.1456  0.1902  0.4029
    9SAPS    HX 1094   4.268   3.218  -0.121 -0.3419  0.4083 -0.0751
    9SAPS    HY 1095   4.430   3.289  -0.095  0.7030  0.4824 -0.5046
    9SAPS   O31 1096   4.356   3.304  -0.291 -0.1514  0.0567  0.1924
    9SAPS   C31 1097   4.289   3.224  -0.374  0.0898  0.0425 -0.5010
    9SAPS   O32 1098   4.211   3.139  -0.342 -0.3936  0.0201  0.0737
    9SAPS   C32 1099   4.345   3.246  -0.506 -0.2780 -0.5818  0.6625
    9SAPS   H2X 1100   4.419   3.163  -0.512  0.2366 -0.1154  0.3761
    9SAPS   H2Y 1101   4.381   3.350  -0.523 -1.5560  0.3071  2.9223
    9SAPS   C23 1102   4.064   3.710  -0.466  0.2924 -0.2114 -0.2876
    9SAPS   H3R 1103   4.166   3.724  -0.509 -0.1372  1.7077 -0.7511
    9SAPS   H3S 1104   4.030   3.797  -0.407  0.6463 -0.4583  0.2896
    9SAPS   C24 1105   3.978   3.689  -0.586 -0.2109  0.4201  0.1716
    9SAPS   H4R 1106   3.873   3.670  -0.556 -0.4053  1.0423 -0.1089
    9SAPS   H4S 1107   4.001   3.602  -0.652  1.5803  1.6283 -0.8677
    9SAPS   C25 1108   3.987   3.820  -0.665  0.1939 -0.5336  0.2371
    9SAPS   H5R 1109   3.904   3.890  -0.651  0.3944 -0.1146 -0.6414
    9SAPS   C26 1110   4.075   3.849  -0.762 -0.0753  0.5095  0.3963
    9SAPS   H6R 1111   4.056   3.945  -0.811 -0.2388  0.3941  0.2334
    9SAPS   C27 1112   4.193   3.756  -0.799  0.5056  0.5323 -0.3432
    9SAPS   H7R 1113   4.216   3.711  -0.700 -1.2256 -0.7900 -0.5080
    9SAPS   H7S 1114   4.284   3.815  -0.824  1.6666 -0.3806  1.5243
    9SAPS   C28 1115   4.146   3.650  -0.898 -0.6444  0.0986  0.3279
    9SAPS   H8R 1116   4.128   3.549  -0.859  0.1616 -1.6106 -3.3496
    9SAPS   C29 1117   4.118   3.667  -1.029  0.3041 -0.2569 -0.4108
    9SAPS   H9R 1118   4.091   3.580  -1.091  0.8175  0.1577 -1.2338
    9SAPS  C210 1119   4.120   3.783  -1.121 -0.8000 -0.7133 -0.9852
    9SAPS  H10R 1120   4.153   3.876  -1.069 -1.2050 -0.1498 -1.7117
    9SAPS  H10S 1121   4.015   3.800  -1.153 -0.6949  0.3361 -0.8188
    9SAPS  C211 1122   4.207   3.755  -1.241  0.1891  0.0891 -0.1626
    9SAPS  H11R 1123   4.199   3.649  -1.269  2.1469 -0.4601  1.1051
    9SAPS  C212 1124   4.297   3.829  -1.298  0.0206  0.5150  0.2868
    9SAPS  H12R 1125   4.367   3.787  -1.372  0.0835  3.8042 -1.7520
    9SAPS  C213 1126   4.330   3.969  -1.270 -0.6178  0.5050 -0.4591
    9SAPS  H13R 1127   4.370   3.973  -1.166 -1.1726 -0.1884 -0.2089
    9SAPS  H13S 1128   4.239   4.033  -1.258  0.2046  1.5249  0.6122
    9SAPS  C214 1129   4.428   4.025  -1.376  0.6128  0.7693  0.0795
    9SAPS  H14R 1130   4.531   3.990  -1.361 -0.4470 -1.5136  3.0207
    9SAPS  C215 1131   4.390   4.080  -1.491  0.2025  0.7456 -0.4027
    9SAPS  H15R 1132   4.471   4.128  -1.548 -0.0128 -0.1796 -1.5251
    9SAPS  C216 1133   4.258   4.144  -1.518  1.4425 -0.6504 -0.0049
    9SAPS  H16R 1134   4.192   4.140  -1.428  0.0531 -2.6236 -1.0556
    9SAPS  H16S 1135   4.193   4.089  -1.588  1.9233 -1.4745  0.1831
    9SAPS  C217 1136   4.281   4.294  -1.554 -0.3754  0.7019 -0.2541
    9SAPS  H17R 1137   4.332   4.339  -1.466  0.3103  0.5737 -0.5811
    9SAPS  H17S 1138   4.185   4.349  -1.567 -1.5395 -0.8315  1.3591
    9SAPS  C218 1139   4.358   4.310  -1.688 -0.9678  0.4476  0.2752
    9SAPS  H18R 1140   4.323   4.233  -1.760  0.4311  1.8159 -1.9831
    9SAPS  H18S 1141   4.467   4.289  -1.682 -0.5984  2.5673  3.0192
    9SAPS  C219 1142   4.338   4.443  -1.755 -0.0801  0.6481 -0.2441
    9SAPS  H19R 1143   4.370   4.520  -1.682 -2.5333 -0.3917  2.0884
    9SAPS  H19S 1144   4.228   4.453  -1.762 -0.1698 -0.1583 -0.1400
    9SAPS  C220 1145   4.414   4.466  -1.888 -0.3181 -0.2102 -0.3908
    9SAPS  H20R 1146   4.524   4.458  -1.873 -0.5831 -1.1617  1.4129
    9SAPS  H20S 1147   4.399   4.566  -1.934  4.3798  1.2509  0.6535
    9SAPS  H20T 1148   4.392   4.387  -1.962 -1.2313  0.8096 -1.2403
    9SAPS   C33 1149   4.247   3.215  -0.629  0.2508 -0.4856  0.6650
    9SAPS   H3X 1150   4.167   3.292  -0.624 -0.9094 -1.6660  0.7925
    9SAPS   H3Y 1151   4.199   3.116  -0.618  0.2071 -0.6699 -1.0109
    9SAPS   C34 1152   4.328   3.224  -0.758 -0.4021 -0.0601  0.2505
    9SAPS   H4X 1153   4.389   3.132  -0.762 -1.0765 -0.6029  1.5603
    9SAPS   H4Y 1154   4.405   3.304  -0.750 -1.4436  1.0537 -0.4902
    9SAPS   C35 1155   4.240   3.236  -0.888 -0.2138 -0.5326  0.2699
    9SAPS   H5X 1156   4.171   3.323  -0.880 -0.0084 -0.1339 -1.7834
    9SAPS   H5Y 1157   4.175   3.147  -0.886 -0.5390 -0.3057 -0.0843
    9SAPS   C36 1158   4.321   3.241  -1.015 -0.5684 -0.6224  0.7439
    9SAPS   H6X 1159   4.377   3.145  -1.008  1.3386  0.5875  3.9162
    9SAPS   H6Y 1160   4.404   3.315  -1.007 -0.0406 -1.0793 -0.2774
    9SAPS   C37 1161   4.244   3.259  -1.141 -0.5324  1.2345  0.6510
    9SAPS   H7X 1162   4.194   3.358  -1.133  0.4668  1.9889 -1.6436
    9SAPS   H7Y 1163   4.154   3.196  -1.158  1.1532 -1.1878  0.1526
    9SAPS   C38 1164   4.325   3.274  -1.274  0.0408 -0.0443 -0.1668
    9SAPS   H8X 1165   4.380   3.182  -1.304  2.6852  0.9897  1.1649
    9SAPS   H8Y 1166   4.400   3.352  -1.247  0.5269 -0.4647 -0.2851
    9SAPS   C39 1167   4.227   3.318  -1.388  0.2343 -0.2421  0.1501
    9SAPS   H9X 1168   4.167   3.404  -1.353  2.7174  0.9865  1.6504
    9SAPS   H9Y 1169   4.147   3.246  -1.417 -0.5957  1.0423 -0.8618
    9SAPS  C310 1170   4.294   3.374  -1.512 -0.4889 -0.9693 -0.2085
    9SAPS  H10X 1171   4.307   3.294  -1.588  1.4831  0.3058 -1.2978
    9SAPS  H10Y 1172   4.391   3.424  -1.492 -0.1153 -0.8404 -2.1245
    9SAPS  C311 1173   4.196   3.480  -1.590 -0.1006 -0.2300 -0.7485
    9SAPS  H11X 1174   4.155   3.552  -1.517 -0.4563 -0.4914 -0.6902
    9SAPS  H11Y 1175   4.104   3.428  -1.623 -0.4616  1.4849 -2.5890
    9SAPS  C312 1176   4.263   3.565  -1.701  0.0433 -0.3526 -0.5153
    9SAPS  H12X 1177   4.189   3.638  -1.739  2.6768  1.8427 -1.8195
    9SAPS  H12Y 1178   4.288   3.500  -1.787 -0.8861 -1.3843 -0.0157
    9SAPS  C313 1179   4.378   3.651  -1.655 -0.4324  0.0649 -0.1026
    9SAPS  H13X 1180   4.456   3.584  -1.613  0.4818  1.2145  0.0701
    9SAPS  H13Y 1181   4.348   3.728  -1.581 -0.4481  1.6578 -1.7149
    9SAPS  C314 1182   4.460   3.720  -1.771 -0.4832 -0.2307 -0.4336
    9SAPS  H14X 1183   4.392   3.764  -1.847 -2.3916  0.1221  1.3808
    9SAPS  H14Y 1184   4.505   3.634  -1.825 -2.7857 -1.2551 -0.8842
    9SAPS  C315 1185   4.565   3.824  -1.730  0.5641 -0.1683 -0.0736
    9SAPS  H15X 1186   4.528   3.913  -1.674 -1.9442 -1.7989  1.0416
    9SAPS  H15Y 1187   4.610   3.868  -1.821  1.9103 -1.1703  0.0844
    9SAPS  C316 1188   4.680   3.766  -1.641  0.1678  0.3584  0.4752
    9SAPS  H16X 1189   4.721   3.678  -1.695  1.2113  2.1175 -1.7634
    9SAPS  H16Y 1190   4.649   3.740  -1.538 -2.3073  0.4131 -0.1950
    9SAPS  C317 1191   4.795   3.863  -1.623  0.0108 -0.5953  0.0429
    9SAPS  H17X 1192   4.832   3.869  -1.727  1.1980  0.7142  0.5051
    9SAPS  H17Y 1193   4.875   3.812  -1.565  0.1208 -0.9616 -0.4239
    9SAPS  C318 1194   4.756   3.996  -1.561  0.3184  0.1364  0.1142
    9SAPS  H18X 1195   4.680   4.043  -1.627 -0.8797 -1.6716  0.1429
    9SAPS  H18Y 1196   4.847   4.058  -1.546  0.2609 -0.2810  2.6820
    9SAPS  H18Z 1197   4.718   3.978  -1.458  1.4904 -0.5367  0.4464
   10SAPS     N 1198   4.418   4.045   0.677 -0.3714  0.3683 -0.2175
   10SAPS   HN1 1199   4.388   4.133   0.631  2.1412  2.4200  1.7218
   10SAPS   HN2 1200   4.377   4.045   0.772  0.4392  2.9317  0.2213
   10SAPS   HN3 1201   4.522   4.048   0.666 -0.3788  0.7282 -0.2064
   10SAPS   C12 1202   4.361   3.930   0.596  0.1856 -0.0779 -0.2808
   10SAPS  H12A 1203   4.362   3.839   0.654 -2.8008 -0.0880 -0.0815
   10SAPS   C13 1204   4.210   3.953   0.550 -0.0324 -0.2876 -0.6057
   10SAPS  O13A 1205   4.174   4.075   0.539  0.0867 -0.3985 -0.2452
   10SAPS  O13B 1206   4.147   3.860   0.489 -0.4081 -0.1764  0.1108
   10SAPS   C11 1207   4.442   3.900   0.465 -0.5979  0.7475 -0.1745
   10SAPS  H11A 1208   4.426   3.971   0.381 -0.0387  1.0323 -0.0392
   10SAPS  H11B 1209   4.400   3.802   0.431 -2.9763  1.4740  0.5087
   10SAPS     P 1210   4.682   3.772   0.460 -0.1778  0.7085 -0.2763
   10SAPS   O13 1211   4.799   3.782   0.550 -0.2839 -0.1022  0.1068
   10SAPS   O14 1212   4.604   3.646   0.468  0.2356  1.0231  0.9006
   10SAPS   O12 1213   4.584   3.899   0.491 -0.5680  0.1768 -0.1493
   10SAPS   O11 1214   4.713   3.797   0.307 -0.7793  0.9101  0.8798
   10SAPS    C1 1215   4.856   3.816   0.273  0.8545  0.2340 -0.0873
   10SAPS    HA 1216   4.896   3.916   0.298 -2.3298  1.6319 -0.1191
   10SAPS    HB 1217   4.926   3.745   0.322  0.9379  0.9043  0.7861
   10SAPS    C2 1218   4.866   3.798   0.115  0.3208  1.2311  1.0025
   10SAPS    HS 1219   4.974   3.778   0.098  0.3092  2.1242 -0.2695
   10SAPS   O21 1220   4.811   3.909   0.049  0.4281 -0.3938 -0.4040
   10SAPS   C21 1221   4.886   4.019   0.041  1.1327  0.9997 -0.1463
   10SAPS   O22 1222   4.991   4.031   0.100 -0.7755 -0.1031  0.3833
   10SAPS   C22 1223   4.811   4.121  -0.041 -0.3328 -0.2740 -0.1178
   10SAPS   H2R 1224   4.774   4.078  -0.137 -1.1774  1.9395 -0.8539
   10SAPS   H2S 1225   4.718   4.147   0.014 -0.0525  0.3281  0.0841
   10SAPS    C3 1226   4.794   3.670   0.075  0.0568  0.0847  0.2020
   10SAPS    HX 1227   4.687   3.676   0.104 -0.1188 -0.1033 -0.3809
   10SAPS    HY 1228   4.847   3.591   0.132  2.3911  0.5509 -1.1755
   10SAPS   O31 1229   4.815   3.652  -0.072 -0.1672  0.5991 -0.3462
   10SAPS   C31 1230   4.708   3.649  -0.146  0.7822 -0.0660 -0.7600
   10SAPS   O32 1231   4.594   3.662  -0.107  0.2004 -0.3535  0.0168
   10SAPS   C32 1232   4.747   3.619  -0.289  0.4366  0.8869 -0.4196
   10SAPS   H2X 1233   4.774   3.511  -0.298 -3.2578 -0.1951 -0.3036
   10SAPS   H2Y 1234   4.823   3.682  -0.339  0.9626 -1.0860 -2.2880
   10SAPS   C23 1235   4.894   4.253  -0.075 -0.9379  0.4039  0.7215
   10SAPS   H3R 1236   4.962   4.286   0.006  1.7809 -3.8219  0.4317
   10SAPS   H3S 1237   4.812   4.328  -0.085 -1.0996  0.1786  0.3097
   10SAPS   C24 1238   4.960   4.251  -0.215  0.4712 -0.7048 -0.1552
   10SAPS   H4R 1239   4.991   4.357  -0.218 -1.0920 -0.1990  0.6292
   10SAPS   H4S 1240   4.897   4.241  -0.306  1.9068 -0.5355 -1.2104
   10SAPS   C25 1241   5.075   4.149  -0.195 -0.3781 -0.2486  0.1038
   10SAPS   H5R 1242   5.127   4.128  -0.100  0.1512 -0.2941 -0.1933
   10SAPS   C26 1243   5.099   4.067  -0.299 -0.8438 -0.1947  0.5100
   10SAPS   H6R 1244   5.175   3.989  -0.281 -0.7437 -0.0408  0.7691
   10SAPS   C27 1245   5.042   4.068  -0.434 -0.7163 -0.9803  0.7316
   10SAPS   H7R 1246   5.127   4.049  -0.504 -1.4490  0.5524 -0.6567
   10SAPS   H7S 1247   5.002   4.167  -0.465  2.4183  0.5667  1.1964
   10SAPS   C28 1248   4.933   3.969  -0.461 -0.5236  0.2478  0.4779
   10SAPS   H8R 1249   4.918   3.897  -0.380  0.1487  0.5148  0.8435
   10SAPS   C29 1250   4.862   3.960  -0.575  0.2029  0.3416 -0.1650
   10SAPS   H9R 1251   4.785   3.882  -0.577  0.8868 -0.4470  1.6272
   10SAPS  C210 1252   4.872   4.050  -0.698  0.0769 -0.0081 -0.3870
   10SAPS  H10R 1253   4.883   3.999  -0.796 -1.9277 -0.7665 -0.2461
   10SAPS  H10S 1254   4.967   4.108  -0.691  0.1608 -0.0079 -1.3662
   10SAPS  C211 1255   4.757   4.153  -0.704 -0.2140  0.2535  0.4806
   10SAPS  H11R 1256   4.660   4.116  -0.668  0.4241  0.7321  2.8773
   10SAPS  C212 1257   4.761   4.276  -0.745  0.2688 -0.4192 -0.3982
   10SAPS  H12R 1258   4.675   4.344  -0.734  0.8139  0.0368  1.4345
   10SAPS  C213 1259   4.890   4.347  -0.770 -0.7608  0.4219 -0.1350
   10SAPS  H13R 1260   4.974   4.279  -0.798 -0.4971  1.8539 -3.2922
   10SAPS  H13S 1261   4.917   4.402  -0.677 -3.1670 -0.9814  1.4984
   10SAPS  C214 1262   4.870   4.457  -0.873  0.2625 -0.0217 -0.5137
   10SAPS  H14R 1263   4.790   4.530  -0.855  0.5483  1.1376 -3.3414
   10SAPS  C215 1264   4.926   4.466  -0.996  0.4488 -0.5620 -0.2221
   10SAPS  H15R 1265   4.894   4.556  -1.050 -0.0758 -0.6459 -0.0632
   10SAPS  C216 1266   5.034   4.375  -1.039 -0.6366  0.8812  0.2351
   10SAPS  H16R 1267   5.097   4.323  -0.964  0.2047  1.5013 -0.0147
   10SAPS  H16S 1268   5.105   4.438  -1.097 -1.4788  0.4305 -1.3605
   10SAPS  C217 1269   4.996   4.267  -1.150 -0.7640 -0.1891  0.2412
   10SAPS  H17R 1270   5.088   4.224  -1.195 -1.1669 -0.5062 -0.2769
   10SAPS  H17S 1271   4.939   4.323  -1.227 -0.2796 -0.3583 -0.2441
   10SAPS  C218 1272   4.909   4.158  -1.083 -0.0877 -0.0820 -1.1582
   10SAPS  H18R 1273   4.820   4.214  -1.046  0.2708 -0.5904  0.5103
   10SAPS  H18S 1274   4.956   4.108  -0.996 -1.1226  0.4155 -0.2869
   10SAPS  C219 1275   4.867   4.047  -1.178 -0.2863  0.2569  0.1335
   10SAPS  H19R 1276   4.932   3.960  -1.201 -2.6828 -0.9656 -2.6054
   10SAPS  H19S 1277   4.845   4.107  -1.269 -0.3546  0.7765  0.4869
   10SAPS  C220 1278   4.738   3.987  -1.141  0.0311  0.0501  0.0920
   10SAPS  H20R 1279   4.660   4.065  -1.130 -0.1008 -0.2449  1.4374
   10SAPS  H20S 1280   4.745   3.947  -1.037 -3.5930  1.7301  1.1709
   10SAPS  H20T 1281   4.708   3.908  -1.214  1.7756 -1.1984  0.6608
   10SAPS   C33 1282   4.619   3.636  -0.385  0.5225  0.4435 -0.0679
   10SAPS   H3X 1283   4.596   3.745  -0.375  0.7032  0.5298 -0.5338
   10SAPS   H3Y 1284   4.527   3.591  -0.343  0.7438 -0.5277 -0.5981
   10SAPS   C34 1285   4.649   3.609  -0.528  0.4425 -0.4040 -0.1085
   10SAPS   H4X 1286   4.677   3.502  -0.539 -2.2958 -1.1062 -0.9723
   10SAPS   H4Y 1287   4.738   3.674  -0.542 -0.1074  0.5280  0.6606
   10SAPS   C35 1288   4.535   3.643  -0.626 -0.2703 -0.2383  0.3420
   10SAPS   H5X 1289   4.517   3.752  -0.619 -1.5181 -0.3433 -0.8456
   10SAPS   H5Y 1290   4.446   3.583  -0.600  1.9914 -3.0581  2.2237
   10SAPS   C36 1291   4.598   3.610  -0.764  0.2935  0.2820  0.0129
   10SAPS   H6X 1292   4.615   3.500  -0.768 -1.0041  0.0381  0.5579
   10SAPS   H6Y 1293   4.697   3.660  -0.773  0.2954  0.2215 -0.2979
   10SAPS   C37 1294   4.514   3.633  -0.886  0.3685 -0.4916  0.2259
   10SAPS   H7X 1295   4.484   3.740  -0.892  0.3910 -0.3599  1.8749
   10SAPS   H7Y 1296   4.420   3.573  -0.885  0.2684 -0.4302 -2.0269
   10SAPS   C38 1297   4.587   3.582  -1.011  0.4503 -0.1007 -0.0917
   10SAPS   H8X 1298   4.608   3.473  -1.007 -2.3011 -0.7922 -1.4051
   10SAPS   H8Y 1299   4.681   3.640  -1.015 -0.0435  0.8885  1.7478
   10SAPS   C39 1300   4.510   3.615  -1.139  0.3218 -0.2004  0.6939
   10SAPS   H9X 1301   4.472   3.720  -1.139 -0.6052 -0.5087 -0.2877
   10SAPS   H9Y 1302   4.420   3.550  -1.151  1.1539 -1.0101 -1.9493
   10SAPS  C310 1303   4.599   3.602  -1.270 -0.5632  0.3677 -0.0226
   10SAPS  H10X 1304   4.668   3.689  -1.275  0.2306 -0.2602 -0.1427
   10SAPS  H10Y 1305   4.534   3.600  -1.360 -2.8628 -1.0744  1.5401
   10SAPS  C311 1306   4.686   3.470  -1.260  1.2092 -0.9166  0.0136
   10SAPS  H11X 1307   4.612   3.388  -1.247 -1.2405  1.3295  1.1649
   10SAPS  H11Y 1308   4.745   3.468  -1.166 -1.4761 -3.5548  1.8117
   10SAPS  C312 1309   4.772   3.448  -1.393  0.7764  0.0307 -0.5008
   10SAPS  H12X 1310   4.853   3.377  -1.365  1.1484  0.9318  0.7915
   10SAPS  H12Y 1311   4.809   3.551  -1.409  0.3855 -0.1371 -2.6813
   10SAPS  C313 1312   4.695   3.392  -1.514  0.5694  0.3821 -0.3255
   10SAPS  H13X 1313   4.658   3.479  -1.572 -0.9389  0.2547  0.3995
   10SAPS  H13Y 1314   4.611   3.333  -1.471  1.7499 -1.5916 -0.6146
   10SAPS  C314 1315   4.761   3.288  -1.599 -0.2615  0.3186  0.2232
   10SAPS  H14X 1316   4.810   3.204  -1.546 -1.3688 -0.5010 -0.0261
   10SAPS  H14Y 1317   4.832   3.339  -1.669 -0.6701 -3.1549 -3.0640
   10SAPS  C315 1318   4.654   3.222  -1.691  0.6229 -0.0063  0.9553
   10SAPS  H15X 1319   4.575   3.193  -1.618  1.3773 -0.6311  1.5571
   10SAPS  H15Y 1320   4.697   3.127  -1.731  1.2284 -0.1164  1.8303
   10SAPS  C316 1321   4.590   3.313  -1.802 -0.1670  0.2286  0.3262
   10SAPS  H16X 1322   4.531   3.400  -1.766  0.1816  1.1735 -1.3109
   10SAPS  H16Y 1323   4.518   3.245  -1.853 -1.0390  0.1223  1.6388
   10SAPS  C317 1324   4.687   3.378  -1.897  0.3288  0.2752 -0.3295
   10SAPS  H17X 1325   4.767   3.439  -1.849  1.2915 -0.8857 -0.4195
   10SAPS  H17Y 1326   4.638   3.452  -1.963  0.1540 -0.8046 -1.4431
   10SAPS  C318 1327   4.757   3.279  -1.988 -0.4569  0.3095 -0.8719
   10SAPS  H18X 1328   4.680   3.243  -2.058  0.9999 -0.1711 -2.2963
   10SAPS  H18Y 1329   4.797   3.192  -1.932 -0.8260  0.3861 -0.4816
   10SAPS  H18Z 1330   4.837   3.314  -2.057  1.0496  1.8388  1.4772
   11SAPS     N 1331   5.931   2.099   4.181 -0.4080 -0.3110  0.0829
   11SAPS   HN1 1332   5.975   2.015   4.140  2.2240  0.4620  1.0601
   11SAPS   HN2 1333   5.997   2.175   4.153 -0.1797 -0.8589 -0.8812
   11SAPS   HN3 1334   5.932   2.094   4.285  0.4166 -0.6887  0.0641
   11SAPS   C12 1335   5.798   2.125   4.128  0.1959  0.5161 -0.1902
   11SAPS  H12A 1336   5.778   2.229   4.149 -0.9770  0.2637  0.0118
   11SAPS   C13 1337   5.789   2.101   3.975  0.7641 -0.2013  0.0281
   11SAPS  O13A 1338   5.895   2.076   3.909  0.7641 -0.4715 -0.6289
   11SAPS  O13B 1339   5.674   2.087   3.928 -0.7606 -0.3429  0.5730
   11SAPS   C11 1340   5.699   2.033   4.204 -0.4801  0.2967  0.1585
   11SAPS  H11A 1341   5.729   1.928   4.182  2.1806  0.9269  0.4766
   11SAPS  H11B 1342   5.595   2.025   4.164 -0.5523 -3.1434  0.7050
   11SAPS     P 1343   5.602   2.156   4.404  0.1625  0.1433 -0.6006
   11SAPS   O13 1344   5.631   2.286   4.338 -0.1953  0.3258 -0.4304
   11SAPS   O14 1345   5.467   2.105   4.401 -0.2180 -0.3811 -0.4161
   11SAPS   O12 1346   5.699   2.047   4.342  0.0700 -0.1946 -0.0257
   11SAPS   O11 1347   5.659   2.162   4.554  0.1579 -0.4155  0.0521
   11SAPS    C1 1348   5.769   2.087   4.603 -0.0412 -0.1607  0.1896
   11SAPS    HA 1349   5.822   2.025   4.527 -1.1538  1.2979 -1.8491
   11SAPS    HB 1350   5.838   2.161   4.650  0.9073 -0.6982 -0.3081
   11SAPS    C2 1351   5.739   1.994   4.725  0.5069 -0.2105 -0.4295
   11SAPS    HS 1352   5.695   1.899   4.688 -0.5901 -0.0711  0.4528
   11SAPS   O21 1353   5.636   2.050   4.812 -0.2889  0.8033 -0.2984
   11SAPS   C21 1354   5.513   2.035   4.790 -0.1357  1.0174  0.2353
   11SAPS   O22 1355   5.451   1.977   4.701  0.0044 -0.3660  0.0441
   11SAPS   C22 1356   5.429   2.076   4.907 -0.4841 -0.2319 -0.8731
   11SAPS   H2R 1357   5.429   2.187   4.917  1.1533 -0.2533 -0.3949
   11SAPS   H2S 1358   5.325   2.041   4.887 -1.0742  0.7962  0.2494
   11SAPS    C3 1359   5.866   1.953   4.810  0.3299 -0.1632  0.1928
   11SAPS    HX 1360   5.914   2.049   4.840  1.5199 -0.1080 -1.6779
   11SAPS    HY 1361   5.929   1.896   4.738 -1.0909 -0.8031 -0.5798
   11SAPS   O31 1362   5.829   1.876   4.932  0.1133  0.1030 -0.1493
   11SAPS   C31 1363   5.774   1.748   4.915 -0.2146  0.1948 -0.2923
   11SAPS   O32 1364   5.770   1.694   4.804  0.5045  0.0696 -0.1645
   11SAPS   C32 1365   5.715   1.683   5.048  0.1048 -0.3328 -0.3660
   11SAPS   H2X 1366   5.696   1.577   5.022  2.7467 -0.9164 -0.2733
   11SAPS   H2Y 1367   5.620   1.734   5.073  0.2957  0.6126 -1.4522
   11SAPS   C23 1368   5.467   2.007   5.044  0.4229  0.2289 -0.3224
   11SAPS   H3R 1369   5.577   2.009   5.062  0.5367 -3.1783 -0.1157
   11SAPS   H3S 1370   5.438   1.900   5.041  2.5978 -0.3911 -0.8902
   11SAPS   C24 1371   5.389   2.074   5.168 -0.0868  0.7999  0.2995
   11SAPS   H4R 1372   5.378   1.997   5.247  1.1482  1.3302  1.0111
   11SAPS   H4S 1373   5.282   2.099   5.149 -0.1944 -0.3933 -0.8552
   11SAPS   C25 1374   5.474   2.195   5.209  0.0151 -0.1080  0.4747
   11SAPS   H5R 1375   5.502   2.250   5.118 -2.3432 -3.3658 -2.4719
   11SAPS   C26 1376   5.527   2.226   5.326  0.4272 -0.4209 -0.5182
   11SAPS   H6R 1377   5.573   2.324   5.346  1.3063 -0.9661  0.2482
   11SAPS   C27 1378   5.496   2.146   5.449  0.6292 -1.1630 -0.0586
   11SAPS   H7R 1379   5.386   2.128   5.448  0.2018  1.1723 -0.7058
   11SAPS   H7S 1380   5.509   2.205   5.543  1.9694  0.0300 -0.9578
   11SAPS   C28 1381   5.556   2.009   5.463  0.0052 -0.1707 -0.5646
   11SAPS   H8R 1382   5.611   1.973   5.375 -1.3843 -0.2579 -1.4243
   11SAPS   C29 1383   5.563   1.937   5.579 -1.0905  0.6340  0.0475
   11SAPS   H9R 1384   5.618   1.842   5.565  1.6014  2.2827 -1.3173
   11SAPS  C210 1385   5.510   1.958   5.720  0.2888 -0.2077 -0.1043
   11SAPS  H10R 1386   5.430   1.886   5.748 -0.5307  1.7364  3.0891
   11SAPS  H10S 1387   5.459   2.057   5.726  0.3321  0.2282 -3.9530
   11SAPS  C211 1388   5.611   1.941   5.830  0.5090 -0.2985 -0.4262
   11SAPS  H11R 1389   5.711   1.932   5.784  0.1788 -2.0714 -0.8602
   11SAPS  C212 1390   5.601   1.933   5.964 -0.0156 -0.1039  0.1479
   11SAPS  H12R 1391   5.695   1.928   6.022  0.0919 -0.5874 -0.0580
   11SAPS  C213 1392   5.479   1.946   6.046  0.3283  0.6358  0.1685
   11SAPS  H13R 1393   5.419   2.034   6.014  0.9412  1.3006  0.8169
   11SAPS  H13S 1394   5.502   1.980   6.149 -0.1401  1.0873  0.1263
   11SAPS  C214 1395   5.403   1.814   6.036 -0.5402  0.2900  0.2198
   11SAPS  H14R 1396   5.375   1.778   5.936  3.4273 -0.2609 -0.8452
   11SAPS  C215 1397   5.360   1.751   6.152 -0.7119  0.0780  0.0157
   11SAPS  H15R 1398   5.300   1.659   6.143  1.0670 -1.3218  1.5837
   11SAPS  C216 1399   5.399   1.790   6.295  0.1593 -0.5130 -0.2395
   11SAPS  H16R 1400   5.508   1.809   6.289  0.1374  0.1063  0.9159
   11SAPS  H16S 1401   5.374   1.702   6.357 -0.4707  0.6254  1.1912
   11SAPS  C217 1402   5.330   1.916   6.362 -0.1937  0.4027 -0.1556
   11SAPS  H17R 1403   5.338   2.013   6.307 -2.2359  0.7594  0.1046
   11SAPS  H17S 1404   5.371   1.935   6.463 -0.9635 -1.0038  0.4439
   11SAPS  C218 1405   5.175   1.897   6.366 -0.0015  0.2155  0.1751
   11SAPS  H18R 1406   5.176   1.788   6.390 -0.5040  0.2015  0.1321
   11SAPS  H18S 1407   5.127   1.901   6.266  0.1731 -3.2261 -0.1608
   11SAPS  C219 1408   5.096   1.963   6.478 -0.2531 -0.1455  0.8064
   11SAPS  H19R 1409   5.074   2.071   6.460 -0.2186 -0.3486 -0.5962
   11SAPS  H19S 1410   5.153   1.966   6.573  0.2760  4.1226  0.5638
   11SAPS  C220 1411   4.964   1.894   6.509  0.3795 -0.1993  1.0786
   11SAPS  H20R 1412   4.981   1.789   6.541  0.9411 -0.6504 -0.5742
   11SAPS  H20S 1413   4.915   1.886   6.409  1.7558 -3.2292  0.5239
   11SAPS  H20T 1414   4.904   1.948   6.585  0.3056  2.0932 -0.5179
   11SAPS   C33 1415   5.813   1.707   5.170 -0.2177 -0.1315  0.0873
   11SAPS   H3X 1416   5.794   1.809   5.211 -0.6090  0.5974 -1.7810
   11SAPS   H3Y 1417   5.919   1.691   5.140  0.7872 -1.4767  3.7737
   11SAPS   C34 1418   5.788   1.622   5.300 -0.0869  1.0726 -0.1409
   11SAPS   H4X 1419   5.816   1.516   5.285 -1.1360  0.7118  0.3399
   11SAPS   H4Y 1420   5.680   1.620   5.326 -0.7813 -0.8689 -2.7546
   11SAPS   C35 1421   5.859   1.683   5.423 -0.8989  0.3906 -0.3785
   11SAPS   H5X 1422   5.831   1.790   5.431 -0.2958  0.4988  0.3826
   11SAPS   H5Y 1423   5.967   1.677   5.397 -1.2808 -3.8967 -1.6571
   11SAPS   C36 1424   5.822   1.609   5.559  0.0140  1.0827 -0.1369
   11SAPS   H6X 1425   5.834   1.503   5.527 -1.2971  0.5223  1.1221
   11SAPS   H6Y 1426   5.713   1.617   5.577  0.1064 -1.1664  1.8939
   11SAPS   C37 1427   5.904   1.659   5.683  0.2050  0.5233 -0.9876
   11SAPS   H7X 1428   5.911   1.770   5.685 -0.0307  0.5236  0.0485
   11SAPS   H7Y 1429   6.003   1.611   5.665 -0.4630 -2.1016  1.6183
   11SAPS   C38 1430   5.849   1.603   5.812  0.4416 -1.0055 -0.6459
   11SAPS   H8X 1431   5.863   1.493   5.825  0.2663 -0.9088  0.4411
   11SAPS   H8Y 1432   5.743   1.630   5.830  0.3176 -1.0766 -1.2442
   11SAPS   C39 1433   5.921   1.658   5.937  0.4737 -0.1259 -0.2820
   11SAPS   H9X 1434   5.908   1.768   5.929  0.4145  0.1478  2.5367
   11SAPS   H9Y 1435   6.032   1.647   5.927  0.8759  3.6014 -1.1791
   11SAPS  C310 1436   5.863   1.605   6.071 -0.3947 -0.4215  0.5072
   11SAPS  H10X 1437   5.898   1.500   6.078  1.0712  0.1615  2.9157
   11SAPS  H10Y 1438   5.754   1.623   6.080 -0.3210 -0.0488  0.6762
   11SAPS  C311 1439   5.908   1.679   6.199 -0.5651 -0.4451  0.0594
   11SAPS  H11X 1440   5.868   1.783   6.202 -1.1096 -0.6146 -0.6875
   11SAPS  H11Y 1441   6.018   1.687   6.189 -0.1978 -4.2361 -0.4859
   11SAPS  C312 1442   5.877   1.596   6.327 -0.0323 -0.1265  0.1075
   11SAPS  H12X 1443   5.897   1.488   6.312  1.2446  0.0958  0.0227
   11SAPS  H12Y 1444   5.771   1.600   6.360  0.1298 -0.9708  0.7648
   11SAPS  C313 1445   5.962   1.673   6.436  0.4802  0.2542  0.0660
   11SAPS  H13X 1446   6.067   1.662   6.402  0.7654 -1.7875  1.4888
   11SAPS  H13Y 1447   5.955   1.610   6.527 -1.8450 -2.6409 -1.9280
   11SAPS  C314 1448   5.921   1.821   6.462 -0.3161  0.8114 -0.3619
   11SAPS  H14X 1449   5.917   1.893   6.378  0.7683  2.4353  0.9215
   11SAPS  H14Y 1450   5.993   1.862   6.536  0.5411 -3.5666  1.5982
   11SAPS  C315 1451   5.790   1.833   6.538 -0.1407  0.4760  0.1729
   11SAPS  H15X 1452   5.795   1.764   6.625 -3.2785 -1.6274 -1.1624
   11SAPS  H15Y 1453   5.705   1.797   6.477  0.8620 -0.5688 -0.6522
   11SAPS  C316 1454   5.748   1.967   6.594  0.0418 -0.3862 -0.6665
   11SAPS  H16X 1455   5.817   2.011   6.670 -1.4315  0.5129  0.1950
   11SAPS  H16Y 1456   5.652   1.960   6.649 -1.4758  0.8491 -2.9939
   11SAPS  C317 1457   5.731   2.069   6.481 -0.0154  0.6806  0.2234
   11SAPS  H17X 1458   5.668   2.029   6.400  0.1832  0.6251  0.0973
   11SAPS  H17Y 1459   5.827   2.105   6.439  1.2488 -0.1215  2.2802
   11SAPS  C318 1460   5.664   2.199   6.521 -0.2893  0.2884 -0.7408
   11SAPS  H18X 1461   5.724   2.248   6.601  2.8460 -0.0670 -2.6959
   11SAPS  H18Y 1462   5.558   2.176   6.548 -0.6450  0.9658 -1.4988
   11SAPS  H18Z 1463   5.664   2.271   6.436  2.1160  0.2646 -0.8095
   12SAPS     N 1464   0.392   0.831   4.285 -0.0500  0.7865 -0.3240
   12SAPS   HN1 1465   0.419   0.731   4.295 -2.0149  0.1135 -1.0687
   12SAPS   HN2 1466   0.466   0.896   4.316  0.9242  1.4014 -3.5851
   12SAPS   HN3 1467   0.320   0.837   4.360 -1.7400  0.3335 -1.8242
   12SAPS   C12 1468   0.341   0.869   4.158 -0.3203 -0.1830 -0.0693
   12SAPS  H12A 1469   0.296   0.966   4.171  0.5105  0.1822  0.1676
   12SAPS   C13 1470   0.436   0.863   4.041  0.7347  0.3945 -0.8177
   12SAPS  O13A 1471   0.549   0.819   4.060 -0.4894 -0.0177  0.0095
   12SAPS  O13B 1472   0.408   0.929   3.939 -0.1066 -0.5937  0.3701
   12SAPS   C11 1473   0.216   0.781   4.116 -0.1011  0.0840 -0.4626
   12SAPS  H11A 1474   0.260   0.681   4.090 -1.1248 -0.9949  1.7267
   12SAPS  H11B 1475   0.164   0.824   4.028 -0.8704 -0.0534 -0.0798
   12SAPS     P 1476   0.016   0.648   4.227 -0.0876 -0.4634 -0.3303
   12SAPS   O13 1477  -0.076   0.677   4.112  0.3972 -0.2169 -0.3239
   12SAPS   O14 1478   0.096   0.519   4.231  0.4467 -0.0690 -0.1371
   12SAPS   O12 1479   0.114   0.776   4.218 -0.3762  0.4475  0.0041
   12SAPS   O11 1480  -0.064   0.671   4.366 -0.4509 -0.3902 -0.1209
   12SAPS    C1 1481  -0.040   0.791   4.440  0.6187 -0.3746  0.4286
   12SAPS    HA 1482  -0.055   0.783   4.550  2.0805  1.7098  0.8419
   12SAPS    HB 1483   0.068   0.820   4.435  0.9822 -1.7726 -0.4552
   12SAPS    C2 1484  -0.131   0.909   4.406 -0.4315  0.3059  0.0013
   12SAPS    HS 1485  -0.114   0.935   4.299 -0.8689  0.4424 -0.0381
   12SAPS   O21 1486  -0.101   1.013   4.492 -0.4197  0.0847 -0.3870
   12SAPS   C21 1487  -0.145   1.133   4.450  1.1207 -0.2430  0.5088
   12SAPS   O22 1488  -0.197   1.155   4.340 -0.3033  0.3681 -0.8848
   12SAPS   C22 1489  -0.145   1.234   4.556  0.1645  0.0097 -0.7105
   12SAPS   H2R 1490  -0.177   1.332   4.513 -0.1150  0.9717  1.5470
   12SAPS   H2S 1491  -0.221   1.198   4.629  1.4294  0.7169  1.0145
   12SAPS    C3 1492  -0.282   0.876   4.415  0.7203 -0.2482 -0.3638
   12SAPS    HX 1493  -0.312   0.794   4.345  0.6734  0.4596 -1.1958
   12SAPS    HY 1494  -0.343   0.968   4.400 -0.3819 -0.7998  0.5621
   12SAPS   O31 1495  -0.308   0.812   4.547  0.5011  0.0044  0.2966
   12SAPS   C31 1496  -0.363   0.891   4.640 -0.1361  0.9328 -0.5465
   12SAPS   O32 1497  -0.399   1.007   4.630 -0.3460  0.0054 -0.3811
   12SAPS   C32 1498  -0.374   0.821   4.772 -0.3174  0.3168 -0.2508
   12SAPS   H2X 1499  -0.283   0.761   4.797 -0.3425  0.7216  0.8989
   12SAPS   H2Y 1500  -0.451   0.743   4.756  0.1856  0.5427 -5.2294
   12SAPS   C23 1501  -0.015   1.253   4.641  0.7325  0.0288 -0.4613
   12SAPS   H3R 1502   0.080   1.213   4.600  0.9248 -1.4400  1.2759
   12SAPS   H3S 1503  -0.031   1.184   4.726  1.1251  0.1761 -0.2633
   12SAPS   C24 1504   0.001   1.397   4.670 -0.4176 -0.4695 -0.6242
   12SAPS   H4R 1505  -0.015   1.467   4.585 -1.6102  1.0659  0.7946
   12SAPS   H4S 1506   0.108   1.408   4.696 -0.6580  0.1171  0.1590
   12SAPS   C25 1507  -0.082   1.469   4.777  0.6486  1.3975 -0.8731
   12SAPS   H5R 1508  -0.188   1.486   4.755 -0.5903 -1.1420  2.2499
   12SAPS   C26 1509  -0.053   1.488   4.906  0.5584  0.2779 -0.2519
   12SAPS   H6R 1510  -0.120   1.541   4.976  0.7402 -0.1723  0.2730
   12SAPS   C27 1511   0.075   1.449   4.976  0.3411  0.3730  0.5414
   12SAPS   H7R 1512   0.141   1.408   4.897 -1.9339 -0.5592 -0.9999
   12SAPS   H7S 1513   0.050   1.364   5.044 -0.1686 -0.5988 -0.8109
   12SAPS   C28 1514   0.140   1.562   5.053 -0.3850 -1.3023 -0.1607
   12SAPS   H8R 1515   0.192   1.622   4.976 -1.6798  0.8612  0.5636
   12SAPS   C29 1516   0.163   1.578   5.182  0.1412 -0.5448  0.8225
   12SAPS   H9R 1517   0.207   1.674   5.212 -0.6499 -0.5688  2.1214
   12SAPS  C210 1518   0.110   1.502   5.300 -0.3397 -0.0829 -0.3759
   12SAPS  H10R 1519   0.062   1.407   5.267 -0.0633 -0.5460  0.5194
   12SAPS  H10S 1520   0.032   1.569   5.341 -1.2416  0.2991 -2.5394
   12SAPS  C211 1521   0.211   1.475   5.409  0.3479  0.3096  0.1106
   12SAPS  H11R 1522   0.297   1.411   5.382 -1.0475 -1.7650  0.3997
   12SAPS  C212 1523   0.207   1.513   5.538  0.4792  0.4709 -0.6301
   12SAPS  H12R 1524   0.292   1.485   5.602  0.8470 -0.6536 -1.5841
   12SAPS  C213 1525   0.095   1.580   5.615 -0.6119 -0.1340  0.5181
   12SAPS  H13R 1526   0.007   1.576   5.548  0.7699  0.6674 -1.4375
   12SAPS  H13S 1527   0.114   1.689   5.625  0.7313 -0.3135  0.2271
   12SAPS  C214 1528   0.074   1.516   5.744 -0.1227 -0.0450 -0.6057
   12SAPS  H14R 1529   0.041   1.411   5.741 -1.4337  0.1956  2.1784
   12SAPS  C215 1530   0.085   1.569   5.872  0.3105 -0.3022 -0.2015
   12SAPS  H15R 1531   0.064   1.496   5.951 -1.6575 -0.6322 -0.9724
   12SAPS  C216 1532   0.133   1.706   5.909 -0.8980 -0.4433 -0.5984
   12SAPS  H16R 1533   0.048   1.767   5.948  1.2430  0.9092  2.3256
   12SAPS  H16S 1534   0.180   1.751   5.820 -2.0611  0.2307 -0.8966
   12SAPS  C217 1535   0.235   1.698   6.018 -0.0540 -0.0212  0.6717
   12SAPS  H17R 1536   0.203   1.640   6.107 -1.1571 -0.5517 -0.0408
   12SAPS  H17S 1537   0.248   1.799   6.063  0.2025 -0.0004  0.5535
   12SAPS  C218 1538   0.374   1.649   5.969 -0.5569 -0.1053 -0.0772
   12SAPS  H18R 1539   0.409   1.723   5.894 -1.3795  1.5134  1.0731
   12SAPS  H18S 1540   0.363   1.550   5.921 -0.5818  0.2669 -0.8537
   12SAPS  C219 1541   0.481   1.648   6.078 -0.8688  0.3187 -0.2089
   12SAPS  H19R 1542   0.500   1.752   6.112  0.6774  0.2716 -0.8580
   12SAPS  H19S 1543   0.579   1.650   6.026 -0.4865  2.9784  0.4885
   12SAPS  C220 1544   0.473   1.540   6.185 -0.3787  0.1579  0.1524
   12SAPS  H20R 1545   0.468   1.441   6.134  0.7852  0.2893 -0.2451
   12SAPS  H20S 1546   0.385   1.560   6.250 -0.3570 -1.1487  0.6328
   12SAPS  H20T 1547   0.564   1.531   6.249 -0.4994  1.6992  0.5714
   12SAPS   C33 1548  -0.421   0.908   4.892  0.9425 -0.0272  0.1928
   12SAPS   H3X 1549  -0.517   0.956   4.864 -0.0249 -1.8579  0.2161
   12SAPS   H3Y 1550  -0.349   0.984   4.927 -1.9723  1.6469  3.1645
   12SAPS   C34 1551  -0.463   0.819   5.015 -0.2357 -0.3963 -0.8106
   12SAPS   H4X 1552  -0.382   0.747   5.039  0.0441 -0.3942 -1.7242
   12SAPS   H4Y 1553  -0.551   0.758   4.985  0.8402 -2.0861 -0.6566
   12SAPS   C35 1554  -0.484   0.906   5.137 -0.0152 -0.8986 -0.1316
   12SAPS   H5X 1555  -0.562   0.983   5.115 -0.6082 -1.1444  1.0442
   12SAPS   H5Y 1556  -0.393   0.969   5.145 -0.7723  0.2267 -0.2116
   12SAPS   C36 1557  -0.504   0.826   5.257  0.1901 -0.0344 -0.3529
   12SAPS   H6X 1558  -0.416   0.758   5.268  0.6687  0.5377 -0.5997
   12SAPS   H6Y 1559  -0.588   0.754   5.264  0.8825 -0.8580 -0.3119
   12SAPS   C37 1560  -0.517   0.915   5.381 -0.5278 -0.2671  0.3274
   12SAPS   H7X 1561  -0.621   0.955   5.378 -0.3977  0.0611  0.0879
   12SAPS   H7Y 1562  -0.439   0.993   5.372  0.5817 -1.4415 -0.7539
   12SAPS   C38 1563  -0.494   0.830   5.501  0.0349  0.0753 -0.1445
   12SAPS   H8X 1564  -0.390   0.793   5.500  0.1603  0.3074  1.4677
   12SAPS   H8Y 1565  -0.564   0.745   5.513  0.4388 -0.1409  0.8198
   12SAPS   C39 1566  -0.515   0.917   5.624  0.0924 -0.0001  0.2730
   12SAPS   H9X 1567  -0.621   0.950   5.631  0.1830  0.4029 -0.1783
   12SAPS   H9Y 1568  -0.453   1.005   5.599  1.2592 -0.5875  1.0387
   12SAPS  C310 1569  -0.493   0.836   5.750 -0.5768  0.1624 -0.4550
   12SAPS  H10X 1570  -0.389   0.816   5.785 -0.5730  0.5857 -0.2163
   12SAPS  H10Y 1571  -0.529   0.733   5.730  2.2167 -0.8571 -0.6984
   12SAPS  C311 1572  -0.565   0.909   5.861  0.4771  0.0661 -0.4545
   12SAPS  H11X 1573  -0.674   0.888   5.854  0.6550 -1.2719  0.5111
   12SAPS  H11Y 1574  -0.552   1.017   5.837  3.2434 -0.8587 -4.1072
   12SAPS  C312 1575  -0.511   0.890   6.006 -0.4867 -0.4400 -0.9174
   12SAPS  H12X 1576  -0.488   0.783   6.025  2.0306  0.0083 -1.0909
   12SAPS  H12Y 1577  -0.589   0.930   6.075 -1.1462  1.7535 -2.8296
   12SAPS  C313 1578  -0.388   0.976   6.027 -0.2954  0.4767 -0.0676
   12SAPS  H13X 1579  -0.418   1.083   6.033  3.7070  1.8376 -1.0208
   12SAPS  H13Y 1580  -0.316   0.962   5.943 -0.4717 -2.4698  0.1564
   12SAPS  C314 1581  -0.320   0.955   6.163  0.4107 -0.5327 -0.2356
   12SAPS  H14X 1582  -0.283   0.851   6.163 -3.0752 -1.9565  2.2946
   12SAPS  H14Y 1583  -0.391   0.983   6.244  1.7991  2.5548  0.0720
   12SAPS  C315 1584  -0.192   1.035   6.172 -0.2925 -0.9212 -0.5062
   12SAPS  H15X 1585  -0.201   1.141   6.138  2.3444 -0.6765 -0.6707
   12SAPS  H15Y 1586  -0.124   0.999   6.092  2.1681  1.5166  0.3269
   12SAPS  C316 1587  -0.135   1.025   6.313 -0.0468  0.2425 -0.4738
   12SAPS  H16X 1588  -0.219   1.007   6.383 -0.1882  0.4778 -0.5853
   12SAPS  H16Y 1589  -0.093   1.126   6.331  1.6523 -0.2319 -1.4808
   12SAPS  C317 1590  -0.023   0.912   6.327 -0.8864 -0.3519 -0.2405
   12SAPS  H17X 1591   0.018   0.926   6.430  0.1923  0.2173 -0.7288
   12SAPS  H17Y 1592   0.055   0.928   6.250  0.2814 -0.1500  0.9496
   12SAPS  C318 1593  -0.060   0.764   6.299 -0.5330 -0.0584  0.4827
   12SAPS  H18X 1594  -0.087   0.759   6.192  0.0865 -2.6124  0.3677
   12SAPS  H18Y 1595  -0.145   0.729   6.362  0.4310  0.2877  2.0234
   12SAPS  H18Z 1596   0.022   0.692   6.319 -1.1262 -0.3926  1.8850
   13SAPS     N 1597   0.779   4.995   4.293  0.4071  1.0583  0.2832
   13SAPS   HN1 1598   0.813   5.066   4.361 -1.5124  0.8425  1.5390
   13SAPS   HN2 1599   0.697   5.038   4.245 -0.5214  1.1710  1.8769
   13SAPS   HN3 1600   0.735   4.921   4.351  1.8111 -1.0725 -1.2392
   13SAPS   C12 1601   0.881   4.946   4.194  0.2421 -0.6287 -0.0270
   13SAPS  H12A 1602   0.813   4.900   4.125 -1.6398  0.4584  1.0067
   13SAPS   C13 1603   0.957   5.055   4.115  0.0969 -0.0678 -0.6131
   13SAPS  O13A 1604   0.929   5.178   4.142 -0.6766 -0.1700  0.5316
   13SAPS  O13B 1605   1.052   5.021   4.039  0.3725 -0.0087  0.3013
   13SAPS   C11 1606   0.979   4.843   4.269  0.2705 -0.6069 -0.1944
   13SAPS  H11A 1607   1.053   4.906   4.324 -1.2667  0.7242  0.4341
   13SAPS  H11B 1608   1.037   4.789   4.191  0.7692 -0.2574 -0.0690
   13SAPS     P 1609   0.971   4.688   4.480  0.0682  0.1988  0.0865
   13SAPS   O13 1610   0.861   4.638   4.566 -0.7806 -0.0890  0.0490
   13SAPS   O14 1611   1.080   4.598   4.432 -0.3094 -0.4657  0.1880
   13SAPS   O12 1612   0.907   4.751   4.351  0.4052 -0.5883  0.0689
   13SAPS   O11 1613   1.032   4.807   4.558 -0.4527 -0.0098 -0.1316
   13SAPS    C1 1614   0.947   4.901   4.626 -0.2187 -0.7972  0.2324
   13SAPS    HA 1615   0.929   4.984   4.555 -0.4763 -2.2116 -1.4100
   13SAPS    HB 1616   0.849   4.871   4.667 -0.2146  1.5090  2.1703
   13SAPS    C2 1617   1.026   4.969   4.749 -0.0662 -0.6189  0.3355
   13SAPS    HS 1618   0.969   5.057   4.787 -0.4032 -0.8430  0.3459
   13SAPS   O21 1619   1.161   5.015   4.704 -0.2612  0.2314  0.6565
   13SAPS   C21 1620   1.168   5.128   4.644 -0.1943 -0.7828 -0.5142
   13SAPS   O22 1621   1.073   5.200   4.612  0.5286  0.2488  0.3336
   13SAPS   C22 1622   1.313   5.169   4.628  0.3419  0.3927 -0.4547
   13SAPS   H2R 1623   1.383   5.085   4.648 -3.1256 -2.4109  1.0704
   13SAPS   H2S 1624   1.325   5.168   4.517  2.4961 -2.9606 -0.3359
   13SAPS    C3 1625   1.050   4.864   4.856 -0.1365 -0.1975 -0.1739
   13SAPS    HX 1626   1.095   4.768   4.823 -1.8565 -0.6956 -1.2101
   13SAPS    HY 1627   0.952   4.831   4.897 -0.7058  1.0235 -0.5140
   13SAPS   O31 1628   1.123   4.913   4.973 -0.1573 -0.0022 -0.2688
   13SAPS   C31 1629   1.246   4.865   4.981  0.1092  0.2774  0.0132
   13SAPS   O32 1630   1.295   4.774   4.913 -0.3349 -0.9329  1.0459
   13SAPS   C32 1631   1.313   4.928   5.102 -0.0070 -1.2869  0.8125
   13SAPS   H2X 1632   1.231   4.952   5.174 -0.2817 -1.8658  0.6967
   13SAPS   H2Y 1633   1.349   5.031   5.079 -3.3321 -0.1731 -0.0168
   13SAPS   C23 1634   1.353   5.299   4.692 -0.5731  0.0722 -0.0625
   13SAPS   H3R 1635   1.263   5.361   4.715 -0.8261 -0.3563  0.1088
   13SAPS   H3S 1636   1.420   5.362   4.630  0.5725 -0.9181  0.1365
   13SAPS   C24 1637   1.429   5.277   4.826  0.0777 -0.0792  0.6565
   13SAPS   H4R 1638   1.530   5.245   4.794 -0.9298 -1.6151 -1.2273
   13SAPS   H4S 1639   1.398   5.183   4.877  0.6930  0.4128  1.9864
   13SAPS   C25 1640   1.431   5.399   4.909 -0.7015 -0.1119  0.0161
   13SAPS   H5R 1641   1.480   5.488   4.869 -1.2288 -0.6350 -1.9130
   13SAPS   C26 1642   1.375   5.411   5.038  0.3098  0.3025  0.1453
   13SAPS   H6R 1643   1.386   5.505   5.094 -1.4424  1.0106 -0.6300
   13SAPS   C27 1644   1.285   5.305   5.108  0.0723 -0.8077  0.5420
   13SAPS   H7R 1645   1.274   5.218   5.040 -1.3039 -0.8181  0.7399
   13SAPS   H7S 1646   1.185   5.353   5.120  0.7666  0.3849  1.9895
   13SAPS   C28 1647   1.334   5.279   5.247  0.1710 -0.1599  0.2091
   13SAPS   H8R 1648   1.382   5.180   5.251 -0.8903 -0.6700  3.5461
   13SAPS   C29 1649   1.298   5.339   5.363 -0.0422  0.2681  0.5678
   13SAPS   H9R 1650   1.343   5.312   5.460 -1.6376 -0.5267  1.1268
   13SAPS  C210 1651   1.220   5.467   5.372  0.3652  0.1994  0.0286
   13SAPS  H10R 1652   1.122   5.453   5.321 -0.8433 -1.4432  2.5661
   13SAPS  H10S 1653   1.271   5.553   5.325  0.2717  0.1669 -0.1313
   13SAPS  C211 1654   1.179   5.505   5.512 -0.3760 -0.2571  0.2880
   13SAPS  H11R 1655   1.095   5.450   5.557 -1.5562  1.3892  0.1737
   13SAPS  C212 1656   1.246   5.581   5.600 -0.1552 -0.0082 -1.2462
   13SAPS  H12R 1657   1.200   5.624   5.690  1.4080 -0.9381  0.0543
   13SAPS  C213 1658   1.373   5.660   5.566  1.0802 -0.3875  0.2169
   13SAPS  H13R 1659   1.385   5.653   5.456  1.4859  0.1649  0.2249
   13SAPS  H13S 1660   1.460   5.616   5.619  3.1293  1.3197 -1.5670
   13SAPS  C214 1661   1.373   5.801   5.608  0.4361 -0.3635 -0.8151
   13SAPS  H14R 1662   1.399   5.817   5.714 -1.5773 -1.8815 -0.0003
   13SAPS  C215 1663   1.322   5.905   5.543 -0.1751 -0.0709  0.2474
   13SAPS  H15R 1664   1.327   6.002   5.595 -1.5476  1.0111 -1.5174
   13SAPS  C216 1665   1.270   5.902   5.405 -0.3358  0.0219  0.6124
   13SAPS  H16R 1666   1.194   5.983   5.413  0.7024  1.0910 -0.0892
   13SAPS  H16S 1667   1.213   5.810   5.382 -0.5734  0.2103  0.4482
   13SAPS  C217 1668   1.376   5.938   5.291 -0.2287 -0.7546  0.4189
   13SAPS  H17R 1669   1.330   5.949   5.191  1.3512  2.4456 -0.0811
   13SAPS  H17S 1670   1.447   5.853   5.291  0.9482  0.1911  1.1069
   13SAPS  C218 1671   1.445   6.069   5.341  0.2627 -0.3910  0.5202
   13SAPS  H18R 1672   1.500   6.053   5.436 -1.7453 -1.8760  1.4840
   13SAPS  H18S 1673   1.361   6.137   5.364  0.5703  0.1873 -0.0045
   13SAPS  C219 1674   1.523   6.146   5.234  0.1732 -0.0585  0.1903
   13SAPS  H19R 1675   1.519   6.253   5.261  1.0939  0.5001 -1.7414
   13SAPS  H19S 1676   1.466   6.131   5.140 -0.2841  0.4773  0.3807
   13SAPS  C220 1677   1.661   6.094   5.205  0.0582 -0.2517 -0.1913
   13SAPS  H20R 1678   1.648   6.005   5.139 -0.6011 -0.2942 -0.0089
   13SAPS  H20S 1679   1.709   6.064   5.300 -1.4822  0.3384  0.8083
   13SAPS  H20T 1680   1.717   6.174   5.154 -0.9996  1.5684  1.3647
   13SAPS   C33 1681   1.419   4.844   5.169  0.4642 -0.6938  0.5943
   13SAPS   H3X 1682   1.506   4.827   5.102 -0.6929  1.5219 -1.6241
   13SAPS   H3Y 1683   1.362   4.750   5.182  1.6897 -1.3616  1.4326
   13SAPS   C34 1684   1.471   4.903   5.301  0.1712 -0.2983  0.5250
   13SAPS   H4X 1685   1.485   5.013   5.286 -1.2455  0.2516  2.7087
   13SAPS   H4Y 1686   1.574   4.867   5.319  1.4712  2.3723 -0.8887
   13SAPS   C35 1687   1.374   4.902   5.415 -0.3313  0.4884  0.6920
   13SAPS   H5X 1688   1.373   4.796   5.450  0.4784  0.4187  0.5133
   13SAPS   H5Y 1689   1.270   4.934   5.389  0.4324  2.3877 -0.1655
   13SAPS   C36 1690   1.434   4.988   5.531  0.4528  0.3840  0.5306
   13SAPS   H6X 1691   1.423   5.092   5.495 -0.8784  0.4316  1.0010
   13SAPS   H6Y 1692   1.541   4.966   5.552  0.8856  0.6930 -1.1767
   13SAPS   C37 1693   1.357   4.965   5.661 -0.3640 -0.2470  0.0750
   13SAPS   H7X 1694   1.357   4.857   5.687  4.0493 -0.5692 -0.5202
   13SAPS   H7Y 1695   1.248   4.986   5.655 -0.4075  1.1820  3.6059
   13SAPS   C38 1696   1.415   5.048   5.776  0.0430  0.1767 -0.4559
   13SAPS   H8X 1697   1.366   5.148   5.783 -0.6070 -0.2554  2.5392
   13SAPS   H8Y 1698   1.523   5.066   5.759  0.4091 -0.8181  0.6567
   13SAPS   C39 1699   1.394   4.977   5.908  0.0235  0.6338 -0.5839
   13SAPS   H9X 1700   1.436   4.875   5.894 -1.1728  0.0162  0.1527
   13SAPS   H9Y 1701   1.285   4.969   5.926 -0.0490  0.4917 -1.0760
   13SAPS  C310 1702   1.468   5.056   6.019  0.4385 -0.5098  0.3943
   13SAPS  H10X 1703   1.413   5.151   6.039  0.4012 -0.0608 -1.5744
   13SAPS  H10Y 1704   1.568   5.088   5.983 -0.9284  3.6906 -0.3026
   13SAPS  C311 1705   1.479   4.987   6.156  0.0582  0.0666 -0.7969
   13SAPS  H11X 1706   1.527   4.889   6.140 -0.8740 -0.8806  1.6836
   13SAPS  H11Y 1707   1.377   4.971   6.198  0.7021 -0.4575  0.6531
   13SAPS  C312 1708   1.570   5.066   6.258  0.2254  0.1258  0.6687
   13SAPS  H12X 1709   1.519   5.165   6.257 -1.0235 -0.4961 -0.8762
   13SAPS  H12Y 1710   1.672   5.071   6.215 -0.4342  0.9486 -0.8766
   13SAPS  C313 1711   1.568   5.006   6.395 -0.3552 -0.7824 -0.1788
   13SAPS  H13X 1712   1.602   4.900   6.404 -2.1706 -1.2648  1.7128
   13SAPS  H13Y 1713   1.462   5.000   6.426 -0.8834  2.5809 -1.0152
   13SAPS  C314 1714   1.638   5.101   6.501 -0.6394 -0.0494  0.0628
   13SAPS  H14X 1715   1.624   5.210   6.482 -1.3295  0.4219  2.8318
   13SAPS  H14Y 1716   1.746   5.074   6.500 -0.8554 -1.0315  1.1248
   13SAPS  C315 1717   1.594   5.069   6.648 -0.5611  0.8625  0.2194
   13SAPS  H15X 1718   1.621   4.962   6.658 -0.4112  0.8890  0.1012
   13SAPS  H15Y 1719   1.484   5.086   6.650 -1.1313 -2.1436 -0.8515
   13SAPS  C316 1720   1.669   5.153   6.751 -0.0325  0.1080 -0.3197
   13SAPS  H16X 1721   1.779   5.153   6.740 -0.2350  0.9656 -3.1657
   13SAPS  H16Y 1722   1.658   5.108   6.853  3.4270  0.1716  0.2013
   13SAPS  C317 1723   1.632   5.304   6.758 -0.6359  0.0218 -0.3816
   13SAPS  H17X 1724   1.650   5.354   6.660 -1.6247  0.4533 -0.3593
   13SAPS  H17Y 1725   1.692   5.358   6.834 -0.7530 -0.1180 -0.1914
   13SAPS  C318 1726   1.486   5.335   6.790  0.0978  0.1216 -0.2550
   13SAPS  H18X 1727   1.415   5.296   6.713 -1.0821  1.9759 -0.1789
   13SAPS  H18Y 1728   1.473   5.445   6.793  1.0798  0.2186  0.9924
   13SAPS  H18Z 1729   1.452   5.309   6.892  0.1785  4.5919  1.1221
   14SAPS     N 1730   0.667   0.380   4.191 -0.1400  0.1874  0.4981
   14SAPS   HN1 1731   0.714   0.435   4.265 -0.1656  1.2782 -0.2605
   14SAPS   HN2 1732   0.634   0.291   4.233 -0.2960 -0.5908 -1.1668
   14SAPS   HN3 1733   0.739   0.357   4.120 -0.5803 -0.9053  0.3927
   14SAPS   C12 1734   0.548   0.453   4.136  0.0580  0.6879  0.1995
   14SAPS  H12A 1735   0.575   0.553   4.104 -2.2372  0.6161 -2.3260
   14SAPS   C13 1736   0.481   0.384   4.016 -0.3588 -1.1159 -0.4556
   14SAPS  O13A 1737   0.520   0.270   3.975  0.0344 -0.1114  0.0926
   14SAPS  O13B 1738   0.395   0.446   3.948 -0.1931 -0.7375  0.1795
   14SAPS   C11 1739   0.448   0.484   4.256 -0.6046 -0.1190 -0.2882
   14SAPS  H11A 1740   0.425   0.389   4.310 -2.0324  1.5013  2.1457
   14SAPS  H11B 1741   0.350   0.501   4.207 -2.3171  3.4955  3.7043
   14SAPS     P 1742   0.575   0.576   4.473 -0.4497 -0.3325  0.1058
   14SAPS   O13 1743   0.709   0.533   4.429 -0.6049  0.2404  0.3258
   14SAPS   O14 1744   0.571   0.698   4.550  0.0569 -0.0315 -0.3365
   14SAPS   O12 1745   0.481   0.593   4.344  0.6294 -0.5894 -0.3320
   14SAPS   O11 1746   0.506   0.461   4.551  0.1136  0.1331 -1.1738
   14SAPS    C1 1747   0.367   0.449   4.577 -0.9089 -0.1546 -0.5053
   14SAPS    HA 1748   0.306   0.498   4.498  0.2282  0.4419 -1.0299
   14SAPS    HB 1749   0.332   0.345   4.557 -2.5521 -0.1924  2.0334
   14SAPS    C2 1750   0.321   0.502   4.708 -0.0511  0.2889 -0.0291
   14SAPS    HS 1751   0.350   0.609   4.717 -2.4994  1.0351 -0.1754
   14SAPS   O21 1752   0.377   0.416   4.803  0.4280  0.5705  0.4402
   14SAPS   C21 1753   0.379   0.471   4.925 -0.2151  0.7110 -0.4030
   14SAPS   O22 1754   0.363   0.585   4.954  0.4383 -0.1300 -0.3770
   14SAPS   C22 1755   0.443   0.367   5.019 -0.2250  0.4467  0.1515
   14SAPS   H2R 1756   0.369   0.284   5.022  1.0109 -1.1628 -4.6110
   14SAPS   H2S 1757   0.533   0.329   4.966  0.3796  0.0961  1.3972
   14SAPS    C3 1758   0.171   0.489   4.717  0.7021 -0.0121  0.3875
   14SAPS    HX 1759   0.153   0.380   4.711  0.5864 -0.0925  1.9386
   14SAPS    HY 1760   0.116   0.519   4.625  0.2014 -1.5016  0.1749
   14SAPS   O31 1761   0.115   0.564   4.825 -0.4742 -0.0888  0.6082
   14SAPS   C31 1762   0.099   0.696   4.809 -0.5001 -0.3490 -0.4899
   14SAPS   O32 1763   0.141   0.764   4.717 -0.2949 -0.5432  0.0682
   14SAPS   C32 1764   0.045   0.755   4.945 -0.5672 -0.7658  0.2757
   14SAPS   H2X 1765   0.113   0.717   5.025  2.8342  2.0365 -0.9873
   14SAPS   H2Y 1766  -0.056   0.718   4.972 -1.0530  1.1435  1.1987
   14SAPS   C23 1767   0.483   0.416   5.161  0.1128 -0.2164  0.3008
   14SAPS   H3R 1768   0.396   0.479   5.192  0.4865  1.0690 -1.1829
   14SAPS   H3S 1769   0.570   0.484   5.149 -0.0157 -0.3848 -1.9610
   14SAPS   C24 1770   0.520   0.305   5.268 -0.6977 -0.7751  0.0479
   14SAPS   H4R 1771   0.568   0.356   5.354 -2.4504 -0.4969  0.9063
   14SAPS   H4S 1772   0.586   0.221   5.234 -1.4845 -1.6261  0.5789
   14SAPS   C25 1773   0.392   0.252   5.328  0.0194 -0.1586  0.4403
   14SAPS   H5R 1774   0.330   0.204   5.251  0.9528  0.9007 -1.0144
   14SAPS   C26 1775   0.357   0.245   5.456  0.1537  0.1274  0.1211
   14SAPS   H6R 1776   0.251   0.222   5.471  0.1101  0.4028  0.2367
   14SAPS   C27 1777   0.424   0.306   5.579  0.1641  0.0189  0.2858
   14SAPS   H7R 1778   0.348   0.363   5.637 -2.0165 -2.8361  0.4765
   14SAPS   H7S 1779   0.492   0.384   5.539  0.3783 -0.0426  0.5277
   14SAPS   C28 1780   0.509   0.204   5.659 -0.6987  0.4262  0.3436
   14SAPS   H8R 1781   0.571   0.136   5.598  1.0768  0.8079  1.6319
   14SAPS   C29 1782   0.504   0.171   5.788  0.0083 -0.4666 -0.5735
   14SAPS   H9R 1783   0.582   0.113   5.839 -1.0084 -0.4739  1.0749
   14SAPS  C210 1784   0.414   0.246   5.887 -0.4781  0.8307 -0.2402
   14SAPS  H10R 1785   0.412   0.188   5.981 -1.4523  2.3323  0.7111
   14SAPS  H10S 1786   0.311   0.243   5.845 -0.8205 -0.0619  0.6369
   14SAPS  C211 1787   0.456   0.390   5.912  0.2348  0.4254 -0.4456
   14SAPS  H11R 1788   0.429   0.466   5.837 -0.6824 -0.6879 -1.2632
   14SAPS  C212 1789   0.540   0.416   6.010 -0.5732 -0.0787  0.2466
   14SAPS  H12R 1790   0.574   0.519   6.025  2.0096 -0.5341 -1.6929
   14SAPS  C213 1791   0.598   0.319   6.115  0.2493 -0.0474 -0.4329
   14SAPS  H13R 1792   0.679   0.263   6.063  2.2460  1.5716  0.8077
   14SAPS  H13S 1793   0.525   0.245   6.155  0.9950 -0.9157 -0.6202
   14SAPS  C214 1794   0.681   0.392   6.221 -0.3773  0.0771  0.8986
   14SAPS  H14R 1795   0.777   0.423   6.177 -1.3179 -0.7503 -1.9784
   14SAPS  C215 1796   0.658   0.409   6.352  0.1719 -0.6983  0.4967
   14SAPS  H15R 1797   0.735   0.458   6.411  0.7758 -0.9208 -0.0929
   14SAPS  C216 1798   0.530   0.361   6.432  0.4617 -0.9123  0.1476
   14SAPS  H16R 1799   0.442   0.376   6.366 -0.4100  1.6779  1.7389
   14SAPS  H16S 1800   0.514   0.425   6.521 -2.3151 -1.0366 -0.1925
   14SAPS  C217 1801   0.538   0.219   6.484 -0.5576 -0.2051  0.6535
   14SAPS  H17R 1802   0.609   0.213   6.569  0.2232 -0.9203 -0.0324
   14SAPS  H17S 1803   0.557   0.140   6.408 -0.2761 -2.4777  2.9379
   14SAPS  C218 1804   0.403   0.186   6.540 -0.2369 -0.3640 -0.1203
   14SAPS  H18R 1805   0.347   0.145   6.453  0.1909 -2.5438  0.5802
   14SAPS  H18S 1806   0.344   0.272   6.579 -0.4180 -0.8894  0.7815
   14SAPS  C219 1807   0.427   0.087   6.661 -0.4421  0.3528  0.6033
   14SAPS  H19R 1808   0.509   0.017   6.632 -1.7086 -0.1498 -2.0729
   14SAPS  H19S 1809   0.334   0.027   6.671 -0.0657  0.0950  3.1130
   14SAPS  C220 1810   0.454   0.160   6.793  0.1004  0.3209 -0.4965
   14SAPS  H20R 1811   0.499   0.094   6.870  0.4454 -0.3520 -1.2482
   14SAPS  H20S 1812   0.354   0.192   6.829 -0.5212 -0.3534 -1.5582
   14SAPS  H20T 1813   0.513   0.253   6.783 -1.4397  1.6430  1.8476
   14SAPS   C33 1814   0.035   0.909   4.962  0.1207  0.6984  0.0396
   14SAPS   H3X 1815   0.010   0.952   4.863  1.1257 -0.0288 -0.5577
   14SAPS   H3Y 1816   0.138   0.947   4.978 -0.0191  1.3769 -0.6300
   14SAPS   C34 1817  -0.071   0.956   5.069  0.6630 -0.1566 -0.4519
   14SAPS   H4X 1818  -0.168   0.903   5.057  0.1165  0.9776 -1.2686
   14SAPS   H4Y 1819  -0.105   1.060   5.053  2.0795  0.2724 -0.7958
   14SAPS   C35 1820  -0.024   0.934   5.212 -0.7395 -0.2782 -0.6563
   14SAPS   H5X 1821   0.057   1.006   5.236  1.4418 -2.7202 -0.1888
   14SAPS   H5Y 1822   0.027   0.835   5.208  0.8337  0.5092 -0.8403
   14SAPS   C36 1823  -0.137   0.932   5.316 -0.1441 -0.3677  0.5865
   14SAPS   H6X 1824  -0.216   0.865   5.275  0.4261 -0.0438 -1.1135
   14SAPS   H6Y 1825  -0.192   1.028   5.311  0.7678  0.1091 -0.6825
   14SAPS   C37 1826  -0.081   0.890   5.458 -0.5421 -0.6150 -0.1946
   14SAPS   H7X 1827  -0.054   0.784   5.478  1.4947 -1.0183 -4.0403
   14SAPS   H7Y 1828  -0.168   0.897   5.526 -1.5922  0.4147 -1.5808
   14SAPS   C38 1829   0.025   0.990   5.511  0.4870 -0.1582  0.1974
   14SAPS   H8X 1830  -0.004   1.096   5.499  0.1897 -0.2824 -0.1686
   14SAPS   H8Y 1831   0.124   0.974   5.463 -0.0198  2.6367 -2.0448
   14SAPS   C39 1832   0.048   0.975   5.664 -0.6346 -0.0759 -0.0165
   14SAPS   H9X 1833   0.101   0.881   5.688 -1.0070 -0.0115  1.1165
   14SAPS   H9Y 1834  -0.042   0.980   5.729  0.9850 -0.3235  2.3595
   14SAPS  C310 1835   0.133   1.082   5.733 -0.1560 -0.0896  1.0524
   14SAPS  H10X 1836   0.093   1.183   5.707  1.5258  0.3771  0.1172
   14SAPS  H10Y 1837   0.234   1.080   5.685  0.0803 -1.3973  1.5628
   14SAPS  C311 1838   0.147   1.078   5.890 -0.0339 -0.8003 -0.1108
   14SAPS  H11X 1839   0.045   1.058   5.929  0.0540  0.6324  0.9376
   14SAPS  H11Y 1840   0.178   1.176   5.933  0.5709  0.2400 -2.7325
   14SAPS  C312 1841   0.242   0.970   5.945 -0.5321 -0.1035 -0.2436
   14SAPS  H12X 1842   0.302   0.914   5.871 -0.7301  1.2216 -1.4627
   14SAPS  H12Y 1843   0.181   0.886   5.984  2.6036 -2.0141  0.9663
   14SAPS  C313 1844   0.320   1.021   6.062 -0.5885  0.3148 -0.1335
   14SAPS  H13X 1845   0.259   1.052   6.149 -0.7106  1.5546 -0.6372
   14SAPS  H13Y 1846   0.395   1.098   6.035  0.8776 -1.0591 -0.1465
   14SAPS  C314 1847   0.404   0.896   6.107  0.3646  0.4970 -0.5114
   14SAPS  H14X 1848   0.442   0.843   6.016  1.5110 -2.0044  1.3068
   14SAPS  H14Y 1849   0.348   0.821   6.167 -1.0090 -0.1205 -2.4331
   14SAPS  C315 1850   0.526   0.935   6.200  0.0032  0.0559  0.3696
   14SAPS  H15X 1851   0.474   0.978   6.288  2.8775  1.5343  1.4676
   14SAPS  H15Y 1852   0.580   1.015   6.146 -0.7115 -1.5072 -2.9885
   14SAPS  C316 1853   0.627   0.823   6.228  0.3173 -0.1155  0.1784
   14SAPS  H16X 1854   0.669   0.770   6.140  1.4850 -0.7956  1.1124
   14SAPS  H16Y 1855   0.574   0.747   6.289  3.2936 -1.4696  1.2616
   14SAPS  C317 1856   0.734   0.875   6.321  0.7842 -0.1145  0.2317
   14SAPS  H17X 1857   0.689   0.958   6.380 -1.1125 -1.2061  0.4130
   14SAPS  H17Y 1858   0.823   0.912   6.266  0.8106  1.3548  1.2013
   14SAPS  C318 1859   0.780   0.774   6.427 -0.3466 -0.2242  0.1042
   14SAPS  H18X 1860   0.865   0.714   6.388 -0.4272 -1.3364  1.5594
   14SAPS  H18Y 1861   0.695   0.713   6.461 -0.5162 -0.6690 -1.0618
   14SAPS  H18Z 1862   0.821   0.828   6.515  0.4905 -1.2892  0.3928
   15SAPS     N 1863   0.109   0.104   3.987  0.8069  0.2726  0.1503
   15SAPS   HN1 1864   0.093   0.121   3.886 -1.0878 -1.0949  0.1579
   15SAPS   HN2 1865   0.122   0.195   4.037 -0.0718  0.5029 -0.0131
   15SAPS   HN3 1866   0.200   0.056   3.996  1.0879  0.2482 -2.2501
   15SAPS   C12 1867  -0.005   0.030   4.049  0.1640 -0.2541  0.0779
   15SAPS  H12A 1868  -0.099   0.076   4.024 -1.0007 -3.2329 -1.5068
   15SAPS   C13 1869  -0.023  -0.122   4.005  0.1648  0.2494 -0.3783
   15SAPS  O13A 1870   0.033  -0.166   3.897  0.2378 -0.5381 -0.3388
   15SAPS  O13B 1871  -0.127  -0.181   4.053  0.1895  0.7622  0.2657
   15SAPS   C11 1872  -0.004   0.036   4.206 -0.6621  0.2644  0.3774
   15SAPS  H11A 1873   0.094  -0.002   4.241 -0.2803  0.7006 -0.1979
   15SAPS  H11B 1874  -0.080  -0.035   4.245 -0.3267  0.4876  1.4674
   15SAPS     P 1875  -0.174   0.215   4.281  0.0326  0.1687  0.7650
   15SAPS   O13 1876  -0.168   0.359   4.299  0.5402  0.3783  0.2778
   15SAPS   O14 1877  -0.265   0.152   4.185  0.0150  0.0160  0.6940
   15SAPS   O12 1878  -0.024   0.169   4.254 -0.0340  0.4338 -0.1093
   15SAPS   O11 1879  -0.201   0.144   4.422 -0.1105  0.5611  0.0207
   15SAPS    C1 1880  -0.105   0.155   4.531  0.3127 -0.3045  0.1419
   15SAPS    HA 1881  -0.005   0.121   4.496 -0.1612 -0.3581 -1.2186
   15SAPS    HB 1882  -0.093   0.260   4.566 -0.5538 -0.4162  0.8106
   15SAPS    C2 1883  -0.139   0.055   4.646  0.3119  0.3723 -0.7375
   15SAPS    HS 1884  -0.224   0.095   4.706  0.0225 -0.2335 -0.7402
   15SAPS   O21 1885  -0.036   0.036   4.741 -0.0638 -0.3849  0.1829
   15SAPS   C21 1886  -0.005   0.138   4.822  0.4206  0.0887  0.2711
   15SAPS   O22 1887  -0.072   0.241   4.823 -0.0225 -0.1993 -0.1912
   15SAPS   C22 1888   0.117   0.123   4.906 -0.5415 -0.1428  0.3719
   15SAPS   H2R 1889   0.184   0.039   4.878  0.8514  1.0424 -0.0061
   15SAPS   H2S 1890   0.171   0.218   4.886 -0.9739 -0.1477 -0.8848
   15SAPS    C3 1891  -0.190  -0.080   4.602 -0.2147  0.8967  0.8977
   15SAPS    HX 1892  -0.126  -0.124   4.523 -2.3625 -1.5560  0.3824
   15SAPS    HY 1893  -0.286  -0.060   4.550  0.6095  0.9393 -0.6629
   15SAPS   O31 1894  -0.212  -0.183   4.708 -0.0987 -0.1198 -0.1495
   15SAPS   C31 1895  -0.120  -0.281   4.718 -0.2096  0.3778 -0.2330
   15SAPS   O32 1896  -0.016  -0.294   4.651  0.5848  0.6979  0.4621
   15SAPS   C32 1897  -0.173  -0.378   4.825 -0.5631 -0.6806  0.2853
   15SAPS   H2X 1898  -0.229  -0.453   4.766 -0.3585  0.1435 -1.0043
   15SAPS   H2Y 1899  -0.233  -0.327   4.903  1.6408  2.9958 -0.1765
   15SAPS   C23 1900   0.091   0.119   5.061  0.1780  0.6674 -0.3717
   15SAPS   H3R 1901   0.031   0.210   5.080 -0.9459 -0.3906  1.5289
   15SAPS   H3S 1902   0.182   0.131   5.124  1.0165  0.1243 -1.4553
   15SAPS   C24 1903   0.020  -0.015   5.102  0.2789  0.2220 -0.5660
   15SAPS   H4R 1904  -0.063  -0.033   5.031 -0.8532  2.1911  0.1975
   15SAPS   H4S 1905  -0.028  -0.010   5.202 -0.1127 -1.2991 -0.6468
   15SAPS   C25 1906   0.114  -0.139   5.100  0.1347 -0.8656  0.0582
   15SAPS   H5R 1907   0.144  -0.166   4.998 -1.7756 -1.1667 -0.4653
   15SAPS   C26 1908   0.159  -0.200   5.211  0.1147 -0.0861  0.2102
   15SAPS   H6R 1909   0.239  -0.274   5.196 -0.7695 -1.5919  2.5064
   15SAPS   C27 1910   0.125  -0.157   5.354  0.4774  0.0811  0.7843
   15SAPS   H7R 1911   0.058  -0.236   5.394  0.2223 -0.1037  0.0007
   15SAPS   H7S 1912   0.070  -0.061   5.364  0.2195  0.1181 -0.7814
   15SAPS   C28 1913   0.245  -0.150   5.439  0.2285 -0.6780  0.0349
   15SAPS   H8R 1914   0.336  -0.154   5.378 -0.9834 -2.0803 -1.7772
   15SAPS   C29 1915   0.254  -0.159   5.575  0.1008  0.3115 -0.5105
   15SAPS   H9R 1916   0.353  -0.165   5.621  0.2359 -1.2609 -0.9440
   15SAPS  C210 1917   0.130  -0.149   5.670  0.1713 -0.3857  0.2796
   15SAPS  H10R 1918   0.132  -0.226   5.749 -0.1955  0.2733  0.9385
   15SAPS  H10S 1919   0.038  -0.178   5.615 -0.8718  1.5649  0.9143
   15SAPS  C211 1920   0.116  -0.003   5.708 -0.3315  0.4233 -0.6325
   15SAPS  H11R 1921   0.120   0.074   5.630  0.2387  0.1846 -0.8483
   15SAPS  C212 1922   0.108   0.041   5.836 -0.0643  0.0364  0.1794
   15SAPS  H12R 1923   0.102   0.150   5.852 -2.0837 -0.1709  1.1897
   15SAPS  C213 1924   0.073  -0.036   5.957 -0.9501 -0.5832 -0.5498
   15SAPS  H13R 1925   0.098  -0.143   5.944 -1.4884 -0.5637 -1.9558
   15SAPS  H13S 1926  -0.036  -0.044   5.976 -0.9837 -0.9980 -0.8946
   15SAPS  C214 1927   0.134   0.011   6.085  0.4303 -0.0416  0.0307
   15SAPS  H14R 1928   0.216  -0.054   6.119  1.3282  1.5340  0.9791
   15SAPS  C215 1929   0.098   0.117   6.159  0.8168  0.5195 -0.1228
   15SAPS  H15R 1930   0.158   0.136   6.249 -0.1452 -0.1831  0.6839
   15SAPS  C216 1931  -0.011   0.219   6.122 -0.2057  0.3533 -0.6499
   15SAPS  H16R 1932  -0.072   0.235   6.214  2.3791  1.0961  1.0366
   15SAPS  H16S 1933  -0.063   0.184   6.030 -0.7043 -0.3033 -0.1348
   15SAPS  C217 1934   0.061   0.353   6.095  0.5372  0.5020 -0.4444
   15SAPS  H17R 1935   0.147   0.328   6.028  2.0035  0.1695  1.4616
   15SAPS  H17S 1936   0.097   0.391   6.192  2.2988  0.0835 -0.8835
   15SAPS  C218 1937  -0.027   0.450   6.025 -0.3466 -0.1795  0.1996
   15SAPS  H18R 1938  -0.117   0.475   6.085  0.4144 -0.0091  1.3131
   15SAPS  H18S 1939  -0.067   0.401   5.934  0.9362  1.0969 -1.1114
   15SAPS  C219 1940   0.047   0.574   5.975 -0.5046 -0.0388  0.5302
   15SAPS  H19R 1941   0.129   0.533   5.912  1.6203  2.2244  1.6565
   15SAPS  H19S 1942   0.101   0.620   6.060  0.2333 -1.6050  0.9461
   15SAPS  C220 1943  -0.016   0.690   5.904  0.4843 -0.0821 -1.2991
   15SAPS  H20R 1944  -0.078   0.754   5.972  0.1590 -0.0552 -1.6150
   15SAPS  H20S 1945  -0.078   0.663   5.816  0.1680  0.0568 -1.1222
   15SAPS  H20T 1946   0.056   0.764   5.862 -3.6259  3.6965 -2.4963
   15SAPS   C33 1947  -0.049  -0.446   4.885 -0.5298  0.9957 -0.5658
   15SAPS   H3X 1948   0.029  -0.378   4.926  0.6168  0.0505 -1.1217
   15SAPS   H3Y 1949   0.009  -0.497   4.806 -0.9397  0.0365 -0.2665
   15SAPS   C34 1950  -0.089  -0.540   5.005 -0.4562 -0.0809 -0.0278
   15SAPS   H4X 1951  -0.013  -0.614   5.037 -2.1904 -0.5376  3.5950
   15SAPS   H4Y 1952  -0.171  -0.604   4.965 -1.8404  0.4606  1.8264
   15SAPS   C35 1953  -0.125  -0.471   5.138  0.2089  0.4880  0.3239
   15SAPS   H5X 1954  -0.203  -0.391   5.136 -0.6915 -0.3154  1.6009
   15SAPS   H5Y 1955  -0.039  -0.419   5.185  1.8418 -0.9088 -1.0152
   15SAPS   C36 1956  -0.159  -0.581   5.240 -0.2907  0.2630  0.1281
   15SAPS   H6X 1957  -0.077  -0.657   5.239 -0.4870 -0.0255  2.2716
   15SAPS   H6Y 1958  -0.253  -0.633   5.211  1.0135 -3.1560  1.4347
   15SAPS   C37 1959  -0.174  -0.525   5.384 -0.0850 -0.3935  1.0731
   15SAPS   H7X 1960  -0.274  -0.547   5.427 -1.3958 -0.0300 -1.6252
   15SAPS   H7Y 1961  -0.186  -0.415   5.372  0.2435 -0.3189  1.4181
   15SAPS   C38 1962  -0.062  -0.573   5.485  0.2350  0.4132  0.1776
   15SAPS   H8X 1963   0.035  -0.590   5.433 -0.0414 -1.3033  0.1702
   15SAPS   H8Y 1964  -0.095  -0.676   5.511  1.8406 -0.0997  0.2900
   15SAPS   C39 1965  -0.036  -0.489   5.621 -0.8295 -0.3066  0.5032
   15SAPS   H9X 1966   0.024  -0.403   5.584  0.0827 -1.8859 -2.0397
   15SAPS   H9Y 1967   0.032  -0.552   5.682 -0.3358 -0.3416 -0.0673
   15SAPS  C310 1968  -0.169  -0.447   5.687 -0.1686 -0.6118 -0.1539
   15SAPS  H10X 1969  -0.226  -0.540   5.709  0.7626 -1.3169 -0.6225
   15SAPS  H10Y 1970  -0.223  -0.380   5.616 -0.7883  0.1163  0.9796
   15SAPS  C311 1971  -0.151  -0.379   5.828  0.0544 -0.2362  0.2945
   15SAPS  H11X 1972  -0.087  -0.289   5.813  0.5438 -0.8300 -1.4639
   15SAPS  H11Y 1973  -0.087  -0.451   5.885 -0.1320 -1.0000 -0.4278
   15SAPS  C312 1974  -0.284  -0.355   5.898 -0.0894  0.3105  1.1406
   15SAPS  H12X 1975  -0.340  -0.449   5.917 -0.7982  0.9653  2.4400
   15SAPS  H12Y 1976  -0.355  -0.301   5.832 -0.0123 -1.4389 -0.4725
   15SAPS  C313 1977  -0.288  -0.279   6.030  0.1574 -0.8325 -0.6712
   15SAPS  H13X 1978  -0.388  -0.251   6.070  1.7461 -1.0459  4.1817
   15SAPS  H13Y 1979  -0.237  -0.183   6.006 -2.0581  0.6797  0.3443
   15SAPS  C314 1980  -0.212  -0.340   6.150 -0.4819  0.0621 -0.5438
   15SAPS  H14X 1981  -0.106  -0.349   6.118 -0.6385 -0.3123 -0.9719
   15SAPS  H14Y 1982  -0.246  -0.443   6.174  0.3633 -0.5411 -1.8420
   15SAPS  C315 1983  -0.226  -0.249   6.270 -0.5060  0.0460  0.4313
   15SAPS  H15X 1984  -0.330  -0.223   6.300 -0.8733 -0.6876 -0.1515
   15SAPS  H15Y 1985  -0.178  -0.149   6.264  2.2647 -1.1845  0.3770
   15SAPS  C316 1986  -0.185  -0.313   6.401 -0.5076  0.7151  0.4093
   15SAPS  H16X 1987  -0.205  -0.422   6.396 -0.6737  0.7654 -0.1212
   15SAPS  H16Y 1988  -0.251  -0.279   6.484 -0.5433  0.3750  0.5214
   15SAPS  C317 1989  -0.031  -0.299   6.427 -0.1958  0.5418 -0.1966
   15SAPS  H17X 1990   0.003  -0.193   6.423  1.5058  0.0525  0.7063
   15SAPS  H17Y 1991   0.019  -0.340   6.337  2.2255  0.5114  1.0739
   15SAPS  C318 1992   0.018  -0.375   6.547 -0.7188 -0.2860  0.0105
   15SAPS  H18X 1993   0.129  -0.366   6.553 -0.7117 -0.3641 -0.0039
   15SAPS  H18Y 1994   0.008  -0.485   6.547  1.0478 -0.4934 -1.6299
   15SAPS  H18Z 1995  -0.015  -0.333   6.644 -0.6106  1.1737 -0.5444
   16SAPS     N 1996   4.535   6.858   4.196  0.1166 -0.1207  0.2516
   16SAPS   HN1 1997   4.537   6.893   4.294 -0.0085 -0.7820  0.4918
   16SAPS   HN2 1998   4.578   6.764   4.203  0.5624  0.1145  0.7124
   16SAPS   HN3 1999   4.593   6.916   4.132  0.5385  1.2670  1.8149
   16SAPS   C12 2000   4.396   6.859   4.147  0.6827 -0.4758  0.2524
   16SAPS  H12A 2001   4.358   6.957   4.170  3.4099  1.1085 -1.5106
   16SAPS   C13 2002   4.384   6.827   4.000 -0.5338  0.4855  0.0624
   16SAPS  O13A 2003   4.486   6.837   3.925 -0.5411 -0.5872 -0.8571
   16SAPS  O13B 2004   4.266   6.834   3.952 -0.8892 -0.1293  0.2205
   16SAPS   C11 2005   4.314   6.743   4.218  0.5826  0.3300 -0.5481
   16SAPS  H11A 2006   4.208   6.744   4.186 -0.0201  0.3965  1.3139
   16SAPS  H11B 2007   4.304   6.769   4.326 -3.7096  2.9105 -1.3253
   16SAPS     P 2008   4.306   6.470   4.197 -0.4067 -0.0940 -0.3132
   16SAPS   O13 2009   4.182   6.487   4.117  0.2610 -0.5498 -0.6411
   16SAPS   O14 2010   4.396   6.367   4.149  0.4831 -0.0821 -0.2510
   16SAPS   O12 2011   4.382   6.615   4.209  0.0836 -0.2375  0.3983
   16SAPS   O11 2012   4.261   6.433   4.346 -0.0047  0.3396  0.2794
   16SAPS    C1 2013   4.354   6.413   4.453  0.2359 -0.0685 -0.3346
   16SAPS    HA 2014   4.352   6.307   4.485 -2.9015  0.1787  0.5736
   16SAPS    HB 2015   4.460   6.436   4.426  0.1682  0.3129 -0.2827
   16SAPS    C2 2016   4.317   6.482   4.584  0.2823 -0.6384 -0.6734
   16SAPS    HS 2017   4.381   6.451   4.669 -1.1334  1.1311  1.1304
   16SAPS   O21 2018   4.178   6.462   4.614  0.5368  0.3875 -0.0090
   16SAPS   C21 2019   4.135   6.348   4.656 -0.1827 -0.3135 -0.5355
   16SAPS   O22 2020   4.196   6.246   4.680 -0.0975  0.6345  0.1682
   16SAPS   C22 2021   3.984   6.351   4.666  0.4098  0.3907 -0.4711
   16SAPS   H2R 2022   3.946   6.384   4.566  0.7590  2.1019 -0.0685
   16SAPS   H2S 2023   3.951   6.248   4.688  1.2679  0.0240 -0.8422
   16SAPS    C3 2024   4.340   6.636   4.577  0.0946  0.2767 -0.2767
   16SAPS    HX 2025   4.271   6.671   4.498 -1.4598 -1.7538  0.1111
   16SAPS    HY 2026   4.443   6.659   4.542 -0.1347  0.8384 -0.5993
   16SAPS   O31 2027   4.314   6.698   4.709  0.4585  0.1080 -0.2142
   16SAPS   C31 2028   4.283   6.826   4.701  0.1393  0.4295  0.0507
   16SAPS   O32 2029   4.266   6.885   4.596 -0.0185 -0.6807  0.0903
   16SAPS   C32 2030   4.270   6.882   4.840 -1.0616  0.2765 -0.2853
   16SAPS   H2X 2031   4.192   6.961   4.836  0.1857  1.6266  0.7643
   16SAPS   H2Y 2032   4.364   6.937   4.863 -1.5824  1.0296  0.0850
   16SAPS   C23 2033   3.934   6.451   4.761  0.7221  0.3325 -0.1702
   16SAPS   H3R 2034   3.823   6.442   4.768  0.6053  0.5843 -1.3947
   16SAPS   H3S 2035   3.949   6.553   4.718 -1.8194  0.7950 -0.1055
   16SAPS   C24 2036   3.987   6.459   4.906  0.1558 -0.4550  0.1087
   16SAPS   H4R 2037   4.093   6.492   4.909  0.2408 -0.7446  0.3711
   16SAPS   H4S 2038   3.982   6.354   4.941  2.5831 -1.1009 -1.2709
   16SAPS   C25 2039   3.900   6.553   4.997  0.0281 -0.1024  0.2716
   16SAPS   H5R 2040   3.912   6.661   4.981 -0.8530  0.1424  1.1712
   16SAPS   C26 2041   3.817   6.527   5.091 -0.4083  0.7577 -0.0705
   16SAPS   H6R 2042   3.762   6.604   5.147 -0.8243  0.9952 -0.7943
   16SAPS   C27 2043   3.796   6.393   5.149 -0.5890  0.2410 -0.0203
   16SAPS   H7R 2044   3.886   6.364   5.208 -1.2013 -0.9227  0.3623
   16SAPS   H7S 2045   3.805   6.317   5.068 -1.4893 -1.2201  1.2115
   16SAPS   C28 2046   3.653   6.377   5.203 -1.1691  0.0572 -1.2804
   16SAPS   H8R 2047   3.570   6.421   5.146 -3.4490 -1.4724  0.6505
   16SAPS   C29 2048   3.606   6.297   5.304  0.0796  0.5310 -0.5871
   16SAPS   H9R 2049   3.498   6.305   5.323  0.4806  1.2481  1.7444
   16SAPS  C210 2050   3.700   6.219   5.393  0.5777  0.6343 -0.6046
   16SAPS  H10R 2051   3.785   6.183   5.331  0.7489  1.9367 -1.1661
   16SAPS  H10S 2052   3.649   6.130   5.435  3.0444 -0.1605  0.8699
   16SAPS  C211 2053   3.755   6.306   5.507  0.1960  0.1041  0.6204
   16SAPS  H11R 2054   3.728   6.411   5.491 -2.0865 -0.3222  1.3560
   16SAPS  C212 2055   3.799   6.264   5.630 -0.0593  0.7680  0.2028
   16SAPS  H12R 2056   3.834   6.335   5.707  1.8911 -0.9539  1.0021
   16SAPS  C213 2057   3.809   6.125   5.674 -0.0965  0.9144 -0.2592
   16SAPS  H13R 2058   3.916   6.094   5.674 -0.7773 -1.6810  0.7988
   16SAPS  H13S 2059   3.768   6.055   5.599  0.1286  0.1134  0.3511
   16SAPS  C214 2060   3.760   6.093   5.812 -0.2372  0.5511  0.5090
   16SAPS  H14R 2061   3.655   6.061   5.812  0.1651 -0.8063  0.8467
   16SAPS  C215 2062   3.840   6.082   5.920 -0.4108  0.3738 -0.3999
   16SAPS  H15R 2063   3.784   6.062   6.012 -0.3840  0.6898 -0.3113
   16SAPS  C216 2064   3.985   6.127   5.936  0.7550 -0.3581  0.0042
   16SAPS  H16R 2065   4.033   6.169   5.844  5.2222 -0.5020  2.0212
   16SAPS  H16S 2066   4.057   6.047   5.962  0.3750 -0.1164  1.8818
   16SAPS  C217 2067   4.001   6.248   6.031 -0.3444  0.2790  0.1684
   16SAPS  H17R 2068   3.970   6.212   6.132 -2.1089 -1.0201 -0.7817
   16SAPS  H17S 2069   3.946   6.337   5.994 -0.4898 -1.3633 -4.1786
   16SAPS  C218 2070   4.143   6.304   6.054  0.2677 -0.6400 -0.2806
   16SAPS  H18R 2071   4.144   6.396   6.117  0.2198 -1.1814  0.5387
   16SAPS  H18S 2072   4.188   6.325   5.955 -1.3815  0.3259 -0.8436
   16SAPS  C219 2073   4.226   6.199   6.126  0.4441  0.5579 -0.9748
   16SAPS  H19R 2074   4.228   6.108   6.062 -1.1131  0.1821 -0.5348
   16SAPS  H19S 2075   4.187   6.165   6.225  1.6377  1.0954 -0.2946
   16SAPS  C220 2076   4.365   6.244   6.154 -0.7956  0.1626 -0.1938
   16SAPS  H20R 2077   4.358   6.321   6.234 -0.9872 -0.3238  0.2727
   16SAPS  H20S 2078   4.406   6.291   6.063  0.6331  0.5971  0.6482
   16SAPS  H20T 2079   4.434   6.161   6.182  1.2812  1.3330 -1.6388
   16SAPS   C33 2080   4.240   6.782   4.948  0.7214  0.7120  0.4046
   16SAPS   H3X 2081   4.336   6.730   4.970  0.8493 -0.2026 -2.0050
   16SAPS   H3Y 2082   4.170   6.700   4.920  2.7119 -0.3544 -1.7288
   16SAPS   C34 2083   4.184   6.843   5.076  0.6739 -0.3509 -0.7478
   16SAPS   H4X 2084   4.145   6.760   5.138  0.4760 -0.7436 -1.3918
   16SAPS   H4Y 2085   4.104   6.918   5.059  0.3221 -0.5676 -0.0556
   16SAPS   C35 2086   4.305   6.916   5.139  0.1888  0.3943  0.3171
   16SAPS   H5X 2087   4.336   7.003   5.078  1.0802  1.0117  1.6113
   16SAPS   H5Y 2088   4.392   6.848   5.148 -0.3570 -0.1865  1.4709
   16SAPS   C36 2089   4.272   6.955   5.286  0.0339 -0.8852 -0.0464
   16SAPS   H6X 2090   4.235   6.866   5.342 -1.3746  0.4199  1.2057
   16SAPS   H6Y 2091   4.195   7.035   5.290  2.0432  1.1525  2.7763
   16SAPS   C37 2092   4.394   7.016   5.354 -0.0942 -0.3108  0.3577
   16SAPS   H7X 2093   4.387   7.123   5.322 -0.9660  0.1183  1.8803
   16SAPS   H7Y 2094   4.488   6.964   5.327 -0.3821 -0.4110 -0.4878
   16SAPS   C38 2095   4.389   7.020   5.509 -0.2414 -0.1939  0.1358
   16SAPS   H8X 2096   4.418   6.923   5.555 -1.3504 -0.0475  1.1967
   16SAPS   H8Y 2097   4.284   7.043   5.539  0.3973  3.0018  0.2141
   16SAPS   C39 2098   4.470   7.131   5.564 -0.4338 -0.1424 -0.1531
   16SAPS   H9X 2099   4.427   7.173   5.657 -0.2369  1.3550 -0.7078
   16SAPS   H9Y 2100   4.480   7.220   5.499 -1.1058  0.1494  0.1378
   16SAPS  C310 2101   4.609   7.076   5.601  0.1373 -0.0881  0.1385
   16SAPS  H10X 2102   4.652   7.050   5.502  0.5116 -2.9262  0.9717
   16SAPS  H10Y 2103   4.606   6.979   5.655  2.3315 -1.5501 -2.1406
   16SAPS  C311 2104   4.695   7.167   5.697 -0.1266 -0.0241  0.2617
   16SAPS  H11X 2105   4.695   7.265   5.645 -1.3823  0.1163  0.4868
   16SAPS  H11Y 2106   4.800   7.133   5.698  0.1429  0.6759 -1.1195
   16SAPS  C312 2107   4.648   7.180   5.842  0.5788  0.4325 -0.6269
   16SAPS  H12X 2108   4.576   7.264   5.835 -0.4869 -0.2899  0.9895
   16SAPS  H12Y 2109   4.727   7.211   5.914  1.0277 -0.5117 -0.6959
   16SAPS  C313 2110   4.574   7.054   5.902  0.1146  0.2677 -0.5876
   16SAPS  H13X 2111   4.644   6.968   5.895 -1.3555 -1.2616  2.0111
   16SAPS  H13Y 2112   4.485   7.033   5.839 -0.7841  2.1498 -0.0018
   16SAPS  C314 2113   4.521   7.089   6.039  0.1358 -0.3037 -0.3842
   16SAPS  H14X 2114   4.446   7.170   6.023  0.0408 -0.4024 -0.4324
   16SAPS  H14Y 2115   4.601   7.121   6.109  1.6153 -4.6842  0.2199
   16SAPS  C315 2116   4.442   6.983   6.113 -0.6051  0.5895  0.3261
   16SAPS  H15X 2117   4.491   6.885   6.095 -0.8070  0.4736  0.3982
   16SAPS  H15Y 2118   4.343   6.974   6.063 -0.3353  1.5609 -0.4107
   16SAPS  C316 2119   4.429   6.999   6.262 -0.8978  0.5598 -0.4446
   16SAPS  H16X 2120   4.531   7.009   6.307 -0.2992 -1.3707 -1.3028
   16SAPS  H16Y 2121   4.372   6.908   6.291  2.7589 -2.0206 -0.6339
   16SAPS  C317 2122   4.351   7.123   6.294  0.5991  0.2270 -0.2779
   16SAPS  H17X 2123   4.260   7.131   6.231  0.7460  0.7670 -0.4321
   16SAPS  H17Y 2124   4.416   7.210   6.271  0.3278  1.0620  1.8395
   16SAPS  C318 2125   4.304   7.134   6.439 -0.2462 -0.2907  0.7493
   16SAPS  H18X 2126   4.259   7.233   6.462 -0.1960  0.6427 -2.5731
   16SAPS  H18Y 2127   4.389   7.115   6.509  1.5605  0.0147 -1.2592
   16SAPS  H18Z 2128   4.230   7.054   6.458  0.5219 -1.6264 -1.4902
   17SAPS     N 2129   5.858   0.340   4.152 -0.0411 -0.1206  0.3405
   17SAPS   HN1 2130   5.909   0.269   4.095 -0.6441 -1.7484  1.7633
   17SAPS   HN2 2131   5.905   0.433   4.151 -1.3302  0.6224  2.2664
   17SAPS   HN3 2132   5.841   0.316   4.252  2.0728 -0.6049  0.6367
   17SAPS   C12 2133   5.722   0.366   4.094  0.6360 -0.5239 -0.7926
   17SAPS  H12A 2134   5.742   0.418   4.002 -0.3262  1.6768  0.1652
   17SAPS   C13 2135   5.640   0.238   4.067 -0.2983 -0.7814 -0.1924
   17SAPS  O13A 2136   5.685   0.121   4.099  0.4100 -0.1857 -0.4991
   17SAPS  O13B 2137   5.516   0.259   4.037  0.0518 -0.2393  0.1526
   17SAPS   C11 2138   5.649   0.460   4.190  0.2518 -0.0331 -0.2247
   17SAPS  H11A 2139   5.620   0.406   4.283  0.8331 -1.2380 -0.7299
   17SAPS  H11B 2140   5.551   0.497   4.151  1.0662 -0.4644 -2.8305
   17SAPS     P 2141   5.677   0.721   4.238  0.2442 -0.0677  0.1146
   17SAPS   O13 2142   5.689   0.802   4.112  0.2721  0.4860 -0.1871
   17SAPS   O14 2143   5.546   0.719   4.312 -0.0805 -0.1039  0.2003
   17SAPS   O12 2144   5.728   0.571   4.210 -0.3429  0.0253  0.1555
   17SAPS   O11 2145   5.784   0.784   4.336 -0.8883  0.0076  1.0947
   17SAPS    C1 2146   5.842   0.711   4.442 -0.8667 -0.3885 -1.1973
   17SAPS    HA 2147   5.875   0.609   4.417  1.3909  0.6250 -2.6321
   17SAPS    HB 2148   5.939   0.758   4.468  0.2423 -1.6130 -2.9371
   17SAPS    C2 2149   5.752   0.704   4.572 -0.2995 -0.5779 -0.3015
   17SAPS    HS 2150   5.654   0.662   4.541 -0.8192  1.4781 -1.5922
   17SAPS   O21 2151   5.735   0.834   4.640 -0.1460  0.6493 -0.4863
   17SAPS   C21 2152   5.609   0.855   4.688  0.1557  0.5363  0.3192
   17SAPS   O22 2153   5.519   0.772   4.676 -0.0429 -0.1777 -0.3309
   17SAPS   C22 2154   5.605   0.983   4.779  0.0381 -0.1809  0.2088
   17SAPS   H2R 2155   5.665   1.058   4.722 -1.6647  0.8357 -0.3122
   17SAPS   H2S 2156   5.503   1.024   4.792  0.4937  1.7618 -1.6888
   17SAPS    C3 2157   5.806   0.579   4.672  0.1765  0.1535 -0.2229
   17SAPS    HX 2158   5.915   0.587   4.691 -0.1745  0.0131  2.1116
   17SAPS    HY 2159   5.794   0.499   4.596  0.7827  0.8721 -1.1045
   17SAPS   O31 2160   5.733   0.565   4.798  0.0061  0.5679 -0.0330
   17SAPS   C31 2161   5.622   0.494   4.785 -0.7879  0.1562 -0.0455
   17SAPS   O32 2162   5.572   0.466   4.675 -0.1506 -0.3946 -0.2414
   17SAPS   C32 2163   5.566   0.448   4.914 -0.7482 -0.5040 -0.0600
   17SAPS   H2X 2164   5.458   0.473   4.917 -1.0941 -1.9562  0.9793
   17SAPS   H2Y 2165   5.604   0.524   4.985  0.8401 -2.3911  1.2260
   17SAPS   C23 2166   5.662   0.952   4.918  0.4401 -0.2263  0.4126
   17SAPS   H3R 2167   5.676   1.047   4.973 -0.1463 -0.6170  1.2592
   17SAPS   H3S 2168   5.769   0.923   4.905  0.7507 -0.0953  2.3310
   17SAPS   C24 2169   5.577   0.852   4.992 -0.3324  0.6230 -0.7763
   17SAPS   H4R 2170   5.607   0.749   4.964  2.4292  1.3215 -0.6511
   17SAPS   H4S 2171   5.472   0.874   4.962 -1.8543 -0.3291  3.2541
   17SAPS   C25 2172   5.594   0.870   5.139  0.9147  0.8975 -0.6080
   17SAPS   H5R 2173   5.508   0.924   5.182  1.1598  1.4368 -0.7878
   17SAPS   C26 2174   5.684   0.821   5.225 -0.5119 -0.0212  0.2861
   17SAPS   H6R 2175   5.668   0.835   5.333  0.5237 -0.5015  0.5141
   17SAPS   C27 2176   5.812   0.747   5.198 -0.6001 -0.0857 -0.0505
   17SAPS   H7R 2177   5.820   0.721   5.090 -1.6407  2.8764 -0.9678
   17SAPS   H7S 2178   5.821   0.653   5.256  3.5612  0.3945  0.3751
   17SAPS   C28 2179   5.925   0.839   5.228  0.1959  0.3157 -0.2087
   17SAPS   H8R 2180   5.994   0.848   5.143  0.9854 -2.3814  0.0460
   17SAPS   C29 2181   5.971   0.871   5.350  0.3096 -0.1814  0.9173
   17SAPS   H9R 2182   6.053   0.944   5.344  0.0641  0.0356  0.0954
   17SAPS  C210 2183   5.910   0.839   5.484 -0.8665  0.4223  0.8308
   17SAPS  H10R 2184   5.878   0.734   5.467  0.2266  0.1631  0.2746
   17SAPS  H10S 2185   5.820   0.901   5.503 -1.5330 -0.1163 -0.4534
   17SAPS  C211 2186   6.013   0.825   5.594  0.0312 -0.0930  0.0048
   17SAPS  H11R 2187   6.119   0.809   5.570  0.7775 -0.3598  3.0676
   17SAPS  C212 2188   5.993   0.821   5.725 -0.2021 -0.4935 -0.2908
   17SAPS  H12R 2189   6.079   0.806   5.792  0.6846  2.4104 -0.6201
   17SAPS  C213 2190   5.858   0.848   5.795 -0.4703  1.1423  0.5827
   17SAPS  H13R 2191   5.841   0.768   5.870  1.0151  0.0320 -0.2105
   17SAPS  H13S 2192   5.778   0.843   5.719  1.1737  0.5512 -1.1962
   17SAPS  C214 2193   5.858   0.982   5.872 -0.3227  0.0785  0.4947
   17SAPS  H14R 2194   5.801   1.066   5.830 -0.9194  0.6418  2.3229
   17SAPS  C215 2195   5.883   0.999   6.006 -0.7021  0.1491 -0.4231
   17SAPS  H15R 2196   5.874   1.102   6.044  1.4503  1.4970 -3.1591
   17SAPS  C216 2197   5.955   0.898   6.095 -0.8895  0.0032 -0.4033
   17SAPS  H16R 2198   6.061   0.901   6.064 -1.0669 -1.1524 -1.1696
   17SAPS  H16S 2199   5.914   0.799   6.066  2.8658 -1.5025 -1.0862
   17SAPS  C217 2200   5.935   0.900   6.243  0.4510  0.5008 -0.4770
   17SAPS  H17R 2201   5.970   0.997   6.285  2.4182 -0.3857  0.0483
   17SAPS  H17S 2202   6.003   0.824   6.288  0.1951  0.4653 -0.1502
   17SAPS  C218 2203   5.791   0.862   6.283  0.5563 -0.0086  0.4344
   17SAPS  H18R 2204   5.779   0.753   6.265 -2.2575  0.2246  0.5091
   17SAPS  H18S 2205   5.715   0.917   6.225  0.7575 -0.9619 -0.7762
   17SAPS  C219 2206   5.750   0.891   6.428 -0.6833  0.2379 -0.0670
   17SAPS  H19R 2207   5.815   0.829   6.493  0.8593 -0.2277 -1.9614
   17SAPS  H19S 2208   5.645   0.862   6.450 -0.1953 -1.4194  0.1762
   17SAPS  C220 2209   5.774   1.039   6.468  0.4628 -0.6964 -0.2919
   17SAPS  H20R 2210   5.725   1.095   6.385 -0.0012  0.4652  0.7371
   17SAPS  H20S 2211   5.878   1.077   6.462  0.6670 -1.2512 -0.2885
   17SAPS  H20T 2212   5.720   1.058   6.563 -1.8489 -2.0292 -1.2514
   17SAPS   C33 2213   5.609   0.304   4.961 -0.2733  0.5718 -0.2776
   17SAPS   H3X 2214   5.714   0.290   4.928  0.0023 -0.1175  0.8373
   17SAPS   H3Y 2215   5.541   0.232   4.911  0.4059  0.0792 -0.5077
   17SAPS   C34 2216   5.585   0.282   5.108 -0.3557 -0.3764 -0.0917
   17SAPS   H4X 2217   5.598   0.175   5.135 -0.1577 -0.4048 -0.2967
   17SAPS   H4Y 2218   5.478   0.300   5.133 -0.5976 -0.3912 -1.0869
   17SAPS   C35 2219   5.668   0.382   5.199 -0.1431  0.4770  0.0601
   17SAPS   H5X 2220   5.658   0.489   5.170  2.5205  1.4455  2.2462
   17SAPS   H5Y 2221   5.775   0.354   5.183 -0.7497 -1.1074 -1.5444
   17SAPS   C36 2222   5.630   0.365   5.346 -0.3593 -0.1888  0.0471
   17SAPS   H6X 2223   5.622   0.261   5.385 -1.4978  0.0330  0.4284
   17SAPS   H6Y 2224   5.531   0.415   5.348 -0.1780  0.2096 -0.6576
   17SAPS   C37 2225   5.723   0.438   5.441  0.2586 -0.2462  0.0524
   17SAPS   H7X 2226   5.681   0.411   5.540  0.8500  1.0324  0.6660
   17SAPS   H7Y 2227   5.708   0.548   5.442 -2.0039 -0.4927  1.2539
   17SAPS   C38 2228   5.865   0.412   5.428  0.1527  0.4764 -0.4862
   17SAPS   H8X 2229   5.907   0.488   5.358 -1.2627  1.8067  0.0702
   17SAPS   H8Y 2230   5.878   0.313   5.378 -2.3284 -0.9203  1.4383
   17SAPS   C39 2231   5.927   0.412   5.568 -1.0719 -0.5912  0.4486
   17SAPS   H9X 2232   5.899   0.323   5.628 -1.2911 -0.9057 -0.1122
   17SAPS   H9Y 2233   5.888   0.502   5.621 -0.1165 -0.4684  0.9699
   17SAPS  C310 2234   6.082   0.429   5.562 -0.5469  0.0288 -0.0098
   17SAPS  H10X 2235   6.090   0.503   5.479 -1.3173 -0.6645 -0.7275
   17SAPS  H10Y 2236   6.131   0.332   5.538 -2.2333 -1.1438  0.9816
   17SAPS  C311 2237   6.137   0.500   5.685  0.8190 -0.2230 -0.3323
   17SAPS  H11X 2238   6.061   0.486   5.765  2.1813  1.0337  1.2537
   17SAPS  H11Y 2239   6.154   0.608   5.663 -2.3814  0.1414 -1.6234
   17SAPS  C312 2240   6.268   0.427   5.734 -0.1643 -0.2011 -0.1438
   17SAPS  H12X 2241   6.349   0.467   5.669  0.1924 -0.6847 -0.0044
   17SAPS  H12Y 2242   6.264   0.316   5.737 -3.2875 -0.1692  2.6897
   17SAPS  C313 2243   6.293   0.453   5.887  0.0216  0.7788  0.7879
   17SAPS  H13X 2244   6.193   0.435   5.931 -0.6679  1.0435 -0.6192
   17SAPS  H13Y 2245   6.301   0.563   5.895 -2.8955  1.0888  0.4053
   17SAPS  C314 2246   6.414   0.385   5.959 -0.3134 -0.0442 -0.2516
   17SAPS  H14X 2247   6.511   0.404   5.908 -0.9537  0.2316 -1.4039
   17SAPS  H14Y 2248   6.394   0.275   5.962  1.8939 -0.4875 -0.1476
   17SAPS  C315 2249   6.424   0.439   6.100 -0.1197  0.6927 -0.1937
   17SAPS  H15X 2250   6.433   0.547   6.077  2.8072  0.2961 -1.4350
   17SAPS  H15Y 2251   6.512   0.390   6.147 -1.5081 -1.1341  0.6298
   17SAPS  C316 2252   6.309   0.404   6.200 -0.2648 -0.8275  0.4572
   17SAPS  H16X 2253   6.312   0.295   6.218 -0.4823 -0.7525  0.9575
   17SAPS  H16Y 2254   6.215   0.421   6.143 -1.1151 -4.1285  0.6913
   17SAPS  C317 2255   6.317   0.501   6.316  0.3925  1.0140  0.0229
   17SAPS  H17X 2256   6.232   0.479   6.383  2.4247 -0.9416  2.1330
   17SAPS  H17Y 2257   6.294   0.606   6.285  0.5245  1.1942  0.5345
   17SAPS  C318 2258   6.455   0.514   6.396  0.4398 -0.0170  0.5456
   17SAPS  H18X 2259   6.541   0.539   6.331  1.6798 -0.0227  2.1050
   17SAPS  H18Y 2260   6.474   0.417   6.448 -1.0190 -1.2344 -1.0544
   17SAPS  H18Z 2261   6.445   0.595   6.472 -2.2939 -0.6489  0.9624
   18SAPS     N 2262   3.672   5.059   4.431  0.2069 -0.1885 -0.2612
   18SAPS   HN1 2263   3.640   4.974   4.483  0.1747 -0.0245 -0.0122
   18SAPS   HN2 2264   3.772   5.074   4.453  0.3512  0.2495 -1.2024
   18SAPS   HN3 2265   3.615   5.143   4.452  0.8263  0.6831 -1.9584
   18SAPS   C12 2266   3.646   5.033   4.285  0.2149 -0.9998  0.1682
   18SAPS  H12A 2267   3.540   5.031   4.268  0.2156 -1.9461  0.2487
   18SAPS   C13 2268   3.732   5.123   4.187  0.3106 -0.3162  0.5881
   18SAPS  O13A 2269   3.802   5.211   4.239  0.1776  0.3266  0.3075
   18SAPS  O13B 2270   3.705   5.131   4.062  0.8334  0.2995  0.2551
   18SAPS   C11 2271   3.684   4.883   4.269 -0.2717 -0.1133 -0.3228
   18SAPS  H11A 2272   3.794   4.869   4.275  0.2187  2.5692 -1.2956
   18SAPS  H11B 2273   3.670   4.874   4.159  0.2818  3.9201 -0.8841
   18SAPS     P 2274   3.647   4.632   4.333  0.0745  0.2128 -0.1896
   18SAPS   O13 2275   3.527   4.545   4.352 -0.1969  0.1856 -0.1167
   18SAPS   O14 2276   3.734   4.609   4.218 -0.3535 -0.6853  0.3731
   18SAPS   O12 2277   3.605   4.782   4.339 -0.2726 -0.5445 -0.0014
   18SAPS   O11 2278   3.738   4.607   4.459 -0.5723  0.3040 -0.0441
   18SAPS    C1 2279   3.725   4.688   4.573  0.4874  0.2745  0.3972
   18SAPS    HA 2280   3.821   4.694   4.628 -0.7603  0.3802  2.6878
   18SAPS    HB 2281   3.708   4.792   4.537 -0.0268 -0.3391 -1.2284
   18SAPS    C2 2282   3.611   4.644   4.666  0.4256 -0.2703  0.0345
   18SAPS    HS 2283   3.508   4.652   4.626 -0.7005 -0.1487  2.7290
   18SAPS   O21 2284   3.619   4.716   4.790  0.0125 -0.0026  0.0909
   18SAPS   C21 2285   3.575   4.838   4.790 -0.1759 -0.0929  0.6403
   18SAPS   O22 2286   3.523   4.889   4.695  0.5848 -0.0308  0.2097
   18SAPS   C22 2287   3.592   4.904   4.931  0.1315  0.3729  0.4348
   18SAPS   H2R 2288   3.656   4.994   4.925  0.6367  0.0974  1.4542
   18SAPS   H2S 2289   3.500   4.957   4.963 -0.1314 -1.0336  2.1968
   18SAPS    C3 2290   3.635   4.493   4.694 -0.0627 -0.0867 -0.3568
   18SAPS    HX 2291   3.740   4.479   4.725 -0.1473  0.1194  0.0247
   18SAPS    HY 2292   3.618   4.434   4.601 -0.3515 -1.7651  0.7134
   18SAPS   O31 2293   3.533   4.449   4.786 -0.1568 -0.1671 -0.8637
   18SAPS   C31 2294   3.575   4.445   4.918  0.0146  0.0065  0.6772
   18SAPS   O32 2295   3.694   4.447   4.948 -0.1338  0.0233  0.1918
   18SAPS   C32 2296   3.449   4.423   5.000 -0.5654 -0.0836  0.3584
   18SAPS   H2X 2297   3.394   4.339   4.951 -0.0287  0.2022 -0.7770
   18SAPS   H2Y 2298   3.385   4.511   4.977 -0.9402 -1.1107 -3.1809
   18SAPS   C23 2299   3.636   4.811   5.049  0.2121  0.6103  0.5688
   18SAPS   H3R 2300   3.614   4.706   5.022  0.1969  1.1159 -1.6066
   18SAPS   H3S 2301   3.581   4.847   5.139  1.0381  0.7191  1.0387
   18SAPS   C24 2302   3.791   4.842   5.088  0.3599 -0.2887  0.3334
   18SAPS   H4R 2303   3.862   4.839   5.002 -0.4201  0.2966 -0.3458
   18SAPS   H4S 2304   3.806   4.761   5.162 -0.0912 -0.7990 -0.1261
   18SAPS   C25 2305   3.800   4.978   5.153 -0.2355 -0.4162  0.2754
   18SAPS   H5R 2306   3.807   5.060   5.081 -1.2507 -1.1536 -0.7083
   18SAPS   C26 2307   3.800   5.010   5.283  0.6563 -0.2710 -0.1815
   18SAPS   H6R 2308   3.807   5.115   5.313  2.7354 -0.5098  0.3259
   18SAPS   C27 2309   3.781   4.920   5.406  0.5317 -0.0415  0.3692
   18SAPS   H7R 2310   3.875   4.937   5.462  0.4065 -0.1343  0.6121
   18SAPS   H7S 2311   3.776   4.812   5.379 -1.5569 -0.4897  2.2641
   18SAPS   C28 2312   3.652   4.961   5.469  0.4982 -0.3456  0.4575
   18SAPS   H8R 2313   3.564   4.932   5.410  1.4230 -1.2230 -0.5480
   18SAPS   C29 2314   3.636   5.031   5.579  0.0824 -0.6735 -0.6471
   18SAPS   H9R 2315   3.534   5.057   5.611 -0.8547 -1.7143 -2.6030
   18SAPS  C210 2316   3.743   5.085   5.666  0.0267 -0.4730 -0.4118
   18SAPS  H10R 2317   3.733   5.195   5.653 -1.4827 -0.7096 -1.6614
   18SAPS  H10S 2318   3.839   5.038   5.635  0.9701 -0.8992  2.7844
   18SAPS  C211 2319   3.716   5.040   5.803  0.3342 -0.5111 -0.0404
   18SAPS  H11R 2320   3.722   4.931   5.817 -0.0954 -0.4831  0.3680
   18SAPS  C212 2321   3.693   5.118   5.910  0.1857 -0.2120 -0.5826
   18SAPS  H12R 2322   3.681   5.062   6.004 -1.2990  0.8488 -0.1044
   18SAPS  C213 2323   3.669   5.266   5.901  0.3768 -0.3513 -0.0757
   18SAPS  H13R 2324   3.611   5.298   5.990  1.5367  0.4760  0.4180
   18SAPS  H13S 2325   3.599   5.290   5.818 -0.4640 -1.3847  0.3220
   18SAPS  C214 2326   3.805   5.335   5.889  0.0035 -0.1089 -0.6210
   18SAPS  H14R 2327   3.888   5.277   5.846  2.5389  2.9618 -0.2383
   18SAPS  C215 2328   3.822   5.466   5.910  0.4293  0.4559 -0.2960
   18SAPS  H15R 2329   3.923   5.505   5.887  0.5295  0.2370 -0.2282
   18SAPS  C216 2330   3.723   5.561   5.964 -0.1594 -0.4737  0.0284
   18SAPS  H16R 2331   3.758   5.608   6.058 -0.4082  0.4311 -0.3160
   18SAPS  H16S 2332   3.630   5.507   5.993 -1.5396 -0.0141 -3.0555
   18SAPS  C217 2333   3.678   5.670   5.869  0.2668 -0.2675  0.5291
   18SAPS  H17R 2334   3.698   5.637   5.764  0.2712 -0.9192  0.7323
   18SAPS  H17S 2335   3.748   5.757   5.868 -0.2915  0.1835  0.2316
   18SAPS  C218 2336   3.537   5.719   5.894 -0.2568 -0.2174  0.4493
   18SAPS  H18R 2337   3.461   5.638   5.892 -0.1630 -0.3049 -0.6256
   18SAPS  H18S 2338   3.510   5.776   5.802  2.3591  0.3788 -0.0446
   18SAPS  C219 2339   3.511   5.802   6.022 -0.0342  0.2549  0.0094
   18SAPS  H19R 2340   3.585   5.884   6.024  0.6629 -0.3808  2.1984
   18SAPS  H19S 2341   3.535   5.733   6.105  1.0378 -1.6716 -1.7932
   18SAPS  C220 2342   3.366   5.851   6.041  0.0285 -0.3332 -0.0960
   18SAPS  H20R 2343   3.297   5.764   6.047  1.8895 -1.8900 -0.1151
   18SAPS  H20S 2344   3.336   5.921   5.961 -2.2252  0.3374  1.2428
   18SAPS  H20T 2345   3.360   5.904   6.139 -0.3230  1.3842 -1.0077
   18SAPS   C33 2346   3.482   4.387   5.146  0.0566  0.1606 -0.2770
   18SAPS   H3X 2347   3.570   4.320   5.154 -0.5831 -0.5309  1.5542
   18SAPS   H3Y 2348   3.399   4.328   5.190 -0.5425  0.1543 -1.3832
   18SAPS   C34 2349   3.492   4.507   5.239 -0.4033 -0.3412 -0.5078
   18SAPS   H4X 2350   3.387   4.545   5.238 -1.1376 -2.1990 -2.1071
   18SAPS   H4Y 2351   3.569   4.584   5.218 -0.8879 -0.0188 -1.1726
   18SAPS   C35 2352   3.532   4.453   5.376 -0.3976 -0.3493 -1.0139
   18SAPS   H5X 2353   3.632   4.409   5.358 -1.2529 -2.1144 -1.6140
   18SAPS   H5Y 2354   3.459   4.375   5.406  0.5265 -0.4840  1.0369
   18SAPS   C36 2355   3.551   4.567   5.489 -0.8087  0.2229  0.0177
   18SAPS   H6X 2356   3.454   4.622   5.478 -0.2431  1.2376  0.0019
   18SAPS   H6Y 2357   3.628   4.640   5.457 -0.5319 -0.9450 -2.1642
   18SAPS   C37 2358   3.584   4.504   5.624 -0.1922  0.0413  0.1018
   18SAPS   H7X 2359   3.688   4.468   5.612 -0.1713 -0.1205  0.7692
   18SAPS   H7Y 2360   3.518   4.417   5.644  0.1954 -0.2525  0.1092
   18SAPS   C38 2361   3.557   4.606   5.733 -0.2008 -0.1341  0.2857
   18SAPS   H8X 2362   3.452   4.635   5.714  0.0624  1.3880  1.0564
   18SAPS   H8Y 2363   3.625   4.693   5.730 -1.9135  1.2205 -0.9589
   18SAPS   C39 2364   3.560   4.549   5.875  0.5854 -0.2170  0.0352
   18SAPS   H9X 2365   3.668   4.525   5.891  1.4596  2.8526 -0.5427
   18SAPS   H9Y 2366   3.498   4.458   5.881  1.3564 -0.7536  0.0506
   18SAPS  C310 2367   3.513   4.653   5.984 -1.2039 -0.7943 -0.1074
   18SAPS  H10X 2368   3.439   4.592   6.040 -0.3985 -0.6931  1.1024
   18SAPS  H10Y 2369   3.459   4.729   5.924 -1.6428 -1.7263 -0.9255
   18SAPS  C311 2370   3.623   4.716   6.069  0.7664  0.2147 -0.2248
   18SAPS  H11X 2371   3.679   4.786   6.004  0.9163  3.0905  2.7525
   18SAPS  H11Y 2372   3.690   4.646   6.122 -0.7537 -0.4123  0.9386
   18SAPS  C312 2373   3.560   4.788   6.182 -0.3065 -0.5419  0.5656
   18SAPS  H12X 2374   3.497   4.725   6.249 -2.5311 -1.2672 -1.9863
   18SAPS  H12Y 2375   3.487   4.854   6.131 -0.3060 -0.7912  0.2391
   18SAPS  C313 2376   3.662   4.870   6.268 -0.2539 -0.2758 -0.5057
   18SAPS  H13X 2377   3.736   4.914   6.198  1.7386 -3.5462 -0.7069
   18SAPS  H13Y 2378   3.719   4.798   6.331 -0.5375  0.0486  0.1237
   18SAPS  C314 2379   3.602   4.987   6.347  1.0567 -0.4646  0.6446
   18SAPS  H14X 2380   3.676   5.035   6.413 -0.2619  1.2576  0.9423
   18SAPS  H14Y 2381   3.522   4.946   6.413  2.0873 -0.1595  2.1281
   18SAPS  C315 2382   3.539   5.092   6.248  0.0634  0.0745  0.0947
   18SAPS  H15X 2383   3.450   5.051   6.195  0.7188 -1.4200  0.1045
   18SAPS  H15Y 2384   3.615   5.109   6.169  1.0723 -0.9735  0.8063
   18SAPS  C316 2385   3.500   5.222   6.310  0.0324  0.2641 -0.0409
   18SAPS  H16X 2386   3.487   5.303   6.235  2.8713  2.5456  1.7388
   18SAPS  H16Y 2387   3.591   5.255   6.364  2.5417 -3.1169 -1.8437
   18SAPS  C317 2388   3.387   5.207   6.407 -0.6467 -0.0662 -0.0439
   18SAPS  H17X 2389   3.416   5.135   6.486 -0.0651  0.8197  0.5668
   18SAPS  H17Y 2390   3.303   5.173   6.343  1.8962 -1.4958 -2.9260
   18SAPS  C318 2391   3.361   5.337   6.479  0.9921 -1.0354  0.0000
   18SAPS  H18X 2392   3.444   5.364   6.548  0.9637 -1.0784  0.0511
   18SAPS  H18Y 2393   3.268   5.318   6.538  0.0317 -0.1541 -1.1761
   18SAPS  H18Z 2394   3.349   5.420   6.406 -0.1068 -2.0547 -1.0256
   19SAPS     N 2395   1.610   0.167   4.240 -0.2395  0.5877  0.2026
   19SAPS   HN1 2396   1.626   0.068   4.211 -2.4029  0.0811  0.6048
   19SAPS   HN2 2397   1.667   0.177   4.327 -0.8639 -1.5765  0.9204
   19SAPS   HN3 2398   1.508   0.179   4.254 -1.3760 -4.3748 -1.4521
   19SAPS   C12 2399   1.662   0.257   4.137  0.1529 -0.3909 -0.0069
   19SAPS  H12A 2400   1.770   0.256   4.151 -0.0151 -1.6299  1.4770
   19SAPS   C13 2401   1.630   0.218   3.994  0.4305 -0.2614 -0.0838
   19SAPS  O13A 2402   1.602   0.097   3.981  0.8201  0.1215  0.7546
   19SAPS  O13B 2403   1.675   0.288   3.901  0.0939 -0.5423 -0.1922
   19SAPS   C11 2404   1.609   0.398   4.173 -0.1683  0.0569 -0.0941
   19SAPS  H11A 2405   1.498   0.391   4.165  0.0293 -2.2352 -1.6589
   19SAPS  H11B 2406   1.646   0.473   4.100 -3.8634 -0.3677 -2.6884
   19SAPS     P 2407   1.589   0.558   4.382 -0.1975  0.0313 -0.0561
   19SAPS   O13 2408   1.684   0.631   4.470 -0.1530 -0.4778  0.1386
   19SAPS   O14 2409   1.519   0.632   4.276  0.0755 -0.0788 -0.2112
   19SAPS   O12 2410   1.666   0.439   4.305 -0.6704 -0.0216  0.2267
   19SAPS   O11 2411   1.486   0.483   4.461  0.3590 -0.4266 -0.5463
   19SAPS    C1 2412   1.497   0.344   4.499  0.1873 -0.6730 -0.4352
   19SAPS    HA 2413   1.432   0.280   4.436 -1.7109  0.2196  0.5311
   19SAPS    HB 2414   1.599   0.300   4.498 -0.0058 -1.1181 -0.8372
   19SAPS    C2 2415   1.453   0.328   4.646 -0.6079  0.5793 -0.2056
   19SAPS    HS 2416   1.500   0.232   4.678 -2.1092 -0.5846 -1.3119
   19SAPS   O21 2417   1.310   0.321   4.655 -0.0231 -0.1753  0.5143
   19SAPS   C21 2418   1.262   0.242   4.742 -0.1085 -0.0414  0.7198
   19SAPS   O22 2419   1.328   0.180   4.825 -0.0674  0.3707 -0.0268
   19SAPS   C22 2420   1.105   0.266   4.757 -0.2545  0.0403 -0.2481
   19SAPS   H2R 2421   1.059   0.254   4.657 -0.4519 -1.2338 -0.0224
   19SAPS   H2S 2422   1.064   0.177   4.811  0.2271 -0.4363 -0.6584
   19SAPS    C3 2423   1.513   0.446   4.731  0.0290 -0.1270 -0.3932
   19SAPS    HX 2424   1.459   0.541   4.710  3.3334  1.9419 -0.2841
   19SAPS    HY 2425   1.618   0.463   4.700  0.4943 -0.2557  1.0439
   19SAPS   O31 2426   1.490   0.428   4.872  0.5396  0.3569  0.0283
   19SAPS   C31 2427   1.572   0.344   4.928  0.1317 -0.0251  0.3594
   19SAPS   O32 2428   1.667   0.296   4.868 -0.2719  0.5298 -0.1221
   19SAPS   C32 2429   1.536   0.312   5.081 -0.1109  0.0079  0.0359
   19SAPS   H2X 2430   1.465   0.226   5.074  0.2903 -0.4627  1.2879
   19SAPS   H2Y 2431   1.500   0.409   5.121  2.6623  0.6740  1.1214
   19SAPS   C23 2432   1.060   0.402   4.810 -0.5781 -0.0972 -0.2617
   19SAPS   H3R 2433   1.103   0.473   4.736  1.4171 -0.6890  0.2451
   19SAPS   H3S 2434   1.117   0.418   4.904  0.4272 -2.0692 -0.4862
   19SAPS   C24 2435   0.909   0.422   4.812 -0.2119 -0.5505  0.1584
   19SAPS   H4R 2436   0.872   0.401   4.710  2.4105 -2.1881 -0.5605
   19SAPS   H4S 2437   0.878   0.527   4.831 -1.2627 -0.3228 -2.4278
   19SAPS   C25 2438   0.845   0.329   4.912 -0.4648  0.4125  0.4866
   19SAPS   H5R 2439   0.812   0.227   4.889 -1.1647 -0.0656  3.2314
   19SAPS   C26 2440   0.825   0.362   5.038  0.3560  0.2585  0.2373
   19SAPS   H6R 2441   0.759   0.298   5.099  1.2945 -0.1363  0.8572
   19SAPS   C27 2442   0.859   0.488   5.106 -0.1904  0.0480 -0.3260
   19SAPS   H7R 2443   0.776   0.561   5.111 -0.9011 -0.7457 -0.4644
   19SAPS   H7S 2444   0.935   0.550   5.053 -1.2251  1.4954 -0.1513
   19SAPS   C28 2445   0.921   0.456   5.237 -0.0786  0.5521 -0.0811
   19SAPS   H8R 2446   0.998   0.378   5.227 -2.0494 -1.7278  1.4347
   19SAPS   C29 2447   0.905   0.512   5.358 -0.1176  0.5890 -0.5845
   19SAPS   H9R 2448   0.959   0.464   5.440  0.3716 -0.6409 -1.6061
   19SAPS  C210 2449   0.808   0.623   5.395  0.4131  0.7892  0.4294
   19SAPS  H10R 2450   0.752   0.661   5.307 -0.0735 -1.8491 -0.4862
   19SAPS  H10S 2451   0.860   0.714   5.432  1.0112 -0.3400  2.5484
   19SAPS  C211 2452   0.707   0.567   5.487 -0.1060  0.2850 -0.4976
   19SAPS  H11R 2453   0.610   0.538   5.443 -0.7510  1.8743 -0.1853
   19SAPS  C212 2454   0.720   0.539   5.620  0.2104 -0.3869 -0.2613
   19SAPS  H12R 2455   0.630   0.495   5.664 -1.1791  0.4182 -2.1480
   19SAPS  C213 2456   0.842   0.563   5.705  0.9355 -0.4656 -0.0679
   19SAPS  H13R 2457   0.928   0.587   5.639  0.2913  2.3307  0.0177
   19SAPS  H13S 2458   0.854   0.471   5.768 -1.2825 -0.8708 -0.1350
   19SAPS  C214 2459   0.823   0.684   5.792  0.6515 -0.1012 -0.3186
   19SAPS  H14R 2460   0.753   0.760   5.755  1.3513  0.3703 -0.7060
   19SAPS  C215 2461   0.876   0.705   5.919 -0.0509  0.4715  0.2801
   19SAPS  H15R 2462   0.859   0.801   5.969 -0.4454 -0.2446  1.5641
   19SAPS  C216 2463   0.973   0.600   5.977 -0.4581  0.5461 -0.2947
   19SAPS  H16R 2464   1.063   0.597   5.913 -1.6943 -0.3527 -2.0753
   19SAPS  H16S 2465   0.931   0.497   5.979  0.9527 -0.0701 -1.0721
   19SAPS  C217 2466   1.027   0.646   6.119  0.6550 -0.1355  0.1629
   19SAPS  H17R 2467   0.963   0.593   6.193  2.7000 -3.6468 -0.3459
   19SAPS  H17S 2468   1.021   0.756   6.130 -4.6339  0.1175 -2.3155
   19SAPS  C218 2469   1.175   0.599   6.142  0.9061 -0.0342  0.1720
   19SAPS  H18R 2470   1.244   0.650   6.071  2.2297 -1.5577  0.2797
   19SAPS  H18S 2471   1.173   0.490   6.118 -1.2933 -0.0630  0.2931
   19SAPS  C219 2472   1.216   0.612   6.283 -0.2662  0.1331  0.4850
   19SAPS  H19R 2473   1.205   0.717   6.317 -0.6957  0.7663 -1.5076
   19SAPS  H19S 2474   1.324   0.589   6.288  0.0172  1.0418 -0.9622
   19SAPS  C220 2475   1.134   0.519   6.373  0.0709  0.3497  0.7396
   19SAPS  H20R 2476   1.027   0.548   6.364 -0.1903 -0.9592 -0.7983
   19SAPS  H20S 2477   1.174   0.518   6.477  2.4523 -0.2564 -0.1131
   19SAPS  H20T 2478   1.142   0.411   6.349  1.5648  0.8362 -1.1877
   19SAPS   C33 2479   1.667   0.264   5.156  0.4241  0.0125  0.5703
   19SAPS   H3X 2480   1.735   0.352   5.156  0.3252  0.2058 -2.6588
   19SAPS   H3Y 2481   1.714   0.170   5.118  0.1050 -0.4556  1.3182
   19SAPS   C34 2482   1.633   0.225   5.303 -0.1005 -0.1877  0.4042
   19SAPS   H4X 2483   1.592   0.122   5.291  0.6000 -0.2899 -1.4800
   19SAPS   H4Y 2484   1.552   0.286   5.348  0.7374  0.1748  1.4438
   19SAPS   C35 2485   1.747   0.243   5.410  0.0505  0.9416 -0.0770
   19SAPS   H5X 2486   1.752   0.352   5.435  0.0718  0.8636  0.2693
   19SAPS   H5Y 2487   1.831   0.194   5.357  0.0479  0.8257  0.0262
   19SAPS   C36 2488   1.714   0.163   5.536 -0.4699  0.8225  0.9550
   19SAPS   H6X 2489   1.734   0.056   5.512 -0.0871  1.4562 -2.0476
   19SAPS   H6Y 2490   1.605   0.160   5.555 -0.2949 -1.0998  1.9013
   19SAPS   C37 2491   1.806   0.202   5.655  0.3259  0.3926 -0.4405
   19SAPS   H7X 2492   1.786   0.303   5.698 -0.9228 -0.1114  0.2164
   19SAPS   H7Y 2493   1.904   0.203   5.604 -0.2398 -3.9741 -2.0276
   19SAPS   C38 2494   1.795   0.082   5.753 -0.2754  0.0762 -0.2366
   19SAPS   H8X 2495   1.822  -0.009   5.695 -0.0204  0.3652 -0.5808
   19SAPS   H8Y 2496   1.691   0.066   5.786 -0.3939  1.8708  0.3779
   19SAPS   C39 2497   1.873   0.093   5.886 -0.0727  0.2229 -0.0294
   19SAPS   H9X 2498   1.892  -0.006   5.931  0.2699  0.7607  1.0401
   19SAPS   H9Y 2499   1.818   0.148   5.965 -0.5878 -1.6547  0.9638
   19SAPS  C310 2500   2.011   0.167   5.878 -0.2382 -0.3912 -0.0220
   19SAPS  H10X 2501   1.978   0.269   5.850  0.8060  0.4607  1.6904
   19SAPS  H10Y 2502   2.081   0.112   5.811  0.9975  1.5399 -0.4025
   19SAPS  C311 2503   2.069   0.173   6.020  0.3292  0.6727  0.6797
   19SAPS  H11X 2504   2.175   0.147   5.998  0.3949  0.8397  0.8016
   19SAPS  H11Y 2505   2.023   0.093   6.082  2.1491  1.4578  3.1921
   19SAPS  C312 2506   2.043   0.301   6.101 -0.4638  0.2410  0.3428
   19SAPS  H12X 2507   1.933   0.298   6.111 -0.8720  1.0601 -2.9107
   19SAPS  H12Y 2508   2.072   0.392   6.044 -0.0068 -0.2622 -0.2409
   19SAPS  C313 2509   2.110   0.310   6.237 -0.5197 -0.0695 -0.4443
   19SAPS  H13X 2510   2.077   0.241   6.317 -1.3129  2.9292  1.9783
   19SAPS  H13Y 2511   2.081   0.407   6.283  1.9701  0.7595 -0.4425
   19SAPS  C314 2512   2.268   0.303   6.228 -0.3141 -0.3774 -0.3071
   19SAPS  H14X 2513   2.291   0.215   6.165 -1.6415 -0.0568 -1.2803
   19SAPS  H14Y 2514   2.310   0.297   6.331 -1.5767  0.1569  0.2535
   19SAPS  C315 2515   2.335   0.426   6.159  0.2255  0.1137  0.1762
   19SAPS  H15X 2516   2.318   0.509   6.232  3.2541  1.1791 -0.1780
   19SAPS  H15Y 2517   2.289   0.442   6.060  1.3378  1.6291 -0.1384
   19SAPS  C316 2518   2.489   0.410   6.140 -0.1102  0.5297 -0.5081
   19SAPS  H16X 2519   2.499   0.316   6.083 -0.5270  0.6028 -0.7023
   19SAPS  H16Y 2520   2.537   0.375   6.234 -0.8980 -0.0513 -0.3163
   19SAPS  C317 2521   2.564   0.530   6.076  0.9381  0.3921  0.1423
   19SAPS  H17X 2522   2.675   0.525   6.082  1.0463 -0.0890 -1.6652
   19SAPS  H17Y 2523   2.541   0.620   6.137 -0.7034  0.2379 -0.2039
   19SAPS  C318 2524   2.518   0.559   5.933  0.2597 -0.8280  0.3608
   19SAPS  H18X 2525   2.513   0.470   5.867 -1.7949  0.1702 -0.9377
   19SAPS  H18Y 2526   2.594   0.629   5.894 -0.5350 -1.0267 -1.6624
   19SAPS  H18Z 2527   2.416   0.602   5.927  1.1145  1.3336  0.5509
   20SAPS     N 2528   1.681   3.059   4.372  0.8697 -0.5456 -0.2407
   20SAPS   HN1 2529   1.641   3.103   4.287 -0.9880 -0.3270  0.7023
   20SAPS   HN2 2530   1.607   3.005   4.423  0.0369  1.6996  1.0531
   20SAPS   HN3 2531   1.722   3.131   4.434 -0.9445  0.0818  0.3014
   20SAPS   C12 2532   1.791   2.972   4.318 -0.7037 -0.5071  0.5545
   20SAPS  H12A 2533   1.747   2.902   4.248  0.1430 -0.9615  0.4592
   20SAPS   C13 2534   1.882   3.057   4.233 -0.3171  0.5946 -0.1095
   20SAPS  O13A 2535   1.830   3.151   4.163  0.2728  0.6463 -0.2065
   20SAPS  O13B 2536   1.983   3.000   4.180 -0.0043 -0.1582  0.2065
   20SAPS   C11 2537   1.883   2.913   4.429  0.0660  0.1717  0.7699
   20SAPS  H11A 2538   1.922   3.004   4.479 -3.5396  2.8670 -0.8403
   20SAPS  H11B 2539   1.961   2.846   4.387  0.0265 -0.0515  1.0453
   20SAPS     P 2540   1.767   2.692   4.518 -0.3144  0.5511  0.0837
   20SAPS   O13 2541   1.639   2.676   4.584 -0.2818  0.1003  0.1284
   20SAPS   O14 2542   1.767   2.654   4.376  0.0460 -0.1384  0.4860
   20SAPS   O12 2543   1.810   2.842   4.532 -0.0317 -0.2359 -0.7961
   20SAPS   O11 2544   1.876   2.615   4.585 -0.2170  0.1641  0.0361
   20SAPS    C1 2545   2.013   2.657   4.604 -0.4840  0.6466 -0.4132
   20SAPS    HA 2546   2.061   2.665   4.504  1.3605  1.5574  0.5051
   20SAPS    HB 2547   2.020   2.760   4.645  0.5200  0.5982 -0.4414
   20SAPS    C2 2548   2.087   2.554   4.692  0.7786  0.9329  0.0494
   20SAPS    HS 2549   2.068   2.452   4.653 -2.3429  0.5848  2.0840
   20SAPS   O21 2550   2.029   2.565   4.825 -0.3739  0.7132  0.6795
   20SAPS   C21 2551   2.043   2.444   4.887 -0.5332 -0.5846 -0.0893
   20SAPS   O22 2552   2.062   2.343   4.828 -0.2604 -0.1211  0.5986
   20SAPS   C22 2553   2.019   2.457   5.043  0.4851  0.2510 -0.6901
   20SAPS   H2R 2554   2.078   2.546   5.074 -1.9037  1.2460  1.3510
   20SAPS   H2S 2555   1.913   2.483   5.064  1.1652  0.9024  2.5013
   20SAPS    C3 2556   2.246   2.567   4.689  0.3994 -1.3054  0.5219
   20SAPS    HX 2557   2.258   2.673   4.721  0.2600 -1.2047  0.2419
   20SAPS    HY 2558   2.282   2.574   4.584 -0.6194  0.4206  0.2458
   20SAPS   O31 2559   2.320   2.484   4.790  0.5160 -0.0758  0.6918
   20SAPS   C31 2560   2.369   2.376   4.737 -0.2964 -0.2028  1.2731
   20SAPS   O32 2561   2.379   2.354   4.615 -0.4376  0.2648 -0.0801
   20SAPS   C32 2562   2.421   2.285   4.849 -0.6288  0.4329 -0.4459
   20SAPS   H2X 2563   2.350   2.282   4.935 -0.5311  0.9351 -0.3397
   20SAPS   H2Y 2564   2.510   2.341   4.887 -0.9207  1.2650 -0.9471
   20SAPS   C23 2565   2.065   2.327   5.112  0.5119  0.5944  0.6443
   20SAPS   H3R 2566   2.113   2.350   5.210  1.0954 -0.0494  0.5138
   20SAPS   H3S 2567   2.151   2.283   5.057  0.3690 -0.2201  1.0566
   20SAPS   C24 2568   1.940   2.239   5.147  0.3573 -0.0324  0.1952
   20SAPS   H4R 2569   1.868   2.227   5.063 -0.3280 -1.4672  0.9611
   20SAPS   H4S 2570   1.885   2.292   5.227  2.4907  1.5460  0.7019
   20SAPS   C25 2571   1.998   2.109   5.199 -0.0547 -0.3795  0.1582
   20SAPS   H5R 2572   2.016   2.029   5.126 -1.9940  0.4625 -1.3323
   20SAPS   C26 2573   2.029   2.083   5.328  0.5088 -0.4305 -0.2185
   20SAPS   H6R 2574   2.058   1.981   5.355  0.4520 -0.6131 -0.8443
   20SAPS   C27 2575   2.016   2.178   5.443  0.2525  0.6939 -0.6509
   20SAPS   H7R 2576   1.918   2.164   5.494  1.2644  0.1921  1.2423
   20SAPS   H7S 2577   2.009   2.283   5.406 -2.0006  0.3700 -1.3216
   20SAPS   C28 2578   2.132   2.151   5.539  0.4939 -0.0340 -0.2516
   20SAPS   H8R 2579   2.229   2.173   5.492  0.4083 -0.3339 -0.5700
   20SAPS   C29 2580   2.132   2.102   5.666  0.0960 -0.3123 -0.3053
   20SAPS   H9R 2581   2.229   2.083   5.714 -0.1600 -1.6441 -0.2768
   20SAPS  C210 2582   2.007   2.070   5.749 -0.3359 -0.1183 -0.4122
   20SAPS  H10R 2583   1.935   2.002   5.698 -1.8632  1.9158 -1.0863
   20SAPS  H10S 2584   1.940   2.158   5.745  1.9345  1.6797 -2.7747
   20SAPS  C211 2585   2.029   2.031   5.888  0.0472 -0.0142 -0.7705
   20SAPS  H11R 2586   2.054   1.925   5.900  0.2470  0.1359  0.1473
   20SAPS  C212 2587   2.005   2.112   5.995  0.8518 -0.1975  0.0494
   20SAPS  H12R 2588   2.015   2.067   6.095 -0.8548 -1.3454 -0.2509
   20SAPS  C213 2589   1.976   2.267   5.997  0.1938 -0.3421 -0.2175
   20SAPS  H13R 2590   1.889   2.293   6.061 -0.4854  0.8065 -1.5495
   20SAPS  H13S 2591   1.949   2.294   5.893 -0.7428 -1.9885 -0.4258
   20SAPS  C214 2592   2.090   2.356   6.036  0.6124  0.8722 -0.6397
   20SAPS  H14R 2593   2.135   2.415   5.954  0.1859 -0.5308 -1.9266
   20SAPS  C215 2594   2.130   2.388   6.160 -0.7340  0.9497 -0.2833
   20SAPS  H15R 2595   2.221   2.446   6.184 -0.6213  0.3609  0.8000
   20SAPS  C216 2596   2.062   2.339   6.283  0.3942 -0.6973 -0.7714
   20SAPS  H16R 2597   2.007   2.244   6.265 -0.7528 -0.5323  1.4842
   20SAPS  H16S 2598   1.993   2.423   6.303  1.2904 -0.4205  1.4283
   20SAPS  C217 2599   2.157   2.338   6.401 -0.3159 -0.3537 -1.0018
   20SAPS  H17R 2600   2.196   2.442   6.411  1.3915 -1.1161  0.8641
   20SAPS  H17S 2601   2.239   2.264   6.392 -0.1756 -1.3342  4.5732
   20SAPS  C218 2602   2.092   2.297   6.536  0.4046 -0.0326  0.2105
   20SAPS  H18R 2603   2.072   2.188   6.529  0.0529  0.0709 -0.3967
   20SAPS  H18S 2604   1.997   2.353   6.544  0.0725 -0.6775  0.9344
   20SAPS  C219 2605   2.178   2.330   6.661  0.2271 -0.3443  0.1401
   20SAPS  H19R 2606   2.185   2.441   6.671 -0.8613 -0.4241  2.1925
   20SAPS  H19S 2607   2.277   2.284   6.640  0.1959 -0.8312  1.0315
   20SAPS  C220 2608   2.126   2.269   6.796 -0.4986  0.4831 -0.2903
   20SAPS  H20R 2609   2.031   2.317   6.827 -0.7232  0.3889 -0.8125
   20SAPS  H20S 2610   2.202   2.295   6.872  0.2781 -0.6788 -0.6446
   20SAPS  H20T 2611   2.103   2.161   6.776  1.1587  0.5068 -2.6865
   20SAPS   C33 2612   2.446   2.139   4.803 -0.1162 -0.5304 -0.1753
   20SAPS   H3X 2613   2.491   2.117   4.703 -2.8007 -1.8965 -1.1803
   20SAPS   H3Y 2614   2.344   2.096   4.791  1.3343 -3.7355 -2.1887
   20SAPS   C34 2615   2.502   2.058   4.919 -0.6141  0.4109 -0.2686
   20SAPS   H4X 2616   2.584   2.117   4.965  0.0722 -0.5475 -0.2260
   20SAPS   H4Y 2617   2.542   1.969   4.865  0.4187  1.6741 -1.6846
   20SAPS   C35 2618   2.403   2.008   5.020 -0.0285 -0.4838 -0.4233
   20SAPS   H5X 2619   2.347   1.931   4.962 -0.9333 -0.0965 -0.0786
   20SAPS   H5Y 2620   2.340   2.091   5.059  2.4405  1.2288  0.1494
   20SAPS   C36 2621   2.465   1.951   5.150 -0.3090  0.4603  0.5145
   20SAPS   H6X 2622   2.528   2.030   5.196  0.4864  1.2760 -1.8370
   20SAPS   H6Y 2623   2.535   1.866   5.132 -0.7050  0.3327 -0.4446
   20SAPS   C37 2624   2.360   1.902   5.247  0.3885 -0.5749 -0.5813
   20SAPS   H7X 2625   2.301   1.826   5.191 -3.0443  1.6179 -0.2690
   20SAPS   H7Y 2626   2.296   1.985   5.286 -0.8618 -1.9399  0.4230
   20SAPS   C38 2627   2.427   1.840   5.374 -0.4294 -0.1242 -0.2893
   20SAPS   H8X 2628   2.514   1.900   5.409 -0.4359 -2.8692  5.6127
   20SAPS   H8Y 2629   2.467   1.738   5.353 -0.8857 -0.2106 -0.7448
   20SAPS   C39 2630   2.317   1.818   5.485 -0.3411  0.6314 -0.0737
   20SAPS   H9X 2631   2.249   1.744   5.437  1.4770 -0.0887 -1.6478
   20SAPS   H9Y 2632   2.259   1.912   5.499 -0.0774  0.3864  3.5460
   20SAPS  C310 2633   2.370   1.769   5.622  0.2987 -0.2362 -0.2897
   20SAPS  H10X 2634   2.459   1.825   5.656 -0.8730  0.9256  0.9983
   20SAPS  H10Y 2635   2.401   1.663   5.608  0.5460 -0.8925  3.8812
   20SAPS  C311 2636   2.259   1.763   5.722  0.5088 -0.2130  0.3274
   20SAPS  H11X 2637   2.191   1.680   5.692  1.0742  0.1264 -2.0871
   20SAPS  H11Y 2638   2.200   1.857   5.719 -1.4529 -1.3338  1.5029
   20SAPS  C312 2639   2.284   1.732   5.875  0.3773  0.5842  0.5688
   20SAPS  H12X 2640   2.281   1.623   5.894  0.5442  0.4221 -0.2816
   20SAPS  H12Y 2641   2.202   1.779   5.934 -1.5235  0.1718 -1.5974
   20SAPS  C313 2642   2.416   1.807   5.920 -0.1120  0.2835 -0.1871
   20SAPS  H13X 2643   2.500   1.775   5.854 -0.4139 -0.1142 -0.3756
   20SAPS  H13Y 2644   2.439   1.781   6.026 -0.0936  3.3408  0.6793
   20SAPS  C314 2645   2.422   1.959   5.918  0.0972  0.3043  0.5298
   20SAPS  H14X 2646   2.336   1.995   5.978 -2.2513 -0.4411 -2.1409
   20SAPS  H14Y 2647   2.392   1.986   5.814  0.2559 -2.4582 -0.3236
   20SAPS  C315 2648   2.553   2.023   5.970 -0.0980 -0.1855  0.0033
   20SAPS  H15X 2649   2.630   1.946   5.947 -1.6172 -1.2948 -1.6144
   20SAPS  H15Y 2650   2.541   2.046   6.078 -1.2103 -0.0696 -0.1353
   20SAPS  C316 2651   2.588   2.152   5.892 -0.3546 -0.3833 -0.3405
   20SAPS  H16X 2652   2.503   2.217   5.922  1.9898  1.5359  2.7637
   20SAPS  H16Y 2653   2.597   2.137   5.783  2.3197  1.6491 -0.4970
   20SAPS  C317 2654   2.719   2.218   5.946 -0.2652 -0.2896 -0.2518
   20SAPS  H17X 2655   2.728   2.306   5.878  0.3468  0.0029  0.2028
   20SAPS  H17Y 2656   2.798   2.145   5.922  1.5752  1.9478 -1.3837
   20SAPS  C318 2657   2.715   2.256   6.093  0.6824  0.3580 -0.3018
   20SAPS  H18X 2658   2.647   2.342   6.110  1.7458  0.9374  1.2524
   20SAPS  H18Y 2659   2.812   2.302   6.120 -0.0265  1.2642  0.7694
   20SAPS  H18Z 2660   2.693   2.171   6.160  0.3418  1.1629  0.6221
   21CHL1    C3 2661   4.222   1.005   8.023 -0.0260 -0.7791  0.6594
   21CHL1    H3 2662   4.228   1.115   8.038  2.1889 -0.5091 -1.4936
   21CHL1    O3 2663   4.193   0.947   8.147  0.0261  0.7643 -0.1015
   21CHL1   H3' 2664   4.267   0.976   8.201  2.0458 -2.9574 -0.5654
   21CHL1    C4 2665   4.114   0.964   7.922 -0.2436 -0.8062  0.0631
   21CHL1   H4A 2666   4.119   0.853   7.918  1.2180 -0.7376 -1.7240
   21CHL1   H4B 2667   4.022   1.002   7.970  1.0840  2.2986  0.4385
   21CHL1    C5 2668   4.135   1.022   7.782  0.2581 -0.1286 -0.1264
   21CHL1    C6 2669   4.039   1.093   7.719 -0.5885  0.2439  0.6408
   21CHL1    H6 2670   3.940   1.112   7.764 -0.7716  0.2815  0.2232
   21CHL1    C7 2671   4.055   1.132   7.574 -0.5129 -0.7471  0.1583
   21CHL1   H7A 2672   3.957   1.109   7.527 -0.6443  1.9832 -1.0583
   21CHL1   H7B 2673   4.067   1.241   7.559  1.2234 -0.9966 -0.4896
   21CHL1    C8 2674   4.174   1.062   7.499 -0.1743 -0.0351  0.0081
   21CHL1    H8 2675   4.138   0.957   7.499 -1.0516  0.2503 -0.0402
   21CHL1   C14 2676   4.209   1.130   7.363  0.2841  0.1185 -0.1443
   21CHL1   H14 2677   4.245   1.232   7.388 -1.3104  0.6031  0.3014
   21CHL1   C15 2678   4.094   1.157   7.260 -0.3025  0.1242 -0.2077
   21CHL1  H15A 2679   4.007   1.089   7.270 -0.4871  0.5217  1.0851
   21CHL1  H15B 2680   4.068   1.259   7.296 -0.9784 -0.9644  2.6544
   21CHL1   C16 2681   4.174   1.159   7.123 -0.0917  0.9259  0.0353
   21CHL1  H16A 2682   4.144   1.075   7.058 -5.3048  3.4620 -1.3830
   21CHL1  H16B 2683   4.160   1.253   7.066 -1.0062 -0.4524 -2.1201
   21CHL1   C17 2684   4.327   1.149   7.163 -0.3201  0.3623  0.4953
   21CHL1   H17 2685   4.352   1.255   7.186  3.8638 -0.6593  1.5386
   21CHL1   C13 2686   4.328   1.065   7.293  0.3608 -0.4516 -0.6867
   21CHL1   C18 2687   4.310   0.914   7.260  0.2531 -0.0658 -0.2292
   21CHL1  H18A 2688   4.409   0.868   7.242 -0.0993 -1.2016  0.5868
   21CHL1  H18B 2689   4.262   0.868   7.350 -2.6093  2.1876 -0.4136
   21CHL1  H18C 2690   4.252   0.905   7.166 -0.7756 -0.8636  0.4498
   21CHL1   C12 2691   4.447   1.088   7.389  0.0519 -0.2150  0.1187
   21CHL1  H12A 2692   4.545   1.052   7.351 -0.5401 -1.7325 -0.0505
   21CHL1  H12B 2693   4.470   1.193   7.416 -2.5609  0.1375  1.2040
   21CHL1   C11 2694   4.421   1.020   7.522 -0.2468 -0.2255  0.7810
   21CHL1  H11A 2695   4.429   0.910   7.509  1.9174  0.0125 -0.5030
   21CHL1  H11B 2696   4.511   1.057   7.575 -1.0228  1.4279  1.0002
   21CHL1    C9 2697   4.295   1.066   7.588 -0.6028 -0.1885  0.2449
   21CHL1    H9 2698   4.316   1.173   7.610  1.3939 -0.6182  0.5631
   21CHL1   C10 2699   4.276   0.992   7.725 -0.1073  0.1542 -0.6371
   21CHL1   C19 2700   4.285   0.838   7.709  0.9026  0.3655 -0.3583
   21CHL1  H19A 2701   4.265   0.780   7.802  0.4696 -1.0522 -1.3005
   21CHL1  H19B 2702   4.205   0.802   7.641 -0.1063 -0.6103  1.2653
   21CHL1  H19C 2703   4.383   0.809   7.666  0.6543 -0.1351 -0.5931
   21CHL1    C1 2704   4.383   1.034   7.831  0.3792  0.0484 -0.2546
   21CHL1   H1A 2705   4.480   1.008   7.784  0.6550  1.1676 -0.3119
   21CHL1   H1B 2706   4.385   1.143   7.848  0.1960  0.1035 -0.5692
   21CHL1    C2 2707   4.363   0.966   7.972  0.8985  0.0479  0.0520
   21CHL1   H2A 2708   4.441   0.995   8.046  0.2020 -0.9345  1.2024
   21CHL1   H2B 2709   4.371   0.856   7.960  0.2608 -0.0433  0.4253
   21CHL1   C20 2710   4.431   1.108   7.051 -0.9097 -0.6485  0.5546
   21CHL1   H20 2711   4.441   0.997   7.051  2.8371 -0.4675 -1.7175
   21CHL1   C21 2712   4.566   1.172   7.086 -0.2114  0.9899  0.2092
   21CHL1  H21A 2713   4.607   1.115   7.173 -1.1377 -1.2252 -0.7412
   21CHL1  H21B 2714   4.550   1.281   7.101  0.4182  1.1265 -0.0872
   21CHL1  H21C 2715   4.647   1.166   7.010  1.6668  1.8712  2.0125
   21CHL1   C22 2716   4.386   1.149   6.915  0.7625  0.1569 -0.1271
   21CHL1  H22A 2717   4.286   1.111   6.885  1.1224 -1.4261  0.5812
   21CHL1  H22B 2718   4.376   1.259   6.925 -2.1710 -0.0489  0.0234
   21CHL1   C23 2719   4.476   1.125   6.795  0.4292 -0.7693  0.7646
   21CHL1  H23A 2720   4.574   1.177   6.806  0.0420  0.8505 -2.2786
   21CHL1  H23B 2721   4.475   1.014   6.797 -2.5568 -0.7991  2.1364
   21CHL1   C24 2722   4.417   1.183   6.667  0.3056  0.5896  0.1708
   21CHL1  H24A 2723   4.310   1.155   6.655  0.5251  0.0424 -0.5586
   21CHL1  H24B 2724   4.416   1.295   6.668  0.0177  0.6133 -1.0908
   21CHL1   C25 2725   4.485   1.150   6.532 -0.7952 -0.5352 -0.2045
   21CHL1   H25 2726   4.593   1.173   6.549 -0.7010 -1.8550  1.2317
   21CHL1   C26 2727   4.464   1.005   6.494  0.8731  0.0305 -0.5048
   21CHL1  H26A 2728   4.498   0.947   6.583  1.8343  1.8382  0.3622
   21CHL1  H26B 2729   4.356   0.978   6.487  0.4995  0.5359  2.0673
   21CHL1  H26C 2730   4.523   0.970   6.407 -0.0960  0.7660 -1.4901
   21CHL1   C27 2731   4.422   1.249   6.430  0.3731 -0.2943 -0.5710
   21CHL1  H27A 2732   4.464   1.349   6.454 -0.6410 -0.0367  0.1738
   21CHL1  H27B 2733   4.455   1.221   6.328 -0.5022  1.5251 -1.3969
   21CHL1  H27C 2734   4.314   1.269   6.443  0.5464 -0.2973  1.1760
   22CHL1    C3 2735   5.588   0.222   8.149  0.5090  0.1014 -0.1365
   22CHL1    H3 2736   5.489   0.266   8.124 -0.0938  0.4533  2.4696
   22CHL1    O3 2737   5.581   0.214   8.289 -0.4001  0.2089  0.1747
   22CHL1   H3' 2738   5.664   0.174   8.315 -0.4936  0.0166  0.1821
   22CHL1    C4 2739   5.610   0.085   8.082 -0.0046  0.7244  0.4518
   22CHL1   H4A 2740   5.707   0.045   8.118  0.7157 -0.0715 -2.1669
   22CHL1   H4B 2741   5.531   0.009   8.104  1.7765 -1.1486  0.6686
   22CHL1    C5 2742   5.630   0.096   7.933 -0.1422  0.7768  0.2471
   22CHL1    C6 2743   5.545   0.033   7.851  0.2003  0.0099  0.2301
   22CHL1    H6 2744   5.459  -0.027   7.886  0.9206 -0.3648  1.4106
   22CHL1    C7 2745   5.566   0.038   7.701  0.5186  0.0132  0.1454
   22CHL1   H7A 2746   5.562  -0.065   7.659  0.5236 -0.0456  0.2906
   22CHL1   H7B 2747   5.483   0.092   7.650 -0.9806 -2.0866  0.2030
   22CHL1    C8 2748   5.703   0.094   7.660 -0.3859 -0.2525  0.9257
   22CHL1    H8 2749   5.790   0.028   7.677 -0.1839  0.8451  5.2217
   22CHL1   C14 2750   5.687   0.141   7.514  0.2706  0.3946 -0.7121
   22CHL1   H14 2751   5.608   0.220   7.510 -0.5091 -0.3888 -1.1822
   22CHL1   C15 2752   5.650   0.037   7.408 -0.1382  0.0477 -0.0330
   22CHL1  H15A 2753   5.708  -0.057   7.423  0.8081  0.6599  0.1895
   22CHL1  H15B 2754   5.541   0.017   7.416  0.0833 -0.5735  1.7210
   22CHL1   C16 2755   5.688   0.101   7.268  0.1818  0.4100 -0.3533
   22CHL1  H16A 2756   5.743   0.026   7.206  1.9456  0.8170  0.6395
   22CHL1  H16B 2757   5.591   0.118   7.218  0.6651 -1.8186 -2.2011
   22CHL1   C17 2758   5.773   0.226   7.309 -0.0222  0.1701  0.0741
   22CHL1   H17 2759   5.700   0.309   7.312  1.6235  1.6481  2.6121
   22CHL1   C13 2760   5.813   0.203   7.457 -0.5669 -0.5571  0.0679
   22CHL1   C18 2761   5.929   0.103   7.456  0.6120  0.2495  0.8003
   22CHL1  H18A 2762   5.962   0.073   7.558 -1.0711 -1.2383  0.9441
   22CHL1  H18B 2763   5.899   0.014   7.397  1.9943 -0.7497  1.5570
   22CHL1  H18C 2764   6.010   0.156   7.401 -1.4980  0.4845 -2.3836
   22CHL1   C12 2765   5.842   0.330   7.533  0.0766 -1.0876 -0.1087
   22CHL1  H12A 2766   5.935   0.376   7.492 -0.6761  1.1177  0.4966
   22CHL1  H12B 2767   5.767   0.409   7.511 -0.0587 -1.3734 -0.6824
   22CHL1   C11 2768   5.860   0.302   7.681  0.3541 -0.1013  0.3140
   22CHL1  H11A 2769   5.949   0.236   7.685  1.1864  0.8436 -1.4644
   22CHL1  H11B 2770   5.891   0.387   7.745 -0.5238 -0.7908  1.7081
   22CHL1    C9 2771   5.735   0.221   7.735  0.1433 -0.1650  0.2546
   22CHL1    H9 2772   5.656   0.294   7.708  0.9443  0.5651 -0.1837
   22CHL1   C10 2773   5.734   0.199   7.889  0.0172 -0.5017 -0.3577
   22CHL1   C19 2774   5.871   0.146   7.928  0.4851  0.8863 -0.1020
   22CHL1  H19A 2775   5.909   0.075   7.851 -1.3344 -1.0664  0.7044
   22CHL1  H19B 2776   5.942   0.232   7.933 -0.4280  1.7507 -1.2658
   22CHL1  H19C 2777   5.885   0.097   8.027  0.4289 -1.4173 -1.1603
   22CHL1    C1 2778   5.714   0.340   7.965 -0.1886 -0.7583  0.0390
   22CHL1   H1A 2779   5.797   0.412   7.949  0.2086 -0.8314  1.5593
   22CHL1   H1B 2780   5.620   0.383   7.924  0.5619  0.4880 -0.4162
   22CHL1    C2 2781   5.697   0.325   8.118  0.4775 -0.1128  0.2091
   22CHL1   H2A 2782   5.667   0.430   8.139  0.8172  0.2020 -0.8255
   22CHL1   H2B 2783   5.798   0.294   8.154  0.4888  1.3215  1.5201
   22CHL1   C20 2784   5.889   0.258   7.200  0.3277  0.0346  0.2035
   22CHL1   H20 2785   5.958   0.171   7.198 -0.3798 -0.5359 -0.9101
   22CHL1   C21 2786   5.964   0.388   7.243 -0.0316  0.1413  0.5258
   22CHL1  H21A 2787   6.041   0.365   7.320  0.5711 -2.9360 -0.8534
   22CHL1  H21B 2788   5.886   0.462   7.271  0.5864  0.3328  1.8450
   22CHL1  H21C 2789   6.017   0.418   7.149 -0.8024 -1.0421 -0.3061
   22CHL1   C22 2790   5.831   0.270   7.058 -0.4678  0.1991  0.5445
   22CHL1  H22A 2791   5.774   0.177   7.036  1.0278 -0.7869  0.6735
   22CHL1  H22B 2792   5.762   0.357   7.059  1.1874  1.5668  0.9926
   22CHL1   C23 2793   5.922   0.277   6.937 -0.6566  0.3402  0.3730
   22CHL1  H23A 2794   5.992   0.363   6.947 -2.3727  1.8362  0.0180
   22CHL1  H23B 2795   5.976   0.180   6.934  1.5645  1.4814 -2.9302
   22CHL1   C24 2796   5.843   0.284   6.806  0.1891  0.0492 -0.4528
   22CHL1  H24A 2797   5.754   0.220   6.791  0.0220  0.8546 -3.4659
   22CHL1  H24B 2798   5.809   0.384   6.772  0.2287 -1.0671 -4.2317
   22CHL1   C25 2799   5.932   0.236   6.689 -0.0963  0.2047  0.4545
   22CHL1   H25 2800   5.980   0.141   6.721  0.8896  0.3048 -0.6363
   22CHL1   C26 2801   5.848   0.219   6.554  0.1621  0.0081  0.0770
   22CHL1  H26A 2802   5.807   0.315   6.517 -1.9689 -0.8226  0.1420
   22CHL1  H26B 2803   5.922   0.179   6.480 -0.8956 -1.7513 -0.0958
   22CHL1  H26C 2804   5.765   0.146   6.564  0.2471  0.0889  1.4476
   22CHL1   C27 2805   6.051   0.326   6.660 -0.0059 -0.6182  0.5460
   22CHL1  H27A 2806   6.021   0.434   6.664 -1.4683 -0.8711 -1.8579
   22CHL1  H27B 2807   6.139   0.331   6.728  0.1750  0.4165  0.2670
   22CHL1  H27C 2808   6.089   0.306   6.558  2.0296 -1.7784  1.4893
   23CHL1    C3 2809   5.217   0.965   8.276 -0.0767 -0.7205 -0.5653
   23CHL1    H3 2810   5.246   0.863   8.242 -0.0577 -1.0220  0.3226
   23CHL1    O3 2811   5.188   0.973   8.413 -0.0450 -0.1108 -0.8808
   23CHL1   H3' 2812   5.181   0.883   8.446  1.0206  0.5504  1.4257
   23CHL1    C4 2813   5.326   1.062   8.230 -0.2143 -0.4229  0.3317
   23CHL1   H4A 2814   5.285   1.160   8.264 -0.2388 -0.3528  0.1014
   23CHL1   H4B 2815   5.420   1.059   8.290 -0.6087 -0.0570  0.9833
   23CHL1    C5 2816   5.345   1.048   8.080  0.2541 -0.0594 -0.4109
   23CHL1    C6 2817   5.469   1.020   8.035  1.1084 -0.4691 -0.2510
   23CHL1    H6 2818   5.547   1.005   8.112  0.7167  1.2947  0.5378
   23CHL1    C7 2819   5.502   1.012   7.895  0.0591  0.0614 -0.5381
   23CHL1   H7A 2820   5.597   1.066   7.875  0.7852 -1.0407 -0.1777
   23CHL1   H7B 2821   5.531   0.905   7.882  2.6288 -0.0488  4.0749
   23CHL1    C8 2822   5.391   1.064   7.805  0.7421  0.6983 -0.6366
   23CHL1    H8 2823   5.398   1.175   7.803 -1.1917  0.8888  0.6803
   23CHL1   C14 2824   5.401   1.016   7.655  0.6716 -0.7377 -0.0569
   23CHL1   H14 2825   5.379   0.907   7.659 -2.7889 -0.1149  3.5692
   23CHL1   C15 2826   5.542   1.040   7.593  0.0206 -0.4330 -0.2732
   23CHL1  H15A 2827   5.580   1.142   7.614  2.2458 -1.0693 -1.0096
   23CHL1  H15B 2828   5.622   0.971   7.626 -0.4356  0.2891  2.5800
   23CHL1   C16 2829   5.512   1.027   7.451 -0.1788  0.3840  0.4673
   23CHL1  H16A 2830   5.550   1.120   7.403 -1.2608  1.4634  1.6429
   23CHL1  H16B 2831   5.563   0.938   7.408  3.5923  1.1849  2.8056
   23CHL1   C17 2832   5.354   1.022   7.437 -0.0786  0.1954 -0.6307
   23CHL1   H17 2833   5.326   0.915   7.442 -0.3147  0.3028  0.6039
   23CHL1   C13 2834   5.292   1.079   7.564  0.2189 -0.0171  0.0003
   23CHL1   C18 2835   5.296   1.234   7.555  0.0700 -0.9135 -0.1541
   23CHL1  H18A 2836   5.390   1.264   7.505  0.0816  1.4658  1.2036
   23CHL1  H18B 2837   5.203   1.262   7.499 -0.9696  0.3679  2.0927
   23CHL1  H18C 2838   5.297   1.289   7.651  0.1935 -0.1468 -0.5869
   23CHL1   C12 2839   5.157   1.019   7.609  0.5844  0.0407  0.1011
   23CHL1  H12A 2840   5.076   1.049   7.538  0.9213 -1.5061 -0.9923
   23CHL1  H12B 2841   5.164   0.909   7.596 -0.5413  0.0269 -0.6078
   23CHL1   C11 2842   5.130   1.063   7.755 -0.1458  0.0092  0.0493
   23CHL1  H11A 2843   5.102   1.170   7.756  0.9260  0.3072 -0.3555
   23CHL1  H11B 2844   5.038   1.003   7.775 -1.1292  0.3671 -2.9393
   23CHL1    C9 2845   5.247   1.028   7.853 -0.2169  0.3933  0.6709
   23CHL1    H9 2846   5.257   0.918   7.840  0.1959  0.6740 -1.8356
   23CHL1   C10 2847   5.220   1.070   7.997  0.4549  0.0582 -0.6919
   23CHL1   C19 2848   5.188   1.225   7.998 -0.0703 -0.1933 -1.3154
   23CHL1  H19A 2849   5.081   1.254   7.991  0.3360  2.2158  1.0575
   23CHL1  H19B 2850   5.232   1.279   8.084 -1.2457 -1.9979  0.5178
   23CHL1  H19C 2851   5.247   1.268   7.915  0.1136  0.9314 -0.6124
   23CHL1    C1 2852   5.098   0.981   8.045 -0.2547  0.3434 -1.2822
   23CHL1   H1A 2853   5.011   1.027   7.993 -1.3212  1.5856  1.3546
   23CHL1   H1B 2854   5.125   0.875   8.025  0.8040 -0.2065  2.2292
   23CHL1    C2 2855   5.085   0.991   8.197  0.1283  0.0291  0.3970
   23CHL1   H2A 2856   5.005   0.922   8.233 -0.9211  1.4606  0.8923
   23CHL1   H2B 2857   5.047   1.094   8.215 -1.8627 -0.6272  0.2257
   23CHL1   C20 2858   5.297   1.074   7.307  0.3052  0.8818 -0.1334
   23CHL1   H20 2859   5.332   1.180   7.302 -0.6494  1.1999 -0.1936
   23CHL1   C21 2860   5.143   1.080   7.306  0.7273 -0.5336  1.1068
   23CHL1  H21A 2861   5.105   1.090   7.202  1.6114  0.8455  0.8909
   23CHL1  H21B 2862   5.106   1.172   7.356  1.3978  0.5347 -0.2885
   23CHL1  H21C 2863   5.100   0.986   7.348 -3.3189  0.3804 -0.5426
   23CHL1   C22 2864   5.348   0.989   7.191 -0.1338  0.3407 -0.7903
   23CHL1  H22A 2865   5.457   0.966   7.193 -0.2010 -0.2191 -2.3864
   23CHL1  H22B 2866   5.304   0.888   7.207  0.1352  0.5304  1.5794
   23CHL1   C23 2867   5.318   1.042   7.050  0.2282  0.1134 -0.0551
   23CHL1  H23A 2868   5.210   1.032   7.024  0.8881 -0.5125 -2.8378
   23CHL1  H23B 2869   5.343   1.149   7.036 -1.2066  0.3258 -1.2178
   23CHL1   C24 2870   5.398   0.964   6.949  0.1607 -0.4370 -0.3772
   23CHL1  H24A 2871   5.507   0.974   6.969 -0.2781 -0.5037  2.4667
   23CHL1  H24B 2872   5.371   0.856   6.955 -2.0239  0.0939 -0.0311
   23CHL1   C25 2873   5.370   1.002   6.802 -0.1955 -0.0196 -0.5728
   23CHL1   H25 2874   5.397   1.109   6.798 -0.9438  0.1907 -0.2776
   23CHL1   C26 2875   5.450   0.926   6.694 -0.4388 -0.3581  0.0633
   23CHL1  H26A 2876   5.467   0.989   6.604 -0.9489 -0.5881 -0.1973
   23CHL1  H26B 2877   5.543   0.874   6.727 -0.7563 -0.4247  0.8754
   23CHL1  H26C 2878   5.390   0.842   6.652 -0.7123  1.0565 -2.6078
   23CHL1   C27 2879   5.219   0.976   6.759  0.3460  0.7354  0.2395
   23CHL1  H27A 2880   5.209   1.005   6.652 -2.6297  2.0750  0.7752
   23CHL1  H27B 2881   5.185   0.871   6.773 -2.0406  1.5156  0.7037
   23CHL1  H27C 2882   5.160   1.043   6.824  2.5759  0.2626  2.9239
   24CHL1    C3 2883   6.600   2.267   8.329  0.3423 -0.7092  0.3275
   24CHL1    H3 2884   6.539   2.175   8.328 -1.1730  0.2525 -1.3043
   24CHL1    O3 2885   6.623   2.338   8.448  1.0322  0.0425 -0.1059
   24CHL1   H3' 2886   6.707   2.311   8.486  0.7900  0.5516  0.8250
   24CHL1    C4 2887   6.743   2.217   8.285 -0.2614  0.6396 -0.0419
   24CHL1   H4A 2888   6.817   2.300   8.293  2.5338 -1.7939  1.9324
   24CHL1   H4B 2889   6.785   2.150   8.364 -1.2998  0.5416  0.4472
   24CHL1    C5 2890   6.730   2.148   8.143  0.1687 -0.3968 -0.0274
   24CHL1    C6 2891   6.774   2.024   8.123  0.2588 -0.2904 -0.5868
   24CHL1    H6 2892   6.823   1.964   8.201  0.4577  0.9769  0.2845
   24CHL1    C7 2893   6.760   1.954   7.990 -0.7987  0.7048  0.6887
   24CHL1   H7A 2894   6.856   1.905   7.961 -0.8481  1.5211 -0.9586
   24CHL1   H7B 2895   6.683   1.874   7.990  0.1455 -0.3075 -2.0854
   24CHL1    C8 2896   6.728   2.048   7.874  0.3991  0.1700 -0.1085
   24CHL1    H8 2897   6.815   2.107   7.839 -0.6966  1.3113 -1.0039
   24CHL1   C14 2898   6.687   1.969   7.748 -0.9754  0.2641 -0.3254
   24CHL1   H14 2899   6.589   1.924   7.771 -1.2303  0.5583 -0.8079
   24CHL1   C15 2900   6.778   1.856   7.706 -0.3642 -0.3251 -0.7223
   24CHL1  H15A 2901   6.882   1.891   7.721 -0.2470  0.2101 -2.5063
   24CHL1  H15B 2902   6.771   1.768   7.774  1.1165 -0.2313 -0.4241
   24CHL1   C16 2903   6.733   1.820   7.561  0.5517 -0.6417  0.9703
   24CHL1  H16A 2904   6.823   1.821   7.496 -1.9269 -2.5964 -2.8599
   24CHL1  H16B 2905   6.690   1.717   7.559 -1.1247  0.0266 -1.3126
   24CHL1   C17 2906   6.627   1.934   7.521 -0.6200  0.8063 -0.3084
   24CHL1   H17 2907   6.521   1.908   7.544 -0.5659  3.1304  3.4152
   24CHL1   C13 2908   6.657   2.053   7.625 -0.8343  0.0141 -0.1939
   24CHL1   C18 2909   6.778   2.138   7.581  0.5344  0.0301 -0.1243
   24CHL1  H18A 2910   6.768   2.187   7.482 -0.3921  1.4917  0.6498
   24CHL1  H18B 2911   6.800   2.216   7.658 -0.6865  0.7575 -0.4806
   24CHL1  H18C 2912   6.869   2.076   7.572  0.6658  0.2147 -0.0789
   24CHL1   C12 2913   6.538   2.147   7.665 -0.2560  0.3158  1.3457
   24CHL1  H12A 2914   6.519   2.215   7.580  1.8723  1.0603  1.4193
   24CHL1  H12B 2915   6.448   2.082   7.675  1.7414 -2.5082  2.2261
   24CHL1   C11 2916   6.565   2.231   7.790 -0.1823  0.1780 -0.1080
   24CHL1  H11A 2917   6.647   2.303   7.767  0.7908 -0.3082  1.6351
   24CHL1  H11B 2918   6.474   2.280   7.833 -0.7417 -2.3524  1.8449
   24CHL1    C9 2919   6.617   2.151   7.913  0.1841  0.4507  0.3884
   24CHL1    H9 2920   6.535   2.079   7.935  1.3441 -0.9911  0.1963
   24CHL1   C10 2921   6.657   2.237   8.037 -0.3022 -0.0512  0.4142
   24CHL1   C19 2922   6.762   2.347   8.007 -0.2846  0.1322  0.7490
   24CHL1  H19A 2923   6.726   2.419   7.930  2.4592  0.5601 -0.2307
   24CHL1  H19B 2924   6.785   2.405   8.099 -3.9659 -0.6915  2.3661
   24CHL1  H19C 2925   6.848   2.301   7.955 -0.1900  1.1900 -0.0768
   24CHL1    C1 2926   6.532   2.301   8.093 -0.1112  0.4859 -0.1640
   24CHL1   H1A 2927   6.506   2.385   8.025  1.3664  0.4514 -0.8083
   24CHL1   H1B 2928   6.450   2.227   8.099  0.5471 -0.1880  0.7086
   24CHL1    C2 2929   6.547   2.365   8.235  0.2309  0.4468 -0.2992
   24CHL1   H2A 2930   6.450   2.411   8.266 -0.7855 -1.8528  0.1787
   24CHL1   H2B 2931   6.610   2.457   8.229  1.9100 -0.6150  0.3185
   24CHL1   C20 2932   6.636   1.960   7.367 -0.0254  0.8760  0.3218
   24CHL1   H20 2933   6.745   1.982   7.358  0.3144 -0.8018  0.0650
   24CHL1   C21 2934   6.530   2.066   7.325  0.6411 -0.7526  0.1799
   24CHL1  H21A 2935   6.435   2.027   7.367  0.4057 -0.4131 -0.0328
   24CHL1  H21B 2936   6.527   2.073   7.214 -1.1158 -1.8123  0.1201
   24CHL1  H21C 2937   6.572   2.161   7.365  1.1781  0.3462 -2.7467
   24CHL1   C22 2938   6.608   1.833   7.279 -0.5588  0.1595 -0.5403
   24CHL1  H22A 2939   6.657   1.744   7.324 -1.0065 -1.1479 -2.5146
   24CHL1  H22B 2940   6.498   1.815   7.283 -0.2330 -2.0974 -0.3014
   24CHL1   C23 2941   6.662   1.841   7.136  0.3702  0.1522  0.5299
   24CHL1  H23A 2942   6.614   1.927   7.086  1.1954 -0.4500 -1.4313
   24CHL1  H23B 2943   6.773   1.853   7.131  0.1939  1.2772 -1.6672
   24CHL1   C24 2944   6.627   1.699   7.069 -0.3723 -0.2611  0.1998
   24CHL1  H24A 2945   6.678   1.610   7.112  1.4827  0.7042  0.1170
   24CHL1  H24B 2946   6.518   1.683   7.083 -0.6021  1.5324  0.8393
   24CHL1   C25 2947   6.666   1.691   6.920  0.2219 -0.5411  0.0332
   24CHL1   H25 2948   6.775   1.708   6.929  0.1162 -0.0672  0.4329
   24CHL1   C26 2949   6.625   1.558   6.855  0.2065  0.2386  0.8174
   24CHL1  H26A 2950   6.525   1.569   6.808  1.0658  0.2278 -1.1441
   24CHL1  H26B 2951   6.696   1.535   6.772 -0.4983 -0.8582  0.4885
   24CHL1  H26C 2952   6.634   1.466   6.917 -1.6359 -0.5841 -0.0595
   24CHL1   C27 2953   6.602   1.803   6.838  0.0564  0.0240 -0.8300
   24CHL1  H27A 2954   6.493   1.786   6.850  0.4797 -1.9251  0.7068
   24CHL1  H27B 2955   6.629   1.905   6.871 -0.0005  0.0498 -0.8621
   24CHL1  H27C 2956   6.628   1.799   6.730  0.4761 -1.1353 -0.6953
   25CHL1    C3 2957   2.591   4.243   7.980 -0.3312  0.1110 -0.6220
   25CHL1    H3 2958   2.699   4.224   7.961  0.3717 -0.1910  2.9204
   25CHL1    O3 2959   2.576   4.259   8.119 -0.0521  0.7232  0.2166
   25CHL1   H3' 2960   2.626   4.183   8.147  0.5599  0.5689 -1.2099
   25CHL1    C4 2961   2.556   4.374   7.910 -0.6718  0.0286 -1.2831
   25CHL1   H4A 2962   2.454   4.398   7.947  1.0720  0.0190  4.4689
   25CHL1   H4B 2963   2.622   4.454   7.948 -0.4956 -0.9307  0.5520
   25CHL1    C5 2964   2.570   4.361   7.763  0.2666  0.0302 -0.3957
   25CHL1    C6 2965   2.642   4.446   7.689  0.3640 -0.1395  0.3474
   25CHL1    H6 2966   2.689   4.528   7.746 -1.5865 -0.3082  2.3448
   25CHL1    C7 2967   2.649   4.445   7.539 -0.4932  1.0612 -0.2488
   25CHL1   H7A 2968   2.663   4.543   7.488  1.2947  1.1514  0.3629
   25CHL1   H7B 2969   2.741   4.387   7.516 -1.6564 -0.6299 -0.8464
   25CHL1    C8 2970   2.529   4.369   7.473 -0.7068 -0.0487  0.2921
   25CHL1    H8 2971   2.431   4.419   7.479 -1.0212 -0.7146  0.9061
   25CHL1   C14 2972   2.568   4.341   7.327 -0.7098  0.3192  0.0875
   25CHL1   H14 2973   2.659   4.279   7.346 -1.2077 -1.0801 -1.8185
   25CHL1   C15 2974   2.619   4.450   7.237  0.2805  0.7001  0.2668
   25CHL1  H15A 2975   2.564   4.545   7.256  1.3669  1.2531  0.7320
   25CHL1  H15B 2976   2.727   4.457   7.264  0.8957  1.1584 -2.0782
   25CHL1   C16 2977   2.613   4.389   7.092  0.0309  0.1826  0.0703
   25CHL1  H16A 2978   2.536   4.450   7.041 -0.4746 -1.1260 -0.7803
   25CHL1  H16B 2979   2.702   4.401   7.026 -0.8307  1.1493 -0.9512
   25CHL1   C17 2980   2.559   4.242   7.108 -0.3090 -0.0756  0.1109
   25CHL1   H17 2981   2.644   4.179   7.140  0.1629  0.0640 -0.8247
   25CHL1   C13 2982   2.470   4.243   7.241 -0.5990 -0.5363  0.1120
   25CHL1   C18 2983   2.343   4.326   7.218  0.9988  0.0538  0.9208
   25CHL1  H18A 2984   2.288   4.340   7.313 -1.1834 -1.3509 -0.0692
   25CHL1  H18B 2985   2.364   4.429   7.182 -0.4899  0.8162  2.1295
   25CHL1  H18C 2986   2.275   4.279   7.144  1.4121  0.8311  0.0153
   25CHL1   C12 2987   2.444   4.114   7.321 -0.5559 -0.2433  0.8132
   25CHL1  H12A 2988   2.357   4.067   7.270  0.3080 -1.8012  0.7280
   25CHL1  H12B 2989   2.534   4.050   7.326  1.0317  1.8401  0.3715
   25CHL1   C11 2990   2.407   4.142   7.470 -0.6895 -0.2893 -1.1455
   25CHL1  H11A 2991   2.306   4.188   7.477  0.3558  2.3337 -2.1224
   25CHL1  H11B 2992   2.393   4.041   7.516 -0.1459  0.0983 -0.0860
   25CHL1    C9 2993   2.509   4.230   7.547 -0.0181  0.2875 -0.2318
   25CHL1    H9 2994   2.605   4.175   7.545 -1.2039 -1.8622 -0.8215
   25CHL1   C10 2995   2.483   4.252   7.699 -0.6897  0.0106 -0.2404
   25CHL1   C19 2996   2.333   4.289   7.708 -0.9735  0.3093  0.4096
   25CHL1  H19A 2997   2.261   4.217   7.664 -0.5625  1.6605 -2.8023
   25CHL1  H19B 2998   2.302   4.307   7.813 -0.5279  0.8829  0.4488
   25CHL1  H19C 2999   2.311   4.383   7.653  0.4033 -0.8567 -2.3703
   25CHL1    C1 3000   2.513   4.119   7.777 -0.0320 -0.3184 -0.2007
   25CHL1   H1A 3001   2.435   4.049   7.741 -0.6768  0.3563 -0.1547
   25CHL1   H1B 3002   2.616   4.092   7.747  0.8029 -0.1385  2.2509
   25CHL1    C2 3003   2.494   4.129   7.934 -0.3841 -0.1072 -0.1311
   25CHL1   H2A 3004   2.496   4.028   7.980  1.2801 -0.1236 -0.1929
   25CHL1   H2B 3005   2.391   4.161   7.961  0.1632  1.1333  0.5588
   25CHL1   C20 3006   2.498   4.181   6.980  0.2620 -0.6043 -0.0135
   25CHL1   H20 3007   2.395   4.223   6.983  0.0979 -0.9194 -0.7903
   25CHL1   C21 3008   2.493   4.028   7.003  0.3216 -0.5388 -0.0186
   25CHL1  H21A 3009   2.474   3.965   6.913  2.2492  2.1704 -2.5298
   25CHL1  H21B 3010   2.426   3.992   7.084  0.6172 -1.6934 -0.2677
   25CHL1  H21C 3011   2.592   3.988   7.035  0.1191  1.5885  3.8955
   25CHL1   C22 3012   2.563   4.216   6.847  0.5089  0.2286 -0.4330
   25CHL1  H22A 3013   2.577   4.326   6.837  2.9422 -0.0911 -1.3612
   25CHL1  H22B 3014   2.664   4.169   6.850  0.3869 -0.0811 -1.2177
   25CHL1   C23 3015   2.486   4.171   6.715 -0.3254 -1.0902 -0.6763
   25CHL1  H23A 3016   2.471   4.061   6.706 -0.9903 -0.9554 -1.3742
   25CHL1  H23B 3017   2.380   4.207   6.712 -0.2507 -0.7018  0.6009
   25CHL1   C24 3018   2.547   4.230   6.583  0.0795  0.1604  0.6665
   25CHL1  H24A 3019   2.478   4.198   6.502 -0.0711  1.9730  0.0308
   25CHL1  H24B 3020   2.535   4.341   6.580 -0.5829  0.0772 -0.1246
   25CHL1   C25 3021   2.689   4.194   6.536  0.0557 -0.1700  0.1263
   25CHL1   H25 3022   2.751   4.231   6.620 -0.0280  1.2349 -0.4069
   25CHL1   C26 3023   2.700   4.045   6.506  0.6423  0.3775  0.3836
   25CHL1  H26A 3024   2.620   4.005   6.441  0.3604  2.8774 -0.9236
   25CHL1  H26B 3025   2.792   4.044   6.444  0.8544  2.0303  0.6173
   25CHL1  H26C 3026   2.704   3.973   6.591 -0.1305  1.1812  1.1254
   25CHL1   C27 3027   2.720   4.277   6.411  0.2802  0.3075 -0.2496
   25CHL1  H27A 3028   2.734   4.381   6.450  0.0947 -0.0005  0.6720
   25CHL1  H27B 3029   2.806   4.241   6.351  1.2737 -0.6116  1.6365
   25CHL1  H27C 3030   2.635   4.279   6.339 -0.6224  0.2463  0.7877
   26CHL1    C3 3031   6.831   3.325   8.025  0.4409  0.3776 -0.5849
   26CHL1    H3 3032   6.936   3.333   7.990 -0.3807  0.7114 -3.1507
   26CHL1    O3 3033   6.809   3.377   8.156  0.2157 -0.3106  0.0036
   26CHL1   H3' 3034   6.714   3.371   8.166  0.3167 -0.7797  0.7095
   26CHL1    C4 3035   6.741   3.397   7.926  0.1114 -0.3503  0.8811
   26CHL1   H4A 3036   6.635   3.377   7.955 -0.5151  0.6511 -0.6273
   26CHL1   H4B 3037   6.749   3.507   7.924  1.0793 -0.4173  0.6434
   26CHL1    C5 3038   6.753   3.342   7.782 -0.8053 -0.5393 -0.3283
   26CHL1    C6 3039   6.799   3.428   7.688 -0.0608 -0.7901 -0.7455
   26CHL1    H6 3040   6.806   3.533   7.719  0.9484 -1.4661  1.5045
   26CHL1    C7 3041   6.837   3.389   7.546  0.3048  0.5083  0.7852
   26CHL1   H7A 3042   6.795   3.468   7.481 -0.4724  0.9529  1.8002
   26CHL1   H7B 3043   6.948   3.394   7.540  0.2875  0.9370  0.7935
   26CHL1    C8 3044   6.770   3.249   7.511 -0.7776 -0.1986 -0.1411
   26CHL1    H8 3045   6.666   3.286   7.493  0.9626  4.7084 -1.8968
   26CHL1   C14 3046   6.823   3.194   7.385  0.3492  0.2099  0.7333
   26CHL1   H14 3047   6.929   3.178   7.413  0.8984  1.8438 -0.2493
   26CHL1   C15 3048   6.810   3.277   7.256  1.2912 -0.3229 -0.0003
   26CHL1  H15A 3049   6.709   3.324   7.260  1.3413 -0.2933  1.5575
   26CHL1  H15B 3050   6.886   3.357   7.257 -0.1718  1.2806 -3.0230
   26CHL1   C16 3051   6.842   3.185   7.140  0.1384  0.2379 -0.0057
   26CHL1  H16A 3052   6.763   3.196   7.063 -0.1212  2.6959  0.5443
   26CHL1  H16B 3053   6.941   3.217   7.100  1.0051  0.0371  1.8491
   26CHL1   C17 3054   6.847   3.036   7.207 -0.3137 -0.7534 -0.4827
   26CHL1   H17 3055   6.954   3.023   7.235 -0.0478 -0.1572 -1.1942
   26CHL1   C13 3056   6.771   3.054   7.342  0.3295  0.4673  0.6405
   26CHL1   C18 3057   6.625   3.074   7.314  0.1235 -0.2602  0.3936
   26CHL1  H18A 3058   6.591   3.126   7.222  2.4158  0.0433 -0.3442
   26CHL1  H18B 3059   6.587   2.972   7.292  1.4800 -0.7628  0.2803
   26CHL1  H18C 3060   6.570   3.112   7.403  0.6878 -0.1987  0.7201
   26CHL1   C12 3061   6.796   2.950   7.450  0.2384 -0.6063 -0.1877
   26CHL1  H12A 3062   6.758   2.847   7.430 -0.0616 -0.4250 -0.5700
   26CHL1  H12B 3063   6.906   2.937   7.449  0.2670 -0.8607  1.7789
   26CHL1   C11 3064   6.737   3.002   7.579  0.0680 -0.2444 -0.8058
   26CHL1  H11A 3065   6.626   3.004   7.579 -0.0771 -2.7408  0.7988
   26CHL1  H11B 3066   6.769   2.939   7.665  2.4864 -0.1847 -1.5707
   26CHL1    C9 3067   6.782   3.147   7.627 -0.9613  0.4481  1.1006
   26CHL1    H9 3068   6.892   3.131   7.630 -0.9141  0.3822 -0.2346
   26CHL1   C10 3069   6.728   3.191   7.763 -0.9061 -0.5891  0.0910
   26CHL1   C19 3070   6.576   3.155   7.779  0.9350  0.3498 -0.0097
   26CHL1  H19A 3071   6.569   3.045   7.792  0.5995  0.6201  2.8762
   26CHL1  H19B 3072   6.529   3.200   7.870 -1.2644 -1.0393 -0.3918
   26CHL1  H19C 3073   6.515   3.186   7.692  0.7681  0.3990  0.1255
   26CHL1    C1 3074   6.820   3.117   7.867 -0.1063 -0.5736 -0.5379
   26CHL1   H1A 3075   6.801   3.007   7.869  1.8199 -0.9311 -0.4927
   26CHL1   H1B 3076   6.926   3.137   7.840 -0.3342  1.0744 -0.3020
   26CHL1    C2 3077   6.809   3.173   8.013 -0.0063 -0.1979 -0.9012
   26CHL1   H2A 3078   6.888   3.130   8.079 -0.3478  0.5337  0.0147
   26CHL1   H2B 3079   6.713   3.142   8.059 -0.7199  0.1694 -2.0823
   26CHL1   C20 3080   6.807   2.936   7.098  0.0719  0.3440 -0.2940
   26CHL1   H20 3081   6.706   2.963   7.061 -1.7688 -0.2798  3.6843
   26CHL1   C21 3082   6.807   2.793   7.160  0.3622 -0.6614 -0.3526
   26CHL1  H21A 3083   6.905   2.774   7.209 -1.5525 -1.2832  3.6409
   26CHL1  H21B 3084   6.790   2.715   7.083  2.9351  0.5238 -2.2610
   26CHL1  H21C 3085   6.738   2.783   7.247 -1.1981  1.8223 -1.2014
   26CHL1   C22 3086   6.914   2.935   6.981  0.6722 -0.3851 -0.5661
   26CHL1  H22A 3087   6.914   3.029   6.921 -3.9613  0.9947  1.1219
   26CHL1  H22B 3088   7.009   2.926   7.038 -0.5409 -0.7841  1.5216
   26CHL1   C23 3089   6.909   2.826   6.868  0.0157  0.2709 -0.0866
   26CHL1  H23A 3090   6.930   2.728   6.915  3.8287  1.0610  0.2454
   26CHL1  H23B 3091   6.815   2.829   6.809 -0.0354  0.5406  0.0048
   26CHL1   C24 3092   7.023   2.852   6.767  0.1273 -0.0514 -0.4754
   26CHL1  H24A 3093   7.008   2.941   6.702  1.7981  0.8570  0.3190
   26CHL1  H24B 3094   7.115   2.883   6.820 -0.3671  2.0863 -0.7822
   26CHL1   C25 3095   7.058   2.726   6.679 -0.8838 -0.0292 -0.0490
   26CHL1   H25 3096   7.038   2.629   6.729  1.2481 -0.0916  0.8015
   26CHL1   C26 3097   6.978   2.725   6.551  0.5074  0.1698 -0.0580
   26CHL1  H26A 3098   6.870   2.709   6.573  0.7636  0.5092  1.5514
   26CHL1  H26B 3099   6.985   2.819   6.493 -1.9347  0.3313 -0.2158
   26CHL1  H26C 3100   7.006   2.638   6.487 -0.6976  0.7537 -1.4430
   26CHL1   C27 3101   7.196   2.741   6.624 -0.1400  0.6493 -0.0573
   26CHL1  H27A 3102   7.267   2.719   6.707 -0.0718  0.7850 -0.0798
   26CHL1  H27B 3103   7.223   2.671   6.541  0.5057 -0.6688  1.2049
   26CHL1  H27C 3104   7.217   2.846   6.595 -1.4923  0.5728 -1.3891
   27CHL1    C3 3105   5.760   1.054   8.381 -0.0426 -0.1569  0.5932
   27CHL1    H3 3106   5.653   1.055   8.351 -0.2106  2.1942  1.0756
   27CHL1    O3 3107   5.761   1.080   8.519  0.2297  0.5782  0.4286
   27CHL1   H3' 3108   5.853   1.076   8.547 -0.3359  2.0638  2.8158
   27CHL1    C4 3109   5.828   0.914   8.361 -0.2474  0.3375  0.0654
   27CHL1   H4A 3110   5.929   0.926   8.404 -0.0089  0.8002 -0.6135
   27CHL1   H4B 3111   5.764   0.844   8.419  1.0331  0.4140  1.6094
   27CHL1    C5 3112   5.840   0.882   8.213 -0.2362 -0.3671 -0.5562
   27CHL1    C6 3113   5.802   0.764   8.167  0.1082 -0.3746  0.1813
   27CHL1    H6 3114   5.760   0.693   8.239  1.4105  1.0397  2.4686
   27CHL1    C7 3115   5.824   0.726   8.024  1.3143 -0.0827  0.0314
   27CHL1   H7A 3116   5.864   0.623   8.015 -0.3032 -0.6889 -0.4575
   27CHL1   H7B 3117   5.723   0.725   7.979  1.7061 -2.1146 -0.9256
   27CHL1    C8 3118   5.906   0.824   7.945 -0.1603 -0.0415 -0.2762
   27CHL1    H8 3119   6.012   0.796   7.968 -0.6904 -1.1451  0.9387
   27CHL1   C14 3120   5.876   0.801   7.798 -1.2345  0.1114 -0.1280
   27CHL1   H14 3121   5.773   0.842   7.786 -0.3158  1.9240 -2.8010
   27CHL1   C15 3122   5.877   0.656   7.728 -0.7769 -0.1392 -0.3634
   27CHL1  H15A 3123   5.959   0.598   7.774 -0.3247  1.0918  0.4523
   27CHL1  H15B 3124   5.777   0.619   7.758 -1.5027  2.3336  0.5224
   27CHL1   C16 3125   5.901   0.673   7.580  0.6453 -0.7352  0.3373
   27CHL1  H16A 3126   5.995   0.626   7.546  2.2120  1.2461  1.6678
   27CHL1  H16B 3127   5.816   0.626   7.525 -0.4558 -0.9299  2.1107
   27CHL1   C17 3128   5.894   0.830   7.564  0.1975 -0.0886  0.1076
   27CHL1   H17 3129   5.787   0.861   7.565  0.2900  0.2524 -0.1680
   27CHL1   C13 3130   5.949   0.891   7.697 -0.1277 -0.2414  1.1055
   27CHL1   C18 3131   6.102   0.870   7.692  0.9252 -0.5521 -0.0203
   27CHL1  H18A 3132   6.168   0.942   7.639  0.1513  0.6713  0.6328
   27CHL1  H18B 3133   6.148   0.858   7.792 -1.5152 -1.2075  1.1043
   27CHL1  H18C 3134   6.108   0.773   7.638 -1.2894 -0.6390 -0.1847
   27CHL1   C12 3135   5.914   1.032   7.744 -0.1896  0.2892 -0.1750
   27CHL1  H12A 3136   5.962   1.106   7.675 -3.1367  1.5923 -0.9839
   27CHL1  H12B 3137   5.805   1.050   7.745 -0.5700 -1.8080  0.5898
   27CHL1   C11 3138   5.963   1.059   7.889 -0.9389 -0.4637 -0.0600
   27CHL1  H11A 3139   6.073   1.054   7.900 -0.7694  0.4674 -1.1151
   27CHL1  H11B 3140   5.952   1.166   7.916  2.9894 -0.3414  1.5889
   27CHL1    C9 3141   5.882   0.967   7.987  0.2755  0.6813 -0.5674
   27CHL1    H9 3142   5.777   0.993   7.963  0.0667 -0.3495 -0.8282
   27CHL1   C10 3143   5.904   0.995   8.136 -0.4950 -0.5601  0.2158
   27CHL1   C19 3144   6.058   1.003   8.159  0.6470  0.6827 -0.2279
   27CHL1  H19A 3145   6.106   0.916   8.109  0.1056 -0.4071  1.0925
   27CHL1  H19B 3146   6.100   1.099   8.122  0.7067 -0.5008 -3.5270
   27CHL1  H19C 3147   6.095   0.996   8.264  1.4759 -1.2913 -0.6009
   27CHL1    C1 3148   5.851   1.133   8.162  0.5694 -0.0362 -0.0196
   27CHL1   H1A 3149   5.914   1.208   8.111  1.2179  0.2345  1.1456
   27CHL1   H1B 3150   5.746   1.143   8.126  0.3714  3.6891  1.1645
   27CHL1    C2 3151   5.835   1.164   8.309  0.0862 -0.1274 -0.0182
   27CHL1   H2A 3152   5.789   1.263   8.327  1.1822  0.2111  1.0731
   27CHL1   H2B 3153   5.937   1.166   8.355 -0.7651 -0.8814  2.0225
   27CHL1   C20 3154   5.938   0.870   7.422  0.1771 -0.1827  0.6224
   27CHL1   H20 3155   6.043   0.834   7.410 -0.1693 -0.8711 -0.5221
   27CHL1   C21 3156   5.935   1.023   7.396 -0.4452 -0.6043  0.8739
   27CHL1  H21A 3157   5.835   1.069   7.382  0.3368  0.5881 -1.0438
   27CHL1  H21B 3158   5.993   1.049   7.305 -0.0857 -0.0940  1.2420
   27CHL1  H21C 3159   5.993   1.067   7.480 -2.7401  0.1741  2.1629
   27CHL1   C22 3160   5.862   0.802   7.308 -0.0256  0.2327 -0.0584
   27CHL1  H22A 3161   5.860   0.692   7.323  0.3305  0.0390 -1.2940
   27CHL1  H22B 3162   5.755   0.829   7.294 -0.8592 -2.8591 -0.3855
   27CHL1   C23 3163   5.931   0.815   7.169  0.2539  1.1827  0.9481
   27CHL1  H23A 3164   5.949   0.922   7.144 -0.2717  0.9660 -0.4350
   27CHL1  H23B 3165   6.030   0.765   7.177  0.2090  1.1335  1.1921
   27CHL1   C24 3166   5.842   0.762   7.052  0.2244 -0.1452 -0.3235
   27CHL1  H24A 3167   5.826   0.653   7.070 -2.0042 -0.6440 -4.2959
   27CHL1  H24B 3168   5.741   0.808   7.062  0.6051  0.4097  1.2896
   27CHL1   C25 3169   5.913   0.777   6.916  0.5578  0.6037 -0.2511
   27CHL1   H25 3170   6.017   0.741   6.931  0.3720 -1.0719 -2.4735
   27CHL1   C26 3171   5.846   0.692   6.802 -0.4492 -0.5850  0.0410
   27CHL1  H26A 3172   5.913   0.690   6.713 -0.1696 -0.8743  0.2574
   27CHL1  H26B 3173   5.843   0.586   6.836 -1.6080 -0.5395  0.1188
   27CHL1  H26C 3174   5.742   0.720   6.774  0.0551  0.7613 -0.5816
   27CHL1   C27 3175   5.917   0.919   6.867 -0.8151  0.2948  0.0949
   27CHL1  H27A 3176   5.821   0.975   6.874 -0.4634  1.1957 -1.5573
   27CHL1  H27B 3177   5.946   0.912   6.760 -0.5395 -0.7587  0.2259
   27CHL1  H27C 3178   5.995   0.979   6.918  0.2257  0.8086 -1.9840
   28CHL1    C3 3179   1.411   6.645   8.155  0.3846  0.0280 -0.0407
   28CHL1    H3 3180   1.418   6.534   8.162 -0.6147 -0.0639 -0.3986
   28CHL1    O3 3181   1.380   6.696   8.280  0.2862 -0.3707  0.1076
   28CHL1   H3' 3182   1.308   6.756   8.260  0.4781 -0.4519 -0.8686
   28CHL1    C4 3183   1.539   6.705   8.096 -0.3246  0.0645 -0.3487
   28CHL1   H4A 3184   1.544   6.815   8.110  0.1703 -0.0153  0.1504
   28CHL1   H4B 3185   1.615   6.677   8.172  1.0198  1.9553 -0.9196
   28CHL1    C5 3186   1.579   6.661   7.959  0.4062 -0.0872 -0.3121
   28CHL1    C6 3187   1.700   6.602   7.945 -0.1027  0.3819 -0.3659
   28CHL1    H6 3188   1.769   6.597   8.031  0.7307 -0.2194 -1.0512
   28CHL1    C7 3189   1.732   6.535   7.815 -0.0834 -0.9427 -0.3782
   28CHL1   H7A 3190   1.836   6.566   7.789 -0.6444 -0.4466 -2.1819
   28CHL1   H7B 3191   1.719   6.425   7.819  1.2643 -1.1709 -1.3704
   28CHL1    C8 3192   1.645   6.589   7.696 -0.3671  0.4275  0.2650
   28CHL1    H8 3193   1.679   6.693   7.675  0.0968  0.2280  0.0194
   28CHL1   C14 3194   1.666   6.504   7.570 -0.0236  0.6564 -0.3588
   28CHL1   H14 3195   1.621   6.404   7.589 -1.8381  1.4089 -0.5624
   28CHL1   C15 3196   1.808   6.469   7.525 -0.5554  0.3738 -0.1507
   28CHL1  H15A 3197   1.876   6.557   7.522 -1.5680  1.1812  0.1480
   28CHL1  H15B 3198   1.844   6.395   7.599 -0.4662 -0.1268 -0.6827
   28CHL1   C16 3199   1.793   6.416   7.383  0.7740 -0.6245  0.6410
   28CHL1  H16A 3200   1.869   6.457   7.313  1.0364  0.3318  1.4526
   28CHL1  H16B 3201   1.806   6.306   7.381  1.7590 -0.5030 -1.2667
   28CHL1   C17 3202   1.643   6.439   7.350  0.2030 -0.0252 -0.3399
   28CHL1   H17 3203   1.591   6.347   7.386  1.4895 -0.9832 -0.8507
   28CHL1   C13 3204   1.595   6.551   7.444 -0.3505  0.7126 -0.0220
   28CHL1   C18 3205   1.646   6.697   7.405  0.0064 -0.4052  0.3278
   28CHL1  H18A 3206   1.747   6.688   7.359 -0.4462  0.1550 -0.7986
   28CHL1  H18B 3207   1.579   6.745   7.331  0.8797 -1.8772 -1.5044
   28CHL1  H18C 3208   1.649   6.763   7.495  0.0142  0.7284 -0.4814
   28CHL1   C12 3209   1.441   6.554   7.481  0.0614 -0.1721  0.0947
   28CHL1  H12A 3210   1.383   6.597   7.397  1.2222 -0.0026 -0.6409
   28CHL1  H12B 3211   1.398   6.451   7.487  1.4542 -0.7617  0.2471
   28CHL1   C11 3212   1.408   6.642   7.605  0.5273  0.1302  0.0277
   28CHL1  H11A 3213   1.448   6.744   7.585 -0.6286  1.4753  3.7811
   28CHL1  H11B 3214   1.303   6.639   7.640  0.5769 -0.7665  0.1296
   28CHL1    C9 3215   1.497   6.595   7.727 -0.0931  0.3349  0.1401
   28CHL1    H9 3216   1.458   6.493   7.748 -0.8392  0.9745  2.1202
   28CHL1   C10 3217   1.467   6.676   7.856 -0.5476  1.0371 -0.4284
   28CHL1   C19 3218   1.473   6.821   7.818  0.1837  0.4669 -0.0206
   28CHL1  H19A 3219   1.559   6.836   7.749  0.0477 -0.3675 -0.3831
   28CHL1  H19B 3220   1.379   6.842   7.761  0.5454 -0.7943 -1.1195
   28CHL1  H19C 3221   1.484   6.896   7.899 -0.1002  1.5287 -0.9404
   28CHL1    C1 3222   1.331   6.625   7.916 -0.7136 -0.1428 -0.2070
   28CHL1   H1A 3223   1.254   6.665   7.847 -0.7911 -0.5780 -0.3760
   28CHL1   H1B 3224   1.342   6.516   7.904 -0.4351 -0.0570 -0.7405
   28CHL1    C2 3225   1.300   6.675   8.054  0.2535 -0.1110 -0.1630
   28CHL1   H2A 3226   1.203   6.630   8.084 -1.3293  2.2535 -1.4201
   28CHL1   H2B 3227   1.288   6.785   8.050  0.0187 -0.1795 -1.7053
   28CHL1   C20 3228   1.615   6.431   7.201 -0.0549  0.7820  0.9773
   28CHL1   H20 3229   1.655   6.332   7.168  0.8126  1.0867  1.0967
   28CHL1   C21 3230   1.692   6.534   7.116 -0.0496  0.1499 -0.6221
   28CHL1  H21A 3231   1.793   6.567   7.149 -1.0282  1.7182  1.0063
   28CHL1  H21B 3232   1.625   6.622   7.109  0.4534  0.7281  1.1867
   28CHL1  H21C 3233   1.707   6.478   7.021 -0.0118 -3.1754  1.2282
   28CHL1   C22 3234   1.461   6.431   7.171 -0.2758  0.1441  0.5826
   28CHL1  H22A 3235   1.408   6.362   7.240 -0.4611  0.2315  0.5274
   28CHL1  H22B 3236   1.406   6.524   7.197 -1.4946 -0.7851  1.4407
   28CHL1   C23 3237   1.436   6.381   7.029  0.1548  0.9021  0.1317
   28CHL1  H23A 3238   1.464   6.456   6.952 -0.3355 -3.1608 -4.4884
   28CHL1  H23B 3239   1.507   6.297   7.017  1.3369  1.9120 -0.0586
   28CHL1   C24 3240   1.290   6.321   7.026 -0.4551  0.1851  0.1429
   28CHL1  H24A 3241   1.264   6.252   7.109 -0.5509 -0.0490 -0.0797
   28CHL1  H24B 3242   1.226   6.410   7.045 -0.0339  0.3838  0.6301
   28CHL1   C25 3243   1.251   6.263   6.890  0.1602  0.5531 -0.1829
   28CHL1   H25 3244   1.149   6.221   6.899 -0.0958  0.4302 -2.7644
   28CHL1   C26 3245   1.246   6.372   6.788 -0.1633 -0.6105  0.2128
   28CHL1  H26A 3246   1.180   6.342   6.704 -1.0733 -0.3329  0.8087
   28CHL1  H26B 3247   1.199   6.463   6.833 -1.6840 -1.0887 -0.3519
   28CHL1  H26C 3248   1.345   6.404   6.748  0.5271 -0.7020  1.7482
   28CHL1   C27 3249   1.345   6.147   6.845 -0.1524  0.0149  0.1444
   28CHL1  H27A 3250   1.447   6.173   6.808 -1.0478  0.0064 -2.5029
   28CHL1  H27B 3251   1.347   6.059   6.913 -1.4494  0.4038  0.7221
   28CHL1  H27C 3252   1.301   6.105   6.752  2.3240 -1.6863 -0.3552
   29CHL1    C3 3253   3.846   1.945   7.817  0.4543 -0.0813 -0.1797
   29CHL1    H3 3254   3.846   1.835   7.802  0.5472 -0.2597  0.9986
   29CHL1    O3 3255   3.845   1.968   7.955 -0.1806 -0.2817 -0.3562
   29CHL1   H3' 3256   3.794   1.893   7.985 -0.9912  0.2485 -0.3662
   29CHL1    C4 3257   3.968   2.011   7.744  0.2780  1.1701 -0.2356
   29CHL1   H4A 3258   3.975   2.115   7.784  1.2925  1.1757 -0.4026
   29CHL1   H4B 3259   4.055   1.947   7.771 -0.6660  0.5811  1.6156
   29CHL1    C5 3260   3.965   2.008   7.591 -0.4773 -0.4639  0.5806
   29CHL1    C6 3261   4.060   1.961   7.509 -0.2013 -0.1763  0.2852
   29CHL1    H6 3262   4.146   1.920   7.563 -0.4656  0.0478  0.8803
   29CHL1    C7 3263   4.050   1.948   7.367 -0.1097 -0.8851  0.0542
   29CHL1   H7A 3264   4.147   1.985   7.327  0.1560 -0.9716  0.6101
   29CHL1   H7B 3265   4.042   1.840   7.342 -1.8150 -0.7795  0.0380
   29CHL1    C8 3266   3.931   2.021   7.305 -0.9093 -0.0014 -0.1942
   29CHL1    H8 3267   3.948   2.131   7.306 -0.0416 -0.1312 -0.2645
   29CHL1   C14 3268   3.922   1.965   7.163  0.7073  0.1643 -0.3601
   29CHL1   H14 3269   3.905   1.856   7.175  2.8852 -0.0632  1.3919
   29CHL1   C15 3270   4.048   1.973   7.072  0.2009  0.3866 -0.6898
   29CHL1  H15A 3271   4.084   2.078   7.067 -0.1847  0.4835 -2.0226
   29CHL1  H15B 3272   4.139   1.911   7.086 -0.0961  0.2752  0.8517
   29CHL1   C16 3273   3.982   1.935   6.942  0.3646  0.3329  0.2317
   29CHL1  H16A 3274   4.018   2.006   6.864 -0.6776  2.4212  1.5518
   29CHL1  H16B 3275   4.011   1.833   6.910 -1.7196 -0.2124 -0.0777
   29CHL1   C17 3276   3.822   1.941   6.959  0.6777  0.7627 -0.2214
   29CHL1   H17 3277   3.781   1.837   6.966 -0.2684  1.1490  0.2379
   29CHL1   C13 3278   3.801   2.017   7.096 -0.2559  0.5447  0.7297
   29CHL1   C18 3279   3.818   2.169   7.077 -0.1681 -0.9124  0.1154
   29CHL1  H18A 3280   3.917   2.191   7.032 -0.7315 -0.7190 -1.0687
   29CHL1  H18B 3281   3.742   2.213   7.009 -1.3598  1.8624  2.9619
   29CHL1  H18C 3282   3.814   2.220   7.176 -0.8942 -0.3672 -0.1898
   29CHL1   C12 3283   3.676   1.977   7.172  0.4620  0.2193  0.4245
   29CHL1  H12A 3284   3.586   2.020   7.123  0.6205 -1.4704 -1.4771
   29CHL1  H12B 3285   3.663   1.868   7.160  0.9211  0.3612 -1.9811
   29CHL1   C11 3286   3.676   2.021   7.317 -0.7614 -0.4408  0.2830
   29CHL1  H11A 3287   3.653   2.129   7.329 -0.1022 -0.2874  0.2336
   29CHL1  H11B 3288   3.593   1.967   7.367 -0.7631  0.8081  1.7009
   29CHL1    C9 3289   3.813   1.989   7.387 -0.4892 -0.3485 -0.0774
   29CHL1    H9 3290   3.815   1.877   7.391  2.3227 -0.3527  0.6095
   29CHL1   C10 3291   3.826   2.042   7.532 -0.2631 -0.0101 -0.2605
   29CHL1   C19 3292   3.819   2.198   7.534  0.3783 -0.1355  0.2850
   29CHL1  H19A 3293   3.884   2.254   7.464 -1.6743  1.6041 -0.3335
   29CHL1  H19B 3294   3.714   2.227   7.515  0.0134 -1.2916  0.4519
   29CHL1  H19C 3295   3.844   2.246   7.631  1.3598  0.2567 -0.1513
   29CHL1    C1 3296   3.703   1.989   7.615 -0.1206 -0.8965  0.4690
   29CHL1   H1A 3297   3.607   2.029   7.577  0.3572  0.0357  0.1804
   29CHL1   H1B 3298   3.698   1.879   7.606 -0.9917 -1.2272  3.8689
   29CHL1    C2 3299   3.718   2.014   7.759  0.5177  0.1025 -0.0258
   29CHL1   H2A 3300   3.629   1.974   7.812 -1.5573  1.3268 -2.3862
   29CHL1   H2B 3301   3.725   2.123   7.777 -0.9958  0.0657  0.9802
   29CHL1   C20 3302   3.755   1.991   6.831  0.3014 -0.2003  0.1949
   29CHL1   H20 3303   3.805   2.085   6.800 -1.7713  0.6719 -0.6827
   29CHL1   C21 3304   3.605   2.014   6.853 -0.5567  1.4412 -0.1305
   29CHL1  H21A 3305   3.549   2.036   6.760  0.6463  1.3628 -0.9025
   29CHL1  H21B 3306   3.584   2.092   6.929  1.7282  1.2431  0.7826
   29CHL1  H21C 3307   3.582   1.910   6.887  1.0064  0.9953 -0.3413
   29CHL1   C22 3308   3.782   1.883   6.708 -0.4319 -0.3443  0.2183
   29CHL1  H22A 3309   3.889   1.860   6.685  0.0214  3.1760 -1.8549
   29CHL1  H22B 3310   3.746   1.785   6.746  0.8717 -1.1135 -0.4283
   29CHL1   C23 3311   3.709   1.920   6.577 -0.9792 -0.3773 -0.0208
   29CHL1  H23A 3312   3.707   1.842   6.498  0.6321  0.9142 -1.4046
   29CHL1  H23B 3313   3.604   1.944   6.601  0.2649  2.7588  3.1995
   29CHL1   C24 3314   3.766   2.046   6.513 -0.5475  0.9461  0.4099
   29CHL1  H24A 3315   3.739   2.133   6.576 -0.1209  2.5785 -1.5617
   29CHL1  H24B 3316   3.876   2.030   6.512 -1.0083 -3.5090 -0.3746
   29CHL1   C25 3317   3.716   2.059   6.365 -0.0090  0.1001 -0.1422
   29CHL1   H25 3318   3.686   1.956   6.335  0.5062  0.0892 -0.6333
   29CHL1   C26 3319   3.591   2.141   6.368  0.2814 -0.5243  0.1629
   29CHL1  H26A 3320   3.539   2.136   6.270  0.7633  1.7424 -0.2499
   29CHL1  H26B 3321   3.521   2.100   6.444 -0.7476 -0.0851 -0.5189
   29CHL1  H26C 3322   3.613   2.247   6.394 -0.9260 -0.3042  0.3504
   29CHL1   C27 3323   3.822   2.123   6.273  0.3913  0.5020  1.2879
   29CHL1  H27A 3324   3.798   2.109   6.166  1.7269 -0.7086  1.1064
   29CHL1  H27B 3325   3.843   2.229   6.298 -1.8560  1.4875 -0.6608
   29CHL1  H27C 3326   3.916   2.063   6.282  0.5058  0.2083 -1.1976
   30CHL1    C3 3327   0.185   2.308   8.165  0.4485  0.4712 -0.3816
   30CHL1    H3 3328   0.078   2.328   8.148  0.8893  3.0409 -0.4392
   30CHL1    O3 3329   0.197   2.290   8.309  0.4578 -0.1506  0.7489
   30CHL1   H3' 3330   0.144   2.364   8.342  1.3058 -0.6741  3.5718
   30CHL1    C4 3331   0.230   2.180   8.094 -0.1262  0.5319  0.2389
   30CHL1   H4A 3332   0.324   2.145   8.142  0.2164  0.1640 -0.6958
   30CHL1   H4B 3333   0.153   2.100   8.107  0.8709 -0.4663  0.1128
   30CHL1    C5 3334   0.255   2.210   7.945 -0.4763 -0.2264  0.2171
   30CHL1    C6 3335   0.184   2.145   7.849  0.1283  0.0569 -0.2342
   30CHL1    H6 3336   0.120   2.059   7.874 -0.7592  1.0593  1.0780
   30CHL1    C7 3337   0.199   2.153   7.697 -0.1079 -0.5397  0.3311
   30CHL1   H7A 3338   0.217   2.058   7.642  2.9032 -1.2539  2.2820
   30CHL1   H7B 3339   0.117   2.214   7.654 -1.4613 -1.8574  0.9653
   30CHL1    C8 3340   0.339   2.230   7.668 -0.1962 -0.3463 -0.8086
   30CHL1    H8 3341   0.426   2.169   7.696 -0.4185  0.0388  0.8007
   30CHL1   C14 3342   0.350   2.252   7.517  0.5633  0.0365 -0.2523
   30CHL1   H14 3343   0.253   2.295   7.486  0.6356 -0.3113 -0.9825
   30CHL1   C15 3344   0.369   2.131   7.421  0.7343  0.6937  0.4387
   30CHL1  H15A 3345   0.441   2.061   7.468  1.3564  0.1661 -1.2206
   30CHL1  H15B 3346   0.278   2.070   7.398  2.4092 -1.8134  0.0605
   30CHL1   C16 3347   0.427   2.192   7.290 -0.2355  0.5867  0.4239
   30CHL1  H16A 3348   0.530   2.152   7.276 -0.8385 -1.6265  1.7970
   30CHL1  H16B 3349   0.371   2.178   7.195 -0.3260  0.2639  0.5226
   30CHL1   C17 3350   0.453   2.341   7.320  0.3154 -0.3263 -0.1809
   30CHL1   H17 3351   0.356   2.393   7.305  0.1265 -1.0216 -1.5120
   30CHL1   C13 3352   0.460   2.352   7.481  0.3641  0.1946 -0.2169
   30CHL1   C18 3353   0.605   2.306   7.520 -0.4036  0.0412  0.1362
   30CHL1  H18A 3354   0.678   2.372   7.468  1.6412 -0.0013  2.7258
   30CHL1  H18B 3355   0.614   2.301   7.630 -1.3187 -0.8603  0.1791
   30CHL1  H18C 3356   0.618   2.204   7.477 -2.0143  0.9711 -2.8426
   30CHL1   C12 3357   0.418   2.482   7.547  0.0094  0.0642 -0.0932
   30CHL1  H12A 3358   0.479   2.570   7.517 -1.5587  1.1140 -0.2798
   30CHL1  H12B 3359   0.315   2.508   7.515  0.8056  1.3125 -1.8680
   30CHL1   C11 3360   0.427   2.473   7.697 -1.0387 -1.0719 -0.0849
   30CHL1  H11A 3361   0.534   2.463   7.728 -1.1835  0.3275  0.9570
   30CHL1  H11B 3362   0.394   2.569   7.741 -0.4139 -0.7071 -0.4042
   30CHL1    C9 3363   0.340   2.357   7.753 -0.1738 -0.7167  0.0650
   30CHL1    H9 3364   0.239   2.400   7.741 -0.7440 -1.5768  1.5035
   30CHL1   C10 3365   0.356   2.327   7.905 -0.7046  0.6840 -0.0380
   30CHL1   C19 3366   0.501   2.286   7.949  0.7943  0.6332 -0.0312
   30CHL1  H19A 3367   0.528   2.184   7.914  1.1900  0.9078 -0.5446
   30CHL1  H19B 3368   0.583   2.353   7.915 -0.5375  1.6749 -1.2993
   30CHL1  H19C 3369   0.500   2.285   8.060 -3.1104 -2.7858  0.1458
   30CHL1    C1 3370   0.316   2.448   7.991 -0.4460 -0.1502 -0.2731
   30CHL1   H1A 3371   0.400   2.521   7.989  1.4637 -2.2361 -1.9188
   30CHL1   H1B 3372   0.247   2.507   7.928  2.1196  1.5228 -1.6960
   30CHL1    C2 3373   0.277   2.428   8.134 -0.5054  0.3179 -0.4632
   30CHL1   H2A 3374   0.228   2.517   8.177  2.4506  0.9387  1.9673
   30CHL1   H2B 3375   0.369   2.416   8.195 -0.5116  2.3505 -0.0099
   30CHL1   C20 3376   0.558   2.410   7.234  0.2398 -0.3963  0.0671
   30CHL1   H20 3377   0.650   2.352   7.255 -0.8373 -2.8058 -1.4622
   30CHL1   C21 3378   0.585   2.560   7.270  0.5524 -0.6746 -0.2113
   30CHL1  H21A 3379   0.652   2.553   7.358 -0.6688  2.0581  1.0218
   30CHL1  H21B 3380   0.499   2.622   7.302  1.1701  0.9999 -1.6512
   30CHL1  H21C 3381   0.635   2.609   7.184  0.1235 -0.0011 -0.0818
   30CHL1   C22 3382   0.520   2.396   7.083  0.7217 -0.0783  0.3555
   30CHL1  H22A 3383   0.527   2.286   7.069 -0.7712 -0.4636  2.2332
   30CHL1  H22B 3384   0.418   2.429   7.052  0.1639  0.3041  2.4514
   30CHL1   C23 3385   0.619   2.455   6.983  0.4158  0.1537 -0.3919
   30CHL1  H23A 3386   0.590   2.560   6.964 -1.1501  0.1012  1.4049
   30CHL1  H23B 3387   0.726   2.447   7.013  0.0208  0.1279  1.0787
   30CHL1   C24 3388   0.596   2.381   6.853 -0.7181 -0.4100  0.0067
   30CHL1  H24A 3389   0.638   2.278   6.864  0.8506  0.1154 -0.8185
   30CHL1  H24B 3390   0.487   2.368   6.840 -0.8144 -0.1049  0.4861
   30CHL1   C25 3391   0.662   2.458   6.731 -0.4195  0.1600  0.4887
   30CHL1   H25 3392   0.643   2.395   6.641 -1.0057 -0.3741  0.9780
   30CHL1   C26 3393   0.594   2.595   6.696  0.1487  0.3083 -0.5679
   30CHL1  H26A 3394   0.589   2.665   6.782  0.1156  0.1431 -0.4337
   30CHL1  H26B 3395   0.650   2.644   6.613  0.0953 -0.2940 -0.9703
   30CHL1  H26C 3396   0.489   2.565   6.672  0.0245 -0.2373  0.6095
   30CHL1   C27 3397   0.808   2.484   6.738  0.5241  0.1862  0.4817
   30CHL1  H27A 3398   0.863   2.391   6.765 -0.7778 -0.9223 -0.5245
   30CHL1  H27B 3399   0.854   2.509   6.640  0.1177  1.2310  0.5391
   30CHL1  H27C 3400   0.841   2.548   6.822  0.2988  0.0299  0.6920
   31CHL1    C3 3401   5.673   1.671   8.466 -0.5196 -0.1338 -0.0055
   31CHL1    H3 3402   5.575   1.702   8.426 -0.9489  0.4313  1.4126
   31CHL1    O3 3403   5.669   1.683   8.609 -0.1814  0.3025 -0.2631
   31CHL1   H3' 3404   5.641   1.775   8.620 -0.1233  0.2642  0.2036
   31CHL1    C4 3405   5.704   1.527   8.419 -0.5323  0.5844  0.3505
   31CHL1   H4A 3406   5.802   1.499   8.463 -0.3991  1.5990  0.7236
   31CHL1   H4B 3407   5.633   1.449   8.455  0.0041 -1.6407 -2.9466
   31CHL1    C5 3408   5.706   1.515   8.273 -0.1333 -0.6999  0.1662
   31CHL1    C6 3409   5.614   1.439   8.214  0.1865  0.4253 -0.2983
   31CHL1    H6 3410   5.539   1.392   8.281 -1.0355  0.8485 -1.3213
   31CHL1    C7 3411   5.616   1.416   8.066  0.2969 -0.0445 -0.5700
   31CHL1   H7A 3412   5.615   1.308   8.039  2.8742 -0.5514  1.0063
   31CHL1   H7B 3413   5.525   1.471   8.033  0.1037  2.1485  3.0565
   31CHL1    C8 3414   5.741   1.468   7.989 -0.3476  0.2845  0.8657
   31CHL1    H8 3415   5.813   1.385   8.003 -0.8351 -0.7202 -1.9300
   31CHL1   C14 3416   5.700   1.483   7.843 -0.5374  0.8671  0.3497
   31CHL1   H14 3417   5.624   1.563   7.832  1.9239  3.3555  0.2901
   31CHL1   C15 3418   5.644   1.361   7.760  0.2749  0.0021 -0.1951
   31CHL1  H15A 3419   5.704   1.269   7.775 -1.3623 -1.2599 -0.9959
   31CHL1  H15B 3420   5.540   1.331   7.786 -0.1499  1.8598  0.4496
   31CHL1   C16 3421   5.653   1.403   7.621  0.7385  0.2066  0.0907
   31CHL1  H16A 3422   5.698   1.323   7.559 -0.1044  0.8480 -1.4261
   31CHL1  H16B 3423   5.556   1.426   7.571  0.2908 -2.3682 -0.3871
   31CHL1   C17 3424   5.745   1.525   7.611 -0.5119 -0.4239 -0.1500
   31CHL1   H17 3425   5.690   1.621   7.617 -0.6806 -0.4259 -1.3548
   31CHL1   C13 3426   5.818   1.523   7.754 -0.0570 -0.7374 -0.0481
   31CHL1   C18 3427   5.944   1.422   7.759 -0.4664 -0.2453 -0.5587
   31CHL1  H18A 3428   5.980   1.418   7.864 -0.6480  1.8969 -0.3787
   31CHL1  H18B 3429   5.916   1.319   7.729 -1.1250  0.2546 -1.7511
   31CHL1  H18C 3430   6.033   1.453   7.699 -1.5150  1.5800 -1.2290
   31CHL1   C12 3431   5.867   1.660   7.811 -0.3933 -0.0434  0.8077
   31CHL1  H12A 3432   5.951   1.687   7.744 -0.3659 -1.2583  0.3307
   31CHL1  H12B 3433   5.786   1.733   7.789 -0.8948 -0.3263  1.6715
   31CHL1   C11 3434   5.905   1.668   7.959  0.0224 -0.0070  0.3152
   31CHL1  H11A 3435   5.994   1.606   7.981 -0.2019 -0.1661  0.7894
   31CHL1  H11B 3436   5.927   1.774   7.984 -1.4034  0.8715 -1.8234
   31CHL1    C9 3437   5.789   1.602   8.044 -0.0620  0.3325 -0.6625
   31CHL1    H9 3438   5.702   1.668   8.027 -1.1354 -0.2166  2.1695
   31CHL1   C10 3439   5.811   1.603   8.197 -0.3420 -0.0891  0.7903
   31CHL1   C19 3440   5.962   1.568   8.228  1.0340 -0.5815  0.5474
   31CHL1  H19A 3441   5.978   1.484   8.157 -0.7224  2.2670 -3.6464
   31CHL1  H19B 3442   6.038   1.639   8.190 -0.2115  1.5704  1.8870
   31CHL1  H19C 3443   5.980   1.541   8.334  0.7933 -1.0902  0.4648
   31CHL1    C1 3444   5.784   1.747   8.256 -0.0338  0.2277  0.3100
   31CHL1   H1A 3445   5.868   1.797   8.203 -0.6661  1.4767  0.4490
   31CHL1   H1B 3446   5.694   1.785   8.204 -0.8749 -1.5342  0.3988
   31CHL1    C2 3447   5.780   1.759   8.403 -0.1961  0.0450 -1.0870
   31CHL1   H2A 3448   5.779   1.861   8.445  2.2297 -0.7224  1.0980
   31CHL1   H2B 3449   5.870   1.705   8.441 -1.0565 -1.2203 -0.7845
   31CHL1   C20 3450   5.825   1.523   7.479  0.1329  0.4811 -0.5175
   31CHL1   H20 3451   5.889   1.433   7.486  2.9030  2.1398 -2.6072
   31CHL1   C21 3452   5.925   1.639   7.480  0.2931 -0.5844  0.0460
   31CHL1  H21A 3453   5.999   1.623   7.561 -1.3826 -2.6087  1.2656
   31CHL1  H21B 3454   5.867   1.730   7.507  2.4188  1.4368 -1.6560
   31CHL1  H21C 3455   5.959   1.642   7.374 -0.5231 -2.8445 -0.3123
   31CHL1   C22 3456   5.735   1.527   7.353  0.1848  0.2891  0.3004
   31CHL1  H22A 3457   5.637   1.493   7.391  0.4309  1.1263  1.7731
   31CHL1  H22B 3458   5.722   1.629   7.311  1.9125 -0.1836 -1.5677
   31CHL1   C23 3459   5.780   1.429   7.244  0.1013 -0.2024  0.0871
   31CHL1  H23A 3460   5.878   1.464   7.205  0.6562  0.0338  1.6341
   31CHL1  H23B 3461   5.785   1.324   7.282 -1.7388 -0.3770 -0.0767
   31CHL1   C24 3462   5.684   1.424   7.132  0.0203  0.1407  0.1318
   31CHL1  H24A 3463   5.594   1.375   7.175  0.1981 -0.2980  0.0185
   31CHL1  H24B 3464   5.660   1.531   7.116 -0.7219  0.1262  1.0382
   31CHL1   C25 3465   5.723   1.357   7.004 -0.1663 -0.0287  0.3259
   31CHL1   H25 3466   5.815   1.400   6.959  1.1668 -2.3525  0.6868
   31CHL1   C26 3467   5.770   1.221   7.032 -0.5238 -0.0498  0.2000
   31CHL1  H26A 3468   5.681   1.157   7.052 -0.7180 -0.0534 -0.6207
   31CHL1  H26B 3469   5.813   1.173   6.941 -1.0605  1.7386 -1.0564
   31CHL1  H26C 3470   5.844   1.224   7.115  0.1997  2.7147 -0.4527
   31CHL1   C27 3471   5.614   1.355   6.892 -0.2669 -0.0363  0.2866
   31CHL1  H27A 3472   5.654   1.285   6.815  1.1632 -0.7308  1.5923
   31CHL1  H27B 3473   5.521   1.307   6.930 -1.6123  2.3082  0.1361
   31CHL1  H27C 3474   5.605   1.461   6.862  2.6376 -0.1402 -1.4008
   32CHL1    C3 3475   5.296   0.517   8.037  0.4614 -0.4993  0.0602
   32CHL1    H3 3476   5.387   0.454   8.041  1.2474  0.6243  0.3099
   32CHL1    O3 3477   5.252   0.547   8.170 -0.1924  0.3888  0.0129
   32CHL1   H3' 3478   5.332   0.572   8.217 -1.3023  0.7792  1.7555
   32CHL1    C4 3479   5.339   0.644   7.956 -0.1240  0.2232  0.0833
   32CHL1   H4A 3480   5.254   0.715   7.950  1.2453  1.8761 -0.3397
   32CHL1   H4B 3481   5.426   0.694   8.005  0.5545 -0.3970 -0.4614
   32CHL1    C5 3482   5.375   0.595   7.820 -0.3542  0.2888 -1.1304
   32CHL1    C6 3483   5.497   0.629   7.772 -0.1475  0.4180 -0.6447
   32CHL1    H6 3484   5.571   0.682   7.833  0.8724 -1.9654  0.2942
   32CHL1    C7 3485   5.525   0.606   7.627 -0.1922 -0.1570  0.0044
   32CHL1   H7A 3486   5.564   0.704   7.591 -1.8045  0.3598 -0.4156
   32CHL1   H7B 3487   5.596   0.521   7.621 -1.5532 -1.2226 -3.5043
   32CHL1    C8 3488   5.408   0.560   7.541  0.4957  0.3490  0.2867
   32CHL1    H8 3489   5.355   0.657   7.527  2.2451  1.2330 -0.6196
   32CHL1   C14 3490   5.463   0.516   7.407  0.4051  0.6157  0.4790
   32CHL1   H14 3491   5.532   0.434   7.435 -0.9936 -0.1899  1.6857
   32CHL1   C15 3492   5.552   0.617   7.329 -0.0814 -0.0427 -0.5189
   32CHL1  H15A 3493   5.509   0.719   7.337 -1.1652 -0.5416  0.3906
   32CHL1  H15B 3494   5.654   0.618   7.374  0.8967 -0.6868 -2.6014
   32CHL1   C16 3495   5.557   0.564   7.191  0.6130 -0.5482  0.0192
   32CHL1  H16A 3496   5.523   0.640   7.117  2.4283 -1.0157 -1.3683
   32CHL1  H16B 3497   5.657   0.521   7.168 -0.0033 -1.9477 -0.1795
   32CHL1   C17 3498   5.455   0.445   7.185  0.7630  1.4311  0.7219
   32CHL1   H17 3499   5.518   0.354   7.198 -1.6772 -0.3822  0.5655
   32CHL1   C13 3500   5.359   0.461   7.313 -0.7246  0.4864  0.9200
   32CHL1   C18 3501   5.255   0.568   7.282  0.5363  0.0171  0.0174
   32CHL1  H18A 3502   5.179   0.527   7.211  2.4057 -0.7970 -1.6135
   32CHL1  H18B 3503   5.216   0.622   7.371 -0.7872  0.3423 -0.7324
   32CHL1  H18C 3504   5.308   0.648   7.226  1.2758 -1.0720 -0.9045
   32CHL1   C12 3505   5.292   0.334   7.383  0.2496  0.1065 -0.5203
   32CHL1  H12A 3506   5.207   0.305   7.319 -0.1176 -0.0775  0.0413
   32CHL1  H12B 3507   5.368   0.253   7.387 -0.7925 -0.8813 -0.3735
   32CHL1   C11 3508   5.230   0.380   7.517  0.4535  0.2056 -0.3826
   32CHL1  H11A 3509   5.145   0.450   7.499  0.1644 -0.0784 -0.1431
   32CHL1  H11B 3510   5.175   0.298   7.569 -0.2758  1.7435  1.4039
   32CHL1    C9 3511   5.328   0.453   7.612  0.0381  0.1862 -0.4327
   32CHL1    H9 3512   5.406   0.377   7.638  2.4051  1.8741 -2.1351
   32CHL1   C10 3513   5.273   0.507   7.744  0.5543 -0.3276 -0.4007
   32CHL1   C19 3514   5.149   0.600   7.712  0.3628  0.4229  0.3006
   32CHL1  H19A 3515   5.189   0.684   7.651 -0.2585  0.8937  0.5323
   32CHL1  H19B 3516   5.072   0.549   7.650  0.3571 -0.2565  0.8642
   32CHL1  H19C 3517   5.097   0.654   7.794 -0.7642  1.7416 -1.2068
   32CHL1    C1 3518   5.222   0.392   7.829 -0.5522  0.1738 -0.0399
   32CHL1   H1A 3519   5.137   0.343   7.777 -1.4951  0.8860  0.7842
   32CHL1   H1B 3520   5.303   0.316   7.832 -0.6079  0.0222 -1.4688
   32CHL1    C2 3521   5.183   0.434   7.965  0.2125 -0.1559  0.0008
   32CHL1   H2A 3522   5.160   0.351   8.035  0.6550  0.0142  0.3523
   32CHL1   H2B 3523   5.100   0.508   7.962 -0.5910 -1.0492 -2.1129
   32CHL1   C20 3524   5.383   0.429   7.048  0.8249  0.3475 -0.1219
   32CHL1   H20 3525   5.309   0.510   7.029 -0.5065 -0.8226 -0.1006
   32CHL1   C21 3526   5.301   0.295   7.037 -0.1001 -0.0471 -0.0267
   32CHL1  H21A 3527   5.365   0.205   7.049 -0.8392 -0.4940  0.7159
   32CHL1  H21B 3528   5.244   0.284   6.942 -0.7017  2.0682  0.0265
   32CHL1  H21C 3529   5.221   0.289   7.114 -2.5254  0.2206 -2.3693
   32CHL1   C22 3530   5.480   0.434   6.932  0.0975 -0.0586 -0.0928
   32CHL1  H22A 3531   5.545   0.522   6.943 -0.2813  0.3827 -1.2376
   32CHL1  H22B 3532   5.546   0.344   6.933 -1.7223 -1.5875  3.2807
   32CHL1   C23 3533   5.409   0.453   6.797 -0.8518 -0.4244  0.8040
   32CHL1  H23A 3534   5.344   0.368   6.765  1.5274 -1.8192 -0.5836
   32CHL1  H23B 3535   5.350   0.545   6.814  0.4650  0.3996  1.0392
   32CHL1   C24 3536   5.522   0.473   6.689  0.3426 -0.1512 -0.5922
   32CHL1  H24A 3537   5.596   0.542   6.735 -1.2800  1.3572 -0.1528
   32CHL1  H24B 3538   5.561   0.369   6.682 -0.3470 -0.5862  1.3334
   32CHL1   C25 3539   5.473   0.524   6.552  0.2252 -0.4885  0.4047
   32CHL1   H25 3540   5.421   0.622   6.555  0.2644 -0.3196 -2.0047
   32CHL1   C26 3541   5.590   0.542   6.455 -0.4107  0.2728 -0.1800
   32CHL1  H26A 3542   5.664   0.620   6.484  1.0351 -0.7012 -1.0623
   32CHL1  H26B 3543   5.651   0.449   6.451 -0.1679  0.1786  3.0359
   32CHL1  H26C 3544   5.561   0.574   6.352  0.1703  0.8556 -0.1710
   32CHL1   C27 3545   5.379   0.423   6.483 -0.4081 -0.6569 -0.0254
   32CHL1  H27A 3546   5.428   0.324   6.496  2.3640  0.6723  0.4271
   32CHL1  H27B 3547   5.279   0.423   6.530 -0.2101 -1.3463  0.4167
   32CHL1  H27C 3548   5.371   0.444   6.374 -2.6466  0.4348  0.2948
   33CHL1    C3 3549   3.147   1.301   7.802  0.1874 -0.3982 -0.9194
   33CHL1    H3 3550   3.151   1.190   7.790  0.4204 -0.7124  1.6501
   33CHL1    O3 3551   3.178   1.330   7.936  0.3359  0.1686  0.1179
   33CHL1   H3' 3552   3.109   1.283   7.984 -1.4124  2.6464  0.2225
   33CHL1    C4 3553   3.250   1.363   7.713 -0.3201  0.8659 -0.4580
   33CHL1   H4A 3554   3.263   1.472   7.727  0.6794  0.6683  0.2666
   33CHL1   H4B 3555   3.355   1.332   7.732  0.1795  2.0420 -1.2264
   33CHL1    C5 3556   3.213   1.336   7.568 -0.7760 -0.4580  1.0705
   33CHL1    C6 3557   3.298   1.278   7.481 -0.0448  0.0060  0.6908
   33CHL1    H6 3558   3.405   1.257   7.496  0.0508 -2.1908 -2.1835
   33CHL1    C7 3559   3.261   1.253   7.337  0.3122  0.5902 -0.5305
   33CHL1   H7A 3560   3.350   1.266   7.272  0.3942 -0.3904 -0.6272
   33CHL1   H7B 3561   3.236   1.145   7.328  0.2432  0.5651 -0.0895
   33CHL1    C8 3562   3.150   1.338   7.284 -0.3413  0.4015 -0.0985
   33CHL1    H8 3563   3.191   1.441   7.278  0.3325  0.1768  0.4883
   33CHL1   C14 3564   3.109   1.291   7.147 -0.2757 -0.3729  0.5538
   33CHL1   H14 3565   3.075   1.186   7.156 -2.0679  0.0688 -0.5110
   33CHL1   C15 3566   3.215   1.273   7.042  0.1120  0.2067  0.1408
   33CHL1  H15A 3567   3.273   1.368   7.035 -2.8156  2.0021 -2.1506
   33CHL1  H15B 3568   3.286   1.190   7.062  0.5974  0.8897  1.4226
   33CHL1   C16 3569   3.130   1.263   6.916 -0.2839 -0.1996 -0.1253
   33CHL1  H16A 3570   3.169   1.335   6.841  1.0607 -2.1601 -1.4231
   33CHL1  H16B 3571   3.147   1.158   6.882  2.3989 -0.1687  0.9312
   33CHL1   C17 3572   2.979   1.295   6.951 -0.7795 -0.0824  0.4269
   33CHL1   H17 3573   2.940   1.194   6.977  1.4709 -1.4618 -1.1837
   33CHL1   C13 3574   2.990   1.369   7.081  0.0077 -0.2848 -0.4478
   33CHL1   C18 3575   3.034   1.517   7.056  0.1700 -0.2810 -0.0415
   33CHL1  H18A 3576   3.071   1.562   7.151 -1.1012 -0.0528  0.3685
   33CHL1  H18B 3577   3.116   1.525   6.982  0.1391  0.0572 -0.0443
   33CHL1  H18C 3578   2.948   1.578   7.020  0.1466  0.4982  1.2551
   33CHL1   C12 3579   2.871   1.357   7.174  0.5003  0.7999 -0.6528
   33CHL1  H12A 3580   2.791   1.424   7.137  0.2676 -0.1593 -1.9638
   33CHL1  H12B 3581   2.838   1.252   7.181  0.4114  0.8221 -0.7393
   33CHL1   C11 3582   2.907   1.402   7.325 -0.3989  0.4647  0.4167
   33CHL1  H11A 3583   2.923   1.512   7.326 -1.1572  0.5931  1.9140
   33CHL1  H11B 3584   2.819   1.384   7.390  1.8169  0.5386  3.6806
   33CHL1    C9 3585   3.034   1.335   7.379 -0.3442 -0.3565 -0.6350
   33CHL1    H9 3586   3.011   1.228   7.396  0.1662 -0.4929 -0.7944
   33CHL1   C10 3587   3.069   1.393   7.519 -0.8764 -0.0119 -0.3919
   33CHL1   C19 3588   3.069   1.544   7.523 -0.5171 -0.1334 -0.0496
   33CHL1  H19A 3589   3.097   1.580   7.625  0.5248 -2.6276  0.6250
   33CHL1  H19B 3590   3.140   1.590   7.451 -1.8037  1.4123 -0.3909
   33CHL1  H19C 3591   2.966   1.583   7.508 -0.8345  0.0042  2.0765
   33CHL1    C1 3592   2.967   1.345   7.630  0.4068 -0.1751 -0.3131
   33CHL1   H1A 3593   2.870   1.399   7.623 -0.8915 -2.2665  0.6585
   33CHL1   H1B 3594   2.947   1.237   7.616 -1.2937  0.0493  0.2135
   33CHL1    C2 3595   3.008   1.355   7.776 -0.1969 -0.1825  0.3221
   33CHL1   H2A 3596   2.939   1.305   7.847 -2.5467 -2.6967 -3.4065
   33CHL1   H2B 3597   3.006   1.465   7.790  2.8222 -0.0783  0.6345
   33CHL1   C20 3598   2.904   1.348   6.834  0.0833  0.9368 -0.3462
   33CHL1   H20 3599   2.971   1.426   6.791  0.8463 -0.1358 -1.1612
   33CHL1   C21 3600   2.762   1.401   6.867  0.6007  0.1583 -0.2949
   33CHL1  H21A 3601   2.761   1.499   6.920 -4.1247 -1.1482  2.5957
   33CHL1  H21B 3602   2.713   1.328   6.934  3.2962 -0.9174  0.6597
   33CHL1  H21C 3603   2.690   1.409   6.783 -2.1553 -1.1389  1.8189
   33CHL1   C22 3604   2.893   1.251   6.712  0.2319  0.4681 -0.5286
   33CHL1  H22A 3605   2.871   1.303   6.616 -2.2435 -0.5623 -0.5849
   33CHL1  H22B 3606   2.991   1.199   6.702  0.3604  0.5778  0.1071
   33CHL1   C23 3607   2.776   1.150   6.710 -0.5574 -0.2804  0.4335
   33CHL1  H23A 3608   2.767   1.103   6.811 -1.0039  1.3956  1.1953
   33CHL1  H23B 3609   2.679   1.202   6.709 -2.2768 -3.1623  1.8663
   33CHL1   C24 3610   2.804   1.032   6.607 -0.1376 -0.6402 -0.2006
   33CHL1  H24A 3611   2.805   1.074   6.505  1.7498 -0.6079 -0.2067
   33CHL1  H24B 3612   2.911   1.009   6.628  0.0327 -0.0040 -0.3622
   33CHL1   C25 3613   2.715   0.909   6.612 -0.0909 -0.4229 -0.0152
   33CHL1   H25 3614   2.694   0.887   6.719  4.7579  1.6129  1.6290
   33CHL1   C26 3615   2.593   0.929   6.528  0.5641 -0.0528 -0.1359
   33CHL1  H26A 3616   2.607   0.957   6.421  1.1801  1.0563  0.2214
   33CHL1  H26B 3617   2.521   0.844   6.535  0.1969  0.2541 -0.1677
   33CHL1  H26C 3618   2.528   1.000   6.583  1.0145  0.2646 -0.0140
   33CHL1   C27 3619   2.786   0.796   6.537  0.0217 -0.2091 -0.3746
   33CHL1  H27A 3620   2.848   0.730   6.602 -1.2953 -1.2598 -0.1270
   33CHL1  H27B 3621   2.711   0.739   6.476 -1.0267  2.0764 -1.3239
   33CHL1  H27C 3622   2.858   0.836   6.463  0.4561  0.3910  0.3666
   34CHL1    C3 3623   6.246   2.768   7.969  0.6575 -0.3794 -0.7986
   34CHL1    H3 3624   6.139   2.757   7.939  0.6978 -0.4584 -0.9133
   34CHL1    O3 3625   6.266   2.803   8.102 -1.1711  0.1829 -0.4827
   34CHL1   H3' 3626   6.360   2.800   8.124 -1.3979 -0.0644  0.4925
   34CHL1    C4 3627   6.320   2.629   7.946  0.6973 -0.1229 -1.2794
   34CHL1   H4A 3628   6.421   2.626   7.991  0.1541 -0.4572 -0.0479
   34CHL1   H4B 3629   6.257   2.568   8.014  0.3934  3.3434  1.8710
   34CHL1    C5 3630   6.325   2.586   7.802 -0.0470 -0.2566 -0.3878
   34CHL1    C6 3631   6.260   2.478   7.764 -0.2155  0.0775 -0.5336
   34CHL1    H6 3632   6.199   2.430   7.842  2.4417 -2.9211 -0.1196
   34CHL1    C7 3633   6.240   2.436   7.624  0.1171  0.4620  0.4691
   34CHL1   H7A 3634   6.251   2.325   7.615 -0.2305  0.3596  1.2383
   34CHL1   H7B 3635   6.137   2.458   7.590 -0.9938 -0.0372  3.2142
   34CHL1    C8 3636   6.344   2.511   7.531  0.4757 -0.1456 -0.4007
   34CHL1    H8 3637   6.447   2.472   7.536  1.0827  1.2323 -1.3667
   34CHL1   C14 3638   6.298   2.489   7.394  0.0352 -0.0627  0.6843
   34CHL1   H14 3639   6.197   2.532   7.385 -0.7092 -1.8356  0.0801
   34CHL1   C15 3640   6.274   2.349   7.339  0.3908 -0.4286 -0.1845
   34CHL1  H15A 3641   6.362   2.288   7.366  0.8039  0.5526  0.8016
   34CHL1  H15B 3642   6.186   2.310   7.394  0.5695  0.0066  0.4205
   34CHL1   C16 3643   6.263   2.371   7.189 -0.6382 -0.3063  0.4432
   34CHL1  H16A 3644   6.325   2.298   7.134 -0.0389 -0.6653  1.5481
   34CHL1  H16B 3645   6.158   2.366   7.154 -1.1914  1.8623  1.6170
   34CHL1   C17 3646   6.313   2.518   7.162  0.3772  0.0146  0.2962
   34CHL1   H17 3647   6.216   2.573   7.163  0.0287 -0.5961  0.7598
   34CHL1   C13 3648   6.383   2.563   7.287 -0.8414  0.4556  0.2519
   34CHL1   C18 3649   6.525   2.501   7.286  0.1414 -0.0964  0.4674
   34CHL1  H18A 3650   6.600   2.553   7.222 -0.3457  0.5085  0.3777
   34CHL1  H18B 3651   6.577   2.504   7.384  1.6714 -3.2704 -0.1039
   34CHL1  H18C 3652   6.522   2.397   7.248 -0.0362 -0.0772  0.4306
   34CHL1   C12 3653   6.382   2.715   7.323 -0.6306 -0.1382  0.0402
   34CHL1  H12A 3654   6.431   2.768   7.238 -0.2769 -1.5629 -0.6844
   34CHL1  H12B 3655   6.275   2.746   7.322 -0.4600  0.6047 -2.4513
   34CHL1   C11 3656   6.431   2.745   7.461  0.2073  0.2438 -0.2474
   34CHL1  H11A 3657   6.537   2.715   7.454  0.5836  1.4197  0.2016
   34CHL1  H11B 3658   6.433   2.853   7.487 -0.7569 -0.0796  1.2774
   34CHL1    C9 3659   6.348   2.661   7.567 -0.4497 -0.4280  0.6165
   34CHL1    H9 3660   6.245   2.696   7.545 -0.1315 -0.9444 -2.1622
   34CHL1   C10 3661   6.390   2.691   7.709 -0.3779 -0.4939 -0.2169
   34CHL1   C19 3662   6.548   2.672   7.729 -0.0343  0.3170 -0.2901
   34CHL1  H19A 3663   6.605   2.737   7.660 -0.2708 -0.2823 -1.0581
   34CHL1  H19B 3664   6.580   2.699   7.832  2.4862 -0.6905 -0.7443
   34CHL1  H19C 3665   6.578   2.568   7.707  1.3465  0.7038 -0.3008
   34CHL1    C1 3666   6.332   2.834   7.740 -0.9714  0.0469 -0.5709
   34CHL1   H1A 3667   6.400   2.903   7.686  2.2440 -2.0506  0.4644
   34CHL1   H1B 3668   6.229   2.840   7.700 -1.1935  0.1763  0.0003
   34CHL1    C2 3669   6.331   2.870   7.886  0.3761 -0.1784  0.1526
   34CHL1   H2A 3670   6.292   2.971   7.909 -1.2490 -1.2545  2.5798
   34CHL1   H2B 3671   6.434   2.865   7.928 -0.2084 -0.7738  1.5781
   34CHL1   C20 3672   6.376   2.537   7.028  0.1574  0.2919  0.1265
   34CHL1   H20 3673   6.476   2.489   7.030  0.9805  1.8558 -1.2343
   34CHL1   C21 3674   6.399   2.685   6.990 -0.1452 -0.4457  0.2079
   34CHL1  H21A 3675   6.310   2.750   7.004 -0.8137 -1.4219  0.5945
   34CHL1  H21B 3676   6.454   2.683   6.893  0.5105  1.4271  0.4928
   34CHL1  H21C 3677   6.478   2.724   7.057 -0.8659 -0.7007  1.2360
   34CHL1   C22 3678   6.299   2.466   6.912 -0.3121 -0.2053  0.1446
   34CHL1  H22A 3679   6.272   2.361   6.937 -2.5716  0.1609 -0.5504
   34CHL1  H22B 3680   6.203   2.518   6.894  0.7238  2.1111  0.9798
   34CHL1   C23 3681   6.378   2.456   6.775  0.5149  0.6952  0.3610
   34CHL1  H23A 3682   6.401   2.558   6.736 -1.3603  1.0311  0.0286
   34CHL1  H23B 3683   6.472   2.404   6.804  0.2863 -1.1322 -1.9110
   34CHL1   C24 3684   6.324   2.364   6.668  0.2162 -0.1609 -0.0123
   34CHL1  H24A 3685   6.392   2.372   6.580 -0.7500  1.5052 -0.6614
   34CHL1  H24B 3686   6.313   2.259   6.702 -1.4519 -0.2062 -0.6330
   34CHL1   C25 3687   6.179   2.408   6.630 -0.6030  0.1349 -0.1168
   34CHL1   H25 3688   6.120   2.395   6.723  2.7294  0.3278  2.2126
   34CHL1   C26 3689   6.177   2.547   6.569 -0.4060  0.8600 -0.2884
   34CHL1  H26A 3690   6.237   2.623   6.624  1.0428  0.5684 -1.4114
   34CHL1  H26B 3691   6.215   2.548   6.465 -1.6615 -1.4217 -0.8335
   34CHL1  H26C 3692   6.069   2.572   6.564 -0.4642  0.3092 -2.4445
   34CHL1   C27 3693   6.122   2.310   6.522  0.4226 -0.3816 -0.0811
   34CHL1  H27A 3694   6.131   2.207   6.561 -0.2358 -0.1247  0.7776
   34CHL1  H27B 3695   6.011   2.324   6.522  0.5408  0.7269  0.8893
   34CHL1  H27C 3696   6.167   2.318   6.421  2.6561 -0.2735  0.8610
   35CHL1    C3 3697   2.627   3.655   7.944  0.1426 -0.0234  0.5054
   35CHL1    H3 3698   2.732   3.635   7.916 -0.5215 -0.9532 -1.5707
   35CHL1    O3 3699   2.625   3.706   8.074  0.2081  0.2071 -0.5888
   35CHL1   H3' 3700   2.701   3.764   8.078 -0.4073  0.9857  0.3785
   35CHL1    C4 3701   2.582   3.766   7.847 -0.9682  0.5517  0.5358
   35CHL1   H4A 3702   2.489   3.811   7.889  0.2126  1.4609  2.3313
   35CHL1   H4B 3703   2.661   3.844   7.852  1.6632 -1.9925  1.1574
   35CHL1    C5 3704   2.567   3.731   7.700 -0.2547 -0.0536 -1.1388
   35CHL1    C6 3705   2.641   3.786   7.599 -0.2178 -0.1478 -0.0764
   35CHL1    H6 3706   2.717   3.864   7.611 -1.3701  1.1798 -1.1264
   35CHL1    C7 3707   2.628   3.748   7.455 -0.5426  0.2063  0.4245
   35CHL1   H7A 3708   2.633   3.834   7.385  3.3149 -1.1328 -1.2293
   35CHL1   H7B 3709   2.718   3.690   7.424  0.3389  1.8507 -0.2262
   35CHL1    C8 3710   2.506   3.660   7.434  0.4271  0.2736  0.8879
   35CHL1    H8 3711   2.419   3.727   7.440 -0.5115 -0.8861  0.5913
   35CHL1   C14 3712   2.507   3.604   7.302 -0.2332  0.7901  0.0996
   35CHL1   H14 3713   2.606   3.552   7.308 -0.1092  0.9266 -0.6129
   35CHL1   C15 3714   2.522   3.690   7.176  0.2237  0.5349  0.0144
   35CHL1  H15A 3715   2.454   3.778   7.186 -1.7138 -1.0761  2.3878
   35CHL1  H15B 3716   2.630   3.716   7.170  0.8464 -2.1283 -2.7994
   35CHL1   C16 3717   2.481   3.605   7.059 -0.0496  0.6303 -0.3592
   35CHL1  H16A 3718   2.415   3.672   6.999  2.0076  2.8161 -0.3040
   35CHL1  H16B 3719   2.575   3.574   7.009  0.9880  2.2232  0.5333
   35CHL1   C17 3720   2.426   3.468   7.122  0.0376  0.2320  0.2953
   35CHL1   H17 3721   2.511   3.397   7.132 -1.6866 -1.7028  1.7764
   35CHL1   C13 3722   2.393   3.505   7.264  0.1301 -0.6263 -0.4312
   35CHL1   C18 3723   2.251   3.584   7.276  0.1239 -0.0075  0.5177
   35CHL1  H18A 3724   2.169   3.509   7.269  1.0840 -1.0854  0.5994
   35CHL1  H18B 3725   2.239   3.626   7.378 -1.1099 -0.7174  0.6914
   35CHL1  H18C 3726   2.250   3.666   7.201  1.1198 -1.2981 -0.9820
   35CHL1   C12 3727   2.380   3.396   7.368 -0.3233  0.4995  0.3905
   35CHL1  H12A 3728   2.291   3.330   7.352 -2.5463  3.1901  0.7933
   35CHL1  H12B 3729   2.469   3.330   7.359  0.6168  1.7480  0.3940
   35CHL1   C11 3730   2.376   3.451   7.515 -0.3758  0.2957  0.3264
   35CHL1  H11A 3731   2.270   3.481   7.530 -1.0882 -1.4030 -0.9703
   35CHL1  H11B 3732   2.383   3.364   7.584 -1.1081  1.4844  1.9868
   35CHL1    C9 3733   2.487   3.557   7.549 -0.3786 -0.4897 -0.9585
   35CHL1    H9 3734   2.586   3.507   7.544 -0.2663 -0.4380  0.3041
   35CHL1   C10 3735   2.477   3.609   7.694  0.1484 -0.1117 -0.2641
   35CHL1   C19 3736   2.336   3.648   7.737  0.0229 -0.0750  0.1298
   35CHL1  H19A 3737   2.295   3.729   7.673 -1.6759  0.9645  2.3712
   35CHL1  H19B 3738   2.259   3.568   7.735 -0.7981  0.7060 -0.1674
   35CHL1  H19C 3739   2.331   3.692   7.839 -1.8103 -0.1625  0.1209
   35CHL1    C1 3740   2.521   3.491   7.787 -0.3626  0.1769 -0.1016
   35CHL1   H1A 3741   2.446   3.409   7.781 -0.6739  0.5221 -1.1357
   35CHL1   H1B 3742   2.614   3.443   7.749 -0.4972  0.9337 -1.4430
   35CHL1    C2 3743   2.541   3.535   7.933 -0.4008 -0.2424 -0.4032
   35CHL1   H2A 3744   2.590   3.454   7.991 -1.0110  0.3829  1.0393
   35CHL1   H2B 3745   2.439   3.543   7.976 -0.2673 -2.6355  0.5014
   35CHL1   C20 3746   2.320   3.408   7.038 -0.1911 -0.0731 -0.2758
   35CHL1   H20 3747   2.224   3.461   7.054 -0.7026 -1.2065  0.4941
   35CHL1   C21 3748   2.289   3.254   7.085 -0.5633 -0.6830  0.4585
   35CHL1  H21A 3749   2.217   3.200   7.020 -1.8368  3.1105 -1.6168
   35CHL1  H21B 3750   2.261   3.252   7.192  1.1943  2.4028  1.1192
   35CHL1  H21C 3751   2.388   3.205   7.071 -1.3220 -2.2119  0.3536
   35CHL1   C22 3752   2.350   3.405   6.885  0.0772 -0.1872 -0.1160
   35CHL1  H22A 3753   2.371   3.505   6.841  3.3303 -0.7082 -0.0115
   35CHL1  H22B 3754   2.440   3.343   6.866  0.6381  0.6872 -0.3972
   35CHL1   C23 3755   2.235   3.364   6.793 -0.0935  0.0848  0.8442
   35CHL1  H23A 3756   2.183   3.273   6.831  0.8772 -3.7662 -5.6885
   35CHL1  H23B 3757   2.165   3.450   6.788 -1.5282 -1.1338 -2.0842
   35CHL1   C24 3758   2.284   3.339   6.652 -0.1120  0.1573  0.1480
   35CHL1  H24A 3759   2.358   3.418   6.628 -2.6677  3.2038  1.5609
   35CHL1  H24B 3760   2.324   3.235   6.648  0.3986  0.3816 -1.0588
   35CHL1   C25 3761   2.171   3.366   6.537 -0.2165  0.3871 -0.5225
   35CHL1   H25 3762   2.137   3.469   6.563 -2.7559 -0.4061 -0.4907
   35CHL1   C26 3763   2.231   3.343   6.400  0.0289  0.2579  0.1919
   35CHL1  H26A 3764   2.278   3.243   6.387 -2.3721 -0.9784  0.3128
   35CHL1  H26B 3765   2.153   3.350   6.321  0.7126 -0.0414 -0.5304
   35CHL1  H26C 3766   2.313   3.414   6.377  1.8219 -1.4881  0.8838
   35CHL1   C27 3767   2.044   3.278   6.558  0.2363 -0.4914 -0.4266
   35CHL1  H27A 3768   1.992   3.316   6.649  0.4852  1.7013 -1.1441
   35CHL1  H27B 3769   1.964   3.290   6.483 -0.2163  1.1747  0.2638
   35CHL1  H27C 3770   2.076   3.172   6.561 -4.9847 -2.3491 -0.4073
   36CHL1    C3 3771   4.843   1.381   8.387  0.3241  0.2619  0.2504
   36CHL1    H3 3772   4.950   1.410   8.378  0.5785 -0.9378 -0.8557
   36CHL1    O3 3773   4.813   1.366   8.521 -0.2892 -1.3384 -0.0758
   36CHL1   H3' 3774   4.723   1.336   8.508  0.3545 -2.5535 -2.2163
   36CHL1    C4 3775   4.758   1.496   8.328  0.4506 -0.7013  0.2398
   36CHL1   H4A 3776   4.653   1.492   8.362 -0.9207  0.8016 -3.2602
   36CHL1   H4B 3777   4.795   1.594   8.365 -3.0828  0.4832  1.0200
   36CHL1    C5 3778   4.751   1.506   8.180  0.4584 -0.0872  0.8244
   36CHL1    C6 3779   4.773   1.625   8.118  0.1929 -0.2367  0.1735
   36CHL1    H6 3780   4.774   1.716   8.180 -0.1201  0.7848 -1.2700
   36CHL1    C7 3781   4.777   1.644   7.966  0.4645  0.4783 -0.1698
   36CHL1   H7A 3782   4.726   1.739   7.937 -1.9959 -0.3536  1.1221
   36CHL1   H7B 3783   4.886   1.643   7.944  0.4446 -2.9445 -0.6559
   36CHL1    C8 3784   4.723   1.521   7.884  0.1031  0.2504 -0.1423
   36CHL1    H8 3785   4.613   1.532   7.878  0.0319  0.0786  0.6604
   36CHL1   C14 3786   4.773   1.528   7.741 -0.3303 -0.4194 -0.2950
   36CHL1   H14 3787   4.884   1.520   7.745 -0.3711 -1.3760 -1.0106
   36CHL1   C15 3788   4.753   1.669   7.682  0.6247 -0.0001  0.5429
   36CHL1  H15A 3789   4.654   1.709   7.713  1.3301  2.2779  0.0544
   36CHL1  H15B 3790   4.829   1.741   7.718  1.2877 -2.0991  3.8225
   36CHL1   C16 3791   4.779   1.644   7.531 -0.4379  0.8663  0.0354
   36CHL1  H16A 3792   4.690   1.685   7.479  2.0498  2.3736 -3.4192
   36CHL1  H16B 3793   4.866   1.705   7.499  0.9794 -0.6398  0.8787
   36CHL1   C17 3794   4.795   1.489   7.522  0.1961  0.3559  0.8444
   36CHL1   H17 3795   4.905   1.473   7.529  0.3314  0.4781 -0.6128
   36CHL1   C13 3796   4.730   1.425   7.640 -0.0647  0.8162 -0.0672
   36CHL1   C18 3797   4.577   1.428   7.621  0.2268 -0.3540 -0.1027
   36CHL1  H18A 3798   4.552   1.339   7.560 -0.1794 -1.8517  2.1449
   36CHL1  H18B 3799   4.524   1.402   7.716 -1.1584 -2.2250 -1.3182
   36CHL1  H18C 3800   4.534   1.527   7.592  1.8662  1.3528  2.7790
   36CHL1   C12 3801   4.771   1.289   7.706 -0.4666  0.1378 -0.3110
   36CHL1  H12A 3802   4.724   1.204   7.651 -0.2375 -0.6232  0.6528
   36CHL1  H12B 3803   4.879   1.273   7.689 -0.8086  0.0887 -2.8179
   36CHL1   C11 3804   4.738   1.268   7.860 -0.2181 -0.0855 -0.0710
   36CHL1  H11A 3805   4.627   1.256   7.861 -0.0457 -2.2131 -0.8474
   36CHL1  H11B 3806   4.776   1.169   7.894  0.9148  0.6704  0.9210
   36CHL1    C9 3807   4.779   1.389   7.947 -0.6006 -0.0986 -0.2803
   36CHL1    H9 3808   4.889   1.404   7.942 -0.3899 -1.3846  0.1179
   36CHL1   C10 3809   4.737   1.377   8.096  0.4016  0.5134  0.4324
   36CHL1   C19 3810   4.583   1.335   8.101  0.0182  1.1407  0.1164
   36CHL1  H19A 3811   4.517   1.387   8.028  0.5697 -0.6210 -1.7319
   36CHL1  H19B 3812   4.573   1.225   8.087  1.0042  0.9908  0.5052
   36CHL1  H19C 3813   4.540   1.361   8.200 -1.4574 -1.3337  0.2176
   36CHL1    C1 3814   4.835   1.275   8.156  0.0447  0.0022 -0.1575
   36CHL1   H1A 3815   4.829   1.178   8.103  1.0528  0.9486 -2.0876
   36CHL1   H1B 3816   4.939   1.310   8.137 -0.2358  0.7711 -0.2911
   36CHL1    C2 3817   4.824   1.253   8.311 -0.5472  0.0042 -0.2367
   36CHL1   H2A 3818   4.897   1.174   8.341 -1.4070 -0.5535  0.4305
   36CHL1   H2B 3819   4.723   1.210   8.327 -0.6329  0.6981  1.2106
   36CHL1   C20 3820   4.742   1.435   7.382 -0.7902 -0.1859  0.4444
   36CHL1   H20 3821   4.630   1.433   7.383 -0.7762 -1.4265  0.3649
   36CHL1   C21 3822   4.797   1.288   7.361 -0.0509 -0.4788  0.2882
   36CHL1  H21A 3823   4.907   1.290   7.374 -0.1663  0.0213  1.2354
   36CHL1  H21B 3824   4.764   1.249   7.262  1.4327 -3.3301  0.7958
   36CHL1  H21C 3825   4.770   1.217   7.442 -2.8706  2.5251  2.2122
   36CHL1   C22 3826   4.802   1.527   7.274  0.4782  0.1619 -0.2772
   36CHL1  H22A 3827   4.777   1.635   7.286 -0.7868  0.0268 -1.4892
   36CHL1  H22B 3828   4.912   1.509   7.279  0.0923 -2.3029  0.7809
   36CHL1   C23 3829   4.745   1.505   7.133  0.8147 -0.3543 -0.1602
   36CHL1  H23A 3830   4.788   1.413   7.087  1.9616  0.4156 -0.6499
   36CHL1  H23B 3831   4.635   1.489   7.139  0.4505  0.5234 -3.0492
   36CHL1   C24 3832   4.763   1.623   7.036  0.0778  0.2213 -0.3211
   36CHL1  H24A 3833   4.692   1.701   7.072 -0.6033 -0.3274 -0.4532
   36CHL1  H24B 3834   4.860   1.676   7.044 -0.5508  1.0594  3.6520
   36CHL1   C25 3835   4.735   1.591   6.884 -1.3090 -0.3067  0.7849
   36CHL1   H25 3836   4.765   1.485   6.867  0.4836  0.3955 -0.8209
   36CHL1   C26 3837   4.593   1.601   6.850 -0.3013 -0.0421 -0.7061
   36CHL1  H26A 3838   4.590   1.556   6.748 -1.4590 -0.8872 -0.3113
   36CHL1  H26B 3839   4.530   1.529   6.904  1.9856 -1.2573  0.4791
   36CHL1  H26C 3840   4.563   1.707   6.836  1.3337  0.6694  0.8128
   36CHL1   C27 3841   4.817   1.678   6.796  0.3344  0.0513 -0.3228
   36CHL1  H27A 3842   4.787   1.783   6.816 -1.6307 -0.9552  2.7754
   36CHL1  H27B 3843   4.926   1.660   6.810  0.3760  0.1478 -0.5169
   36CHL1  H27C 3844   4.793   1.658   6.689 -0.4032 -0.2634 -0.1045
   37CHL1    C3 3845   5.954   6.579   8.153 -0.3076 -0.7766 -0.7380
   37CHL1    H3 3846   6.030   6.527   8.091  0.8784 -0.0568  0.0630
   37CHL1    O3 3847   6.003   6.609   8.287 -0.1543  0.5250 -0.1071
   37CHL1   H3' 3848   5.936   6.594   8.354 -0.1305  2.1193  0.3236
   37CHL1    C4 3849   5.926   6.706   8.072 -0.1495 -0.2725 -0.0887
   37CHL1   H4A 3850   5.845   6.766   8.120  1.6533  2.4536 -0.2396
   37CHL1   H4B 3851   6.008   6.781   8.076 -0.5051  0.0818  0.7522
   37CHL1    C5 3852   5.895   6.666   7.936  0.7743  0.7214  0.2636
   37CHL1    C6 3853   5.960   6.717   7.833  0.2024 -0.4442 -0.5213
   37CHL1    H6 3854   6.024   6.806   7.842 -0.5321  0.0853 -0.5165
   37CHL1    C7 3855   5.931   6.679   7.686  0.2610  0.2532 -0.1971
   37CHL1   H7A 3856   5.925   6.768   7.620 -1.5338  1.2781  1.2528
   37CHL1   H7B 3857   6.012   6.611   7.652  1.0922  0.0979  1.9082
   37CHL1    C8 3858   5.801   6.597   7.672  0.2559  0.0832 -0.1692
   37CHL1    H8 3859   5.718   6.672   7.670  0.6822  0.5976  0.7987
   37CHL1   C14 3860   5.792   6.517   7.533 -0.0739  0.1435  0.0347
   37CHL1   H14 3861   5.868   6.437   7.542 -0.5681 -0.1992  1.6111
   37CHL1   C15 3862   5.843   6.589   7.403 -0.4702 -0.3605  0.9629
   37CHL1  H15A 3863   5.814   6.696   7.406  2.0493  0.5607 -2.1456
   37CHL1  H15B 3864   5.953   6.573   7.400 -0.1770  1.4708  0.9237
   37CHL1   C16 3865   5.764   6.517   7.289  0.7182  0.1887 -0.2163
   37CHL1  H16A 3866   5.695   6.585   7.234 -1.1238 -0.4060  1.2417
   37CHL1  H16B 3867   5.833   6.466   7.219  1.0844  0.9280 -0.4060
   37CHL1   C17 3868   5.671   6.412   7.355 -0.1175 -0.1076 -0.1290
   37CHL1   H17 3869   5.717   6.311   7.354 -0.4512 -0.2677 -1.0648
   37CHL1   C13 3870   5.660   6.458   7.508 -0.9277  0.3949 -0.2082
   37CHL1   C18 3871   5.545   6.559   7.512  0.5829 -0.0828  0.4893
   37CHL1  H18A 3872   5.553   6.647   7.444 -2.6031  0.7060  0.9621
   37CHL1  H18B 3873   5.448   6.519   7.475  1.4326  0.7448 -2.9610
   37CHL1  H18C 3874   5.539   6.593   7.618  1.1869 -0.1542  0.5519
   37CHL1   C12 3875   5.647   6.345   7.612  0.4201 -0.2813  0.0556
   37CHL1  H12A 3876   5.558   6.279   7.602  1.1963 -1.2215 -0.8823
   37CHL1  H12B 3877   5.725   6.267   7.601 -0.7714 -1.6465  0.9157
   37CHL1   C11 3878   5.656   6.406   7.751  0.5421 -0.2734 -0.0727
   37CHL1  H11A 3879   5.559   6.458   7.769  0.4668 -0.0587 -1.0206
   37CHL1  H11B 3880   5.658   6.323   7.825  0.4584 -0.7919 -0.6422
   37CHL1    C9 3881   5.777   6.501   7.783  0.0640 -0.1836  0.1855
   37CHL1    H9 3882   5.863   6.432   7.770 -1.3069 -1.7628 -0.9786
   37CHL1   C10 3883   5.777   6.557   7.921  0.7952 -0.1639  0.3383
   37CHL1   C19 3884   5.652   6.646   7.942 -0.2353 -0.2909 -0.1715
   37CHL1  H19A 3885   5.636   6.714   7.856  1.0120 -2.1721 -1.9782
   37CHL1  H19B 3886   5.555   6.593   7.951 -1.1041  1.1454 -0.7490
   37CHL1  H19C 3887   5.657   6.710   8.033 -0.6700 -0.0123 -0.3391
   37CHL1    C1 3888   5.772   6.435   8.022  0.2024  0.3202 -0.0590
   37CHL1   H1A 3889   5.670   6.395   8.043  0.5291 -1.2628 -1.2778
   37CHL1   H1B 3890   5.840   6.357   7.982  0.1045 -1.3386  2.7648
   37CHL1    C2 3891   5.831   6.483   8.165 -0.0651 -0.6478  0.3410
   37CHL1   H2A 3892   5.854   6.386   8.213  0.4497 -0.9144 -0.4315
   37CHL1   H2B 3893   5.749   6.546   8.206  0.0752 -1.4820  1.9581
   37CHL1   C20 3894   5.546   6.386   7.270 -0.5791 -0.5088  1.0867
   37CHL1   H20 3895   5.480   6.476   7.271 -1.1563 -0.9326  1.4818
   37CHL1   C21 3896   5.458   6.274   7.337  0.1575 -0.0193 -0.7256
   37CHL1  H21A 3897   5.391   6.315   7.415  0.5175  1.4679 -1.1641
   37CHL1  H21B 3898   5.519   6.193   7.383 -0.4961  0.0818  0.3559
   37CHL1  H21C 3899   5.395   6.229   7.257 -0.6735 -1.8427  0.8824
   37CHL1   C22 3900   5.586   6.339   7.125  0.3759 -0.8404  0.0058
   37CHL1  H22A 3901   5.670   6.392   7.075  0.1366 -1.1311 -0.7136
   37CHL1  H22B 3902   5.632   6.240   7.146  0.2885 -0.6471  1.1994
   37CHL1   C23 3903   5.478   6.315   7.012 -0.1385 -0.1333  0.3490
   37CHL1  H23A 3904   5.386   6.275   7.060 -1.0351 -0.0225 -1.2175
   37CHL1  H23B 3905   5.463   6.405   6.948 -2.4634 -0.7214 -0.0226
   37CHL1   C24 3906   5.521   6.216   6.905  0.0485 -0.6305  0.0089
   37CHL1  H24A 3907   5.603   6.250   6.838 -0.2962  0.4485  0.1160
   37CHL1  H24B 3908   5.557   6.132   6.968 -1.5402  1.5865  4.2975
   37CHL1   C25 3909   5.397   6.176   6.823  0.2878  0.1675 -0.2699
   37CHL1   H25 3910   5.307   6.173   6.888 -0.3157 -0.9974 -1.1149
   37CHL1   C26 3911   5.375   6.273   6.703  0.3117 -0.1724  0.1960
   37CHL1  H26A 3912   5.339   6.373   6.737 -0.2309 -0.3902  0.2634
   37CHL1  H26B 3913   5.459   6.292   6.632  0.0908  0.4981  0.1102
   37CHL1  H26C 3914   5.295   6.229   6.640 -1.1137 -1.0629  2.5193
   37CHL1   C27 3915   5.420   6.027   6.775 -0.9046  0.1334 -0.6747
   37CHL1  H27A 3916   5.445   5.957   6.858 -0.8327 -0.8581 -1.5166
   37CHL1  H27B 3917   5.323   5.987   6.738 -0.6761 -1.5863  0.5092
   37CHL1  H27C 3918   5.499   6.026   6.697  2.9526  1.0000  2.8359
   38CHL1    C3 3919   4.032   6.191   8.095 -0.3626 -0.4431  0.3514
   38CHL1    H3 3920   3.979   6.100   8.060 -2.1930  1.0066 -0.8379
   38CHL1    O3 3921   4.053   6.183   8.236  0.2142  0.1677  0.1813
   38CHL1   H3' 3922   4.145   6.205   8.256 -0.5522  1.7705  2.3601
   38CHL1    C4 3923   4.164   6.215   8.022 -0.2872  0.3461  0.2124
   38CHL1   H4A 3924   4.222   6.300   8.062 -1.2707  0.5780  1.2154
   38CHL1   H4B 3925   4.232   6.128   8.031  1.2862  1.7093  2.7718
   38CHL1    C5 3926   4.152   6.236   7.876 -0.0648  0.5599 -0.0431
   38CHL1    C6 3927   4.210   6.161   7.780  0.8767 -0.8397  0.3600
   38CHL1    H6 3928   4.277   6.078   7.806  0.4264 -1.2370  0.2636
   38CHL1    C7 3929   4.196   6.188   7.632  0.2849  0.3571  0.1374
   38CHL1   H7A 3930   4.296   6.171   7.586 -0.1162  0.2706 -0.7394
   38CHL1   H7B 3931   4.131   6.110   7.587  1.0895 -0.2211 -0.0551
   38CHL1    C8 3932   4.140   6.329   7.600  0.3644 -0.1575  0.0004
   38CHL1    H8 3933   4.218   6.405   7.620 -0.6820  0.7033  0.9302
   38CHL1   C14 3934   4.091   6.338   7.456 -0.2167  0.8337  0.1464
   38CHL1   H14 3935   3.999   6.277   7.447 -0.7674  1.6827 -0.1798
   38CHL1   C15 3936   4.185   6.281   7.347 -0.8066  0.0266  0.6143
   38CHL1  H15A 3937   4.287   6.311   7.381 -0.4996 -0.3115  0.0032
   38CHL1  H15B 3938   4.192   6.170   7.344 -3.9026 -0.2276  0.1093
   38CHL1   C16 3939   4.148   6.352   7.209  0.0321  0.0661  0.5702
   38CHL1  H16A 3940   4.227   6.409   7.156 -0.5575  1.0124  0.6894
   38CHL1  H16B 3941   4.105   6.276   7.141 -0.7715  1.0929 -0.1105
   38CHL1   C17 3942   4.036   6.451   7.260 -0.5566 -0.4621 -0.3322
   38CHL1   H17 3943   3.938   6.400   7.255 -0.9950  0.3674 -0.2801
   38CHL1   C13 3944   4.053   6.477   7.412  0.2443  0.1368 -1.0094
   38CHL1   C18 3945   4.165   6.573   7.431 -0.3204 -0.6111  0.4679
   38CHL1  H18A 3946   4.265   6.533   7.403 -0.4153 -1.7582  1.6780
   38CHL1  H18B 3947   4.142   6.673   7.389  0.2987 -0.0405  1.4502
   38CHL1  H18C 3948   4.191   6.583   7.539  1.9632 -1.8011  0.1041
   38CHL1   C12 3949   3.931   6.528   7.500 -0.3969  0.5095  0.1685
   38CHL1  H12A 3950   3.906   6.636   7.488  2.0195  1.2892  1.4464
   38CHL1  H12B 3951   3.841   6.466   7.478 -1.0118  0.9762  1.2580
   38CHL1   C11 3952   3.960   6.514   7.653  0.7368 -0.6635 -0.0673
   38CHL1  H11A 3953   4.033   6.597   7.670 -0.3124  0.6037 -1.4601
   38CHL1  H11B 3954   3.868   6.536   7.711 -0.2991  0.8002 -2.1384
   38CHL1    C9 3955   4.020   6.369   7.694  1.2387  0.4384  0.8233
   38CHL1    H9 3956   3.946   6.290   7.670  1.2146  0.7588 -0.2383
   38CHL1   C10 3957   4.059   6.361   7.844  0.2740  0.8098 -0.0168
   38CHL1   C19 3958   4.131   6.489   7.894 -0.3157 -0.4950 -0.8220
   38CHL1  H19A 3959   4.072   6.583   7.885 -0.1542 -0.1814  1.0028
   38CHL1  H19B 3960   4.164   6.485   8.000 -1.2883  0.0020 -0.4849
   38CHL1  H19C 3961   4.232   6.502   7.849  0.6826  0.5355  1.5535
   38CHL1    C1 3962   3.935   6.343   7.923 -0.2910 -0.0964  0.3419
   38CHL1   H1A 3963   3.856   6.419   7.908 -1.8167 -1.5844  0.5052
   38CHL1   H1B 3964   3.881   6.252   7.890 -3.1171  0.9669  1.7103
   38CHL1    C2 3965   3.948   6.315   8.073 -0.7883 -0.2995  0.0923
   38CHL1   H2A 3966   3.845   6.301   8.111 -1.0747  1.7983  0.1928
   38CHL1   H2B 3967   3.989   6.406   8.121  0.1872 -1.2230  1.0717
   38CHL1   C20 3968   4.021   6.576   7.164 -0.2104 -0.6839  0.5558
   38CHL1   H20 3969   4.102   6.646   7.194 -0.1120 -1.1952  1.5652
   38CHL1   C21 3970   3.885   6.637   7.184 -0.2854 -0.0466 -0.0223
   38CHL1  H21A 3971   3.863   6.673   7.287  0.5101  1.4499 -0.3397
   38CHL1  H21B 3972   3.811   6.560   7.153 -0.3979  0.6325 -1.5162
   38CHL1  H21C 3973   3.871   6.727   7.120 -0.8624 -0.1815 -0.0907
   38CHL1   C22 3974   4.037   6.548   7.008 -1.0814  0.1070 -0.1020
   38CHL1  H22A 3975   3.990   6.638   6.964 -0.1440 -0.1735 -1.7711
   38CHL1  H22B 3976   4.146   6.553   6.987 -1.2235 -0.7089 -1.0942
   38CHL1   C23 3977   3.967   6.430   6.949  0.2188 -0.4978  0.3711
   38CHL1  H23A 3978   3.938   6.355   7.026  0.1641  0.1279  0.9628
   38CHL1  H23B 3979   3.875   6.463   6.895  1.9944  2.0800 -1.3082
   38CHL1   C24 3980   4.060   6.355   6.848 -0.8118 -0.1864 -0.0779
   38CHL1  H24A 3981   4.085   6.418   6.760  0.3480 -0.0676  0.3159
   38CHL1  H24B 3982   4.154   6.329   6.903 -1.2936 -1.2722  0.2491
   38CHL1   C25 3983   4.008   6.224   6.792 -0.1267 -0.4299 -0.1773
   38CHL1   H25 3984   3.903   6.242   6.759  0.0954  1.2644 -0.0517
   38CHL1   C26 3985   4.092   6.179   6.675 -0.4967  0.0409  0.8326
   38CHL1  H26A 3986   4.046   6.097   6.615 -0.2983  0.1375  0.5458
   38CHL1  H26B 3987   4.105   6.271   6.616 -0.6234 -0.1775  0.4586
   38CHL1  H26C 3988   4.196   6.148   6.699 -0.5824 -2.3806 -1.3798
   38CHL1   C27 3989   4.002   6.120   6.901  0.7384  0.3468 -0.3507
   38CHL1  H27A 3990   3.980   6.017   6.867  0.5632 -0.3403  1.7219
   38CHL1  H27B 3991   4.104   6.130   6.946 -0.1515 -0.1527  1.8854
   38CHL1  H27C 3992   3.925   6.142   6.977  0.2965 -1.7636 -0.1348
   39CHL1    C3 3993   4.841   6.217   8.230  0.4468  0.3418  1.2402
   39CHL1    H3 3994   4.943   6.215   8.185 -0.3817  0.8370 -0.8090
   39CHL1    O3 3995   4.835   6.159   8.359  0.6654  0.3829  0.0821
   39CHL1   H3' 3996   4.909   6.098   8.366  0.4624 -0.0324 -1.0755
   39CHL1    C4 3997   4.785   6.368   8.235 -0.4391  0.3347  0.0404
   39CHL1   H4A 3998   4.688   6.367   8.289  0.6737 -0.3687  2.1434
   39CHL1   H4B 3999   4.860   6.422   8.297 -1.2280  1.4596  0.0462
   39CHL1    C5 4000   4.766   6.428   8.094 -0.5849 -0.1302 -0.7781
   39CHL1    C6 4001   4.841   6.531   8.064 -0.2883 -0.7275  0.2465
   39CHL1    H6 4002   4.895   6.591   8.139  0.9304  1.3251 -2.1067
   39CHL1    C7 4003   4.836   6.600   7.933  0.3289 -0.3277  0.0820
   39CHL1   H7A 4004   4.827   6.711   7.940  0.5808 -0.2673 -0.4440
   39CHL1   H7B 4005   4.931   6.583   7.877 -0.3351 -0.3672 -1.0648
   39CHL1    C8 4006   4.721   6.559   7.842 -0.0862  0.3314  0.1280
   39CHL1    H8 4007   4.641   6.618   7.891  0.4825  0.8086  0.4890
   39CHL1   C14 4008   4.756   6.598   7.701  0.1692  0.0831  0.6424
   39CHL1   H14 4009   4.848   6.544   7.667  0.7549  1.4820 -0.0935
   39CHL1   C15 4010   4.789   6.743   7.668 -0.9487 -0.3306 -0.4040
   39CHL1  H15A 4011   4.717   6.814   7.714 -0.8350  0.3151 -1.1836
   39CHL1  H15B 4012   4.892   6.770   7.700 -0.5533  0.3084 -2.1179
   39CHL1   C16 4013   4.776   6.748   7.511  0.1058 -0.0263 -0.1233
   39CHL1  H16A 4014   4.708   6.832   7.484  0.5218  1.5106  3.2202
   39CHL1  H16B 4015   4.873   6.758   7.457 -0.4549 -0.7933 -1.3292
   39CHL1   C17 4016   4.704   6.613   7.463 -0.8422 -0.5218 -0.4728
   39CHL1   H17 4017   4.789   6.548   7.432  0.5397  0.9850 -0.0366
   39CHL1   C13 4018   4.652   6.551   7.593  0.0924 -0.4091 -0.4798
   39CHL1   C18 4019   4.511   6.607   7.619  0.2292  0.1329  0.4461
   39CHL1  H18A 4020   4.446   6.542   7.557  0.7779 -0.2820  0.2964
   39CHL1  H18B 4021   4.480   6.593   7.725  2.3247 -1.3014  0.9340
   39CHL1  H18C 4022   4.485   6.708   7.582  1.1956  0.6817  1.2085
   39CHL1   C12 4023   4.663   6.394   7.598 -0.0837  0.0875 -0.0176
   39CHL1  H12A 4024   4.605   6.330   7.528  0.2125  1.0577 -1.1798
   39CHL1  H12B 4025   4.769   6.370   7.577 -0.1938  0.0911 -0.5943
   39CHL1   C11 4026   4.628   6.340   7.737  0.5420  0.2945 -0.2188
   39CHL1  H11A 4027   4.520   6.354   7.758  1.1360  0.3509  3.3107
   39CHL1  H11B 4028   4.646   6.231   7.737  0.3015  0.2308  1.3851
   39CHL1    C9 4029   4.714   6.408   7.847  0.2942 -0.1096 -0.1658
   39CHL1    H9 4030   4.816   6.376   7.820  0.6376  1.2972 -0.5839
   39CHL1   C10 4031   4.691   6.349   7.990  0.2095 -0.2835 -0.0723
   39CHL1   C19 4032   4.543   6.373   8.034 -0.4353 -0.5992 -0.3917
   39CHL1  H19A 4033   4.464   6.309   7.988 -1.5226  0.0546  0.5026
   39CHL1  H19B 4034   4.523   6.349   8.140  1.3276 -0.9184 -0.1027
   39CHL1  H19C 4035   4.520   6.479   8.013  1.3639  0.0481  0.7338
   39CHL1    C1 4036   4.738   6.203   7.995 -0.0575  0.0080  0.0463
   39CHL1   H1A 4037   4.676   6.135   7.934 -1.5411  1.5465 -0.2372
   39CHL1   H1B 4038   4.838   6.187   7.949  0.0494 -0.2133  0.3565
   39CHL1    C2 4039   4.740   6.143   8.138 -0.2720 -0.8113  0.3465
   39CHL1   H2A 4040   4.770   6.036   8.138  1.3153 -0.3925  0.1192
   39CHL1   H2B 4041   4.641   6.157   8.186 -0.5860  1.7446 -0.8933
   39CHL1   C20 4042   4.616   6.627   7.344  0.8378 -0.0579  0.4623
   39CHL1   H20 4043   4.518   6.669   7.374  1.0942 -0.2118  1.5664
   39CHL1   C21 4044   4.588   6.482   7.295  1.0969 -0.5076  0.2402
   39CHL1  H21A 4045   4.539   6.487   7.195 -0.6002  2.4041  1.0954
   39CHL1  H21B 4046   4.532   6.425   7.373  2.5017 -1.4634  0.5798
   39CHL1  H21C 4047   4.682   6.424   7.286  1.0571 -0.5593  0.1545
   39CHL1   C22 4048   4.670   6.720   7.222 -0.0384 -0.1750 -0.8494
   39CHL1  H22A 4049   4.690   6.827   7.246 -0.1932 -0.1863 -0.6676
   39CHL1  H22B 4050   4.761   6.675   7.178  0.1109 -0.2310 -0.4916
   39CHL1   C23 4051   4.560   6.731   7.117 -0.2459  0.0272 -0.2390
   39CHL1  H23A 4052   4.558   6.633   7.066  1.1073 -0.6006  0.8516
   39CHL1  H23B 4053   4.465   6.762   7.165  1.7305  4.0134  1.5658
   39CHL1   C24 4054   4.597   6.830   7.008  0.1675  0.3059  0.7708
   39CHL1  H24A 4055   4.604   6.929   7.059 -2.9143  1.0681 -0.0726
   39CHL1  H24B 4056   4.696   6.797   6.970 -0.6907  0.4133 -1.7254
   39CHL1   C25 4057   4.492   6.817   6.894 -0.1970 -0.1045 -0.7622
   39CHL1   H25 4058   4.395   6.831   6.946  1.2766  0.5138  2.0313
   39CHL1   C26 4059   4.507   6.930   6.791  0.8323 -0.1175 -0.3448
   39CHL1  H26A 4060   4.515   7.027   6.844 -0.5518 -1.1604  1.9095
   39CHL1  H26B 4061   4.592   6.920   6.720  0.8041 -0.7220 -0.2959
   39CHL1  H26C 4062   4.421   6.944   6.722 -0.6663 -1.5927  1.1368
   39CHL1   C27 4063   4.504   6.681   6.822 -0.5153 -0.7098 -0.2557
   39CHL1  H27A 4064   4.602   6.694   6.771 -0.0678 -0.9231  0.5376
   39CHL1  H27B 4065   4.528   6.594   6.886  4.7775  0.9732  0.5917
   39CHL1  H27C 4066   4.428   6.667   6.742  2.4093 -0.7888 -3.2744
   40CHL1    C3 4067   3.012   5.170   7.945 -0.6281  0.1035 -0.3426
   40CHL1    H3 4068   2.916   5.148   7.893 -0.7977 -0.4156  0.1817
   40CHL1    O3 4069   2.984   5.204   8.083  0.3200  0.0592 -0.2794
   40CHL1   H3' 4070   3.072   5.222   8.119  0.3745  0.1781 -0.4706
   40CHL1    C4 4071   3.121   5.056   7.940  0.1819  0.2491 -0.1662
   40CHL1   H4A 4072   3.202   5.089   8.008  0.5036  0.7832 -0.7947
   40CHL1   H4B 4073   3.071   4.972   7.993  1.3770  0.1273  0.8142
   40CHL1    C5 4074   3.184   5.029   7.804  0.2512  0.3168 -0.2427
   40CHL1    C6 4075   3.196   4.907   7.754  0.4191  0.1847 -0.4776
   40CHL1    H6 4076   3.159   4.827   7.819  1.8275 -0.3868 -0.3483
   40CHL1    C7 4077   3.268   4.869   7.630  0.0793  0.6655 -0.7055
   40CHL1   H7A 4078   3.337   4.782   7.637  0.1591  0.4010 -3.5883
   40CHL1   H7B 4079   3.196   4.836   7.553  0.9412  0.1603 -1.3132
   40CHL1    C8 4080   3.334   4.983   7.558 -0.1667  0.1114  0.2817
   40CHL1    H8 4081   3.435   5.000   7.601 -0.9039  1.3528  1.6506
   40CHL1   C14 4082   3.343   4.951   7.405 -0.0776 -0.7664 -0.1149
   40CHL1   H14 4083   3.235   4.942   7.379 -0.0112  0.7480 -0.9931
   40CHL1   C15 4084   3.406   4.821   7.367 -0.5052 -0.2550  0.3552
   40CHL1  H15A 4085   3.501   4.806   7.422 -1.8702 -1.3469  2.5575
   40CHL1  H15B 4086   3.347   4.729   7.386 -0.1739 -0.4163  0.5936
   40CHL1   C16 4087   3.441   4.837   7.217  0.6495  0.3372 -0.2001
   40CHL1  H16A 4088   3.547   4.809   7.197  0.9158 -1.3510  2.9119
   40CHL1  H16B 4089   3.371   4.786   7.147  0.0446 -0.7521  1.1589
   40CHL1   C17 4090   3.415   4.992   7.184  0.0231 -0.1780 -0.4303
   40CHL1   H17 4091   3.311   5.003   7.148 -0.3007  0.6625  0.6969
   40CHL1   C13 4092   3.414   5.060   7.323  0.5504  0.3445  0.3305
   40CHL1   C18 4093   3.559   5.078   7.372 -0.0619 -0.4256  0.3417
   40CHL1  H18A 4094   3.614   5.140   7.298 -0.1520 -0.8396 -0.0738
   40CHL1  H18B 4095   3.569   5.120   7.475  1.2281 -0.2236  0.1528
   40CHL1  H18C 4096   3.613   4.982   7.358  2.7944  1.4174 -2.8412
   40CHL1   C12 4097   3.333   5.192   7.338  0.0830 -0.0954 -0.3967
   40CHL1  H12A 4098   3.376   5.282   7.289 -0.5840  0.6094  0.2799
   40CHL1  H12B 4099   3.234   5.176   7.292  1.3973 -2.0795 -2.7886
   40CHL1   C11 4100   3.318   5.231   7.486  0.3667  0.2927  0.5986
   40CHL1  H11A 4101   3.414   5.258   7.534  0.2641  1.0396  0.3962
   40CHL1  H11B 4102   3.247   5.316   7.495  0.0018 -0.0476  0.9400
   40CHL1    C9 4103   3.260   5.118   7.579  0.6417  0.2647 -0.1762
   40CHL1    H9 4104   3.159   5.097   7.539 -0.3236  1.1830  1.6784
   40CHL1   C10 4105   3.236   5.155   7.729 -0.1847 -0.2985  0.3010
   40CHL1   C19 4106   3.370   5.210   7.785  0.4644 -0.1231 -0.1057
   40CHL1  H19A 4107   3.412   5.294   7.726  1.1115 -1.5422 -1.7484
   40CHL1  H19B 4108   3.347   5.251   7.885 -4.1686  1.5025 -1.5760
   40CHL1  H19C 4109   3.445   5.129   7.786  0.3749 -0.2254 -0.9960
   40CHL1    C1 4110   3.127   5.262   7.734  0.6266 -0.4308  0.1081
   40CHL1   H1A 4111   3.170   5.359   7.699 -2.8991  2.2999  2.5867
   40CHL1   H1B 4112   3.043   5.220   7.675  0.2148  1.9816 -1.1580
   40CHL1    C2 4113   3.058   5.299   7.867 -0.3828  0.1467  0.7392
   40CHL1   H2A 4114   2.973   5.370   7.862 -1.0879 -0.7142 -0.0660
   40CHL1   H2B 4115   3.138   5.346   7.927  0.7230 -1.0885  0.2753
   40CHL1   C20 4116   3.504   5.043   7.073  0.2081 -0.1462 -0.1096
   40CHL1   H20 4117   3.610   5.046   7.108 -0.0837 -0.2878  0.7990
   40CHL1   C21 4118   3.468   5.192   7.036  0.7409  0.6096 -0.5612
   40CHL1  H21A 4119   3.496   5.248   7.127  0.6009 -4.3578  2.9071
   40CHL1  H21B 4120   3.359   5.193   7.014  0.5088 -3.1561 -0.3112
   40CHL1  H21C 4121   3.518   5.225   6.942  0.2866  1.5445 -0.4774
   40CHL1   C22 4122   3.487   4.961   6.943 -0.6655  0.3816 -0.9397
   40CHL1  H22A 4123   3.557   5.003   6.867  1.0133 -0.2760  0.1842
   40CHL1  H22B 4124   3.506   4.853   6.962  1.9118  1.1805  1.7812
   40CHL1   C23 4125   3.353   4.966   6.870 -0.4042  0.5007 -0.0337
   40CHL1  H23A 4126   3.272   4.925   6.936  0.0658 -1.8907 -0.8382
   40CHL1  H23B 4127   3.329   5.071   6.843  0.6669  0.2480 -2.1858
   40CHL1   C24 4128   3.352   4.881   6.747 -0.4399  0.1343  0.6776
   40CHL1  H24A 4129   3.423   4.931   6.678  0.4889  1.3337  2.4212
   40CHL1  H24B 4130   3.398   4.782   6.768  1.2055  0.1471 -2.3794
   40CHL1   C25 4131   3.212   4.867   6.681  0.5946  0.1064  0.0656
   40CHL1   H25 4132   3.130   4.848   6.754  0.2170  2.4061  0.3248
   40CHL1   C26 4133   3.177   5.001   6.610 -0.2254  0.2593 -0.1197
   40CHL1  H26A 4134   3.082   4.981   6.555 -0.7723  0.0673  0.8715
   40CHL1  H26B 4135   3.161   5.089   6.677 -0.4042  0.1696 -0.0429
   40CHL1  H26C 4136   3.254   5.027   6.534 -0.9418  2.3915 -0.1940
   40CHL1   C27 4137   3.215   4.759   6.574  0.0464 -0.1544 -0.0348
   40CHL1  H27A 4138   3.116   4.725   6.536  0.0493 -1.3679  0.9744
   40CHL1  H27B 4139   3.286   4.774   6.490 -1.5234  0.9176 -1.2306
   40CHL1  H27C 4140   3.250   4.672   6.633  0.0023  0.5756  1.0921
   41CHL1    C3 4141   1.631   6.223   8.172 -0.2368 -0.3081 -0.1505
   41CHL1    H3 4142   1.647   6.329   8.140  0.8579  0.4331  2.6179
   41CHL1    O3 4143   1.609   6.235   8.310 -0.0150 -0.6993 -0.2990
   41CHL1   H3' 4144   1.534   6.292   8.328  1.1445  0.5793  0.7293
   41CHL1    C4 4145   1.496   6.181   8.110 -0.2427  0.8468  0.1431
   41CHL1   H4A 4146   1.456   6.081   8.137  1.2618  0.3458  0.5893
   41CHL1   H4B 4147   1.416   6.254   8.137 -1.3251  0.3709 -1.5625
   41CHL1    C5 4148   1.505   6.159   7.960 -0.1042 -0.1478 -0.1484
   41CHL1    C6 4149   1.424   6.225   7.870 -0.5033 -0.1994 -0.4978
   41CHL1    H6 4150   1.367   6.311   7.907  2.7085  2.3262 -0.9985
   41CHL1    C7 4151   1.423   6.200   7.719 -0.5209  0.1805 -0.0017
   41CHL1   H7A 4152   1.320   6.178   7.682  0.7313 -1.2930 -2.9167
   41CHL1   H7B 4153   1.460   6.296   7.677 -1.5855 -0.2419 -2.0505
   41CHL1    C8 4154   1.505   6.072   7.677 -0.1842  0.3792  0.8099
   41CHL1    H8 4155   1.441   5.984   7.699 -0.3634  0.2011 -0.3647
   41CHL1   C14 4156   1.532   6.077   7.525 -0.7262  0.1973  0.1309
   41CHL1   H14 4157   1.605   6.158   7.505 -2.8020  1.9004 -1.0833
   41CHL1   C15 4158   1.411   6.106   7.431  0.3596  0.3767 -0.6208
   41CHL1  H15A 4159   1.325   6.046   7.466  0.0237 -0.2627 -2.4529
   41CHL1  H15B 4160   1.378   6.212   7.418 -1.7489 -0.3714 -1.7375
   41CHL1   C16 4161   1.454   6.055   7.295 -0.1670  0.3066  0.5110
   41CHL1  H16A 4162   1.396   5.975   7.244  0.9975  0.2286 -0.7639
   41CHL1  H16B 4163   1.472   6.142   7.229  0.4528  0.5761  1.0138
   41CHL1   C17 4164   1.597   5.987   7.323  0.5550 -0.5125 -0.1585
   41CHL1   H17 4165   1.667   6.072   7.308  0.4157 -0.2728  0.5287
   41CHL1   C13 4166   1.606   5.956   7.470 -0.2382  0.6565  0.3759
   41CHL1   C18 4167   1.525   5.830   7.495  0.3634  0.1857 -0.0238
   41CHL1  H18A 4168   1.432   5.830   7.434  0.3080 -2.9266 -0.0987
   41CHL1  H18B 4169   1.581   5.741   7.462 -0.3895 -1.0151  1.7489
   41CHL1  H18C 4170   1.491   5.812   7.600 -0.2596  1.7708  0.0802
   41CHL1   C12 4171   1.741   5.959   7.537  0.2635  0.5545 -0.5016
   41CHL1  H12A 4172   1.800   5.873   7.499 -1.5174 -1.5369  1.1741
   41CHL1  H12B 4173   1.794   6.049   7.498 -0.9626  1.1912 -0.7710
   41CHL1   C11 4174   1.731   5.947   7.692 -0.6360 -1.0251  0.4658
   41CHL1  H11A 4175   1.689   5.846   7.706 -1.9888 -0.7511 -1.3265
   41CHL1  H11B 4176   1.833   5.960   7.736 -0.7069 -0.5485  0.5023
   41CHL1    C9 4177   1.639   6.061   7.754 -0.3052 -0.7937 -0.4535
   41CHL1    H9 4178   1.700   6.152   7.732 -0.1008 -0.0133  2.7960
   41CHL1   C10 4179   1.616   6.062   7.914  0.0967 -0.3096 -0.3800
   41CHL1   C19 4180   1.582   5.916   7.960 -0.1549 -0.6508 -0.0033
   41CHL1  H19A 4181   1.673   5.858   7.939  0.1009 -0.2720  0.0455
   41CHL1  H19B 4182   1.555   5.898   8.067 -1.8009 -2.9764 -0.7298
   41CHL1  H19C 4183   1.500   5.881   7.893  0.8701 -1.8897 -0.6409
   41CHL1    C1 4184   1.751   6.107   7.981  0.0613  0.1555  0.0737
   41CHL1   H1A 4185   1.826   6.027   7.961 -0.1646  0.2938 -1.4605
   41CHL1   H1B 4186   1.788   6.203   7.940 -1.4489  1.4878  1.6842
   41CHL1    C2 4187   1.742   6.131   8.133 -0.2468  0.5375 -0.1414
   41CHL1   H2A 4188   1.841   6.163   8.173  0.7521 -0.5342 -1.6202
   41CHL1   H2B 4189   1.723   6.033   8.182 -2.1066  0.3921 -1.0445
   41CHL1   C20 4190   1.635   5.884   7.223 -0.3369  0.3416  0.4177
   41CHL1   H20 4191   1.557   5.805   7.223  1.1447 -1.4732 -4.4200
   41CHL1   C21 4192   1.768   5.817   7.240  0.4237 -0.6798 -0.4766
   41CHL1  H21A 4193   1.786   5.762   7.334 -0.0355  1.2132  0.7815
   41CHL1  H21B 4194   1.848   5.894   7.241 -1.0819  0.9611  0.9903
   41CHL1  H21C 4195   1.784   5.746   7.156  0.6625 -1.0502 -0.1173
   41CHL1   C22 4196   1.638   5.948   7.073  0.0497 -0.3950 -0.4575
   41CHL1  H22A 4197   1.545   6.001   7.045  1.2390  1.2375 -1.4787
   41CHL1  H22B 4198   1.716   6.025   7.091 -0.6579 -0.3307  3.0881
   41CHL1   C23 4199   1.667   5.850   6.958  0.0604  0.6310 -0.3731
   41CHL1  H23A 4200   1.769   5.811   6.976 -0.0964  0.9871  1.4094
   41CHL1  H23B 4201   1.588   5.773   6.969  0.4625  0.2095 -0.3881
   41CHL1   C24 4202   1.639   5.912   6.818  0.1729 -0.5814 -0.1121
   41CHL1  H24A 4203   1.530   5.912   6.797  0.5317  0.2419 -2.1484
   41CHL1  H24B 4204   1.678   6.016   6.814 -2.2245  0.3902 -0.3958
   41CHL1   C25 4205   1.701   5.840   6.693  0.4603 -0.0394 -0.3037
   41CHL1   H25 4206   1.670   5.891   6.599  0.2552 -4.1585 -2.7077
   41CHL1   C26 4207   1.852   5.834   6.695 -0.3903 -0.5355  0.7808
   41CHL1  H26A 4208   1.885   5.776   6.606 -1.3781 -0.7480  0.5359
   41CHL1  H26B 4209   1.893   5.937   6.696  0.0100 -0.6838  0.1774
   41CHL1  H26C 4210   1.892   5.781   6.784 -0.2245  0.0171  1.0400
   41CHL1   C27 4211   1.647   5.694   6.682  0.2784 -0.2729 -0.3911
   41CHL1  H27A 4212   1.677   5.640   6.590 -0.8548 -0.8173 -0.4613
   41CHL1  H27B 4213   1.689   5.637   6.768 -1.2299 -0.1122  0.4778
   41CHL1  H27C 4214   1.536   5.687   6.681  0.3133 -1.0740 -0.1284
   42CHL1    C3 4215   0.313   5.455   8.001  0.0547 -0.0323  0.9781
   42CHL1    H3 4216   0.209   5.473   8.035 -0.8454  0.9399 -2.0339
   42CHL1    O3 4217   0.403   5.427   8.107  0.6060 -0.4153 -0.0380
   42CHL1   H3' 4218   0.427   5.516   8.135  1.1261 -0.8033  0.7808
   42CHL1    C4 4219   0.311   5.323   7.919 -0.6636 -0.6771  1.0920
   42CHL1   H4A 4220   0.412   5.325   7.873 -1.8128 -0.1057 -1.5812
   42CHL1   H4B 4221   0.287   5.232   7.977 -1.6588 -1.4842 -0.5336
   42CHL1    C5 4222   0.222   5.334   7.792  0.0905  0.5230 -0.2965
   42CHL1    C6 4223   0.123   5.241   7.775  0.4712 -0.2121 -0.1468
   42CHL1    H6 4224   0.124   5.149   7.835  0.4162 -0.4013 -0.4368
   42CHL1    C7 4225   0.019   5.251   7.669 -0.8750  0.0488  0.0291
   42CHL1   H7A 4226  -0.007   5.155   7.618 -1.7939  1.0724 -1.5303
   42CHL1   H7B 4227  -0.077   5.282   7.716 -1.0674  1.8756 -1.4497
   42CHL1    C8 4228   0.063   5.349   7.553  0.0535 -0.0190  0.4276
   42CHL1    H8 4229   0.140   5.300   7.490  1.9388  0.7389  2.0383
   42CHL1   C14 4230  -0.056   5.379   7.464 -0.4298 -0.8498 -0.3072
   42CHL1   H14 4231  -0.127   5.421   7.540  0.3156  0.5760 -0.3572
   42CHL1   C15 4232  -0.142   5.271   7.401 -0.4599  0.3175  0.3771
   42CHL1  H15A 4233  -0.080   5.199   7.343 -2.3735 -0.7843 -0.4252
   42CHL1  H15B 4234  -0.208   5.212   7.469  0.4755 -1.7763 -0.4354
   42CHL1   C16 4235  -0.236   5.350   7.301  0.0151 -0.3319 -0.4249
   42CHL1  H16A 4236  -0.242   5.310   7.198 -3.5378  0.0085 -0.4549
   42CHL1  H16B 4237  -0.338   5.340   7.343 -0.0100 -0.3495 -0.4899
   42CHL1   C17 4238  -0.187   5.494   7.302  0.2557 -0.1028 -0.1576
   42CHL1   H17 4239  -0.250   5.545   7.378  0.4777 -0.9860  0.6366
   42CHL1   C13 4240  -0.040   5.495   7.365 -0.0779  0.4405  0.2851
   42CHL1   C18 4241   0.055   5.450   7.255 -0.0057 -0.2170 -1.1425
   42CHL1  H18A 4242   0.033   5.349   7.213 -0.0297 -1.4515  1.5975
   42CHL1  H18B 4243   0.058   5.520   7.169 -0.9852  0.6851 -0.4629
   42CHL1  H18C 4244   0.154   5.418   7.295 -1.2185 -2.1858  0.5151
   42CHL1   C12 4245  -0.001   5.623   7.432 -0.4090 -0.4225 -0.0916
   42CHL1  H12A 4246   0.015   5.702   7.355  1.7435 -0.2519  0.4772
   42CHL1  H12B 4247  -0.078   5.651   7.507  2.3943  0.4409  2.6975
   42CHL1   C11 4248   0.128   5.602   7.510  0.2917 -0.4845 -0.3333
   42CHL1  H11A 4249   0.208   5.573   7.438  0.5131  0.1374 -0.3391
   42CHL1  H11B 4250   0.156   5.694   7.565  0.5077 -0.2085 -0.9049
   42CHL1    C9 4251   0.114   5.484   7.616  1.1663  0.1422  0.3470
   42CHL1    H9 4252   0.031   5.515   7.683 -0.8025 -0.7651 -1.5341
   42CHL1   C10 4253   0.231   5.462   7.710 -0.5538  0.1003 -0.5328
   42CHL1   C19 4254   0.358   5.448   7.626  0.0459  0.0071 -0.1584
   42CHL1  H19A 4255   0.385   5.544   7.575 -0.8519  0.5344  0.3363
   42CHL1  H19B 4256   0.450   5.412   7.678 -0.2194 -1.8335 -0.8956
   42CHL1  H19C 4257   0.346   5.370   7.548 -0.9001 -0.9877  0.9353
   42CHL1    C1 4258   0.246   5.592   7.804  0.1199 -0.1870 -0.0273
   42CHL1   H1A 4259   0.269   5.683   7.745 -1.4518 -1.3049 -2.5494
   42CHL1   H1B 4260   0.147   5.610   7.851  0.9383  2.8062  0.7798
   42CHL1    C2 4261   0.346   5.574   7.917  0.3265 -0.5121 -0.1543
   42CHL1   H2A 4262   0.368   5.658   7.987 -1.2190  0.7359 -1.1025
   42CHL1   H2B 4263   0.445   5.558   7.869  1.4496 -0.5461  2.0347
   42CHL1   C20 4264  -0.223   5.576   7.168  0.0555 -0.5692 -0.1770
   42CHL1   H20 4265  -0.155   5.664   7.177 -1.5062  0.5601  0.9926
   42CHL1   C21 4266  -0.376   5.607   7.178  0.2757  0.3119  0.2713
   42CHL1  H21A 4267  -0.397   5.691   7.249 -1.7395  0.7169 -0.7413
   42CHL1  H21B 4268  -0.421   5.513   7.217  1.0458  0.0655  0.5903
   42CHL1  H21C 4269  -0.417   5.638   7.080 -1.8487  0.1464  1.0465
   42CHL1   C22 4270  -0.191   5.503   7.038 -0.7257  0.2758 -0.2305
   42CHL1  H22A 4271  -0.103   5.437   7.051  1.5879  3.2133  0.1918
   42CHL1  H22B 4272  -0.273   5.435   7.006 -1.7975  1.4400 -0.0590
   42CHL1   C23 4273  -0.141   5.618   6.929 -0.5746  0.1387 -0.0737
   42CHL1  H23A 4274  -0.222   5.692   6.915 -0.9370 -0.2612 -0.1210
   42CHL1  H23B 4275  -0.055   5.674   6.970 -0.9308 -0.5278  1.7255
   42CHL1   C24 4276  -0.100   5.551   6.796  0.0300  0.2497 -0.8684
   42CHL1  H24A 4277  -0.004   5.500   6.819 -0.7385 -1.3119 -0.9676
   42CHL1  H24B 4278  -0.182   5.479   6.775 -1.4157  0.8050  2.3467
   42CHL1   C25 4279  -0.066   5.643   6.679  0.0571 -0.4241  0.3935
   42CHL1   H25 4280   0.012   5.715   6.711 -1.5601  1.1959  0.8974
   42CHL1   C26 4281  -0.004   5.560   6.559  0.0071  0.2986  0.7641
   42CHL1  H26A 4282   0.086   5.504   6.589 -0.5983 -3.2671 -3.1382
   42CHL1  H26B 4283  -0.084   5.485   6.540  0.2570  0.2079  0.0541
   42CHL1  H26C 4284   0.018   5.617   6.466 -0.5836 -0.1926  0.3135
   42CHL1   C27 4285  -0.189   5.724   6.635  0.2088  0.1514 -0.7754
   42CHL1  H27A 4286  -0.181   5.781   6.540 -2.4032  1.3237 -0.3777
   42CHL1  H27B 4287  -0.273   5.655   6.615  0.4444 -0.8345  1.3814
   42CHL1  H27C 4288  -0.225   5.781   6.724 -1.9995 -0.0908 -1.4674
   43CHL1    C3 4289   2.910   2.464   8.007 -0.5564  0.5274  0.1557
   43CHL1    H3 4290   2.901   2.570   7.974  0.6477  0.3979 -0.6791
   43CHL1    O3 4291   2.934   2.456   8.144 -0.2013  0.3038 -0.1603
   43CHL1   H3' 4292   2.959   2.366   8.168  1.9562  0.3908 -1.7225
   43CHL1    C4 4293   2.781   2.380   7.965 -0.1203 -0.5063 -0.2508
   43CHL1   H4A 4294   2.792   2.277   8.005  1.1558  0.7096  2.7867
   43CHL1   H4B 4295   2.693   2.407   8.028 -0.4342 -0.2487 -0.7917
   43CHL1    C5 4296   2.761   2.383   7.817  0.6384  0.8424  0.0739
   43CHL1    C6 4297   2.638   2.421   7.771 -0.3448  0.8195  1.3332
   43CHL1    H6 4298   2.561   2.438   7.847 -2.0922  1.9538 -0.5673
   43CHL1    C7 4299   2.598   2.423   7.628 -0.1070  0.0278 -0.0513
   43CHL1   H7A 4300   2.505   2.367   7.602  0.3457 -1.6365  1.7506
   43CHL1   H7B 4301   2.580   2.530   7.605 -3.7959 -0.3143  0.6219
   43CHL1    C8 4302   2.709   2.357   7.534  0.0589 -0.0976  0.4732
   43CHL1    H8 4303   2.687   2.248   7.524 -1.4502  0.0558  1.6830
   43CHL1   C14 4304   2.691   2.410   7.391  0.3141 -0.2557  0.3277
   43CHL1   H14 4305   2.724   2.516   7.384  2.3207 -0.9218 -1.4235
   43CHL1   C15 4306   2.542   2.393   7.337 -0.0567 -0.4324  0.3469
   43CHL1  H15A 4307   2.498   2.294   7.362 -0.6418 -0.7353 -1.7436
   43CHL1  H15B 4308   2.490   2.477   7.388 -1.9486  0.5529 -2.9594
   43CHL1   C16 4309   2.567   2.405   7.188  0.6007 -0.6944 -0.3455
   43CHL1  H16A 4310   2.537   2.314   7.132  3.1611 -0.1347 -2.8765
   43CHL1  H16B 4311   2.519   2.498   7.150  1.4929 -0.2812 -0.4855
   43CHL1   C17 4312   2.724   2.406   7.164 -0.6774 -0.2618  0.3839
   43CHL1   H17 4313   2.744   2.515   7.175 -5.3546  0.7705  0.7516
   43CHL1   C13 4314   2.783   2.340   7.289 -0.3070  0.7379 -0.6686
   43CHL1   C18 4315   2.756   2.184   7.275 -0.3363 -0.3577  0.1422
   43CHL1  H18A 4316   2.789   2.131   7.367  2.2975  0.5610 -0.1930
   43CHL1  H18B 4317   2.648   2.175   7.250 -0.4884  1.2943  0.0542
   43CHL1  H18C 4318   2.825   2.146   7.197  0.0075  0.3918  0.0731
   43CHL1   C12 4319   2.929   2.371   7.334  0.5584  0.4156  0.3417
   43CHL1  H12A 4320   3.005   2.317   7.274 -0.3199 -0.2629 -0.1920
   43CHL1  H12B 4321   2.945   2.480   7.320 -0.1648  0.1538 -3.6573
   43CHL1   C11 4322   2.957   2.334   7.477 -0.0937 -0.2832  0.5547
   43CHL1  H11A 4323   2.966   2.225   7.493  0.8015 -0.2462  0.3161
   43CHL1  H11B 4324   3.059   2.371   7.500 -0.7742  1.2838  1.2236
   43CHL1    C9 4325   2.852   2.385   7.578 -0.1766 -0.2444  0.4902
   43CHL1    H9 4326   2.854   2.496   7.572 -0.9882 -0.2848 -0.7095
   43CHL1   C10 4327   2.884   2.340   7.724  0.0107  0.3175  0.5870
   43CHL1   C19 4328   2.904   2.186   7.730 -0.3885 -0.0508 -0.1839
   43CHL1  H19A 4329   3.005   2.166   7.689  0.5288  0.3680  1.7527
   43CHL1  H19B 4330   2.895   2.154   7.836 -1.3075  2.2763  0.5062
   43CHL1  H19C 4331   2.837   2.128   7.663  2.0254 -1.6188 -1.3960
   43CHL1    C1 4332   3.010   2.416   7.776 -0.8327 -0.0755  0.3894
   43CHL1   H1A 4333   3.101   2.387   7.720  0.6377  1.5096  1.8328
   43CHL1   H1B 4334   3.005   2.524   7.750  0.8810 -0.0198  0.1900
   43CHL1    C2 4335   3.032   2.405   7.929  0.1256 -0.3953 -0.0732
   43CHL1   H2A 4336   3.126   2.460   7.953  0.0271  0.6023 -1.8117
   43CHL1   H2B 4337   3.050   2.296   7.941  0.3121 -0.2460  1.0431
   43CHL1   C20 4338   2.765   2.365   7.024  0.2354  0.5798  0.1321
   43CHL1   H20 4339   2.750   2.255   7.014 -1.1140  0.7609  0.0278
   43CHL1   C21 4340   2.913   2.395   7.007  0.4259 -0.4415 -0.3242
   43CHL1  H21A 4341   2.940   2.501   7.024 -1.1929 -0.0340 -0.1442
   43CHL1  H21B 4342   2.937   2.354   6.907  0.0673  0.5096 -0.8082
   43CHL1  H21C 4343   2.980   2.336   7.072 -1.7794  0.2208  2.7874
   43CHL1   C22 4344   2.682   2.447   6.918 -0.2453 -0.2513  0.3174
   43CHL1  H22A 4345   2.574   2.425   6.935 -0.6904 -0.3537 -2.2490
   43CHL1  H22B 4346   2.700   2.556   6.930 -1.4848  0.0563 -0.4185
   43CHL1   C23 4347   2.723   2.409   6.775  0.0998  0.6205  0.0693
   43CHL1  H23A 4348   2.826   2.446   6.757 -0.5017  2.6394  0.5468
   43CHL1  H23B 4349   2.730   2.298   6.770  2.5186  0.7586 -0.5865
   43CHL1   C24 4350   2.626   2.455   6.663 -0.3443 -0.6529 -0.1117
   43CHL1  H24A 4351   2.523   2.448   6.704 -0.4994 -0.1555 -0.4036
   43CHL1  H24B 4352   2.651   2.557   6.626 -1.2930 -0.7271 -0.9912
   43CHL1   C25 4353   2.643   2.382   6.528 -0.4387 -0.3137  0.0304
   43CHL1   H25 4354   2.609   2.280   6.554 -0.8751 -0.0425  0.5603
   43CHL1   C26 4355   2.549   2.442   6.416 -0.7480 -0.2827  0.8018
   43CHL1  H26A 4356   2.580   2.547   6.395 -2.5801  0.6346  2.4615
   43CHL1  H26B 4357   2.570   2.384   6.323  1.3403 -0.7834  1.5429
   43CHL1  H26C 4358   2.444   2.436   6.450 -0.8532  1.4342  0.8733
   43CHL1   C27 4359   2.795   2.380   6.478  0.1117  0.4817  0.0662
   43CHL1  H27A 4360   2.832   2.484   6.477 -0.6885  0.7884  0.6083
   43CHL1  H27B 4361   2.862   2.329   6.550  3.7711 -0.0860 -3.3987
   43CHL1  H27C 4362   2.800   2.326   6.381 -1.2950  0.5430 -0.0630
   44CHL1    C3 4363   3.753   2.673   8.126 -0.0069 -0.0411 -0.0564
   44CHL1    H3 4364   3.686   2.584   8.126 -0.1862  0.0508  1.6606
   44CHL1    O3 4365   3.791   2.684   8.264  0.5484  0.0838  0.1417
   44CHL1   H3' 4366   3.732   2.751   8.299  0.8491  0.3359  0.1638
   44CHL1    C4 4367   3.880   2.666   8.049  0.1474 -0.1625  0.7317
   44CHL1   H4A 4368   3.939   2.758   8.070 -0.0199 -0.1882  1.3265
   44CHL1   H4B 4369   3.947   2.582   8.078  1.2156  0.1720 -0.6449
   44CHL1    C5 4370   3.858   2.662   7.896 -0.1425 -0.2501  0.2122
   44CHL1    C6 4371   3.909   2.561   7.824  0.5388  0.3492  0.0396
   44CHL1    H6 4372   3.971   2.480   7.865 -1.4523 -0.9181  0.7148
   44CHL1    C7 4373   3.912   2.559   7.672  0.4409  0.1991  0.2073
   44CHL1   H7A 4374   4.021   2.554   7.651  0.6499  2.0266  0.6466
   44CHL1   H7B 4375   3.860   2.473   7.626  2.2675 -1.1363  0.5216
   44CHL1    C8 4376   3.856   2.691   7.606  0.1509  0.5115 -0.0035
   44CHL1    H8 4377   3.943   2.760   7.611  1.0157 -0.5096 -0.6217
   44CHL1   C14 4378   3.820   2.668   7.459  0.6604  0.1367 -0.3454
   44CHL1   H14 4379   3.737   2.594   7.459  1.4289 -0.9149  3.3941
   44CHL1   C15 4380   3.931   2.603   7.376 -0.3511  0.0861  0.3223
   44CHL1  H15A 4381   4.028   2.650   7.404  1.3219 -0.9201 -3.2385
   44CHL1  H15B 4382   3.932   2.493   7.391 -2.0421  0.2097  1.5643
   44CHL1   C16 4383   3.885   2.644   7.237 -0.3840  0.2793 -0.2251
   44CHL1  H16A 4384   3.963   2.707   7.189 -0.3207  1.1775  1.0003
   44CHL1  H16B 4385   3.863   2.550   7.183  0.4992 -0.1781  0.1958
   44CHL1   C17 4386   3.767   2.737   7.256  0.0714  0.1919 -0.2144
   44CHL1   H17 4387   3.680   2.667   7.261  1.5397 -1.6036  2.5841
   44CHL1   C13 4388   3.771   2.799   7.394  0.3904  0.2870  0.0796
   44CHL1   C18 4389   3.879   2.913   7.398  0.6478 -0.2848 -0.0973
   44CHL1  H18A 4390   3.888   2.930   7.508  0.5957 -0.0220 -0.1331
   44CHL1  H18B 4391   3.972   2.880   7.347  1.4312  0.0492  1.0796
   44CHL1  H18C 4392   3.855   3.011   7.352 -0.7380 -0.4107  0.3198
   44CHL1   C12 4393   3.640   2.840   7.469 -0.4450  0.7658  0.1540
   44CHL1  H12A 4394   3.590   2.929   7.424  0.8427  2.4369  1.8366
   44CHL1  H12B 4395   3.575   2.750   7.461  1.3168 -0.4519 -1.0555
   44CHL1   C11 4396   3.663   2.869   7.622  0.1016  0.0251  0.5064
   44CHL1  H11A 4397   3.733   2.954   7.624  1.8467 -1.3046  3.3696
   44CHL1  H11B 4398   3.565   2.896   7.668 -1.7206 -2.6203 -1.4633
   44CHL1    C9 4399   3.740   2.751   7.688  0.3281  0.2799 -0.3209
   44CHL1    H9 4400   3.670   2.666   7.692 -0.3245  0.8341  2.3517
   44CHL1   C10 4401   3.771   2.776   7.840  0.7216  0.3301 -0.4254
   44CHL1   C19 4402   3.846   2.912   7.845 -0.5059  0.2123 -0.0318
   44CHL1  H19A 4403   3.786   3.005   7.834 -1.5293 -0.4575 -0.1326
   44CHL1  H19B 4404   3.901   2.920   7.942 -1.8737  0.1495  0.7747
   44CHL1  H19C 4405   3.919   2.922   7.762 -0.2743  0.8555  0.2431
   44CHL1    C1 4406   3.644   2.784   7.929  0.2245  0.3295 -0.1579
   44CHL1   H1A 4407   3.580   2.871   7.900 -0.5055 -0.5903 -1.4532
   44CHL1   H1B 4408   3.574   2.698   7.919  0.1860  0.5522 -2.4242
   44CHL1    C2 4409   3.678   2.797   8.081 -0.0501 -0.1997  0.3059
   44CHL1   H2A 4410   3.581   2.792   8.135  0.0922  0.1023  0.5904
   44CHL1   H2B 4411   3.738   2.888   8.100 -0.1059 -0.0007 -0.4392
   44CHL1   C20 4412   3.749   2.828   7.134  0.5568 -0.8148 -0.3762
   44CHL1   H20 4413   3.843   2.876   7.099 -1.3551  1.2934 -3.1285
   44CHL1   C21 4414   3.644   2.940   7.165 -0.1694  0.7551  0.3684
   44CHL1  H21A 4415   3.551   2.885   7.190 -0.3801 -0.4585 -2.7231
   44CHL1  H21B 4416   3.622   3.011   7.083 -1.9785 -1.1487 -0.8976
   44CHL1  H21C 4417   3.684   2.996   7.252  0.7526 -0.8486  1.0421
   44CHL1   C22 4418   3.704   2.759   7.003 -0.2076  0.0710  0.3165
   44CHL1  H22A 4419   3.766   2.667   7.001  1.0102  0.8670 -1.3485
   44CHL1  H22B 4420   3.597   2.731   7.005 -0.5737  1.1928 -1.4916
   44CHL1   C23 4421   3.731   2.829   6.869 -0.4016 -0.0525 -0.0389
   44CHL1  H23A 4422   3.685   2.930   6.873  0.4527  0.3698 -0.4571
   44CHL1  H23B 4423   3.840   2.850   6.869 -0.4378  0.2880  1.6668
   44CHL1   C24 4424   3.703   2.726   6.757 -0.3061 -0.4054  0.2152
   44CHL1  H24A 4425   3.735   2.625   6.791  0.5989 -0.2884 -0.2484
   44CHL1  H24B 4426   3.593   2.738   6.752 -0.2438  0.4366  0.5926
   44CHL1   C25 4427   3.772   2.766   6.623 -0.0393 -0.2485 -0.0095
   44CHL1   H25 4428   3.872   2.805   6.652  0.3407 -2.1606  1.4631
   44CHL1   C26 4429   3.804   2.643   6.531 -0.0402  0.5410  0.8375
   44CHL1  H26A 4430   3.889   2.666   6.462 -1.0159 -1.0766 -1.0225
   44CHL1  H26B 4431   3.831   2.555   6.593  0.8940  0.0568 -0.2153
   44CHL1  H26C 4432   3.718   2.613   6.468 -0.7301  0.3483  1.8514
   44CHL1   C27 4433   3.698   2.886   6.551 -0.5227 -0.9305 -0.1425
   44CHL1  H27A 4434   3.591   2.860   6.538 -0.6411 -0.5739  0.1078
   44CHL1  H27B 4435   3.691   2.976   6.615 -1.4787 -0.8737 -0.2999
   44CHL1  H27C 4436   3.742   2.910   6.452 -1.3092  1.4183  0.0081
   45CHL1    C3 4437   2.560   0.824   8.084  0.3369 -0.3819  0.4964
   45CHL1    H3 4438   2.553   0.720   8.122 -0.8954 -0.2107  0.7801
   45CHL1    O3 4439   2.635   0.889   8.184  0.8701  0.2332  0.5809
   45CHL1   H3' 4440   2.652   0.822   8.251 -0.4444 -0.5198  0.1901
   45CHL1    C4 4441   2.629   0.824   7.946 -0.3996 -0.3010 -0.3254
   45CHL1   H4A 4442   2.660   0.926   7.916 -0.2265 -0.1119  0.4844
   45CHL1   H4B 4443   2.722   0.765   7.954 -0.5288 -0.4338  0.2290
   45CHL1    C5 4444   2.538   0.769   7.844 -0.3453 -0.1866  0.0029
   45CHL1    C6 4445   2.570   0.664   7.771 -0.1849  0.4866 -0.2251
   45CHL1    H6 4446   2.663   0.612   7.798  0.2326  1.8699  1.1457
   45CHL1    C7 4447   2.497   0.616   7.649  0.2174  0.5466  0.5793
   45CHL1   H7A 4448   2.570   0.582   7.573 -0.6023 -0.2005  0.1024
   45CHL1   H7B 4449   2.435   0.529   7.681 -0.3575  0.7145 -0.0568
   45CHL1    C8 4450   2.389   0.720   7.600 -0.3932  0.2623  1.1426
   45CHL1    H8 4451   2.444   0.791   7.535 -1.4110 -0.2784 -0.3784
   45CHL1   C14 4452   2.295   0.652   7.498  0.4070 -0.1086 -0.2238
   45CHL1   H14 4453   2.246   0.572   7.558  1.0297  0.0127  0.4596
   45CHL1   C15 4454   2.352   0.570   7.380  0.0504  0.5894  0.7505
   45CHL1  H15A 4455   2.440   0.626   7.343 -0.7802  0.2855 -1.8509
   45CHL1  H15B 4456   2.387   0.467   7.404 -0.3433 -0.5426 -2.9762
   45CHL1   C16 4457   2.234   0.563   7.283  0.2635 -0.3803 -0.2629
   45CHL1  H16A 4458   2.259   0.613   7.188 -1.8678  1.9711  0.3147
   45CHL1  H16B 4459   2.198   0.459   7.262 -0.3859 -0.0685 -0.7273
   45CHL1   C17 4460   2.116   0.650   7.350 -0.4992 -0.4661 -0.0609
   45CHL1   H17 4461   2.070   0.573   7.416 -1.4253 -0.3695 -0.5765
   45CHL1   C13 4462   2.186   0.746   7.445 -0.2694  0.4627  0.3377
   45CHL1   C18 4463   2.247   0.855   7.355 -0.5523 -0.0759 -0.4975
   45CHL1  H18A 4464   2.170   0.916   7.304  1.2555  1.6692 -1.2736
   45CHL1  H18B 4465   2.290   0.932   7.423 -0.5491 -2.2470  2.1472
   45CHL1  H18C 4466   2.322   0.818   7.282 -1.4641  0.8474 -1.9633
   45CHL1   C12 4467   2.101   0.796   7.563 -0.3442  0.7938 -0.6751
   45CHL1  H12A 4468   2.024   0.870   7.533 -0.9372  1.5573  2.4045
   45CHL1  H12B 4469   2.056   0.704   7.607  2.2149 -0.3804 -0.3150
   45CHL1   C11 4470   2.187   0.871   7.671 -0.3690  0.2738  0.0133
   45CHL1  H11A 4471   2.225   0.964   7.622 -2.9100  2.3613  1.7042
   45CHL1  H11B 4472   2.128   0.905   7.759 -0.6910  0.4506 -0.2662
   45CHL1    C9 4473   2.308   0.787   7.712 -0.3997 -0.3675 -0.0269
   45CHL1    H9 4474   2.262   0.698   7.761 -0.9912 -0.1617 -0.2030
   45CHL1   C10 4475   2.405   0.844   7.825  0.1196  0.3753  0.9131
   45CHL1   C19 4476   2.410   0.996   7.803 -0.4382 -0.1816 -0.2371
   45CHL1  H19A 4477   2.469   1.043   7.884 -0.0649 -0.7406 -0.1790
   45CHL1  H19B 4478   2.463   1.010   7.706 -0.6794  2.2395 -0.0945
   45CHL1  H19C 4479   2.316   1.055   7.800 -0.0784  0.7131  2.7578
   45CHL1    C1 4480   2.337   0.828   7.969 -0.1146 -0.3480  0.2543
   45CHL1   H1A 4481   2.242   0.886   7.965  0.1228 -0.0174 -1.3377
   45CHL1   H1B 4482   2.313   0.720   7.984 -3.7272  0.4808  1.4150
   45CHL1    C2 4483   2.420   0.881   8.086  0.1748 -1.0815  0.1223
   45CHL1   H2A 4484   2.368   0.872   8.184  1.6901  2.0344  1.3341
   45CHL1   H2B 4485   2.435   0.989   8.065 -1.8003 -1.0378 -1.3486
   45CHL1   C20 4486   2.007   0.697   7.250  0.2068  0.7201 -0.1725
   45CHL1   H20 4487   2.046   0.790   7.204 -0.8174  1.9194  1.2851
   45CHL1   C21 4488   1.869   0.708   7.314 -0.2998  0.5506  0.6952
   45CHL1  H21A 4489   1.868   0.800   7.377  0.7300 -0.1742  1.8018
   45CHL1  H21B 4490   1.827   0.615   7.357 -0.7991 -1.3341 -3.3375
   45CHL1  H21C 4491   1.792   0.740   7.240 -0.5412 -0.1256  0.6542
   45CHL1   C22 4492   1.989   0.603   7.124  0.2821 -0.3578 -0.0246
   45CHL1  H22A 4493   2.076   0.607   7.055  1.9476  0.5939  2.0314
   45CHL1  H22B 4494   1.986   0.500   7.165 -3.4595 -1.3098 -2.1863
   45CHL1   C23 4495   1.870   0.618   7.032  0.3678 -0.1641  0.1591
   45CHL1  H23A 4496   1.780   0.588   7.089  1.2436 -1.3287  0.9872
   45CHL1  H23B 4497   1.865   0.727   7.014  1.4203  0.0557  1.1126
   45CHL1   C24 4498   1.884   0.529   6.910  0.1672 -0.5310  0.5350
   45CHL1  H24A 4499   1.981   0.549   6.859  2.0471 -1.1872  3.6112
   45CHL1  H24B 4500   1.873   0.425   6.947 -0.5679 -1.3171 -1.6986
   45CHL1   C25 4501   1.774   0.538   6.804  0.6385  0.0586  0.3993
   45CHL1   H25 4502   1.775   0.642   6.764  2.6993 -0.1238 -0.1522
   45CHL1   C26 4503   1.809   0.445   6.695  0.6064 -0.4792 -0.3238
   45CHL1  H26A 4504   1.770   0.344   6.722 -0.8831  0.2248  0.2539
   45CHL1  H26B 4505   1.766   0.478   6.598  0.5463  0.3356 -0.0225
   45CHL1  H26C 4506   1.918   0.446   6.672  1.4156  0.8919  3.0584
   45CHL1   C27 4507   1.636   0.515   6.850  0.8455  0.1501 -0.7369
   45CHL1  H27A 4508   1.613   0.605   6.910 -0.5634 -0.6328 -0.0273
   45CHL1  H27B 4509   1.572   0.514   6.759  0.2210 -1.1317 -0.3219
   45CHL1  H27C 4510   1.626   0.434   6.926 -2.9989  1.2406  0.1691
   46CHL1    C3 4511   4.784   3.057   8.333 -0.3048  0.1202  0.2205
   46CHL1    H3 4512   4.887   3.099   8.331 -0.6725  1.0787  0.7602
   46CHL1    O3 4513   4.740   3.056   8.468 -0.2285  0.1308  0.1351
   46CHL1   H3' 4514   4.680   2.981   8.468  1.4000 -1.3565  3.3439
   46CHL1    C4 4515   4.694   3.150   8.252  0.5107  0.0039  0.4099
   46CHL1   H4A 4516   4.588   3.121   8.263  0.4315 -0.4562 -1.4028
   46CHL1   H4B 4517   4.716   3.249   8.299 -0.3952 -0.4125  1.7792
   46CHL1    C5 4518   4.721   3.145   8.107 -0.0736  0.3436 -0.4821
   46CHL1    C6 4519   4.755   3.264   8.045 -0.1397 -0.1104  0.2559
   46CHL1    H6 4520   4.759   3.358   8.103  2.5995 -0.4201  0.6856
   46CHL1    C7 4521   4.779   3.265   7.898 -0.1959 -0.5910  0.2017
   46CHL1   H7A 4522   4.721   3.336   7.835 -0.1556  0.3540  1.1875
   46CHL1   H7B 4523   4.886   3.291   7.882  0.2734 -1.7107  1.2914
   46CHL1    C8 4524   4.744   3.123   7.827 -0.6814 -0.5204 -0.3946
   46CHL1    H8 4525   4.633   3.120   7.829 -0.6619 -2.7481  1.2741
   46CHL1   C14 4526   4.807   3.130   7.687 -0.4761  0.4787 -0.4843
   46CHL1   H14 4527   4.915   3.141   7.709  0.2143 -2.8338 -1.5729
   46CHL1   C15 4528   4.743   3.235   7.586 -0.2707 -0.4410 -0.0733
   46CHL1  H15A 4529   4.635   3.247   7.609 -0.1825  0.7714 -0.1990
   46CHL1  H15B 4530   4.778   3.336   7.616 -1.1544  0.0941 -0.8055
   46CHL1   C16 4531   4.773   3.192   7.446 -0.4181  0.2465  0.1034
   46CHL1  H16A 4532   4.684   3.179   7.380 -0.0655  0.9840 -0.5333
   46CHL1  H16B 4533   4.843   3.265   7.401 -0.9536  0.7923  0.1457
   46CHL1   C17 4534   4.847   3.052   7.474  0.5141  0.4361  0.1775
   46CHL1   H17 4535   4.952   3.086   7.485  0.5391 -0.2144  2.2544
   46CHL1   C13 4536   4.800   2.999   7.608  0.2633 -0.2156 -0.3952
   46CHL1   C18 4537   4.657   2.955   7.592  0.1039  0.0803 -0.4022
   46CHL1  H18A 4538   4.648   2.858   7.540 -2.4985 -1.1944  2.1828
   46CHL1  H18B 4539   4.604   2.944   7.689  0.6224 -2.2992 -0.3428
   46CHL1  H18C 4540   4.598   3.033   7.538  1.3426  2.9799  2.1047
   46CHL1   C12 4541   4.886   2.889   7.689  0.0768  0.0718  0.5403
   46CHL1  H12A 4542   4.888   2.793   7.633  1.1429  0.8568 -0.8369
   46CHL1  H12B 4543   4.995   2.912   7.686  0.6144 -2.2480 -0.0890
   46CHL1   C11 4544   4.829   2.875   7.830 -0.0750 -0.4093 -0.2360
   46CHL1  H11A 4545   4.726   2.834   7.819 -0.1367 -0.0842 -0.9117
   46CHL1  H11B 4546   4.894   2.811   7.894  0.5940 -1.1430 -1.5995
   46CHL1    C9 4547   4.806   3.010   7.908 -0.3813 -0.1173 -0.0283
   46CHL1    H9 4548   4.910   3.044   7.928  0.5020 -2.9212  0.5242
   46CHL1   C10 4549   4.741   3.003   8.047  0.2698 -0.3325 -0.3627
   46CHL1   C19 4550   4.598   2.938   8.035 -0.0718  1.1372 -1.1015
   46CHL1  H19A 4551   4.549   2.974   7.942  1.2165  2.9347 -1.1496
   46CHL1  H19B 4552   4.605   2.827   8.035 -0.4869  1.0903 -2.2791
   46CHL1  H19C 4553   4.537   2.961   8.125 -1.0223  0.0095 -1.4423
   46CHL1    C1 4554   4.829   2.912   8.139  0.3271 -0.6052  0.0427
   46CHL1   H1A 4555   4.813   2.807   8.107 -2.2786 -0.3619  0.2644
   46CHL1   H1B 4556   4.936   2.935   8.120  0.8969  1.4574  4.4378
   46CHL1    C2 4557   4.787   2.918   8.283 -0.0906  0.0117  0.0117
   46CHL1   H2A 4558   4.846   2.854   8.352 -0.5286 -0.3465  0.0578
   46CHL1   H2B 4559   4.684   2.877   8.288 -0.0951 -0.1144 -0.9573
   46CHL1   C20 4560   4.842   2.968   7.346 -0.3786  0.2312 -0.0006
   46CHL1   H20 4561   4.738   2.928   7.343 -0.2298 -0.1405 -0.3493
   46CHL1   C21 4562   4.933   2.848   7.356  0.1947 -0.1211 -0.9622
   46CHL1  H21A 4563   4.906   2.789   7.447  0.1765  1.8390  0.3671
   46CHL1  H21B 4564   5.038   2.885   7.363  0.3974 -0.4562 -2.0956
   46CHL1  H21C 4565   4.907   2.774   7.278 -2.4883  0.9854 -1.2130
   46CHL1   C22 4566   4.873   3.053   7.219  0.3998 -0.3335 -0.1342
   46CHL1  H22A 4567   4.793   3.129   7.204  0.4464 -0.8128 -3.7287
   46CHL1  H22B 4568   4.969   3.109   7.213  0.8331 -1.1863 -2.9938
   46CHL1   C23 4569   4.891   2.972   7.089 -0.8101  0.2368  0.3145
   46CHL1  H23A 4570   4.925   3.039   7.007 -0.0050 -1.3842 -0.7300
   46CHL1  H23B 4571   4.979   2.904   7.090 -0.2982  0.8450 -0.7481
   46CHL1   C24 4572   4.763   2.901   7.049  0.3264  0.1951  0.6317
   46CHL1  H24A 4573   4.741   2.812   7.111 -0.8641  1.5002  2.1508
   46CHL1  H24B 4574   4.666   2.950   7.068  0.7229  2.4403 -2.3860
   46CHL1   C25 4575   4.766   2.851   6.900 -0.6622 -0.5865  0.0348
   46CHL1   H25 4576   4.782   2.944   6.840  0.6459 -1.9469 -1.8441
   46CHL1   C26 4577   4.886   2.761   6.871 -0.3466  0.4955 -0.3186
   46CHL1  H26A 4578   4.879   2.669   6.932  0.9262  0.5287 -0.1163
   46CHL1  H26B 4579   4.884   2.742   6.761  1.5031 -1.3820 -0.0842
   46CHL1  H26C 4580   4.988   2.798   6.890  0.4231  0.1218 -3.2512
   46CHL1   C27 4581   4.635   2.786   6.846  0.5437 -0.8775  0.0181
   46CHL1  H27A 4582   4.638   2.685   6.891  1.3319  0.5017  3.3370
   46CHL1  H27B 4583   4.544   2.837   6.884  0.7713  0.1797 -0.8271
   46CHL1  H27C 4584   4.636   2.773   6.736  2.0413 -2.3800  0.1635
   47CHL1    C3 4585   0.870   4.492   8.298 -0.6356 -0.2786 -0.3568
   47CHL1    H3 4586   0.794   4.412   8.286 -0.2861 -1.1182  2.3554
   47CHL1    O3 4587   0.874   4.561   8.426  0.4131  0.0542  0.3832
   47CHL1   H3' 4588   0.957   4.608   8.415 -0.1987  0.6311 -3.0021
   47CHL1    C4 4589   1.014   4.435   8.282  1.0769  0.7675 -0.0837
   47CHL1   H4A 4590   1.079   4.524   8.269  1.4851  0.6776  1.2053
   47CHL1   H4B 4591   1.033   4.373   8.372 -1.3903  0.2711  0.1638
   47CHL1    C5 4592   1.021   4.355   8.152 -0.1909  0.5464 -0.3307
   47CHL1    C6 4593   1.049   4.228   8.145  0.1219  0.4634  0.4183
   47CHL1    H6 4594   1.049   4.169   8.238 -1.3497 -0.1731  0.0503
   47CHL1    C7 4595   1.067   4.145   8.024  0.1235 -0.0603 -0.7284
   47CHL1   H7A 4596   1.140   4.063   8.039  0.6861 -0.0156 -2.8710
   47CHL1   H7B 4597   0.968   4.096   8.017  0.1427 -0.4076  1.1278
   47CHL1    C8 4598   1.075   4.233   7.900  0.8561  0.4249  0.2379
   47CHL1    H8 4599   1.177   4.275   7.884  1.4207 -1.0415 -0.2302
   47CHL1   C14 4600   1.044   4.139   7.783 -0.1321  0.6277 -0.8176
   47CHL1   H14 4601   0.940   4.100   7.793  0.5512 -0.9071  0.6008
   47CHL1   C15 4602   1.127   4.007   7.777 -0.3965  0.5101  0.3489
   47CHL1  H15A 4603   1.226   4.050   7.804 -0.7319  0.8356  1.1066
   47CHL1  H15B 4604   1.090   3.923   7.840  0.6043 -0.3488 -0.1801
   47CHL1   C16 4605   1.121   3.973   7.635 -0.0631  0.1033  1.0187
   47CHL1  H16A 4606   1.215   3.957   7.579  0.0684 -0.5035  1.4100
   47CHL1  H16B 4607   1.068   3.875   7.629 -1.6034  0.9814 -0.9816
   47CHL1   C17 4608   1.047   4.086   7.561  1.3173  0.4106 -0.0525
   47CHL1   H17 4609   0.939   4.065   7.580  1.5587  1.7553  3.7805
   47CHL1   C13 4610   1.056   4.208   7.653  0.2874 -0.0447  0.3029
   47CHL1   C18 4611   1.192   4.275   7.628 -0.3848 -0.3447  0.5673
   47CHL1  H18A 4612   1.187   4.318   7.526  1.9461 -2.0966 -0.3632
   47CHL1  H18B 4613   1.205   4.367   7.688 -2.7476  0.6924 -0.3620
   47CHL1  H18C 4614   1.280   4.208   7.636  0.2693  0.1521 -1.8205
   47CHL1   C12 4615   0.939   4.309   7.645  0.0995 -0.7545  0.2184
   47CHL1  H12A 4616   0.944   4.380   7.560  0.5914 -1.5547 -0.4369
   47CHL1  H12B 4617   0.843   4.255   7.664  1.2409 -3.6921 -1.7262
   47CHL1   C11 4618   0.950   4.412   7.762  0.6834  0.3077 -0.1340
   47CHL1  H11A 4619   1.034   4.475   7.724  0.4284 -0.0020 -1.2486
   47CHL1  H11B 4620   0.853   4.466   7.768 -0.4126 -1.4140 -1.5495
   47CHL1    C9 4621   0.965   4.345   7.905 -0.1827 -0.0461  0.2945
   47CHL1    H9 4622   0.867   4.297   7.926  0.2715 -0.7203  0.9282
   47CHL1   C10 4623   0.987   4.438   8.026  0.6698  0.6270  0.3850
   47CHL1   C19 4624   1.086   4.550   7.987 -0.1491 -0.0705 -0.1357
   47CHL1  H19A 4625   1.031   4.635   7.941 -1.8829 -0.4953  1.0504
   47CHL1  H19B 4626   1.139   4.587   8.077 -0.2554 -1.6316  0.6027
   47CHL1  H19C 4627   1.169   4.514   7.922 -0.7965  0.3596 -1.2250
   47CHL1    C1 4628   0.843   4.514   8.049  0.7026  1.0774 -0.6675
   47CHL1   H1A 4629   0.821   4.580   7.962  1.2480  1.0392 -0.8395
   47CHL1   H1B 4630   0.775   4.428   8.067  0.0218  2.1096  2.3027
   47CHL1    C2 4631   0.844   4.591   8.186 -0.0372 -0.1580 -0.4848
   47CHL1   H2A 4632   0.750   4.647   8.203  0.0714 -0.1293  0.0493
   47CHL1   H2B 4633   0.922   4.670   8.186 -1.3446  1.1655  0.0429
   47CHL1   C20 4634   1.087   4.090   7.419 -0.1834  0.1248  0.5982
   47CHL1   H20 4635   1.199   4.094   7.419 -0.1572 -0.4648  0.7985
   47CHL1   C21 4636   1.016   4.208   7.344 -0.0359  0.4873 -0.7156
   47CHL1  H21A 4637   0.905   4.211   7.345 -0.0464  0.1963  0.6856
   47CHL1  H21B 4638   1.046   4.217   7.237  0.2679 -3.1975 -1.0776
   47CHL1  H21C 4639   1.053   4.305   7.384 -1.3086 -0.3539  2.8737
   47CHL1   C22 4640   1.074   3.959   7.336  0.5972  0.5808  0.7793
   47CHL1  H22A 4641   1.108   3.874   7.399  1.2452 -0.6302 -1.1349
   47CHL1  H22B 4642   0.966   3.955   7.311  0.6770  1.6005  0.2074
   47CHL1   C23 4643   1.154   3.958   7.204  0.1067 -0.0018  0.1108
   47CHL1  H23A 4644   1.143   4.060   7.161  0.0482 -0.5745 -1.3045
   47CHL1  H23B 4645   1.260   3.936   7.229 -0.3135  0.3175  2.3417
   47CHL1   C24 4646   1.116   3.850   7.108 -0.2025  0.0574 -0.6030
   47CHL1  H24A 4647   1.096   3.759   7.168  0.9621 -0.5186 -1.0615
   47CHL1  H24B 4648   1.020   3.881   7.062 -0.1429  0.9870 -0.1412
   47CHL1   C25 4649   1.217   3.804   6.999  0.4472  0.3976 -0.0499
   47CHL1   H25 4650   1.314   3.798   7.051 -0.1738  0.9440  1.1981
   47CHL1   C26 4651   1.168   3.675   6.941  0.0991  0.0307  0.1137
   47CHL1  H26A 4652   1.171   3.599   7.021  1.8262 -2.2795 -2.0175
   47CHL1  H26B 4653   1.062   3.678   6.907  1.2559  5.1113 -4.5960
   47CHL1  H26C 4654   1.231   3.635   6.859 -2.9460 -0.8301 -1.9933
   47CHL1   C27 4655   1.248   3.908   6.890 -0.9471 -0.1603  0.6786
   47CHL1  H27A 4656   1.345   3.882   6.843 -2.0244 -0.0427 -1.8193
   47CHL1  H27B 4657   1.168   3.898   6.812  0.9068  0.1404 -1.3554
   47CHL1  H27C 4658   1.255   4.008   6.938  1.2196 -0.0591  0.2324
   48CHL1    C3 4659   2.960   4.000   7.809 -0.4977  0.3341  0.0151
   48CHL1    H3 4660   2.868   3.938   7.814 -2.2267  2.5164 -2.3299
   48CHL1    O3 4661   3.003   4.026   7.943  0.5675 -0.2194  0.2006
   48CHL1   H3' 4662   3.072   4.092   7.939 -1.2932  1.8400  0.6022
   48CHL1    C4 4663   3.067   3.907   7.750  0.0041 -0.0068 -0.1109
   48CHL1   H4A 4664   3.164   3.961   7.761  0.2908 -0.7958  1.5697
   48CHL1   H4B 4665   3.069   3.814   7.810  0.4502  0.2140  0.2234
   48CHL1    C5 4666   3.049   3.871   7.603 -0.1298 -0.4668  0.3223
   48CHL1    C6 4667   3.032   3.746   7.557 -0.5715 -0.2908  0.2639
   48CHL1    H6 4668   3.046   3.662   7.626  0.9486 -1.0317 -0.9003
   48CHL1    C7 4669   3.019   3.712   7.415  0.4905  0.4610  0.4273
   48CHL1   H7A 4670   3.099   3.637   7.396 -0.9176 -0.9890 -0.1113
   48CHL1   H7B 4671   2.923   3.656   7.405  1.0598 -0.6725  1.0572
   48CHL1    C8 4672   3.030   3.822   7.316 -0.1032  0.7408  0.9193
   48CHL1    H8 4673   3.136   3.840   7.291  0.8606 -4.0819  0.6451
   48CHL1   C14 4674   2.957   3.784   7.186 -0.1127  0.1345  0.0860
   48CHL1   H14 4675   2.850   3.767   7.207  0.0438 -0.7134  0.2506
   48CHL1   C15 4676   3.002   3.650   7.124 -0.0140  1.0904  0.1485
   48CHL1  H15A 4677   3.113   3.648   7.116 -0.0263 -3.0863 -1.4083
   48CHL1  H15B 4678   2.964   3.561   7.178  1.2777 -1.5363 -2.9494
   48CHL1   C16 4679   2.932   3.662   6.986  0.2893 -0.0704  0.0043
   48CHL1  H16A 4680   3.009   3.618   6.919 -0.9954  0.0832 -1.6609
   48CHL1  H16B 4681   2.835   3.608   6.978  1.2995 -1.9260 -0.2230
   48CHL1   C17 4682   2.912   3.814   6.956  0.0781  0.1504 -0.6654
   48CHL1   H17 4683   2.802   3.828   6.970  0.1644  2.2321 -1.6467
   48CHL1   C13 4684   2.976   3.892   7.079 -0.0088 -0.1170  0.1134
   48CHL1   C18 4685   3.122   3.915   7.048  0.0429 -0.4188 -0.0798
   48CHL1  H18A 4686   3.186   3.962   7.126  0.4292  2.4025 -1.9523
   48CHL1  H18B 4687   3.176   3.826   7.009  0.2860 -0.3670  0.1334
   48CHL1  H18C 4688   3.132   3.992   6.969  2.4002  0.6274  1.1494
   48CHL1   C12 4689   2.908   4.026   7.128  0.1707 -0.0662  0.1964
   48CHL1  H12A 4690   2.913   4.107   7.052 -0.5888 -0.1372  0.0624
   48CHL1  H12B 4691   2.801   3.997   7.130  0.3298 -0.6827 -0.1415
   48CHL1   C11 4692   2.967   4.070   7.265  0.1882 -0.1751 -0.1728
   48CHL1  H11A 4693   3.069   4.113   7.256  1.5132 -3.2880 -1.4413
   48CHL1  H11B 4694   2.898   4.148   7.304  0.1159 -0.3820  0.1174
   48CHL1    C9 4695   2.969   3.953   7.371 -0.1371 -0.5015  0.3680
   48CHL1    H9 4696   2.861   3.942   7.394 -0.4993  0.2674 -0.8768
   48CHL1   C10 4697   3.032   3.994   7.511 -0.1794  0.0745 -0.4042
   48CHL1   C19 4698   3.163   4.069   7.490  0.2448 -0.7806  0.4115
   48CHL1  H19A 4699   3.220   4.019   7.409 -0.3581 -1.0335  0.1372
   48CHL1  H19B 4700   3.150   4.167   7.439  0.7851 -0.4469  0.9004
   48CHL1  H19C 4701   3.236   4.086   7.572  0.7731 -0.6605 -0.0727
   48CHL1    C1 4702   2.930   4.091   7.583  0.3568  0.4030  0.6039
   48CHL1   H1A 4703   2.926   4.185   7.523  3.5179 -0.1822 -0.6932
   48CHL1   H1B 4704   2.826   4.051   7.582 -0.2087  1.8035  0.2083
   48CHL1    C2 4705   2.953   4.124   7.733 -0.4413 -0.2979 -0.0297
   48CHL1   H2A 4706   2.873   4.194   7.765 -0.8474  0.3674 -2.3593
   48CHL1   H2B 4707   3.050   4.177   7.735  0.0786 -1.2304  0.3206
   48CHL1   C20 4708   2.948   3.848   6.810  0.3763 -0.3769 -0.9649
   48CHL1   H20 4709   3.058   3.847   6.794  1.2236  3.9249  2.4138
   48CHL1   C21 4710   2.919   3.996   6.783 -0.0009  0.1506  0.0575
   48CHL1  H21A 4711   2.976   4.062   6.851 -1.2827 -1.2862  2.6786
   48CHL1  H21B 4712   2.949   4.024   6.680 -0.9548 -0.6433 -0.4509
   48CHL1  H21C 4713   2.815   4.025   6.809 -0.5077 -0.9111 -0.6949
   48CHL1   C22 4714   2.878   3.757   6.711 -0.1788  0.0192 -0.0409
   48CHL1  H22A 4715   2.891   3.807   6.612 -0.5088 -0.8777 -0.5453
   48CHL1  H22B 4716   2.934   3.662   6.711  0.7185  0.5319  0.9340
   48CHL1   C23 4717   2.732   3.733   6.737  0.4434 -0.2864  0.2651
   48CHL1  H23A 4718   2.716   3.670   6.827 -3.5297  2.2558  1.6368
   48CHL1  H23B 4719   2.681   3.828   6.764  0.3343  0.2516 -1.6967
   48CHL1   C24 4720   2.649   3.665   6.622 -0.6550 -0.2768  0.3979
   48CHL1  H24A 4721   2.543   3.643   6.648  0.0371 -1.8936  1.9659
   48CHL1  H24B 4722   2.650   3.735   6.535 -0.6676 -0.4540  0.2534
   48CHL1   C25 4723   2.712   3.537   6.571 -0.1591 -0.2076  0.6469
   48CHL1   H25 4724   2.820   3.555   6.551  0.0084 -1.1546  0.6789
   48CHL1   C26 4725   2.703   3.424   6.672 -0.2686  0.5401 -0.1779
   48CHL1  H26A 4726   2.751   3.331   6.634  1.0646  0.0342  2.5245
   48CHL1  H26B 4727   2.762   3.460   6.759  1.1437  0.1013 -0.9085
   48CHL1  H26C 4728   2.596   3.408   6.695 -0.4826  2.3115  0.1663
   48CHL1   C27 4729   2.643   3.492   6.447  0.0943  0.5258 -0.2615
   48CHL1  H27A 4730   2.620   3.580   6.384 -0.0122  1.1735  0.6697
   48CHL1  H27B 4731   2.711   3.431   6.384  2.9736  1.3675  1.8021
   48CHL1  H27C 4732   2.549   3.442   6.479  0.8121 -1.5292 -1.1524
   49CHL1    C3 4733   5.168   3.747   5.008 -0.2272  0.4418 -0.2755
   49CHL1    H3 4734   5.102   3.666   5.045 -1.7297  2.0126  0.6322
   49CHL1    O3 4735   5.151   3.787   4.876  0.0219 -0.0326  0.0294
   49CHL1   H3' 4736   5.228   3.840   4.855 -0.4443 -0.1087 -2.0950
   49CHL1    C4 4737   5.143   3.873   5.091 -0.2290  0.2782 -0.0702
   49CHL1   H4A 4738   5.210   3.960   5.072  1.4486 -0.6774  1.2719
   49CHL1   H4B 4739   5.042   3.910   5.061 -0.3703  0.9189  1.1321
   49CHL1    C5 4740   5.161   3.848   5.236 -0.5164  0.1291 -0.2966
   49CHL1    C6 4741   5.075   3.872   5.335 -0.1881 -0.4004 -0.0195
   49CHL1    H6 4742   4.974   3.907   5.310 -1.3335 -3.0136  0.5509
   49CHL1    C7 4743   5.078   3.857   5.486 -0.4582 -0.7066 -0.3292
   49CHL1   H7A 4744   5.049   3.950   5.539  0.2833 -1.5725  1.7091
   49CHL1   H7B 4745   5.021   3.765   5.514 -0.8151  0.0614  1.6173
   49CHL1    C8 4746   5.228   3.838   5.525 -0.0633 -0.3387 -0.3107
   49CHL1    H8 4747   5.281   3.935   5.538 -0.1338 -0.6385  3.2778
   49CHL1   C14 4748   5.234   3.771   5.670 -0.2142 -0.8563 -0.6818
   49CHL1   H14 4749   5.182   3.674   5.650 -1.4167 -0.7619  1.6823
   49CHL1   C15 4750   5.154   3.834   5.786  0.0180  0.0711  0.1171
   49CHL1  H15A 4751   5.158   3.945   5.785 -1.3093  0.1663  1.6523
   49CHL1  H15B 4752   5.047   3.806   5.775 -0.3265  1.0794  0.8013
   49CHL1   C16 4753   5.219   3.791   5.916 -0.3192 -0.4941 -0.5268
   49CHL1  H16A 4754   5.264   3.872   5.977 -0.3007 -1.0235  0.1760
   49CHL1  H16B 4755   5.150   3.746   5.991  1.6915 -0.4387  1.4450
   49CHL1   C17 4756   5.329   3.693   5.875 -0.7025 -0.1097  0.5716
   49CHL1   H17 4757   5.275   3.597   5.860  0.7301 -0.6530 -1.6356
   49CHL1   C13 4758   5.370   3.738   5.725  0.0000  0.1923 -0.7591
   49CHL1   C18 4759   5.463   3.865   5.734 -0.3739 -0.3587  0.3219
   49CHL1  H18A 4760   5.443   3.932   5.819  1.7861  0.0085  0.5712
   49CHL1  H18B 4761   5.568   3.833   5.747 -0.1762  0.1575  0.0101
   49CHL1  H18C 4762   5.466   3.926   5.641  1.6679 -2.0108 -0.7893
   49CHL1   C12 4763   5.428   3.636   5.625 -0.3202  0.4663 -0.4573
   49CHL1  H12A 4764   5.526   3.597   5.661 -0.0318  0.5970 -1.0725
   49CHL1  H12B 4765   5.351   3.556   5.623  0.7687 -0.6106 -0.9825
   49CHL1   C11 4766   5.430   3.700   5.485 -0.4315  0.2626 -0.1846
   49CHL1  H11A 4767   5.510   3.777   5.488 -1.7794  1.7474 -1.0122
   49CHL1  H11B 4768   5.478   3.632   5.411 -1.6424  2.1777 -2.8639
   49CHL1    C9 4769   5.298   3.745   5.425 -0.0612 -0.2657 -0.3617
   49CHL1    H9 4770   5.239   3.651   5.423  0.0524 -0.3346 -0.5248
   49CHL1   C10 4771   5.305   3.795   5.274  0.1710  0.4431  0.6106
   49CHL1   C19 4772   5.408   3.900   5.268  0.4407  0.2256 -0.1180
   49CHL1  H19A 4773   5.508   3.864   5.298 -0.3430 -0.4663  1.8256
   49CHL1  H19B 4774   5.400   3.941   5.165 -1.2153 -0.9145 -0.4921
   49CHL1  H19C 4775   5.383   3.982   5.339 -1.6746 -0.8945  0.5455
   49CHL1    C1 4776   5.342   3.679   5.177  0.3583 -0.0533 -0.4238
   49CHL1   H1A 4777   5.447   3.652   5.198 -0.5417 -4.7169 -0.7738
   49CHL1   H1B 4778   5.288   3.585   5.203 -0.3889  1.0631  2.4173
   49CHL1    C2 4779   5.317   3.709   5.031  0.9479  0.7028 -0.5803
   49CHL1   H2A 4780   5.333   3.612   4.979 -1.5695  0.3302 -0.7709
   49CHL1   H2B 4781   5.380   3.789   4.987 -0.1200  1.8936 -0.0062
   49CHL1   C20 4782   5.443   3.659   5.979  0.2217  0.0617  0.0156
   49CHL1   H20 4783   5.509   3.749   5.978 -1.6994  1.5402 -1.2740
   49CHL1   C21 4784   5.519   3.524   5.952 -0.2506  0.5883  0.0088
   49CHL1  H21A 4785   5.601   3.510   6.025 -0.1457 -1.4107 -0.4147
   49CHL1  H21B 4786   5.553   3.509   5.847 -0.7768 -2.1166  0.1386
   49CHL1  H21C 4787   5.446   3.442   5.969  0.9040 -0.5517 -0.3763
   49CHL1   C22 4788   5.387   3.661   6.124 -0.4600  0.2369 -0.2006
   49CHL1  H22A 4789   5.312   3.742   6.137 -0.9945  0.0585 -1.9312
   49CHL1  H22B 4790   5.323   3.574   6.148 -0.1579  1.0552  4.3061
   49CHL1   C23 4791   5.495   3.669   6.234 -0.3874  0.2471 -0.5772
   49CHL1  H23A 4792   5.559   3.579   6.231  1.3946  1.4898 -1.7582
   49CHL1  H23B 4793   5.555   3.761   6.217 -0.7208  0.0665 -3.0499
   49CHL1   C24 4794   5.431   3.662   6.379  0.1961 -0.1096  0.0684
   49CHL1  H24A 4795   5.351   3.739   6.383  0.1429 -0.1609 -0.0073
   49CHL1  H24B 4796   5.390   3.560   6.392  0.3278 -0.1492  0.1673
   49CHL1   C25 4797   5.519   3.703   6.493 -0.3145  0.1642 -0.0838
   49CHL1   H25 4798   5.605   3.633   6.497 -0.5633 -0.1003  1.0499
   49CHL1   C26 4799   5.578   3.844   6.497  0.1799  0.1184  0.5323
   49CHL1  H26A 4800   5.623   3.873   6.400  2.0614  2.3363  1.9712
   49CHL1  H26B 4801   5.514   3.928   6.532 -0.3348 -1.0791  2.6253
   49CHL1  H26C 4802   5.666   3.839   6.564 -0.2908 -0.2678  1.1410
   49CHL1   C27 4803   5.444   3.686   6.624  0.1092 -0.5593  0.7640
   49CHL1  H27A 4804   5.427   3.577   6.641  2.2358 -0.9978  0.3969
   49CHL1  H27B 4805   5.519   3.718   6.699  1.1647 -0.7670 -0.1745
   49CHL1  H27C 4806   5.350   3.744   6.620  0.3441  0.3441  4.5951
   50CHL1    C3 4807   1.929   4.947   4.960 -0.2717  0.1140 -0.0738
   50CHL1    H3 4808   2.024   4.899   4.992 -2.8259 -4.2282  2.0638
   50CHL1    O3 4809   1.901   4.896   4.829  0.3607 -0.8927  0.3062
   50CHL1   H3' 4810   1.878   4.802   4.830  0.5432 -0.9397  0.1384
   50CHL1    C4 4811   1.825   4.899   5.060 -0.7343  0.2080 -1.1674
   50CHL1   H4A 4812   1.719   4.918   5.033 -1.0274 -0.0472 -0.1990
   50CHL1   H4B 4813   1.840   4.789   5.060  1.3341  0.4411 -1.7219
   50CHL1    C5 4814   1.857   4.949   5.198  0.6607  0.4382 -0.5188
   50CHL1    C6 4815   1.878   4.861   5.298  0.2808 -0.0922  0.0850
   50CHL1    H6 4816   1.868   4.754   5.273 -0.4182 -0.0310  0.0888
   50CHL1    C7 4817   1.892   4.900   5.440 -0.1440 -1.0630  0.3477
   50CHL1   H7A 4818   1.835   4.835   5.510 -0.5814 -1.6208 -0.5040
   50CHL1   H7B 4819   1.999   4.880   5.461  0.0237 -0.4327  0.1106
   50CHL1    C8 4820   1.881   5.050   5.471 -0.6668  0.8033  0.6667
   50CHL1    H8 4821   1.771   5.066   5.481 -0.7492  2.1488 -1.6584
   50CHL1   C14 4822   1.949   5.087   5.595 -0.1095 -0.5018  0.0909
   50CHL1   H14 4823   2.057   5.072   5.575 -0.2400 -0.4754 -0.6395
   50CHL1   C15 4824   1.937   4.992   5.715 -0.3592  0.1352  0.0782
   50CHL1  H15A 4825   1.831   4.961   5.719  0.0010 -1.2975 -0.8934
   50CHL1  H15B 4826   1.993   4.898   5.698 -2.4004 -0.6631 -3.2434
   50CHL1   C16 4827   1.979   5.086   5.830 -0.3762  0.4297 -0.0642
   50CHL1  H16A 4828   1.885   5.071   5.889 -0.6644 -3.4709 -1.2229
   50CHL1  H16B 4829   2.075   5.049   5.871  1.2699  3.4962 -0.8452
   50CHL1   C17 4830   1.998   5.233   5.775 -0.1416  0.1686  0.3330
   50CHL1   H17 4831   2.105   5.244   5.746 -0.0277 -2.4711 -0.5351
   50CHL1   C13 4832   1.922   5.230   5.643 -0.1634  0.3946  0.6833
   50CHL1   C18 4833   1.771   5.258   5.663 -0.4383 -0.4899 -0.6881
   50CHL1  H18A 4834   1.715   5.245   5.568 -0.3629  0.6108 -0.8870
   50CHL1  H18B 4835   1.728   5.184   5.735 -2.8531 -0.5341 -2.0514
   50CHL1  H18C 4836   1.745   5.360   5.699 -0.0844 -0.8460  0.6562
   50CHL1   C12 4837   1.974   5.319   5.532 -0.3521 -0.0664 -0.4420
   50CHL1  H12A 4838   1.958   5.423   5.570 -0.8231 -2.0966  6.0815
   50CHL1  H12B 4839   2.083   5.308   5.516 -0.3244  1.6377 -1.7723
   50CHL1   C11 4840   1.915   5.292   5.394  0.2552  0.2922  0.0993
   50CHL1  H11A 4841   1.814   5.337   5.380  0.4995  0.8813  0.1831
   50CHL1  H11B 4842   1.981   5.354   5.329  0.5625  0.0707  0.2005
   50CHL1    C9 4843   1.929   5.142   5.352 -0.0742 -0.2077 -0.2927
   50CHL1    H9 4844   2.039   5.124   5.353 -0.3550 -2.1599  1.0734
   50CHL1   C10 4845   1.865   5.104   5.213  0.0354  0.1530 -0.1737
   50CHL1   C19 4846   1.722   5.158   5.200 -0.4726 -0.0515 -0.5399
   50CHL1  H19A 4847   1.722   5.268   5.183  0.2227  0.4162  2.0837
   50CHL1  H19B 4848   1.669   5.117   5.110  0.6705 -2.6850 -0.1119
   50CHL1  H19C 4849   1.673   5.133   5.297  4.2214  0.2348  2.1763
   50CHL1    C1 4850   1.952   5.160   5.106  0.0912 -0.2416 -0.2754
   50CHL1   H1A 4851   1.945   5.271   5.103 -0.3966 -0.2550 -3.7035
   50CHL1   H1B 4852   2.058   5.134   5.125 -0.0617  0.0816  1.1753
   50CHL1    C2 4853   1.934   5.101   4.963  0.3234 -0.1074  0.0927
   50CHL1   H2A 4854   2.020   5.126   4.897  0.4386 -1.7360 -0.4366
   50CHL1   H2B 4855   1.840   5.137   4.916  0.6796  1.5120  0.5609
   50CHL1   C20 4856   1.965   5.348   5.878  0.3868 -0.5141 -0.2264
   50CHL1   H20 4857   1.859   5.350   5.909 -0.0482 -2.5241 -1.3905
   50CHL1   C21 4858   1.995   5.489   5.824 -0.2268 -0.0582  1.0061
   50CHL1  H21A 4859   1.926   5.529   5.747 -0.8437 -0.4646  1.3340
   50CHL1  H21B 4860   2.097   5.499   5.781 -0.8650  2.8060 -0.0591
   50CHL1  H21C 4861   1.981   5.568   5.900  0.6436 -0.8923  2.0851
   50CHL1   C22 4862   2.051   5.328   6.012 -0.6770 -0.1534 -0.3286
   50CHL1  H22A 4863   2.041   5.224   6.048 -0.3461 -0.0422  0.0884
   50CHL1  H22B 4864   2.160   5.337   5.997 -0.6786 -0.4274 -0.5073
   50CHL1   C23 4865   2.011   5.421   6.126  0.1238  0.3968 -0.0405
   50CHL1  H23A 4866   2.005   5.526   6.088  0.3057 -0.4966 -2.8030
   50CHL1  H23B 4867   1.902   5.401   6.130  0.4122 -1.3737 -0.2241
   50CHL1   C24 4868   2.095   5.387   6.249  0.5454  0.1398 -0.0121
   50CHL1  H24A 4869   2.101   5.277   6.263  0.2581 -0.2065 -2.2716
   50CHL1  H24B 4870   2.200   5.405   6.217  1.0033 -0.1317  1.2708
   50CHL1   C25 4871   2.074   5.476   6.371 -0.2096  1.0322 -0.2570
   50CHL1   H25 4872   2.084   5.581   6.339  2.0424  0.8406 -0.3339
   50CHL1   C26 4873   1.939   5.453   6.447 -0.1683 -0.2729  0.3889
   50CHL1  H26A 4874   1.944   5.348   6.484  1.5875  0.4324  2.3674
   50CHL1  H26B 4875   1.933   5.510   6.542 -0.3181 -0.3472  0.4238
   50CHL1  H26C 4876   1.853   5.475   6.380 -1.0908  1.5533  2.0837
   50CHL1   C27 4877   2.188   5.455   6.469 -0.3653  0.2983 -0.0789
   50CHL1  H27A 4878   2.175   5.350   6.504 -1.3116 -0.1289 -1.5765
   50CHL1  H27B 4879   2.286   5.467   6.418 -0.4111  0.4333 -0.1351
   50CHL1  H27C 4880   2.192   5.527   6.553  1.8261 -0.2356  0.3502
   51CHL1    C3 4881   0.556   0.870   5.071 -0.2752  0.0666  0.2337
   51CHL1    H3 4882   0.620   0.786   5.103  0.3231  0.1888 -0.6089
   51CHL1    O3 4883   0.505   0.823   4.947  0.4979  0.3413 -0.3744
   51CHL1   H3' 4884   0.443   0.755   4.973  1.3936  0.2820  1.8354
   51CHL1    C4 4885   0.444   0.886   5.178 -0.0335  0.8034  0.2582
   51CHL1   H4A 4886   0.372   0.955   5.129 -0.8684 -0.1226  0.1503
   51CHL1   H4B 4887   0.403   0.784   5.194  4.9423 -1.2358  1.9667
   51CHL1    C5 4888   0.505   0.940   5.306  0.1926 -0.5558 -0.0831
   51CHL1    C6 4889   0.504   0.872   5.418 -0.5644  0.0668 -0.8960
   51CHL1    H6 4890   0.474   0.766   5.416  1.2487 -0.4637 -1.6995
   51CHL1    C7 4891   0.555   0.916   5.555 -0.0881  0.1506  0.5144
   51CHL1   H7A 4892   0.476   0.910   5.633  1.6242  0.1576  2.3168
   51CHL1   H7B 4893   0.645   0.864   5.593 -1.7439 -0.6650  3.6586
   51CHL1    C8 4894   0.585   1.075   5.555 -0.1245  0.3817  0.5526
   51CHL1    H8 4895   0.488   1.128   5.554  0.3973  1.3489  0.7659
   51CHL1   C14 4896   0.662   1.110   5.680  0.0199  0.8200  0.2451
   51CHL1   H14 4897   0.760   1.060   5.685 -1.1924 -1.7328  0.0149
   51CHL1   C15 4898   0.606   1.079   5.817 -0.3206 -0.2034  0.0528
   51CHL1  H15A 4899   0.496   1.095   5.812 -0.3368 -0.1217  0.5975
   51CHL1  H15B 4900   0.625   0.976   5.855 -0.3444 -0.8444 -1.5680
   51CHL1   C16 4901   0.675   1.173   5.914  0.5175  0.2306 -0.8094
   51CHL1  H16A 4902   0.598   1.231   5.970  0.2416  0.0992 -1.0531
   51CHL1  H16B 4903   0.730   1.116   5.992 -1.1573  0.0409  0.2862
   51CHL1   C17 4904   0.767   1.261   5.828 -0.6152 -0.0492 -0.6363
   51CHL1   H17 4905   0.862   1.203   5.828  0.6764  1.9026  1.2838
   51CHL1   C13 4906   0.700   1.263   5.697  0.2705 -0.0468 -0.2723
   51CHL1   C18 4907   0.576   1.349   5.704  0.2349  0.1826 -0.0091
   51CHL1  H18A 4908   0.508   1.338   5.792  0.3161 -1.4001 -0.1257
   51CHL1  H18B 4909   0.608   1.455   5.701  0.1128  0.2029 -3.0850
   51CHL1  H18C 4910   0.501   1.325   5.626 -1.7732 -0.4007  1.9948
   51CHL1   C12 4911   0.785   1.294   5.569 -0.6717  0.0240  0.3337
   51CHL1  H12A 4912   0.816   1.401   5.566 -1.7180  0.4095  2.1949
   51CHL1  H12B 4913   0.874   1.228   5.562 -0.6047  0.1907 -0.6330
   51CHL1   C11 4914   0.707   1.262   5.437  0.3334 -0.1371 -0.0982
   51CHL1  H11A 4915   0.622   1.333   5.434 -1.0040 -1.6584  0.2525
   51CHL1  H11B 4916   0.781   1.277   5.355  2.6314  1.0778  2.0877
   51CHL1    C9 4917   0.659   1.114   5.426  0.4656 -0.1778  0.5952
   51CHL1    H9 4918   0.751   1.051   5.429  0.8969  0.4452  0.4625
   51CHL1   C10 4919   0.582   1.072   5.295 -0.4474  0.5541 -0.3262
   51CHL1   C19 4920   0.473   1.181   5.273 -0.2695 -0.2957  0.0465
   51CHL1  H19A 4921   0.516   1.283   5.262  0.4667 -0.6180 -0.1206
   51CHL1  H19B 4922   0.411   1.156   5.185 -1.6985 -2.6331  1.6172
   51CHL1  H19C 4923   0.403   1.183   5.358 -1.0896 -1.0659 -0.5896
   51CHL1    C1 4924   0.685   1.059   5.179 -0.6273  0.5834 -0.1242
   51CHL1   H1A 4925   0.755   1.144   5.162  3.1260 -1.6607  2.6203
   51CHL1   H1B 4926   0.753   0.977   5.209  0.6450  1.5508 -0.2759
   51CHL1    C2 4927   0.631   1.000   5.043  0.5086 -0.2045 -0.5128
   51CHL1   H2A 4928   0.709   0.989   4.964 -2.6125  0.0743 -3.9272
   51CHL1   H2B 4929   0.568   1.075   4.988  0.9192  0.2849 -0.3246
   51CHL1   C20 4930   0.807   1.395   5.895 -0.2442  0.0806 -0.0753
   51CHL1   H20 4931   0.708   1.443   5.911  0.9620  2.3980  0.9577
   51CHL1   C21 4932   0.897   1.487   5.807  0.1742  0.1058 -0.1266
   51CHL1  H21A 4933   0.938   1.569   5.870 -1.3929 -0.4102  1.6771
   51CHL1  H21B 4934   0.841   1.538   5.726 -0.4004 -2.7955 -1.7068
   51CHL1  H21C 4935   0.980   1.430   5.761 -1.3217 -2.6811  0.3930
   51CHL1   C22 4936   0.874   1.384   6.036  0.9382 -1.1933 -0.0820
   51CHL1  H22A 4937   0.839   1.285   6.072  1.2806 -2.3317 -2.6603
   51CHL1  H22B 4938   0.981   1.359   6.022  0.2903 -3.3988 -1.6937
   51CHL1   C23 4939   0.848   1.509   6.125 -0.1893  0.2713  0.6626
   51CHL1  H23A 4940   0.903   1.592   6.074  2.2560 -1.1574  0.8325
   51CHL1  H23B 4941   0.739   1.529   6.131  0.0413  1.7677  0.2235
   51CHL1   C24 4942   0.900   1.495   6.266  0.4043  0.6389  0.0341
   51CHL1  H24A 4943   0.857   1.401   6.307 -0.8425  1.3790  0.4776
   51CHL1  H24B 4944   1.010   1.488   6.249  0.4074 -3.9604  0.6102
   51CHL1   C25 4945   0.866   1.605   6.368 -0.1511  0.1486 -0.4181
   51CHL1   H25 4946   0.756   1.591   6.375  0.0384 -1.9908 -0.9406
   51CHL1   C26 4947   0.941   1.592   6.500 -0.5896  0.3000 -0.0746
   51CHL1  H26A 4948   0.904   1.668   6.571 -1.4671 -0.3196  0.1536
   51CHL1  H26B 4949   0.913   1.499   6.555 -0.0688 -1.5739 -2.7355
   51CHL1  H26C 4950   1.050   1.600   6.478 -0.7253  1.2790 -0.4219
   51CHL1   C27 4951   0.897   1.737   6.306 -0.1795  0.1455  0.3530
   51CHL1  H27A 4952   0.868   1.826   6.365 -0.0652  0.9240 -0.7354
   51CHL1  H27B 4953   1.005   1.752   6.283 -0.2499 -0.3203 -0.3139
   51CHL1  H27C 4954   0.843   1.753   6.211  0.1092  0.4113  0.2306
   52CHL1    C3 4955   5.943   1.391   4.853 -0.9260  0.2744 -0.4230
   52CHL1    H3 4956   5.870   1.464   4.894  1.1280  1.0128  2.2225
   52CHL1    O3 4957   5.937   1.382   4.709  0.2759  0.4700 -0.1591
   52CHL1   H3' 4958   5.856   1.335   4.688  0.0809  0.7107  0.0451
   52CHL1    C4 4959   6.087   1.432   4.890  0.3180 -0.2759 -0.0357
   52CHL1   H4A 4960   6.150   1.360   4.833  1.0253  0.8379 -0.6878
   52CHL1   H4B 4961   6.120   1.524   4.838  1.2356 -0.6169 -0.0715
   52CHL1    C5 4962   6.120   1.434   5.035 -0.2727 -0.5477  0.1072
   52CHL1    C6 4963   6.168   1.552   5.087  0.0328  0.2250 -0.2943
   52CHL1    H6 4964   6.204   1.632   5.020 -1.3188  1.7068  0.6875
   52CHL1    C7 4965   6.203   1.555   5.230  0.7844 -0.7340  0.0212
   52CHL1   H7A 4966   6.304   1.598   5.249  0.4005  0.1492  0.1432
   52CHL1   H7B 4967   6.139   1.632   5.278  0.7321 -1.1559  0.6514
   52CHL1    C8 4968   6.192   1.421   5.305  0.2128 -0.1975 -0.5012
   52CHL1    H8 4969   6.282   1.362   5.280  1.1783  0.9128  0.2122
   52CHL1   C14 4970   6.174   1.452   5.455  0.7920  0.1189 -0.7351
   52CHL1   H14 4971   6.077   1.504   5.464  0.7802  0.5458 -2.8239
   52CHL1   C15 4972   6.270   1.548   5.527  0.6013 -0.2080  0.2084
   52CHL1  H15A 4973   6.372   1.532   5.486  0.5069  1.7992 -0.9311
   52CHL1  H15B 4974   6.231   1.650   5.510 -1.4947 -0.8779  0.7416
   52CHL1   C16 4975   6.265   1.519   5.680  0.0438  0.1663  0.6123
   52CHL1  H16A 4976   6.369   1.501   5.714  0.3585  1.4649  0.3977
   52CHL1  H16B 4977   6.215   1.603   5.734  1.0744  1.3651 -0.2232
   52CHL1   C17 4978   6.180   1.385   5.692  0.1847  0.7515  0.5826
   52CHL1   H17 4979   6.078   1.418   5.721  0.2373  2.7666 -1.2887
   52CHL1   C13 4980   6.174   1.330   5.546  0.5178  0.4027  0.0346
   52CHL1   C18 4981   6.304   1.249   5.520 -0.1119  0.0351 -0.2868
   52CHL1  H18A 4982   6.389   1.312   5.552  0.8799 -0.2929 -2.1576
   52CHL1  H18B 4983   6.295   1.165   5.592 -0.1291 -1.8722 -2.3829
   52CHL1  H18C 4984   6.311   1.219   5.413 -0.5343 -0.4435 -0.1840
   52CHL1   C12 4985   6.047   1.247   5.509 -0.0380 -0.7154  0.1669
   52CHL1  H12A 4986   6.044   1.151   5.565  0.7400 -1.2734 -0.7183
   52CHL1  H12B 4987   5.957   1.308   5.534  0.8371  0.3041  0.9082
   52CHL1   C11 4988   6.049   1.213   5.357 -0.5384 -0.6623 -0.8355
   52CHL1  H11A 4989   6.132   1.142   5.339  0.4615  0.5352 -1.0838
   52CHL1  H11B 4990   5.955   1.160   5.331 -0.3765 -0.6900 -1.3799
   52CHL1    C9 4991   6.066   1.339   5.271 -0.8887  0.0012  0.3350
   52CHL1    H9 4992   5.979   1.406   5.288 -1.4243 -0.1011 -1.7880
   52CHL1   C10 4993   6.070   1.311   5.118  0.7600 -0.3853 -0.4297
   52CHL1   C19 4994   6.160   1.194   5.098 -0.0136  0.3747 -0.4941
   52CHL1  H19A 4995   6.194   1.172   4.994 -0.8677 -0.8639 -0.5306
   52CHL1  H19B 4996   6.259   1.212   5.145 -1.2398 -0.3055  2.5185
   52CHL1  H19C 4997   6.105   1.104   5.132 -1.4068  1.1848 -0.5352
   52CHL1    C1 4998   5.924   1.281   5.074 -0.6131 -0.3988  0.2397
   52CHL1   H1A 4999   5.895   1.183   5.118 -2.6223  0.9774  2.2222
   52CHL1   H1B 5000   5.849   1.355   5.110  0.7855  1.1357  0.1118
   52CHL1    C2 5001   5.902   1.260   4.918 -0.8487 -0.3066 -0.3189
   52CHL1   H2A 5002   5.804   1.216   4.892 -2.2813  1.5054  1.6389
   52CHL1   H2B 5003   5.970   1.183   4.876 -2.9138 -0.8723 -2.9373
   52CHL1   C20 5004   6.223   1.298   5.799 -0.3692  0.1507  0.1977
   52CHL1   H20 5005   6.326   1.259   5.790  0.3838  2.0893 -0.1108
   52CHL1   C21 5006   6.130   1.176   5.809 -0.1199 -0.0121  0.0590
   52CHL1  H21A 5007   6.135   1.115   5.902 -0.4413  0.1706  0.1948
   52CHL1  H21B 5008   6.157   1.098   5.735 -0.1634 -0.2030  0.2432
   52CHL1  H21C 5009   6.022   1.202   5.802 -0.1130 -0.1700 -0.7215
   52CHL1   C22 5010   6.228   1.377   5.936 -0.2299 -0.7203  0.2213
   52CHL1  H22A 5011   6.311   1.451   5.930 -0.5340 -0.5177 -2.4323
   52CHL1  H22B 5012   6.133   1.431   5.955  0.6270  1.3225 -0.9715
   52CHL1   C23 5013   6.245   1.283   6.058  0.0347  0.0191  0.2092
   52CHL1  H23A 5014   6.148   1.233   6.075 -0.9430  2.3839  2.1030
   52CHL1  H23B 5015   6.327   1.212   6.033 -0.7601 -0.0514 -2.5621
   52CHL1   C24 5016   6.288   1.360   6.185  0.1459  0.1332 -0.5781
   52CHL1  H24A 5017   6.369   1.434   6.171  0.9173 -0.5237  0.3187
   52CHL1  H24B 5018   6.206   1.427   6.220  0.0687 -0.0023 -0.4999
   52CHL1   C25 5019   6.322   1.273   6.310  0.0923  0.5899 -0.0625
   52CHL1   H25 5020   6.389   1.201   6.259  1.1233  1.2431  0.3525
   52CHL1   C26 5021   6.383   1.364   6.414 -0.0061  0.6411  0.2368
   52CHL1  H26A 5022   6.398   1.297   6.501  2.1464 -1.5137 -1.6680
   52CHL1  H26B 5023   6.483   1.397   6.379  0.7525 -1.9686 -0.2673
   52CHL1  H26C 5024   6.315   1.449   6.434  0.9572  1.0266  2.1880
   52CHL1   C27 5025   6.203   1.194   6.369 -0.4982  1.2078  0.2137
   52CHL1  H27A 5026   6.161   1.124   6.293  2.1089  0.6886 -0.8460
   52CHL1  H27B 5027   6.246   1.131   6.450 -0.4710  0.7959 -0.1179
   52CHL1  H27C 5028   6.134   1.273   6.405 -0.1256  2.7364 -2.2060
   53CHL1    C3 5029   4.025   1.825   4.564 -0.1027  0.6001 -0.2191
   53CHL1    H3 5030   3.944   1.853   4.493 -2.3059  0.9835  2.2915
   53CHL1    O3 5031   4.130   1.785   4.481 -0.3271 -0.1068 -0.4633
   53CHL1   H3' 5032   4.173   1.708   4.519  1.1266 -0.1364 -2.0860
   53CHL1    C4 5033   4.070   1.937   4.653 -1.2894  0.2457 -0.4805
   53CHL1   H4A 5034   4.158   1.903   4.711 -1.0003 -1.5091 -1.8687
   53CHL1   H4B 5035   4.100   2.018   4.583  1.1465 -1.0511 -1.0533
   53CHL1    C5 5036   3.957   1.967   4.749 -0.1018 -0.2580  1.1292
   53CHL1    C6 5037   3.909   2.087   4.760 -0.1302 -0.4342 -0.8680
   53CHL1    H6 5038   3.953   2.164   4.695  1.3075  0.5237  1.1050
   53CHL1    C7 5039   3.810   2.143   4.856  0.5484  0.4835 -0.0368
   53CHL1   H7A 5040   3.845   2.233   4.913 -0.3842 -0.1383  1.5937
   53CHL1   H7B 5041   3.716   2.170   4.804  0.4477 -0.5694 -0.4272
   53CHL1    C8 5042   3.768   2.036   4.959 -0.0300 -0.3671 -0.5017
   53CHL1    H8 5043   3.838   2.038   5.045 -0.8481 -0.5693  0.1812
   53CHL1   C14 5044   3.629   2.057   5.015  0.7049 -0.4045  0.7828
   53CHL1   H14 5045   3.545   2.044   4.944 -0.5414 -1.4686  2.3798
   53CHL1   C15 5046   3.599   2.198   5.075  0.1358 -0.1654 -0.2573
   53CHL1  H15A 5047   3.695   2.213   5.129 -0.0479 -1.7410  0.5550
   53CHL1  H15B 5048   3.572   2.278   5.003  1.2120 -0.6202 -1.1819
   53CHL1   C16 5049   3.487   2.184   5.183  0.4039 -0.3781 -0.0664
   53CHL1  H16A 5050   3.536   2.224   5.274  0.2023  0.8396 -0.4780
   53CHL1  H16B 5051   3.394   2.244   5.174 -0.2963 -1.2570  1.0477
   53CHL1   C17 5052   3.457   2.031   5.189 -0.6556  0.0727 -0.7170
   53CHL1   H17 5053   3.378   2.017   5.112 -1.8838  1.1164  0.3144
   53CHL1   C13 5054   3.584   1.962   5.127  0.4031  0.5040  0.8311
   53CHL1   C18 5055   3.683   1.950   5.240 -0.1988 -0.1189 -0.3049
   53CHL1  H18A 5056   3.642   1.888   5.323  2.0231 -2.0543 -0.5421
   53CHL1  H18B 5057   3.785   1.915   5.212 -0.0485 -2.1080  2.2895
   53CHL1  H18C 5058   3.698   2.050   5.284  0.7874  0.7912 -2.5553
   53CHL1   C12 5059   3.564   1.825   5.055 -0.5015  0.2557  0.3756
   53CHL1  H12A 5060   3.551   1.741   5.128 -0.1284 -1.7196 -1.7113
   53CHL1  H12B 5061   3.482   1.831   4.981 -0.8337  1.0203  0.7993
   53CHL1   C11 5062   3.697   1.786   4.979 -0.5264  0.3734 -0.4183
   53CHL1  H11A 5063   3.766   1.767   5.064 -0.3633  1.0361 -0.4011
   53CHL1  H11B 5064   3.693   1.687   4.927  0.9146  0.4109 -0.6516
   53CHL1    C9 5065   3.758   1.898   4.886  0.1897  0.6069  0.0449
   53CHL1    H9 5066   3.688   1.909   4.800  0.5323 -0.6105 -0.4144
   53CHL1   C10 5067   3.889   1.853   4.828 -0.1035 -0.5283 -0.2425
   53CHL1   C19 5068   3.993   1.819   4.945  0.4610 -0.4913  0.1552
   53CHL1  H19A 5069   3.991   1.909   5.012 -2.7512 -0.8669  0.6820
   53CHL1  H19B 5070   3.943   1.744   5.009 -1.0920  1.3057  1.1546
   53CHL1  H19C 5071   4.090   1.781   4.906 -0.9068 -1.0170 -3.0098
   53CHL1    C1 5072   3.866   1.730   4.735 -1.1696 -0.1639  0.1075
   53CHL1   H1A 5073   3.847   1.639   4.795 -0.2223 -0.7899 -0.5247
   53CHL1   H1B 5074   3.779   1.735   4.667 -0.6669  0.4345 -0.5016
   53CHL1    C2 5075   3.987   1.706   4.647 -0.2662 -0.1822  0.2550
   53CHL1   H2A 5076   3.970   1.616   4.584  0.2277  0.1865 -0.4263
   53CHL1   H2B 5077   4.077   1.675   4.705 -0.0530 -1.6557 -0.7801
   53CHL1   C20 5078   3.398   1.997   5.328  0.2039 -0.6585 -0.7065
   53CHL1   H20 5079   3.474   2.019   5.406  0.7151  0.4502 -1.4789
   53CHL1   C21 5080   3.343   1.851   5.310  0.4975 -0.1746 -0.3788
   53CHL1  H21A 5081   3.425   1.782   5.282  1.8562  1.9598 -1.9597
   53CHL1  H21B 5082   3.268   1.851   5.228 -0.6434 -0.9320  0.6235
   53CHL1  H21C 5083   3.297   1.828   5.408  2.5922 -1.9867  0.2672
   53CHL1   C22 5084   3.275   2.085   5.366 -0.6327  0.3411 -0.6433
   53CHL1  H22A 5085   3.223   2.053   5.458  1.2567 -1.6029 -0.1672
   53CHL1  H22B 5086   3.326   2.183   5.369  1.2219 -0.5921  1.3204
   53CHL1   C23 5087   3.159   2.093   5.271 -0.2122  0.3219  0.7261
   53CHL1  H23A 5088   3.195   2.115   5.168 -1.6152  0.4307  0.2326
   53CHL1  H23B 5089   3.097   2.001   5.271  1.1872 -0.7311 -1.7934
   53CHL1   C24 5090   3.072   2.215   5.309  0.1558 -0.0797  0.8107
   53CHL1  H24A 5091   3.011   2.194   5.400 -0.1089 -1.0207  0.4342
   53CHL1  H24B 5092   3.139   2.298   5.340 -1.5866  1.8295 -0.3041
   53CHL1   C25 5093   3.001   2.275   5.184 -0.4285 -0.6993  0.2327
   53CHL1   H25 5094   3.080   2.302   5.110  0.8173  1.2740  2.1408
   53CHL1   C26 5095   2.889   2.200   5.115 -0.1407  0.1682 -0.4718
   53CHL1  H26A 5096   2.807   2.168   5.183  1.5513 -4.1394 -0.0872
   53CHL1  H26B 5097   2.843   2.258   5.033  1.5502  0.5275 -1.2088
   53CHL1  H26C 5098   2.926   2.103   5.073 -0.0800 -0.2022  0.4087
   53CHL1   C27 5099   2.949   2.415   5.213  0.6753 -0.5777 -0.3431
   53CHL1  H27A 5100   2.908   2.442   5.114  0.1247  0.0363  0.0418
   53CHL1  H27B 5101   2.859   2.403   5.278  0.8999  1.4122  0.4051
   53CHL1  H27C 5102   3.031   2.475   5.257 -0.5019 -0.1404  1.3892
   54CHL1    C3 5103   4.773   1.246   4.948  0.1151  0.2526 -0.0085
   54CHL1    H3 5104   4.669   1.238   4.986 -0.8324  1.4349 -2.1264
   54CHL1    O3 5105   4.765   1.265   4.806 -0.2870  0.1773 -0.4682
   54CHL1   H3' 5106   4.725   1.180   4.785 -3.3401  1.4173 -0.2584
   54CHL1    C4 5107   4.841   1.365   5.021 -0.1474  0.1669 -0.4206
   54CHL1   H4A 5108   4.941   1.377   4.974 -0.0390 -1.3746 -0.6616
   54CHL1   H4B 5109   4.782   1.457   5.002  0.0344  0.0538 -1.6284
   54CHL1    C5 5110   4.846   1.337   5.175  0.4781  0.3950  0.0763
   54CHL1    C6 5111   4.776   1.423   5.255 -0.1758  0.4309  0.3182
   54CHL1    H6 5112   4.720   1.507   5.211 -1.5662 -1.0444 -0.8359
   54CHL1    C7 5113   4.785   1.409   5.403  0.9264  1.0684  0.3822
   54CHL1   H7A 5114   4.812   1.503   5.456 -0.4675  1.3583  0.6058
   54CHL1   H7B 5115   4.683   1.386   5.441 -0.0728  2.7282 -1.1153
   54CHL1    C8 5116   4.886   1.302   5.457 -0.0712  0.2840  0.1546
   54CHL1    H8 5117   4.985   1.352   5.451  0.0841  0.2842  2.1018
   54CHL1   C14 5118   4.859   1.262   5.597  0.5174 -0.4826 -0.1977
   54CHL1   H14 5119   4.762   1.209   5.588  1.3789 -1.7999 -2.4376
   54CHL1   C15 5120   4.831   1.377   5.699 -0.4673 -0.0325 -0.2063
   54CHL1  H15A 5121   4.913   1.453   5.694 -1.2454  0.7609 -1.5556
   54CHL1  H15B 5122   4.732   1.427   5.693 -0.9058 -0.9408 -0.7267
   54CHL1   C16 5123   4.834   1.304   5.835 -0.1745  0.2817 -0.0183
   54CHL1  H16A 5124   4.894   1.370   5.901 -0.7104  2.1548 -1.3294
   54CHL1  H16B 5125   4.731   1.286   5.871 -1.1802  2.2565 -1.7426
   54CHL1   C17 5126   4.897   1.161   5.804 -0.1429  0.6473 -0.0689
   54CHL1   H17 5127   4.817   1.083   5.806  0.4442  0.0382 -0.2289
   54CHL1   C13 5128   4.953   1.169   5.662 -0.5532 -0.6565 -0.2856
   54CHL1   C18 5129   5.099   1.231   5.681  0.2689 -0.4903  0.0856
   54CHL1  H18A 5130   5.086   1.324   5.739 -1.6070  1.0749 -2.5861
   54CHL1  H18B 5131   5.171   1.162   5.729  0.7792  0.0835  0.1544
   54CHL1  H18C 5132   5.140   1.273   5.587  1.8144 -0.1589  0.8933
   54CHL1   C12 5133   4.965   1.035   5.579  0.3121 -0.5172  0.6484
   54CHL1  H12A 5134   5.052   0.974   5.612 -0.1218  0.2366  3.3928
   54CHL1  H12B 5135   4.872   0.978   5.602 -0.2998  0.2899  0.2409
   54CHL1   C11 5136   4.986   1.058   5.423  0.3172 -0.3717 -0.1690
   54CHL1  H11A 5137   5.092   1.091   5.414  0.0015  0.3906 -1.2199
   54CHL1  H11B 5138   4.978   0.966   5.362 -0.0615 -1.3521  1.2965
   54CHL1    C9 5139   4.897   1.176   5.369 -0.3684 -0.3543 -0.6803
   54CHL1    H9 5140   4.804   1.117   5.382 -0.2345 -0.4019  0.0814
   54CHL1   C10 5141   4.924   1.210   5.224 -0.3163 -0.1860  0.8201
   54CHL1   C19 5142   5.080   1.239   5.204  0.5750  0.4419 -0.3100
   54CHL1  H19A 5143   5.093   1.307   5.117 -3.7322  3.2974  0.9356
   54CHL1  H19B 5144   5.117   1.286   5.298 -1.4576  0.7893  0.3621
   54CHL1  H19C 5145   5.140   1.146   5.206  1.8587  1.2554  0.4879
   54CHL1    C1 5146   4.865   1.097   5.134  0.0771 -0.2570  0.3448
   54CHL1   H1A 5147   4.933   1.011   5.152 -0.5591 -0.8436 -0.0293
   54CHL1   H1B 5148   4.760   1.074   5.164 -0.0872  0.5321  0.4022
   54CHL1    C2 5149   4.863   1.124   4.981  0.0723 -0.1426  0.4237
   54CHL1   H2A 5150   4.821   1.031   4.938  0.8354  0.3319 -1.4581
   54CHL1   H2B 5151   4.962   1.126   4.932  0.0199 -2.3100  0.1661
   54CHL1   C20 5152   4.989   1.111   5.918  0.0552 -0.4343  0.2113
   54CHL1   H20 5153   5.079   1.174   5.939  1.6801 -1.5880 -2.6564
   54CHL1   C21 5154   5.030   0.963   5.887 -0.5215  0.0295 -0.0445
   54CHL1  H21A 5155   4.941   0.914   5.842  0.7593  0.0485 -2.8212
   54CHL1  H21B 5156   5.072   0.906   5.972 -0.9282 -0.0051  0.1320
   54CHL1  H21C 5157   5.110   0.968   5.809  0.9289 -0.7935  1.3390
   54CHL1   C22 5158   4.914   1.112   6.054  0.6826 -1.0484 -0.2954
   54CHL1  H22A 5159   4.810   1.148   6.043  0.7347 -1.3731 -2.1676
   54CHL1  H22B 5160   4.915   1.006   6.088  0.5083 -0.0505  3.1841
   54CHL1   C23 5161   4.983   1.188   6.178  0.0355 -0.3729  0.8445
   54CHL1  H23A 5162   5.092   1.165   6.177  0.5596  1.8843  1.3465
   54CHL1  H23B 5163   4.967   1.294   6.150 -0.6163 -0.6840 -0.0164
   54CHL1   C24 5164   4.934   1.148   6.321  0.9029  0.1339  0.3648
   54CHL1  H24A 5165   4.825   1.169   6.319  0.6427 -1.1786 -1.3755
   54CHL1  H24B 5166   4.949   1.039   6.334  2.1211  0.1683 -0.6451
   54CHL1   C25 5167   5.002   1.211   6.445 -0.0982 -0.4923 -0.4581
   54CHL1   H25 5168   5.113   1.201   6.440 -0.0556 -0.6983  0.7777
   54CHL1   C26 5169   4.979   1.360   6.441  0.0943 -0.0398  0.8613
   54CHL1  H26A 5170   5.025   1.404   6.350  0.2181  0.5722  1.2138
   54CHL1  H26B 5171   4.869   1.376   6.430 -0.3462 -2.5752  1.0294
   54CHL1  H26C 5172   5.007   1.407   6.538  0.6142 -1.2650  1.3179
   54CHL1   C27 5173   4.951   1.158   6.583 -0.3729  0.4480 -0.2794
   54CHL1  H27A 5174   5.027   1.193   6.656  0.1673 -0.5163 -0.3561
   54CHL1  H27B 5175   4.845   1.180   6.609 -0.9922  0.3428 -2.4436
   54CHL1  H27C 5176   4.960   1.047   6.579  0.2264  0.4933 -0.2244
   55CHL1    C3 5177   1.533   4.229   5.194 -0.7355 -0.1002 -0.2765
   55CHL1    H3 5178   1.452   4.193   5.261 -0.7579  0.3730 -0.0408
   55CHL1    O3 5179   1.509   4.213   5.055 -0.7148  0.0686 -0.9837
   55CHL1   H3' 5180   1.594   4.227   5.012 -0.8939  0.1425 -1.3169
   55CHL1    C4 5181   1.551   4.378   5.212 -0.4762  0.1288  0.6357
   55CHL1   H4A 5182   1.633   4.416   5.148 -1.0640  1.1928  0.4953
   55CHL1   H4B 5183   1.455   4.419   5.174 -2.0420 -2.9830  0.9374
   55CHL1    C5 5184   1.581   4.419   5.358  0.9118 -0.4136 -0.7080
   55CHL1    C6 5185   1.496   4.503   5.427  0.9297  0.5904  0.4215
   55CHL1    H6 5186   1.412   4.544   5.369  0.2023 -1.5659 -0.1250
   55CHL1    C7 5187   1.508   4.548   5.565  0.2599  0.3568  0.0880
   55CHL1   H7A 5188   1.486   4.656   5.578 -0.4598  0.2633 -0.3323
   55CHL1   H7B 5189   1.416   4.509   5.614 -0.0129 -1.1578 -1.5264
   55CHL1    C8 5190   1.641   4.512   5.621  0.4624  0.1073  0.0074
   55CHL1    H8 5191   1.705   4.588   5.571  0.1728 -0.2410 -0.9140
   55CHL1   C14 5192   1.647   4.520   5.776  0.4282 -0.5868 -0.0018
   55CHL1   H14 5193   1.585   4.434   5.809  0.6938 -0.5584  0.5797
   55CHL1   C15 5194   1.578   4.640   5.839  0.3223  0.2299  0.3505
   55CHL1  H15A 5195   1.598   4.744   5.804  1.3395 -0.3026 -0.7242
   55CHL1  H15B 5196   1.468   4.632   5.829  0.4300 -1.7947  0.5068
   55CHL1   C16 5197   1.625   4.618   5.986  0.0634 -1.0905 -0.2806
   55CHL1  H16A 5198   1.660   4.711   6.036 -1.8350  0.8440 -2.3056
   55CHL1  H16B 5199   1.535   4.586   6.043 -0.7773  1.6867  0.1532
   55CHL1   C17 5200   1.740   4.514   5.987 -0.5961 -0.4589  0.2204
   55CHL1   H17 5201   1.692   4.426   6.034 -1.1806  0.6552  1.7648
   55CHL1   C13 5202   1.782   4.497   5.840 -0.0830  0.3541 -0.3109
   55CHL1   C18 5203   1.892   4.607   5.805  0.1933  0.2356 -0.2096
   55CHL1  H18A 5204   1.854   4.706   5.838  1.4977  0.4108  0.8903
   55CHL1  H18B 5205   1.983   4.578   5.862 -0.3355 -1.0333  0.0139
   55CHL1  H18C 5206   1.912   4.607   5.696  3.0594  0.2834  0.2316
   55CHL1   C12 5207   1.827   4.351   5.803  0.2668 -0.1863 -0.8684
   55CHL1  H12A 5208   1.919   4.321   5.858 -0.4454  0.9854  1.0877
   55CHL1  H12B 5209   1.747   4.295   5.857  0.4783 -0.1280 -0.4854
   55CHL1   C11 5210   1.826   4.327   5.649  0.3541 -0.0642  1.2471
   55CHL1  H11A 5211   1.900   4.399   5.608  0.5371  0.2715  2.1317
   55CHL1  H11B 5212   1.855   4.222   5.628  3.4125  1.2390 -2.0258
   55CHL1    C9 5213   1.690   4.370   5.582 -0.7278 -0.4518  0.1906
   55CHL1    H9 5214   1.602   4.308   5.610 -1.2064  0.6212  1.1489
   55CHL1   C10 5215   1.696   4.350   5.425 -0.1232 -0.0975  0.2191
   55CHL1   C19 5216   1.828   4.416   5.368  0.1847  0.2813 -0.7871
   55CHL1  H19A 5217   1.833   4.427   5.258 -1.6985  2.2481 -0.7539
   55CHL1  H19B 5218   1.826   4.521   5.405 -0.1117  0.8798 -2.4306
   55CHL1  H19C 5219   1.920   4.371   5.411  0.4679  1.7931  0.2951
   55CHL1    C1 5220   1.699   4.197   5.387  0.3023  0.5319 -0.2376
   55CHL1   H1A 5221   1.800   4.156   5.409  0.1145  0.7459  1.1235
   55CHL1   H1B 5222   1.642   4.141   5.464 -0.2699 -1.8710 -2.2581
   55CHL1    C2 5223   1.662   4.160   5.242 -0.2183  0.1371 -0.7646
   55CHL1   H2A 5224   1.665   4.050   5.227 -1.4328 -0.4855  2.6891
   55CHL1   H2B 5225   1.736   4.210   5.175  0.3408 -1.0042 -1.0292
   55CHL1   C20 5226   1.850   4.550   6.089 -0.2376 -0.4733  0.0915
   55CHL1   H20 5227   1.888   4.650   6.057 -1.3365 -1.0544 -3.5153
   55CHL1   C21 5228   1.962   4.450   6.094  0.9131 -0.4301 -0.0678
   55CHL1  H21A 5229   2.026   4.452   6.003  1.3553  0.6258  0.2482
   55CHL1  H21B 5230   1.918   4.351   6.120 -1.2736  0.5396  0.0925
   55CHL1  H21C 5231   2.036   4.485   6.169 -0.8850  0.6008  1.2905
   55CHL1   C22 5232   1.789   4.554   6.231 -0.4118  0.0323  0.2031
   55CHL1  H22A 5233   1.687   4.598   6.237 -0.8259 -0.6314 -1.3117
   55CHL1  H22B 5234   1.777   4.451   6.271 -2.1236  0.1004 -0.0812
   55CHL1   C23 5235   1.879   4.625   6.327 -0.4407  0.4663 -0.3293
   55CHL1  H23A 5236   1.830   4.637   6.426  2.1045 -0.0425  1.0620
   55CHL1  H23B 5237   1.972   4.574   6.358  0.2495  1.0271 -1.4363
   55CHL1   C24 5238   1.918   4.765   6.282  0.1967  0.0705  1.2331
   55CHL1  H24A 5239   2.002   4.756   6.209 -0.3987 -1.2065  0.6678
   55CHL1  H24B 5240   1.819   4.808   6.257  0.0196 -0.5996  0.7292
   55CHL1   C25 5241   1.984   4.856   6.382  0.3019 -0.8795 -0.0758
   55CHL1   H25 5242   1.911   4.862   6.466  0.1354  1.6368 -0.3150
   55CHL1   C26 5243   2.121   4.804   6.425 -0.6106 -0.0299  0.1299
   55CHL1  H26A 5244   2.172   4.873   6.495 -1.9071  0.2656  0.8259
   55CHL1  H26B 5245   2.103   4.709   6.479 -0.0763  0.3491  0.9982
   55CHL1  H26C 5246   2.184   4.786   6.336  0.1768  0.9504  0.4707
   55CHL1   C27 5247   1.978   4.999   6.322 -0.1630 -0.6631  0.0970
   55CHL1  H27A 5248   2.029   5.017   6.225 -0.8216 -1.8216 -0.4897
   55CHL1  H27B 5249   1.876   5.042   6.312  1.1066  2.0766 -2.5042
   55CHL1  H27C 5250   2.031   5.063   6.396 -0.6592  2.3184 -1.9723
   56CHL1    C3 5251   0.689   5.054   5.147  0.6357 -0.1652  0.6725
   56CHL1    H3 5252   0.622   4.981   5.197  0.0814 -0.7327 -0.8675
   56CHL1    O3 5253   0.674   5.054   5.008  0.0772 -0.0127 -0.2952
   56CHL1   H3' 5254   0.669   4.966   4.970 -1.0578  0.8517 -2.3155
   56CHL1    C4 5255   0.664   5.195   5.202  0.0885  0.3044 -0.6928
   56CHL1   H4A 5256   0.731   5.271   5.156  0.5174 -0.0872 -0.7269
   56CHL1   H4B 5257   0.559   5.223   5.178 -1.0977 -2.7525  0.4369
   56CHL1    C5 5258   0.681   5.193   5.360 -0.1531 -0.2212 -0.2641
   56CHL1    C6 5259   0.587   5.236   5.446  0.6730 -0.0312 -0.1689
   56CHL1    H6 5260   0.489   5.269   5.407 -0.4005 -0.1972  2.2034
   56CHL1    C7 5261   0.604   5.254   5.599  0.1391  0.5336 -0.0673
   56CHL1   H7A 5262   0.571   5.353   5.639  1.3284  1.1404 -0.5330
   56CHL1   H7B 5263   0.539   5.176   5.643  0.2676 -0.0919 -0.9628
   56CHL1    C8 5264   0.750   5.233   5.642  0.0901 -0.6075 -0.6016
   56CHL1    H8 5265   0.808   5.325   5.622  0.8424 -1.1567 -1.0080
   56CHL1   C14 5266   0.762   5.210   5.790 -0.3444  0.9797 -0.5511
   56CHL1   H14 5267   0.702   5.117   5.800 -0.4604  1.0533 -0.5639
   56CHL1   C15 5268   0.704   5.316   5.878 -0.0088 -0.0168  0.2035
   56CHL1  H15A 5269   0.751   5.414   5.857 -0.0208 -0.3918 -1.7037
   56CHL1  H15B 5270   0.594   5.328   5.884 -0.2284 -1.4424 -0.4246
   56CHL1   C16 5271   0.751   5.268   6.020  0.1627  0.2699 -0.4016
   56CHL1  H16A 5272   0.772   5.362   6.076 -0.1663  0.5440 -0.7366
   56CHL1  H16B 5273   0.670   5.216   6.075  1.4794  0.0016  1.4039
   56CHL1   C17 5274   0.862   5.156   5.995 -0.1847 -1.0076  0.0867
   56CHL1   H17 5275   0.804   5.062   6.005 -0.0759 -0.9580  1.2774
   56CHL1   C13 5276   0.899   5.179   5.847 -0.2748  0.2954  0.3306
   56CHL1   C18 5277   0.999   5.293   5.814 -0.0068 -0.3564  0.2446
   56CHL1  H18A 5278   1.099   5.260   5.851 -0.0707 -0.9615 -0.0986
   56CHL1  H18B 5279   1.020   5.313   5.706 -0.9077  1.2291  0.3385
   56CHL1  H18C 5280   0.966   5.390   5.856 -0.5729 -0.4089 -0.0652
   56CHL1   C12 5281   0.950   5.056   5.773 -0.3573 -0.0248  0.0344
   56CHL1  H12A 5282   1.054   5.050   5.812 -0.9660 -1.1322  1.6239
   56CHL1  H12B 5283   0.887   4.970   5.807 -0.2048 -0.2620 -0.2741
   56CHL1   C11 5284   0.950   5.073   5.615 -0.0524 -0.0481  0.5195
   56CHL1  H11A 5285   1.023   5.152   5.588  0.4977 -0.7944 -0.2641
   56CHL1  H11B 5286   0.972   4.974   5.568 -1.5161  0.4155 -1.2554
   56CHL1    C9 5287   0.813   5.126   5.560  0.0728 -0.2310 -0.1459
   56CHL1    H9 5288   0.745   5.039   5.573 -1.2458  0.6370 -0.9618
   56CHL1   C10 5289   0.822   5.141   5.406 -0.2938 -0.2759 -0.3027
   56CHL1   C19 5290   0.920   5.254   5.353 -0.7022  0.0557  0.2971
   56CHL1  H19A 5291   0.886   5.351   5.394 -0.4749  0.8147 -1.2294
   56CHL1  H19B 5292   1.025   5.248   5.388 -0.6108  1.7760  0.4109
   56CHL1  H19C 5293   0.936   5.246   5.243 -1.1268 -1.7639  0.3306
   56CHL1    C1 5294   0.859   5.010   5.332  0.0929 -0.2066 -0.5540
   56CHL1   H1A 5295   0.966   4.982   5.350  0.7486  2.7765  0.9920
   56CHL1   H1B 5296   0.799   4.929   5.378  0.2629  0.1926  0.4047
   56CHL1    C2 5297   0.833   5.003   5.185  0.3171 -0.2387  0.1411
   56CHL1   H2A 5298   0.866   4.901   5.154  1.4518  0.3798 -0.7513
   56CHL1   H2B 5299   0.902   5.075   5.137  0.7574 -0.2450  0.7529
   56CHL1   C20 5300   0.977   5.161   6.098  0.7517  0.1902  0.5166
   56CHL1   H20 5301   1.052   5.232   6.059  0.8432 -0.8068 -1.1906
   56CHL1   C21 5302   1.044   5.021   6.106  0.3670 -0.6920 -0.2123
   56CHL1  H21A 5303   1.044   4.959   6.014  2.6764 -2.0554  0.5980
   56CHL1  H21B 5304   0.989   4.966   6.184  0.9100 -0.9790 -0.0235
   56CHL1  H21C 5305   1.145   5.029   6.152 -0.8630 -1.0601  2.7426
   56CHL1   C22 5306   0.937   5.206   6.242 -0.4083 -0.2737  0.3217
   56CHL1  H22A 5307   0.905   5.311   6.248 -2.4342 -0.7058 -1.6919
   56CHL1  H22B 5308   0.845   5.151   6.272 -0.7488  0.0903 -0.0450
   56CHL1   C23 5309   1.049   5.198   6.350  0.0714  0.2569  0.1553
   56CHL1  H23A 5310   1.071   5.089   6.355  0.3444  0.3453  0.9536
   56CHL1  H23B 5311   1.142   5.248   6.315 -0.0915  1.7205  1.7089
   56CHL1   C24 5312   1.003   5.233   6.496  0.2079 -0.4535  0.4827
   56CHL1  H24A 5313   0.947   5.329   6.489  0.1348 -0.5539 -0.3710
   56CHL1  H24B 5314   0.924   5.156   6.512  0.5792 -0.5038  2.3445
   56CHL1   C25 5315   1.109   5.239   6.605 -0.0677 -0.3980 -0.2177
   56CHL1   H25 5316   1.189   5.306   6.566  0.0564 -0.9537 -0.9240
   56CHL1   C26 5317   1.068   5.316   6.736  0.3233  0.3550 -0.2333
   56CHL1  H26A 5318   0.987   5.252   6.777 -0.4496  0.9514 -0.8199
   56CHL1  H26B 5319   1.151   5.337   6.807  0.9034 -0.3638 -0.6788
   56CHL1  H26C 5320   1.019   5.411   6.708  1.6413  1.1570  0.0935
   56CHL1   C27 5321   1.189   5.106   6.629 -0.2461  0.0662  0.6035
   56CHL1  H27A 5322   1.106   5.043   6.667 -0.2544  0.1377  0.7022
   56CHL1  H27B 5323   1.218   5.048   6.539 -2.1739 -3.2533  1.9559
   56CHL1  H27C 5324   1.268   5.114   6.706 -0.1755 -1.1152  0.6715
   57CHL1    C3 5325   4.186   3.572   4.937 -0.4344 -0.3307 -0.1243
   57CHL1    H3 5326   4.280   3.624   4.965 -0.6609  1.0912 -1.7870
   57CHL1    O3 5327   4.191   3.567   4.793 -0.1839  0.2490  0.3973
   57CHL1   H3' 5328   4.204   3.660   4.775 -1.1290  0.1554 -0.9948
   57CHL1    C4 5329   4.162   3.431   4.990 -1.1862 -0.4736  0.4027
   57CHL1   H4A 5330   4.079   3.388   4.931 -1.7464  0.8735  0.1948
   57CHL1   H4B 5331   4.248   3.363   4.969 -0.6413 -0.0823  1.3022
   57CHL1    C5 5332   4.135   3.430   5.140 -0.3054 -1.1151  0.1924
   57CHL1    C6 5333   4.198   3.341   5.219  0.5613 -0.1275  0.3779
   57CHL1    H6 5334   4.258   3.259   5.176  0.3419 -0.9837  1.6467
   57CHL1    C7 5335   4.195   3.331   5.366  0.0784 -0.8434 -0.1518
   57CHL1   H7A 5336   4.166   3.231   5.404 -2.5836  1.2094  3.9833
   57CHL1   H7B 5337   4.291   3.358   5.415 -1.5851  1.1740  2.2070
   57CHL1    C8 5338   4.085   3.423   5.425 -0.2110  0.2747 -0.6398
   57CHL1    H8 5339   3.989   3.367   5.429  0.1679 -0.3791  3.0878
   57CHL1   C14 5340   4.111   3.445   5.576 -0.7214 -0.1682  0.7784
   57CHL1   H14 5341   4.204   3.507   5.578 -0.1730 -0.9893  1.4801
   57CHL1   C15 5342   4.140   3.320   5.665  0.8306 -0.3566  0.2894
   57CHL1  H15A 5343   4.062   3.245   5.638  1.8804 -0.8287 -1.6416
   57CHL1  H15B 5344   4.234   3.262   5.656  1.0446 -0.2629  1.6978
   57CHL1   C16 5345   4.121   3.374   5.804 -0.2176 -0.0005  0.3704
   57CHL1  H16A 5346   4.044   3.316   5.859 -1.5368  1.8033  0.5263
   57CHL1  H16B 5347   4.222   3.390   5.848 -0.4152  0.4567  0.6622
   57CHL1   C17 5348   4.055   3.516   5.796 -0.3315 -0.1309 -0.8031
   57CHL1   H17 5349   4.137   3.590   5.803  1.3356 -1.7941 -1.9250
   57CHL1   C13 5350   4.003   3.528   5.646  0.6019 -0.3475 -0.5296
   57CHL1   C18 5351   3.862   3.451   5.653 -0.1299 -0.2817 -0.2253
   57CHL1  H18A 5352   3.786   3.505   5.713 -1.7013 -1.9668 -0.6024
   57CHL1  H18B 5353   3.824   3.441   5.549 -0.7746  1.7364 -0.2335
   57CHL1  H18C 5354   3.875   3.351   5.700  0.4268 -0.4292 -0.6846
   57CHL1   C12 5355   3.995   3.669   5.577 -0.7321  0.7803  0.0394
   57CHL1  H12A 5356   3.910   3.733   5.609 -2.5563 -1.2093 -0.5562
   57CHL1  H12B 5357   4.092   3.721   5.595  0.3839 -0.6566 -1.4737
   57CHL1   C11 5358   3.966   3.645   5.425  0.2917 -0.0975 -0.1477
   57CHL1  H11A 5359   3.867   3.594   5.418  0.8567 -1.1405 -0.7084
   57CHL1  H11B 5360   3.954   3.746   5.381 -1.5271  0.5209  1.6243
   57CHL1    C9 5361   4.064   3.563   5.356 -0.2091 -0.1435 -0.3053
   57CHL1    H9 5362   4.161   3.612   5.379 -0.3809  0.3940 -0.7112
   57CHL1   C10 5363   4.048   3.537   5.205 -0.1795 -0.3417  0.4327
   57CHL1   C19 5364   3.908   3.479   5.178 -0.3345 -0.4716 -0.0411
   57CHL1  H19A 5365   3.895   3.461   5.069  0.7991 -0.1236 -0.2449
   57CHL1  H19B 5366   3.883   3.380   5.223 -0.6761 -0.6886 -0.6860
   57CHL1  H19C 5367   3.828   3.549   5.212  1.3933  0.7552  1.6759
   57CHL1    C1 5368   4.058   3.680   5.128 -0.6601  0.2333 -0.4365
   57CHL1   H1A 5369   3.969   3.740   5.156  0.2502  1.0886  0.7544
   57CHL1   H1B 5370   4.152   3.714   5.176 -0.9736 -1.2466  1.3696
   57CHL1    C2 5371   4.069   3.659   4.978 -0.1349 -0.0176  1.1190
   57CHL1   H2A 5372   4.082   3.760   4.934  0.5731  0.1538  1.6948
   57CHL1   H2B 5373   3.978   3.609   4.939  2.0223 -2.5456 -1.1025
   57CHL1   C20 5374   3.961   3.559   5.914 -0.8174  0.8914  0.5984
   57CHL1   H20 5375   3.861   3.510   5.916 -1.6239  2.5034  1.5771
   57CHL1   C21 5376   3.930   3.709   5.896 -0.3442 -0.1343 -0.0980
   57CHL1  H21A 5377   3.863   3.738   5.812 -1.0799  0.2412  0.6010
   57CHL1  H21B 5378   4.021   3.774   5.894  0.6145 -1.4491 -2.7339
   57CHL1  H21C 5379   3.874   3.737   5.988  1.5227  0.0161  1.0557
   57CHL1   C22 5380   4.022   3.530   6.049  0.1772 -0.4802  1.0030
   57CHL1  H22A 5381   3.946   3.556   6.125  0.9531  0.7415  1.3918
   57CHL1  H22B 5382   4.036   3.420   6.061 -0.9066 -0.6165  1.0874
   57CHL1   C23 5383   4.169   3.589   6.074 -0.2872 -0.0542  0.2190
   57CHL1  H23A 5384   4.244   3.525   6.023 -0.3610 -0.2946  0.4092
   57CHL1  H23B 5385   4.174   3.697   6.048 -0.5843 -0.1480 -0.2522
   57CHL1   C24 5386   4.212   3.573   6.227  0.0932  0.5735 -0.1054
   57CHL1  H24A 5387   4.168   3.654   6.289  0.6670  2.0826 -1.6008
   57CHL1  H24B 5388   4.177   3.478   6.273  1.6319  0.6213  1.2460
   57CHL1   C25 5389   4.367   3.577   6.239 -0.4651 -0.5550 -0.5166
   57CHL1   H25 5390   4.416   3.516   6.160  1.6012  1.6546 -1.0491
   57CHL1   C26 5391   4.414   3.721   6.214 -0.2173  0.2045  0.0430
   57CHL1  H26A 5392   4.525   3.718   6.218 -0.1017  2.2734 -0.4907
   57CHL1  H26B 5393   4.403   3.745   6.106  0.2870 -2.6716 -0.7321
   57CHL1  H26C 5394   4.389   3.789   6.298  1.2790 -0.1930  0.8424
   57CHL1   C27 5395   4.407   3.520   6.379 -0.8907  0.0037 -0.0589
   57CHL1  H27A 5396   4.517   3.530   6.382 -1.0703  2.2475  0.8347
   57CHL1  H27B 5397   4.360   3.573   6.465 -0.5610 -1.6151  1.1860
   57CHL1  H27C 5398   4.390   3.410   6.385  0.1458 -0.0820  2.9248
   58CHL1    C3 5399   0.283   3.472   5.118  0.4868  0.3342  0.5317
   58CHL1    H3 5400   0.275   3.366   5.148 -2.8367  0.3495  0.0041
   58CHL1    O3 5401   0.279   3.479   4.971 -0.4289 -0.2479 -0.3147
   58CHL1   H3' 5402   0.291   3.573   4.955 -2.5056 -0.1527 -1.6747
   58CHL1    C4 5403   0.168   3.554   5.188 -0.0456 -0.0122 -0.0819
   58CHL1   H4A 5404   0.170   3.650   5.132  0.1662 -0.3961 -0.7398
   58CHL1   H4B 5405   0.076   3.504   5.151 -0.0498  1.2647 -1.9414
   58CHL1    C5 5406   0.184   3.569   5.332  0.0595 -0.1987  0.0290
   58CHL1    C6 5407   0.070   3.541   5.409  0.2625 -0.1112  1.1111
   58CHL1    H6 5408  -0.030   3.522   5.368  0.2300 -0.4190  1.3281
   58CHL1    C7 5409   0.073   3.552   5.558 -0.0190  0.1030  0.2336
   58CHL1   H7A 5410  -0.015   3.603   5.603  0.4433  2.4423 -1.3577
   58CHL1   H7B 5411   0.077   3.447   5.596 -0.6327 -0.3189 -0.8187
   58CHL1    C8 5412   0.204   3.618   5.611  0.2785  0.0491 -0.4970
   58CHL1    H8 5413   0.189   3.728   5.602 -3.1953 -0.2373  0.3148
   58CHL1   C14 5414   0.213   3.579   5.761 -0.5562 -0.5735  0.2735
   58CHL1   H14 5415   0.212   3.468   5.751 -0.0852 -0.6033  0.5225
   58CHL1   C15 5416   0.097   3.606   5.856 -0.4034 -0.3193  0.1600
   58CHL1  H15A 5417   0.066   3.713   5.849 -1.3654 -0.3293  2.9585
   58CHL1  H15B 5418   0.009   3.540   5.837  1.1155 -1.6425 -3.0186
   58CHL1   C16 5419   0.158   3.594   5.992  0.2239 -0.7417  0.6720
   58CHL1  H16A 5420   0.135   3.684   6.052  1.5924  0.6566 -0.8301
   58CHL1  H16B 5421   0.113   3.509   6.048  0.1569  1.0332  3.4902
   58CHL1   C17 5422   0.308   3.579   5.979 -0.0191 -0.5559  0.4198
   58CHL1   H17 5423   0.333   3.470   5.979 -1.5445 -0.9219  0.9794
   58CHL1   C13 5424   0.330   3.641   5.831 -0.4993  0.0384 -0.1050
   58CHL1   C18 5425   0.336   3.798   5.826 -0.0438  0.3768 -0.1838
   58CHL1  H18A 5426   0.241   3.842   5.866 -1.8743 -0.0177 -3.6888
   58CHL1  H18B 5427   0.432   3.833   5.868  1.0504  0.2510 -2.4560
   58CHL1  H18C 5428   0.347   3.832   5.721  0.4471  0.9520  0.0477
   58CHL1   C12 5429   0.453   3.590   5.758 -0.1500 -0.2186 -0.4662
   58CHL1  H12A 5430   0.545   3.640   5.794 -2.2309  2.9630  0.8866
   58CHL1  H12B 5431   0.462   3.480   5.770 -1.1544 -0.0268  3.2209
   58CHL1   C11 5432   0.454   3.622   5.600  0.0827 -0.2502  0.0729
   58CHL1  H11A 5433   0.471   3.731   5.591  0.5838 -0.4548 -1.7150
   58CHL1  H11B 5434   0.545   3.571   5.562  0.3225  0.0950  0.1761
   58CHL1    C9 5435   0.328   3.573   5.536  0.0187 -0.0517  0.4004
   58CHL1    H9 5436   0.333   3.462   5.546  0.2381 -0.0595  0.2298
   58CHL1   C10 5437   0.323   3.594   5.382  0.4424  0.0274 -0.1690
   58CHL1   C19 5438   0.348   3.749   5.349  0.2580  0.5521  0.8004
   58CHL1  H19A 5439   0.287   3.823   5.406 -2.0063  0.6526 -1.5632
   58CHL1  H19B 5440   0.456   3.766   5.369 -0.3067 -0.1881  5.9990
   58CHL1  H19C 5441   0.326   3.781   5.246  1.7463  0.5859  0.4679
   58CHL1    C1 5442   0.439   3.515   5.315 -0.2587 -1.0024  0.0031
   58CHL1   H1A 5443   0.542   3.544   5.344 -0.7520  2.3515 -1.1869
   58CHL1   H1B 5444   0.433   3.409   5.350 -1.8866 -0.4237  1.6366
   58CHL1    C2 5445   0.428   3.515   5.166  0.8552 -0.9023 -0.6777
   58CHL1   H2A 5446   0.503   3.446   5.124 -0.3925 -2.6352 -0.2040
   58CHL1   H2B 5447   0.437   3.614   5.118 -2.0455 -1.1538 -1.9903
   58CHL1   C20 5448   0.391   3.633   6.098 -0.5092 -0.8184  0.1698
   58CHL1   H20 5449   0.405   3.743   6.088  1.1569 -0.9499  0.8680
   58CHL1   C21 5450   0.538   3.584   6.085  0.2347  0.3965  0.2934
   58CHL1  H21A 5451   0.590   3.612   6.179  0.5009  1.0375 -0.0375
   58CHL1  H21B 5452   0.587   3.644   6.005  0.4120  0.3376  0.3576
   58CHL1  H21C 5453   0.533   3.474   6.072 -1.1330  0.4926 -0.0679
   58CHL1   C22 5454   0.329   3.589   6.238  0.0390  0.5311  0.6716
   58CHL1  H22A 5455   0.218   3.600   6.236  0.1488  1.8806  0.8084
   58CHL1  H22B 5456   0.356   3.483   6.257 -0.1994  0.1185 -1.1092
   58CHL1   C23 5457   0.363   3.684   6.349  0.4546  0.1236 -0.2556
   58CHL1  H23A 5458   0.466   3.721   6.330  0.1011  2.8326  2.3666
   58CHL1  H23B 5459   0.296   3.771   6.334  1.1271  0.5128 -1.0558
   58CHL1   C24 5460   0.364   3.639   6.491 -0.1889  0.1135  0.1008
   58CHL1  H24A 5461   0.385   3.727   6.556 -1.7203  0.0559  0.7224
   58CHL1  H24B 5462   0.259   3.606   6.509  0.5329 -1.7092  1.2589
   58CHL1   C25 5463   0.458   3.521   6.525  0.3088  0.5489  0.2198
   58CHL1   H25 5464   0.429   3.444   6.452 -2.1698  1.1310  0.5178
   58CHL1   C26 5465   0.606   3.554   6.508  0.0967 -0.8051  0.3956
   58CHL1  H26A 5466   0.671   3.492   6.573  0.1078  0.1738  1.3659
   58CHL1  H26B 5467   0.632   3.549   6.400  1.4537 -0.9127  0.7108
   58CHL1  H26C 5468   0.614   3.663   6.532 -1.4551 -0.4247 -0.6480
   58CHL1   C27 5469   0.434   3.471   6.670 -0.8395  0.7095  0.7929
   58CHL1  H27A 5470   0.448   3.556   6.740  1.3956  2.3271 -1.4384
   58CHL1  H27B 5471   0.341   3.411   6.680  0.2502 -1.4817 -1.2908
   58CHL1  H27C 5472   0.517   3.403   6.697 -0.0528  1.9099  1.4833
   59CHL1    C3 5473   0.897   3.634   4.976  0.3044  0.5069 -0.1146
   59CHL1    H3 5474   0.841   3.730   4.972 -0.8903 -0.2019 -1.1963
   59CHL1    O3 5475   0.910   3.589   4.840 -0.2368 -0.5217 -0.5993
   59CHL1   H3' 5476   0.973   3.519   4.858  1.0677  0.4496 -1.2356
   59CHL1    C4 5477   1.040   3.643   5.044 -0.0926  0.7334 -0.2737
   59CHL1   H4A 5478   1.077   3.539   5.057  2.3436  1.5658 -0.0779
   59CHL1   H4B 5479   1.123   3.693   4.990 -0.9841  0.6694 -1.7709
   59CHL1    C5 5480   1.035   3.712   5.179 -0.7462  0.1644 -0.5000
   59CHL1    C6 5481   1.100   3.830   5.211  0.0129 -0.3050 -0.4053
   59CHL1    H6 5482   1.165   3.884   5.141  0.6538 -1.0699 -0.4159
   59CHL1    C7 5483   1.099   3.878   5.350 -0.1053 -0.6200  0.1695
   59CHL1   H7A 5484   1.200   3.916   5.375 -0.3072  0.7656 -0.9238
   59CHL1   H7B 5485   1.028   3.964   5.352  1.0401  0.4794 -2.1225
   59CHL1    C8 5486   1.053   3.771   5.449  0.3287  0.5985 -0.7329
   59CHL1    H8 5487   1.132   3.697   5.473 -1.6949 -0.8441  2.1167
   59CHL1   C14 5488   1.037   3.842   5.584 -0.5811 -0.3637 -0.5226
   59CHL1   H14 5489   0.962   3.922   5.572  0.7576  0.8263 -1.2237
   59CHL1   C15 5490   1.151   3.924   5.647  0.0902  0.1117 -0.7207
   59CHL1  H15A 5491   1.254   3.882   5.637 -0.4690 -1.5166 -0.0902
   59CHL1  H15B 5492   1.151   4.027   5.606  1.4657  0.2611 -0.4103
   59CHL1   C16 5493   1.112   3.935   5.797  0.1656  1.0236  0.2027
   59CHL1  H16A 5494   1.200   3.892   5.849  0.1562  0.4895 -0.2223
   59CHL1  H16B 5495   1.112   4.045   5.817 -0.0082  1.1901 -0.6830
   59CHL1   C17 5496   0.982   3.852   5.821 -0.4771  0.1029  0.4224
   59CHL1   H17 5497   0.894   3.919   5.813  0.0882  0.6836 -1.1807
   59CHL1   C13 5498   0.988   3.752   5.700  0.1345  0.1564 -0.4211
   59CHL1   C18 5499   1.092   3.637   5.729  0.2416 -0.4118  0.0435
   59CHL1  H18A 5500   1.104   3.571   5.640  2.8184 -1.9597  1.4461
   59CHL1  H18B 5501   1.192   3.678   5.751 -0.6019  1.9856 -0.2694
   59CHL1  H18C 5502   1.051   3.570   5.807  1.9115  0.8352  2.0829
   59CHL1   C12 5503   0.852   3.699   5.656  0.0341 -0.0634  0.9661
   59CHL1  H12A 5504   0.815   3.632   5.737  0.7282 -0.6906  0.7731
   59CHL1  H12B 5505   0.772   3.776   5.660  0.0094 -0.1137  1.5231
   59CHL1   C11 5506   0.858   3.623   5.522 -0.0785 -0.2200  0.3748
   59CHL1  H11A 5507   0.901   3.527   5.559  0.8867 -0.4452 -1.2034
   59CHL1  H11B 5508   0.769   3.587   5.466  1.4099 -0.6153 -1.8623
   59CHL1    C9 5509   0.926   3.704   5.408 -0.1285  0.4304 -0.3100
   59CHL1    H9 5510   0.856   3.787   5.388 -1.1429 -0.1999  0.5378
   59CHL1   C10 5511   0.951   3.629   5.272  0.5549  0.0866 -0.3729
   59CHL1   C19 5512   1.013   3.489   5.314 -0.0661  0.3207  0.2020
   59CHL1  H19A 5513   1.021   3.434   5.218 -0.0717  2.5264 -1.1287
   59CHL1  H19B 5514   1.110   3.509   5.364 -0.8834  1.3527  1.4368
   59CHL1  H19C 5515   0.945   3.434   5.383 -0.6922 -0.3680 -0.9289
   59CHL1    C1 5516   0.808   3.608   5.196  0.0649  0.1121 -0.4520
   59CHL1   H1A 5517   0.751   3.540   5.263 -2.6764  1.4596 -1.2706
   59CHL1   H1B 5518   0.755   3.706   5.200  0.1698  0.1354  0.7854
   59CHL1    C2 5519   0.824   3.538   5.064  0.3012  0.1377  0.0781
   59CHL1   H2A 5520   0.723   3.537   5.018  0.5669 -1.9516 -0.5545
   59CHL1   H2B 5521   0.876   3.441   5.049 -0.2822  0.2473 -3.5045
   59CHL1   C20 5522   0.984   3.798   5.967 -0.6742  1.0778  0.6621
   59CHL1   H20 5523   1.069   3.727   5.977 -1.5701 -0.2057 -0.5161
   59CHL1   C21 5524   0.858   3.715   5.980 -0.5275  0.0307 -0.0103
   59CHL1  H21A 5525   0.875   3.609   5.950 -1.3464  0.1181 -0.8165
   59CHL1  H21B 5526   0.769   3.760   5.932 -1.0810  0.6265  1.4974
   59CHL1  H21C 5527   0.819   3.714   6.085  3.6003 -0.1637  1.7022
   59CHL1   C22 5528   1.008   3.902   6.076 -0.5954  0.3225  0.8044
   59CHL1  H22A 5529   1.107   3.945   6.050 -0.3947  0.1907  1.3368
   59CHL1  H22B 5530   0.934   3.981   6.052 -0.7124  0.8162  2.6529
   59CHL1   C23 5531   1.008   3.861   6.222  0.2460 -0.2174 -0.1075
   59CHL1  H23A 5532   0.909   3.822   6.250  0.0241 -0.3126 -0.9895
   59CHL1  H23B 5533   1.092   3.788   6.228  1.9989  1.4667 -2.3263
   59CHL1   C24 5534   1.035   3.984   6.305 -0.5183 -0.2139 -0.0584
   59CHL1  H24A 5535   1.125   4.041   6.275  1.6973 -2.3080  2.1424
   59CHL1  H24B 5536   0.949   4.053   6.305  0.0614  0.5207 -0.2793
   59CHL1   C25 5537   1.061   3.947   6.448 -0.1998 -0.2705 -0.6614
   59CHL1   H25 5538   1.138   3.868   6.451 -0.0573 -0.1089  0.6434
   59CHL1   C26 5539   1.124   4.066   6.525 -0.1811 -0.6995 -0.2897
   59CHL1  H26A 5540   1.224   4.096   6.487 -0.3749 -0.0179 -0.2668
   59CHL1  H26B 5541   1.058   4.155   6.527  1.1014  0.3645  3.1412
   59CHL1  H26C 5542   1.140   4.035   6.631 -0.4139 -1.6620 -0.5298
   59CHL1   C27 5543   0.936   3.903   6.530  0.5701 -0.4787  0.6123
   59CHL1  H27A 5544   0.960   3.861   6.630 -0.4428 -2.8807 -0.0750
   59CHL1  H27B 5545   0.868   3.991   6.533  0.6333 -0.4190  0.2837
   59CHL1  H27C 5546   0.884   3.818   6.481  0.2107  0.0568  0.0515
   60CHL1    C3 5547   1.498   0.752   4.986 -0.2347  0.5096  0.1582
   60CHL1    H3 5548   1.537   0.650   4.967 -1.3298 -0.2369  1.7425
   60CHL1    O3 5549   1.473   0.831   4.867 -0.3157  0.2560 -0.3495
   60CHL1   H3' 5550   1.548   0.812   4.809  0.9006 -0.4740  1.3707
   60CHL1    C4 5551   1.359   0.747   5.059  0.0757 -0.4222 -0.0924
   60CHL1   H4A 5552   1.321   0.850   5.073  0.7024 -0.1483 -0.3408
   60CHL1   H4B 5553   1.286   0.708   4.984  1.4330 -0.4398 -1.4648
   60CHL1    C5 5554   1.361   0.678   5.194 -0.1975 -0.1809 -0.0559
   60CHL1    C6 5555   1.267   0.585   5.220  0.2783  0.0403 -1.0510
   60CHL1    H6 5556   1.196   0.554   5.141 -1.6786 -3.1671  1.7078
   60CHL1    C7 5557   1.264   0.502   5.345  0.3859 -0.0536 -0.5821
   60CHL1   H7A 5558   1.160   0.475   5.374  0.3197  0.2192 -0.5590
   60CHL1   H7B 5559   1.312   0.403   5.331 -1.0387 -0.5822 -2.0393
   60CHL1    C8 5560   1.335   0.572   5.459 -0.2745 -0.9528  0.3332
   60CHL1    H8 5561   1.280   0.660   5.499 -0.4052  0.9674 -3.5316
   60CHL1   C14 5562   1.367   0.471   5.572 -0.2058  0.5880  0.6132
   60CHL1   H14 5563   1.433   0.392   5.532 -0.6722  1.3902 -1.9280
   60CHL1   C15 5564   1.244   0.405   5.644 -0.3478  0.2717  0.3755
   60CHL1  H15A 5565   1.163   0.478   5.669 -0.3691  0.1302  0.7268
   60CHL1  H15B 5566   1.212   0.320   5.580  0.0023  0.7482 -0.4568
   60CHL1   C16 5567   1.300   0.351   5.777 -0.4768  0.0750 -0.7123
   60CHL1  H16A 5568   1.236   0.386   5.861 -0.0870 -4.0757  1.6018
   60CHL1  H16B 5569   1.301   0.240   5.786  1.5786  0.1750  1.2558
   60CHL1   C17 5570   1.447   0.416   5.785 -0.0867  0.3216 -0.0490
   60CHL1   H17 5571   1.519   0.340   5.747 -1.9206 -1.0514 -0.9680
   60CHL1   C13 5572   1.445   0.533   5.688 -0.4767  0.4901  0.3286
   60CHL1   C18 5573   1.380   0.656   5.755  0.1265  0.1036 -0.3829
   60CHL1  H18A 5574   1.454   0.715   5.813 -1.5406  1.7149  0.2140
   60CHL1  H18B 5575   1.349   0.732   5.680  0.0467 -0.5233 -0.9973
   60CHL1  H18C 5576   1.301   0.625   5.827  2.6320  1.1584  3.0856
   60CHL1   C12 5577   1.584   0.570   5.631  0.0501 -0.0621 -0.2111
   60CHL1  H12A 5578   1.637   0.624   5.712  0.2044 -0.3481 -0.1202
   60CHL1  H12B 5579   1.642   0.479   5.600  2.0312  0.3421  2.0305
   60CHL1   C11 5580   1.571   0.673   5.519  0.1010 -0.2471 -0.6581
   60CHL1  H11A 5581   1.529   0.762   5.571  0.9108  0.9925 -2.0338
   60CHL1  H11B 5582   1.672   0.689   5.476 -0.1651  1.0397 -0.8569
   60CHL1    C9 5583   1.472   0.625   5.412 -0.2187  0.0890 -0.1333
   60CHL1    H9 5584   1.523   0.531   5.381 -1.7049 -0.7635 -0.0813
   60CHL1   C10 5585   1.475   0.725   5.287 -0.1685 -0.4418  0.3523
   60CHL1   C19 5586   1.422   0.858   5.339  0.1049  0.0550 -0.2121
   60CHL1  H19A 5587   1.406   0.934   5.259  2.7389  1.6350  0.6204
   60CHL1  H19B 5588   1.334   0.857   5.408 -0.2957  1.4521 -0.6616
   60CHL1  H19C 5589   1.504   0.905   5.398  0.0349 -0.5438  0.3630
   60CHL1    C1 5590   1.609   0.750   5.213 -0.7749 -0.0282  0.7851
   60CHL1   H1A 5591   1.674   0.804   5.285 -0.0417 -0.5323  0.5056
   60CHL1   H1B 5592   1.652   0.650   5.196 -1.0677  0.2899 -2.8050
   60CHL1    C2 5593   1.594   0.827   5.078 -0.1704 -0.8185 -0.1982
   60CHL1   H2A 5594   1.689   0.848   5.024 -0.1736 -0.7998 -0.1972
   60CHL1   H2B 5595   1.563   0.926   5.117  0.6311 -0.1041 -1.3327
   60CHL1   C20 5596   1.497   0.444   5.927  0.0918  0.1008 -0.3647
   60CHL1   H20 5597   1.416   0.499   5.979 -1.3829  0.1115 -2.5694
   60CHL1   C21 5598   1.630   0.521   5.942  0.1218  0.0022  0.2836
   60CHL1  H21A 5599   1.666   0.516   6.047  0.6047  1.9999  0.2471
   60CHL1  H21B 5600   1.616   0.625   5.906  0.9870  0.3144  0.8454
   60CHL1  H21C 5601   1.707   0.468   5.883  1.7151  0.8182  1.5635
   60CHL1   C22 5602   1.509   0.308   6.010 -1.6516  0.5101 -0.3801
   60CHL1  H22A 5603   1.414   0.252   5.994 -2.2101  1.3899 -0.1778
   60CHL1  H22B 5604   1.583   0.232   5.975 -2.0336 -1.1655  2.1711
   60CHL1   C23 5605   1.531   0.330   6.162  0.0520  0.2357 -0.1313
   60CHL1  H23A 5606   1.637   0.356   6.184  0.7073 -2.3564  0.0155
   60CHL1  H23B 5607   1.470   0.417   6.195 -1.2862  1.1345 -4.3218
   60CHL1   C24 5608   1.492   0.208   6.248  0.1151 -0.1532  0.2059
   60CHL1  H24A 5609   1.395   0.170   6.212 -0.4230 -0.8736  2.2662
   60CHL1  H24B 5610   1.566   0.129   6.224 -1.7998 -1.9424 -0.0680
   60CHL1   C25 5611   1.481   0.225   6.399  0.4739  0.0790 -0.3835
   60CHL1   H25 5612   1.392   0.290   6.414  0.9123  0.6619 -0.2665
   60CHL1   C26 5613   1.421   0.096   6.466  0.2797  0.5118  0.0616
   60CHL1  H26A 5614   1.334   0.045   6.418  0.7417 -1.2078  0.9830
   60CHL1  H26B 5615   1.507   0.027   6.475 -0.1838 -0.2096 -0.8575
   60CHL1  H26C 5616   1.400   0.115   6.573 -0.3059 -0.0828  0.0596
   60CHL1   C27 5617   1.609   0.263   6.461 -1.1723 -0.3767 -0.1942
   60CHL1  H27A 5618   1.650   0.358   6.420  2.6085 -1.9050 -0.3657
   60CHL1  H27B 5619   1.605   0.281   6.571 -1.5359  2.5303 -0.5873
   60CHL1  H27C 5620   1.692   0.194   6.440  0.8207  2.1686 -1.2325
   61CHL1    C3 5621   0.984   4.441   5.080  0.1395  0.2217  0.0639
   61CHL1    H3 5622   0.891   4.500   5.093  1.2201  2.2863 -0.9120
   61CHL1    O3 5623   1.004   4.419   4.935  0.1473 -0.1989 -0.0853
   61CHL1   H3' 5624   1.043   4.333   4.918 -0.0691  0.1021 -2.4977
   61CHL1    C4 5625   1.108   4.510   5.132 -0.4691 -0.3843 -1.3137
   61CHL1   H4A 5626   1.190   4.443   5.096 -0.9056 -0.1499 -2.8202
   61CHL1   H4B 5627   1.118   4.605   5.075  0.3467 -0.4515 -1.2945
   61CHL1    C5 5628   1.097   4.528   5.287  0.6724 -0.2177  0.8676
   61CHL1    C6 5629   1.095   4.648   5.342 -0.7468  0.6069  0.5200
   61CHL1    H6 5630   1.110   4.737   5.279  0.2684 -0.1007 -0.2669
   61CHL1    C7 5631   1.083   4.677   5.492 -0.3842 -0.7761 -0.5291
   61CHL1   H7A 5632   1.147   4.761   5.527  0.2959 -0.2693 -2.7889
   61CHL1   H7B 5633   0.982   4.720   5.509 -0.2177 -0.9544  1.0521
   61CHL1    C8 5634   1.094   4.551   5.578  0.6266 -0.0664 -0.0634
   61CHL1    H8 5635   1.201   4.521   5.583  1.4154  2.5537 -0.1639
   61CHL1   C14 5636   1.023   4.572   5.707  0.0319  0.4003  0.7675
   61CHL1   H14 5637   0.916   4.590   5.683 -0.0318  0.2974  0.9813
   61CHL1   C15 5638   1.067   4.699   5.786 -0.1603 -0.0266 -0.4783
   61CHL1  H15A 5639   1.175   4.719   5.769  0.3081 -0.8654  1.2805
   61CHL1  H15B 5640   1.002   4.782   5.750  0.1415 -0.2708 -1.5976
   61CHL1   C16 5641   1.035   4.671   5.939  0.4405 -0.1588 -0.4390
   61CHL1  H16A 5642   1.120   4.673   6.011 -0.6929  1.1002  0.9460
   61CHL1  H16B 5643   0.958   4.742   5.976  2.1063  1.8861 -0.7235
   61CHL1   C17 5644   0.984   4.520   5.937  0.0078 -0.0877 -0.2637
   61CHL1   H17 5645   0.874   4.526   5.923 -0.0839 -2.3528 -0.9592
   61CHL1   C13 5646   1.032   4.456   5.808 -0.0899  0.5474  0.5543
   61CHL1   C18 5647   1.182   4.431   5.841 -0.4764 -0.5328 -0.0368
   61CHL1  H18A 5648   1.192   4.346   5.912 -1.5861 -1.0083 -0.4284
   61CHL1  H18B 5649   1.241   4.405   5.751  1.7301  0.7430  0.9604
   61CHL1  H18C 5650   1.222   4.513   5.905 -2.1184  0.1640  0.1622
   61CHL1   C12 5651   0.958   4.336   5.747 -0.2227 -0.5375  0.5113
   61CHL1  H12A 5652   0.973   4.240   5.801 -0.8085 -0.6292  0.5158
   61CHL1  H12B 5653   0.849   4.355   5.737  0.3103  1.8820 -1.7650
   61CHL1   C11 5654   1.014   4.303   5.606 -0.0554 -0.9104  0.0813
   61CHL1  H11A 5655   1.115   4.258   5.620  0.8903  0.8517 -0.7206
   61CHL1  H11B 5656   0.947   4.224   5.566 -2.6089  1.5190 -0.7071
   61CHL1    C9 5657   1.019   4.430   5.514 -0.3984  0.7980  0.6154
   61CHL1    H9 5658   0.914   4.465   5.514  0.0407  2.2578 -1.2381
   61CHL1   C10 5659   1.060   4.405   5.366 -0.0436  0.4050 -0.2206
   61CHL1   C19 5660   1.189   4.319   5.384 -0.8791  0.3176  0.2542
   61CHL1  H19A 5661   1.259   4.370   5.453 -1.3375  1.1489  0.1106
   61CHL1  H19B 5662   1.174   4.213   5.413  2.1541 -0.0186  1.0192
   61CHL1  H19C 5663   1.251   4.319   5.292 -0.9240 -0.1373  0.2238
   61CHL1    C1 5664   0.958   4.315   5.297  0.0594  0.2861 -0.3186
   61CHL1   H1A 5665   0.949   4.217   5.350 -0.4384  0.2716 -0.4175
   61CHL1   H1B 5666   0.864   4.373   5.309  1.5810  2.4674  1.6399
   61CHL1    C2 5667   0.976   4.301   5.142  0.2183  0.3522  0.6601
   61CHL1   H2A 5668   0.890   4.251   5.093  0.2327  3.1227 -2.5052
   61CHL1   H2B 5669   1.066   4.238   5.123 -1.3934 -2.0322  0.4118
   61CHL1   C20 5670   1.003   4.457   6.077 -0.2142  0.3476 -0.3115
   61CHL1   H20 5671   1.113   4.453   6.095 -0.3627 -1.2699  0.3670
   61CHL1   C21 5672   0.955   4.309   6.076 -0.2753  0.1881  0.5819
   61CHL1  H21A 5673   0.883   4.280   5.997  2.9735 -1.4393 -2.0335
   61CHL1  H21B 5674   0.927   4.261   6.172  2.5638  0.8536  1.8525
   61CHL1  H21C 5675   1.043   4.250   6.041 -0.7683 -0.3894  0.3135
   61CHL1   C22 5676   0.942   4.538   6.195  0.1632 -0.1123 -0.3000
   61CHL1  H22A 5677   0.954   4.648   6.188  1.5420 -0.1573  0.9708
   61CHL1  H22B 5678   0.833   4.516   6.193  0.3603 -1.1581  0.0848
   61CHL1   C23 5679   1.007   4.505   6.329  0.2295 -0.1925  0.2483
   61CHL1  H23A 5680   0.995   4.396   6.348  1.0747 -0.1522  1.1304
   61CHL1  H23B 5681   1.116   4.521   6.314  0.0353  2.5197  1.1623
   61CHL1   C24 5682   0.948   4.594   6.443 -0.1624  0.3075 -1.0997
   61CHL1  H24A 5683   0.976   4.701   6.436  1.9380  0.0674  1.9148
   61CHL1  H24B 5684   0.839   4.587   6.422  0.0110 -1.2325 -1.6587
   61CHL1   C25 5685   0.977   4.553   6.585 -0.9262  0.5530 -0.1653
   61CHL1   H25 5686   0.941   4.448   6.598  0.4976 -0.1065 -1.2595
   61CHL1   C26 5687   1.128   4.566   6.623 -0.2568 -0.0145  0.2266
   61CHL1  H26A 5688   1.172   4.667   6.612 -2.5762  0.9017 -1.2495
   61CHL1  H26B 5689   1.142   4.546   6.731  2.1937 -2.1971 -0.3854
   61CHL1  H26C 5690   1.195   4.500   6.563  0.1045  1.0328 -0.5448
   61CHL1   C27 5691   0.893   4.640   6.677 -0.1535  0.0731 -0.3442
   61CHL1  H27A 5692   0.904   4.743   6.636  2.4384 -0.2105 -0.5433
   61CHL1  H27B 5693   0.788   4.604   6.674 -0.0797 -0.2014  0.2344
   61CHL1  H27C 5694   0.916   4.642   6.786  0.6867 -1.4314 -0.4644
   62CHL1    C3 5695   1.546   1.875   4.922 -0.6213 -0.4042  0.5957
   62CHL1    H3 5696   1.629   1.801   4.930  0.0240  0.4124  1.9017
   62CHL1    O3 5697   1.515   1.882   4.787  0.1908  0.1135 -0.8670
   62CHL1   H3' 5698   1.453   1.955   4.777  0.2764  0.5836  1.5758
   62CHL1    C4 5699   1.431   1.838   5.013  0.7611 -0.2069 -0.4649
   62CHL1   H4A 5700   1.340   1.894   4.984  0.4924  0.0682  0.8233
   62CHL1   H4B 5701   1.407   1.736   4.978  1.9469 -0.2288 -1.2529
   62CHL1    C5 5702   1.461   1.857   5.165  0.0991  0.3016  0.4683
   62CHL1    C6 5703   1.424   1.761   5.251  0.0421 -0.0050 -0.6271
   62CHL1    H6 5704   1.373   1.671   5.215  0.3392 -0.3764 -0.1338
   62CHL1    C7 5705   1.441   1.785   5.398  0.7663  0.2022 -0.5132
   62CHL1   H7A 5706   1.358   1.732   5.449  1.2921 -2.4937 -2.2540
   62CHL1   H7B 5707   1.538   1.742   5.429 -0.0705 -0.3141  1.5363
   62CHL1    C8 5708   1.440   1.938   5.435 -0.4167 -0.6069  0.1164
   62CHL1    H8 5709   1.337   1.978   5.423 -0.2001  0.0694  0.4432
   62CHL1   C14 5710   1.492   1.945   5.579  0.6549  0.2018 -0.6393
   62CHL1   H14 5711   1.598   1.910   5.576  0.8837  0.8849 -0.8192
   62CHL1   C15 5712   1.434   1.849   5.680 -0.1315  0.1595  0.6856
   62CHL1  H15A 5713   1.324   1.862   5.679 -0.0476  1.9266 -2.8330
   62CHL1  H15B 5714   1.458   1.744   5.653 -0.7151  0.4819 -1.2148
   62CHL1   C16 5715   1.496   1.909   5.812 -0.1605  0.5682 -0.4951
   62CHL1  H16A 5716   1.411   1.926   5.882 -0.7353 -0.5807 -0.8852
   62CHL1  H16B 5717   1.573   1.841   5.855  1.1314  0.5499 -2.6839
   62CHL1   C17 5718   1.567   2.044   5.778 -0.6040  0.4924 -0.1464
   62CHL1   H17 5719   1.673   2.013   5.762 -0.3540 -1.4091  3.8695
   62CHL1   C13 5720   1.515   2.081   5.642  0.1113  0.1829  0.3173
   62CHL1   C18 5721   1.385   2.155   5.662  0.0806 -0.6294  0.0760
   62CHL1  H18A 5722   1.392   2.264   5.678  0.2226 -0.6964  0.4883
   62CHL1  H18B 5723   1.316   2.141   5.576 -0.9291 -0.1005  0.7871
   62CHL1  H18C 5724   1.320   2.105   5.737 -1.2027 -1.1168 -1.3187
   62CHL1   C12 5725   1.606   2.161   5.542 -0.0674 -0.7579  0.6666
   62CHL1  H12A 5726   1.625   2.266   5.571  1.6333 -0.4571 -1.2407
   62CHL1  H12B 5727   1.708   2.116   5.534  0.1984  0.1233 -1.6038
   62CHL1   C11 5728   1.547   2.161   5.393 -0.7165 -0.9537 -0.2486
   62CHL1  H11A 5729   1.444   2.201   5.408 -1.1947 -2.8513  2.2808
   62CHL1  H11B 5730   1.610   2.231   5.335 -0.2909  0.1384  1.4482
   62CHL1    C9 5731   1.539   2.017   5.344  0.8593  0.0641 -0.2119
   62CHL1    H9 5732   1.637   1.966   5.357 -0.3703 -2.2241  0.6961
   62CHL1   C10 5733   1.510   1.998   5.195 -0.7210 -0.4102 -0.7396
   62CHL1   C19 5734   1.391   2.090   5.158 -0.4603 -0.0372 -0.0938
   62CHL1  H19A 5735   1.297   2.075   5.214  0.6137  2.2351  2.6307
   62CHL1  H19B 5736   1.414   2.198   5.170  0.1484  0.0554 -1.8362
   62CHL1  H19C 5737   1.375   2.084   5.048  0.2036 -3.0806 -0.1258
   62CHL1    C1 5738   1.634   2.025   5.110  0.1448 -0.9094  0.1012
   62CHL1   H1A 5739   1.683   2.120   5.140  0.2419 -0.7961 -0.4111
   62CHL1   H1B 5740   1.705   1.943   5.136  1.7354  0.8636  1.7342
   62CHL1    C2 5741   1.610   2.011   4.959 -0.4641  0.2219  0.4928
   62CHL1   H2A 5742   1.702   2.028   4.899  0.1206  2.6384  1.9378
   62CHL1   H2B 5743   1.539   2.092   4.931 -0.7120 -0.9508 -2.6409
   62CHL1   C20 5744   1.563   2.140   5.892  0.1370 -0.0494  0.6785
   62CHL1   H20 5745   1.465   2.189   5.905  0.8034  1.0275  1.9440
   62CHL1   C21 5746   1.672   2.248   5.861  0.5036  0.3564 -0.5581
   62CHL1  H21A 5747   1.629   2.302   5.773 -1.0352 -3.2295 -2.2086
   62CHL1  H21B 5748   1.770   2.205   5.835  0.4499 -0.6215  0.7786
   62CHL1  H21C 5749   1.678   2.321   5.945  2.2344 -0.5439  0.1252
   62CHL1   C22 5750   1.595   2.077   6.038 -0.0171  0.4412  0.2667
   62CHL1  H22A 5751   1.517   2.003   6.063  1.2874 -0.3365  2.2780
   62CHL1  H22B 5752   1.686   2.013   6.039 -0.1542  0.2375  1.4110
   62CHL1   C23 5753   1.598   2.175   6.156 -0.0631 -0.6434 -0.2995
   62CHL1  H23A 5754   1.698   2.222   6.161 -0.2529 -0.2422 -0.2531
   62CHL1  H23B 5755   1.523   2.256   6.145  1.1131  0.7296  1.3147
   62CHL1   C24 5756   1.554   2.103   6.284  0.1923 -0.8362 -0.2667
   62CHL1  H24A 5757   1.445   2.118   6.292  0.0600 -0.3856 -2.2415
   62CHL1  H24B 5758   1.584   1.997   6.294 -0.5384 -1.0742 -0.5834
   62CHL1   C25 5759   1.617   2.177   6.412  0.1915 -0.3520  0.8118
   62CHL1   H25 5760   1.615   2.286   6.394 -1.0415 -0.3703  0.7549
   62CHL1   C26 5761   1.530   2.161   6.536  0.4645 -0.1726  0.2244
   62CHL1  H26A 5762   1.569   2.223   6.619  0.7576 -1.4773  1.0936
   62CHL1  H26B 5763   1.425   2.187   6.511  0.9236  1.8415  0.2289
   62CHL1  H26C 5764   1.546   2.056   6.569  1.1968 -0.5990 -1.3805
   62CHL1   C27 5765   1.761   2.128   6.435  0.3995 -0.1388 -0.0230
   62CHL1  H27A 5766   1.746   2.026   6.477  1.7865 -1.9840 -3.5218
   62CHL1  H27B 5767   1.815   2.125   6.338 -0.3312 -1.7923 -0.4150
   62CHL1  H27C 5768   1.824   2.188   6.503  2.2600  0.0703 -1.8137
   63CHL1    C3 5769   0.541   6.823   5.183  0.3437 -0.2507  0.8534
   63CHL1    H3 5770   0.477   6.895   5.239  0.5675  1.6174 -1.1640
   63CHL1    O3 5771   0.478   6.805   5.059 -0.2428  0.3354  0.7278
   63CHL1   H3' 5772   0.527   6.864   5.001  1.2583  0.8310  2.4082
   63CHL1    C4 5773   0.688   6.880   5.166 -0.3446  0.0057 -0.0567
   63CHL1   H4A 5774   0.745   6.807   5.105 -1.5700  0.3614 -1.7194
   63CHL1   H4B 5775   0.696   6.975   5.109  0.5223  0.8214  1.3834
   63CHL1    C5 5776   0.746   6.897   5.303  0.3057  0.3639 -0.0531
   63CHL1    C6 5777   0.808   7.016   5.332  0.0992 -0.6451  0.5078
   63CHL1    H6 5778   0.804   7.098   5.259 -0.6286 -0.2737  0.9557
   63CHL1    C7 5779   0.853   7.050   5.466 -0.1174  0.0046  0.0049
   63CHL1   H7A 5780   0.956   7.090   5.458 -0.2142  0.2679  0.0748
   63CHL1   H7B 5781   0.791   7.130   5.509 -0.6496 -0.4456  0.0849
   63CHL1    C8 5782   0.864   6.939   5.571  0.1195  0.3634  0.7277
   63CHL1    H8 5783   0.958   6.880   5.558  0.0883  0.3475  0.5660
   63CHL1   C14 5784   0.862   6.987   5.713  0.2052  0.1496  0.6250
   63CHL1   H14 5785   0.757   7.016   5.737 -0.4065 -2.0343  0.8014
   63CHL1   C15 5786   0.945   7.104   5.747 -0.4773 -0.0866  0.4533
   63CHL1  H15A 5787   1.048   7.093   5.707 -1.5835 -2.2681 -2.0792
   63CHL1  H15B 5788   0.894   7.198   5.716 -2.5105 -1.2050  0.2297
   63CHL1   C16 5789   0.949   7.104   5.899  0.1731  0.4317  0.1452
   63CHL1  H16A 5790   1.056   7.086   5.924 -0.0069  0.3212  0.8589
   63CHL1  H16B 5791   0.906   7.194   5.947  2.2390 -0.0013  3.0812
   63CHL1   C17 5792   0.875   6.968   5.946 -0.0508 -0.1708  0.2883
   63CHL1   H17 5793   0.769   7.000   5.952 -0.2652 -0.1403 -2.3712
   63CHL1   C13 5794   0.883   6.881   5.820  0.6612 -0.2022  0.1568
   63CHL1   C18 5795   1.024   6.827   5.804  0.1697  0.1467 -0.1725
   63CHL1  H18A 5796   1.026   6.762   5.714  0.2244  1.7173 -1.3276
   63CHL1  H18B 5797   1.106   6.902   5.794 -0.9731  1.4235 -0.2398
   63CHL1  H18C 5798   1.049   6.763   5.892 -1.3630 -1.5418 -0.8944
   63CHL1   C12 5799   0.770   6.777   5.811  0.3945  0.0620 -0.4910
   63CHL1  H12A 5800   0.800   6.693   5.877  2.3490  1.4418  0.4577
   63CHL1  H12B 5801   0.674   6.820   5.847  0.6651 -0.3180  0.7405
   63CHL1   C11 5802   0.758   6.725   5.663 -0.2255  0.1409 -0.0078
   63CHL1  H11A 5803   0.853   6.670   5.649  0.8963  1.9775  0.0242
   63CHL1  H11B 5804   0.669   6.659   5.652  0.0885  0.0016 -1.9912
   63CHL1    C9 5805   0.755   6.839   5.558 -0.3565  0.1575  0.6356
   63CHL1    H9 5806   0.658   6.892   5.570 -0.3881  0.8926 -2.3162
   63CHL1   C10 5807   0.741   6.784   5.413  1.1631  0.1595 -0.1385
   63CHL1   C19 5808   0.849   6.681   5.374  0.1782 -0.1148 -0.4179
   63CHL1  H19A 5809   0.864   6.601   5.450  1.7012  0.8512  0.3284
   63CHL1  H19B 5810   0.824   6.639   5.274 -1.6557 -0.4674  0.1383
   63CHL1  H19C 5811   0.940   6.743   5.363 -0.8037  1.0572 -2.7989
   63CHL1    C1 5812   0.594   6.711   5.397  0.0244 -0.3811 -0.0944
   63CHL1   H1A 5813   0.603   6.620   5.460 -1.1815  0.0785  0.7736
   63CHL1   H1B 5814   0.520   6.774   5.451 -1.5118 -0.2519 -2.2563
   63CHL1    C2 5815   0.558   6.683   5.251 -0.3420  0.1793  0.4470
   63CHL1   H2A 5816   0.463   6.626   5.251 -1.7271  2.3538  0.0997
   63CHL1   H2B 5817   0.634   6.621   5.200 -1.1866  1.3978 -2.5245
   63CHL1   C20 5818   0.922   6.926   6.090  0.2556  0.3025 -0.0636
   63CHL1   H20 5819   1.030   6.900   6.084  0.3606 -0.0254  2.2795
   63CHL1   C21 5820   0.843   6.793   6.124 -0.4463  0.4226 -0.2991
   63CHL1  H21A 5821   0.885   6.702   6.077  1.0254  0.1363  1.4297
   63CHL1  H21B 5822   0.736   6.800   6.095 -0.8117 -1.9858  0.2653
   63CHL1  H21C 5823   0.843   6.783   6.235  2.8251  0.5805 -0.1929
   63CHL1   C22 5824   0.895   7.029   6.201  0.4318 -0.6276  0.2555
   63CHL1  H22A 5825   0.918   7.132   6.165  0.8527  0.1680  2.6524
   63CHL1  H22B 5826   0.786   7.042   6.215 -0.1386 -1.3570 -2.6741
   63CHL1   C23 5827   0.964   7.005   6.332  0.3577 -0.1275 -0.6253
   63CHL1  H23A 5828   0.943   6.901   6.366 -0.8756  0.0850 -0.7091
   63CHL1  H23B 5829   1.072   7.033   6.328  0.2027  0.4960 -0.4838
   63CHL1   C24 5830   0.894   7.105   6.431  0.4323 -0.3668  0.0995
   63CHL1  H24A 5831   0.862   7.198   6.379 -1.2178 -0.8783  0.1524
   63CHL1  H24B 5832   0.808   7.039   6.457  0.8969 -1.2936 -0.6662
   63CHL1   C25 5833   0.959   7.148   6.568 -0.5777 -0.1082  0.0099
   63CHL1   H25 5834   1.034   7.227   6.547  0.1482 -0.7889  0.0405
   63CHL1   C26 5835   0.856   7.203   6.668  0.7590 -0.4797 -0.8352
   63CHL1  H26A 5836   0.909   7.242   6.757 -2.3487  0.3195  0.7783
   63CHL1  H26B 5837   0.808   7.295   6.631 -0.3886 -0.7389 -0.0400
   63CHL1  H26C 5838   0.776   7.131   6.696 -2.1046  2.8287  0.1320
   63CHL1   C27 5839   1.044   7.043   6.640 -0.1749 -0.4392  0.3505
   63CHL1  H27A 5840   0.981   6.951   6.644 -1.0068  0.1400  0.7913
   63CHL1  H27B 5841   1.136   7.025   6.580 -0.0956  0.6297  0.1324
   63CHL1  H27C 5842   1.063   7.074   6.744  2.0181  3.2571 -0.9598
   64CHL1    C3 5843   4.322   3.091   4.764 -0.0734 -0.0087 -0.4259
   64CHL1    H3 5844   4.295   3.195   4.791 -0.9119 -0.5193  0.7621
   64CHL1    O3 5845   4.339   3.089   4.623 -0.6071  0.3869 -0.6859
   64CHL1   H3' 5846   4.367   2.998   4.607  0.4286  0.8010 -1.2913
   64CHL1    C4 5847   4.450   3.045   4.835 -0.1182 -0.1821  0.3296
   64CHL1   H4A 5848   4.478   2.940   4.811  3.9615  0.3639  1.8642
   64CHL1   H4B 5849   4.542   3.099   4.802  0.7293 -1.2578  0.8561
   64CHL1    C5 5850   4.443   3.032   4.985  0.2447 -0.1478  0.5529
   64CHL1    C6 5851   4.530   3.093   5.070 -0.1077  0.4906  0.8225
   64CHL1    H6 5852   4.610   3.156   5.028  1.7546 -1.2538  1.6125
   64CHL1    C7 5853   4.543   3.059   5.215  0.6405  0.1205  0.0489
   64CHL1   H7A 5854   4.649   3.029   5.231  0.3185 -0.6287  0.8669
   64CHL1   H7B 5855   4.536   3.150   5.278 -0.1898 -0.2773  0.5540
   64CHL1    C8 5856   4.440   2.965   5.265  0.3264  0.3975 -0.4225
   64CHL1    H8 5857   4.478   2.861   5.253 -0.0913  0.3615 -1.5546
   64CHL1   C14 5858   4.415   2.984   5.414  0.3067 -0.0868  0.4462
   64CHL1   H14 5859   4.369   3.085   5.415  0.5076  0.0865 -1.6845
   64CHL1   C15 5860   4.538   2.997   5.501 -0.2176  0.3683  0.2284
   64CHL1  H15A 5861   4.606   2.910   5.483  1.1946  1.2660  1.0228
   64CHL1  H15B 5862   4.593   3.093   5.493  1.5283 -0.6292 -0.3863
   64CHL1   C16 5863   4.473   2.975   5.641  0.0376 -0.1865 -0.2221
   64CHL1  H16A 5864   4.524   2.900   5.706 -1.9162 -0.4063  1.1335
   64CHL1  H16B 5865   4.474   3.067   5.703 -3.4470 -0.3611  0.2616
   64CHL1   C17 5866   4.325   2.931   5.624 -0.6813 -0.4899  0.3056
   64CHL1   H17 5867   4.270   3.027   5.624  0.1525  0.0028 -0.5977
   64CHL1   C13 5868   4.322   2.878   5.474 -0.2419  0.1497 -1.0641
   64CHL1   C18 5869   4.392   2.741   5.479  0.2556  0.3763  0.0637
   64CHL1  H18A 5870   4.341   2.675   5.552  0.8204  2.3702  2.4084
   64CHL1  H18B 5871   4.416   2.690   5.383 -0.9040 -0.5124  0.2252
   64CHL1  H18C 5872   4.491   2.746   5.529  0.2443  0.0585  0.1179
   64CHL1   C12 5873   4.189   2.876   5.394  0.1939  0.6138 -0.6542
   64CHL1  H12A 5874   4.124   2.799   5.440 -0.9938  2.3199  0.6385
   64CHL1  H12B 5875   4.138   2.973   5.408  1.3713  1.0307  1.1016
   64CHL1   C11 5876   4.216   2.848   5.241  0.0585 -0.0685 -0.5507
   64CHL1  H11A 5877   4.266   2.749   5.239 -1.1602 -0.8751  2.5607
   64CHL1  H11B 5878   4.122   2.840   5.182 -0.7237  0.3000  0.6075
   64CHL1    C9 5879   4.304   2.960   5.186  0.7906 -0.6293 -0.1163
   64CHL1    H9 5880   4.267   3.061   5.214  0.6208 -1.0080  1.1221
   64CHL1   C10 5881   4.328   2.948   5.032 -0.4046 -0.1157  0.5141
   64CHL1   C19 5882   4.362   2.803   5.003  0.2198 -0.1457 -0.5062
   64CHL1  H19A 5883   4.384   2.778   4.897 -2.1341 -1.2710 -0.7903
   64CHL1  H19B 5884   4.450   2.762   5.056 -0.6718 -1.4150  0.0310
   64CHL1  H19C 5885   4.281   2.733   5.034  0.3023  0.1808  0.4589
   64CHL1    C1 5886   4.198   2.996   4.954  0.1608  0.3905 -0.1303
   64CHL1   H1A 5887   4.123   2.921   4.988  2.1730 -1.5171  0.3261
   64CHL1   H1B 5888   4.169   3.100   4.980  1.2881  0.5827  0.4130
   64CHL1    C2 5889   4.218   2.993   4.802  0.5056 -0.6711 -0.0456
   64CHL1   H2A 5890   4.125   3.033   4.756  0.4102  0.2674  0.9382
   64CHL1   H2B 5891   4.230   2.889   4.765  1.1716 -0.1011 -1.5271
   64CHL1   C20 5892   4.254   2.844   5.733 -0.1066 -0.5467  0.3810
   64CHL1   H20 5893   4.329   2.765   5.756  2.1630  0.6307 -2.3128
   64CHL1   C21 5894   4.118   2.788   5.690 -0.0709  0.2616 -0.4947
   64CHL1  H21A 5895   4.049   2.865   5.647 -0.6240 -0.9289 -1.8302
   64CHL1  H21B 5896   4.075   2.743   5.781  2.4453 -1.1651  0.0777
   64CHL1  H21C 5897   4.137   2.708   5.614  1.0868 -1.9145  1.9399
   64CHL1   C22 5898   4.228   2.927   5.856  0.2647 -0.3847  0.1165
   64CHL1  H22A 5899   4.188   3.028   5.832  0.6705 -0.5728 -1.4954
   64CHL1  H22B 5900   4.141   2.886   5.912 -0.4759 -0.6914 -1.2161
   64CHL1   C23 5901   4.343   2.940   5.958  0.1464  0.3694  0.2451
   64CHL1  H23A 5902   4.348   2.859   6.034 -2.2595 -0.1263 -0.0323
   64CHL1  H23B 5903   4.439   2.934   5.902 -1.1617  1.4698 -2.3011
   64CHL1   C24 5904   4.336   3.069   6.027  0.1749  0.3109 -0.2531
   64CHL1  H24A 5905   4.338   3.146   5.947 -2.0831 -0.1756 -0.8431
   64CHL1  H24B 5906   4.235   3.090   6.069  0.3930  1.8404 -0.4289
   64CHL1   C25 5907   4.425   3.074   6.154 -0.2002  0.0050 -0.2503
   64CHL1   H25 5908   4.415   2.982   6.216 -0.5368  0.2500  0.0681
   64CHL1   C26 5909   4.573   3.095   6.117  0.0581  0.4301 -0.6585
   64CHL1  H26A 5910   4.583   3.190   6.060  1.1318 -1.6630 -4.3554
   64CHL1  H26B 5911   4.649   3.076   6.195  0.5732 -0.1258 -1.2776
   64CHL1  H26C 5912   4.597   3.019   6.039 -1.4859 -1.5516  0.7237
   64CHL1   C27 5913   4.374   3.186   6.247  0.9172  0.2822 -0.0234
   64CHL1  H27A 5914   4.351   3.276   6.187 -0.2854 -1.0615 -1.6786
   64CHL1  H27B 5915   4.283   3.135   6.287  1.4438 -0.8124 -0.1818
   64CHL1  H27C 5916   4.437   3.204   6.337 -0.5383 -0.1078  1.1212
   65CHL1    C3 5917   3.270   6.205   4.859 -0.3216  0.5798  0.3823
   65CHL1    H3 5918   3.354   6.273   4.885  0.1617 -0.2915  1.1827
   65CHL1    O3 5919   3.319   6.130   4.750  0.2200 -0.0602 -0.6141
   65CHL1   H3' 5920   3.251   6.069   4.722 -1.4509  0.3836  2.1859
   65CHL1    C4 5921   3.221   6.112   4.968  0.3698 -0.0841  0.1471
   65CHL1   H4A 5922   3.137   6.047   4.935 -0.1008  1.4674 -1.9770
   65CHL1   H4B 5923   3.303   6.043   4.996 -1.5752 -2.1445  1.0110
   65CHL1    C5 5924   3.165   6.188   5.079  1.2847 -0.0873  0.1270
   65CHL1    C6 5925   3.233   6.189   5.192 -0.7106 -0.5705  0.0006
   65CHL1    H6 5926   3.319   6.120   5.201 -0.4660 -0.1316  1.2203
   65CHL1    C7 5927   3.190   6.260   5.320 -0.1348  0.8358  0.3805
   65CHL1   H7A 5928   3.198   6.185   5.401  0.1343  1.1766  0.6694
   65CHL1   H7B 5929   3.266   6.339   5.338  1.0612 -0.2253  0.0666
   65CHL1    C8 5930   3.047   6.313   5.306 -0.4701  0.9666 -0.3342
   65CHL1    H8 5931   2.972   6.232   5.318 -0.7655  1.3655  0.6692
   65CHL1   C14 5932   3.025   6.415   5.424 -0.1994  0.1295  0.7068
   65CHL1   H14 5933   3.101   6.494   5.405  0.8352 -0.5671  1.8749
   65CHL1   C15 5934   3.038   6.377   5.574 -0.2667  0.1093  0.0315
   65CHL1  H15A 5935   2.984   6.282   5.591 -1.2315  0.7189  0.4766
   65CHL1  H15B 5936   3.147   6.378   5.595 -0.3978  2.1270  0.8989
   65CHL1   C16 5937   2.976   6.500   5.647  0.3128  0.2664  0.5324
   65CHL1  H16A 5938   2.888   6.466   5.706 -0.3920 -0.5260 -0.9144
   65CHL1  H16B 5939   3.049   6.546   5.717  1.5358 -1.9662  0.8144
   65CHL1   C17 5940   2.920   6.598   5.537 -0.2971  0.1879  0.2378
   65CHL1   H17 5941   3.011   6.658   5.514  0.3683 -1.0172 -0.4196
   65CHL1   C13 5942   2.895   6.502   5.413 -0.3074 -0.6331 -0.3288
   65CHL1   C18 5943   2.773   6.415   5.444  0.1180  0.3007  0.0657
   65CHL1  H18A 5944   2.777   6.371   5.546  0.4559  0.0211 -0.0684
   65CHL1  H18B 5945   2.687   6.485   5.435  2.2513  3.4201  2.0589
   65CHL1  H18C 5946   2.779   6.327   5.376 -0.9868 -0.0831  0.4362
   65CHL1   C12 5947   2.883   6.577   5.271  0.2699  0.0261 -0.4024
   65CHL1  H12A 5948   2.786   6.630   5.257  0.3156  0.1473 -0.2637
   65CHL1  H12B 5949   2.967   6.650   5.273 -0.8676  1.4607 -2.0250
   65CHL1   C11 5950   2.896   6.473   5.163  0.7295 -0.1150 -0.5731
   65CHL1  H11A 5951   2.811   6.402   5.153  1.7446 -1.1977 -2.1986
   65CHL1  H11B 5952   2.911   6.520   5.063  2.6120  0.5059 -0.0317
   65CHL1    C9 5953   3.026   6.386   5.171  0.1873 -0.2168  0.0193
   65CHL1    H9 5954   3.109   6.461   5.161  0.1169  0.1168  1.6623
   65CHL1   C10 5955   3.051   6.288   5.052 -0.7521  0.0969  0.1402
   65CHL1   C19 5956   2.928   6.199   5.040  0.2099 -0.2944  0.0012
   65CHL1  H19A 5957   2.922   6.139   5.133  2.6865  1.0356  1.0918
   65CHL1  H19B 5958   2.840   6.266   5.028  2.4085  3.0464  1.1519
   65CHL1  H19C 5959   2.946   6.126   4.957 -0.3720 -0.3801 -0.0568
   65CHL1    C1 5960   3.076   6.366   4.922 -0.0293  0.4167 -0.3571
   65CHL1   H1A 5961   2.978   6.408   4.894 -0.5674  1.2179  2.4474
   65CHL1   H1B 5962   3.157   6.439   4.941  0.0619  0.1621  0.2429
   65CHL1    C2 5963   3.144   6.282   4.809  0.0993  0.0719 -0.1847
   65CHL1   H2A 5964   3.168   6.346   4.722 -1.6126 -0.3666 -1.0358
   65CHL1   H2B 5965   3.070   6.208   4.771  1.1269  0.0733 -2.3201
   65CHL1   C20 5966   2.809   6.691   5.586 -0.4603 -0.3726  0.5096
   65CHL1   H20 5967   2.707   6.647   5.589 -0.7384  0.2328  0.1206
   65CHL1   C21 5968   2.801   6.809   5.490  0.1546 -0.6207  0.6738
   65CHL1  H21A 5969   2.748   6.791   5.394  1.0935  1.9521 -0.4123
   65CHL1  H21B 5970   2.899   6.852   5.462 -0.1683 -2.5695 -4.6381
   65CHL1  H21C 5971   2.730   6.886   5.528  0.3141 -0.7061  1.1416
   65CHL1   C22 5972   2.832   6.743   5.736 -0.5110  0.1571  0.6259
   65CHL1  H22A 5973   2.846   6.658   5.807  0.7462 -1.1299 -1.0707
   65CHL1  H22B 5974   2.927   6.800   5.738 -0.6704  0.4166  1.0009
   65CHL1   C23 5975   2.720   6.830   5.796 -0.3507 -0.1002  0.5276
   65CHL1  H23A 5976   2.715   6.921   5.733  1.2917 -0.7918 -0.6563
   65CHL1  H23B 5977   2.625   6.774   5.789 -0.5013  0.0150  1.4729
   65CHL1   C24 5978   2.746   6.864   5.942 -0.1819 -0.4354  0.0705
   65CHL1  H24A 5979   2.797   6.790   6.008 -1.0644  1.2199  2.8143
   65CHL1  H24B 5980   2.811   6.954   5.939 -2.4737  1.2805 -2.2327
   65CHL1   C25 5981   2.614   6.916   6.011  0.7533 -0.4695 -0.2759
   65CHL1   H25 5982   2.537   6.836   6.014 -1.5266  1.6331  1.0349
   65CHL1   C26 5983   2.628   6.959   6.165  0.1108  0.7767 -0.1993
   65CHL1  H26A 5984   2.678   6.871   6.210 -1.0163  0.7255  1.0077
   65CHL1  H26B 5985   2.698   7.046   6.163  0.2654  0.6496 -0.4452
   65CHL1  H26C 5986   2.526   6.986   6.200 -1.3467 -3.1986 -0.9368
   65CHL1   C27 5987   2.543   7.035   5.942 -0.1486  0.4407  0.3357
   65CHL1  H27A 5988   2.459   7.070   6.007 -0.8096 -0.5826  0.0677
   65CHL1  H27B 5989   2.623   7.108   5.918  0.5822 -0.9417 -1.6849
   65CHL1  H27C 5990   2.494   6.995   5.851  0.8530  2.5655 -1.2052
   66CHL1    C3 5991   2.322   4.424   4.763 -1.2552  0.1965  0.4993
   66CHL1    H3 5992   2.407   4.496   4.757  0.5070 -1.8255 -0.4370
   66CHL1    O3 5993   2.303   4.370   4.637 -0.0608 -0.0349 -0.0615
   66CHL1   H3' 5994   2.209   4.349   4.637  0.1121 -1.2188  2.2088
   66CHL1    C4 5995   2.363   4.307   4.858 -0.4171  0.2149  0.1470
   66CHL1   H4A 5996   2.288   4.225   4.853  0.8086 -1.0672  1.6779
   66CHL1   H4B 5997   2.457   4.262   4.819 -1.3612 -1.2148 -0.5966
   66CHL1    C5 5998   2.385   4.344   5.004  0.2907 -0.2097 -0.9012
   66CHL1    C6 5999   2.497   4.314   5.072 -0.5462  0.3461 -0.2001
   66CHL1    H6 6000   2.568   4.243   5.029 -0.1789 -0.2929  1.3830
   66CHL1    C7 6001   2.539   4.356   5.210  0.4574 -0.0451  0.2214
   66CHL1   H7A 6002   2.588   4.273   5.264 -3.1461 -2.1033  0.6188
   66CHL1   H7B 6003   2.599   4.448   5.192 -0.2394  0.6482  1.3889
   66CHL1    C8 6004   2.410   4.405   5.279  0.1419 -0.6091  0.1315
   66CHL1    H8 6005   2.341   4.319   5.297 -0.6560  0.2316  1.2106
   66CHL1   C14 6006   2.447   4.467   5.412  0.4013 -0.6612  0.4193
   66CHL1   H14 6007   2.523   4.543   5.384 -0.8894  0.7089  0.5068
   66CHL1   C15 6008   2.515   4.370   5.517 -0.0319 -1.1388 -0.2238
   66CHL1  H15A 6009   2.455   4.277   5.518  0.5892 -1.6302 -2.7170
   66CHL1  H15B 6010   2.618   4.337   5.490 -0.0724 -1.6259  0.1955
   66CHL1   C16 6011   2.513   4.460   5.644  0.1414  0.0684  0.6611
   66CHL1  H16A 6012   2.497   4.404   5.739 -2.0104  1.2273  1.0582
   66CHL1  H16B 6013   2.611   4.511   5.655  0.5187 -0.6230  0.5535
   66CHL1   C17 6014   2.401   4.573   5.625 -0.1531 -0.2800 -0.1971
   66CHL1   H17 6015   2.453   4.666   5.594 -1.1164 -0.6167 -3.1974
   66CHL1   C13 6016   2.333   4.529   5.494  0.2220  0.0643  0.7867
   66CHL1   C18 6017   2.229   4.420   5.532 -0.4711  0.5140  0.1479
   66CHL1  H18A 6018   2.271   4.355   5.612 -1.2760  0.8254  0.8286
   66CHL1  H18B 6019   2.150   4.473   5.589 -1.1267 -1.3097  1.0236
   66CHL1  H18C 6020   2.204   4.353   5.446  1.3738  1.0428 -0.8459
   66CHL1   C12 6021   2.268   4.636   5.407 -0.1477 -0.5789  0.5616
   66CHL1  H12A 6022   2.191   4.694   5.462 -0.8037 -0.5219 -0.3866
   66CHL1  H12B 6023   2.341   4.712   5.370 -0.9809  1.0889  2.1742
   66CHL1   C11 6024   2.216   4.573   5.277  0.4263 -0.3115  0.2994
   66CHL1  H11A 6025   2.131   4.508   5.307 -0.2693 -0.2347 -1.4020
   66CHL1  H11B 6026   2.164   4.653   5.220  3.3178  1.2832 -0.2891
   66CHL1    C9 6027   2.327   4.498   5.197  0.0291  0.1176  0.7026
   66CHL1    H9 6028   2.401   4.576   5.169  2.3408 -2.2541 -0.1470
   66CHL1   C10 6029   2.271   4.432   5.067  0.6853  0.4459  0.5023
   66CHL1   C19 6030   2.148   4.338   5.098  0.9036  0.2283  0.1723
   66CHL1  H19A 6031   2.156   4.246   5.160  1.1938  1.3709  1.9221
   66CHL1  H19B 6032   2.075   4.411   5.140  1.2007  0.4154  0.3655
   66CHL1  H19C 6033   2.109   4.312   4.998 -1.0203 -1.0755  1.1837
   66CHL1    C1 6034   2.225   4.547   4.961 -0.4634  0.0670 -0.5144
   66CHL1   H1A 6035   2.139   4.600   5.008  0.5314  0.8790  0.4382
   66CHL1   H1B 6036   2.305   4.624   4.958 -1.6457  1.3722  0.3901
   66CHL1    C2 6037   2.193   4.498   4.822 -0.5864 -1.2321 -0.0510
   66CHL1   H2A 6038   2.180   4.589   4.759  1.3278 -1.0419 -0.2117
   66CHL1   H2B 6039   2.105   4.430   4.819  0.6636 -2.8844 -1.7313
   66CHL1   C20 6040   2.318   4.593   5.755  0.0399 -1.0131 -0.1158
   66CHL1   H20 6041   2.256   4.508   5.790 -1.3569  0.3843  0.9761
   66CHL1   C21 6042   2.208   4.704   5.733  0.6876  0.3327 -0.5211
   66CHL1  H21A 6043   2.178   4.742   5.833  1.2332  0.9619 -0.5918
   66CHL1  H21B 6044   2.123   4.683   5.665 -0.6220  1.6692  0.6464
   66CHL1  H21C 6045   2.258   4.785   5.676  0.4965  0.2106 -0.8665
   66CHL1   C22 6046   2.414   4.630   5.880 -0.1865 -0.1794  0.2303
   66CHL1  H22A 6047   2.505   4.566   5.882  0.7357  1.1018  0.1292
   66CHL1  H22B 6048   2.456   4.731   5.865  0.6775 -0.5906 -0.2204
   66CHL1   C23 6049   2.350   4.630   6.016  0.4802  0.2693 -0.0958
   66CHL1  H23A 6050   2.294   4.723   6.040  3.5569  2.1486  0.3067
   66CHL1  H23B 6051   2.264   4.560   6.017 -0.8213  1.8101  0.7770
   66CHL1   C24 6052   2.453   4.599   6.117 -0.7267 -0.3027  0.0923
   66CHL1  H24A 6053   2.494   4.497   6.104  0.5681  0.0715  1.0257
   66CHL1  H24B 6054   2.539   4.665   6.092 -0.3536 -1.9192 -3.6774
   66CHL1   C25 6055   2.407   4.621   6.266 -0.7471  0.6470  0.4546
   66CHL1   H25 6056   2.339   4.708   6.265 -1.3909  0.2479 -3.1331
   66CHL1   C26 6057   2.326   4.498   6.315  0.0197 -0.9470 -0.1826
   66CHL1  H26A 6058   2.383   4.409   6.281  0.0604 -0.8013 -0.5063
   66CHL1  H26B 6059   2.313   4.505   6.425 -2.6902 -0.6428 -0.4508
   66CHL1  H26C 6060   2.226   4.495   6.267 -0.2017 -0.7185  0.2561
   66CHL1   C27 6061   2.527   4.651   6.361  0.3471  0.0275 -0.4719
   66CHL1  H27A 6062   2.585   4.736   6.319  0.6487 -0.5376 -1.2313
   66CHL1  H27B 6063   2.590   4.561   6.377 -0.5137 -0.6467 -0.8257
   66CHL1  H27C 6064   2.493   4.671   6.464  1.5299  1.0080 -0.2449
   67CHL1    C3 6065   3.787   2.575   4.472 -0.1766 -0.1467 -0.1440
   67CHL1    H3 6066   3.704   2.501   4.475 -1.3312  1.0768 -1.0246
   67CHL1    O3 6067   3.814   2.596   4.335 -0.0224  0.2270 -0.2080
   67CHL1   H3' 6068   3.889   2.656   4.328 -0.6473  1.0932  0.3684
   67CHL1    C4 6069   3.754   2.707   4.537 -0.4201  0.2590  0.5687
   67CHL1   H4A 6070   3.834   2.780   4.513 -0.2053 -0.5729 -1.3993
   67CHL1   H4B 6071   3.662   2.743   4.487 -0.8673 -0.3199  0.9523
   67CHL1    C5 6072   3.744   2.684   4.688  0.1993  0.1376  0.2082
   67CHL1    C6 6073   3.627   2.706   4.748  0.8618 -0.4520 -0.2140
   67CHL1    H6 6074   3.541   2.746   4.691  0.7869 -0.3979 -0.0636
   67CHL1    C7 6075   3.594   2.661   4.888  0.3722  0.0650  0.3746
   67CHL1   H7A 6076   3.514   2.729   4.922  1.1888  0.8474  0.7722
   67CHL1   H7B 6077   3.541   2.563   4.879 -1.4203  1.0261  0.0130
   67CHL1    C8 6078   3.722   2.648   4.970  0.1351  0.1317 -0.2359
   67CHL1    H8 6079   3.766   2.750   4.982  0.1056  0.2777 -1.2435
   67CHL1   C14 6080   3.688   2.591   5.106 -0.2479  0.3534  0.1600
   67CHL1   H14 6081   3.647   2.488   5.096 -1.4212  0.8005  0.2103
   67CHL1   C15 6082   3.570   2.659   5.192 -0.8646 -0.3910 -0.0100
   67CHL1  H15A 6083   3.587   2.769   5.192  2.5777 -0.8294  0.8700
   67CHL1  H15B 6084   3.477   2.631   5.138 -0.1223 -1.0571 -0.9817
   67CHL1   C16 6085   3.587   2.602   5.333  0.2597 -0.3822  0.4088
   67CHL1  H16A 6086   3.590   2.684   5.408  1.0687 -1.9627  2.2070
   67CHL1  H16B 6087   3.511   2.528   5.368 -1.8772  0.6886 -1.6826
   67CHL1   C17 6088   3.725   2.528   5.338 -0.6356  0.3474 -0.0388
   67CHL1   H17 6089   3.702   2.421   5.319  1.8473 -0.0876 -0.9691
   67CHL1   C13 6090   3.802   2.579   5.206 -0.3426  0.5351 -0.3831
   67CHL1   C18 6091   3.867   2.711   5.238 -0.4337  0.2218  0.6232
   67CHL1  H18A 6092   3.935   2.706   5.325  0.2679  2.0197  0.2137
   67CHL1  H18B 6093   3.922   2.756   5.152  1.7075 -1.3161  1.0967
   67CHL1  H18C 6094   3.788   2.781   5.273 -0.4211 -0.3617  1.8708
   67CHL1   C12 6095   3.913   2.487   5.139  0.1329  0.4159 -0.8735
   67CHL1  H12A 6096   4.008   2.480   5.196 -0.6143 -0.1512  0.3552
   67CHL1  H12B 6097   3.863   2.388   5.149 -0.8750  1.1101  2.1806
   67CHL1   C11 6098   3.947   2.530   4.998 -0.1644 -1.1932  0.0428
   67CHL1  H11A 6099   4.019   2.614   5.002 -1.2658 -0.2028 -0.5173
   67CHL1  H11B 6100   4.003   2.443   4.958  0.4331 -0.2673 -1.2118
   67CHL1    C9 6101   3.828   2.567   4.900 -0.3261 -0.5610  0.3314
   67CHL1    H9 6102   3.791   2.464   4.880 -0.8655 -1.0133  3.1753
   67CHL1   C10 6103   3.868   2.617   4.753 -0.0840 -0.7095  0.3265
   67CHL1   C19 6104   3.976   2.731   4.771  0.6244  0.3842  0.3820
   67CHL1  H19A 6105   4.065   2.685   4.819  0.4869 -0.1729  0.1156
   67CHL1  H19B 6106   4.000   2.791   4.680 -0.9610  2.9693  1.5560
   67CHL1  H19C 6107   3.940   2.811   4.839  0.6921  0.3660  0.4390
   67CHL1    C1 6108   3.922   2.498   4.677  0.3069 -1.0342 -0.5142
   67CHL1   H1A 6109   4.023   2.466   4.711  0.6533 -0.8464 -1.3434
   67CHL1   H1B 6110   3.865   2.403   4.684 -1.8954  0.3024  0.5260
   67CHL1    C2 6111   3.919   2.521   4.523  0.3681 -0.1655 -0.0738
   67CHL1   H2A 6112   3.939   2.423   4.474  1.0474 -1.0651  1.8568
   67CHL1   H2B 6113   3.997   2.595   4.497  0.4564 -0.1784  0.1499
   67CHL1   C20 6114   3.794   2.529   5.473  0.3869  0.4595  0.1000
   67CHL1   H20 6115   3.802   2.634   5.508 -0.3662 -0.3363  2.9305
   67CHL1   C21 6116   3.932   2.460   5.477 -0.5596  0.4204  0.0482
   67CHL1  H21A 6117   3.982   2.488   5.572  0.1481  1.1775 -0.5345
   67CHL1  H21B 6118   3.995   2.499   5.394  0.5342 -1.5906 -0.1591
   67CHL1  H21C 6119   3.913   2.351   5.460 -2.0867  0.9943 -2.4466
   67CHL1   C22 6120   3.710   2.472   5.594 -0.3428  0.3763  0.7563
   67CHL1  H22A 6121   3.600   2.464   5.577 -0.2156  1.8595 -1.1363
   67CHL1  H22B 6122   3.758   2.373   5.608  1.1068  1.3134  2.6762
   67CHL1   C23 6123   3.743   2.548   5.724 -0.0357  1.1383  0.5516
   67CHL1  H23A 6124   3.853   2.548   5.741  0.2798 -3.3266 -0.2430
   67CHL1  H23B 6125   3.714   2.652   5.699 -0.5123  0.3409 -2.6328
   67CHL1   C24 6126   3.670   2.493   5.844  0.5527 -0.4599  0.5111
   67CHL1  H24A 6127   3.564   2.482   5.812  1.0488 -0.9192 -1.0594
   67CHL1  H24B 6128   3.721   2.395   5.859  1.3968 -0.6261 -2.7120
   67CHL1   C25 6129   3.677   2.590   5.963 -0.0957  0.1160 -0.6326
   67CHL1   H25 6130   3.784   2.619   5.964  0.2107 -0.9854 -0.2380
   67CHL1   C26 6131   3.585   2.716   5.949 -0.1921  0.1440  0.1063
   67CHL1  H26A 6132   3.592   2.769   6.047 -1.6628  0.6086 -0.0135
   67CHL1  H26B 6133   3.620   2.769   5.857 -2.6826  1.8291  0.0410
   67CHL1  H26C 6134   3.478   2.687   5.953 -0.2518  0.5086  2.5486
   67CHL1   C27 6135   3.635   2.510   6.090 -0.2639 -0.1585 -0.1627
   67CHL1  H27A 6136   3.706   2.425   6.098  1.1918  0.6944 -2.9817
   67CHL1  H27B 6137   3.644   2.569   6.184  0.2597  2.8657 -1.9803
   67CHL1  H27C 6138   3.534   2.465   6.082 -0.0024 -0.9217  0.6180
   68CHL1    C3 6139   0.594   4.559   5.287  0.3723  0.0485 -0.3885
   68CHL1    H3 6140   0.651   4.469   5.320  2.3472  1.1559 -0.6221
   68CHL1    O3 6141   0.574   4.565   5.150  0.7830  0.0330 -0.1993
   68CHL1   H3' 6142   0.594   4.651   5.111 -0.8535  1.7542  2.4541
   68CHL1    C4 6143   0.456   4.555   5.360  0.0433  0.0546  0.0503
   68CHL1   H4A 6144   0.401   4.641   5.315  1.8746  2.4367  2.0696
   68CHL1   H4B 6145   0.400   4.465   5.327 -0.5549  0.4331  0.0110
   68CHL1    C5 6146   0.472   4.567   5.513  0.8349 -0.1529  0.0727
   68CHL1    C6 6147   0.410   4.487   5.599 -0.0328  0.5216 -0.2239
   68CHL1    H6 6148   0.352   4.403   5.557  0.2511 -0.9300  2.1362
   68CHL1    C7 6149   0.423   4.491   5.750  0.3700 -0.5780  0.1505
   68CHL1   H7A 6150   0.326   4.468   5.799  1.1130  1.0294  2.5486
   68CHL1   H7B 6151   0.496   4.416   5.788  2.2261  0.8171 -0.4773
   68CHL1    C8 6152   0.462   4.630   5.793 -0.1261 -1.0466 -1.0443
   68CHL1    H8 6153   0.375   4.696   5.776 -0.2739 -1.0434 -0.2992
   68CHL1   C14 6154   0.498   4.634   5.945 -0.6326  0.5015 -0.5238
   68CHL1   H14 6155   0.592   4.576   5.945 -1.3812 -0.7813  0.7703
   68CHL1   C15 6156   0.410   4.566   6.050 -0.0057 -0.2845  0.5534
   68CHL1  H15A 6157   0.304   4.589   6.024  0.2765  0.6598  0.2001
   68CHL1  H15B 6158   0.418   4.455   6.045  1.0627 -0.1721 -0.8753
   68CHL1   C16 6159   0.444   4.630   6.183 -0.3004 -0.1109  0.7155
   68CHL1  H16A 6160   0.353   4.670   6.233  1.3227  1.4578  2.5999
   68CHL1  H16B 6161   0.484   4.558   6.258  0.1303  0.3021  0.8873
   68CHL1   C17 6162   0.558   4.735   6.158  0.3323  0.2093 -0.0506
   68CHL1   H17 6163   0.653   4.678   6.168  1.2403  1.7336  0.1611
   68CHL1   C13 6164   0.534   4.773   6.008  0.6082 -0.3632  0.5836
   68CHL1   C18 6165   0.416   4.869   5.999 -0.1534 -0.6937  0.2695
   68CHL1  H18A 6166   0.441   4.969   6.041 -3.7374 -0.2687  1.7541
   68CHL1  H18B 6167   0.379   4.875   5.894 -2.0359  3.0830  0.9696
   68CHL1  H18C 6168   0.330   4.835   6.060  0.5360  1.0328  2.3018
   68CHL1   C12 6169   0.658   4.822   5.921  0.1193  0.3155 -0.5053
   68CHL1  H12A 6170   0.669   4.921   5.971 -1.7434  0.2405  0.1502
   68CHL1  H12B 6171   0.749   4.760   5.933 -0.1209  0.0829  0.1506
   68CHL1   C11 6172   0.619   4.828   5.770  0.1399  0.5711 -0.0781
   68CHL1  H11A 6173   0.536   4.901   5.756  1.3584  2.2320  1.0327
   68CHL1  H11B 6174   0.703   4.868   5.710  1.3570 -0.0014  1.2015
   68CHL1    C9 6175   0.580   4.687   5.714 -0.0137  0.2158 -0.1840
   68CHL1    H9 6176   0.661   4.613   5.731 -1.9987 -2.0436 -0.0047
   68CHL1   C10 6177   0.550   4.683   5.560  0.0764  0.1624  0.4334
   68CHL1   C19 6178   0.484   4.818   5.516 -0.1624 -0.1646 -0.4852
   68CHL1  H19A 6179   0.542   4.906   5.551  0.0370 -1.4691  2.9065
   68CHL1  H19B 6180   0.465   4.820   5.407 -0.3938  0.2520 -0.4395
   68CHL1  H19C 6181   0.387   4.833   5.570  0.9797 -1.5340  2.1420
   68CHL1    C1 6182   0.686   4.673   5.482 -0.0481  0.7285 -0.4928
   68CHL1   H1A 6183   0.758   4.746   5.524 -1.1776  1.6976 -0.1960
   68CHL1   H1B 6184   0.732   4.577   5.515 -3.9248 -1.0154  0.5500
   68CHL1    C2 6185   0.678   4.678   5.329  0.2796 -0.9021 -0.2049
   68CHL1   H2A 6186   0.777   4.672   5.279 -0.4785 -1.2428 -1.7507
   68CHL1   H2B 6187   0.625   4.771   5.297 -0.3019 -0.7615  1.1093
   68CHL1   C20 6188   0.563   4.845   6.269  0.1361  0.9284  0.0718
   68CHL1   H20 6189   0.483   4.919   6.247 -1.5125 -1.1347 -1.3382
   68CHL1   C21 6190   0.703   4.909   6.268 -0.4412  0.1598 -0.3722
   68CHL1  H21A 6191   0.720   4.968   6.360 -1.2715 -0.6612  0.3307
   68CHL1  H21B 6192   0.709   4.969   6.175  0.0567 -0.3363 -0.6676
   68CHL1  H21C 6193   0.779   4.829   6.255 -0.0502  0.3167  0.8386
   68CHL1   C22 6194   0.537   4.774   6.406  0.3327 -0.4339  0.3225
   68CHL1  H22A 6195   0.430   4.744   6.407  0.2275 -0.0786 -0.2729
   68CHL1  H22B 6196   0.601   4.683   6.414 -2.2552 -2.4328 -0.1762
   68CHL1   C23 6197   0.557   4.869   6.529  0.4889 -0.0883 -0.1128
   68CHL1  H23A 6198   0.668   4.880   6.527  0.5875 -0.4437  1.5876
   68CHL1  H23B 6199   0.515   4.970   6.508 -0.0507 -0.6642 -1.9872
   68CHL1   C24 6200   0.511   4.807   6.657  0.1502  0.0054  0.0490
   68CHL1  H24A 6201   0.413   4.758   6.637 -0.0706  0.0897  0.9024
   68CHL1  H24B 6202   0.568   4.724   6.703 -2.3705 -2.7803 -1.4681
   68CHL1   C25 6203   0.489   4.902   6.775 -0.1071 -0.5075 -0.0836
   68CHL1   H25 6204   0.444   4.994   6.731 -0.3205 -0.4449  0.2662
   68CHL1   C26 6205   0.375   4.847   6.859 -0.6726 -0.4107  0.6105
   68CHL1  H26A 6206   0.280   4.860   6.802 -0.1495  0.2823 -0.1453
   68CHL1  H26B 6207   0.380   4.739   6.883 -0.1806 -1.3468 -3.0581
   68CHL1  H26C 6208   0.363   4.904   6.953 -0.6373  0.7172 -0.0449
   68CHL1   C27 6209   0.618   4.933   6.845  0.2277  0.6578 -0.5330
   68CHL1  H27A 6210   0.588   5.006   6.923  2.0066  0.8447  0.0265
   68CHL1  H27B 6211   0.653   4.838   6.891 -2.6536 -0.2837 -0.0752
   68CHL1  H27C 6212   0.691   4.971   6.770  0.2270 -2.8668 -2.5312
   69CHL1    C3 6213   4.598   3.598   4.764  0.0871 -0.0756  0.3294
   69CHL1    H3 6214   4.490   3.576   4.771 -0.2741  0.6099 -2.1336
   69CHL1    O3 6215   4.621   3.629   4.628 -0.2183 -0.0827 -0.0831
   69CHL1   H3' 6216   4.559   3.697   4.604 -1.8026 -1.4557 -0.0372
   69CHL1    C4 6217   4.640   3.725   4.843  0.6747  0.8632 -0.1426
   69CHL1   H4A 6218   4.747   3.748   4.824  0.3401  0.8936 -2.2885
   69CHL1   H4B 6219   4.585   3.814   4.805  1.0677  1.3704  0.4643
   69CHL1    C5 6220   4.610   3.696   4.989  0.4404  0.4173 -0.2717
   69CHL1    C6 6221   4.519   3.772   5.059 -0.1521  0.3337  0.0251
   69CHL1    H6 6222   4.466   3.854   5.010 -0.0199  0.1809 -0.3796
   69CHL1    C7 6223   4.493   3.753   5.210 -0.4262  0.0097 -0.5492
   69CHL1   H7A 6224   4.489   3.850   5.263  1.1562 -0.7257  1.0483
   69CHL1   H7B 6225   4.392   3.709   5.221 -1.2117  2.0464  1.0543
   69CHL1    C8 6226   4.597   3.663   5.273 -0.4112 -0.4470  0.5712
   69CHL1    H8 6227   4.688   3.725   5.294 -0.6297 -0.0444  0.3361
   69CHL1   C14 6228   4.540   3.618   5.408 -0.2374  0.7565  0.8686
   69CHL1   H14 6229   4.454   3.550   5.391 -1.9316  2.1784  3.1559
   69CHL1   C15 6230   4.483   3.730   5.496  0.4108 -0.1455  0.0580
   69CHL1  H15A 6231   4.544   3.821   5.475  0.9457  0.2084  2.7944
   69CHL1  H15B 6232   4.373   3.745   5.489  0.1558 -2.1222 -0.8146
   69CHL1   C16 6233   4.508   3.667   5.627  0.3734  0.1197  0.3156
   69CHL1  H16A 6234   4.565   3.749   5.674 -1.4421  1.0916  0.9452
   69CHL1  H16B 6235   4.409   3.663   5.677 -1.6996  1.7587 -3.1838
   69CHL1   C17 6236   4.570   3.530   5.617 -0.6680  0.0815  0.0579
   69CHL1   H17 6237   4.492   3.452   5.603  0.3530 -1.0838  0.6616
   69CHL1   C13 6238   4.645   3.537   5.480 -0.4917 -0.0425  0.6567
   69CHL1   C18 6239   4.786   3.606   5.493  0.2755 -0.2729 -0.4034
   69CHL1  H18A 6240   4.861   3.551   5.554 -1.3366 -0.6863  1.2817
   69CHL1  H18B 6241   4.847   3.620   5.401  0.3307 -0.4067 -0.3865
   69CHL1  H18C 6242   4.764   3.709   5.529 -0.8974 -0.6749  0.0677
   69CHL1   C12 6243   4.659   3.405   5.401  0.2650  0.0832 -0.3966
   69CHL1  H12A 6244   4.735   3.338   5.448 -0.5574 -1.7647 -1.5871
   69CHL1  H12B 6245   4.558   3.360   5.403  1.2380 -2.3395 -1.5794
   69CHL1   C11 6246   4.708   3.426   5.263  0.0042 -0.0330  0.4672
   69CHL1  H11A 6247   4.818   3.443   5.263 -0.2448  2.0929  2.3388
   69CHL1  H11B 6248   4.683   3.331   5.211  0.2869 -1.7358  3.2243
   69CHL1    C9 6249   4.626   3.533   5.188 -0.3802  0.1766  0.5030
   69CHL1    H9 6250   4.527   3.488   5.164  0.2963 -1.5900  0.8467
   69CHL1   C10 6251   4.678   3.566   5.045  0.0653  0.1345  0.3736
   69CHL1   C19 6252   4.831   3.591   5.053 -1.1711  0.4385  0.4413
   69CHL1  H19A 6253   4.840   3.676   5.123  0.4212  2.1637 -1.6927
   69CHL1  H19B 6254   4.886   3.500   5.086 -2.5647 -0.5711  0.0942
   69CHL1  H19C 6255   4.872   3.624   4.955 -1.0436 -1.4317 -0.1766
   69CHL1    C1 6256   4.643   3.444   4.954 -0.0095  0.2853 -0.0570
   69CHL1   H1A 6257   4.708   3.357   4.978 -3.6671 -2.8634 -0.4709
   69CHL1   H1B 6258   4.537   3.423   4.979 -0.2325  1.7689  0.3074
   69CHL1    C2 6259   4.666   3.468   4.804 -0.4426 -0.4926  0.1042
   69CHL1   H2A 6260   4.636   3.384   4.737  0.1194  1.2125 -2.4427
   69CHL1   H2B 6261   4.774   3.481   4.782 -0.7165  0.0230 -1.0058
   69CHL1   C20 6262   4.659   3.481   5.732  0.3910  0.0825 -0.4089
   69CHL1   H20 6263   4.754   3.436   5.697  0.6653  2.0922 -2.4866
   69CHL1   C21 6264   4.576   3.361   5.795 -0.0333 -0.5471  0.4723
   69CHL1  H21A 6265   4.638   3.332   5.883  0.9585  1.5800  0.5244
   69CHL1  H21B 6266   4.570   3.277   5.722  0.0789  0.5627 -0.8577
   69CHL1  H21C 6267   4.473   3.385   5.829 -0.1262 -3.2058  2.3964
   69CHL1   C22 6268   4.706   3.597   5.828  0.1138 -0.3284  0.2470
   69CHL1  H22A 6269   4.754   3.678   5.770 -0.4075 -0.5513 -0.5162
   69CHL1  H22B 6270   4.610   3.633   5.871 -1.9644 -2.1272 -2.4984
   69CHL1   C23 6271   4.803   3.546   5.933 -0.2499 -0.3287 -0.5483
   69CHL1  H23A 6272   4.765   3.453   5.981 -1.3277 -0.5562 -1.7835
   69CHL1  H23B 6273   4.897   3.520   5.879 -1.1114 -0.4146 -2.0753
   69CHL1   C24 6274   4.831   3.658   6.035 -0.2246  0.7627 -0.1333
   69CHL1  H24A 6275   4.870   3.744   5.976  0.2617 -0.4429 -1.6503
   69CHL1  H24B 6276   4.738   3.688   6.088 -0.0774 -0.2697  0.7454
   69CHL1   C25 6277   4.945   3.615   6.134  0.2892  0.2737  0.3040
   69CHL1   H25 6278   5.025   3.575   6.069 -1.0038 -1.2243 -0.4514
   69CHL1   C26 6279   4.990   3.739   6.207  0.3015  0.3339  0.4756
   69CHL1  H26A 6280   5.078   3.708   6.268 -0.1378 -1.3954  0.2724
   69CHL1  H26B 6281   5.029   3.822   6.144 -0.5807  0.3074 -0.1167
   69CHL1  H26C 6282   4.901   3.761   6.270 -1.5941 -2.4809 -1.0009
   69CHL1   C27 6283   4.898   3.505   6.224  0.3345  0.7611 -0.1316
   69CHL1  H27A 6284   4.869   3.414   6.166 -0.4115  0.3876  0.7996
   69CHL1  H27B 6285   4.984   3.473   6.287  2.7263 -0.8019 -3.8538
   69CHL1  H27C 6286   4.806   3.532   6.280 -0.0822  2.1887 -1.4366
   70CHL1    C3 6287   6.566   5.807   5.297  0.5488  0.8945 -0.2551
   70CHL1    H3 6288   6.636   5.738   5.350 -0.8156 -2.0715 -2.0720
   70CHL1    O3 6289   6.601   5.811   5.159 -0.3500  0.2879  0.2996
   70CHL1   H3' 6290   6.563   5.738   5.110  2.0883 -0.5995 -0.4024
   70CHL1    C4 6291   6.427   5.743   5.313  0.2531 -0.9134 -0.0008
   70CHL1   H4A 6292   6.351   5.803   5.258  2.4998  3.2933  1.0190
   70CHL1   H4B 6293   6.424   5.641   5.269 -1.7191 -0.8085 -0.1648
   70CHL1    C5 6294   6.398   5.735   5.463 -0.2384  0.5626  0.2802
   70CHL1    C6 6295   6.382   5.610   5.517  0.0712 -0.2958 -0.6169
   70CHL1    H6 6296   6.380   5.515   5.460  2.0607 -0.8701  0.1677
   70CHL1    C7 6297   6.346   5.589   5.661 -0.0240  0.4858 -0.1737
   70CHL1   H7A 6298   6.261   5.521   5.679 -0.9995  1.3988 -1.1726
   70CHL1   H7B 6299   6.427   5.545   5.723  0.9420  2.8561  0.3602
   70CHL1    C8 6300   6.316   5.723   5.739  0.4781  0.2106  0.8155
   70CHL1    H8 6301   6.208   5.742   5.722  0.6046 -1.5104 -2.7378
   70CHL1   C14 6302   6.336   5.702   5.886 -0.4125  0.7417  0.0554
   70CHL1   H14 6303   6.445   5.681   5.901 -0.8008 -0.3258  1.7332
   70CHL1   C15 6304   6.260   5.585   5.959 -0.1440 -0.3524 -0.8091
   70CHL1  H15A 6305   6.161   5.567   5.911 -1.6883 -1.2416  2.4468
   70CHL1  H15B 6306   6.326   5.496   5.953  0.8150  0.2650  0.2039
   70CHL1   C16 6307   6.253   5.636   6.105  0.1852 -0.0365 -0.0463
   70CHL1  H16A 6308   6.149   5.659   6.135 -0.0902  0.1926 -1.1287
   70CHL1  H16B 6309   6.300   5.557   6.167 -3.2241 -2.5634 -0.3822
   70CHL1   C17 6310   6.335   5.772   6.115 -0.1068  0.7319 -0.0532
   70CHL1   H17 6311   6.443   5.746   6.108 -0.9284 -2.8046 -2.5629
   70CHL1   C13 6312   6.319   5.830   5.974  0.2563 -0.1700 -0.1591
   70CHL1   C18 6313   6.173   5.877   5.960 -0.2712  0.1015  0.4491
   70CHL1  H18A 6314   6.158   5.929   5.863 -0.8587 -1.0550 -0.1059
   70CHL1  H18B 6315   6.098   5.795   5.956 -3.3793  2.8160 -1.4508
   70CHL1  H18C 6316   6.156   5.951   6.041  1.7971 -1.2246  2.2143
   70CHL1   C12 6317   6.424   5.929   5.935  0.4821  0.2955 -0.1952
   70CHL1  H12A 6318   6.391   6.025   5.982 -0.6227 -0.5115  0.7517
   70CHL1  H12B 6319   6.526   5.912   5.976  0.9655  1.1725 -0.9955
   70CHL1   C11 6320   6.427   5.965   5.789  0.2233 -0.0956 -1.1101
   70CHL1  H11A 6321   6.344   6.032   5.760  2.1189  3.2940  0.6133
   70CHL1  H11B 6322   6.518   6.025   5.767  0.9061  0.2252  2.0513
   70CHL1    C9 6323   6.419   5.834   5.699  0.3957  0.6950 -0.0612
   70CHL1    H9 6324   6.520   5.791   5.716  0.9867  2.2212  0.4353
   70CHL1   C10 6325   6.411   5.864   5.545  0.1058 -0.1378 -0.4265
   70CHL1   C19 6326   6.284   5.942   5.516 -0.3188  0.0472 -0.5524
   70CHL1  H19A 6327   6.303   6.049   5.538 -1.1544  0.4610 -1.7241
   70CHL1  H19B 6328   6.251   5.948   5.410 -4.2506  0.6095  0.5553
   70CHL1  H19C 6329   6.201   5.918   5.585  0.3004  2.6414  1.2273
   70CHL1    C1 6330   6.536   5.949   5.499 -0.7772  0.2446 -0.8709
   70CHL1   H1A 6331   6.523   6.056   5.526 -0.5939 -0.0179  0.3337
   70CHL1   H1B 6332   6.628   5.915   5.552 -2.0470 -0.1977  1.1867
   70CHL1    C2 6333   6.565   5.951   5.352  0.2019  0.1875 -0.2321
   70CHL1   H2A 6334   6.669   5.989   5.345  0.6942 -0.8386  0.9963
   70CHL1   H2B 6335   6.483   6.013   5.311  0.3143  0.7646  0.3951
   70CHL1   C20 6336   6.313   5.872   6.232 -0.0380 -0.0091  0.3965
   70CHL1   H20 6337   6.303   5.977   6.197  2.3259  0.3940  0.7095
   70CHL1   C21 6338   6.441   5.861   6.319  0.6469 -0.2939  0.5619
   70CHL1  H21A 6339   6.454   5.768   6.378  1.2186  0.6084  1.8990
   70CHL1  H21B 6340   6.426   5.939   6.397 -2.0388 -0.7806  0.6074
   70CHL1  H21C 6341   6.525   5.882   6.249 -0.0697  0.2726 -0.1609
   70CHL1   C22 6342   6.189   5.850   6.317  0.1935  0.8018 -0.1280
   70CHL1  H22A 6343   6.107   5.850   6.242 -0.1796  0.3741  0.2653
   70CHL1  H22B 6344   6.186   5.744   6.352 -0.7522 -0.5785 -3.8793
   70CHL1   C23 6345   6.144   5.949   6.427 -0.1955  0.1424 -0.8734
   70CHL1  H23A 6346   6.206   5.932   6.517 -0.4461 -1.0313 -0.9000
   70CHL1  H23B 6347   6.167   6.051   6.391 -0.7914 -0.1523 -2.1636
   70CHL1   C24 6348   5.997   5.942   6.457  0.4647  0.1147  0.3045
   70CHL1  H24A 6349   5.941   5.964   6.364 -1.0948 -3.1101  0.3179
   70CHL1  H24B 6350   5.969   5.837   6.481 -1.4826  0.4371 -0.3927
   70CHL1   C25 6351   5.945   6.030   6.575  0.4136 -0.0808 -0.0066
   70CHL1   H25 6352   5.957   6.136   6.544 -0.0487  0.3794  1.3143
   70CHL1   C26 6353   5.790   5.994   6.606 -0.2104  0.4964 -0.3373
   70CHL1  H26A 6354   5.723   6.009   6.518 -0.6280  2.3729  0.2492
   70CHL1  H26B 6355   5.787   5.886   6.631 -3.0562  0.2296 -1.4194
   70CHL1  H26C 6356   5.755   6.056   6.691 -0.6902 -2.4369  1.7562
   70CHL1   C27 6357   6.019   6.002   6.705  0.6242  0.3732 -0.8000
   70CHL1  H27A 6358   6.029   5.893   6.725  3.9402  0.9792  1.6287
   70CHL1  H27B 6359   6.123   6.040   6.708  0.0784  1.8820  1.8068
   70CHL1  H27C 6360   5.965   6.045   6.792 -0.7619  0.3065 -1.5913
   71CHL1    C3 6361   4.877   0.023   4.939 -0.3038 -0.4074 -0.2649
   71CHL1    H3 6362   4.947   0.102   4.976 -0.9585  1.5020 -2.7960
   71CHL1    O3 6363   4.863   0.058   4.800 -0.2121 -0.5779 -0.4379
   71CHL1   H3' 6364   4.788   0.009   4.765  0.0162 -0.3478 -1.2823
   71CHL1    C4 6365   4.930  -0.122   4.947 -0.4208 -0.4649 -0.0730
   71CHL1   H4A 6366   4.870  -0.190   4.882 -0.3165  0.3178 -1.0214
   71CHL1   H4B 6367   5.031  -0.135   4.902  0.8310 -0.3647  2.5270
   71CHL1    C5 6368   4.928  -0.176   5.083 -0.1169  0.3960 -0.7032
   71CHL1    C6 6369   5.036  -0.224   5.147 -0.5555  0.2026  0.0591
   71CHL1    H6 6370   5.136  -0.231   5.101 -1.7349 -2.7109 -2.3786
   71CHL1    C7 6371   5.041  -0.278   5.287 -0.4414 -0.0840  0.7366
   71CHL1   H7A 6372   5.113  -0.361   5.302  1.4759  1.0343 -1.6135
   71CHL1   H7B 6373   5.082  -0.198   5.352  0.5312  1.3704 -1.5408
   71CHL1    C8 6374   4.904  -0.313   5.342 -0.0985 -0.4374  0.0601
   71CHL1    H8 6375   4.873  -0.400   5.281 -0.6580 -0.4538  0.3531
   71CHL1   C14 6376   4.910  -0.347   5.491  0.8510  0.0087  0.0937
   71CHL1   H14 6377   4.944  -0.253   5.539  0.1665  1.2671 -1.7643
   71CHL1   C15 6378   5.000  -0.458   5.529  0.3677 -0.3697 -0.3479
   71CHL1  H15A 6379   4.981  -0.552   5.473 -0.4004 -0.5687  0.2225
   71CHL1  H15B 6380   5.102  -0.419   5.511  0.3277 -0.1147 -0.0397
   71CHL1   C16 6381   4.962  -0.476   5.676  0.0974  0.4310 -0.4632
   71CHL1  H16A 6382   4.949  -0.579   5.713 -1.4071  0.7337 -0.0687
   71CHL1  H16B 6383   5.021  -0.414   5.747  1.6169 -0.5096 -0.8588
   71CHL1   C17 6384   4.820  -0.407   5.699  1.0076 -0.1409 -1.0319
   71CHL1   H17 6385   4.843  -0.309   5.745 -2.4254  1.1738 -1.7882
   71CHL1   C13 6386   4.775  -0.374   5.557  0.7626 -0.1685 -0.4267
   71CHL1   C18 6387   4.694  -0.498   5.515  0.3672  0.6063  0.4860
   71CHL1  H18A 6388   4.751  -0.583   5.559 -1.1993 -0.8957 -0.2356
   71CHL1  H18B 6389   4.588  -0.487   5.548  0.5203  1.7213  0.6391
   71CHL1  H18C 6390   4.689  -0.511   5.405  4.0887 -0.8792  0.3371
   71CHL1   C12 6391   4.684  -0.251   5.535 -0.1221 -0.2317 -0.0796
   71CHL1  H12A 6392   4.583  -0.271   5.577 -0.2150 -2.2933 -1.1301
   71CHL1  H12B 6393   4.718  -0.163   5.593 -2.5124  0.8177 -0.1723
   71CHL1   C11 6394   4.669  -0.226   5.387  0.3447 -0.3921 -0.3252
   71CHL1  H11A 6395   4.627  -0.315   5.334  0.2306  0.1887 -1.2362
   71CHL1  H11B 6396   4.613  -0.132   5.369  2.7111  1.1232 -0.1148
   71CHL1    C9 6397   4.809  -0.198   5.319  0.1686 -0.4073  0.7247
   71CHL1    H9 6398   4.854  -0.111   5.371  0.4606 -0.9895  1.4693
   71CHL1   C10 6399   4.797  -0.158   5.165  0.2457  0.4549  0.3510
   71CHL1   C19 6400   4.685  -0.241   5.093  0.4155 -0.3473 -0.6674
   71CHL1  H19A 6401   4.704  -0.244   4.983 -1.7214  2.6155 -1.2630
   71CHL1  H19B 6402   4.684  -0.343   5.135 -0.4266 -0.6472 -1.3762
   71CHL1  H19C 6403   4.589  -0.186   5.098  0.2109 -0.5840 -1.6592
   71CHL1    C1 6404   4.754  -0.012   5.164 -0.4954 -0.2917  0.3801
   71CHL1   H1A 6405   4.658   0.007   5.217 -0.6955 -0.5676  0.1145
   71CHL1   H1B 6406   4.817   0.055   5.227 -0.9698  0.1816  0.3622
   71CHL1    C2 6407   4.745   0.041   5.016 -0.1021  0.2331 -0.6166
   71CHL1   H2A 6408   4.720   0.149   5.017  0.5910  0.4000  1.2826
   71CHL1   H2B 6409   4.659  -0.006   4.963  0.1637 -0.2978 -0.5934
   71CHL1   C20 6410   4.730  -0.478   5.805 -0.2128 -0.5300  0.1536
   71CHL1   H20 6411   4.711  -0.583   5.772 -1.0895 -0.4527  0.3967
   71CHL1   C21 6412   4.589  -0.416   5.834 -0.0861 -0.6418  0.6965
   71CHL1  H21A 6413   4.525  -0.393   5.746  0.4333 -0.1551  0.4389
   71CHL1  H21B 6414   4.598  -0.318   5.886 -0.2056 -1.0854  1.5770
   71CHL1  H21C 6415   4.531  -0.477   5.907  2.4188 -0.3789  3.0897
   71CHL1   C22 6416   4.802  -0.484   5.945 -0.0578 -0.1997  0.3995
   71CHL1  H22A 6417   4.902  -0.532   5.937  0.6570  1.2337  0.4513
   71CHL1  H22B 6418   4.828  -0.381   5.976 -0.6180  0.3199 -0.8023
   71CHL1   C23 6419   4.731  -0.557   6.057 -0.2322  0.3731  0.2840
   71CHL1  H23A 6420   4.641  -0.503   6.094  0.8450  1.4220  1.4655
   71CHL1  H23B 6421   4.691  -0.652   6.014 -1.3118  0.9566 -0.0235
   71CHL1   C24 6422   4.824  -0.586   6.170 -0.7647 -0.7749  0.0026
   71CHL1  H24A 6423   4.897  -0.660   6.130 -1.6826 -2.9120  1.9870
   71CHL1  H24B 6424   4.875  -0.490   6.193 -0.2762 -0.8544 -0.7127
   71CHL1   C25 6425   4.762  -0.657   6.290  0.5286 -0.2485  0.3036
   71CHL1   H25 6426   4.705  -0.749   6.265 -0.4177 -0.6457  3.3859
   71CHL1   C26 6427   4.865  -0.706   6.396 -0.3402  0.2138  0.3078
   71CHL1  H26A 6428   4.809  -0.724   6.490 -0.5986 -0.8261 -0.0298
   71CHL1  H26B 6429   4.903  -0.803   6.357  0.1460 -0.7840  3.0866
   71CHL1  H26C 6430   4.955  -0.643   6.414  1.0683 -1.0955 -1.6609
   71CHL1   C27 6431   4.660  -0.570   6.365  0.0242 -0.1377 -0.3997
   71CHL1  H27A 6432   4.617  -0.620   6.454  0.9099 -3.8467 -1.8933
   71CHL1  H27B 6433   4.708  -0.474   6.396 -0.1273 -0.8632  2.3042
   71CHL1  H27C 6434   4.575  -0.547   6.297  0.7239  0.1129 -1.2098
   72CHL1    C3 6435   3.252   0.997   4.815 -0.3652  0.4001 -0.3766
   72CHL1    H3 6436   3.211   1.098   4.834  2.0257  1.1558  1.3026
   72CHL1    O3 6437   3.240   0.977   4.679 -0.5185  0.2724  0.1913
   72CHL1   H3' 6438   3.205   0.889   4.668  1.2132 -0.4184 -0.1299
   72CHL1    C4 6439   3.403   0.980   4.854 -0.4796 -0.4517 -0.3915
   72CHL1   H4A 6440   3.453   0.887   4.820  0.4626 -0.2240  0.3301
   72CHL1   H4B 6441   3.464   1.062   4.811 -0.4182  0.8370  2.0004
   72CHL1    C5 6442   3.425   0.995   4.998 -0.2982  0.5780 -0.0244
   72CHL1    C6 6443   3.498   1.092   5.056 -0.1522 -0.6737 -0.0155
   72CHL1    H6 6444   3.544   1.164   4.987 -2.5244  0.2278 -0.7457
   72CHL1    C7 6445   3.517   1.108   5.204 -0.4015  0.2418 -0.0981
   72CHL1   H7A 6446   3.623   1.109   5.236 -0.7144 -0.5372  1.0345
   72CHL1   H7B 6447   3.466   1.206   5.219 -1.2012  0.2363 -2.3373
   72CHL1    C8 6448   3.458   0.994   5.295  0.2186  0.8478 -0.1112
   72CHL1    H8 6449   3.526   0.907   5.299  0.5738  1.0493 -1.4324
   72CHL1   C14 6450   3.436   1.042   5.437 -0.3528  0.6846  0.1123
   72CHL1   H14 6451   3.369   1.130   5.436  1.1105  1.8377  0.4831
   72CHL1   C15 6452   3.561   1.092   5.506 -0.2985 -0.9585 -1.1431
   72CHL1  H15A 6453   3.636   1.011   5.507 -0.9903 -1.6116 -1.3155
   72CHL1  H15B 6454   3.611   1.184   5.467  3.1013 -1.8807  0.6638
   72CHL1   C16 6455   3.508   1.095   5.652  0.3847 -0.0448 -0.4453
   72CHL1  H16A 6456   3.582   1.042   5.715  0.4878 -0.1048 -0.6137
   72CHL1  H16B 6457   3.502   1.190   5.708  0.5711 -0.2241 -0.1198
   72CHL1   C17 6458   3.362   1.031   5.659  0.1847  0.1278 -0.1593
   72CHL1   H17 6459   3.297   1.119   5.639  0.0050 -0.1523 -0.8272
   72CHL1   C13 6460   3.367   0.941   5.531 -0.1810 -0.2731 -0.0688
   72CHL1   C18 6461   3.451   0.809   5.554  0.2918  0.2300 -0.4999
   72CHL1  H18A 6462   3.384   0.741   5.610 -0.5796  0.9870 -0.6082
   72CHL1  H18B 6463   3.476   0.767   5.454 -1.4582  0.9950 -1.3123
   72CHL1  H18C 6464   3.533   0.843   5.622  0.6249 -1.4663 -0.0237
   72CHL1   C12 6465   3.228   0.904   5.466  0.6195 -0.6193  0.1540
   72CHL1  H12A 6466   3.175   0.834   5.535 -1.8729  3.3289  2.6011
   72CHL1  H12B 6467   3.155   0.987   5.470  0.1223 -0.9731 -1.0623
   72CHL1   C11 6468   3.256   0.846   5.327  0.5331  0.1698 -0.6600
   72CHL1  H11A 6469   3.309   0.749   5.333 -0.8984 -0.6109  0.1536
   72CHL1  H11B 6470   3.161   0.805   5.286  0.7046 -2.6529  1.4140
   72CHL1    C9 6471   3.329   0.945   5.233  0.5541  0.0079  1.0011
   72CHL1    H9 6472   3.266   1.036   5.223  0.2379 -0.3963 -1.1563
   72CHL1   C10 6473   3.338   0.906   5.079 -0.5369  0.2385  1.2580
   72CHL1   C19 6474   3.404   0.763   5.077  0.5825 -0.3278 -0.1912
   72CHL1  H19A 6475   3.336   0.693   5.130  1.5505 -1.1003  0.0415
   72CHL1  H19B 6476   3.400   0.730   4.971  2.3018  0.5100 -0.5426
   72CHL1  H19C 6477   3.510   0.757   5.108 -0.0293 -2.9072  1.7318
   72CHL1    C1 6478   3.191   0.903   5.026 -0.5866 -0.4495 -0.2916
   72CHL1   H1A 6479   3.143   0.815   5.073  1.0680 -0.7664  0.9090
   72CHL1   H1B 6480   3.138   0.993   5.064  2.0174  1.0138  0.1692
   72CHL1    C2 6481   3.174   0.885   4.882 -0.1562 -0.2567 -0.0422
   72CHL1   H2A 6482   3.070   0.893   4.844 -0.1958 -0.2767  0.0610
   72CHL1   H2B 6483   3.224   0.790   4.850  1.9059  0.8597 -0.3353
   72CHL1   C20 6484   3.326   0.957   5.795  0.1558 -0.1799 -0.1631
   72CHL1   H20 6485   3.372   0.857   5.787  1.3029  0.4356 -2.0128
   72CHL1   C21 6486   3.176   0.969   5.798 -0.5172  0.0263 -0.9122
   72CHL1  H21A 6487   3.146   1.071   5.829 -0.9076 -0.2377 -0.4198
   72CHL1  H21B 6488   3.125   0.893   5.860 -0.2960 -0.5030 -1.3663
   72CHL1  H21C 6489   3.131   0.966   5.696  0.3622 -0.0007 -1.3139
   72CHL1   C22 6490   3.387   1.022   5.922 -0.9490  0.1252 -0.3182
   72CHL1  H22A 6491   3.497   1.009   5.913 -0.7700  0.3011  1.2962
   72CHL1  H22B 6492   3.356   1.128   5.932 -1.3604  0.0098 -0.3446
   72CHL1   C23 6493   3.360   0.945   6.047 -0.4730  1.0707 -0.6456
   72CHL1  H23A 6494   3.255   0.909   6.052 -0.0892  0.0956  1.5846
   72CHL1  H23B 6495   3.430   0.858   6.046  0.3018  1.3404  4.1788
   72CHL1   C24 6496   3.386   1.018   6.177  0.5279  0.0862 -0.6200
   72CHL1  H24A 6497   3.495   1.039   6.171  0.6824 -0.8354 -1.3353
   72CHL1  H24B 6498   3.325   1.111   6.171  0.3313  0.0300  0.3510
   72CHL1   C25 6499   3.348   0.932   6.299 -0.0267 -0.2264 -0.1053
   72CHL1   H25 6500   3.239   0.913   6.290 -0.7393  2.9081  0.9364
   72CHL1   C26 6501   3.398   0.787   6.296  0.2244  0.3749 -0.4416
   72CHL1  H26A 6502   3.509   0.792   6.290  0.2606  0.4366  0.2615
   72CHL1  H26B 6503   3.376   0.735   6.391 -0.1184 -0.5952 -1.0299
   72CHL1  H26C 6504   3.376   0.727   6.205 -1.1118 -1.4674  1.0113
   72CHL1   C27 6505   3.361   1.007   6.433 -0.2500 -0.1678 -0.3627
   72CHL1  H27A 6506   3.299   1.099   6.436 -2.9215 -1.8676  0.5075
   72CHL1  H27B 6507   3.338   0.943   6.521  0.5926 -0.8470 -0.6160
   72CHL1  H27C 6508   3.466   1.038   6.452 -0.9186  0.7839  2.1711
   73CHL1    C3 6509   4.586   4.711   5.240  0.0224 -0.5085 -0.2693
   73CHL1    H3 6510   4.648   4.800   5.264 -3.3818  1.2920  2.7678
   73CHL1    O3 6511   4.566   4.705   5.102 -0.0334 -0.1267  0.2320
   73CHL1   H3' 6512   4.653   4.710   5.061 -0.7912 -2.3124 -1.9430
   73CHL1    C4 6513   4.660   4.588   5.296  0.2245  0.3595 -0.6372
   73CHL1   H4A 6514   4.614   4.490   5.270  0.4406 -0.4159  1.6998
   73CHL1   H4B 6515   4.760   4.592   5.248 -0.0645 -0.0216 -1.2883
   73CHL1    C5 6516   4.673   4.587   5.450 -0.1504 -0.2171  0.0007
   73CHL1    C6 6517   4.790   4.566   5.506 -0.6148  0.1852  0.2125
   73CHL1    H6 6518   4.870   4.534   5.438  0.4322  0.9019  1.0828
   73CHL1    C7 6519   4.815   4.578   5.661  0.3327  0.2780 -0.3167
   73CHL1   H7A 6520   4.871   4.490   5.699 -1.1083  0.2948  2.0220
   73CHL1   H7B 6521   4.871   4.668   5.695 -1.3242  1.4579 -0.5911
   73CHL1    C8 6522   4.685   4.577   5.742  0.6317 -0.5665 -1.1711
   73CHL1    H8 6523   4.645   4.474   5.753  3.7420 -1.8244 -0.5141
   73CHL1   C14 6524   4.711   4.637   5.885 -0.7310 -0.7474  0.1241
   73CHL1   H14 6525   4.729   4.745   5.866 -0.0939 -1.1835 -2.0869
   73CHL1   C15 6526   4.831   4.584   5.962 -0.3153 -0.2330  0.5579
   73CHL1  H15A 6527   4.866   4.481   5.943  1.4878  0.3986  0.2739
   73CHL1  H15B 6528   4.920   4.644   5.933 -1.5309  1.8168  0.8147
   73CHL1   C16 6529   4.792   4.616   6.107 -0.2105  0.1535  0.2401
   73CHL1  H16A 6530   4.802   4.511   6.144 -0.9783  0.4918  1.4640
   73CHL1  H16B 6531   4.867   4.682   6.154  0.5837 -0.4876 -0.0966
   73CHL1   C17 6532   4.649   4.674   6.103  0.5112 -0.1461 -0.3636
   73CHL1   H17 6533   4.656   4.783   6.086  1.5314 -0.1181  0.1289
   73CHL1   C13 6534   4.587   4.617   5.972  0.5684 -0.0549 -0.5275
   73CHL1   C18 6535   4.565   4.461   5.998 -0.1915  0.0318  0.1301
   73CHL1  H18A 6536   4.475   4.457   6.063 -0.9218  1.4772 -0.7399
   73CHL1  H18B 6537   4.523   4.414   5.907 -0.6876  0.7536 -0.0193
   73CHL1  H18C 6538   4.650   4.409   6.048  0.0794  0.2119 -0.1471
   73CHL1   C12 6539   4.469   4.702   5.908  0.0536  0.1409  0.3512
   73CHL1  H12A 6540   4.374   4.690   5.964 -0.7159 -1.5679 -1.2301
   73CHL1  H12B 6541   4.486   4.811   5.893  0.6026 -0.0394 -0.3574
   73CHL1   C11 6542   4.446   4.644   5.766  0.1272  0.2419  0.5709
   73CHL1  H11A 6543   4.411   4.540   5.780  1.7095 -0.4248 -0.1806
   73CHL1  H11B 6544   4.357   4.700   5.730 -0.2885 -0.2032  0.8995
   73CHL1    C9 6545   4.569   4.653   5.675  0.1845  0.0753 -0.0451
   73CHL1    H9 6546   4.588   4.762   5.668  0.6407 -0.0534 -1.1526
   73CHL1   C10 6547   4.539   4.607   5.529  0.5822  0.0650  0.1894
   73CHL1   C19 6548   4.459   4.474   5.527  0.5010 -0.2499  0.3153
   73CHL1  H19A 6549   4.513   4.409   5.599  0.7039  0.6136  0.9589
   73CHL1  H19B 6550   4.357   4.496   5.566  1.5328  3.3303  1.3364
   73CHL1  H19C 6551   4.457   4.429   5.426  0.3662 -1.5914  0.8828
   73CHL1    C1 6552   4.453   4.717   5.463 -0.1754  0.0330  0.5979
   73CHL1   H1A 6553   4.349   4.711   5.500 -0.4006  1.6373  0.2919
   73CHL1   H1B 6554   4.491   4.818   5.491  2.2444 -0.3080 -1.0726
   73CHL1    C2 6555   4.445   4.710   5.308 -0.6213 -0.1311  0.2018
   73CHL1   H2A 6556   4.388   4.800   5.279 -0.6671  0.3790  1.8139
   73CHL1   H2B 6557   4.393   4.617   5.276 -2.0558  1.4225 -2.3263
   73CHL1   C20 6558   4.571   4.654   6.234 -0.3926  0.2050 -0.3776
   73CHL1   H20 6559   4.566   4.546   6.258  1.2667  0.1848 -0.0078
   73CHL1   C21 6560   4.429   4.705   6.217  0.0263  0.5736 -0.1608
   73CHL1  H21A 6561   4.361   4.640   6.158  0.6577 -0.5511  0.3114
   73CHL1  H21B 6562   4.433   4.809   6.179  0.4310  0.7036  0.2351
   73CHL1  H21C 6563   4.377   4.708   6.315 -1.0942 -1.7510 -0.6141
   73CHL1   C22 6564   4.642   4.729   6.345  0.9874  0.1335  0.4511
   73CHL1  H22A 6565   4.574   4.714   6.432 -1.4955  2.5184 -0.9046
   73CHL1  H22B 6566   4.746   4.694   6.359  0.9923 -0.3556 -0.7213
   73CHL1   C23 6567   4.658   4.880   6.328  0.7842  0.2249 -0.2627
   73CHL1  H23A 6568   4.698   4.910   6.229  0.7223 -0.8790 -0.6425
   73CHL1  H23B 6569   4.556   4.924   6.325  1.0841  1.1893  1.9867
   73CHL1   C24 6570   4.737   4.948   6.440 -0.3732 -0.1679  0.9468
   73CHL1  H24A 6571   4.714   5.057   6.441 -2.2866 -0.5344  0.7447
   73CHL1  H24B 6572   4.690   4.904   6.531  0.1698 -0.6725  0.9913
   73CHL1   C25 6573   4.895   4.933   6.441 -0.4497  0.0136 -0.0993
   73CHL1   H25 6574   4.921   4.825   6.436  0.6836  0.3246 -3.4043
   73CHL1   C26 6575   4.953   5.001   6.313  0.7433  0.1198 -0.2901
   73CHL1  H26A 6576   4.918   5.106   6.312 -2.7165 -0.8991 -2.0681
   73CHL1  H26B 6577   5.062   5.004   6.332  0.8314  1.1221 -0.9137
   73CHL1  H26C 6578   4.914   4.947   6.224 -0.4679 -0.8866  0.8060
   73CHL1   C27 6579   4.954   5.004   6.566 -0.8723  0.4467  0.3300
   73CHL1  H27A 6580   4.889   4.999   6.656 -0.4334 -1.4922  0.6022
   73CHL1  H27B 6581   5.056   4.965   6.590 -1.9627 -1.0104  2.9425
   73CHL1  H27C 6582   4.957   5.113   6.546 -0.3303  0.1636 -1.3715
   74CHL1    C3 6583   4.987   3.214   4.811 -0.1167 -0.3931 -0.5074
   74CHL1    H3 6584   4.938   3.313   4.823 -0.1027 -0.5275  0.6955
   74CHL1    O3 6585   5.001   3.174   4.673 -0.2643  0.3480 -0.3005
   74CHL1   H3' 6586   5.067   3.231   4.633  0.9270 -2.6664 -3.0234
   74CHL1    C4 6587   5.125   3.215   4.882  0.3657  0.1295 -0.7164
   74CHL1   H4A 6588   5.193   3.131   4.856  2.5478 -0.0167  4.2718
   74CHL1   H4B 6589   5.186   3.295   4.834  0.3799 -0.5258 -1.8435
   74CHL1    C5 6590   5.110   3.228   5.027  0.2320  0.3657 -0.5247
   74CHL1    C6 6591   5.174   3.325   5.092  0.3237 -0.1072  0.1697
   74CHL1    H6 6592   5.246   3.390   5.040 -0.2360  0.9261  0.6408
   74CHL1    C7 6593   5.166   3.342   5.240  1.1333 -0.1850  0.9406
   74CHL1   H7A 6594   5.265   3.383   5.270 -0.0410  3.3009  0.4820
   74CHL1   H7B 6595   5.089   3.417   5.266  1.7236  0.9796 -0.5101
   74CHL1    C8 6596   5.128   3.204   5.316 -0.3942 -0.1949  0.9387
   74CHL1    H8 6597   5.207   3.127   5.306  0.0788  0.5349 -2.3381
   74CHL1   C14 6598   5.092   3.239   5.463  0.4659 -0.5022 -0.0829
   74CHL1   H14 6599   5.012   3.316   5.457 -0.2844 -0.9196  2.7967
   74CHL1   C15 6600   5.187   3.320   5.556 -0.1293  0.6693 -0.2143
   74CHL1  H15A 6601   5.290   3.277   5.556  0.1939  1.2072  2.9162
   74CHL1  H15B 6602   5.187   3.427   5.525  0.8488  1.0602  1.0286
   74CHL1   C16 6603   5.121   3.300   5.692  0.3410 -0.2710 -0.1861
   74CHL1  H16A 6604   5.198   3.261   5.762 -1.9210 -1.4663  1.7803
   74CHL1  H16B 6605   5.093   3.401   5.730 -0.2420 -0.3207 -0.4785
   74CHL1   C17 6606   5.015   3.196   5.675 -0.1438 -0.1524 -0.2937
   74CHL1   H17 6607   4.923   3.257   5.660 -2.0838 -2.9514 -0.5424
   74CHL1   C13 6608   5.033   3.124   5.542 -0.5425 -1.3592  1.1226
   74CHL1   C18 6609   5.143   3.017   5.561  0.4409 -0.0620  0.1240
   74CHL1  H18A 6610   5.175   2.964   5.469 -1.0339  2.4628 -2.0146
   74CHL1  H18B 6611   5.240   3.058   5.597 -0.2742  0.7280  1.2236
   74CHL1  H18C 6612   5.103   2.945   5.635 -2.0643  0.6351 -0.4574
   74CHL1   C12 6613   4.902   3.075   5.471  0.0628  0.0755  0.5080
   74CHL1  H12A 6614   4.873   2.980   5.522  0.0106  0.1883  0.6892
   74CHL1  H12B 6615   4.823   3.152   5.478  0.0970  0.0952  0.6828
   74CHL1   C11 6616   4.940   3.030   5.325  0.2967 -0.2391  0.4094
   74CHL1  H11A 6617   5.012   2.946   5.327 -1.9527 -2.4342 -1.9906
   74CHL1  H11B 6618   4.855   2.986   5.268 -0.5968  0.8893  0.8257
   74CHL1    C9 6619   5.004   3.150   5.250  0.4488 -0.5714 -0.1868
   74CHL1    H9 6620   4.921   3.224   5.253  0.9552  0.0427 -0.9266
   74CHL1   C10 6621   5.022   3.118   5.098  0.3915  0.9303 -0.7098
   74CHL1   C19 6622   5.098   2.988   5.082  0.1979  0.8053 -0.0501
   74CHL1  H19A 6623   5.038   2.905   5.125  2.2681 -0.6986  0.1309
   74CHL1  H19B 6624   5.123   2.962   4.977 -0.1801 -0.8486  0.2434
   74CHL1  H19C 6625   5.177   2.988   5.160 -1.2336  1.1915  1.4328
   74CHL1    C1 6626   4.893   3.132   5.029 -0.1717  0.3769  0.2725
   74CHL1   H1A 6627   4.826   3.051   5.063 -0.2667  1.0555  1.7469
   74CHL1   H1B 6628   4.852   3.232   5.054 -1.1740  0.4952 -1.6026
   74CHL1    C2 6629   4.901   3.109   4.877  0.0933  0.3435 -0.5622
   74CHL1   H2A 6630   4.799   3.114   4.835  0.5659  3.7901 -1.6261
   74CHL1   H2B 6631   4.946   3.011   4.851  1.7963  0.6581  0.9726
   74CHL1   C20 6632   4.985   3.103   5.799 -0.0033  0.1024  0.0991
   74CHL1   H20 6633   5.062   3.023   5.804  0.5495  0.5663 -0.7985
   74CHL1   C21 6634   4.840   3.048   5.800  0.0315 -0.2715 -0.1568
   74CHL1  H21A 6635   4.763   3.127   5.782  0.7813  0.8110  1.1582
   74CHL1  H21B 6636   4.809   2.985   5.886 -1.0904  0.5809  0.0818
   74CHL1  H21C 6637   4.839   2.971   5.721 -0.4981 -0.9356  0.4859
   74CHL1   C22 6638   5.012   3.185   5.932  0.2440 -0.1220 -0.5548
   74CHL1  H22A 6639   5.122   3.200   5.943  0.0951 -0.0576  1.0114
   74CHL1  H22B 6640   4.956   3.281   5.932  0.1661 -0.1490  0.6348
   74CHL1   C23 6641   4.972   3.105   6.055  0.0163  0.1385 -0.9184
   74CHL1  H23A 6642   4.866   3.075   6.069  0.2311  0.0955  0.7632
   74CHL1  H23B 6643   5.027   3.008   6.050 -2.8461 -1.5699 -1.8808
   74CHL1   C24 6644   5.018   3.156   6.197  0.6321  0.2300 -0.0524
   74CHL1  H24A 6645   4.945   3.238   6.213  1.6847  0.8683  1.6334
   74CHL1  H24B 6646   4.997   3.077   6.272  1.1757  1.0784  1.0031
   74CHL1   C25 6647   5.164   3.198   6.211  0.3726 -0.2455  0.0180
   74CHL1   H25 6648   5.177   3.284   6.141 -0.4794  0.0583  0.2261
   74CHL1   C26 6649   5.190   3.258   6.345  1.1246 -0.4250  0.3666
   74CHL1  H26A 6650   5.291   3.305   6.349  0.7474  0.3911  0.2928
   74CHL1  H26B 6651   5.118   3.339   6.365  1.7122  0.6383 -1.6186
   74CHL1  H26C 6652   5.184   3.184   6.428  1.6723 -1.1930 -0.2576
   74CHL1   C27 6653   5.272   3.092   6.165 -0.4781 -0.7743  0.4084
   74CHL1  H27A 6654   5.273   3.067   6.057 -1.7536 -0.7553  0.3706
   74CHL1  H27B 6655   5.374   3.114   6.202 -0.6255  0.7493 -0.0133
   74CHL1  H27C 6656   5.237   3.006   6.225  0.4288 -0.1417  1.9068
   75CHL1    C3 6657   5.701   2.816   4.927 -0.0388 -0.1754  0.6426
   75CHL1    H3 6658   5.696   2.921   4.962  0.4112  0.0796 -0.0364
   75CHL1    O3 6659   5.758   2.807   4.799 -0.4778 -0.1307 -0.0229
   75CHL1   H3' 6660   5.758   2.712   4.787 -0.7626 -0.3887  1.7541
   75CHL1    C4 6661   5.793   2.754   5.027 -0.0745  0.1644  0.5178
   75CHL1   H4A 6662   5.810   2.645   5.010  0.6500 -0.2568  3.4656
   75CHL1   H4B 6663   5.890   2.805   5.008 -1.1123  2.3709  0.8483
   75CHL1    C5 6664   5.747   2.767   5.171 -0.0349 -0.0163  0.2485
   75CHL1    C6 6665   5.820   2.830   5.272  0.0100 -0.4179  0.8854
   75CHL1    H6 6666   5.919   2.877   5.268 -0.7665  1.2020 -0.9663
   75CHL1    C7 6667   5.766   2.825   5.412  0.1533 -0.1657  0.7013
   75CHL1   H7A 6668   5.850   2.795   5.479 -0.7775 -0.9192  1.5633
   75CHL1   H7B 6669   5.738   2.930   5.437  1.6136  1.0193 -2.1243
   75CHL1    C8 6670   5.645   2.731   5.434  0.3439 -0.0198  0.2717
   75CHL1    H8 6671   5.684   2.627   5.436 -1.8846 -0.9014  0.8269
   75CHL1   C14 6672   5.579   2.764   5.570  0.2801  0.5019  0.9160
   75CHL1   H14 6673   5.553   2.872   5.562  1.0141  0.5799 -0.6808
   75CHL1   C15 6674   5.665   2.757   5.701  0.2029  0.0699  0.4615
   75CHL1  H15A 6675   5.726   2.664   5.693 -0.3795 -0.2077 -1.0689
   75CHL1  H15B 6676   5.734   2.844   5.697  1.0914 -0.6647 -1.6120
   75CHL1   C16 6677   5.550   2.751   5.811 -0.1173 -0.0410  0.3578
   75CHL1  H16A 6678   5.551   2.656   5.869 -1.5848 -0.0849  0.3507
   75CHL1  H16B 6679   5.548   2.835   5.883 -1.2554  0.7522 -0.5718
   75CHL1   C17 6680   5.415   2.748   5.741  0.0949  0.2478 -0.9695
   75CHL1   H17 6681   5.392   2.852   5.713  3.2691  0.7098 -2.3685
   75CHL1   C13 6682   5.451   2.682   5.609 -0.6978 -0.1580  0.1141
   75CHL1   C18 6683   5.500   2.534   5.617  1.2232 -0.0365 -0.7128
   75CHL1  H18A 6684   5.544   2.491   5.525  1.0695  0.0886 -0.8448
   75CHL1  H18B 6685   5.582   2.513   5.690  1.4724 -0.9823 -1.2539
   75CHL1  H18C 6686   5.412   2.473   5.647 -1.0791  2.5967 -1.6767
   75CHL1   C12 6687   5.351   2.710   5.495 -0.3332 -0.6025 -0.5158
   75CHL1  H12A 6688   5.257   2.654   5.515 -1.3093  1.1942  0.2671
   75CHL1  H12B 6689   5.327   2.819   5.504  2.1328 -0.0715  0.5048
   75CHL1   C11 6690   5.407   2.675   5.364  0.4167  0.4471 -0.1538
   75CHL1  H11A 6691   5.414   2.564   5.368 -3.1553  0.1444  1.6403
   75CHL1  H11B 6692   5.326   2.698   5.291 -0.4279 -0.3801  0.4880
   75CHL1    C9 6693   5.539   2.747   5.325  0.5318  0.2728 -0.2373
   75CHL1    H9 6694   5.521   2.856   5.314 -0.7245 -0.1089 -2.8709
   75CHL1   C10 6695   5.602   2.706   5.185 -0.6509 -0.1287 -0.4134
   75CHL1   C19 6696   5.611   2.554   5.167 -0.1976 -0.6375  0.5088
   75CHL1  H19A 6697   5.510   2.509   5.182 -1.2142  1.7604  1.2848
   75CHL1  H19B 6698   5.629   2.521   5.063  2.0392 -1.0223  0.9550
   75CHL1  H19C 6699   5.684   2.509   5.238  1.5089 -1.7692 -1.8230
   75CHL1    C1 6700   5.510   2.758   5.064  0.3308  0.3131 -0.5060
   75CHL1   H1A 6701   5.409   2.710   5.062  0.8384 -0.8034 -0.2804
   75CHL1   H1B 6702   5.483   2.863   5.087 -0.6266 -0.0796  0.2656
   75CHL1    C2 6703   5.566   2.749   4.926  0.5583 -0.0291 -0.3539
   75CHL1   H2A 6704   5.497   2.803   4.857  0.2056 -0.2105 -0.1476
   75CHL1   H2B 6705   5.577   2.643   4.897 -0.8987 -0.9172  2.0672
   75CHL1   C20 6706   5.286   2.690   5.815  0.5847 -0.2250 -0.3079
   75CHL1   H20 6707   5.211   2.668   5.736 -1.9882  1.2651  1.5694
   75CHL1   C21 6708   5.219   2.794   5.899  0.6118 -0.4059  0.0083
   75CHL1  H21A 6709   5.200   2.882   5.834  2.4734  0.0096 -0.0505
   75CHL1  H21B 6710   5.299   2.828   5.969 -1.6035  0.7872  2.0907
   75CHL1  H21C 6711   5.134   2.762   5.962  3.4258 -1.3622  3.7029
   75CHL1   C22 6712   5.314   2.567   5.906  0.2452 -0.3572  0.5423
   75CHL1  H22A 6713   5.393   2.503   5.863  0.3999 -0.3281  0.7794
   75CHL1  H22B 6714   5.355   2.603   6.003  0.3838  0.5946  0.1469
   75CHL1   C23 6715   5.190   2.479   5.923 -0.3550 -0.9013 -0.6625
   75CHL1  H23A 6716   5.102   2.538   5.957  0.1609 -1.4603  1.8586
   75CHL1  H23B 6717   5.159   2.437   5.825  1.6237 -0.4268 -1.5299
   75CHL1   C24 6718   5.222   2.350   5.997 -0.1326 -0.0647 -0.1475
   75CHL1  H24A 6719   5.305   2.291   5.951 -0.4785 -0.7883  0.1494
   75CHL1  H24B 6720   5.257   2.382   6.097  1.0703  1.6376 -1.0516
   75CHL1   C25 6721   5.098   2.263   5.998  0.1871  0.1202  0.5043
   75CHL1   H25 6722   5.064   2.264   5.892  0.5049 -0.1102  0.3989
   75CHL1   C26 6723   5.130   2.116   6.031  0.0733  0.5893  0.6010
   75CHL1  H26A 6724   5.220   2.090   5.970  1.1901  0.7119  2.1234
   75CHL1  H26B 6725   5.164   2.101   6.136  2.1880  0.8491  0.0076
   75CHL1  H26C 6726   5.040   2.052   6.021 -0.1238  0.9925 -0.3536
   75CHL1   C27 6727   4.982   2.309   6.075  0.5475  0.0883  0.5271
   75CHL1  H27A 6728   4.940   2.402   6.030 -1.7975  0.3523  3.0243
   75CHL1  H27B 6729   4.899   2.238   6.096  0.6445 -0.1899  0.0055
   75CHL1  H27C 6730   5.024   2.342   6.172  4.0967 -0.9009 -0.5275
   76CHL1    C3 6731   4.851   5.689   5.091 -0.2023 -0.6728 -0.3395
   76CHL1    H3 6732   4.741   5.685   5.106 -0.1120 -0.4413  0.4059
   76CHL1    O3 6733   4.879   5.668   4.954 -0.6083 -0.1265 -0.1796
   76CHL1   H3' 6734   4.918   5.751   4.924  0.9558 -0.1651  1.5577
   76CHL1    C4 6735   4.905   5.828   5.137 -0.2985 -0.2378 -0.0787
   76CHL1   H4A 6736   5.015   5.828   5.125 -0.5170  1.4593 -2.8982
   76CHL1   H4B 6737   4.866   5.909   5.072 -0.0296 -0.7061 -0.8315
   76CHL1    C5 6738   4.884   5.852   5.291 -0.6931 -0.4869  0.8231
   76CHL1    C6 6739   4.817   5.957   5.332  0.0625 -0.2971 -0.5199
   76CHL1    H6 6740   4.784   6.032   5.259 -0.0304 -0.5016 -0.6909
   76CHL1    C7 6741   4.789   5.985   5.473  0.4936  0.3620  0.4516
   76CHL1   H7A 6742   4.810   6.093   5.491 -1.8366  0.8573  0.5440
   76CHL1   H7B 6743   4.680   5.978   5.495  0.3822 -0.5636 -0.3310
   76CHL1    C8 6744   4.864   5.897   5.580 -0.4022 -0.3033 -0.6063
   76CHL1    H8 6745   4.964   5.941   5.600 -0.6805 -0.4271  1.1908
   76CHL1   C14 6746   4.778   5.898   5.708 -0.7566 -0.3037  0.0695
   76CHL1   H14 6747   4.675   5.863   5.685 -1.2763  0.7891  0.6734
   76CHL1   C15 6748   4.757   6.039   5.774 -0.1460  0.0121  0.2501
   76CHL1  H15A 6749   4.845   6.104   5.754  0.1294 -0.8459 -1.4898
   76CHL1  H15B 6750   4.667   6.084   5.728 -0.3543  0.4068  1.0265
   76CHL1   C16 6751   4.717   6.005   5.918 -0.3234  0.0341 -0.3168
   76CHL1  H16A 6752   4.798   6.046   5.981  3.5338 -3.5820 -2.4081
   76CHL1  H16B 6753   4.623   6.061   5.939 -0.3227 -0.2976  0.6037
   76CHL1   C17 6754   4.728   5.850   5.931  0.0206 -0.0008  0.1489
   76CHL1   H17 6755   4.631   5.811   5.893 -0.1617 -2.2133  2.5580
   76CHL1   C13 6756   4.821   5.803   5.822  0.0896 -0.0633  0.4541
   76CHL1   C18 6757   4.965   5.843   5.863 -0.0660 -0.8877 -0.6141
   76CHL1  H18A 6758   4.999   5.769   5.939 -0.6523  0.2035  0.7432
   76CHL1  H18B 6759   5.033   5.845   5.775  1.6780 -2.5633  0.6221
   76CHL1  H18C 6760   4.976   5.939   5.916  0.3457 -1.1262 -0.2595
   76CHL1   C12 6761   4.834   5.659   5.764  0.0053  0.3553  0.2885
   76CHL1  H12A 6762   4.888   5.593   5.835 -2.1299 -0.0454  1.6357
   76CHL1  H12B 6763   4.734   5.614   5.748 -0.6667  1.8287  0.2177
   76CHL1   C11 6764   4.919   5.650   5.630  0.4837  0.5678  0.4372
   76CHL1  H11A 6765   5.025   5.665   5.660  1.0432 -0.6150 -0.8475
   76CHL1  H11B 6766   4.935   5.553   5.577  1.7205  1.3287 -0.6707
   76CHL1    C9 6767   4.869   5.756   5.524 -0.3617 -0.5195  0.3105
   76CHL1    H9 6768   4.766   5.716   5.509  0.5333 -1.9761 -2.8973
   76CHL1   C10 6769   4.932   5.740   5.384 -0.3840  0.1517  0.0665
   76CHL1   C19 6770   5.092   5.753   5.397  0.3129  0.6590  0.0960
   76CHL1  H19A 6771   5.117   5.839   5.464  0.4099  0.1140  0.7627
   76CHL1  H19B 6772   5.142   5.667   5.446  1.5802  2.0485  1.4080
   76CHL1  H19C 6773   5.143   5.755   5.299 -1.9762  0.9338 -1.1457
   76CHL1    C1 6774   4.896   5.599   5.326 -0.1069  0.0054 -0.3987
   76CHL1   H1A 6775   4.955   5.515   5.370  0.5571 -0.2040 -1.6545
   76CHL1   H1B 6776   4.789   5.579   5.346  0.1556  0.7390  2.1866
   76CHL1    C2 6777   4.918   5.586   5.172 -0.3829 -0.3034 -0.2319
   76CHL1   H2A 6778   4.877   5.490   5.134  2.0084 -0.6427 -2.2054
   76CHL1   H2B 6779   5.028   5.586   5.164 -0.2544  0.7152  1.1254
   76CHL1   C20 6780   4.744   5.800   6.075 -0.5027 -0.0767  0.2543
   76CHL1   H20 6781   4.849   5.821   6.105 -0.0843 -0.3410 -0.9861
   76CHL1   C21 6782   4.721   5.650   6.086 -0.2718  0.0564 -0.0517
   76CHL1  H21A 6783   4.773   5.582   6.015 -0.5353  1.8649 -2.1064
   76CHL1  H21B 6784   4.612   5.640   6.065  0.0853  1.6098 -3.4230
   76CHL1  H21C 6785   4.766   5.620   6.183  0.8896  0.4566 -0.4500
   76CHL1   C22 6786   4.649   5.873   6.169  0.4633  0.6873 -0.1799
   76CHL1  H22A 6787   4.669   5.982   6.166 -1.2269  1.0202 -2.9303
   76CHL1  H22B 6788   4.544   5.873   6.133  0.3865  1.6733  0.0231
   76CHL1   C23 6789   4.657   5.829   6.322 -0.4464  0.8806  0.1391
   76CHL1  H23A 6790   4.640   5.721   6.339  4.4593  0.2648  2.7473
   76CHL1  H23B 6791   4.760   5.846   6.359 -0.1877  1.7964 -0.9249
   76CHL1   C24 6792   4.562   5.907   6.418  0.0007 -0.2982 -0.1029
   76CHL1  H24A 6793   4.590   5.879   6.522 -1.1428 -1.8044 -0.1709
   76CHL1  H24B 6794   4.587   6.015   6.410 -1.1369 -0.1487 -1.9458
   76CHL1   C25 6795   4.413   5.875   6.406 -0.6641  0.0809  0.4786
   76CHL1   H25 6796   4.389   5.878   6.298  1.7962 -1.4984 -0.1976
   76CHL1   C26 6797   4.373   5.739   6.465  0.2246  0.5044  0.0700
   76CHL1  H26A 6798   4.427   5.651   6.426 -0.8231 -0.1678  0.0920
   76CHL1  H26B 6799   4.383   5.733   6.575  0.7473  1.9948  0.1303
   76CHL1  H26C 6800   4.263   5.731   6.448  0.2885 -2.4440  0.5258
   76CHL1   C27 6801   4.334   5.978   6.493 -0.2881 -0.3417 -0.4919
   76CHL1  H27A 6802   4.338   5.957   6.602 -0.4334  0.0811 -0.4032
   76CHL1  H27B 6803   4.377   6.080   6.485  1.1162 -0.9262 -0.6204
   76CHL1  H27C 6804   4.225   5.979   6.471 -0.4609  3.9393 -0.3271
   77SOPE     N 6805   6.432   3.803   0.362  0.5103  0.3680  0.1127
   77SOPE   HN1 6806   6.519   3.752   0.337  0.2094  0.9480 -2.4190
   77SOPE   HN2 6807   6.425   3.820   0.464 -2.1945 -0.5494  0.1699
   77SOPE   HN3 6808   6.354   3.743   0.327  0.1418  2.2322 -2.5463
   77SOPE   C12 6809   6.424   3.941   0.295 -0.8901  0.5530  0.3235
   77SOPE  H12A 6810   6.499   4.010   0.339  0.6575 -1.6613  1.3639
   77SOPE  H12B 6811   6.323   3.985   0.306 -1.2013 -0.2855  0.9425
   77SOPE   C11 6812   6.451   3.907   0.149 -0.1610  0.3843 -0.0145
   77SOPE  H11A 6813   6.432   3.997   0.087 -2.4291 -0.1748 -0.2281
   77SOPE  H11B 6814   6.377   3.828   0.123  0.7426 -0.4666 -0.0701
   77SOPE     P 6815   6.700   3.936   0.079  0.3237 -0.1728  0.2026
   77SOPE   O13 6816   6.805   3.831   0.051 -0.3374  0.0962  0.1642
   77SOPE   O14 6817   6.725   4.050   0.162 -0.0871 -0.0360  0.1994
   77SOPE   O12 6818   6.580   3.845   0.135  1.0221  0.3627 -0.1548
   77SOPE   O11 6819   6.641   3.997  -0.057  0.6609  0.2466 -0.0852
   77SOPE    C1 6820   6.564   3.905  -0.140  0.2161 -0.0967  0.4664
   77SOPE    HA 6821   6.455   3.929  -0.140  0.6090  1.8649  1.0495
   77SOPE    HB 6822   6.575   3.797  -0.119 -1.4786 -0.8235 -1.9620
   77SOPE    C2 6823   6.619   3.932  -0.282  0.9002  0.0767 -0.0805
   77SOPE    HS 6824   6.570   3.870  -0.360  0.8542  1.3467 -1.0905
   77SOPE   O21 6825   6.759   3.895  -0.287 -0.7552  0.0045 -0.0606
   77SOPE   C21 6826   6.790   3.776  -0.335 -0.1410 -0.2555  0.0504
   77SOPE   O22 6827   6.714   3.686  -0.365 -0.1611 -0.2480 -0.0745
   77SOPE   C22 6828   6.936   3.763  -0.347 -0.2333  0.3399  0.3702
   77SOPE   H2R 6829   6.943   3.653  -0.361 -0.9252  0.2236  0.9095
   77SOPE   H2S 6830   6.991   3.788  -0.253  1.0127  1.2797 -0.5630
   77SOPE    C3 6831   6.594   4.080  -0.326 -0.5725  0.2746 -0.3162
   77SOPE    HX 6832   6.649   4.144  -0.253 -0.9976 -0.4256  0.6335
   77SOPE    HY 6833   6.488   4.105  -0.305 -0.2855  1.2543  0.0394
   77SOPE   O31 6834   6.640   4.102  -0.458 -0.2179 -0.2140  0.0428
   77SOPE   C31 6835   6.751   4.172  -0.480  0.3162 -0.5020  0.2082
   77SOPE   O32 6836   6.820   4.221  -0.395 -0.0985  0.3665  0.0595
   77SOPE   C32 6837   6.770   4.193  -0.638  0.1688 -0.1722 -0.0703
   77SOPE   H2X 6838   6.676   4.168  -0.691  0.6368 -0.1967 -0.8960
   77SOPE   H2Y 6839   6.847   4.117  -0.662  0.3278 -0.0383  0.0063
   77SOPE   C23 6840   7.003   3.815  -0.472  0.3185  0.2481 -0.9352
   77SOPE   H3R 6841   7.024   3.921  -0.446  1.3088 -0.3357  0.7930
   77SOPE   H3S 6842   6.941   3.797  -0.562 -1.4526  2.1231 -0.1527
   77SOPE   C24 6843   7.140   3.752  -0.511  0.3240  0.1980  0.3267
   77SOPE   H4R 6844   7.210   3.754  -0.425 -0.8765  1.0892  1.3162
   77SOPE   H4S 6845   7.108   3.646  -0.525 -1.0435  0.7737 -1.1629
   77SOPE   C25 6846   7.191   3.813  -0.646  0.2902  0.0533  0.3631
   77SOPE   H5R 6847   7.228   3.914  -0.619  1.2332 -0.4758  1.1323
   77SOPE   H5S 6848   7.273   3.750  -0.689  0.1034 -0.6656  1.0297
   77SOPE   C26 6849   7.088   3.853  -0.760  0.0956  0.7163 -0.0230
   77SOPE   H6R 6850   7.015   3.769  -0.759 -1.4601  2.0152  0.9708
   77SOPE   H6S 6851   7.049   3.951  -0.726  1.7235  0.6448  2.2649
   77SOPE   C27 6852   7.167   3.854  -0.892 -0.3560 -0.3042  0.1281
   77SOPE   H7R 6853   7.243   3.935  -0.881 -0.4896 -0.0478 -0.7248
   77SOPE   H7S 6854   7.232   3.764  -0.895  2.9026  1.8904 -0.6105
   77SOPE   C28 6855   7.088   3.878  -1.020  0.2595  0.2634  0.4588
   77SOPE   H8R 6856   7.150   3.850  -1.108  1.8119 -1.6688  2.0821
   77SOPE   H8S 6857   7.013   3.799  -0.996  0.0671 -0.2403 -1.5700
   77SOPE   C29 6858   7.015   4.013  -1.022 -0.7936  0.3757  0.7989
   77SOPE   H91 6859   7.082   4.097  -0.997  0.8908 -0.4919 -0.5820
   77SOPE  C210 6860   6.886   4.038  -1.026  0.4943  0.2903  0.6025
   77SOPE  H101 6861   6.854   4.143  -1.022 -3.7555 -0.7391 -1.0678
   77SOPE  C211 6862   6.773   3.932  -1.037  0.1080 -0.4587  1.0047
   77SOPE  H11R 6863   6.713   3.927  -0.944 -1.6493 -0.0495 -0.0595
   77SOPE  H11S 6864   6.810   3.831  -1.067 -1.5311 -0.8995  0.2829
   77SOPE  C212 6865   6.675   3.945  -1.155 -0.6956  0.1337  0.8699
   77SOPE  H12R 6866   6.627   4.045  -1.160 -1.4895 -0.2835 -1.2636
   77SOPE  H12S 6867   6.590   3.878  -1.128 -0.9665  0.1538  0.0908
   77SOPE  C213 6868   6.729   3.910  -1.294  0.1347 -0.5965  0.1010
   77SOPE  H13R 6869   6.781   3.812  -1.284  1.9328  0.4296  1.3619
   77SOPE  H13S 6870   6.802   3.988  -1.325  1.1672 -1.7313 -0.4141
   77SOPE  C214 6871   6.610   3.917  -1.392  0.3831  0.6985  0.5525
   77SOPE  H14R 6872   6.533   3.991  -1.363  0.7182  0.8288  1.1211
   77SOPE  H14S 6873   6.553   3.821  -1.395  1.7877 -0.1985  1.3911
   77SOPE  C215 6874   6.660   3.969  -1.534  0.7214 -0.3943 -0.4748
   77SOPE  H15R 6875   6.583   3.942  -1.610 -0.2003 -1.9992  0.9673
   77SOPE  H15S 6876   6.756   3.915  -1.549  2.6131  2.6035  0.0615
   77SOPE  C216 6877   6.692   4.120  -1.545  0.8097  0.5122 -0.7323
   77SOPE  H16R 6878   6.791   4.138  -1.497  0.1576 -2.7146  2.2867
   77SOPE  H16S 6879   6.616   4.180  -1.491  0.8053  1.1816 -1.4639
   77SOPE  C217 6880   6.687   4.177  -1.691  0.2044  0.7064 -0.3172
   77SOPE  H17R 6881   6.582   4.206  -1.712 -0.3576 -0.8454  0.1354
   77SOPE  H17S 6882   6.714   4.097  -1.763 -1.9123 -0.3680 -0.0198
   77SOPE  C218 6883   6.780   4.297  -1.711  0.0925 -0.2862 -0.3780
   77SOPE  H18R 6884   6.762   4.376  -1.635 -0.1996 -0.5904 -0.1252
   77SOPE  H18S 6885   6.771   4.347  -1.810 -1.4868  1.6757  0.6774
   77SOPE  H18T 6886   6.882   4.258  -1.694  0.4711  1.3786  1.5453
   77SOPE   C33 6887   6.833   4.330  -0.678 -0.0756 -0.3890  0.8738
   77SOPE   H3X 6888   6.912   4.359  -0.605 -1.5832 -0.3561  2.5454
   77SOPE   H3Y 6889   6.751   4.402  -0.659 -2.5744 -2.4901 -1.2004
   77SOPE   C34 6890   6.881   4.338  -0.826  0.5091 -0.3488 -0.3417
   77SOPE   H4X 6891   6.787   4.303  -0.873 -0.7030  2.0687  0.1022
   77SOPE   H4Y 6892   6.971   4.273  -0.829  0.9980  0.2890  0.1518
   77SOPE   C35 6893   6.901   4.478  -0.877 -1.0873  0.2405  0.6328
   77SOPE   H5X 6894   6.971   4.533  -0.812 -0.7642  2.0555 -1.1533
   77SOPE   H5Y 6895   6.802   4.529  -0.883 -2.4074 -2.3014 -1.2182
   77SOPE   C36 6896   6.969   4.483  -1.020  0.1024 -0.3568 -0.1643
   77SOPE   H6X 6897   7.042   4.400  -1.006 -0.7944 -0.6478  4.3377
   77SOPE   H6Y 6898   7.028   4.577  -1.026  1.1442 -1.0708 -1.8595
   77SOPE   C37 6899   6.869   4.458  -1.134  0.4335 -0.0973  0.1091
   77SOPE   H7X 6900   6.797   4.539  -1.158 -1.3959 -2.1327 -1.7349
   77SOPE   H7Y 6901   6.815   4.365  -1.107  0.1697  0.2343  0.7359
   77SOPE   C38 6902   6.937   4.428  -1.274  0.4084  0.2462  0.1171
   77SOPE   H8X 6903   6.991   4.523  -1.295  0.6185  0.8810  3.0896
   77SOPE   H8Y 6904   6.865   4.417  -1.357  0.7527 -2.1788  0.0831
   77SOPE   C39 6905   7.032   4.310  -1.262 -0.4365  0.4313  0.0965
   77SOPE   H9X 6906   6.975   4.229  -1.212 -0.5146  0.2231 -0.3218
   77SOPE   H9Y 6907   7.119   4.342  -1.200  0.6679  0.6882 -1.5249
   77SOPE  C310 6908   7.083   4.267  -1.404 -0.1994  0.5579 -0.6675
   77SOPE  H10X 6909   7.132   4.354  -1.452 -0.7137  1.0283 -0.3422
   77SOPE  H10Y 6910   6.997   4.271  -1.473 -0.2189 -1.0343 -0.7844
   77SOPE  C311 6911   7.143   4.126  -1.407  0.1883  0.2397  0.3269
   77SOPE  H11X 6912   7.073   4.047  -1.370 -1.1239  1.1734 -0.0978
   77SOPE  H11Y 6913   7.226   4.128  -1.333 -0.6495  0.9217  1.2686
   77SOPE  C312 6914   7.178   4.079  -1.551  0.5541  0.4352 -0.2979
   77SOPE  H12X 6915   7.085   4.088  -1.612 -0.4084  1.7049  1.2732
   77SOPE  H12Y 6916   7.217   3.976  -1.553  0.7528  0.5083 -0.1688
   77SOPE  C313 6917   7.285   4.168  -1.623 -0.1188 -0.3497 -0.3441
   77SOPE  H13X 6918   7.361   4.201  -1.549  0.7936  1.1024 -1.8447
   77SOPE  H13Y 6919   7.236   4.264  -1.650  1.8199  0.8995  0.4276
   77SOPE  C314 6920   7.344   4.108  -1.749 -0.0473  0.3865 -0.0738
   77SOPE  H14X 6921   7.273   4.079  -1.830 -0.5345  1.8626 -0.2121
   77SOPE  H14Y 6922   7.411   4.022  -1.732 -2.2323 -1.2265  0.7791
   77SOPE  C315 6923   7.437   4.212  -1.811 -0.0175 -0.2141  0.1108
   77SOPE  H15X 6924   7.528   4.221  -1.748  1.4158 -0.8166 -1.7768
   77SOPE  H15Y 6925   7.390   4.312  -1.820 -1.8384 -1.0756 -0.3815
   77SOPE  C316 6926   7.480   4.168  -1.948 -0.0394 -0.4671  0.3451
   77SOPE  H16X 6927   7.394   4.182  -2.017  0.6352  1.5233 -0.1265
   77SOPE  H16Y 6928   7.514   4.062  -1.944 -0.6376 -0.6318  1.6388
   77SOPE  C317 6929   7.589   4.258  -2.001  0.0882  0.9513 -0.3827
   77SOPE  H17X 6930   7.680   4.251  -1.938 -0.6149  0.1080  0.5615
   77SOPE  H17Y 6931   7.546   4.360  -2.002 -0.3364  0.9577  3.6735
   77SOPE  C318 6932   7.627   4.209  -2.141  0.5854  0.4988  0.4999
   77SOPE  H18X 6933   7.550   4.236  -2.216  3.0838  0.5636 -2.2415
   77SOPE  H18Y 6934   7.652   4.102  -2.157  1.7223  0.8108  0.0618
   77SOPE  H18Z 6935   7.719   4.263  -2.172  0.5810 -0.0667 -0.5535
   78SOPE     N 6936   5.202   0.432   0.196  0.5047 -0.2026  0.2101
   78SOPE   HN1 6937   5.186   0.389   0.103 -1.1011  2.0718 -0.6645
   78SOPE   HN2 6938   5.152   0.523   0.199  3.2648  1.6376 -2.7501
   78SOPE   HN3 6939   5.303   0.452   0.214  0.6631 -1.8053  1.3681
   78SOPE   C12 6940   5.141   0.345   0.300 -0.3564 -0.0198  0.0150
   78SOPE  H12A 6941   5.159   0.388   0.402  0.6542  0.6302 -0.4216
   78SOPE  H12B 6942   5.211   0.259   0.301  0.7682  0.8415  2.1832
   78SOPE   C11 6943   4.997   0.318   0.265  0.0655 -0.1989  0.4709
   78SOPE  H11A 6944   4.965   0.231   0.325  2.6864 -0.4235  1.6822
   78SOPE  H11B 6945   4.986   0.302   0.155  1.7107  1.3412  0.0309
   78SOPE     P 6946   4.888   0.573   0.252 -0.0487  0.3830  0.5402
   78SOPE   O13 6947   5.022   0.632   0.234  0.6978 -0.2035 -0.0657
   78SOPE   O14 6948   4.799   0.650   0.337  0.2128  0.5847  0.3842
   78SOPE   O12 6949   4.911   0.425   0.307  0.3101  0.5851 -0.0052
   78SOPE   O11 6950   4.822   0.546   0.106 -0.2450  0.4431 -0.0715
   78SOPE    C1 6951   4.700   0.467   0.099 -0.3937  0.3142 -0.6331
   78SOPE    HA 6952   4.612   0.530   0.126 -0.8519  0.0123 -1.3907
   78SOPE    HB 6953   4.710   0.373   0.159 -2.1411  0.6651  0.2627
   78SOPE    C2 6954   4.688   0.424  -0.052 -0.2115  0.6078 -0.7989
   78SOPE    HS 6955   4.780   0.368  -0.080 -1.3135 -0.7193 -1.9017
   78SOPE   O21 6956   4.657   0.542  -0.121 -0.4241 -0.0497  0.0729
   78SOPE   C21 6957   4.763   0.595  -0.184 -0.1003  0.4370 -0.8307
   78SOPE   O22 6958   4.879   0.553  -0.187 -0.1798 -0.2808 -0.4414
   78SOPE   C22 6959   4.719   0.706  -0.272  0.8057  0.6018 -0.2228
   78SOPE   H2R 6960   4.732   0.796  -0.209 -1.4857  1.2102 -0.5227
   78SOPE   H2S 6961   4.612   0.690  -0.296  1.0412  0.0249 -0.9315
   78SOPE    C3 6962   4.573   0.324  -0.071 -0.0127  0.6463 -0.2256
   78SOPE    HX 6963   4.482   0.386  -0.062  1.3463  2.6516  0.3239
   78SOPE    HY 6964   4.569   0.237  -0.002  0.0300  0.4652 -0.4487
   78SOPE   O31 6965   4.567   0.289  -0.210 -0.5927  0.0185  0.0062
   78SOPE   C31 6966   4.665   0.206  -0.235 -0.0077 -0.0557 -0.4209
   78SOPE   O32 6967   4.738   0.144  -0.159 -0.5812 -0.0289 -0.4574
   78SOPE   C32 6968   4.656   0.184  -0.382  0.2862 -0.2880  0.0518
   78SOPE   H2X 6969   4.553   0.195  -0.422  0.3068 -2.4259 -0.6685
   78SOPE   H2Y 6970   4.693   0.083  -0.407 -1.7570 -1.0414 -0.1164
   78SOPE   C23 6971   4.788   0.704  -0.407  0.0723  0.5308  0.8059
   78SOPE   H3R 6972   4.787   0.596  -0.433  0.1660  0.3399  1.5512
   78SOPE   H3S 6973   4.894   0.738  -0.403  0.1531  1.1535 -2.9815
   78SOPE   C24 6974   4.711   0.782  -0.512 -0.0217 -0.4991 -0.2316
   78SOPE   H4R 6975   4.603   0.758  -0.500  0.2343 -2.0445 -0.7787
   78SOPE   H4S 6976   4.714   0.892  -0.501  0.0799 -0.6860  2.0635
   78SOPE   C25 6977   4.761   0.737  -0.645 -0.3617 -0.0550  0.4065
   78SOPE   H5R 6978   4.866   0.775  -0.648 -0.4372  0.1096 -1.0206
   78SOPE   H5S 6979   4.763   0.627  -0.654  1.0511 -0.0309  0.1827
   78SOPE   C26 6980   4.691   0.795  -0.768 -0.3688  0.2150 -0.0808
   78SOPE   H6R 6981   4.585   0.762  -0.758 -0.4263  0.6289  0.7458
   78SOPE   H6S 6982   4.694   0.905  -0.759  0.1205  0.2391 -0.5112
   78SOPE   C27 6983   4.737   0.747  -0.903 -0.8630  1.1707  0.6055
   78SOPE   H7R 6984   4.732   0.636  -0.908 -0.1206  1.1021  1.1730
   78SOPE   H7S 6985   4.669   0.786  -0.982 -1.1263 -0.5151 -0.0426
   78SOPE   C28 6986   4.878   0.801  -0.940 -0.0083 -0.3261  0.4009
   78SOPE   H8R 6987   4.870   0.911  -0.940 -1.4871 -0.4058  0.1614
   78SOPE   H8S 6988   4.942   0.777  -0.852 -0.3592 -2.5572  0.1241
   78SOPE   C29 6989   4.939   0.737  -1.064 -0.2021 -0.3975  0.3295
   78SOPE   H91 6990   5.004   0.652  -1.041  0.2528 -0.4105 -0.9175
   78SOPE  C210 6991   4.927   0.775  -1.193 -0.3198  0.0418 -0.3401
   78SOPE  H101 6992   4.981   0.712  -1.265  2.5424  0.2526  1.4825
   78SOPE  C211 6993   4.830   0.880  -1.251 -0.0902  0.2368  0.0998
   78SOPE  H11R 6994   4.887   0.953  -1.312  0.9313  0.7631  1.6110
   78SOPE  H11S 6995   4.788   0.943  -1.169  1.2413  1.0608  0.1665
   78SOPE  C212 6996   4.719   0.817  -1.333  1.0754 -0.5527 -0.6814
   78SOPE  H12R 6997   4.643   0.894  -1.362 -0.6070 -2.1229 -0.6103
   78SOPE  H12S 6998   4.662   0.747  -1.269 -0.0488  0.7790 -0.1525
   78SOPE  C213 6999   4.753   0.751  -1.467 -1.1039 -0.1124 -0.1375
   78SOPE  H13R 7000   4.668   0.698  -1.513 -0.9196  0.2786 -0.9548
   78SOPE  H13S 7001   4.844   0.689  -1.450  1.5197  3.7793  1.9269
   78SOPE  C214 7002   4.800   0.857  -1.575 -0.2411 -0.3635  0.4577
   78SOPE  H14R 7003   4.891   0.901  -1.530 -0.8904  1.2014  0.2956
   78SOPE  H14S 7004   4.727   0.941  -1.575 -1.1185 -1.1090  0.3461
   78SOPE  C215 7005   4.839   0.805  -1.714 -0.3439  0.0195  0.0024
   78SOPE  H15R 7006   4.890   0.707  -1.703 -0.3779  0.1897  2.0081
   78SOPE  H15S 7007   4.906   0.874  -1.769 -1.9559  0.8947 -0.9682
   78SOPE  C216 7008   4.709   0.779  -1.794  1.0809 -0.6938  0.3898
   78SOPE  H16R 7009   4.679   0.876  -1.839  0.4156 -1.1592 -0.1843
   78SOPE  H16S 7010   4.631   0.761  -1.717 -0.1060 -0.1174 -0.6412
   78SOPE  C217 7011   4.724   0.665  -1.893  0.7418 -0.4950 -0.3149
   78SOPE  H17R 7012   4.622   0.646  -1.933 -0.0496  1.8341  0.4409
   78SOPE  H17S 7013   4.757   0.583  -1.825 -1.5714  0.2530  1.8594
   78SOPE  C218 7014   4.831   0.693  -1.998  0.0098 -0.0583  0.1439
   78SOPE  H18R 7015   4.838   0.625  -2.086  3.4064 -2.5702  2.1011
   78SOPE  H18S 7016   4.927   0.693  -1.941 -0.3461 -0.0450  0.7530
   78SOPE  H18T 7017   4.816   0.793  -2.044 -0.4339  0.4246  1.3156
   78SOPE   C33 7018   4.741   0.279  -0.463 -0.2048  0.0808 -0.0746
   78SOPE   H3X 7019   4.844   0.293  -0.423 -0.0454 -0.5071 -0.2774
   78SOPE   H3Y 7020   4.694   0.379  -0.445 -2.5338 -0.8738 -0.5138
   78SOPE   C34 7021   4.745   0.252  -0.609  0.9346  0.4508 -0.0797
   78SOPE   H4X 7022   4.642   0.244  -0.651  1.0283 -2.2293 -0.0092
   78SOPE   H4Y 7023   4.781   0.149  -0.632 -0.8392 -0.7448  2.0954
   78SOPE   C35 7024   4.828   0.355  -0.692 -0.4890  0.0172 -0.4503
   78SOPE   H5X 7025   4.919   0.375  -0.631  0.9537 -3.1949 -1.3596
   78SOPE   H5Y 7026   4.772   0.448  -0.715  0.8224  0.9981  0.1669
   78SOPE   C36 7027   4.872   0.308  -0.828  0.1575 -0.0661  0.0670
   78SOPE   H6X 7028   4.936   0.219  -0.811 -0.0700 -0.0330  1.2124
   78SOPE   H6Y 7029   4.935   0.385  -0.875  2.5757 -2.4686 -0.8534
   78SOPE   C37 7030   4.753   0.256  -0.901  0.0665  0.8112 -0.4747
   78SOPE   H7X 7031   4.678   0.338  -0.903  0.8310  1.5115 -0.7542
   78SOPE   H7Y 7032   4.696   0.171  -0.857  1.6892  0.4012  0.9271
   78SOPE   C38 7033   4.778   0.220  -1.052  0.0534 -0.0157 -0.2000
   78SOPE   H8X 7034   4.681   0.219  -1.105  0.1517  2.6423 -0.5986
   78SOPE   H8Y 7035   4.826   0.120  -1.058 -0.9600 -0.5702  0.6530
   78SOPE   C39 7036   4.874   0.314  -1.116 -0.4274  0.3064 -0.8875
   78SOPE   H9X 7037   4.976   0.284  -1.084 -0.3630 -1.0672 -2.2898
   78SOPE   H9Y 7038   4.857   0.415  -1.072 -1.3039  0.0599 -0.6256
   78SOPE  C310 7039   4.875   0.312  -1.264 -0.0493 -0.1965  0.3853
   78SOPE  H10X 7040   4.942   0.395  -1.293 -0.3306 -0.3455 -0.7308
   78SOPE  H10Y 7041   4.776   0.355  -1.292  0.4442  1.4584  1.0415
   78SOPE  C311 7042   4.879   0.178  -1.335  0.1892 -0.0383  0.1219
   78SOPE  H11X 7043   4.796   0.112  -1.301  2.1015 -2.6704  0.0294
   78SOPE  H11Y 7044   4.977   0.139  -1.301 -0.3090 -0.6913  0.8570
   78SOPE  C312 7045   4.858   0.197  -1.487 -0.3536  0.1877 -0.6221
   78SOPE  H12X 7046   4.893   0.301  -1.508 -1.6100  0.6307 -0.6169
   78SOPE  H12Y 7047   4.753   0.178  -1.517  0.0511 -1.7133 -0.9514
   78SOPE  C313 7048   4.954   0.098  -1.563  0.0758  0.1645 -0.4384
   78SOPE  H13X 7049   4.912  -0.003  -1.543  0.1627  0.3825  0.9306
   78SOPE  H13Y 7050   5.054   0.091  -1.516  0.2803 -2.2621 -1.0880
   78SOPE  C314 7051   4.980   0.144  -1.700  0.2716 -0.0671 -0.1447
   78SOPE  H14X 7052   5.038   0.066  -1.754  1.7313 -0.5703  2.0469
   78SOPE  H14Y 7053   5.025   0.246  -1.706 -1.7754  0.9608  0.8822
   78SOPE  C315 7054   4.845   0.172  -1.781 -0.3960  0.6349 -0.1670
   78SOPE  H15X 7055   4.782   0.245  -1.726  0.3134  0.9919  0.1912
   78SOPE  H15Y 7056   4.796   0.073  -1.771 -3.4106  2.0687  0.1393
   78SOPE  C316 7057   4.864   0.207  -1.929 -0.0703 -0.3625  0.2465
   78SOPE  H16X 7058   4.946   0.144  -1.971  0.3820 -0.8310  1.7766
   78SOPE  H16Y 7059   4.904   0.310  -1.935  0.0116 -0.4569 -3.1196
   78SOPE  C317 7060   4.744   0.202  -2.022 -0.3196 -0.5319  0.1536
   78SOPE  H17X 7061   4.688   0.114  -1.985  0.6379 -0.3608  2.1181
   78SOPE  H17Y 7062   4.768   0.197  -2.131 -1.7602 -0.9085 -0.1651
   78SOPE  C318 7063   4.644   0.320  -2.003 -0.0389 -0.4155 -0.3947
   78SOPE  H18X 7064   4.582   0.317  -1.911  0.0604 -0.7803 -0.3378
   78SOPE  H18Y 7065   4.573   0.332  -2.088 -0.3980 -0.1769 -0.0644
   78SOPE  H18Z 7066   4.710   0.410  -2.001 -1.2421  0.5081 -1.0036
   79SOPE     N 7067   0.436   0.989   0.006  0.7202  0.4153  0.9174
   79SOPE   HN1 7068   0.370   0.913  -0.019 -2.3341  3.0897  0.2061
   79SOPE   HN2 7069   0.392   1.067  -0.046 -1.2601 -2.6789 -2.4922
   79SOPE   HN3 7070   0.524   0.972  -0.046 -0.3161 -1.6157 -0.2870
   79SOPE   C12 7071   0.452   0.997   0.155  0.2414  0.1090  0.5004
   79SOPE  H12A 7072   0.349   1.010   0.194 -0.2374  0.5012 -0.8479
   79SOPE  H12B 7073   0.517   1.085   0.178 -1.1674  1.4964 -0.6207
   79SOPE   C11 7074   0.518   0.866   0.212 -0.6964  0.1804 -0.3113
   79SOPE  H11A 7075   0.508   0.891   0.320  1.2583  0.0544 -0.0624
   79SOPE  H11B 7076   0.628   0.859   0.196 -0.2630  1.3210  1.6988
   79SOPE     P 7077   0.491   0.611   0.148 -0.1073  0.2290  0.1620
   79SOPE   O13 7078   0.380   0.518   0.111  0.3066  0.0514  0.2036
   79SOPE   O14 7079   0.586   0.573   0.256  0.0928  0.3057 -0.4419
   79SOPE   O12 7080   0.436   0.755   0.173 -0.0701 -0.1698  0.3399
   79SOPE   O11 7081   0.572   0.643   0.018 -0.3912 -0.3706 -0.3828
   79SOPE    C1 7082   0.666   0.538  -0.030 -0.2202  0.1300 -0.8441
   79SOPE    HA 7083   0.662   0.444   0.029 -0.9666  1.5000  1.4157
   79SOPE    HB 7084   0.767   0.584  -0.025 -0.4197  0.4306  0.9176
   79SOPE    C2 7085   0.636   0.509  -0.177  0.2816  0.2877 -0.5669
   79SOPE    HS 7086   0.649   0.606  -0.230 -1.0496  0.1851 -1.1267
   79SOPE   O21 7087   0.500   0.456  -0.193 -0.9451  0.3195 -0.1659
   79SOPE   C21 7088   0.399   0.537  -0.215  0.5082  0.6422  0.8260
   79SOPE   O22 7089   0.400   0.660  -0.217 -0.6196  0.8986  0.0200
   79SOPE   C22 7090   0.281   0.446  -0.250 -0.7555 -0.4083  0.0367
   79SOPE   H2R 7091   0.242   0.409  -0.153 -0.5211  0.4634  0.4739
   79SOPE   H2S 7092   0.326   0.358  -0.300  0.7214 -0.7538  1.8315
   79SOPE    C3 7093   0.728   0.399  -0.234  0.0388  0.3479 -0.0234
   79SOPE    HX 7094   0.704   0.303  -0.183 -1.2178  1.8649  2.4487
   79SOPE    HY 7095   0.831   0.423  -0.199  1.4030 -1.9454 -2.1279
   79SOPE   O31 7096   0.705   0.392  -0.380 -0.1094  0.8694 -0.1223
   79SOPE   C31 7097   0.784   0.454  -0.456  0.9162 -0.0326 -0.1052
   79SOPE   O32 7098   0.888   0.514  -0.429 -0.7604  0.3647  0.0092
   79SOPE   C32 7099   0.717   0.461  -0.604 -0.9209 -0.1325 -0.0210
   79SOPE   H2X 7100   0.763   0.554  -0.643  1.0583  0.0280  2.4176
   79SOPE   H2Y 7101   0.608   0.472  -0.589 -0.7891  1.0521  0.1369
   79SOPE   C23 7102   0.172   0.522  -0.322  0.5717 -0.7421  0.1745
   79SOPE   H3R 7103   0.180   0.633  -0.324 -0.7300 -0.6264  0.5614
   79SOPE   H3S 7104   0.077   0.504  -0.267 -0.8788  2.6348 -0.9804
   79SOPE   C24 7105   0.179   0.474  -0.470  0.1063  0.8937 -0.8456
   79SOPE   H4R 7106   0.182   0.364  -0.484 -1.0857  0.6813  0.4166
   79SOPE   H4S 7107   0.087   0.503  -0.525 -0.1489  1.3643 -0.1790
   79SOPE   C25 7108   0.287   0.545  -0.551 -0.0825 -0.5163 -0.7128
   79SOPE   H5R 7109   0.244   0.646  -0.569  0.1142  0.0586  1.7023
   79SOPE   H5S 7110   0.378   0.546  -0.488 -1.1014 -1.1047  0.8362
   79SOPE   C26 7111   0.311   0.467  -0.677 -1.5260  0.3284  0.4988
   79SOPE   H6R 7112   0.403   0.508  -0.725 -2.9223  0.3476 -2.4257
   79SOPE   H6S 7113   0.325   0.358  -0.660  1.3939  0.9251  2.6896
   79SOPE   C27 7114   0.203   0.476  -0.783  0.0255  0.1659  0.0218
   79SOPE   H7R 7115   0.108   0.448  -0.733  0.1410 -2.4247 -1.0033
   79SOPE   H7S 7116   0.194   0.584  -0.807  1.9182  0.7691  1.7959
   79SOPE   C28 7117   0.218   0.387  -0.912 -0.0575  0.4608  0.3166
   79SOPE   H8R 7118   0.200   0.279  -0.894 -0.6594  0.5222  0.1351
   79SOPE   H8S 7119   0.136   0.407  -0.984  0.2209 -1.0914 -0.4801
   79SOPE   C29 7120   0.351   0.417  -0.984  0.1566  0.4099  0.9620
   79SOPE   H91 7121   0.419   0.333  -0.963  0.0699  0.5392  1.7957
   79SOPE  C210 7122   0.370   0.505  -1.081  0.5683  0.4935  0.0480
   79SOPE  H101 7123   0.469   0.513  -1.127  0.4288 -0.9996 -0.5742
   79SOPE  C211 7124   0.267   0.605  -1.129  0.4651  0.3348  0.4484
   79SOPE  H11R 7125   0.281   0.700  -1.073 -0.3273  0.3363  0.6564
   79SOPE  H11S 7126   0.165   0.564  -1.115  0.0593  1.7550  1.9500
   79SOPE  C212 7127   0.260   0.635  -1.277  0.9146 -0.4641 -0.2291
   79SOPE  H12R 7128   0.351   0.680  -1.322 -0.1093  0.4213 -1.4938
   79SOPE  H12S 7129   0.189   0.718  -1.296 -1.6738 -2.1724  1.3475
   79SOPE  C213 7130   0.226   0.516  -1.366 -0.1714  0.2853 -0.1128
   79SOPE  H13R 7131   0.125   0.473  -1.351 -0.8201  1.1829 -1.6628
   79SOPE  H13S 7132   0.305   0.441  -1.340 -1.0979 -0.6910 -0.0339
   79SOPE  C214 7133   0.238   0.542  -1.515 -0.7376 -0.2141  0.2089
   79SOPE  H14R 7134   0.211   0.648  -1.536 -0.6147 -0.1653  0.2890
   79SOPE  H14S 7135   0.180   0.462  -1.564 -1.2591 -0.6371  1.4854
   79SOPE  C215 7136   0.386   0.511  -1.568 -0.0778  0.2936 -0.0138
   79SOPE  H15R 7137   0.414   0.406  -1.542  3.1624  0.5196 -1.9675
   79SOPE  H15S 7138   0.449   0.576  -1.503 -0.9118  1.9226 -0.7951
   79SOPE  C216 7139   0.418   0.528  -1.718  0.2301  0.1248  0.0663
   79SOPE  H16R 7140   0.361   0.462  -1.786  2.1737 -0.1329 -1.3729
   79SOPE  H16S 7141   0.526   0.507  -1.729  0.0449 -1.1249  0.4497
   79SOPE  C217 7142   0.381   0.669  -1.764  0.5203 -0.1296 -0.1061
   79SOPE  H17R 7143   0.431   0.734  -1.689  0.4449  0.6032 -0.6811
   79SOPE  H17S 7144   0.272   0.681  -1.748  0.2773 -2.2306  0.0572
   79SOPE  C218 7145   0.398   0.711  -1.904 -0.4520 -0.4208  0.1539
   79SOPE  H18R 7146   0.352   0.808  -1.932 -0.6807 -0.5464  0.0934
   79SOPE  H18S 7147   0.369   0.633  -1.977 -0.7138  0.0497 -0.2520
   79SOPE  H18T 7148   0.508   0.723  -1.919 -0.4445  0.0029  0.5027
   79SOPE   C33 7149   0.768   0.342  -0.686  0.3865  0.0763 -0.3019
   79SOPE   H3X 7150   0.738   0.256  -0.622  1.9089  0.2647  0.7165
   79SOPE   H3Y 7151   0.879   0.330  -0.688  0.3810  0.1040 -0.8376
   79SOPE   C34 7152   0.701   0.329  -0.824  0.2715  0.0891 -0.7277
   79SOPE   H4X 7153   0.593   0.349  -0.806  0.8892  2.2915  1.1853
   79SOPE   H4Y 7154   0.716   0.226  -0.861 -0.8697  0.2371 -1.6241
   79SOPE   C35 7155   0.751   0.429  -0.931  0.3014  0.1246 -0.3250
   79SOPE   H5X 7156   0.700   0.526  -0.912  0.5896  0.7209 -2.3232
   79SOPE   H5Y 7157   0.707   0.397  -1.029 -0.9361 -0.7772  0.4842
   79SOPE   C36 7158   0.898   0.454  -0.942  0.5033 -0.4941 -0.1791
   79SOPE   H6X 7159   0.953   0.363  -0.912  1.3618  0.0817  0.0147
   79SOPE   H6Y 7160   0.923   0.533  -0.868  2.8432  1.1640 -2.5501
   79SOPE   C37 7161   0.934   0.515  -1.075 -0.4904  1.1213 -0.2661
   79SOPE   H7X 7162   0.865   0.597  -1.105 -0.3845  0.8317 -1.3483
   79SOPE   H7Y 7163   0.918   0.434  -1.150 -0.9526  0.0238  0.9709
   79SOPE   C38 7164   1.073   0.573  -1.078 -0.0841 -0.6157  0.3027
   79SOPE   H8X 7165   1.133   0.482  -1.101 -1.4594 -1.6163  0.6016
   79SOPE   H8Y 7166   1.099   0.625  -0.984 -0.5834  0.8499 -0.3459
   79SOPE   C39 7167   1.090   0.666  -1.198 -0.9389 -0.6145  0.6211
   79SOPE   H9X 7168   1.006   0.739  -1.197  0.1204  0.6974 -1.1144
   79SOPE   H9Y 7169   1.074   0.611  -1.293  0.6862  1.4510 -0.9451
   79SOPE  C310 7170   1.221   0.736  -1.202  0.9714  0.5988 -0.0012
   79SOPE  H10X 7171   1.223   0.797  -1.109  0.9263 -1.7124  1.6188
   79SOPE  H10Y 7172   1.237   0.799  -1.292 -0.7876  0.8837 -0.1535
   79SOPE  C311 7173   1.345   0.645  -1.178  0.8656  0.1525 -0.5368
   79SOPE  H11X 7174   1.338   0.557  -1.247 -0.5517 -0.0712 -0.1231
   79SOPE  H11Y 7175   1.330   0.617  -1.072 -1.5805  1.6985 -0.4025
   79SOPE  C312 7176   1.468   0.730  -1.192  0.5561 -0.0920 -0.1196
   79SOPE  H12X 7177   1.473   0.769  -1.296 -1.0899  0.0356 -0.1752
   79SOPE  H12Y 7178   1.557   0.667  -1.173  0.0916 -0.9180 -0.6175
   79SOPE  C313 7179   1.486   0.852  -1.095  0.3207  0.1483 -0.4466
   79SOPE  H13X 7180   1.413   0.926  -1.134  0.3231 -0.7209 -2.1896
   79SOPE  H13Y 7181   1.590   0.888  -1.113  0.2812  0.7131  0.4105
   79SOPE  C314 7182   1.459   0.814  -0.944 -0.8073  0.2524  0.4097
   79SOPE  H14X 7183   1.354   0.781  -0.930 -0.2807 -1.4070  0.7035
   79SOPE  H14Y 7184   1.477   0.903  -0.880  3.0851 -0.3527  0.3811
   79SOPE  C315 7185   1.552   0.701  -0.894  1.1013 -0.3003  0.5584
   79SOPE  H15X 7186   1.552   0.618  -0.968 -0.0215 -0.2950  0.5275
   79SOPE  H15Y 7187   1.507   0.654  -0.804 -0.3924 -0.0183 -0.0047
   79SOPE  C316 7188   1.695   0.741  -0.861  0.3190  0.2840  0.0409
   79SOPE  H16X 7189   1.732   0.810  -0.939 -2.4754 -1.2748 -2.9423
   79SOPE  H16Y 7190   1.756   0.649  -0.870 -1.4534 -0.7808 -2.1869
   79SOPE  C317 7191   1.704   0.804  -0.711 -0.1002 -0.6294  0.7303
   79SOPE  H17X 7192   1.679   0.722  -0.640  0.8952 -0.2566  1.5346
   79SOPE  H17Y 7193   1.638   0.893  -0.703  0.1068 -0.5242  1.3093
   79SOPE  C318 7194   1.848   0.842  -0.685 -0.2675  0.0843 -0.1917
   79SOPE  H18X 7195   1.858   0.893  -0.587  0.5871  0.7010 -0.5852
   79SOPE  H18Y 7196   1.883   0.915  -0.761 -0.8753  0.5450 -0.0263
   79SOPE  H18Z 7197   1.911   0.750  -0.693  1.2029  0.9281  1.1267
   80SOPE     N 7198   6.351   1.994   0.361 -0.3160 -0.8384 -0.1781
   80SOPE   HN1 7199   6.264   1.995   0.303  0.4302  1.5879 -1.3972
   80SOPE   HN2 7200   6.378   1.900   0.395  1.3948 -0.0619  0.7043
   80SOPE   HN3 7201   6.321   2.034   0.452 -1.1825 -0.7171 -0.5017
   80SOPE   C12 7202   6.451   2.096   0.304 -0.3797  0.3313 -0.1528
   80SOPE  H12A 7203   6.540   2.096   0.371 -0.1668 -2.3438 -0.3275
   80SOPE  H12B 7204   6.404   2.196   0.304 -1.7769 -0.3115 -0.2620
   80SOPE   C11 7205   6.492   2.053   0.162 -0.1020 -0.1592 -0.4464
   80SOPE  H11A 7206   6.552   2.133   0.114  0.1434  1.3040  2.0915
   80SOPE  H11B 7207   6.401   2.049   0.098  0.4772  1.7623 -1.4788
   80SOPE     P 7208   6.712   1.904   0.148 -0.7627  0.0475 -0.2325
   80SOPE   O13 7209   6.743   1.775   0.207  0.3820 -0.4291 -0.2207
   80SOPE   O14 7210   6.780   2.013   0.214  0.0523  0.0375  0.2269
   80SOPE   O12 7211   6.555   1.923   0.164 -0.2975 -0.0841  0.1851
   80SOPE   O11 7212   6.738   1.901  -0.012 -0.6657 -0.6961 -0.8680
   80SOPE    C1 7213   6.714   1.790  -0.100 -0.2122 -0.1676  0.1453
   80SOPE    HA 7214   6.679   1.816  -0.202 -1.0558  1.1562  0.7374
   80SOPE    HB 7215   6.623   1.739  -0.063 -0.0519  0.2267  1.1404
   80SOPE    C2 7216   6.837   1.689  -0.104 -0.9004  0.5684  0.6615
   80SOPE    HS 7217   6.865   1.690   0.003  3.0098 -0.5432 -0.1859
   80SOPE   O21 7218   6.943   1.754  -0.170  0.1167  0.0974 -0.5056
   80SOPE   C21 7219   7.065   1.712  -0.137 -0.5035  0.1011  0.2811
   80SOPE   O22 7220   7.088   1.619  -0.062  0.4541  0.1274 -0.2394
   80SOPE   C22 7221   7.164   1.801  -0.195 -0.3046 -0.1785  0.1170
   80SOPE   H2R 7222   7.247   1.808  -0.121  0.2402  0.7911 -0.5640
   80SOPE   H2S 7223   7.119   1.900  -0.217 -0.1860  0.1591  1.3288
   80SOPE    C3 7224   6.806   1.544  -0.155 -0.4571 -0.3832 -0.6536
   80SOPE    HX 7225   6.737   1.496  -0.083 -2.8557  2.3139 -0.9878
   80SOPE    HY 7226   6.906   1.496  -0.147  0.2186  0.8095 -1.6061
   80SOPE   O31 7227   6.745   1.548  -0.286 -0.3710  0.2039 -0.8874
   80SOPE   C31 7228   6.800   1.470  -0.374  0.1455 -0.0054 -0.2511
   80SOPE   O32 7229   6.874   1.380  -0.344  0.7596 -0.3129 -0.6174
   80SOPE   C32 7230   6.742   1.491  -0.513  0.2705 -1.1698  0.5606
   80SOPE   H2X 7231   6.769   1.595  -0.540 -1.8731 -0.6211  0.3316
   80SOPE   H2Y 7232   6.631   1.499  -0.517  0.3878  0.0575 -1.2362
   80SOPE   C23 7233   7.236   1.742  -0.326  0.6753 -0.3349 -0.7104
   80SOPE   H3R 7234   7.272   1.639  -0.305  1.2692  0.3811  2.2074
   80SOPE   H3S 7235   7.314   1.821  -0.339  0.3088  0.3885  1.2279
   80SOPE   C24 7236   7.150   1.737  -0.454 -0.4177  0.2525 -0.3414
   80SOPE   H4R 7237   7.044   1.723  -0.421 -0.8120  0.5362 -1.4270
   80SOPE   H4S 7238   7.147   1.834  -0.508 -0.9817  0.7507  0.5514
   80SOPE   C25 7239   7.200   1.633  -0.553  0.0209 -0.2458 -0.2782
   80SOPE   H5R 7240   7.311   1.623  -0.550 -0.0344 -2.3402 -2.2455
   80SOPE   H5S 7241   7.172   1.527  -0.532  1.6565 -1.5786 -4.0250
   80SOPE   C26 7242   7.153   1.658  -0.692 -0.3569  0.1516  0.7689
   80SOPE   H6R 7243   7.048   1.627  -0.706  0.0957 -1.1837  0.1829
   80SOPE   H6S 7244   7.138   1.766  -0.714  2.5635  0.3600 -0.7346
   80SOPE   C27 7245   7.242   1.583  -0.793  0.1239 -1.0159 -1.0223
   80SOPE   H7R 7246   7.342   1.624  -0.770 -0.7259  1.0140 -0.7203
   80SOPE   H7S 7247   7.236   1.475  -0.768 -1.1707 -0.5249  1.0345
   80SOPE   C28 7248   7.218   1.613  -0.943 -0.6539 -0.2139 -0.5166
   80SOPE   H8R 7249   7.210   1.724  -0.946  1.6692  0.0876  1.3637
   80SOPE   H8S 7250   7.302   1.580  -1.007 -0.4086  2.3141 -1.5969
   80SOPE   C29 7251   7.088   1.562  -0.986 -0.6452  0.3426  0.3730
   80SOPE   H91 7252   7.056   1.472  -0.932  1.7125 -1.9939 -1.7947
   80SOPE  C210 7253   7.019   1.593  -1.103 -0.1924 -0.3221 -0.0862
   80SOPE  H101 7254   6.924   1.546  -1.134 -0.1781 -0.5891  0.2634
   80SOPE  C211 7255   7.057   1.701  -1.202 -0.1992 -0.2290  0.6434
   80SOPE  H11R 7256   7.125   1.781  -1.167 -0.2329  0.4169 -0.6760
   80SOPE  H11S 7257   6.967   1.756  -1.236 -0.5399 -1.1479  0.0033
   80SOPE  C212 7258   7.131   1.647  -1.335  0.1864 -0.3709 -0.7926
   80SOPE  H12R 7259   7.232   1.602  -1.320  0.4508  0.3866 -0.2145
   80SOPE  H12S 7260   7.148   1.740  -1.393 -1.3414  0.4711  0.0521
   80SOPE  C213 7261   7.058   1.546  -1.421 -0.4593 -0.3317 -0.5939
   80SOPE  H13R 7262   6.966   1.594  -1.461  0.8769  0.7226 -2.5630
   80SOPE  H13S 7263   7.023   1.456  -1.367 -0.4070 -0.0979 -0.1674
   80SOPE  C214 7264   7.140   1.506  -1.542 -0.5732  0.5395 -0.2297
   80SOPE  H14R 7265   7.079   1.441  -1.609 -1.7346  2.0734 -0.7018
   80SOPE  H14S 7266   7.232   1.454  -1.506 -0.8983  0.0681 -0.0656
   80SOPE  C215 7267   7.188   1.619  -1.631 -0.2948 -0.2155 -0.6628
   80SOPE  H15R 7268   7.255   1.674  -1.561 -1.5954 -0.7857  1.1338
   80SOPE  H15S 7269   7.109   1.694  -1.656 -1.1963  0.0468  2.4858
   80SOPE  C216 7270   7.271   1.574  -1.752 -1.0395  0.4165  0.0602
   80SOPE  H16R 7271   7.219   1.506  -1.823  1.0129 -2.4227  1.1121
   80SOPE  H16S 7272   7.354   1.518  -1.704 -0.0662  2.0915  0.4311
   80SOPE  C217 7273   7.327   1.689  -1.828 -0.1094 -0.9956  0.4788
   80SOPE  H17R 7274   7.415   1.734  -1.779  1.2051  0.3355 -2.8179
   80SOPE  H17S 7275   7.242   1.760  -1.829 -0.9527 -1.9537 -0.9947
   80SOPE  C218 7276   7.357   1.645  -1.975  0.3165 -0.0831 -0.4883
   80SOPE  H18R 7277   7.446   1.578  -1.975  0.3911 -0.0224 -2.5919
   80SOPE  H18S 7278   7.398   1.729  -2.034  1.7009  0.5120  1.2123
   80SOPE  H18T 7279   7.271   1.596  -2.025  0.4582 -0.9622  0.0896
   80SOPE   C33 7280   6.808   1.400  -0.619  0.0784 -0.8387  0.1319
   80SOPE   H3X 7281   6.791   1.295  -0.586 -0.3009 -1.5614 -2.1433
   80SOPE   H3Y 7282   6.917   1.418  -0.620 -0.0402 -0.0402  0.5732
   80SOPE   C34 7283   6.739   1.431  -0.759  1.0204 -0.0952 -0.1948
   80SOPE   H4X 7284   6.733   1.540  -0.776 -2.2722  0.1818  1.9523
   80SOPE   H4Y 7285   6.634   1.398  -0.745  0.4207  2.7208  3.3839
   80SOPE   C35 7286   6.798   1.348  -0.878  0.0542 -0.4672 -0.3347
   80SOPE   H5X 7287   6.790   1.239  -0.859  3.1049 -0.5813  0.7924
   80SOPE   H5Y 7288   6.906   1.368  -0.890  0.3931 -1.7320  0.5232
   80SOPE   C36 7289   6.716   1.382  -1.000  0.2675 -0.8866  0.1827
   80SOPE   H6X 7290   6.729   1.490  -1.024  1.0665 -1.0100  0.0144
   80SOPE   H6Y 7291   6.607   1.365  -0.988  0.1487 -0.2098  0.1042
   80SOPE   C37 7292   6.767   1.303  -1.128 -0.5377  0.0432 -0.4780
   80SOPE   H7X 7293   6.769   1.193  -1.114  0.9075  0.3127  2.2997
   80SOPE   H7Y 7294   6.867   1.348  -1.147 -1.1868  1.2363 -1.1474
   80SOPE   C38 7295   6.678   1.316  -1.246 -0.3500  0.7355 -0.0673
   80SOPE   H8X 7296   6.669   1.423  -1.275  0.1571  1.3818  1.9558
   80SOPE   H8Y 7297   6.578   1.277  -1.219  0.0214 -0.4650 -0.3938
   80SOPE   C39 7298   6.738   1.263  -1.378 -0.1983  0.4824  0.8431
   80SOPE   H9X 7299   6.834   1.314  -1.402 -0.1019 -0.2341 -0.4134
   80SOPE   H9Y 7300   6.671   1.297  -1.460 -0.2090 -0.8568  0.2777
   80SOPE  C310 7301   6.761   1.111  -1.395  0.1631 -0.3121  0.4533
   80SOPE  H10X 7302   6.660   1.073  -1.368  0.1723  0.7023  2.0289
   80SOPE  H10Y 7303   6.823   1.064  -1.315  1.7043 -0.2986 -0.6994
   80SOPE  C311 7304   6.812   1.072  -1.529 -0.2317  0.3833  0.3599
   80SOPE  H11X 7305   6.906   1.130  -1.542 -0.8878  2.1335  2.6205
   80SOPE  H11Y 7306   6.747   1.099  -1.615 -2.4357 -0.4748  1.6743
   80SOPE  C312 7307   6.833   0.917  -1.543 -0.0250 -0.4178  0.6197
   80SOPE  H12X 7308   6.759   0.869  -1.475  1.8633 -0.6039  2.6429
   80SOPE  H12Y 7309   6.931   0.892  -1.496  0.2037  1.4255  1.2316
   80SOPE  C313 7310   6.838   0.875  -1.692 -0.1945  0.5171 -0.6439
   80SOPE  H13X 7311   6.922   0.929  -1.740 -1.1878  1.3786 -1.4784
   80SOPE  H13Y 7312   6.743   0.909  -1.739 -0.8084 -0.3707 -0.0676
   80SOPE  C314 7313   6.843   0.725  -1.706  0.2401  0.0420 -0.0750
   80SOPE  H14X 7314   6.764   0.679  -1.644  1.1934 -1.1489  0.3153
   80SOPE  H14Y 7315   6.932   0.670  -1.667  1.2773  1.9079  0.2889
   80SOPE  C315 7316   6.811   0.693  -1.856  0.0336 -0.6982 -0.4598
   80SOPE  H15X 7317   6.906   0.712  -1.910  1.4975 -4.1532  0.5946
   80SOPE  H15Y 7318   6.722   0.749  -1.893 -0.5780 -2.1998 -1.3580
   80SOPE  C316 7319   6.766   0.550  -1.890  0.0593  0.7623 -0.4562
   80SOPE  H16X 7320   6.710   0.541  -1.986  0.9524  0.7941 -0.9866
   80SOPE  H16Y 7321   6.695   0.523  -1.809 -0.4784  2.6236 -0.2615
   80SOPE  C317 7322   6.877   0.445  -1.906 -0.3674 -0.1404 -0.3983
   80SOPE  H17X 7323   6.839   0.342  -1.925  3.1056 -1.4331 -1.0484
   80SOPE  H17Y 7324   6.935   0.436  -1.811 -0.0099 -1.9102 -0.7476
   80SOPE  C318 7325   6.970   0.475  -2.023 -0.3235 -0.6001  0.2492
   80SOPE  H18X 7326   7.034   0.386  -2.038 -0.3723 -0.4063 -1.1978
   80SOPE  H18Y 7327   7.025   0.571  -2.016 -0.1600 -0.5123 -1.6941
   80SOPE  H18Z 7328   6.906   0.475  -2.114 -0.8563 -0.3157  0.6144
   81SOPE     N 7329   4.063   3.990   0.265  0.0632 -0.0682 -0.0045
   81SOPE   HN1 7330   4.072   3.988   0.369 -2.5204 -1.3205  0.2865
   81SOPE   HN2 7331   4.043   3.895   0.229 -0.6829  0.4696 -1.0766
   81SOPE   HN3 7332   4.136   4.038   0.209 -2.0131  1.6262 -1.4376
   81SOPE   C12 7333   3.935   4.065   0.239 -0.5982 -0.1147  0.1241
   81SOPE  H12A 7334   3.906   4.037   0.136  1.0117 -2.4726  0.2208
   81SOPE  H12B 7335   3.946   4.175   0.248  1.7368 -0.3809  1.4262
   81SOPE   C11 7336   3.823   4.022   0.336  0.3673  0.1439  0.7100
   81SOPE  H11A 7337   3.724   4.055   0.300  0.8264  2.1240  1.1526
   81SOPE  H11B 7338   3.838   4.079   0.430  1.7335  0.6613  0.1978
   81SOPE     P 7339   3.699   3.779   0.346 -0.0320  0.3430 -0.0672
   81SOPE   O13 7340   3.586   3.824   0.432 -0.3829  0.0922  0.3357
   81SOPE   O14 7341   3.748   3.646   0.382 -0.7440  0.2756 -0.0625
   81SOPE   O12 7342   3.817   3.880   0.362 -0.0458  0.0332 -0.0705
   81SOPE   O11 7343   3.668   3.780   0.187 -0.3207  0.0462  0.0880
   81SOPE    C1 7344   3.768   3.755   0.092  0.2281  0.4118 -0.7498
   81SOPE    HA 7345   3.815   3.658   0.119 -3.2143 -0.9388  1.0276
   81SOPE    HB 7346   3.848   3.832   0.090  0.6963 -0.0769 -1.8415
   81SOPE    C2 7347   3.707   3.745  -0.057  0.1818  0.3475 -0.3407
   81SOPE    HS 7348   3.793   3.731  -0.125 -0.7370  1.8753 -1.8877
   81SOPE   O21 7349   3.635   3.862  -0.099 -0.2185  0.2051 -0.3570
   81SOPE   C21 7350   3.714   3.963  -0.133  0.3303  0.4439 -0.9345
   81SOPE   O22 7351   3.834   3.965  -0.135 -0.0110 -0.4442 -0.4547
   81SOPE   C22 7352   3.627   4.090  -0.170  0.5438  0.3532  0.1641
   81SOPE   H2R 7353   3.652   4.149  -0.080 -0.3244  2.9771 -1.2059
   81SOPE   H2S 7354   3.519   4.065  -0.159  0.4961  0.7921  0.7276
   81SOPE    C3 7355   3.603   3.625  -0.060  0.6521 -0.0360  0.4113
   81SOPE    HX 7356   3.528   3.638   0.021  1.6199  1.8611  1.0557
   81SOPE    HY 7357   3.665   3.538  -0.029  1.1579 -0.0578 -0.6139
   81SOPE   O31 7358   3.564   3.605  -0.195  0.1555  0.7032  0.1807
   81SOPE   C31 7359   3.451   3.670  -0.232 -0.0066 -0.1671 -0.6233
   81SOPE   O32 7360   3.385   3.740  -0.149 -0.2565  0.2238 -0.5064
   81SOPE   C32 7361   3.423   3.650  -0.368  0.3149 -0.1852  0.1936
   81SOPE   H2X 7362   3.354   3.730  -0.402 -1.5596 -1.4541  0.8507
   81SOPE   H2Y 7363   3.360   3.558  -0.369 -0.1939  0.0792  2.7127
   81SOPE   C23 7364   3.668   4.174  -0.287 -0.0279  0.1270 -0.0118
   81SOPE   H3R 7365   3.778   4.181  -0.299  0.1861 -1.8975  0.4252
   81SOPE   H3S 7366   3.623   4.275  -0.276  1.6616  0.8016  1.2232
   81SOPE   C24 7367   3.619   4.123  -0.423 -0.6181  0.3505 -0.2165
   81SOPE   H4R 7368   3.650   4.016  -0.431 -0.7229 -0.0983  3.4924
   81SOPE   H4S 7369   3.509   4.121  -0.416 -0.5287 -1.9548  1.9296
   81SOPE   C25 7370   3.661   4.190  -0.556 -0.5515  0.4372  0.5161
   81SOPE   H5R 7371   3.652   4.299  -0.534  1.3358  0.5174  1.0615
   81SOPE   H5S 7372   3.764   4.166  -0.588 -1.4073 -1.4070 -1.0676
   81SOPE   C26 7373   3.560   4.159  -0.668  0.4807  0.3600 -0.0986
   81SOPE   H6R 7374   3.557   4.048  -0.674 -0.3519  0.3564  0.1825
   81SOPE   H6S 7375   3.455   4.190  -0.649  0.3316 -1.6175  3.0669
   81SOPE   C27 7376   3.628   4.198  -0.806 -0.2060  0.6054  0.2218
   81SOPE   H7R 7377   3.715   4.131  -0.823 -0.6072  0.3517 -0.8871
   81SOPE   H7S 7378   3.554   4.163  -0.881  1.1724 -0.2913 -0.7678
   81SOPE   C28 7379   3.648   4.347  -0.824 -0.2610 -0.1528 -0.1196
   81SOPE   H8R 7380   3.716   4.388  -0.746  0.5692  1.1293 -1.4708
   81SOPE   H8S 7381   3.706   4.364  -0.918  1.6221 -1.4044  0.7443
   81SOPE   C29 7382   3.515   4.421  -0.823  0.2720  0.2005  0.6113
   81SOPE   H91 7383   3.463   4.424  -0.726  3.1027 -2.4078  2.4192
   81SOPE  C210 7384   3.440   4.464  -0.934 -0.0900  0.1091 -0.4983
   81SOPE  H101 7385   3.354   4.528  -0.914  1.0257  1.1872  1.0807
   81SOPE  C211 7386   3.482   4.456  -1.078 -0.3514 -0.1130  0.4529
   81SOPE  H11R 7387   3.592   4.440  -1.089 -0.3455  1.6242 -3.4840
   81SOPE  H11S 7388   3.465   4.550  -1.134 -1.7781  0.4411  1.7632
   81SOPE  C212 7389   3.411   4.340  -1.153 -0.2488 -0.4525 -0.0873
   81SOPE  H12R 7390   3.302   4.359  -1.161 -0.4022 -0.3673  1.8848
   81SOPE  H12S 7391   3.436   4.252  -1.090  1.9158 -0.0346 -0.2939
   81SOPE  C213 7392   3.473   4.321  -1.290 -0.3723  0.3746 -0.0806
   81SOPE  H13R 7393   3.583   4.313  -1.285 -0.1537  2.2299 -1.1799
   81SOPE  H13S 7394   3.461   4.424  -1.329  0.1312  0.9275  1.1509
   81SOPE  C214 7395   3.424   4.215  -1.387  0.1820 -0.9267 -0.0216
   81SOPE  H14R 7396   3.314   4.206  -1.385 -0.0235  1.1747 -0.3659
   81SOPE  H14S 7397   3.439   4.119  -1.332 -1.0536 -0.1695  1.7074
   81SOPE  C215 7398   3.486   4.198  -1.523 -0.5508 -0.1957  1.3229
   81SOPE  H15R 7399   3.593   4.168  -1.518  0.0523  0.7670 -2.5453
   81SOPE  H15S 7400   3.480   4.293  -1.580  1.1488 -0.2224  1.0548
   81SOPE  C216 7401   3.410   4.096  -1.614 -0.5358 -0.5777 -0.0751
   81SOPE  H16R 7402   3.306   4.125  -1.643 -0.5230  0.6614  1.0733
   81SOPE  H16S 7403   3.388   4.010  -1.546 -3.0431 -0.0160 -0.0858
   81SOPE  C217 7404   3.485   4.051  -1.743 -0.0985  0.0694 -0.6557
   81SOPE  H17R 7405   3.592   4.038  -1.715 -1.3728 -1.9123  4.2399
   81SOPE  H17S 7406   3.461   4.124  -1.824 -0.1812 -0.0536 -0.7420
   81SOPE  C218 7407   3.446   3.905  -1.786  0.3690  0.5820 -0.3449
   81SOPE  H18R 7408   3.466   3.820  -1.717 -0.8865 -1.7866 -2.7241
   81SOPE  H18S 7409   3.510   3.872  -1.870  1.9472 -2.1719  1.7358
   81SOPE  H18T 7410   3.339   3.901  -1.815 -0.5427 -1.1683  2.7595
   81SOPE   C33 7411   3.536   3.648  -0.482 -0.2830 -0.3474  0.1331
   81SOPE   H3X 7412   3.614   3.570  -0.467 -0.6736 -0.6506  0.6302
   81SOPE   H3Y 7413   3.584   3.747  -0.492 -2.2805  0.6186 -0.3459
   81SOPE   C34 7414   3.459   3.615  -0.615  0.9892  0.7429 -0.1496
   81SOPE   H4X 7415   3.354   3.653  -0.609  0.3750 -0.7899 -0.6629
   81SOPE   H4Y 7416   3.457   3.506  -0.634 -0.5622  0.5077  1.1376
   81SOPE   C35 7417   3.514   3.686  -0.738 -0.3983 -0.3088  0.2032
   81SOPE   H5X 7418   3.622   3.667  -0.753 -0.5893 -1.4154  0.1641
   81SOPE   H5Y 7419   3.503   3.795  -0.722  0.0317 -0.2054 -0.2010
   81SOPE   C36 7420   3.444   3.630  -0.862 -0.3042  0.4859  0.4593
   81SOPE   H6X 7421   3.336   3.630  -0.833 -0.2487  0.3301  0.6708
   81SOPE   H6Y 7422   3.473   3.528  -0.895  1.0639  1.1070 -0.3768
   81SOPE   C37 7423   3.443   3.725  -0.982 -0.3464 -0.6524  0.6595
   81SOPE   H7X 7424   3.397   3.818  -0.942 -0.7322 -1.6792  2.7485
   81SOPE   H7Y 7425   3.372   3.695  -1.063  0.0497  0.0305  0.0478
   81SOPE   C38 7426   3.581   3.739  -1.041 -0.9483 -0.0345 -0.2467
   81SOPE   H8X 7427   3.618   3.651  -1.098 -1.2972 -0.1804 -0.2538
   81SOPE   H8Y 7428   3.649   3.756  -0.955 -0.2144  0.2424 -0.8726
   81SOPE   C39 7429   3.593   3.864  -1.138  0.4861 -0.4140 -0.7749
   81SOPE   H9X 7430   3.565   3.947  -1.070  0.3889 -0.2804 -0.9774
   81SOPE   H9Y 7431   3.525   3.846  -1.224 -2.1056 -0.4309  1.1464
   81SOPE  C310 7432   3.731   3.894  -1.201 -0.3491  0.2003 -0.4513
   81SOPE  H10X 7433   3.788   3.804  -1.169 -1.9250 -0.1879  1.4326
   81SOPE  H10Y 7434   3.782   3.984  -1.161  2.6497 -1.1531 -0.9138
   81SOPE  C311 7435   3.717   3.891  -1.350 -0.8410 -0.3044  0.2152
   81SOPE  H11X 7436   3.655   3.980  -1.374 -0.4009  0.2731  1.1312
   81SOPE  H11Y 7437   3.652   3.812  -1.392 -1.1290  0.0334  0.0240
   81SOPE  C312 7438   3.847   3.900  -1.430 -0.0175 -0.0045  0.7123
   81SOPE  H12X 7439   3.913   3.810  -1.436  0.2932  0.2362  0.4731
   81SOPE  H12Y 7440   3.908   3.969  -1.369 -0.0545  0.4535  0.2370
   81SOPE  C313 7441   3.823   3.949  -1.571 -0.1283 -0.8908 -0.8747
   81SOPE  H13X 7442   3.911   4.006  -1.608 -1.4747  1.5158 -0.5944
   81SOPE  H13Y 7443   3.741   4.025  -1.574  0.7748  0.1172 -0.5896
   81SOPE  C314 7444   3.786   3.839  -1.666 -0.5066 -0.4982  0.2648
   81SOPE  H14X 7445   3.759   3.879  -1.766  2.1454 -1.5229 -0.9618
   81SOPE  H14Y 7446   3.697   3.788  -1.625  0.0836 -0.0661  2.2232
   81SOPE  C315 7447   3.902   3.747  -1.699 -0.2118 -0.6008  0.3359
   81SOPE  H15X 7448   3.939   3.697  -1.607 -0.8110 -0.8765  0.4332
   81SOPE  H15Y 7449   3.988   3.789  -1.755 -0.4673  1.4968  1.4349
   81SOPE  C316 7450   3.861   3.637  -1.792  0.0673  0.6631 -0.3681
   81SOPE  H16X 7451   3.776   3.573  -1.757  0.1841 -0.2751 -1.7276
   81SOPE  H16Y 7452   3.945   3.566  -1.805  1.9938  2.5746  0.9667
   81SOPE  C317 7453   3.829   3.677  -1.936 -0.2588 -0.3772  0.7889
   81SOPE  H17X 7454   3.921   3.733  -1.962 -0.8154  0.3002  0.2439
   81SOPE  H17Y 7455   3.737   3.738  -1.939  1.2046  1.8898 -0.2741
   81SOPE  C318 7456   3.822   3.575  -2.044  0.1893  0.9162  0.7196
   81SOPE  H18X 7457   3.747   3.496  -2.020  0.3837  0.4586 -0.1408
   81SOPE  H18Y 7458   3.918   3.522  -2.065 -0.5722 -0.0003 -0.5940
   81SOPE  H18Z 7459   3.787   3.634  -2.132  1.3812 -0.2550 -0.5854
   82SOPE     N 7460   6.847   4.274   0.139  0.3127  0.4149 -0.4729
   82SOPE   HN1 7461   6.948   4.247   0.141 -0.5885 -3.8184 -2.2849
   82SOPE   HN2 7462   6.825   4.337   0.219 -1.0952  1.2744 -1.4983
   82SOPE   HN3 7463   6.795   4.188   0.166  0.1905  1.6666  4.1659
   82SOPE   C12 7464   6.798   4.323   0.011  0.3606  0.3047  0.2129
   82SOPE  H12A 7465   6.832   4.251  -0.066  1.5971  1.3342 -0.2452
   82SOPE  H12B 7466   6.855   4.415  -0.013  1.2408 -0.0361  0.9483
   82SOPE   C11 7467   6.643   4.339   0.017 -0.1460 -0.0129  0.5816
   82SOPE  H11A 7468   6.584   4.247   0.038 -0.6214  0.1145 -0.1395
   82SOPE  H11B 7469   6.611   4.373  -0.084 -1.8410  2.4122  1.8456
   82SOPE     P 7470   6.452   4.433   0.172 -0.0562  0.4582  0.3185
   82SOPE   O13 7471   6.437   4.536   0.276  0.0135 -0.2933 -0.2895
   82SOPE   O14 7472   6.423   4.296   0.206  0.2134 -0.1550  0.0513
   82SOPE   O12 7473   6.601   4.432   0.124  0.0919 -0.0585  0.1667
   82SOPE   O11 7474   6.379   4.473   0.038 -0.6638  0.2683  0.2378
   82SOPE    C1 7475   6.272   4.571   0.035 -0.1206  0.5508  0.4846
   82SOPE    HA 7476   6.305   4.673   0.006  1.3688  0.3000  1.1781
   82SOPE    HB 7477   6.224   4.575   0.135 -1.9593 -0.1408 -0.3276
   82SOPE    C2 7478   6.165   4.507  -0.056  0.2198 -0.0240  0.3354
   82SOPE    HS 7479   6.141   4.409  -0.009 -1.5696  0.8449  1.3953
   82SOPE   O21 7480   6.207   4.490  -0.191  0.1668  0.1774  0.1123
   82SOPE   C21 7481   6.138   4.398  -0.255  0.2747  0.1126  0.2585
   82SOPE   O22 7482   6.058   4.331  -0.202  0.3560  0.1708  0.3380
   82SOPE   C22 7483   6.171   4.395  -0.403 -0.4846  0.0441  0.0605
   82SOPE   H2R 7484   6.229   4.487  -0.424 -2.6501  1.6092  0.5699
   82SOPE   H2S 7485   6.070   4.400  -0.450 -0.6836 -0.3948  0.4440
   82SOPE    C3 7486   6.031   4.587  -0.048 -0.3595 -0.1031  0.0192
   82SOPE    HX 7487   6.022   4.592   0.063  2.0203  0.6982  0.2210
   82SOPE    HY 7488   5.945   4.542  -0.101 -0.4558  1.0478 -0.8450
   82SOPE   O31 7489   6.060   4.716  -0.096  0.2452  0.2731 -0.4834
   82SOPE   C31 7490   6.036   4.729  -0.236 -0.2173  1.1094 -0.4514
   82SOPE   O32 7491   5.996   4.642  -0.312  0.8500 -0.0668 -0.9213
   82SOPE   C32 7492   6.081   4.865  -0.274 -0.0585 -0.5243  0.3951
   82SOPE   H2X 7493   6.161   4.858  -0.351 -1.3540  1.7675 -1.2520
   82SOPE   H2Y 7494   6.120   4.918  -0.184 -2.3254 -0.3314  1.3361
   82SOPE   C23 7495   6.242   4.270  -0.455  0.3216  0.2250 -0.3244
   82SOPE   H3R 7496   6.179   4.179  -0.454  0.2111  0.2199  2.4498
   82SOPE   H3S 7497   6.323   4.246  -0.382 -0.4431  0.4154  0.6178
   82SOPE   C24 7498   6.284   4.281  -0.602  0.2461  0.1958 -0.3901
   82SOPE   H4R 7499   6.330   4.187  -0.639 -0.4158 -0.1745 -0.2840
   82SOPE   H4S 7500   6.194   4.308  -0.661  1.1991  1.0583 -1.4652
   82SOPE   C25 7501   6.379   4.400  -0.629 -0.0366 -0.1177  0.8194
   82SOPE   H5R 7502   6.332   4.500  -0.615  0.7828  0.7671 -2.0602
   82SOPE   H5S 7503   6.476   4.383  -0.579  0.6930 -1.5123 -0.9691
   82SOPE   C26 7504   6.422   4.394  -0.777  0.2804  0.2014  0.0932
   82SOPE   H6R 7505   6.495   4.312  -0.796  1.2732  1.3565 -1.2322
   82SOPE   H6S 7506   6.328   4.381  -0.834  1.0719 -2.7960 -0.7151
   82SOPE   C27 7507   6.490   4.521  -0.821 -0.1130 -0.4623  0.4332
   82SOPE   H7R 7508   6.428   4.608  -0.790 -1.7832 -1.0877 -1.0016
   82SOPE   H7S 7509   6.586   4.522  -0.765 -0.3399  1.7310  0.8473
   82SOPE   C28 7510   6.527   4.526  -0.971  0.8174  0.9645 -0.2911
   82SOPE   H8R 7511   6.585   4.617  -0.996 -0.7513  2.0965  0.0560
   82SOPE   H8S 7512   6.573   4.430  -1.003 -2.0063  0.2003 -2.4342
   82SOPE   C29 7513   6.395   4.541  -1.047  0.3680 -0.7426  0.0351
   82SOPE   H91 7514   6.329   4.622  -1.014 -0.2678 -1.8069  1.4790
   82SOPE  C210 7515   6.351   4.469  -1.155  0.1432  0.2070 -0.4114
   82SOPE  H101 7516   6.245   4.481  -1.182 -0.5275 -1.3228  1.3148
   82SOPE  C211 7517   6.418   4.347  -1.223 -0.4538  0.4329  0.2011
   82SOPE  H11R 7518   6.519   4.332  -1.179 -0.2198 -1.7456 -0.8993
   82SOPE  H11S 7519   6.441   4.362  -1.331  0.2312 -3.0722 -0.2745
   82SOPE  C212 7520   6.348   4.210  -1.211  0.1909  0.6642  0.0367
   82SOPE  H12R 7521   6.404   4.134  -1.269 -1.3748 -1.9397  1.7080
   82SOPE  H12S 7522   6.243   4.220  -1.247 -0.2201  2.7454  1.6148
   82SOPE  C213 7523   6.323   4.170  -1.066  0.0122 -0.1909  0.7036
   82SOPE  H13R 7524   6.229   4.217  -1.030 -0.0483  1.0618 -0.9291
   82SOPE  H13S 7525   6.403   4.220  -1.008 -2.1960  3.7449  0.7077
   82SOPE  C214 7526   6.316   4.015  -1.048 -0.1892 -0.1128 -0.4559
   82SOPE  H14R 7527   6.391   3.957  -1.106 -0.5954 -0.6887 -0.4029
   82SOPE  H14S 7528   6.226   3.977  -1.100 -1.4257  0.8167  0.9451
   82SOPE  C215 7529   6.315   3.968  -0.905 -0.0461  0.0538  0.4715
   82SOPE  H15R 7530   6.242   3.884  -0.906 -0.5321  0.3360 -3.8300
   82SOPE  H15S 7531   6.281   4.051  -0.839  0.1848 -1.7969  3.1048
   82SOPE  C216 7532   6.463   3.942  -0.854  0.2189 -0.7664  0.7171
   82SOPE  H16R 7533   6.519   4.036  -0.877 -0.3163 -0.3663  1.0162
   82SOPE  H16S 7534   6.499   3.865  -0.925  0.2945 -0.4952  0.4599
   82SOPE  C217 7535   6.459   3.899  -0.707 -0.0638 -0.7358  0.8671
   82SOPE  H17R 7536   6.374   3.830  -0.688 -0.5545 -0.2644  0.4479
   82SOPE  H17S 7537   6.434   3.981  -0.636 -3.2786  0.4317 -1.3802
   82SOPE  C218 7538   6.579   3.813  -0.669  0.2838 -0.4863 -0.1422
   82SOPE  H18R 7539   6.602   3.805  -0.561  1.0566  2.2958 -0.0411
   82SOPE  H18S 7540   6.664   3.844  -0.734  1.4055 -1.7562  0.6538
   82SOPE  H18T 7541   6.547   3.713  -0.707 -1.7487 -0.1022  0.4940
   82SOPE   C33 7542   5.970   4.951  -0.340  0.1053 -0.0303  0.8693
   82SOPE   H3X 7543   5.911   4.984  -0.252 -1.4198 -3.5955  1.3502
   82SOPE   H3Y 7544   5.903   4.884  -0.397 -0.4896  0.6190  0.7870
   82SOPE   C34 7545   6.010   5.066  -0.431  0.4829 -0.0443  0.2584
   82SOPE   H4X 7546   5.923   5.120  -0.473  0.6773 -0.9050 -1.3367
   82SOPE   H4Y 7547   6.075   5.041  -0.518 -2.1607  0.4358 -1.9719
   82SOPE   C35 7548   6.078   5.175  -0.343  0.3210  0.2377 -0.6113
   82SOPE   H5X 7549   6.154   5.131  -0.275  2.4069  1.3191 -2.1367
   82SOPE   H5Y 7550   6.002   5.219  -0.275  1.2758  1.2827 -0.1899
   82SOPE   C36 7551   6.147   5.285  -0.410 -0.2782  0.0075 -0.1153
   82SOPE   H6X 7552   6.220   5.234  -0.477 -1.9835  1.0799 -2.9474
   82SOPE   H6Y 7553   6.189   5.350  -0.330  0.5562  1.0454 -1.3658
   82SOPE   C37 7554   6.058   5.374  -0.489  0.3546 -0.6177  0.0197
   82SOPE   H7X 7555   5.962   5.383  -0.435  1.7339 -1.6712  2.8143
   82SOPE   H7Y 7556   6.031   5.325  -0.586 -1.5873 -1.0856  0.7562
   82SOPE   C38 7557   6.112   5.516  -0.520 -0.3769  0.2679  0.2196
   82SOPE   H8X 7558   6.196   5.507  -0.593  0.1824 -0.6467  0.9479
   82SOPE   H8Y 7559   6.152   5.549  -0.421 -2.0991 -1.0444  1.4174
   82SOPE   C39 7560   5.999   5.605  -0.572 -0.0402 -0.5951  0.5107
   82SOPE   H9X 7561   6.038   5.706  -0.594 -1.0815 -0.6768 -2.0861
   82SOPE   H9Y 7562   5.909   5.609  -0.506 -0.9274  0.8255 -0.7092
   82SOPE  C310 7563   5.950   5.564  -0.711  0.1300 -0.2888  0.3121
   82SOPE  H10X 7564   5.840   5.556  -0.724  0.0637  1.3827 -0.4866
   82SOPE  H10Y 7565   5.991   5.466  -0.743 -0.9041 -0.2101 -1.4335
   82SOPE  C311 7566   5.993   5.663  -0.821  0.3472  0.0098 -0.6413
   82SOPE  H11X 7567   6.096   5.693  -0.792 -0.1918 -0.0096  1.4950
   82SOPE  H11Y 7568   5.941   5.761  -0.828  0.5693  0.0078 -2.9582
   82SOPE  C312 7569   5.980   5.607  -0.962 -0.3386 -0.5174 -0.3222
   82SOPE  H12X 7570   5.996   5.497  -0.971 -1.8236 -0.6165 -2.5881
   82SOPE  H12Y 7571   6.061   5.646  -1.027 -1.0288 -1.2598 -1.6691
   82SOPE  C313 7572   5.837   5.638  -1.026  0.5108 -0.7427  0.1526
   82SOPE  H13X 7573   5.803   5.744  -1.023 -0.5001 -0.8687 -3.0450
   82SOPE  H13Y 7574   5.770   5.567  -0.974  0.3482 -1.6917 -1.3025
   82SOPE  C314 7575   5.824   5.594  -1.175 -0.1067  0.1034 -0.4409
   82SOPE  H14X 7576   5.877   5.671  -1.235  1.4680  1.3739  2.3928
   82SOPE  H14Y 7577   5.714   5.590  -1.195 -0.5402 -2.5876  1.8031
   82SOPE  C315 7578   5.909   5.474  -1.204 -1.0236  0.4602 -0.1636
   82SOPE  H15X 7579   5.903   5.392  -1.130  4.7721 -1.3468 -1.2099
   82SOPE  H15Y 7580   6.014   5.509  -1.205 -0.0905 -1.9700  2.1405
   82SOPE  C316 7581   5.865   5.408  -1.337  0.1429 -0.2302  0.0049
   82SOPE  H16X 7582   5.851   5.482  -1.418  0.2575  1.0291  1.1057
   82SOPE  H16Y 7583   5.766   5.360  -1.319 -0.0702  0.8344  1.9310
   82SOPE  C317 7584   5.962   5.301  -1.392  0.6635  0.6673  0.6595
   82SOPE  H17X 7585   5.929   5.278  -1.496  1.9404  0.3360  0.3005
   82SOPE  H17Y 7586   5.957   5.213  -1.324  0.5724 -0.2003 -0.4344
   82SOPE  C318 7587   6.108   5.349  -1.407  0.0792 -0.4745  0.0853
   82SOPE  H18X 7588   6.104   5.451  -1.450  0.2898 -0.6369 -0.3239
   82SOPE  H18Y 7589   6.149   5.285  -1.488  0.5840  0.3667 -0.3379
   82SOPE  H18Z 7590   6.171   5.344  -1.315 -0.4643  2.3835  0.6976
   83SOPE     N 7591   4.855   1.256   4.267  0.0604  0.0998 -0.4824
   83SOPE   HN1 7592   4.946   1.280   4.224 -0.9262  1.6524 -1.8190
   83SOPE   HN2 7593   4.838   1.158   4.235  1.7170 -0.9147  1.4970
   83SOPE   HN3 7594   4.783   1.322   4.230  0.7031  1.4493  0.5695
   83SOPE   C12 7595   4.855   1.252   4.418  0.5276 -0.4450 -0.1737
   83SOPE  H12A 7596   4.944   1.206   4.464  0.0358 -0.2181  1.0440
   83SOPE  H12B 7597   4.770   1.186   4.447  0.4296 -0.5953 -0.7966
   83SOPE   C11 7598   4.821   1.386   4.476 -0.1492  0.3011  0.0909
   83SOPE  H11A 7599   4.837   1.388   4.586 -0.9834  1.6606  0.2169
   83SOPE  H11B 7600   4.712   1.407   4.471 -0.1178  0.3649 -0.4473
   83SOPE     P 7601   5.021   1.560   4.482  0.2247 -0.4844  0.0809
   83SOPE   O13 7602   5.020   1.709   4.453  0.0484  0.3092 -0.1391
   83SOPE   O14 7603   5.140   1.490   4.442 -0.5260 -0.8671 -0.0253
   83SOPE   O12 7604   4.893   1.497   4.415 -0.2202  0.5205  0.5095
   83SOPE   O11 7605   5.013   1.536   4.643  0.1945  0.7798 -0.2925
   83SOPE    C1 7606   5.043   1.648   4.731 -0.3164  0.3336  0.4233
   83SOPE    HA 7607   4.975   1.626   4.816 -0.4932  0.2481  0.2592
   83SOPE    HB 7608   5.021   1.746   4.684  0.2946 -0.3780 -1.4560
   83SOPE    C2 7609   5.188   1.650   4.766  0.4266  0.1988 -0.0107
   83SOPE    HS 7610   5.250   1.652   4.674 -1.4126  0.3483 -1.2956
   83SOPE   O21 7611   5.215   1.518   4.815  0.3310  0.1511 -0.0479
   83SOPE   C21 7612   5.340   1.479   4.815 -0.0348 -0.0923 -0.8752
   83SOPE   O22 7613   5.442   1.541   4.784 -0.1149  0.1078  0.4795
   83SOPE   C22 7614   5.351   1.327   4.847  0.3793 -0.6279 -0.1648
   83SOPE   H2R 7615   5.366   1.288   4.744 -1.5396 -0.7802 -0.4185
   83SOPE   H2S 7616   5.251   1.286   4.872 -0.2524 -0.6341 -2.4334
   83SOPE    C3 7617   5.233   1.760   4.862  0.1470  0.5239 -0.0151
   83SOPE    HX 7618   5.222   1.860   4.816 -1.6968  0.8980  1.1373
   83SOPE    HY 7619   5.343   1.751   4.876  0.3535  1.4588 -0.8904
   83SOPE   O31 7620   5.159   1.757   4.986  0.0546  0.0135  0.1692
   83SOPE   C31 7621   5.212   1.700   5.089 -0.3122  0.0078  0.5856
   83SOPE   O32 7622   5.331   1.663   5.102  0.4787  0.1413  0.8460
   83SOPE   C32 7623   5.113   1.700   5.202 -0.7789 -0.5918  0.6043
   83SOPE   H2X 7624   5.062   1.602   5.211  1.7072 -1.7726  3.5195
   83SOPE   H2Y 7625   5.027   1.764   5.174  0.6487  0.8378 -0.7270
   83SOPE   C23 7626   5.450   1.285   4.960  0.2475 -0.1101 -0.0558
   83SOPE   H3R 7627   5.549   1.312   4.916  0.7275 -0.1874  0.9475
   83SOPE   H3S 7628   5.444   1.174   4.973  0.5500 -0.1613 -0.3358
   83SOPE   C24 7629   5.430   1.356   5.091  0.4423  0.4474  0.2491
   83SOPE   H4R 7630   5.485   1.453   5.097  0.4469  0.4587  0.0249
   83SOPE   H4S 7631   5.323   1.370   5.115  0.3578 -0.9041  0.7112
   83SOPE   C25 7632   5.484   1.264   5.198  0.4496  0.2112 -0.8087
   83SOPE   H5R 7633   5.430   1.167   5.192  0.1209  0.3770 -0.5416
   83SOPE   H5S 7634   5.593   1.251   5.179  0.4180  0.7605 -1.3941
   83SOPE   C26 7635   5.461   1.325   5.337 -0.9086  0.1338  0.6770
   83SOPE   H6R 7636   5.531   1.411   5.350  0.4960 -1.0915  1.4757
   83SOPE   H6S 7637   5.356   1.358   5.346 -0.7060  0.6530  1.2413
   83SOPE   C27 7638   5.497   1.217   5.441 -0.4738 -0.0336  0.4825
   83SOPE   H7R 7639   5.407   1.165   5.480 -1.0723  0.6054 -0.0244
   83SOPE   H7S 7640   5.551   1.138   5.384  1.3705 -0.2257  2.3974
   83SOPE   C28 7641   5.593   1.261   5.549 -0.2390 -0.7757  0.0721
   83SOPE   H8R 7642   5.694   1.279   5.506 -0.2417  0.9987  0.7348
   83SOPE   H8S 7643   5.568   1.362   5.589  0.2420 -0.7891  0.4191
   83SOPE   C29 7644   5.612   1.166   5.659 -0.3223  0.1464 -0.3497
   83SOPE   H91 7645   5.666   1.072   5.639  1.1106  1.1102 -1.2569
   83SOPE  C210 7646   5.555   1.169   5.775  0.3802 -0.1279 -0.1530
   83SOPE  H101 7647   5.571   1.078   5.835 -0.3826 -0.6557 -0.7285
   83SOPE  C211 7648   5.465   1.275   5.833 -0.1291 -0.1950  0.1810
   83SOPE  H11R 7649   5.367   1.226   5.855 -0.5666  0.2775 -0.6668
   83SOPE  H11S 7650   5.440   1.350   5.755 -0.6368 -2.5454 -2.0520
   83SOPE  C212 7651   5.517   1.338   5.966  0.2023 -0.1816  0.4728
   83SOPE  H12R 7652   5.427   1.397   5.996 -1.2701 -1.3543 -1.3692
   83SOPE  H12S 7653   5.602   1.407   5.950 -0.2606  0.3244  0.1225
   83SOPE  C213 7654   5.544   1.234   6.072  0.4522  0.5008 -0.4807
   83SOPE  H13R 7655   5.587   1.280   6.164 -0.5056 -1.1732  0.8581
   83SOPE  H13S 7656   5.618   1.163   6.029 -1.3097 -2.9196  1.6939
   83SOPE  C214 7657   5.414   1.163   6.116 -0.4050  0.9360 -0.1465
   83SOPE  H14R 7658   5.381   1.115   6.021 -2.8154  1.3392  0.4108
   83SOPE  H14S 7659   5.338   1.236   6.152 -0.8572 -0.0268  0.9143
   83SOPE  C215 7660   5.434   1.062   6.222 -0.2181 -0.4144  0.2781
   83SOPE  H15R 7661   5.428   1.120   6.317  1.3209  2.2368 -1.1225
   83SOPE  H15S 7662   5.535   1.017   6.214 -0.6976 -1.4470 -0.0986
   83SOPE  C216 7663   5.330   0.950   6.226 -0.1083  0.3202  0.1755
   83SOPE  H16R 7664   5.327   0.897   6.128 -0.5707  1.6461 -0.5562
   83SOPE  H16S 7665   5.235   1.008   6.229  0.5827  1.4737  0.2692
   83SOPE  C217 7666   5.335   0.848   6.338 -1.0060 -0.2649 -0.7602
   83SOPE  H17R 7667   5.363   0.896   6.434  0.6413  0.6823 -1.6761
   83SOPE  H17S 7668   5.424   0.784   6.323 -1.2855 -1.4603  1.9521
   83SOPE  C218 7669   5.210   0.764   6.361 -0.2217 -0.4304  0.9556
   83SOPE  H18R 7670   5.175   0.727   6.262 -0.1535 -0.3015  0.8834
   83SOPE  H18S 7671   5.129   0.825   6.407 -1.1136 -1.8218  1.3237
   83SOPE  H18T 7672   5.234   0.669   6.415 -0.2730 -1.1073 -0.1838
   83SOPE   C33 7673   5.170   1.731   5.342  0.1781  0.3774  0.7707
   83SOPE   H3X 7674   5.232   1.823   5.330  1.3928 -0.4042  0.9727
   83SOPE   H3Y 7675   5.229   1.652   5.391  1.0991 -0.9905 -2.3105
   83SOPE   C34 7676   5.047   1.768   5.423  0.5974 -0.8656  0.5972
   83SOPE   H4X 7677   4.971   1.688   5.414 -1.5606  1.0617  0.9581
   83SOPE   H4Y 7678   5.000   1.862   5.387  0.7876 -0.3679  1.6062
   83SOPE   C35 7679   5.091   1.786   5.571  0.2397 -0.0878 -0.6960
   83SOPE   H5X 7680   5.148   1.880   5.590 -0.7319  0.2759  0.5388
   83SOPE   H5Y 7681   5.168   1.710   5.596  0.8296  0.7117 -0.0107
   83SOPE   C36 7682   4.976   1.769   5.664 -0.2473  0.1205 -0.2342
   83SOPE   H6X 7683   4.914   1.679   5.645 -0.0426 -0.3476  1.2106
   83SOPE   H6Y 7684   4.903   1.851   5.650 -0.1434  0.1155 -0.8185
   83SOPE   C37 7685   5.027   1.760   5.810 -0.0818 -0.6576 -0.7013
   83SOPE   H7X 7686   5.078   1.857   5.831  1.2634 -0.9084 -2.6428
   83SOPE   H7Y 7687   5.091   1.672   5.828  1.2943  0.5528  0.5946
   83SOPE   C38 7688   4.910   1.755   5.915 -0.5499 -0.1941 -1.2505
   83SOPE   H8X 7689   4.868   1.857   5.921  1.8210  0.7651  0.3377
   83SOPE   H8Y 7690   4.958   1.715   6.007 -1.1398 -0.0139 -0.8530
   83SOPE   C39 7691   4.783   1.667   5.890 -0.3951  0.4935  0.8085
   83SOPE   H9X 7692   4.812   1.568   5.849  0.0077  0.8418  0.2314
   83SOPE   H9Y 7693   4.737   1.713   5.800  0.6418  1.0099  0.5226
   83SOPE  C310 7694   4.683   1.664   6.002 -0.6054 -0.0072 -0.1375
   83SOPE  H10X 7695   4.584   1.634   5.961  0.3035  0.0354 -2.5340
   83SOPE  H10Y 7696   4.667   1.770   6.030 -2.1787 -0.0061 -0.9332
   83SOPE  C311 7697   4.718   1.562   6.116  0.2973  0.1771  0.4416
   83SOPE  H11X 7698   4.807   1.603   6.169  1.2628  0.3416 -1.2311
   83SOPE  H11Y 7699   4.743   1.459   6.083 -1.2579 -0.0583 -0.0974
   83SOPE  C312 7700   4.615   1.549   6.227  0.2317 -0.4332  0.2789
   83SOPE  H12X 7701   4.638   1.458   6.286  1.1263 -2.3984 -2.8248
   83SOPE  H12Y 7702   4.518   1.521   6.181 -0.1439 -0.4109  1.0411
   83SOPE  C313 7703   4.584   1.672   6.303  0.4913 -0.2965 -0.0626
   83SOPE  H13X 7704   4.523   1.740   6.240  1.1781  1.1588  0.7858
   83SOPE  H13Y 7705   4.670   1.723   6.351 -0.2201  0.3093  0.5807
   83SOPE  C314 7706   4.485   1.634   6.413  0.2489 -0.5727 -0.4840
   83SOPE  H14X 7707   4.529   1.576   6.497 -0.1376  0.0139  0.1435
   83SOPE  H14Y 7708   4.412   1.564   6.367  3.3581 -2.8108 -2.3769
   83SOPE  C315 7709   4.412   1.749   6.477 -0.0983  0.4168 -0.4436
   83SOPE  H15X 7710   4.345   1.797   6.402 -0.5810 -2.6784 -2.1705
   83SOPE  H15Y 7711   4.484   1.828   6.509  0.4954  0.0075 -0.7527
   83SOPE  C316 7712   4.320   1.710   6.591 -0.1984  0.8247 -0.2958
   83SOPE  H16X 7713   4.375   1.641   6.659  1.3627 -0.3271 -2.5961
   83SOPE  H16Y 7714   4.219   1.678   6.556  0.4290  1.0460 -2.3916
   83SOPE  C317 7715   4.294   1.840   6.671 -0.3101  0.3527 -0.2004
   83SOPE  H17X 7716   4.394   1.875   6.703 -0.2201 -0.9695  1.0900
   83SOPE  H17Y 7717   4.233   1.821   6.762 -0.4002 -0.8033 -0.4930
   83SOPE  C318 7718   4.215   1.947   6.596 -0.4080  0.5374  0.2477
   83SOPE  H18X 7719   4.259   1.956   6.495  0.4994  0.5445  0.6356
   83SOPE  H18Y 7720   4.215   2.047   6.643 -0.7548  1.3937 -1.5113
   83SOPE  H18Z 7721   4.108   1.918   6.604 -0.7115  2.0072  2.2745
   84SOPE     N 7722   5.034   5.827   4.153  0.1133 -0.0058  0.1959
   84SOPE   HN1 7723   5.043   5.914   4.097  1.0003  0.0505  0.4057
   84SOPE   HN2 7724   5.038   5.763   4.071 -2.1181  0.9695 -0.7483
   84SOPE   HN3 7725   4.944   5.829   4.204  0.2226  3.3566  0.4682
   84SOPE   C12 7726   5.149   5.804   4.253 -0.3156 -0.5747  0.3470
   84SOPE  H12A 7727   5.163   5.895   4.316 -1.7237  0.9740 -1.4797
   84SOPE  H12B 7728   5.238   5.794   4.187 -1.6686 -0.7853 -1.5162
   84SOPE   C11 7729   5.128   5.682   4.341 -0.1497 -0.0468  0.4012
   84SOPE  H11A 7730   5.024   5.693   4.380 -1.5442  0.8065 -3.1239
   84SOPE  H11B 7731   5.207   5.669   4.418  0.3514 -0.2807 -0.1428
   84SOPE     P 7732   5.117   5.426   4.314 -0.2341  0.1797 -0.2695
   84SOPE   O13 7733   5.245   5.352   4.296 -0.0453 -0.2048 -0.2987
   84SOPE   O14 7734   5.002   5.357   4.250 -0.0618  0.1921  0.6207
   84SOPE   O12 7735   5.130   5.570   4.255 -0.0516  0.1943 -0.6727
   84SOPE   O11 7736   5.084   5.438   4.471 -0.2694  0.3752  0.3862
   84SOPE    C1 7737   5.145   5.362   4.575  0.7455  0.0959  0.0561
   84SOPE    HA 7738   5.143   5.412   4.674  0.8656 -2.9199  1.7148
   84SOPE    HB 7739   5.251   5.338   4.551  1.2878  1.5360  0.8666
   84SOPE    C2 7740   5.077   5.228   4.597  0.2506  0.2200 -0.4231
   84SOPE    HS 7741   5.083   5.167   4.505 -2.6147 -0.8539  0.0055
   84SOPE   O21 7742   4.937   5.250   4.628 -0.0224  0.0948 -0.0508
   84SOPE   C21 7743   4.860   5.141   4.624  0.2749 -0.5530 -0.9672
   84SOPE   O22 7744   4.904   5.032   4.601 -0.1385  0.3563  0.1600
   84SOPE   C22 7745   4.724   5.184   4.688  0.0606  0.0533 -0.3588
   84SOPE   H2R 7746   4.657   5.218   4.606 -2.1693 -1.1218  0.8686
   84SOPE   H2S 7747   4.740   5.276   4.748  2.1388 -0.4008 -0.1331
   84SOPE    C3 7748   5.144   5.157   4.723  0.2072  0.2044  0.3057
   84SOPE    HX 7749   5.251   5.147   4.694 -0.1488  1.4014 -1.5719
   84SOPE    HY 7750   5.095   5.059   4.738 -1.6280  0.7624 -1.5838
   84SOPE   O31 7751   5.129   5.235   4.845  0.2871 -0.3530  0.3325
   84SOPE   C31 7752   5.238   5.250   4.917 -0.1066 -0.4091 -0.4318
   84SOPE   O32 7753   5.336   5.179   4.911  0.1840 -0.1495 -0.0471
   84SOPE   C32 7754   5.211   5.361   5.020  0.0983  0.6515 -1.3845
   84SOPE   H2X 7755   5.101   5.376   5.021  0.0193  0.6367  1.5753
   84SOPE   H2Y 7756   5.261   5.452   4.981  2.2616  0.0568 -0.1999
   84SOPE   C23 7757   4.648   5.073   4.770  0.3804  0.0378 -0.4376
   84SOPE   H3R 7758   4.655   4.978   4.712 -0.6883  0.2574 -0.9511
   84SOPE   H3S 7759   4.539   5.094   4.769  0.1335 -1.0924 -1.8978
   84SOPE   C24 7760   4.704   5.045   4.913  0.1408  0.2189 -0.4143
   84SOPE   H4R 7761   4.653   4.952   4.945  0.9979 -0.6695 -1.5621
   84SOPE   H4S 7762   4.809   5.012   4.915 -0.7184 -2.7579 -0.0686
   84SOPE   C25 7763   4.671   5.154   5.010  0.1598 -0.2967 -0.8947
   84SOPE   H5R 7764   4.700   5.257   4.979  2.5258 -0.4578  0.5524
   84SOPE   H5S 7765   4.561   5.161   5.024  0.0446 -2.9739  0.1334
   84SOPE   C26 7766   4.730   5.122   5.144 -0.2538 -0.1623 -0.4329
   84SOPE   H6R 7767   4.688   5.030   5.189 -0.7897  1.1178  1.8423
   84SOPE   H6S 7768   4.840   5.113   5.132 -0.2608 -0.8425 -0.0480
   84SOPE   C27 7769   4.712   5.235   5.254  0.0887  0.1951  0.6555
   84SOPE   H7R 7770   4.733   5.331   5.203  0.1524  0.2864  0.8527
   84SOPE   H7S 7771   4.606   5.226   5.288  0.2090 -0.1076  0.9639
   84SOPE   C28 7772   4.806   5.216   5.372 -0.1801  0.1523 -0.0634
   84SOPE   H8R 7773   4.909   5.232   5.335  0.1751  0.0398  0.8637
   84SOPE   H8S 7774   4.772   5.293   5.445 -0.6956 -1.0293  0.9720
   84SOPE   C29 7775   4.797   5.074   5.432 -0.0730  0.3162  0.1644
   84SOPE   H91 7776   4.859   5.002   5.376 -0.5102 -0.4898  0.6962
   84SOPE  C210 7777   4.722   5.033   5.534 -0.0050  0.4015  0.1409
   84SOPE  H101 7778   4.722   4.923   5.539  1.1012  0.3866  0.1252
   84SOPE  C211 7779   4.621   5.108   5.612 -0.0236  0.3052 -0.0685
   84SOPE  H11R 7780   4.521   5.085   5.569  0.2323 -0.2679 -0.3637
   84SOPE  H11S 7781   4.648   5.214   5.598  1.7205 -0.1666 -0.5257
   84SOPE  C212 7782   4.613   5.107   5.769 -0.4259 -0.1784  0.2211
   84SOPE  H12R 7783   4.571   5.011   5.807 -0.3926 -0.5684 -0.6831
   84SOPE  H12S 7784   4.545   5.191   5.795 -0.7474 -1.1372  2.8007
   84SOPE  C213 7785   4.754   5.132   5.834  0.5834  0.5671 -0.0127
   84SOPE  H13R 7786   4.787   5.237   5.822  1.6859  0.3476  0.8688
   84SOPE  H13S 7787   4.836   5.072   5.788  2.1352  0.9015  2.1355
   84SOPE  C214 7788   4.770   5.090   5.979  0.7031 -0.2184 -0.0201
   84SOPE  H14R 7789   4.877   5.107   6.001  0.6964 -0.4254  0.1751
   84SOPE  H14S 7790   4.748   4.982   5.986 -0.5623 -0.0158 -0.5285
   84SOPE  C215 7791   4.710   5.179   6.093  0.2222  0.6106 -0.4511
   84SOPE  H15R 7792   4.761   5.277   6.084  1.7185  0.1521  1.9541
   84SOPE  H15S 7793   4.748   5.139   6.190 -1.1232 -0.0905 -0.1913
   84SOPE  C216 7794   4.557   5.175   6.105 -0.5545 -0.9518 -0.2530
   84SOPE  H16R 7795   4.515   5.076   6.075 -0.5051 -0.0686 -3.6466
   84SOPE  H16S 7796   4.524   5.240   6.021 -2.4256  1.6239  2.2483
   84SOPE  C217 7797   4.500   5.226   6.236 -0.2293  0.2976 -0.1790
   84SOPE  H17R 7798   4.560   5.181   6.318  0.3038  0.0358 -0.7081
   84SOPE  H17S 7799   4.403   5.174   6.244  0.6143 -1.1399  1.4470
   84SOPE  C218 7800   4.495   5.378   6.241  0.7545  0.0327  0.6423
   84SOPE  H18R 7801   4.432   5.420   6.160  0.8621  0.7914  0.9391
   84SOPE  H18S 7802   4.597   5.423   6.239  1.2683 -1.0915  0.8905
   84SOPE  H18T 7803   4.439   5.413   6.331 -1.3433 -0.3757 -0.4386
   84SOPE   C33 7804   5.270   5.324   5.159 -0.1598  0.0061 -0.3607
   84SOPE   H3X 7805   5.365   5.379   5.173 -1.3384  2.1911 -0.5320
   84SOPE   H3Y 7806   5.301   5.217   5.163  0.1974  0.0822 -1.0521
   84SOPE   C34 7807   5.176   5.357   5.271  0.3024 -0.2911 -0.4611
   84SOPE   H4X 7808   5.071   5.353   5.236  0.0718  0.4581  0.1304
   84SOPE   H4Y 7809   5.181   5.461   5.310  0.0060 -0.7942  0.9760
   84SOPE   C35 7810   5.192   5.267   5.396  0.4213 -0.1792 -0.4049
   84SOPE   H5X 7811   5.301   5.256   5.413  0.2593 -0.1843  0.7032
   84SOPE   H5Y 7812   5.141   5.169   5.386  0.7725 -0.1828 -2.6639
   84SOPE   C36 7813   5.135   5.342   5.522  0.0746  0.3098  0.0597
   84SOPE   H6X 7814   5.024   5.341   5.519  0.0885 -0.1328 -1.4890
   84SOPE   H6Y 7815   5.156   5.451   5.533 -0.7582  0.8643 -2.8815
   84SOPE   C37 7816   5.181   5.279   5.653 -0.3608  0.0848  0.5808
   84SOPE   H7X 7817   5.289   5.300   5.666  0.1198 -2.5169  1.4230
   84SOPE   H7Y 7818   5.187   5.168   5.655  1.7358  0.1740  1.3555
   84SOPE   C38 7819   5.105   5.345   5.768  0.3047  0.5415  0.2900
   84SOPE   H8X 7820   4.996   5.323   5.764  0.7577 -1.8596 -0.5506
   84SOPE   H8Y 7821   5.125   5.454   5.766 -2.8944  1.2400  0.1539
   84SOPE   C39 7822   5.157   5.292   5.896 -0.1212  0.5393 -0.0302
   84SOPE   H9X 7823   5.267   5.309   5.900 -0.3558  2.1212  0.4680
   84SOPE   H9Y 7824   5.142   5.182   5.888  2.0842  0.1835  0.1192
   84SOPE  C310 7825   5.097   5.369   6.015  0.4752  0.4885  0.2597
   84SOPE  H10X 7826   4.989   5.355   5.998  0.4926 -0.2592  0.7479
   84SOPE  H10Y 7827   5.121   5.478   6.007 -2.9537  1.2640 -1.0043
   84SOPE  C311 7828   5.129   5.311   6.155 -0.2183 -0.7021  0.1599
   84SOPE  H11X 7829   5.239   5.320   6.169  0.1200  0.9168 -2.7860
   84SOPE  H11Y 7830   5.098   5.204   6.158 -0.8352 -0.4980  1.8545
   84SOPE  C312 7831   5.047   5.386   6.262 -0.1540 -0.5066  1.1039
   84SOPE  H12X 7832   4.937   5.368   6.253 -0.1667 -0.6354  1.4947
   84SOPE  H12Y 7833   5.071   5.493   6.241  0.3549 -1.0686 -1.5414
   84SOPE  C313 7834   5.085   5.364   6.404  0.3049  0.4706  0.3043
   84SOPE  H13X 7835   5.196   5.359   6.413  0.2030 -1.9161  0.7339
   84SOPE  H13Y 7836   5.046   5.262   6.424  0.0015 -0.0648 -2.5588
   84SOPE  C314 7837   5.020   5.470   6.485 -0.4649 -0.0674 -0.2565
   84SOPE  H14X 7838   4.913   5.468   6.453 -1.1207 -2.3555  1.7887
   84SOPE  H14Y 7839   5.063   5.564   6.445  2.7049 -1.2528  0.1095
   84SOPE  C315 7840   5.030   5.441   6.631  0.2622  0.3056  0.2214
   84SOPE  H15X 7841   4.998   5.335   6.639 -3.7820  1.3069 -0.5933
   84SOPE  H15Y 7842   4.952   5.502   6.681  0.6139  0.4943  0.5386
   84SOPE  C316 7843   5.160   5.479   6.699 -0.9124 -0.4643 -0.4211
   84SOPE  H16X 7844   5.240   5.473   6.622 -0.7108 -1.3592 -0.1500
   84SOPE  H16Y 7845   5.171   5.408   6.784 -1.3083  1.8194  1.6589
   84SOPE  C317 7846   5.161   5.621   6.765  0.2496  0.0338 -0.0749
   84SOPE  H17X 7847   5.069   5.645   6.823  0.9129  1.2775  0.4898
   84SOPE  H17Y 7848   5.143   5.686   6.678 -1.6109 -2.0702 -1.3918
   84SOPE  C318 7849   5.298   5.654   6.826  0.0937 -0.7271  1.5353
   84SOPE  H18X 7850   5.376   5.660   6.748 -0.7046  0.0325  0.7685
   84SOPE  H18Y 7851   5.332   5.569   6.889  1.0373 -1.5152  0.0161
   84SOPE  H18Z 7852   5.289   5.740   6.897 -1.4749  0.5971 -0.1543
   85SOPE     N 7853   1.215   6.276   4.478  0.0300  0.1043  0.0760
   85SOPE   HN1 7854   1.149   6.309   4.404  1.9556 -1.4610 -2.4910
   85SOPE   HN2 7855   1.248   6.357   4.534 -0.6438  1.4176 -1.3680
   85SOPE   HN3 7856   1.290   6.233   4.421 -2.5171 -1.7513 -2.1708
   85SOPE   C12 7857   1.122   6.182   4.573 -0.5604  0.1062  0.3074
   85SOPE  H12A 7858   1.189   6.147   4.655  0.8038  3.1087  0.6105
   85SOPE  H12B 7859   1.120   6.094   4.506  2.0096 -0.6113  1.0611
   85SOPE   C11 7860   0.993   6.254   4.612 -0.9589 -0.4440  0.1091
   85SOPE  H11A 7861   1.011   6.336   4.684  0.3965  0.8976 -1.6590
   85SOPE  H11B 7862   0.929   6.175   4.657 -0.3872 -1.3311 -0.6171
   85SOPE     P 7863   0.900   6.451   4.463  0.5668 -0.5506 -0.4336
   85SOPE   O13 7864   0.772   6.470   4.384  0.3040  0.1421 -0.2538
   85SOPE   O14 7865   1.027   6.485   4.398 -0.7930 -0.0178  0.0124
   85SOPE   O12 7866   0.916   6.296   4.496 -0.2525  0.1028  0.7747
   85SOPE   O11 7867   0.887   6.519   4.607  0.3522 -0.0955 -0.3072
   85SOPE    C1 7868   0.760   6.575   4.639 -0.3737  0.5129 -0.5874
   85SOPE    HA 7869   0.678   6.512   4.599 -2.4658  1.1544  2.3154
   85SOPE    HB 7870   0.742   6.677   4.598 -1.4911  0.7379  0.3825
   85SOPE    C2 7871   0.724   6.565   4.795  0.0514 -0.8440 -0.2751
   85SOPE    HS 7872   0.637   6.625   4.826  0.2206  0.3831 -2.0237
   85SOPE   O21 7873   0.837   6.613   4.858  0.0168 -1.1211 -0.5668
   85SOPE   C21 7874   0.875   6.740   4.852 -0.0432  0.3404  0.3876
   85SOPE   O22 7875   0.820   6.830   4.794 -0.0611  0.3686 -0.2804
   85SOPE   C22 7876   1.010   6.753   4.929 -0.2581  0.4313  0.2153
   85SOPE   H2R 7877   1.090   6.783   4.858  0.1023  1.7611  1.1381
   85SOPE   H2S 7878   1.045   6.658   4.973  3.6053  1.4089 -0.4216
   85SOPE    C3 7879   0.717   6.419   4.850 -0.0276 -0.3402  0.6623
   85SOPE    HX 7880   0.813   6.366   4.829 -0.0178 -0.7643  1.7382
   85SOPE    HY 7881   0.643   6.367   4.785 -1.1207  0.7296  1.0332
   85SOPE   O31 7882   0.691   6.408   4.990  0.4057 -0.6419  0.1643
   85SOPE   C31 7883   0.760   6.313   5.057  0.6177 -0.9385  0.2132
   85SOPE   O32 7884   0.829   6.228   5.004  0.2146  0.6994  0.1401
   85SOPE   C32 7885   0.735   6.341   5.199 -0.4653 -0.0550 -0.9069
   85SOPE   H2X 7886   0.633   6.383   5.216  0.5685  2.0170  0.5873
   85SOPE   H2Y 7887   0.810   6.418   5.227  0.5333 -0.7519 -1.6322
   85SOPE   C23 7888   1.012   6.857   5.046 -0.1171  0.4637  0.1024
   85SOPE   H3R 7889   0.951   6.821   5.133 -0.5936  0.1205 -0.3651
   85SOPE   H3S 7890   0.971   6.953   5.010 -2.0331 -0.2504  0.2544
   85SOPE   C24 7891   1.154   6.892   5.093 -0.6067  0.1050  0.6895
   85SOPE   H4R 7892   1.199   6.806   5.148 -0.8287  0.1262  0.9011
   85SOPE   H4S 7893   1.218   6.899   5.002 -0.7996 -0.5172  0.5035
   85SOPE   C25 7894   1.150   7.013   5.181  0.5948  0.4764  0.1805
   85SOPE   H5R 7895   1.182   7.096   5.114 -0.2085 -1.1326 -2.3193
   85SOPE   H5S 7896   1.055   7.029   5.236  1.2662 -0.7783  1.8163
   85SOPE   C26 7897   1.247   6.995   5.293  0.0216  0.0795 -0.6752
   85SOPE   H6R 7898   1.352   6.977   5.260 -0.0296 -0.5522 -0.4991
   85SOPE   H6S 7899   1.242   7.094   5.344 -0.0819  0.2992 -1.1072
   85SOPE   C27 7900   1.204   6.897   5.400 -0.0780  0.4114 -0.5266
   85SOPE   H7R 7901   1.102   6.924   5.437  0.4129 -0.7415  1.8260
   85SOPE   H7S 7902   1.198   6.795   5.357 -1.4367 -0.1127  0.8122
   85SOPE   C28 7903   1.278   6.897   5.534  0.1129  0.3919  0.3948
   85SOPE   H8R 7904   1.270   6.997   5.581 -1.4536  0.3084  0.3587
   85SOPE   H8S 7905   1.224   6.833   5.607  0.4533  0.7272  0.9471
   85SOPE   C29 7906   1.423   6.858   5.526 -0.3308 -0.4604  0.0560
   85SOPE   H91 7907   1.479   6.885   5.435 -0.8115  0.4088  0.0078
   85SOPE  C210 7908   1.496   6.784   5.614 -0.1202  0.2528 -0.1150
   85SOPE  H101 7909   1.596   6.749   5.584 -0.0887  0.6515 -0.4765
   85SOPE  C211 7910   1.445   6.744   5.756  0.4324 -0.1367 -0.0376
   85SOPE  H11R 7911   1.520   6.675   5.802 -0.0756 -1.6972 -1.4658
   85SOPE  H11S 7912   1.347   6.692   5.744 -1.0384  2.3561  0.5650
   85SOPE  C212 7913   1.419   6.872   5.842  0.1879  0.0853  0.7600
   85SOPE  H12R 7914   1.315   6.911   5.832 -0.2413 -0.4687  2.5778
   85SOPE  H12S 7915   1.488   6.955   5.815  0.0400  0.6513  2.0385
   85SOPE  C213 7916   1.432   6.840   5.994 -0.6480  0.6838  0.3246
   85SOPE  H13R 7917   1.404   6.930   6.053 -0.2242  0.6163  0.6325
   85SOPE  H13S 7918   1.534   6.807   6.024 -1.3042 -0.0462  1.8884
   85SOPE  C214 7919   1.344   6.729   6.059  0.0079  0.2792  0.8690
   85SOPE  H14R 7920   1.348   6.638   5.995 -0.9863  0.5441  0.4138
   85SOPE  H14S 7921   1.238   6.758   6.043  0.4892  1.1067 -1.2562
   85SOPE  C215 7922   1.364   6.709   6.206  0.0429 -0.4699 -0.5249
   85SOPE  H15R 7923   1.385   6.803   6.261 -0.0556 -1.8130  1.9676
   85SOPE  H15S 7924   1.454   6.644   6.216 -0.4282 -1.3320 -1.5746
   85SOPE  C216 7925   1.232   6.649   6.268  0.3046  0.5129 -0.4185
   85SOPE  H16R 7926   1.185   6.580   6.195 -1.9475 -0.5535  1.8684
   85SOPE  H16S 7927   1.170   6.733   6.306 -1.1556 -0.4476 -0.5862
   85SOPE  C217 7928   1.255   6.566   6.390 -0.5315  0.3362 -0.2710
   85SOPE  H17R 7929   1.299   6.468   6.360  1.2816  0.4325  1.8008
   85SOPE  H17S 7930   1.162   6.532   6.440 -0.7516 -0.6127 -1.2761
   85SOPE  C218 7931   1.343   6.630   6.496  0.7011 -0.4050  0.0096
   85SOPE  H18R 7932   1.365   6.555   6.575 -1.6375  0.7120  1.8640
   85SOPE  H18S 7933   1.289   6.716   6.541  1.2970  0.3436 -0.6802
   85SOPE  H18T 7934   1.437   6.665   6.449  1.1675 -0.2384  1.0323
   85SOPE   C33 7935   0.765   6.220   5.292 -0.2297 -0.4505 -0.1493
   85SOPE   H3X 7936   0.873   6.194   5.283 -0.2040 -0.2655 -0.4117
   85SOPE   H3Y 7937   0.703   6.130   5.273 -0.9663 -0.1271  0.7043
   85SOPE   C34 7938   0.756   6.270   5.438  0.1027  0.3868  0.7440
   85SOPE   H4X 7939   0.649   6.301   5.446 -0.1930 -1.0074  3.3575
   85SOPE   H4Y 7940   0.814   6.363   5.454  0.0096  0.2271  2.1137
   85SOPE   C35 7941   0.798   6.159   5.536  0.2551 -0.2486  0.0185
   85SOPE   H5X 7942   0.909   6.156   5.530  0.5050  3.2025  0.8294
   85SOPE   H5Y 7943   0.753   6.063   5.505  2.0762 -0.9461 -0.5818
   85SOPE   C36 7944   0.764   6.177   5.689 -0.4069  0.0203  0.5299
   85SOPE   H6X 7945   0.837   6.121   5.751 -2.1573 -1.8812  0.9543
   85SOPE   H6Y 7946   0.665   6.134   5.713 -1.3287  0.6825 -1.8203
   85SOPE   C37 7947   0.780   6.324   5.735  0.0046 -0.4982 -0.0199
   85SOPE   H7X 7948   0.714   6.399   5.686  0.3523 -1.3396 -1.8660
   85SOPE   H7Y 7949   0.885   6.360   5.724 -0.3334  0.4042 -0.4045
   85SOPE   C38 7950   0.750   6.340   5.888 -0.1533 -0.1332  0.2139
   85SOPE   H8X 7951   0.665   6.272   5.911 -0.6926 -0.2601 -1.9774
   85SOPE   H8Y 7952   0.733   6.446   5.919  0.3459 -0.0883  0.3420
   85SOPE   C39 7953   0.861   6.288   5.988 -0.4747 -0.3031 -0.0671
   85SOPE   H9X 7954   0.957   6.318   5.941 -1.7017  1.5255 -1.5515
   85SOPE   H9Y 7955   0.856   6.177   5.987  0.2771 -0.3663 -1.9898
   85SOPE  C310 7956   0.842   6.339   6.135  0.0763 -0.1807 -0.3564
   85SOPE  H10X 7957   0.747   6.297   6.174  0.0784 -1.0094 -1.2051
   85SOPE  H10Y 7958   0.830   6.449   6.134 -0.5484 -0.2500 -1.3462
   85SOPE  C311 7959   0.968   6.307   6.219  0.2855  0.0222 -0.4669
   85SOPE  H11X 7960   0.971   6.384   6.299  1.0450  0.4825 -0.9276
   85SOPE  H11Y 7961   1.053   6.316   6.149  0.2711 -2.5141 -0.9207
   85SOPE  C312 7962   0.965   6.180   6.304  0.3205 -0.4614 -0.2026
   85SOPE  H12X 7963   0.968   6.093   6.236  1.6170 -0.2510 -0.4593
   85SOPE  H12Y 7964   0.874   6.180   6.368 -0.4169 -2.9680 -1.1475
   85SOPE  C313 7965   1.087   6.156   6.395 -0.4258  0.5518  0.8083
   85SOPE  H13X 7966   1.083   6.227   6.481 -2.5136  1.3635  0.1085
   85SOPE  H13Y 7967   1.171   6.188   6.329 -2.9551  2.1073 -1.9064
   85SOPE  C314 7968   1.101   6.016   6.456  0.8945  0.8907 -0.0870
   85SOPE  H14X 7969   1.009   5.990   6.513  1.6116 -2.5462 -0.2947
   85SOPE  H14Y 7970   1.180   6.009   6.534  1.9294 -2.5090 -1.2506
   85SOPE  C315 7971   1.125   5.901   6.351  0.3830  0.0739 -0.0533
   85SOPE  H15X 7972   1.215   5.932   6.294 -0.0275 -1.1525 -1.4504
   85SOPE  H15Y 7973   1.035   5.901   6.285 -2.7940  1.1020  3.8695
   85SOPE  C316 7974   1.140   5.760   6.413  0.1875  0.5087 -0.6394
   85SOPE  H16X 7975   1.126   5.681   6.335 -2.0314  0.4501 -0.2676
   85SOPE  H16Y 7976   1.061   5.740   6.489 -1.2781  1.7210 -1.7649
   85SOPE  C317 7977   1.286   5.743   6.466 -0.6329 -0.6280 -0.7545
   85SOPE  H17X 7978   1.294   5.818   6.547 -3.0824  0.2544 -1.2377
   85SOPE  H17Y 7979   1.348   5.778   6.380  0.4464 -0.0682  0.2180
   85SOPE  C318 7980   1.314   5.599   6.502  0.3594  0.3188 -0.7168
   85SOPE  H18X 7981   1.254   5.570   6.591  0.9416  0.2908 -0.3280
   85SOPE  H18Y 7982   1.424   5.589   6.516  0.4028  2.2184  0.6413
   85SOPE  H18Z 7983   1.286   5.536   6.415 -0.8392  2.2418 -1.7910
   86SOPE     N 7984   0.437   1.770   4.179  0.2478 -0.7219 -0.0769
   86SOPE   HN1 7985   0.465   1.691   4.118  0.0745 -0.9090  0.0837
   86SOPE   HN2 7986   0.524   1.827   4.187 -0.2518  0.3894 -1.9257
   86SOPE   HN3 7987   0.411   1.737   4.274 -0.4376  0.1267  0.0478
   86SOPE   C12 7988   0.332   1.849   4.100 -0.1077 -0.1637  0.1350
   86SOPE  H12A 7989   0.247   1.781   4.083  0.9300 -2.0527  2.0416
   86SOPE  H12B 7990   0.369   1.888   4.003 -0.3682  2.6652  1.0628
   86SOPE   C11 7991   0.297   1.980   4.171 -0.6976  0.4420 -0.5467
   86SOPE  H11A 7992   0.264   1.948   4.273 -0.3308  3.1553  0.5081
   86SOPE  H11B 7993   0.206   2.026   4.127 -0.7755 -1.1290 -2.1301
   86SOPE     P 7994   0.415   2.229   4.167 -0.2170 -0.0060 -0.1460
   86SOPE   O13 7995   0.282   2.287   4.143 -0.0930 -0.9483  0.1098
   86SOPE   O14 7996   0.523   2.272   4.071 -0.2553 -0.0479  0.2430
   86SOPE   O12 7997   0.411   2.074   4.169 -1.5129 -0.4630  0.2700
   86SOPE   O11 7998   0.470   2.278   4.304  0.2743  0.3016 -0.4040
   86SOPE    C1 7999   0.492   2.181   4.414  0.7967  0.3980 -0.4270
   86SOPE    HA 8000   0.544   2.088   4.381 -1.7375 -1.5828  0.7538
   86SOPE    HB 8001   0.390   2.145   4.440 -0.5020  2.2631 -2.5295
   86SOPE    C2 8002   0.559   2.249   4.533  0.3655 -0.1978  0.6236
   86SOPE    HS 8003   0.560   2.169   4.610  2.8836  0.5887  1.5155
   86SOPE   O21 8004   0.475   2.362   4.581 -0.0883  0.2029  0.5133
   86SOPE   C21 8005   0.360   2.331   4.631 -0.4163 -0.5488 -0.4449
   86SOPE   O22 8006   0.315   2.220   4.646 -0.1654  0.4066 -0.2686
   86SOPE   C22 8007   0.289   2.460   4.680  0.0104 -0.0356  0.7563
   86SOPE   H2R 8008   0.229   2.485   4.590 -1.1233 -1.3120  1.1248
   86SOPE   H2S 8009   0.360   2.544   4.695  1.9601 -1.2398 -1.1851
   86SOPE    C3 8010   0.706   2.287   4.515 -0.5055  0.1521  0.2153
   86SOPE    HX 8011   0.716   2.330   4.413  0.9831 -1.8014 -0.5364
   86SOPE    HY 8012   0.773   2.198   4.514  0.6675  0.9593 -2.2892
   86SOPE   O31 8013   0.751   2.384   4.610 -0.6557  0.3176 -0.1199
   86SOPE   C31 8014   0.775   2.344   4.727  0.1049 -0.0299  0.2534
   86SOPE   O32 8015   0.765   2.228   4.768 -0.0253  0.0852  0.0916
   86SOPE   C32 8016   0.820   2.457   4.820  0.7414  0.4154  0.1338
   86SOPE   H2X 8017   0.812   2.554   4.766  0.0631  0.3036  0.0184
   86SOPE   H2Y 8018   0.927   2.440   4.845 -0.2841 -2.3773  3.3980
   86SOPE   C23 8019   0.187   2.437   4.793 -0.6888  0.4929 -0.1825
   86SOPE   H3R 8020   0.131   2.342   4.783  1.5338 -1.0393  1.1590
   86SOPE   H3S 8021   0.122   2.528   4.798 -1.6582 -0.1712 -0.4297
   86SOPE   C24 8022   0.275   2.436   4.921  0.4139 -0.8637 -0.6022
   86SOPE   H4R 8023   0.318   2.334   4.910  1.2998 -0.4272 -1.2908
   86SOPE   H4S 8024   0.365   2.500   4.909 -0.1229 -0.3992 -2.6758
   86SOPE   C25 8025   0.192   2.460   5.051  0.3407  0.5734 -0.0054
   86SOPE   H5R 8026   0.108   2.532   5.043 -2.6029 -2.2189  2.7585
   86SOPE   H5S 8027   0.149   2.367   5.096 -0.5488  0.6296 -0.7069
   86SOPE   C26 8028   0.294   2.487   5.163 -0.3952 -0.3059 -0.5550
   86SOPE   H6R 8029   0.373   2.411   5.145 -3.2721 -3.2598 -1.8184
   86SOPE   H6S 8030   0.347   2.584   5.156 -1.0928  0.0881 -0.4283
   86SOPE   C27 8031   0.233   2.468   5.301  0.0657  0.5361 -0.3001
   86SOPE   H7R 8032   0.158   2.547   5.324 -0.4379  0.6162 -2.0906
   86SOPE   H7S 8033   0.184   2.368   5.301  1.1867 -0.0321  0.3741
   86SOPE   C28 8034   0.345   2.463   5.410  0.4600  0.2582  0.2417
   86SOPE   H8R 8035   0.409   2.374   5.392  3.4792  2.3642 -0.0114
   86SOPE   H8S 8036   0.410   2.552   5.412 -0.9219  1.2965  1.9167
   86SOPE   C29 8037   0.266   2.463   5.544  0.2253  0.2303  0.2182
   86SOPE   H91 8038   0.157   2.457   5.534  0.0807 -1.0521  2.0380
   86SOPE  C210 8039   0.318   2.479   5.665  0.0934 -0.4328 -0.5615
   86SOPE  H101 8040   0.244   2.486   5.746  0.8443  2.7422 -0.0347
   86SOPE  C211 8041   0.460   2.486   5.702 -0.5207 -0.8184  0.0752
   86SOPE  H11R 8042   0.527   2.444   5.624  0.7236  0.6319  0.3050
   86SOPE  H11S 8043   0.482   2.425   5.793 -2.2213 -0.5173  0.7251
   86SOPE  C212 8044   0.505   2.635   5.731  0.8050  0.7828 -0.4434
   86SOPE  H12R 8045   0.491   2.691   5.636  1.1058  1.8450  0.1352
   86SOPE  H12S 8046   0.610   2.621   5.763  1.0951 -0.6246 -1.8236
   86SOPE  C213 8047   0.425   2.692   5.847  0.4166 -0.5076 -0.6997
   86SOPE  H13R 8048   0.322   2.710   5.808  0.6799  0.1038 -1.1280
   86SOPE  H13S 8049   0.467   2.792   5.873 -0.0612 -0.6580  0.6866
   86SOPE  C214 8050   0.435   2.613   5.976  0.4456  0.7529  0.9216
   86SOPE  H14R 8051   0.538   2.587   6.009 -0.2160 -0.4767  2.0716
   86SOPE  H14S 8052   0.384   2.515   5.970 -1.2650  1.6529 -0.3799
   86SOPE  C215 8053   0.377   2.699   6.090 -0.9688  0.6559 -0.6539
   86SOPE  H15R 8054   0.275   2.731   6.058 -0.7031  0.6999 -1.4592
   86SOPE  H15S 8055   0.441   2.787   6.110 -0.5158  0.1504  0.1921
   86SOPE  C216 8056   0.371   2.620   6.225  0.2922 -0.6133  0.0532
   86SOPE  H16R 8057   0.340   2.517   6.197 -1.6546  0.0229 -0.2889
   86SOPE  H16S 8058   0.293   2.666   6.288  0.5492 -1.4281  1.0034
   86SOPE  C217 8059   0.509   2.602   6.281 -0.0926 -0.3356  0.1414
   86SOPE  H17R 8060   0.516   2.646   6.383 -0.1601 -1.7825  0.7880
   86SOPE  H17S 8061   0.585   2.644   6.211 -0.4788  0.9554  0.4651
   86SOPE  C218 8062   0.538   2.456   6.296  0.2718 -0.4031  0.4679
   86SOPE  H18R 8063   0.642   2.428   6.322 -0.5510 -2.7345  1.5972
   86SOPE  H18S 8064   0.528   2.401   6.199  4.0290  0.0622 -0.3284
   86SOPE  H18T 8065   0.470   2.411   6.372  0.2138  1.6956  1.7149
   86SOPE   C33 8066   0.727   2.474   4.942  0.2293  0.3943  0.0548
   86SOPE   H3X 8067   0.713   2.379   4.998  0.0031  0.5842  0.3242
   86SOPE   H3Y 8068   0.632   2.516   4.903  0.1360 -2.1424 -2.8324
   86SOPE   C34 8069   0.795   2.558   5.061  0.4342 -0.9065 -0.0315
   86SOPE   H4X 8070   0.809   2.661   5.023  0.2168 -1.1767 -0.8848
   86SOPE   H4Y 8071   0.894   2.520   5.095  0.7000  1.4663  2.1263
   86SOPE   C35 8072   0.702   2.558   5.184  0.4887  0.1636 -0.2308
   86SOPE   H5X 8073   0.655   2.458   5.195  0.4577  0.2562  0.5946
   86SOPE   H5Y 8074   0.622   2.631   5.158  0.4531  0.6843  1.2135
   86SOPE   C36 8075   0.760   2.618   5.313 -0.2143  0.2699  0.2487
   86SOPE   H6X 8076   0.846   2.558   5.349 -0.2976  0.0706  0.1177
   86SOPE   H6Y 8077   0.679   2.603   5.388  0.6897 -1.5029  0.9144
   86SOPE   C37 8078   0.800   2.763   5.300 -0.1732 -0.0265  0.9883
   86SOPE   H7X 8079   0.709   2.825   5.286 -0.3306 -0.6581 -1.3534
   86SOPE   H7Y 8080   0.859   2.782   5.207 -1.4448  2.2819  0.5903
   86SOPE   C38 8081   0.889   2.814   5.414 -0.2434 -0.1916  0.1657
   86SOPE   H8X 8082   0.918   2.917   5.385 -0.9480  0.5672  2.0167
   86SOPE   H8Y 8083   0.981   2.756   5.439  0.3452  0.4904 -0.3847
   86SOPE   C39 8084   0.814   2.823   5.547 -0.2450  0.0057  0.1735
   86SOPE   H9X 8085   0.744   2.739   5.568 -1.9151  1.1061 -0.7743
   86SOPE   H9Y 8086   0.737   2.903   5.547 -2.1324 -1.7026 -0.6763
   86SOPE  C310 8087   0.910   2.850   5.661 -0.4953 -0.5672  0.0725
   86SOPE  H10X 8088   0.960   2.946   5.637  1.3926 -1.5691 -0.2091
   86SOPE  H10Y 8089   0.980   2.763   5.663  0.5730  0.2308 -1.3899
   86SOPE  C311 8090   0.840   2.862   5.796  0.4655  0.0512 -0.3345
   86SOPE  H11X 8091   0.778   2.770   5.807  0.6726 -0.3278 -2.1017
   86SOPE  H11Y 8092   0.778   2.954   5.804  1.3874  0.5332  2.6210
   86SOPE  C312 8093   0.935   2.854   5.913  0.2243  0.4093  0.7565
   86SOPE  H12X 8094   1.014   2.932   5.919  0.1831  0.4530  0.7250
   86SOPE  H12Y 8095   0.988   2.756   5.909 -2.8373 -1.3204 -2.0338
   86SOPE  C313 8096   0.854   2.849   6.043  1.1016  0.1044  0.0406
   86SOPE  H13X 8097   0.799   2.753   6.035  0.1299  0.6783 -0.2958
   86SOPE  H13Y 8098   0.784   2.935   6.033  1.4022  0.2505 -0.8525
   86SOPE  C314 8099   0.930   2.855   6.177 -0.0869 -0.4026 -0.0769
   86SOPE  H14X 8100   1.013   2.927   6.164 -1.0299  0.7874  0.3104
   86SOPE  H14Y 8101   0.981   2.756   6.177  3.0129  1.0465 -2.4757
   86SOPE  C315 8102   0.842   2.878   6.302  0.1331  0.2325  0.7754
   86SOPE  H15X 8103   0.763   2.800   6.293  0.0384  0.2560  1.3876
   86SOPE  H15Y 8104   0.799   2.981   6.302 -0.5607 -0.0450  0.2886
   86SOPE  C316 8105   0.898   2.867   6.449 -0.5902  0.1078  0.2847
   86SOPE  H16X 8106   0.822   2.843   6.526 -0.7319 -1.9669 -0.4203
   86SOPE  H16Y 8107   0.952   2.960   6.476  4.1517 -2.3597  0.3870
   86SOPE  C317 8108   1.002   2.752   6.467  0.0804  0.4078  0.1686
   86SOPE  H17X 8109   1.071   2.768   6.381 -0.4680 -2.5590 -0.9438
   86SOPE  H17Y 8110   0.962   2.652   6.441  0.8608 -0.5489  2.4179
   86SOPE  C318 8111   1.060   2.752   6.604 -0.5239  0.4344 -0.3962
   86SOPE  H18X 8112   1.129   2.837   6.620  0.0792 -0.1805  0.3236
   86SOPE  H18Y 8113   1.120   2.660   6.621 -2.7637 -1.0047  0.1829
   86SOPE  H18Z 8114   0.982   2.752   6.683  0.9056 -0.8264  1.0871
   87SOPE     N 8115   3.639   3.407   4.226  0.3424  0.2120  0.0304
   87SOPE   HN1 8116   3.704   3.336   4.264 -0.2504  1.2083  3.2085
   87SOPE   HN2 8117   3.698   3.477   4.177  1.2744  0.2712  1.2020
   87SOPE   HN3 8118   3.588   3.449   4.307 -0.1692 -0.1279 -0.1098
   87SOPE   C12 8119   3.549   3.323   4.138 -0.0531  0.3363  0.6475
   87SOPE  H12A 8120   3.491   3.256   4.205  0.7248 -1.0770 -0.0522
   87SOPE  H12B 8121   3.629   3.268   4.085 -1.1290 -0.2637 -0.3951
   87SOPE   C11 8122   3.476   3.403   4.034 -0.2136 -0.4172  0.3922
   87SOPE  H11A 8123   3.419   3.350   3.956  0.8938  0.9422 -1.4079
   87SOPE  H11B 8124   3.555   3.465   3.986  0.1459  0.8648  2.4963
   87SOPE     P 8125   3.242   3.457   4.125  0.5082  0.1586  0.0839
   87SOPE   O13 8126   3.263   3.326   4.189  0.5662  0.3652  0.2334
   87SOPE   O14 8127   3.155   3.467   4.004  0.0170  0.3674  0.4910
   87SOPE   O12 8128   3.388   3.501   4.086 -0.2411  0.5831  0.5300
   87SOPE   O11 8129   3.202   3.560   4.236 -0.4581 -0.8198 -0.2521
   87SOPE    C1 8130   3.271   3.672   4.289 -0.5007 -0.5188  0.5584
   87SOPE    HA 8131   3.221   3.759   4.242 -1.0023 -1.7593 -1.3300
   87SOPE    HB 8132   3.378   3.679   4.263 -1.0482  1.6580 -1.3633
   87SOPE    C2 8133   3.250   3.685   4.443  0.1263 -0.9412 -0.1856
   87SOPE    HS 8134   3.327   3.747   4.492  0.3886 -0.9504 -0.5752
   87SOPE   O21 8135   3.249   3.552   4.491  0.0022  0.1812 -0.2240
   87SOPE   C21 8136   3.362   3.479   4.476  0.5722 -0.5173 -0.6990
   87SOPE   O22 8137   3.469   3.514   4.434  0.2785 -0.0627 -0.5747
   87SOPE   C22 8138   3.340   3.332   4.526 -0.3974  0.2192  0.7300
   87SOPE   H2R 8139   3.438   3.280   4.520 -0.2303  0.3744  1.8903
   87SOPE   H2S 8140   3.274   3.291   4.446 -0.3562  1.7211 -0.1188
   87SOPE    C3 8141   3.103   3.738   4.455 -0.0732  0.1304  0.9806
   87SOPE    HX 8142   3.036   3.674   4.393 -0.8812  0.9349  1.0070
   87SOPE    HY 8143   3.105   3.841   4.415  2.2453 -0.1042  0.3347
   87SOPE   O31 8144   3.062   3.763   4.591 -0.2294  0.2153  0.1627
   87SOPE   C31 8145   3.017   3.659   4.664 -0.7792 -0.8646 -0.2674
   87SOPE   O32 8146   2.995   3.551   4.612  0.2724  0.5275  0.3467
   87SOPE   C32 8147   2.979   3.702   4.804 -0.0968  1.1630 -0.7082
   87SOPE   H2X 8148   2.869   3.696   4.813  0.0148  0.5620  0.5321
   87SOPE   H2Y 8149   3.019   3.802   4.829  0.9455  0.6359 -0.2098
   87SOPE   C23 8150   3.276   3.317   4.661  0.5350  0.7984  0.2310
   87SOPE   H3R 8151   3.173   3.361   4.662  1.0839  2.1425 -0.0828
   87SOPE   H3S 8152   3.343   3.372   4.731  0.5155 -1.4856  2.1648
   87SOPE   C24 8153   3.272   3.172   4.713  0.4341  0.0442 -0.2428
   87SOPE   H4R 8154   3.192   3.123   4.653  1.3325 -0.9771 -0.6325
   87SOPE   H4S 8155   3.367   3.126   4.678  0.8645 -0.3596  1.3637
   87SOPE   C25 8156   3.271   3.149   4.867 -0.4687  0.1796  0.2252
   87SOPE   H5R 8157   3.258   3.041   4.886  0.0826  0.1395  0.3885
   87SOPE   H5S 8158   3.367   3.185   4.910 -1.0798  0.4084  1.4630
   87SOPE   C26 8159   3.140   3.201   4.938 -0.4492 -0.7617  0.2880
   87SOPE   H6R 8160   3.140   3.308   4.907  0.1637 -0.8933 -0.1956
   87SOPE   H6S 8161   3.061   3.147   4.884 -0.1294 -0.5207 -0.4319
   87SOPE   C27 8162   3.141   3.179   5.088  0.6564 -0.0050 -0.0413
   87SOPE   H7R 8163   3.216   3.242   5.140  1.4237  1.2310 -2.4978
   87SOPE   H7S 8164   3.040   3.213   5.116  0.2985 -1.6266  0.7830
   87SOPE   C28 8165   3.149   3.033   5.137 -0.3084  0.3540 -0.0170
   87SOPE   H8R 8166   3.082   2.972   5.073  3.3092 -1.4178 -2.4761
   87SOPE   H8S 8167   3.253   2.994   5.135  0.2640  1.8507 -0.4299
   87SOPE   C29 8168   3.113   3.027   5.281 -0.0786  0.1362 -0.1993
   87SOPE   H91 8169   3.036   3.099   5.314  0.2702 -0.0749  1.1390
   87SOPE  C210 8170   3.190   2.967   5.380  0.2052  0.1556  0.2264
   87SOPE  H101 8171   3.162   2.982   5.486  0.3635 -0.6187  0.3780
   87SOPE  C211 8172   3.310   2.867   5.378 -0.1885  0.2544  0.0397
   87SOPE  H11R 8173   3.398   2.930   5.404 -0.0468  0.1618 -0.2112
   87SOPE  H11S 8174   3.314   2.817   5.278  0.1100  1.6536 -0.6700
   87SOPE  C212 8175   3.287   2.760   5.489  0.0496 -0.0021 -0.4841
   87SOPE  H12R 8176   3.264   2.817   5.581 -1.4266 -0.8400 -0.3047
   87SOPE  H12S 8177   3.387   2.711   5.500 -0.5497 -0.9218  1.2392
   87SOPE  C213 8178   3.189   2.655   5.451 -0.6894 -0.0113 -0.9142
   87SOPE  H13R 8179   3.222   2.619   5.351  1.6693 -2.1930  0.4971
   87SOPE  H13S 8180   3.091   2.707   5.447 -1.4552 -1.2378  0.7585
   87SOPE  C214 8181   3.200   2.529   5.543  0.1353 -0.1879 -0.0841
   87SOPE  H14R 8182   3.304   2.498   5.522  0.9427  2.3235 -0.1926
   87SOPE  H14S 8183   3.121   2.456   5.514  1.0724 -1.0585 -0.5080
   87SOPE  C215 8184   3.206   2.560   5.694  0.9503  1.1307  0.0570
   87SOPE  H15R 8185   3.107   2.604   5.721  0.8900  0.5260  0.8301
   87SOPE  H15S 8186   3.274   2.639   5.731 -1.2409  2.6889  1.0103
   87SOPE  C216 8187   3.228   2.437   5.780 -0.5485 -0.2287  0.0638
   87SOPE  H16R 8188   3.329   2.397   5.757  0.0052  1.2233 -0.1642
   87SOPE  H16S 8189   3.151   2.365   5.744  1.8659 -2.4406 -0.9750
   87SOPE  C217 8190   3.213   2.447   5.929 -0.0910 -0.6127 -0.4282
   87SOPE  H17R 8191   3.298   2.506   5.970  0.7305 -1.5462 -0.7271
   87SOPE  H17S 8192   3.220   2.340   5.957 -0.0664 -0.9979 -1.7912
   87SOPE  C218 8193   3.086   2.504   5.977  0.1598 -0.0026 -0.2464
   87SOPE  H18R 8194   3.067   2.472   6.082 -0.1887  1.2110  0.0727
   87SOPE  H18S 8195   3.002   2.458   5.921  0.4845  1.8868 -2.4493
   87SOPE  H18T 8196   3.089   2.615   5.979  1.2727 -0.0122  2.3524
   87SOPE   C33 8197   3.034   3.596   4.910  0.7780 -0.7136  0.2467
   87SOPE   H3X 8198   3.143   3.616   4.923  0.8945 -0.1756 -1.3195
   87SOPE   H3Y 8199   3.038   3.492   4.873  2.1696 -0.3629 -0.6720
   87SOPE   C34 8200   2.966   3.624   5.046  0.3133 -0.1441  0.0882
   87SOPE   H4X 8201   2.857   3.628   5.022  0.4886 -0.1151 -0.7289
   87SOPE   H4Y 8202   3.004   3.718   5.092  0.0338 -0.8448  1.7838
   87SOPE   C35 8203   2.980   3.498   5.134 -0.4600  0.4196  0.4022
   87SOPE   H5X 8204   3.082   3.483   5.174 -0.7297 -1.2769  0.5021
   87SOPE   H5Y 8205   2.962   3.415   5.063  0.8777  0.6856 -0.2743
   87SOPE   C36 8206   2.874   3.499   5.243 -0.1804 -0.4997  0.5102
   87SOPE   H6X 8207   2.775   3.490   5.192  0.0105  0.2178  0.0014
   87SOPE   H6Y 8208   2.889   3.595   5.295 -1.0373 -0.2293  0.2753
   87SOPE   C37 8209   2.888   3.375   5.328 -1.0791  0.1397  0.0860
   87SOPE   H7X 8210   2.980   3.396   5.387 -1.7713  2.6532  0.3926
   87SOPE   H7Y 8211   2.896   3.280   5.271 -0.8296  1.1305 -1.6022
   87SOPE   C38 8212   2.783   3.365   5.441  0.7112  0.5372  0.4074
   87SOPE   H8X 8213   2.687   3.367   5.386  1.7146  0.1804 -1.4186
   87SOPE   H8Y 8214   2.791   3.448   5.514 -1.9011  2.3443 -1.1885
   87SOPE   C39 8215   2.793   3.222   5.502  0.2850  0.2033 -0.6578
   87SOPE   H9X 8216   2.778   3.138   5.431  1.3435 -1.4333  0.9637
   87SOPE   H9Y 8217   2.708   3.206   5.573 -0.8435  0.1697 -1.9788
   87SOPE  C310 8218   2.923   3.208   5.584 -0.3802 -0.5720 -0.5599
   87SOPE  H10X 8219   2.940   3.301   5.643  0.2176 -0.4241 -0.9510
   87SOPE  H10Y 8220   3.015   3.211   5.522  1.0715  0.3265  1.5126
   87SOPE  C311 8221   2.920   3.077   5.671  0.0735  0.2075  0.5954
   87SOPE  H11X 8222   2.902   2.996   5.596  1.2362  1.9309 -1.6854
   87SOPE  H11Y 8223   2.841   3.066   5.748 -0.1558 -2.0176  0.1317
   87SOPE  C312 8224   3.056   3.061   5.739 -0.5042 -0.4893 -0.9168
   87SOPE  H12X 8225   3.071   3.134   5.821  1.4126  0.7970 -2.3595
   87SOPE  H12Y 8226   3.133   3.075   5.661  0.0683  0.0614 -0.2606
   87SOPE  C313 8227   3.083   2.923   5.804 -0.1614  0.0438 -0.3058
   87SOPE  H13X 8228   3.067   2.847   5.724  0.4742 -1.3716  0.8702
   87SOPE  H13Y 8229   3.021   2.903   5.894  2.3507 -0.4600  1.4042
   87SOPE  C314 8230   3.216   2.894   5.877  0.2363 -0.2289  0.4007
   87SOPE  H14X 8231   3.308   2.907   5.815 -0.1298 -0.3117 -0.1747
   87SOPE  H14Y 8232   3.227   2.789   5.911  0.5291 -0.1996  0.3928
   87SOPE  C315 8233   3.226   2.977   6.005 -0.8921  0.0363 -0.0125
   87SOPE  H15X 8234   3.148   2.934   6.071  0.5646 -1.6885  0.6348
   87SOPE  H15Y 8235   3.197   3.083   5.985  1.3957  0.8346  0.6359
   87SOPE  C316 8236   3.368   2.965   6.064 -0.5251  0.4037  0.2286
   87SOPE  H16X 8237   3.445   2.990   5.988 -0.3762  1.2490  0.6536
   87SOPE  H16Y 8238   3.378   2.857   6.089 -2.3267  0.3942  1.1117
   87SOPE  C317 8239   3.395   3.047   6.186  0.6866 -0.2111  0.3496
   87SOPE  H17X 8240   3.304   3.042   6.250  0.5157 -0.7619  0.0763
   87SOPE  H17Y 8241   3.400   3.153   6.155 -3.7100 -0.1607 -0.9413
   87SOPE  C318 8242   3.518   2.997   6.262  0.4447  0.2053  0.5805
   87SOPE  H18X 8243   3.554   3.071   6.337  0.8179 -0.0511  0.6575
   87SOPE  H18Y 8244   3.606   2.990   6.195  0.4264  2.6306  0.2241
   87SOPE  H18Z 8245   3.488   2.904   6.315  1.5647 -1.5072 -1.6115
   88SOPE     N 8246   2.633   4.858   3.715  0.0412 -0.0777  0.2016
   88SOPE   HN1 8247   2.666   4.936   3.654 -2.1761  1.2550  0.5860
   88SOPE   HN2 8248   2.666   4.768   3.676  2.1477  1.6297 -2.3104
   88SOPE   HN3 8249   2.530   4.867   3.709 -0.0408  0.3406  1.6786
   88SOPE   C12 8250   2.647   4.863   3.867 -0.1584  0.0393  0.6578
   88SOPE  H12A 8251   2.662   4.968   3.901  1.6032 -0.0436  0.2396
   88SOPE  H12B 8252   2.733   4.796   3.890 -1.4208 -1.7930  0.2103
   88SOPE   C11 8253   2.518   4.799   3.926  0.1997 -0.6417  0.2851
   88SOPE  H11A 8254   2.510   4.789   4.036  0.2734 -2.1340  0.1686
   88SOPE  H11B 8255   2.517   4.693   3.894 -0.7705 -0.9287  1.2083
   88SOPE     P 8256   2.354   5.003   3.949 -0.5552 -0.1920  0.0478
   88SOPE   O13 8257   2.210   5.022   3.918 -0.1668 -0.0625  0.4731
   88SOPE   O14 8258   2.441   5.120   3.914  0.1222  0.5564  0.0192
   88SOPE   O12 8259   2.404   4.869   3.872 -0.3636 -0.7065  0.3506
   88SOPE   O11 8260   2.353   4.977   4.105  0.3876 -0.0624  0.1562
   88SOPE    C1 8261   2.360   5.097   4.193 -0.4233 -0.1456  0.4216
   88SOPE    HA 8262   2.267   5.158   4.186 -1.2315 -1.1835  1.6471
   88SOPE    HB 8263   2.445   5.161   4.162 -0.2810  0.7326  2.4181
   88SOPE    C2 8264   2.385   5.057   4.339  0.0392 -0.6317  0.1198
   88SOPE    HS 8265   2.407   5.147   4.401 -1.8715 -1.0932  1.5620
   88SOPE   O21 8266   2.490   4.963   4.352  0.1241 -0.0000  0.0863
   88SOPE   C21 8267   2.615   5.003   4.335 -0.5760  0.1909  0.2643
   88SOPE   O22 8268   2.651   5.120   4.315 -0.0292 -0.1094  0.2919
   88SOPE   C22 8269   2.706   4.881   4.361 -0.2553  0.0819 -0.3990
   88SOPE   H2R 8270   2.747   4.849   4.262 -0.0930 -0.5882 -0.1160
   88SOPE   H2S 8271   2.643   4.793   4.384 -0.1434 -0.3043 -1.5079
   88SOPE    C3 8272   2.257   5.007   4.394 -0.1225  0.2961 -0.6005
   88SOPE    HX 8273   2.224   4.923   4.328 -0.3740  0.0556 -0.1734
   88SOPE    HY 8274   2.184   5.089   4.385  0.5341  1.1178  1.1384
   88SOPE   O31 8275   2.277   4.965   4.534 -0.0428  1.0854  0.3705
   88SOPE   C31 8276   2.317   4.842   4.566  0.5473  0.3478 -0.1721
   88SOPE   O32 8277   2.329   4.745   4.489 -0.2678 -0.1056  0.3347
   88SOPE   C32 8278   2.331   4.841   4.720 -0.6036  0.2512 -0.2893
   88SOPE   H2X 8279   2.420   4.780   4.747 -0.8646 -0.7607 -1.6366
   88SOPE   H2Y 8280   2.244   4.787   4.763  0.0275 -2.0711 -1.7051
   88SOPE   C23 8281   2.799   4.908   4.473 -0.4495  0.2279  0.2452
   88SOPE   H3R 8282   2.864   4.993   4.441  1.1769 -0.5520  1.3409
   88SOPE   H3S 8283   2.868   4.821   4.478 -0.7841 -0.1035 -0.5908
   88SOPE   C24 8284   2.734   4.928   4.612  0.5824 -0.2833 -0.8327
   88SOPE   H4R 8285   2.683   5.026   4.613 -0.3120 -0.7333 -0.9812
   88SOPE   H4S 8286   2.650   4.857   4.628  0.5185 -0.5327 -2.1356
   88SOPE   C25 8287   2.839   4.925   4.726  0.6651  0.2141 -1.1144
   88SOPE   H5R 8288   2.780   4.925   4.821  1.1399 -0.0336 -0.8150
   88SOPE   H5S 8289   2.882   4.823   4.736 -0.6126 -0.1652  1.4586
   88SOPE   C26 8290   2.953   5.030   4.717 -0.3542  0.5265 -0.1257
   88SOPE   H6R 8291   3.043   4.993   4.664 -0.1835 -0.4564  0.8133
   88SOPE   H6S 8292   2.917   5.115   4.654 -0.5930  0.5393  0.0271
   88SOPE   C27 8293   3.000   5.078   4.858  0.5586  0.0628 -0.0197
   88SOPE   H7R 8294   2.905   5.094   4.913 -0.4391  0.0922 -1.6770
   88SOPE   H7S 8295   3.051   5.000   4.918  2.9741  0.4196 -1.4782
   88SOPE   C28 8296   3.083   5.210   4.856 -0.6882 -0.1543  0.0506
   88SOPE   H8R 8297   3.039   5.282   4.784  2.6490  0.5494 -1.4828
   88SOPE   H8S 8298   3.072   5.269   4.950  1.0105  1.3196 -0.6157
   88SOPE   C29 8299   3.230   5.187   4.819 -0.2944  0.1042  0.2114
   88SOPE   H91 8300   3.246   5.143   4.719  0.4220  2.0598 -0.5777
   88SOPE  C210 8301   3.332   5.214   4.898 -0.5444  0.2172  0.6281
   88SOPE  H101 8302   3.433   5.188   4.863 -0.2632  0.7735  1.0098
   88SOPE  C211 8303   3.332   5.282   5.027  0.9186  0.4380  0.2155
   88SOPE  H11R 8304   3.234   5.331   5.041  0.3595 -0.3660 -0.7344
   88SOPE  H11S 8305   3.409   5.361   5.038 -0.1458  1.4934  0.1936
   88SOPE  C212 8306   3.353   5.179   5.137 -0.6560  0.0088  0.1814
   88SOPE  H12R 8307   3.453   5.133   5.123 -0.0153  0.8202  1.8931
   88SOPE  H12S 8308   3.286   5.092   5.119 -0.6930  0.2719 -1.0852
   88SOPE  C213 8309   3.337   5.233   5.279  0.0402 -1.1638  0.0985
   88SOPE  H13R 8310   3.308   5.150   5.346 -0.5752 -2.0008 -1.1715
   88SOPE  H13S 8311   3.253   5.305   5.281  1.2260  0.3188 -0.8063
   88SOPE  C214 8312   3.470   5.296   5.344 -0.3824 -0.5724  0.5055
   88SOPE  H14R 8313   3.527   5.360   5.274 -2.9799  2.4274  0.8938
   88SOPE  H14S 8314   3.536   5.212   5.375  0.8336 -0.0396 -0.5608
   88SOPE  C215 8315   3.439   5.391   5.471 -0.0942  0.5622  0.4118
   88SOPE  H15R 8316   3.369   5.474   5.447  0.4820  1.8239  2.7111
   88SOPE  H15S 8317   3.528   5.444   5.511  0.6758  2.1782 -3.1082
   88SOPE  C216 8318   3.368   5.321   5.589 -0.2352  0.3067  0.0644
   88SOPE  H16R 8319   3.439   5.249   5.635  0.3813 -0.0126 -1.3525
   88SOPE  H16S 8320   3.272   5.276   5.556 -0.5089  0.6637  0.3595
   88SOPE  C217 8321   3.322   5.430   5.697  0.0617  0.0848  0.0301
   88SOPE  H17R 8322   3.235   5.484   5.654 -1.5771 -0.3695  2.5646
   88SOPE  H17S 8323   3.399   5.509   5.698  0.1831 -0.0289 -0.1843
   88SOPE  C218 8324   3.281   5.378   5.834 -0.6141  0.2500 -0.3598
   88SOPE  H18R 8325   3.243   5.466   5.890 -1.3420 -0.0275 -0.4097
   88SOPE  H18S 8326   3.363   5.325   5.887  0.1857  1.4385 -0.3724
   88SOPE  H18T 8327   3.192   5.310   5.834  0.9065 -1.8604 -0.4715
   88SOPE   C33 8328   2.362   4.978   4.779 -0.3081 -0.2302 -0.2646
   88SOPE   H3X 8329   2.275   5.046   4.770  1.1829  1.7441 -0.4362
   88SOPE   H3Y 8330   2.440   5.024   4.715 -0.4458  0.5469  0.1157
   88SOPE   C34 8331   2.412   4.988   4.923  0.0825 -0.2870 -0.0251
   88SOPE   H4X 8332   2.522   4.980   4.912  0.0306 -0.3804 -0.4811
   88SOPE   H4Y 8333   2.363   4.904   4.978 -1.5882  0.3745 -0.4461
   88SOPE   C35 8334   2.368   5.123   4.989 -0.3619  0.3534 -0.4487
   88SOPE   H5X 8335   2.257   5.131   4.984 -0.1685  2.5714 -2.5144
   88SOPE   H5Y 8336   2.406   5.199   4.918 -2.0076  0.5078 -1.1998
   88SOPE   C36 8337   2.441   5.153   5.121  0.7386  0.7886 -0.6707
   88SOPE   H6X 8338   2.460   5.260   5.144  0.2679  0.4903  1.3060
   88SOPE   H6Y 8339   2.543   5.111   5.107  0.0086 -0.9880 -0.7991
   88SOPE   C37 8340   2.379   5.093   5.247 -0.1651  0.8129 -0.5663
   88SOPE   H7X 8341   2.409   4.987   5.247  2.0899  1.3883 -1.4623
   88SOPE   H7Y 8342   2.269   5.105   5.240 -0.4039 -0.6587  0.3072
   88SOPE   C38 8343   2.432   5.165   5.375  0.5342  0.0628  0.0076
   88SOPE   H8X 8344   2.415   5.274   5.363 -1.7554 -0.1408  0.9880
   88SOPE   H8Y 8345   2.540   5.142   5.393  0.4731  1.3124  2.4729
   88SOPE   C39 8346   2.355   5.108   5.503 -0.3146 -0.9913 -0.6980
   88SOPE   H9X 8347   2.344   4.997   5.495 -1.4481 -1.1928  2.3597
   88SOPE   H9Y 8348   2.253   5.151   5.500  0.0930  0.2855  1.5305
   88SOPE  C310 8349   2.428   5.143   5.638 -0.1698  0.1983  0.2759
   88SOPE  H10X 8350   2.403   5.250   5.654  2.1500  1.4354 -3.2031
   88SOPE  H10Y 8351   2.538   5.128   5.642  0.1696  2.4070  0.3377
   88SOPE  C311 8352   2.375   5.060   5.754 -0.0144 -0.2311 -0.4951
   88SOPE  H11X 8353   2.421   4.959   5.740 -0.4102 -0.4552 -0.2028
   88SOPE  H11Y 8354   2.266   5.051   5.733 -0.4824  1.6114  0.9702
   88SOPE  C312 8355   2.404   5.114   5.894  0.1886  0.1171 -0.1787
   88SOPE  H12X 8356   2.365   5.218   5.897  0.0230  0.0567 -0.2239
   88SOPE  H12Y 8357   2.513   5.108   5.914  0.3147 -1.4826 -1.2358
   88SOPE  C313 8358   2.333   5.034   6.007 -0.2111  0.1529 -0.7217
   88SOPE  H13X 8359   2.379   4.933   6.009 -0.6984 -0.1310 -2.5361
   88SOPE  H13Y 8360   2.225   5.024   5.982  0.3836 -2.0634 -2.7967
   88SOPE  C314 8361   2.339   5.108   6.148 -0.2255  0.6789 -0.1471
   88SOPE  H14X 8362   2.271   5.049   6.213 -1.4444  1.3710 -0.7517
   88SOPE  H14Y 8363   2.296   5.210   6.144  1.0582  1.2033 -1.8180
   88SOPE  C315 8364   2.478   5.106   6.205  0.7301  0.3450  0.0703
   88SOPE  H15X 8365   2.470   5.177   6.290  0.4725  0.1099  0.2421
   88SOPE  H15Y 8366   2.533   5.167   6.129 -1.2190 -1.2441 -2.8094
   88SOPE  C316 8367   2.570   4.986   6.242 -0.0003 -1.1654 -0.0176
   88SOPE  H16X 8368   2.586   4.915   6.158  1.3079 -0.8478 -0.0507
   88SOPE  H16Y 8369   2.516   4.935   6.324 -1.6754 -0.1533 -0.4353
   88SOPE  C317 8370   2.707   5.039   6.288 -0.7142 -0.0022  0.0353
   88SOPE  H17X 8371   2.693   5.116   6.368 -0.2999  0.6542 -0.5134
   88SOPE  H17Y 8372   2.742   5.103   6.204 -0.9708  1.5433  1.0634
   88SOPE  C318 8373   2.810   4.940   6.341  0.1075  0.0582  0.2144
   88SOPE  H18X 8374   2.793   4.855   6.271 -0.3420  0.9522 -0.7977
   88SOPE  H18Y 8375   2.798   4.905   6.445  1.0680  0.3953  0.4516
   88SOPE  H18Z 8376   2.915   4.976   6.328  0.0965  1.0825  2.4998
   89SAPC     N 8377   0.019   0.824   0.414 -0.5080  0.5756 -0.5862
   89SAPC   C12 8378  -0.047   0.690   0.399  0.1345 -0.2826 -0.6493
   89SAPC  H12A 8379   0.031   0.616   0.400  2.1584  1.7298  0.9777
   89SAPC  H12B 8380  -0.099   0.691   0.305 -1.5123  1.1932  0.2082
   89SAPC   C13 8381  -0.076   0.945   0.402  0.1692 -0.3931  0.1922
   89SAPC  H13A 8382  -0.030   1.042   0.414 -2.1176  0.6310  1.3027
   89SAPC  H13B 8383  -0.121   0.936   0.304 -0.1477  2.2590  0.0334
   89SAPC  H13C 8384  -0.152   0.955   0.478  1.2047  1.0979  1.0813
   89SAPC   C14 8385   0.100   0.847   0.535  0.6145 -0.1275 -0.3666
   89SAPC  H14A 8386   0.038   0.824   0.621  0.4026  0.9606 -0.2220
   89SAPC  H14B 8387   0.193   0.792   0.546  0.0233 -1.2915 -0.8901
   89SAPC  H14C 8388   0.119   0.952   0.543  0.8797 -0.2345  0.5101
   89SAPC   C15 8389   0.111   0.842   0.302 -0.2861  0.0035  0.1340
   89SAPC  H15A 8390   0.053   0.828   0.212  1.1116  3.9747 -1.5871
   89SAPC  H15B 8391   0.144   0.943   0.288  0.0527 -0.1610 -0.2856
   89SAPC  H15C 8392   0.197   0.776   0.304 -0.3994 -0.1480  0.0173
   89SAPC   C11 8393  -0.149   0.652   0.515  0.4411 -1.2246 -0.1095
   89SAPC  H11A 8394  -0.089   0.644   0.609  0.5122  1.3161  0.1151
   89SAPC  H11B 8395  -0.189   0.553   0.484  0.8322 -0.7483 -2.2779
   89SAPC     P 8396  -0.376   0.749   0.442  0.0349 -0.1547 -0.0565
   89SAPC   O13 8397  -0.438   0.619   0.453 -0.1368  0.1784 -0.3099
   89SAPC   O14 8398  -0.469   0.860   0.476 -0.5701  0.3893 -0.2744
   89SAPC   O12 8399  -0.250   0.758   0.533  0.2007 -0.1456 -0.1234
   89SAPC   O11 8400  -0.336   0.769   0.299 -0.8601 -0.3804 -0.8428
   89SAPC    C1 8401  -0.400   0.858   0.212  0.1116 -0.0933 -0.5373
   89SAPC    HA 8402  -0.454   0.943   0.258 -0.5616 -0.1904 -1.1361
   89SAPC    HB 8403  -0.328   0.896   0.137 -2.6990  3.1734 -1.8525
   89SAPC    C2 8404  -0.495   0.770   0.119  0.4750 -0.3726  0.5316
   89SAPC    HS 8405  -0.559   0.722   0.196 -1.7526 -1.6170 -1.9542
   89SAPC   O21 8406  -0.412   0.670   0.053  0.1737 -0.0806  0.0901
   89SAPC   C21 8407  -0.465   0.551   0.032 -0.0082  0.0050 -0.4893
   89SAPC   O22 8408  -0.568   0.508   0.082  0.2765  0.6381 -0.1811
   89SAPC   C22 8409  -0.386   0.472  -0.069 -0.0607  0.6603  0.1055
   89SAPC   H2R 8410  -0.400   0.530  -0.163 -1.2270  0.6203  0.2333
   89SAPC   H2S 8411  -0.282   0.467  -0.032  0.3536  0.5156 -1.0582
   89SAPC    C3 8412  -0.574   0.856   0.017  0.6690 -0.3200  0.3555
   89SAPC    HX 8413  -0.497   0.893  -0.054  1.1099 -2.4401 -0.3437
   89SAPC    HY 8414  -0.620   0.943   0.069 -0.3829  0.5273 -1.8588
   89SAPC   O31 8415  -0.682   0.791  -0.045 -0.3631 -0.1661  0.7039
   89SAPC   C31 8416  -0.653   0.761  -0.174 -0.0387  0.3444  0.1384
   89SAPC   O32 8417  -0.560   0.809  -0.242  0.2373 -0.2704 -0.2035
   89SAPC   C32 8418  -0.735   0.641  -0.216  0.3063 -0.1494  0.6066
   89SAPC   H2X 8419  -0.831   0.689  -0.242  1.0888  0.9574 -0.3450
   89SAPC   H2Y 8420  -0.754   0.568  -0.134  1.5878  0.3920  1.4226
   89SAPC   C23 8421  -0.447   0.333  -0.097 -1.1138  0.1052  0.5264
   89SAPC   H3R 8422  -0.558   0.343  -0.107 -1.0315  0.6623  0.1239
   89SAPC   H3S 8423  -0.403   0.261  -0.025 -0.6668  0.1698  0.3170
   89SAPC   C24 8424  -0.407   0.279  -0.233 -0.2857  0.6069  0.2226
   89SAPC   H4R 8425  -0.462   0.337  -0.311 -3.3068 -0.5205  1.3421
   89SAPC   H4S 8426  -0.435   0.172  -0.231  0.8193  0.3014  2.2345
   89SAPC   C25 8427  -0.254   0.285  -0.267  0.7474 -0.1136 -0.5503
   89SAPC   H5R 8428  -0.190   0.287  -0.177  0.0031  0.5760 -0.0160
   89SAPC   C26 8429  -0.184   0.307  -0.374 -0.1428  0.2165 -1.0177
   89SAPC   H6R 8430  -0.076   0.321  -0.360  0.1229 -2.0083 -0.4533
   89SAPC   C27 8431  -0.233   0.308  -0.514  0.6441  0.3314 -0.3848
   89SAPC   H7R 8432  -0.163   0.377  -0.566 -0.4066  1.9008  0.2115
   89SAPC   H7S 8433  -0.333   0.356  -0.524 -0.0026 -0.9162 -0.2040
   89SAPC   C28 8434  -0.254   0.176  -0.584 -0.0587 -0.1058  0.1565
   89SAPC   H8R 8435  -0.287   0.093  -0.520 -0.8169  0.6102  0.7233
   89SAPC   C29 8436  -0.198   0.143  -0.708 -0.2498  0.4790 -0.1431
   89SAPC   H9R 8437  -0.192   0.036  -0.732  2.5517 -0.2098  2.8053
   89SAPC  C210 8438  -0.129   0.230  -0.806  0.4051  0.2421  0.4529
   89SAPC  H10R 8439  -0.041   0.168  -0.834  0.2072 -0.7391  1.8918
   89SAPC  H10S 8440  -0.088   0.323  -0.761  1.8898 -0.3705  0.4160
   89SAPC  C211 8441  -0.230   0.278  -0.907  0.1636  0.7567  0.1625
   89SAPC  H11R 8442  -0.308   0.345  -0.867 -2.2254 -1.6331 -0.1652
   89SAPC  C212 8443  -0.236   0.229  -1.036  0.3477 -0.8626 -0.3670
   89SAPC  H12R 8444  -0.319   0.261  -1.101 -0.4171  1.4186  1.5811
   89SAPC  C213 8445  -0.165   0.122  -1.103 -0.6167  0.3393  0.2646
   89SAPC  H13R 8446  -0.238   0.065  -1.164 -0.2585  1.6344 -1.4397
   89SAPC  H13S 8447  -0.131   0.045  -1.030  0.7880  1.9775  1.4355
   89SAPC  C214 8448  -0.052   0.180  -1.188 -0.5990  0.1715  0.7026
   89SAPC  H14R 8449  -0.007   0.272  -1.151 -0.8154  1.0628 -1.1258
   89SAPC  C215 8450  -0.003   0.122  -1.303 -0.7540 -0.4699 -0.3324
   89SAPC  H15R 8451   0.075   0.168  -1.365  1.5038 -2.5863  0.7919
   89SAPC  C216 8452  -0.048  -0.004  -1.371  0.0713 -0.3103  0.0382
   89SAPC  H16R 8453  -0.125  -0.052  -1.307  1.2136 -0.0893  1.6350
   89SAPC  H16S 8454   0.032  -0.081  -1.381 -0.9096 -1.1113 -2.2737
   89SAPC  C217 8455  -0.112   0.019  -1.507 -0.0650  0.1603 -0.0631
   89SAPC  H17R 8456  -0.188   0.100  -1.501 -0.1961 -0.0632  2.1333
   89SAPC  H17S 8457  -0.159  -0.078  -1.533  1.8473 -1.0537  0.7154
   89SAPC  C218 8458  -0.008   0.040  -1.617 -0.3192  0.3991 -0.4583
   89SAPC  H18R 8459   0.076  -0.030  -1.600 -0.2344  0.4935 -0.4881
   89SAPC  H18S 8460   0.036   0.141  -1.601  1.8231 -0.7482  1.4408
   89SAPC  C219 8461  -0.069   0.005  -1.748  0.3657  0.1340 -0.4587
   89SAPC  H19R 8462  -0.137   0.086  -1.784  1.3235  0.5919 -1.3034
   89SAPC  H19S 8463  -0.140  -0.079  -1.735  1.4994 -0.4052  3.8981
   89SAPC  C220 8464   0.032  -0.025  -1.851 -0.0125  0.2368 -0.1181
   89SAPC  H20R 8465   0.111   0.054  -1.845  0.8783 -0.6578  0.2480
   89SAPC  H20S 8466  -0.016  -0.032  -1.951  0.4502  0.4718 -0.3622
   89SAPC  H20T 8467   0.087  -0.119  -1.825  0.0592  0.7017  1.5047
   89SAPC   C33 8468  -0.685   0.572  -0.344 -0.0105  0.1282 -0.1072
   89SAPC   H3X 8469  -0.578   0.554  -0.320  0.0980  2.0208  1.0500
   89SAPC   H3Y 8470  -0.682   0.639  -0.432  0.6528 -0.4590 -0.5406
   89SAPC   C34 8471  -0.774   0.446  -0.373 -0.5061  0.1037  0.1521
   89SAPC   H4X 8472  -0.879   0.470  -0.403 -0.9513 -0.6261  1.0585
   89SAPC   H4Y 8473  -0.776   0.397  -0.274  0.0425  0.0159  0.1225
   89SAPC   C35 8474  -0.718   0.356  -0.487  0.3444 -0.7057 -1.1337
   89SAPC   H5X 8475  -0.798   0.284  -0.516  1.1462 -0.3299 -4.8263
   89SAPC   H5Y 8476  -0.635   0.286  -0.462 -0.4823 -1.2846  0.0500
   89SAPC   C36 8477  -0.680   0.447  -0.609 -0.1199 -0.0230  0.1232
   89SAPC   H6X 8478  -0.578   0.484  -0.589  1.0800 -2.8448 -0.2962
   89SAPC   H6Y 8479  -0.746   0.535  -0.623  0.7236  0.9210  1.8531
   89SAPC   C37 8480  -0.673   0.369  -0.739  0.2800  0.3985  0.8655
   89SAPC   H7X 8481  -0.776   0.333  -0.756  0.0583  1.7944 -1.2178
   89SAPC   H7Y 8482  -0.603   0.284  -0.723  1.3444  1.3482  1.3941
   89SAPC   C38 8483  -0.608   0.462  -0.848  0.1209 -0.1652 -0.4490
   89SAPC   H8X 8484  -0.503   0.486  -0.822 -0.0038 -0.3874  0.2878
   89SAPC   H8Y 8485  -0.665   0.558  -0.849 -1.9090 -1.2353  1.8654
   89SAPC   C39 8486  -0.616   0.391  -0.980 -0.2477 -0.3766 -0.5292
   89SAPC   H9X 8487  -0.725   0.373  -0.987 -0.1009 -1.0137 -1.3535
   89SAPC   H9Y 8488  -0.556   0.301  -0.956  2.4673  2.0578  2.9919
   89SAPC  C310 8489  -0.560   0.475  -1.088  0.2249 -0.3544 -0.2495
   89SAPC  H10X 8490  -0.450   0.485  -1.081  0.2026 -0.8680  1.1042
   89SAPC  H10Y 8491  -0.612   0.571  -1.070 -3.5651 -2.1533 -0.4694
   89SAPC  C311 8492  -0.596   0.419  -1.225  0.5868 -0.4728 -0.2877
   89SAPC  H11X 8493  -0.698   0.382  -1.204  0.2891  0.7821  0.5560
   89SAPC  H11Y 8494  -0.521   0.339  -1.246  0.5880 -0.2739 -1.0602
   89SAPC  C312 8495  -0.596   0.515  -1.334 -0.0553  0.0164  0.0088
   89SAPC  H12X 8496  -0.499   0.570  -1.327 -2.1659  3.9404  1.6681
   89SAPC  H12Y 8497  -0.665   0.602  -1.326  1.1906  1.0486 -0.0324
   89SAPC  C313 8498  -0.611   0.434  -1.462  0.5815 -0.2001  0.5793
   89SAPC  H13X 8499  -0.715   0.396  -1.477  1.1584 -1.2390 -1.0773
   89SAPC  H13Y 8500  -0.551   0.341  -1.468  0.1058 -0.5682  1.3133
   89SAPC  C314 8501  -0.564   0.501  -1.598 -0.1337  0.3134  0.2058
   89SAPC  H14X 8502  -0.560   0.422  -1.676  0.9289 -0.5656  1.1042
   89SAPC  H14Y 8503  -0.459   0.532  -1.579  0.1436 -1.2646  1.4725
   89SAPC  C315 8504  -0.643   0.625  -1.638 -0.5824 -0.0022 -0.4202
   89SAPC  H15X 8505  -0.602   0.714  -1.586  0.8232 -0.8552  0.0027
   89SAPC  H15Y 8506  -0.749   0.608  -1.608 -0.1440 -0.4466  0.9616
   89SAPC  C316 8507  -0.633   0.658  -1.790  0.1260 -0.0531 -0.6422
   89SAPC  H16X 8508  -0.669   0.568  -1.844 -1.1053 -1.2344  1.9700
   89SAPC  H16Y 8509  -0.526   0.681  -1.813  0.6387 -1.0442  0.6473
   89SAPC  C317 8510  -0.727   0.774  -1.829 -0.0841  0.4473  0.7871
   89SAPC  H17X 8511  -0.673   0.870  -1.839  1.3652 -0.3988  0.2036
   89SAPC  H17Y 8512  -0.810   0.791  -1.757 -2.0057  1.2144 -1.4858
   89SAPC  C318 8513  -0.792   0.750  -1.971 -0.3359  0.6661 -0.4183
   89SAPC  H18X 8514  -0.873   0.826  -1.981 -0.1347  0.6725 -2.2716
   89SAPC  H18Y 8515  -0.832   0.647  -1.978 -0.2919  0.7734 -2.8964
   89SAPC  H18Z 8516  -0.716   0.767  -2.050  0.9702 -0.1791  0.6069
   90SAPC     N 8517   0.068   5.252   0.482 -0.1682 -0.5356 -0.0879
   90SAPC   C12 8518  -0.018   5.324   0.376  0.2885  0.3019 -0.0372
   90SAPC  H12A 8519  -0.092   5.258   0.333 -1.1282  3.9382 -3.9035
   90SAPC  H12B 8520   0.052   5.349   0.298  2.4786  0.6455  1.9203
   90SAPC   C13 8521   0.164   5.358   0.542  0.0016 -0.3299 -0.0201
   90SAPC  H13A 8522   0.108   5.437   0.590  0.7704  0.2248 -0.0108
   90SAPC  H13B 8523   0.227   5.327   0.624  1.3086  1.2957 -0.3422
   90SAPC  H13C 8524   0.229   5.404   0.468  0.8258 -0.4253  0.6313
   90SAPC   C14 8525  -0.015   5.201   0.598  0.6337  0.0244 -0.1377
   90SAPC  H14A 8526   0.043   5.141   0.666 -0.7788 -1.5882 -0.2867
   90SAPC  H14B 8527  -0.073   5.277   0.647  0.4892 -0.7551  0.9310
   90SAPC  H14C 8528  -0.076   5.123   0.554  2.7921 -1.6971 -0.2494
   90SAPC   C15 8529   0.148   5.150   0.418 -0.3856  0.9505  0.4531
   90SAPC  H15A 8530   0.208   5.197   0.342 -1.9563  2.3700  0.0338
   90SAPC  H15B 8531   0.217   5.099   0.483  0.1066  0.9161 -0.0989
   90SAPC  H15C 8532   0.101   5.076   0.355  0.9711  0.6803 -0.2727
   90SAPC   C11 8533  -0.095   5.453   0.412  0.4217 -0.0819  0.4597
   90SAPC  H11A 8534  -0.163   5.443   0.500  0.2010 -0.8322  0.2150
   90SAPC  H11B 8535  -0.176   5.478   0.341  0.1184  0.5114  1.0036
   90SAPC     P 8536   0.048   5.655   0.331  0.3576 -0.0428  0.0176
   90SAPC   O13 8537  -0.064   5.731   0.270  0.2331  0.1558 -0.1183
   90SAPC   O14 8538   0.158   5.734   0.395  0.5880 -0.3699  0.7104
   90SAPC   O12 8539  -0.012   5.563   0.438 -0.3630  0.1235 -0.4278
   90SAPC   O11 8540   0.113   5.551   0.229  0.2878  0.2066 -0.0438
   90SAPC    C1 8541   0.245   5.578   0.169  0.5938 -0.6065  0.0971
   90SAPC    HA 8542   0.320   5.599   0.249  1.5203 -0.8123 -0.6984
   90SAPC    HB 8543   0.288   5.483   0.133  1.0867 -1.4798  2.7508
   90SAPC    C2 8544   0.249   5.680   0.048  0.0949  0.2476 -0.2895
   90SAPC    HS 8545   0.273   5.778   0.095 -0.2087 -1.0077  2.6440
   90SAPC   O21 8546   0.125   5.676  -0.015 -0.5004  0.2768 -0.1689
   90SAPC   C21 8547   0.073   5.788  -0.055  0.2528 -0.5075  0.5852
   90SAPC   O22 8548   0.128   5.896  -0.046  0.5229  0.0256  0.2189
   90SAPC   C22 8549  -0.056   5.769  -0.136  0.1193  0.3345  0.0372
   90SAPC   H2R 8550  -0.099   5.675  -0.096 -0.2325 -0.7950 -2.7010
   90SAPC   H2S 8551  -0.120   5.856  -0.113  0.0295 -0.0089  1.1340
   90SAPC    C3 8552   0.368   5.653  -0.059  0.2977 -0.1197  0.3518
   90SAPC    HX 8553   0.351   5.554  -0.108  2.6984 -1.2813  1.6730
   90SAPC    HY 8554   0.459   5.640   0.005  0.6296 -1.1270 -0.2908
   90SAPC   O31 8555   0.360   5.768  -0.145  0.2088  0.3750 -0.0994
   90SAPC   C31 8556   0.433   5.755  -0.258 -0.1868  0.1373  0.4580
   90SAPC   O32 8557   0.479   5.646  -0.294  0.2587  0.3646 -0.1660
   90SAPC   C32 8558   0.425   5.880  -0.340  0.0740 -0.3818 -0.3180
   90SAPC   H2X 8559   0.400   5.964  -0.273  0.7697  0.1336 -0.6896
   90SAPC   H2Y 8560   0.346   5.866  -0.417 -0.0691  3.8793 -1.1956
   90SAPC   C23 8561  -0.031   5.761  -0.290  0.0492  0.4517  0.2298
   90SAPC   H3R 8562   0.007   5.659  -0.314 -1.2826  0.1256 -0.6005
   90SAPC   H3S 8563   0.051   5.833  -0.309  0.2058  0.3225  0.4048
   90SAPC   C24 8564  -0.146   5.782  -0.391  0.4725 -0.5185 -0.3065
   90SAPC   H4R 8565  -0.104   5.800  -0.492 -0.1784 -0.9476 -0.6642
   90SAPC   H4S 8566  -0.207   5.869  -0.358  1.5257 -0.5234  1.8352
   90SAPC   C25 8567  -0.233   5.660  -0.404 -0.4929  0.2575  0.1629
   90SAPC   H5R 8568  -0.290   5.637  -0.313  0.9845 -1.3118  0.7466
   90SAPC   C26 8569  -0.235   5.564  -0.501 -0.4293 -0.1126  0.7103
   90SAPC   H6R 8570  -0.307   5.486  -0.472 -0.1396 -0.2197  1.1607
   90SAPC   C27 8571  -0.162   5.549  -0.633 -0.0830 -0.3745  0.3423
   90SAPC   H7R 8572  -0.135   5.444  -0.657  0.6232  0.4262 -2.7768
   90SAPC   H7S 8573  -0.067   5.605  -0.624 -0.2115  0.0950 -1.0112
   90SAPC   C28 8574  -0.268   5.598  -0.738 -0.2794  0.0246 -0.4753
   90SAPC   H8R 8575  -0.263   5.707  -0.751 -1.0370 -0.2005 -3.0098
   90SAPC   C29 8576  -0.354   5.535  -0.815 -0.0570  0.7142 -0.5638
   90SAPC   H9R 8577  -0.415   5.600  -0.880 -2.5859  0.7032  1.6214
   90SAPC  C210 8578  -0.390   5.390  -0.818  0.1092  0.0170  0.2897
   90SAPC  H10R 8579  -0.327   5.334  -0.746 -0.3936  0.9128  1.4509
   90SAPC  H10S 8580  -0.368   5.345  -0.917 -1.3528  0.3217 -0.1917
   90SAPC  C211 8581  -0.537   5.386  -0.792 -0.5103  0.4895  0.6923
   90SAPC  H11R 8582  -0.566   5.424  -0.692  2.1489  0.1738  1.6689
   90SAPC  C212 8583  -0.629   5.333  -0.877 -0.1783  0.4628  0.6150
   90SAPC  H12R 8584  -0.731   5.322  -0.838 -1.2599  0.0551 -2.1118
   90SAPC  C213 8585  -0.607   5.266  -1.016 -0.8018  0.4781 -0.3348
   90SAPC  H13R 8586  -0.515   5.206  -0.997 -1.0371  0.0073 -0.6631
   90SAPC  H13S 8587  -0.588   5.347  -1.089 -2.3156 -0.7684 -2.2129
   90SAPC  C214 8588  -0.722   5.191  -1.062  0.3747  0.1084  0.3806
   90SAPC  H14R 8589  -0.816   5.247  -1.068  0.4452  0.4067  1.7463
   90SAPC  C215 8590  -0.717   5.063  -1.112 -0.6656 -0.0112 -1.0854
   90SAPC  H15R 8591  -0.807   5.018  -1.157  0.3614 -1.6744 -1.5702
   90SAPC  C216 8592  -0.594   4.978  -1.127  0.2680 -0.6232 -0.8437
   90SAPC  H16R 8593  -0.599   4.882  -1.071 -1.3020  0.0687  0.2826
   90SAPC  H16S 8594  -0.510   5.040  -1.090 -0.4680  0.8120 -1.4799
   90SAPC  C217 8595  -0.569   4.953  -1.279  0.2710 -0.5293  0.1317
   90SAPC  H17R 8596  -0.559   5.050  -1.334 -0.8101  0.8315  2.2074
   90SAPC  H17S 8597  -0.660   4.902  -1.316 -0.0116 -0.5706  0.8638
   90SAPC  C218 8598  -0.450   4.871  -1.321  0.2130 -0.1751  0.0534
   90SAPC  H18R 8599  -0.460   4.833  -1.425 -3.0425  1.2651 -0.2924
   90SAPC  H18S 8600  -0.450   4.780  -1.257 -0.7012 -1.0518 -1.1472
   90SAPC  C219 8601  -0.311   4.949  -1.311  0.5657  0.3156 -0.4089
   90SAPC  H19R 8602  -0.314   4.992  -1.209 -2.3085 -0.9984  0.1444
   90SAPC  H19S 8603  -0.309   5.034  -1.383 -0.1173  0.4028 -0.3276
   90SAPC  C220 8604  -0.183   4.857  -1.321  0.0057  0.2437  0.1037
   90SAPC  H20R 8605  -0.171   4.791  -1.409 -1.8056 -2.2278  1.6051
   90SAPC  H20S 8606  -0.198   4.781  -1.242  1.5743 -0.8670 -0.6179
   90SAPC  H20T 8607  -0.091   4.920  -1.315  0.6411 -0.7651  1.5081
   90SAPC   C33 8608   0.557   5.921  -0.419  0.6059 -0.1771 -0.1362
   90SAPC   H3X 8609   0.570   5.841  -0.496 -0.3207 -0.2666 -0.2100
   90SAPC   H3Y 8610   0.650   5.918  -0.359 -0.1731  1.8379  1.2601
   90SAPC   C34 8611   0.539   6.056  -0.491  0.2896 -0.1678 -0.6594
   90SAPC   H4X 8612   0.617   6.126  -0.454 -0.1585 -0.2507  0.4606
   90SAPC   H4Y 8613   0.440   6.092  -0.458  0.0761 -2.5187  1.5683
   90SAPC   C35 8614   0.550   6.041  -0.643  0.5589  0.1021  0.2097
   90SAPC   H5X 8615   0.536   6.144  -0.682  0.0450  0.7723  2.0757
   90SAPC   H5Y 8616   0.465   5.989  -0.692  0.3800  1.2846 -0.7984
   90SAPC   C36 8617   0.686   5.987  -0.689  0.4130 -0.5171 -0.5804
   90SAPC   H6X 8618   0.704   5.882  -0.656  1.2746  0.2309  1.4755
   90SAPC   H6Y 8619   0.755   6.059  -0.641 -1.3354 -0.1426  1.4884
   90SAPC   C37 8620   0.698   5.987  -0.836 -0.2854 -0.0793  0.0602
   90SAPC   H7X 8621   0.802   5.984  -0.876 -0.0458  0.9664  0.5552
   90SAPC   H7Y 8622   0.650   6.082  -0.869 -0.8062 -0.7575 -1.1657
   90SAPC   C38 8623   0.623   5.871  -0.906  0.2918  0.1408  0.2617
   90SAPC   H8X 8624   0.523   5.865  -0.858 -0.6046 -0.6352 -1.6196
   90SAPC   H8Y 8625   0.682   5.781  -0.877 -0.7363  0.0313  2.2109
   90SAPC   C39 8626   0.601   5.894  -1.055 -0.5345 -0.2721 -0.5178
   90SAPC   H9X 8627   0.704   5.896  -1.097 -1.6127  0.4692 -3.3210
   90SAPC   H9Y 8628   0.547   5.990  -1.067  0.5070  0.5049  0.6119
   90SAPC  C310 8629   0.512   5.789  -1.119 -0.8456  0.1913  0.6503
   90SAPC  H10X 8630   0.407   5.790  -1.083 -0.6467 -2.0986  1.4666
   90SAPC  H10Y 8631   0.545   5.685  -1.096 -1.1318 -0.0158  0.1436
   90SAPC  C311 8632   0.498   5.803  -1.268  0.2340  0.2731  0.1196
   90SAPC  H11X 8633   0.596   5.803  -1.320  0.2647 -1.8972  0.1194
   90SAPC  H11Y 8634   0.459   5.906  -1.286  2.4024  1.1609  0.1824
   90SAPC  C312 8635   0.409   5.692  -1.317  0.4031  0.2963  0.2467
   90SAPC  H12X 8636   0.309   5.697  -1.270  0.4848 -3.0040  1.0694
   90SAPC  H12Y 8637   0.437   5.588  -1.287 -1.4529  0.3997  2.6136
   90SAPC  C313 8638   0.391   5.686  -1.470 -0.0615 -0.0896 -0.4194
   90SAPC  H13X 8639   0.344   5.587  -1.488 -1.4769  0.4307  0.2854
   90SAPC  H13Y 8640   0.493   5.677  -1.513  0.1983 -0.3736  0.2386
   90SAPC  C314 8641   0.307   5.802  -1.527 -0.2956 -1.5179  0.1590
   90SAPC  H14X 8642   0.330   5.893  -1.467  3.3687 -2.1532 -0.0490
   90SAPC  H14Y 8643   0.199   5.778  -1.518 -0.7367  0.4314  0.6276
   90SAPC  C315 8644   0.342   5.828  -1.677  0.4577 -0.8410 -0.6780
   90SAPC  H15X 8645   0.289   5.745  -1.730 -0.2466 -0.6964 -0.2191
   90SAPC  H15Y 8646   0.450   5.840  -1.700  1.2499 -0.5006  2.7281
   90SAPC  C316 8647   0.266   5.955  -1.719  0.1088 -0.7521  0.9536
   90SAPC  H16X 8648   0.317   6.047  -1.683 -0.2365  0.5971 -1.7519
   90SAPC  H16Y 8649   0.161   5.940  -1.687 -1.0230  1.5662 -1.2986
   90SAPC  C317 8650   0.252   5.962  -1.881  0.0264 -0.3836 -0.8047
   90SAPC  H17X 8651   0.211   5.871  -1.929 -0.1118 -0.6127 -0.2502
   90SAPC  H17Y 8652   0.357   5.979  -1.915  1.0039 -2.7300  0.7682
   90SAPC  C318 8653   0.160   6.078  -1.923 -0.1768  0.8292  0.6362
   90SAPC  H18X 8654   0.143   6.091  -2.032 -0.6856 -0.4267  0.5495
   90SAPC  H18Y 8655   0.183   6.176  -1.876  1.7989 -0.0488  1.6168
   90SAPC  H18Z 8656   0.061   6.051  -1.880 -0.6499  0.0471 -0.8754
   91SAPC     N 8657   4.575   5.245   0.131  0.4897 -0.3477 -0.3507
   91SAPC   C12 8658   4.421   5.234   0.100 -0.2650 -0.3277 -0.9708
   91SAPC  H12A 8659   4.402   5.275   0.002  1.9199  0.9971 -0.9180
   91SAPC  H12B 8660   4.374   5.308   0.164  1.5890  0.7744 -0.7823
   91SAPC   C13 8661   4.597   5.260   0.275 -0.1858  0.1541 -0.9385
   91SAPC  H13A 8662   4.609   5.164   0.324  1.2027  0.3706 -0.8388
   91SAPC  H13B 8663   4.691   5.311   0.284 -0.2584  0.2542 -0.7462
   91SAPC  H13C 8664   4.517   5.318   0.318 -2.5803 -2.7159 -1.1964
   91SAPC   C14 8665   4.645   5.122   0.087  0.2049  0.0342  0.0126
   91SAPC  H14A 8666   4.750   5.119   0.112  0.0375 -1.6090  0.6326
   91SAPC  H14B 8667   4.603   5.036   0.137 -0.8530  0.4349 -0.1590
   91SAPC  H14C 8668   4.643   5.099  -0.018 -0.0871 -1.9878  0.4291
   91SAPC   C15 8669   4.610   5.371   0.072  0.2564  1.0182 -0.0899
   91SAPC  H15A 8670   4.576   5.454   0.132  2.5443  1.5826  0.5360
   91SAPC  H15B 8671   4.718   5.374   0.073  0.5178 -2.4163 -1.8711
   91SAPC  H15C 8672   4.573   5.385  -0.029  0.6008 -0.6149 -0.4801
   91SAPC   C11 8673   4.349   5.100   0.120  0.5385  0.7112  0.9546
   91SAPC  H11A 8674   4.384   5.044   0.031  1.1284  0.4265  1.3632
   91SAPC  H11B 8675   4.242   5.112   0.091  1.0105  2.2275 -0.3292
   91SAPC     P 8676   4.347   4.861   0.220  0.2480  0.2516 -0.2363
   91SAPC   O13 8677   4.460   4.806   0.147 -0.1904  0.4512  0.0261
   91SAPC   O14 8678   4.332   4.808   0.355 -0.0047 -0.5283  0.5487
   91SAPC   O12 8679   4.372   5.020   0.233  0.1015  0.9240  0.1098
   91SAPC   O11 8680   4.217   4.848   0.138  0.3309 -0.4849 -0.4116
   91SAPC    C1 8681   4.170   4.729   0.089  0.3910  0.4396  0.1197
   91SAPC    HA 8682   4.246   4.664   0.042  0.5369  0.9075 -0.3052
   91SAPC    HB 8683   4.108   4.674   0.162  0.2105  0.2200 -0.1949
   91SAPC    C2 8684   4.078   4.752  -0.025 -0.1005  0.5751  0.2257
   91SAPC    HS 8685   3.978   4.764   0.023 -0.4559 -1.4411  0.0571
   91SAPC   O21 8686   4.080   4.645  -0.122  0.4163  0.0401  0.2093
   91SAPC   C21 8687   3.963   4.595  -0.159 -0.2614 -0.1171  0.2685
   91SAPC   O22 8688   3.852   4.642  -0.135 -0.5749 -0.3275 -0.0294
   91SAPC   C22 8689   3.976   4.467  -0.242  0.0321 -0.5895 -0.2009
   91SAPC   H2R 8690   4.066   4.467  -0.308 -0.9613 -0.3193 -1.6151
   91SAPC   H2S 8691   3.971   4.386  -0.166  0.1380 -0.1905  0.2319
   91SAPC    C3 8692   4.096   4.896  -0.092  0.3527  0.3718  0.2140
   91SAPC    HX 8693   4.204   4.899  -0.119  0.6236 -0.6865  1.0896
   91SAPC    HY 8694   4.076   4.980  -0.022  1.8057 -0.6582  1.9600
   91SAPC   O31 8695   4.006   4.906  -0.210 -0.7269 -0.0809 -0.5419
   91SAPC   C31 8696   4.029   5.020  -0.273  0.3944 -0.1966 -0.8109
   91SAPC   O32 8697   4.107   5.107  -0.241  0.2040  0.2951  0.3465
   91SAPC   C32 8698   3.940   5.029  -0.394 -0.3778 -0.2484  0.8670
   91SAPC   H2X 8699   3.855   4.960  -0.374 -2.2821  1.0931 -1.9197
   91SAPC   H2Y 8700   4.012   4.996  -0.472 -0.0579  0.7790  0.7106
   91SAPC   C23 8701   3.860   4.435  -0.338  0.4972 -0.5455  0.1472
   91SAPC   H3R 8702   3.760   4.448  -0.293  1.0555 -1.5646  1.7867
   91SAPC   H3S 8703   3.879   4.330  -0.369  0.2453 -0.2371 -1.1187
   91SAPC   C24 8704   3.851   4.534  -0.463  0.5606  0.0340  0.5484
   91SAPC   H4R 8705   3.857   4.638  -0.425  3.3129 -0.1091  0.7245
   91SAPC   H4S 8706   3.751   4.527  -0.510 -0.0005 -0.3313  1.7598
   91SAPC   C25 8707   3.952   4.500  -0.570  0.1873 -0.4633 -0.8825
   91SAPC   H5R 8708   3.935   4.399  -0.611 -1.3347 -0.6784  0.1817
   91SAPC   C26 8709   4.056   4.571  -0.612 -0.0743  0.6621 -1.0463
   91SAPC   H6R 8710   4.114   4.525  -0.694 -2.8874 -3.8783 -0.8208
   91SAPC   C27 8711   4.094   4.715  -0.575 -0.4359 -0.1234 -0.3874
   91SAPC   H7R 8712   4.007   4.775  -0.540 -1.7224  0.5988 -4.3165
   91SAPC   H7S 8713   4.129   4.774  -0.662  0.6502 -0.5341 -0.2528
   91SAPC   C28 8714   4.195   4.734  -0.463 -0.1721  1.0486 -0.1579
   91SAPC   H8R 8715   4.154   4.753  -0.363  0.4772  0.8472  0.1526
   91SAPC   C29 8716   4.333   4.740  -0.462  0.4268  1.2091 -0.1671
   91SAPC   H9R 8717   4.384   4.768  -0.368  1.8659  2.2299 -1.2071
   91SAPC  C210 8718   4.423   4.711  -0.581 -0.4111 -0.3186 -0.3944
   91SAPC  H10R 8719   4.394   4.623  -0.643 -0.6548 -1.9204  1.9016
   91SAPC  H10S 8720   4.517   4.667  -0.542 -0.2443 -0.9964 -1.4955
   91SAPC  C211 8721   4.444   4.849  -0.654  0.5549 -0.0308  0.5913
   91SAPC  H11R 8722   4.464   4.930  -0.582 -0.0236  0.0418  0.6752
   91SAPC  C212 8723   4.449   4.854  -0.790 -0.2801  0.2035  0.1205
   91SAPC  H12R 8724   4.469   4.955  -0.830  1.1199 -0.7265 -1.6670
   91SAPC  C213 8725   4.412   4.738  -0.877  0.7266 -0.1105 -0.5726
   91SAPC  H13R 8726   4.303   4.721  -0.861  0.8827 -0.5212  0.0942
   91SAPC  H13S 8727   4.465   4.645  -0.848  0.7919  0.1584  0.2032
   91SAPC  C214 8728   4.423   4.764  -1.023  0.7445 -0.6947  0.2532
   91SAPC  H14R 8729   4.359   4.851  -1.046  0.2432  0.0158  3.6759
   91SAPC  C215 8730   4.494   4.696  -1.105  0.3876  0.7742 -0.6372
   91SAPC  H15R 8731   4.497   4.733  -1.208  1.7725  0.7888 -0.6119
   91SAPC  C216 8732   4.564   4.563  -1.071  0.0146  0.3817 -0.4903
   91SAPC  H16R 8733   4.509   4.498  -1.000 -1.1050  2.0682  0.2533
   91SAPC  H16S 8734   4.657   4.591  -1.015 -1.0880  1.3613  0.9281
   91SAPC  C217 8735   4.595   4.473  -1.190 -0.1177  0.3946  0.3836
   91SAPC  H17R 8736   4.501   4.457  -1.246 -0.0084  1.1820 -0.0356
   91SAPC  H17S 8737   4.627   4.380  -1.137 -0.3356 -1.0346 -1.8616
   91SAPC  C218 8738   4.698   4.534  -1.281  0.0927 -0.3678  0.0632
   91SAPC  H18R 8739   4.797   4.531  -1.231  0.3548  2.5444 -0.1174
   91SAPC  H18S 8740   4.670   4.640  -1.298  0.8991 -0.3257 -1.1531
   91SAPC  C219 8741   4.707   4.468  -1.427  0.3019  0.7064  0.7215
   91SAPC  H19R 8742   4.813   4.481  -1.459 -0.4643  1.1048 -1.8694
   91SAPC  H19S 8743   4.634   4.514  -1.497  1.1336  0.2273 -0.5059
   91SAPC  C220 8744   4.673   4.315  -1.443 -0.5783 -0.4209 -0.0071
   91SAPC  H20R 8745   4.673   4.286  -1.550 -0.3768 -1.4758  0.2722
   91SAPC  H20S 8746   4.571   4.295  -1.402 -1.2209 -0.1633 -1.4154
   91SAPC  H20T 8747   4.749   4.252  -1.393 -1.1882 -0.1326  1.3285
   91SAPC   C33 8748   3.893   5.178  -0.424 -0.5976 -0.0220 -0.0942
   91SAPC   H3X 8749   3.968   5.249  -0.382 -1.9261 -0.2192  2.7906
   91SAPC   H3Y 8750   3.804   5.198  -0.361  0.0592  0.4076  0.7125
   91SAPC   C34 8751   3.892   5.199  -0.573 -1.3953  0.4074  0.9969
   91SAPC   H4X 8752   3.846   5.105  -0.610 -0.2534  0.2149  0.0214
   91SAPC   H4Y 8753   3.985   5.190  -0.632 -2.8367 -1.8237 -1.1281
   91SAPC   C35 8754   3.816   5.321  -0.615 -0.4856 -0.4629 -0.0689
   91SAPC   H5X 8755   3.889   5.405  -0.606 -3.0107  1.6567  2.5133
   91SAPC   H5Y 8756   3.740   5.348  -0.540  0.5210 -0.4487  0.9723
   91SAPC   C36 8757   3.768   5.307  -0.756  0.3552  0.5803  0.4136
   91SAPC   H6X 8758   3.692   5.227  -0.769  0.7713  0.1095  0.7887
   91SAPC   H6Y 8759   3.861   5.269  -0.803 -0.5058  0.5698 -1.3564
   91SAPC   C37 8760   3.730   5.438  -0.826  1.0418 -0.3067 -0.6759
   91SAPC   H7X 8761   3.809   5.510  -0.798  0.8091 -1.2458  2.8309
   91SAPC   H7Y 8762   3.637   5.472  -0.776  0.2871 -0.0652 -2.1592
   91SAPC   C38 8763   3.701   5.421  -0.978 -0.0084  0.6030 -0.3405
   91SAPC   H8X 8764   3.624   5.342  -0.986  1.1829 -0.8160  1.3810
   91SAPC   H8Y 8765   3.791   5.384  -1.032  0.5451  0.2203  0.8109
   91SAPC   C39 8766   3.659   5.552  -1.047  0.1597 -0.0679  0.3392
   91SAPC   H9X 8767   3.742   5.624  -1.068  0.6674 -0.4579  0.9844
   91SAPC   H9Y 8768   3.579   5.596  -0.984 -1.7087 -1.7732 -0.7427
   91SAPC  C310 8769   3.586   5.524  -1.181  0.2861  0.0570 -0.5600
   91SAPC  H10X 8770   3.487   5.474  -1.169 -0.9404  2.3277 -0.5827
   91SAPC  H10Y 8771   3.651   5.459  -1.243 -1.4567 -0.7008 -1.6812
   91SAPC  C311 8772   3.574   5.658  -1.264  0.5531  0.0829  0.0796
   91SAPC  H11X 8773   3.679   5.692  -1.278  1.1074 -1.7021 -0.3919
   91SAPC  H11Y 8774   3.511   5.730  -1.209 -1.1294  0.2625 -1.9494
   91SAPC  C312 8775   3.507   5.638  -1.402  0.8074 -0.1545 -0.4617
   91SAPC  H12X 8776   3.408   5.594  -1.380  2.4151 -2.6572  2.6049
   91SAPC  H12Y 8777   3.567   5.566  -1.462 -0.9546 -0.1012 -2.4097
   91SAPC  C313 8778   3.511   5.769  -1.477  0.8189  0.0788  1.2195
   91SAPC  H13X 8779   3.610   5.819  -1.479  0.0292  1.7013  0.8261
   91SAPC  H13Y 8780   3.451   5.840  -1.417 -0.5354  0.0735 -0.0789
   91SAPC  C314 8781   3.429   5.753  -1.609 -0.2029 -0.3744 -0.2750
   91SAPC  H14X 8782   3.393   5.855  -1.631  1.6678  0.3236 -0.2355
   91SAPC  H14Y 8783   3.336   5.699  -1.581  0.9694 -1.2380  2.3027
   91SAPC  C315 8784   3.514   5.719  -1.732  0.3575  0.3572 -0.3251
   91SAPC  H15X 8785   3.576   5.627  -1.723 -2.1057 -1.5106 -1.1940
   91SAPC  H15Y 8786   3.567   5.814  -1.755  0.8153  0.2037  0.0766
   91SAPC  C316 8787   3.426   5.696  -1.860 -0.4339 -0.0728  0.4852
   91SAPC  H16X 8788   3.356   5.781  -1.867  0.4805  0.6837  0.2653
   91SAPC  H16Y 8789   3.367   5.602  -1.858 -0.4495 -0.0753 -0.0048
   91SAPC  C317 8790   3.512   5.675  -1.978  0.0500  0.3822  0.7160
   91SAPC  H17X 8791   3.548   5.570  -1.969 -0.9107 -0.0467 -0.2047
   91SAPC  H17Y 8792   3.597   5.747  -1.973 -0.2744  0.6692  3.8908
   91SAPC  C318 8793   3.452   5.697  -2.113 -0.1933 -0.1997  0.1111
   91SAPC  H18X 8794   3.374   5.619  -2.129  1.9916 -2.8963  1.7218
   91SAPC  H18Y 8795   3.528   5.689  -2.193 -0.1587 -0.7191  0.1953
   91SAPC  H18Z 8796   3.417   5.802  -2.121 -1.4662 -0.6592 -0.7933
   92SAPC     N 8797   4.691   1.240   0.349  0.3377  0.2157 -0.2646
   92SAPC   C12 8798   4.671   1.386   0.294 -0.0667  0.1271  0.7802
   92SAPC  H12A 8799   4.725   1.389   0.200  0.4466  1.5838  1.0900
   92SAPC  H12B 8800   4.724   1.450   0.363 -0.7307  0.2473  1.1810
   92SAPC   C13 8801   4.599   1.144   0.278  0.6141 -0.5121  0.8324
   92SAPC  H13A 8802   4.592   1.050   0.330 -0.8455 -1.4254 -0.9257
   92SAPC  H13B 8803   4.499   1.185   0.285  0.6606 -0.5632  2.0342
   92SAPC  H13C 8804   4.625   1.140   0.174  0.3805  3.8649  0.3863
   92SAPC   C14 8805   4.828   1.195   0.331  0.8242  0.3110 -0.1824
   92SAPC  H14A 8806   4.851   1.179   0.227  0.6078 -0.1002 -0.1706
   92SAPC  H14B 8807   4.902   1.259   0.377  0.0849 -0.5509  2.4144
   92SAPC  H14C 8808   4.831   1.097   0.377  1.0893  0.1630 -0.5136
   92SAPC   C15 8809   4.663   1.236   0.499  0.0365 -0.1121 -0.8084
   92SAPC  H15A 8810   4.746   1.274   0.557  0.4714 -0.8122 -0.9662
   92SAPC  H15B 8811   4.581   1.298   0.532  0.5609  0.4122 -0.4616
   92SAPC  H15C 8812   4.647   1.138   0.541  1.3889  0.5982  1.5983
   92SAPC   C11 8813   4.528   1.444   0.285 -0.5227 -0.1054 -0.3254
   92SAPC  H11A 8814   4.530   1.549   0.247  1.5005 -0.2793 -0.8311
   92SAPC  H11B 8815   4.495   1.447   0.390 -0.6444  3.0060 -0.3587
   92SAPC     P 8816   4.438   1.331   0.055 -0.0497 -0.2197 -0.5031
   92SAPC   O13 8817   4.567   1.285   0.013  0.1490  0.0986 -0.0983
   92SAPC   O14 8818   4.328   1.243   0.023  0.4200  0.5815  0.0816
   92SAPC   O12 8819   4.435   1.361   0.215  0.0335 -0.2067 -0.1839
   92SAPC   O11 8820   4.417   1.466  -0.018 -0.5133  0.3443 -0.6285
   92SAPC    C1 8821   4.329   1.569   0.029 -0.0338  0.1478  0.9111
   92SAPC    HA 8822   4.360   1.598   0.131  1.2379  0.4597  0.4647
   92SAPC    HB 8823   4.340   1.657  -0.038 -1.0832 -0.8065 -0.6018
   92SAPC    C2 8824   4.179   1.529   0.019  0.5972  1.0902  0.5384
   92SAPC    HS 8825   4.156   1.447   0.090  0.1710  1.2218  0.5543
   92SAPC   O21 8826   4.168   1.477  -0.119  0.7636  0.4454 -0.5594
   92SAPC   C21 8827   4.057   1.406  -0.141 -0.2034  0.9893  0.4785
   92SAPC   O22 8828   3.972   1.377  -0.061  0.0591 -0.1881 -0.5141
   92SAPC   C22 8829   4.061   1.357  -0.282  0.2933  0.7858  0.5854
   92SAPC   H2R 8830   4.097   1.434  -0.353 -1.8313 -0.6137 -2.2414
   92SAPC   H2S 8831   4.139   1.278  -0.280 -0.5282 -0.0845 -0.2467
   92SAPC    C3 8832   4.077   1.640   0.048  0.4777 -0.4877  0.1242
   92SAPC    HX 8833   4.081   1.670   0.155 -0.9552 -0.9472  0.3175
   92SAPC    HY 8834   3.974   1.604   0.033  0.3596  0.0743 -0.4547
   92SAPC   O31 8835   4.111   1.748  -0.044 -0.3842  0.4033  0.0169
   92SAPC   C31 8836   4.022   1.775  -0.140 -0.3006  0.2808  0.1194
   92SAPC   O32 8837   3.929   1.698  -0.166  0.1402 -0.1040  0.4182
   92SAPC   C32 8838   4.055   1.905  -0.219 -0.0189  0.1650  0.0108
   92SAPC   H2X 8839   4.001   1.981  -0.160 -0.2245  0.1305 -0.1333
   92SAPC   H2Y 8840   4.003   1.885  -0.315 -2.2978 -2.0461  1.5682
   92SAPC   C23 8841   3.931   1.295  -0.345  0.2481 -0.2582 -0.1604
   92SAPC   H3R 8842   3.881   1.239  -0.263  1.6645  1.0662  1.7108
   92SAPC   H3S 8843   3.969   1.227  -0.425 -3.1335 -0.0728 -2.0998
   92SAPC   C24 8844   3.828   1.391  -0.404 -0.3505 -0.6307  0.7179
   92SAPC   H4R 8845   3.781   1.445  -0.319 -1.9456  1.7391 -1.5276
   92SAPC   H4S 8846   3.746   1.324  -0.438 -0.5860 -0.6325  1.2772
   92SAPC   C25 8847   3.883   1.481  -0.506 -0.1737 -0.5095  0.7294
   92SAPC   H5R 8848   3.935   1.570  -0.467  0.9396  1.2810 -4.0951
   92SAPC   C26 8849   3.857   1.473  -0.649 -0.3091 -0.2111 -0.5531
   92SAPC   H6R 8850   3.901   1.546  -0.718 -1.1645 -0.6215 -1.5520
   92SAPC   C27 8851   3.776   1.369  -0.712  0.7122  0.5401 -0.3712
   92SAPC   H7R 8852   3.769   1.279  -0.649 -1.7687  0.4257 -0.7018
   92SAPC   H7S 8853   3.829   1.335  -0.803 -0.2266  2.3174 -1.6519
   92SAPC   C28 8854   3.642   1.423  -0.757 -0.4703 -0.7098 -0.3860
   92SAPC   H8R 8855   3.572   1.414  -0.672 -3.3686  0.2942 -2.5068
   92SAPC   C29 8856   3.604   1.498  -0.866  0.0470  0.1582  0.2277
   92SAPC   H9R 8857   3.501   1.535  -0.876 -0.3557 -0.4484  1.8619
   92SAPC  C210 8858   3.695   1.536  -0.978 -0.5104  0.3351 -0.1270
   92SAPC  H10R 8859   3.797   1.555  -0.937  0.2164  1.2094 -2.2057
   92SAPC  H10S 8860   3.668   1.634  -1.022  0.9011 -0.2103 -2.4048
   92SAPC  C211 8861   3.702   1.431  -1.083 -0.2507  0.2971 -0.2498
   92SAPC  H11R 8862   3.704   1.328  -1.044 -2.1784  0.3184 -0.0097
   92SAPC  C212 8863   3.692   1.437  -1.217 -1.3893 -0.2694  0.8434
   92SAPC  H12R 8864   3.704   1.347  -1.279  0.5963  0.7474 -0.3597
   92SAPC  C213 8865   3.682   1.565  -1.294  0.4844  0.3079  0.0582
   92SAPC  H13R 8866   3.751   1.575  -1.380 -1.3385  1.1407 -1.3709
   92SAPC  H13S 8867   3.707   1.654  -1.231 -1.1058  0.4332  0.5568
   92SAPC  C214 8868   3.536   1.584  -1.349  0.0903 -0.1895 -0.0468
   92SAPC  H14R 8869   3.454   1.617  -1.284  0.2044 -1.9924  1.0611
   92SAPC  C215 8870   3.493   1.583  -1.475 -0.3341  0.2072 -0.0285
   92SAPC  H15R 8871   3.388   1.593  -1.503  0.1584  1.6873 -1.5243
   92SAPC  C216 8872   3.586   1.565  -1.588  0.8262  0.6494  0.7357
   92SAPC  H16R 8873   3.604   1.455  -1.592 -3.6020 -0.3436 -4.8064
   92SAPC  H16S 8874   3.686   1.611  -1.570  0.7145  0.8856  0.7625
   92SAPC  C217 8875   3.536   1.605  -1.730 -0.0200  0.6469 -0.8413
   92SAPC  H17R 8876   3.628   1.598  -1.792  0.2287  3.0994 -0.8556
   92SAPC  H17S 8877   3.513   1.713  -1.740 -1.4831  0.7729  2.6302
   92SAPC  C218 8878   3.419   1.517  -1.784 -0.4424  0.0849 -0.6634
   92SAPC  H18R 8879   3.330   1.547  -1.724  0.7835 -0.7451  1.7225
   92SAPC  H18S 8880   3.441   1.410  -1.761 -0.4260 -0.2159 -2.0287
   92SAPC  C219 8881   3.393   1.531  -1.937  0.4135  0.7212  0.0557
   92SAPC  H19R 8882   3.303   1.466  -1.949  1.8647 -1.5246  0.7567
   92SAPC  H19S 8883   3.483   1.493  -1.991 -0.9849  1.1764 -2.8073
   92SAPC  C220 8884   3.365   1.673  -1.974 -0.0068 -0.7919 -0.0229
   92SAPC  H20R 8885   3.287   1.711  -1.904  1.1987  1.2623  0.2848
   92SAPC  H20S 8886   3.339   1.689  -2.081 -1.0697  3.7904  0.7037
   92SAPC  H20T 8887   3.459   1.729  -1.958 -0.2851 -0.2867 -0.1371
   92SAPC   C33 8888   4.206   1.936  -0.245  0.2895 -0.8063 -0.6184
   92SAPC   H3X 8889   4.265   1.885  -0.166  0.3064 -0.6058 -0.5007
   92SAPC   H3Y 8890   4.229   2.043  -0.227  2.9970 -1.2422 -1.0458
   92SAPC   C34 8891   4.251   1.891  -0.383  0.3345  0.5784  0.5107
   92SAPC   H4X 8892   4.349   1.938  -0.407 -0.3522  1.3685 -0.9010
   92SAPC   H4Y 8893   4.181   1.916  -0.466  1.0559  0.1384 -0.2488
   92SAPC   C35 8894   4.276   1.738  -0.387 -0.9709  1.0428  0.1167
   92SAPC   H5X 8895   4.180   1.692  -0.353  0.5617 -0.9662  1.9867
   92SAPC   H5Y 8896   4.349   1.702  -0.312 -0.8827 -0.0308 -0.4600
   92SAPC   C36 8897   4.322   1.677  -0.519  0.2201 -0.9266 -0.7168
   92SAPC   H6X 8898   4.351   1.569  -0.519  2.1515 -0.4370 -1.1928
   92SAPC   H6Y 8899   4.419   1.729  -0.535 -1.0605  1.6576 -0.4552
   92SAPC   C37 8900   4.235   1.708  -0.641  0.5001  0.4942 -0.0493
   92SAPC   H7X 8901   4.243   1.815  -0.671 -0.9249 -0.2323 -3.4795
   92SAPC   H7Y 8902   4.131   1.690  -0.606  0.7443 -0.8448  0.0298
   92SAPC   C38 8903   4.281   1.630  -0.764 -0.7694  0.2791  0.3838
   92SAPC   H8X 8904   4.322   1.537  -0.718 -0.8673  0.5088  0.9363
   92SAPC   H8Y 8905   4.368   1.678  -0.815 -0.2319  0.6438  1.5955
   92SAPC   C39 8906   4.170   1.616  -0.872  0.4151 -0.0694  0.2627
   92SAPC   H9X 8907   4.131   1.719  -0.888  3.3091  1.7566  3.5628
   92SAPC   H9Y 8908   4.082   1.564  -0.829  1.1717 -1.7093 -0.1039
   92SAPC  C310 8909   4.222   1.541  -0.995  0.3232  0.2967 -0.2572
   92SAPC  H10X 8910   4.258   1.438  -0.976  0.4804  0.4232  0.1448
   92SAPC  H10Y 8911   4.313   1.589  -1.039  1.7790 -2.5242 -0.5632
   92SAPC  C311 8912   4.109   1.538  -1.097 -0.4149  1.2777  0.1927
   92SAPC  H11X 8913   4.027   1.610  -1.078 -0.3164  2.2414 -2.5455
   92SAPC  H11Y 8914   4.061   1.438  -1.092 -0.8428  1.4236 -0.6841
   92SAPC  C312 8915   4.152   1.553  -1.239 -0.0997 -0.1506  0.1182
   92SAPC  H12X 8916   4.227   1.478  -1.271  1.0553  0.4574  1.2860
   92SAPC  H12Y 8917   4.204   1.652  -1.242  2.3043 -1.1748  3.1201
   92SAPC  C313 8918   4.042   1.558  -1.343 -0.1172 -0.7014  0.0014
   92SAPC  H13X 8919   3.976   1.645  -1.324 -0.0129 -0.0371 -2.3518
   92SAPC  H13Y 8920   3.990   1.459  -1.341 -0.4466 -0.5260  0.2108
   92SAPC  C314 8921   4.095   1.577  -1.485  0.2534  0.0381  0.5841
   92SAPC  H14X 8922   4.177   1.506  -1.508 -0.3124 -0.4270 -0.0479
   92SAPC  H14Y 8923   4.134   1.680  -1.492  1.8624 -0.6122 -0.9971
   92SAPC  C315 8924   3.982   1.548  -1.588 -0.1217 -0.5288 -0.0117
   92SAPC  H15X 8925   3.902   1.617  -1.552  1.1701  0.6742  0.6505
   92SAPC  H15Y 8926   3.944   1.444  -1.578  2.3253 -1.2628  3.2425
   92SAPC  C316 8927   4.029   1.573  -1.731 -0.2383 -0.3561  0.1017
   92SAPC  H16X 8928   4.118   1.507  -1.739 -0.3898 -0.7607  1.5376
   92SAPC  H16Y 8929   4.056   1.680  -1.745  0.6681 -0.8897 -3.0420
   92SAPC  C317 8930   3.927   1.533  -1.836  0.2895 -0.2933  0.4830
   92SAPC  H17X 8931   3.932   1.606  -1.920  0.3379 -1.0106 -0.1471
   92SAPC  H17Y 8932   3.825   1.548  -1.794  0.7185 -0.5295  1.6408
   92SAPC  C318 8933   3.942   1.389  -1.886 -0.5015  0.0445  0.2432
   92SAPC  H18X 8934   3.942   1.322  -1.797 -1.6284 -1.0858 -0.5685
   92SAPC  H18Y 8935   4.037   1.362  -1.936  0.4020  1.4332  1.1489
   92SAPC  H18Z 8936   3.853   1.362  -1.946 -2.3721  2.0952  1.9281
   93SAPC     N 8937   3.477   5.165   8.408 -0.5170 -0.2144  0.4022
   93SAPC   C12 8938   3.475   5.314   8.441 -0.4850 -0.4015 -0.0862
   93SAPC  H12A 8939   3.417   5.368   8.368 -0.0591  0.1765 -0.0050
   93SAPC  H12B 8940   3.572   5.360   8.430 -0.2426 -1.2039 -1.4302
   93SAPC   C13 8941   3.587   5.100   8.490 -0.6624 -0.4389  0.7674
   93SAPC  H13A 8942   3.561   5.098   8.595 -2.7244 -1.4503  0.2836
   93SAPC  H13B 8943   3.625   5.006   8.453 -0.9717 -0.9766  1.7857
   93SAPC  H13C 8944   3.674   5.164   8.478 -1.7267  1.0544  0.7209
   93SAPC   C14 8945   3.352   5.094   8.448 -0.3439 -0.0694  0.1389
   93SAPC  H14A 8946   3.348   5.099   8.556  0.0343  0.1390  0.1455
   93SAPC  H14B 8947   3.258   5.144   8.427 -0.9197 -1.0711  0.2370
   93SAPC  H14C 8948   3.347   4.993   8.410 -2.1191  0.0315  0.0033
   93SAPC   C15 8949   3.512   5.153   8.265 -0.5883  0.2747 -0.6340
   93SAPC  H15A 8950   3.582   5.231   8.241  0.8329 -0.9063 -0.4495
   93SAPC  H15B 8951   3.566   5.060   8.254 -0.0877  0.3317  1.0963
   93SAPC  H15C 8952   3.429   5.156   8.195 -1.4971  1.7320  0.4405
   93SAPC   C11 8953   3.419   5.353   8.581 -0.5262  0.0959  0.5748
   93SAPC  H11A 8954   3.469   5.446   8.616 -0.5946  1.1811 -1.9828
   93SAPC  H11B 8955   3.459   5.278   8.653  2.0248 -0.0230 -0.8443
   93SAPC     P 8956   3.209   5.492   8.512  0.2234 -0.0383  0.4596
   93SAPC   O13 8957   3.173   5.464   8.370 -0.3019  0.0319  0.3190
   93SAPC   O14 8958   3.103   5.528   8.602 -0.5892 -0.3746 -0.2348
   93SAPC   O12 8959   3.282   5.363   8.574  0.1555 -0.1189 -0.2602
   93SAPC   O11 8960   3.322   5.602   8.516  0.2194  0.1667  0.2666
   93SAPC    C1 8961   3.303   5.731   8.464 -0.2108  0.6314 -0.2844
   93SAPC    HA 8962   3.197   5.764   8.456  0.0643  2.1495  1.7256
   93SAPC    HB 8963   3.346   5.795   8.543  0.7412 -0.6500  0.2759
   93SAPC    C2 8964   3.369   5.764   8.326 -0.0459  0.1151 -0.4887
   93SAPC    HS 8965   3.347   5.871   8.306  1.2802  0.3743 -0.6834
   93SAPC   O21 8966   3.307   5.676   8.225  0.0355 -0.7517 -0.5708
   93SAPC   C21 8967   3.188   5.713   8.196  0.4576  0.6247 -0.5314
   93SAPC   O22 8968   3.130   5.811   8.230 -0.3363 -0.4795  0.1759
   93SAPC   C22 8969   3.139   5.633   8.086 -0.3771 -0.1532 -0.0816
   93SAPC   H2R 8970   3.216   5.561   8.049  0.2787  1.0183 -1.0916
   93SAPC   H2S 8971   3.057   5.565   8.116  1.3704 -2.8082 -0.9524
   93SAPC    C3 8972   3.528   5.749   8.332 -0.2349  0.1398 -0.5905
   93SAPC    HX 8973   3.551   5.663   8.398 -1.2343  0.2927 -0.0233
   93SAPC    HY 8974   3.567   5.839   8.384 -0.2836  0.2604 -0.7605
   93SAPC   O31 8975   3.582   5.725   8.198 -0.7124  0.5982 -0.4448
   93SAPC   C31 8976   3.700   5.780   8.172  0.5131  0.3132 -1.3403
   93SAPC   O32 8977   3.772   5.840   8.250 -0.2753 -0.4516 -0.0565
   93SAPC   C32 8978   3.741   5.748   8.026 -0.0809 -0.0204 -0.1703
   93SAPC   H2X 8979   3.638   5.742   7.983  0.5822 -0.4017 -1.7754
   93SAPC   H2Y 8980   3.779   5.644   8.028 -0.6747 -0.2394  0.9942
   93SAPC   C23 8981   3.087   5.711   7.972 -0.5905 -0.4761 -0.0940
   93SAPC   H3R 8982   3.024   5.797   8.002  0.1803  0.6208 -1.4682
   93SAPC   H3S 8983   3.029   5.645   7.905 -1.4466 -0.3038  0.4651
   93SAPC   C24 8984   3.209   5.770   7.888  0.6593 -0.2427 -0.5884
   93SAPC   H4R 8985   3.259   5.849   7.949  2.0024 -2.6837  1.7085
   93SAPC   H4S 8986   3.147   5.807   7.804 -0.5769 -0.6161  0.1352
   93SAPC   C25 8987   3.309   5.668   7.843  0.0641 -0.1225 -0.2197
   93SAPC   H5R 8988   3.371   5.628   7.925 -0.0492  1.2149  0.5662
   93SAPC   C26 8989   3.351   5.654   7.719  0.0699  0.4933  0.0602
   93SAPC   H6R 8990   3.423   5.572   7.706  1.2425  1.0360  2.5620
   93SAPC   C27 8991   3.298   5.722   7.596  0.0385 -0.1491  0.5173
   93SAPC   H7R 8992   3.188   5.737   7.602  0.1381  0.0547  2.3582
   93SAPC   H7S 8993   3.312   5.655   7.508 -2.1438 -1.9262  1.4367
   93SAPC   C28 8994   3.368   5.853   7.575 -0.7539 -0.5975 -0.2624
   93SAPC   H8R 8995   3.468   5.862   7.619 -0.5241 -1.1208 -0.6522
   93SAPC   C29 8996   3.315   5.948   7.491 -0.7654 -0.1949  0.2449
   93SAPC   H9R 8997   3.374   6.040   7.477  0.1157 -0.1835  3.2664
   93SAPC  C210 8998   3.187   5.944   7.417  0.5139 -0.2262  0.8655
   93SAPC  H10R 8999   3.118   5.891   7.486  0.3638  1.3211  1.9553
   93SAPC  H10S 9000   3.204   5.883   7.325 -1.1078 -1.3137  1.2430
   93SAPC  C211 9001   3.125   6.076   7.373 -0.7591 -0.4265 -1.5850
   93SAPC  H11R 9002   3.160   6.168   7.423 -0.2627 -1.8669  0.8597
   93SAPC  C212 9003   3.025   6.079   7.287 -0.0529 -0.3949 -0.0366
   93SAPC  H12R 9004   2.985   6.178   7.262  2.2909  0.2968 -1.4626
   93SAPC  C213 9005   2.974   5.966   7.198 -0.6683 -0.2334  0.5763
   93SAPC  H13R 9006   2.871   5.983   7.163 -0.4488  0.2631  0.1557
   93SAPC  H13S 9007   2.958   5.877   7.262  1.6182 -0.8141  0.4505
   93SAPC  C214 9008   3.075   5.924   7.085 -0.6891 -0.7943 -0.3033
   93SAPC  H14R 9009   3.179   5.906   7.115  0.0015 -0.3203 -2.2339
   93SAPC  C215 9010   3.039   5.885   6.964 -0.8824 -0.0629  0.6428
   93SAPC  H15R 9011   3.111   5.844   6.891 -1.0885  0.3692  0.1969
   93SAPC  C216 9012   2.906   5.894   6.893 -0.3233 -0.1041  0.8040
   93SAPC  H16R 9013   2.823   5.941   6.948  0.3744 -0.9935  2.7011
   93SAPC  H16S 9014   2.878   5.792   6.859  0.3220  0.2584 -0.9318
   93SAPC  C217 9015   2.912   5.995   6.771 -0.9461 -0.0914  0.4351
   93SAPC  H17R 9016   2.899   6.100   6.806 -0.5571  0.9191 -2.2164
   93SAPC  H17S 9017   2.815   5.988   6.717 -0.7954 -2.0332  0.3646
   93SAPC  C218 9018   3.041   5.987   6.688  0.5908 -0.3676 -0.6243
   93SAPC  H18R 9019   3.058   5.883   6.654 -0.2233 -0.8972  0.5501
   93SAPC  H18S 9020   3.126   6.025   6.749 -0.5323  1.7489 -0.2714
   93SAPC  C219 9021   3.039   6.076   6.563 -0.4262  0.3139 -0.4207
   93SAPC  H19R 9022   3.047   6.183   6.593  2.6522  0.0449  0.0512
   93SAPC  H19S 9023   2.947   6.056   6.504 -1.2317 -1.4353  1.2935
   93SAPC  C220 9024   3.164   6.052   6.481  0.2283 -0.3448 -0.0392
   93SAPC  H20R 9025   3.250   6.042   6.552 -0.5314  1.1416  1.1708
   93SAPC  H20S 9026   3.181   6.144   6.422 -0.8763 -0.3092 -0.3128
   93SAPC  H20T 9027   3.152   5.960   6.421  0.7889 -0.6021  0.2351
   93SAPC   C33 9028   3.832   5.850   7.960 -0.3861  0.2452 -0.3366
   93SAPC   H3X 9029   3.926   5.870   8.016 -0.8572  0.9882  0.1996
   93SAPC   H3Y 9030   3.771   5.942   7.949 -3.0357 -0.7422  3.9187
   93SAPC   C34 9031   3.868   5.806   7.823  0.0089  0.3994  1.0494
   93SAPC   H4X 9032   3.787   5.817   7.748  1.0266 -1.1641 -0.3282
   93SAPC   H4Y 9033   3.888   5.697   7.823  1.9256  0.6993 -0.5503
   93SAPC   C35 9034   3.991   5.873   7.759  0.3496 -0.1045  0.2523
   93SAPC   H5X 9035   4.078   5.868   7.827  0.0089  1.7608  0.8946
   93SAPC   H5Y 9036   3.965   5.981   7.749  1.0726  0.0526 -0.0017
   93SAPC   C36 9037   4.026   5.810   7.624  0.1769  0.3122  0.4071
   93SAPC   H6X 9038   4.060   5.710   7.660 -1.2453 -0.3580 -0.0644
   93SAPC   H6Y 9039   4.118   5.859   7.587  0.2693  0.3426  0.6696
   93SAPC   C37 9040   3.929   5.824   7.505  0.3203 -0.2281  0.2229
   93SAPC   H7X 9041   3.822   5.803   7.526 -0.9258  2.3618 -2.8466
   93SAPC   H7Y 9042   3.971   5.759   7.425  1.9626 -1.5791  2.0750
   93SAPC   C38 9043   3.924   5.971   7.461  0.6278  0.0607  0.2376
   93SAPC   H8X 9044   4.023   6.010   7.432  0.0331  0.8147 -0.8687
   93SAPC   H8Y 9045   3.899   6.040   7.545  2.4138  0.7914  0.2043
   93SAPC   C39 9046   3.820   5.985   7.346  0.6865  0.1587  0.6999
   93SAPC   H9X 9047   3.721   5.951   7.384 -0.4784  1.2151 -1.2752
   93SAPC   H9Y 9048   3.842   5.927   7.254 -0.5041 -0.0202  0.5089
   93SAPC  C310 9049   3.806   6.135   7.305  0.0235 -0.1419  0.0048
   93SAPC  H10X 9050   3.899   6.166   7.252  1.1629 -0.0616  1.9554
   93SAPC  H10Y 9051   3.792   6.207   7.388  0.4184  0.8106 -0.7456
   93SAPC  C311 9052   3.699   6.148   7.197  0.6929  0.5817 -0.0001
   93SAPC  H11X 9053   3.713   6.076   7.113  1.0773  1.3707 -0.6218
   93SAPC  H11Y 9054   3.704   6.255   7.168 -0.5062  0.6069 -0.1923
   93SAPC  C312 9055   3.552   6.121   7.247  0.2171  0.3290  0.0655
   93SAPC  H12X 9056   3.535   6.149   7.353 -0.9640  0.1177 -0.0538
   93SAPC  H12Y 9057   3.529   6.013   7.241 -1.6929  0.6151  1.3487
   93SAPC  C313 9058   3.452   6.191   7.161  0.6735 -0.6536 -0.3129
   93SAPC  H13X 9059   3.463   6.302   7.157  1.0345 -0.6537  0.4900
   93SAPC  H13Y 9060   3.365   6.169   7.226  1.9014 -3.4799  0.5036
   93SAPC  C314 9061   3.434   6.151   7.021  0.0569  0.1390  0.6691
   93SAPC  H14X 9062   3.326   6.161   6.994 -0.4269 -0.1999  2.3352
   93SAPC  H14Y 9063   3.451   6.042   7.010  0.4189  0.4269 -2.5843
   93SAPC  C315 9064   3.521   6.224   6.916  0.4486  0.7929 -0.5106
   93SAPC  H15X 9065   3.627   6.233   6.948  1.1382 -0.1176 -2.3486
   93SAPC  H15Y 9066   3.485   6.327   6.895 -1.4627 -0.0905 -1.8793
   93SAPC  C316 9067   3.522   6.148   6.779  0.9198 -0.4376  0.0060
   93SAPC  H16X 9068   3.417   6.123   6.750  0.8403  1.1861 -1.2356
   93SAPC  H16Y 9069   3.581   6.054   6.784 -0.4775 -1.2901  1.9306
   93SAPC  C317 9070   3.597   6.217   6.665 -0.4197  0.2867 -0.5006
   93SAPC  H17X 9071   3.635   6.133   6.602 -1.1975 -1.3014  1.0356
   93SAPC  H17Y 9072   3.677   6.279   6.709 -1.6466  1.9531 -0.5474
   93SAPC  C318 9073   3.518   6.314   6.574 -0.1702  0.0710 -0.2291
   93SAPC  H18X 9074   3.517   6.416   6.618 -1.2670 -0.5358  1.2654
   93SAPC  H18Y 9075   3.410   6.289   6.565  0.3434 -2.0296 -1.3703
   93SAPC  H18Z 9076   3.566   6.309   6.474 -2.0587 -2.3966 -1.1331
   94SAPC     N 9077   5.392   1.713   0.419  0.3927  0.1098  0.3464
   94SAPC   C12 9078   5.409   1.860   0.360 -0.1743 -0.8681 -0.1700
   94SAPC  H12A 9079   5.498   1.872   0.299  0.5863 -0.7700  0.9319
   94SAPC  H12B 9080   5.431   1.922   0.446  2.4021 -1.5925 -0.2231
   94SAPC   C13 9081   5.517   1.670   0.487  0.0957 -0.5536 -0.5845
   94SAPC  H13A 9082   5.506   1.573   0.534  2.3385 -0.7008 -0.2755
   94SAPC  H13B 9083   5.597   1.647   0.419  0.4806  1.2070 -0.7741
   94SAPC  H13C 9084   5.551   1.744   0.558 -0.4703 -1.1790  0.3724
   94SAPC   C14 9085   5.273   1.711   0.499 -0.0258 -0.8845  0.1986
   94SAPC  H14A 9086   5.297   1.750   0.597  1.2304 -1.9170  0.3307
   94SAPC  H14B 9087   5.190   1.768   0.461 -0.7520 -1.5462  0.7511
   94SAPC  H14C 9088   5.231   1.611   0.504 -1.6123 -0.2775 -0.4668
   94SAPC   C15 9089   5.381   1.622   0.300 -0.7777  0.2886 -0.1465
   94SAPC  H15A 9090   5.288   1.642   0.249 -0.0646  0.6252 -1.3577
   94SAPC  H15B 9091   5.467   1.644   0.239  0.3707  0.1211  1.3627
   94SAPC  H15C 9092   5.384   1.517   0.326 -1.4602  0.4960  0.8069
   94SAPC   C11 9093   5.284   1.909   0.285  0.1043 -0.1732 -0.0767
   94SAPC  H11A 9094   5.249   1.835   0.211 -1.2489 -0.6328  0.9769
   94SAPC  H11B 9095   5.299   2.006   0.232  0.3800  0.1640  0.6011
   94SAPC     P 9096   5.175   2.077   0.452 -0.0456 -0.5260 -0.0481
   94SAPC   O13 9097   5.062   2.094   0.545 -0.4018  0.2846  0.0783
   94SAPC   O14 9098   5.305   2.098   0.525  0.1763 -0.1294  0.0698
   94SAPC   O12 9099   5.175   1.938   0.383 -0.3351  0.0226 -0.0655
   94SAPC   O11 9100   5.167   2.184   0.337  0.3844 -0.5783 -0.7606
   94SAPC    C1 9101   5.060   2.180   0.247  0.3135 -0.7975 -0.1453
   94SAPC    HA 9102   4.996   2.090   0.252  0.7074 -1.0637  0.2290
   94SAPC    HB 9103   5.004   2.275   0.263  1.9784  0.0617  0.9334
   94SAPC    C2 9104   5.113   2.187   0.110 -0.1055 -0.3301 -0.0673
   94SAPC    HS 9105   5.149   2.083   0.095 -1.4961 -1.1488  1.8296
   94SAPC   O21 9106   5.214   2.292   0.094 -0.2093  0.5291  0.5631
   94SAPC   C21 9107   5.323   2.253   0.032 -0.6040 -0.0246 -0.4845
   94SAPC   O22 9108   5.343   2.149  -0.020 -0.3260 -0.0094 -0.6784
   94SAPC   C22 9109   5.418   2.371   0.023  0.8934  0.9486 -0.4986
   94SAPC   H2R 9110   5.361   2.465   0.030  0.1619  0.6513 -1.9674
   94SAPC   H2S 9111   5.473   2.363   0.119 -0.3812 -2.6168  0.1083
   94SAPC    C3 9112   4.991   2.213   0.008 -0.1947  0.1411  0.3333
   94SAPC    HX 9113   4.938   2.308   0.029 -0.3724  0.7321 -2.4248
   94SAPC    HY 9114   4.915   2.133   0.020  0.4203 -0.2712  1.7224
   94SAPC   O31 9115   5.034   2.222  -0.131 -0.2523  0.4112 -0.1108
   94SAPC   C31 9116   5.055   2.102  -0.183 -0.0670  0.5940  0.3222
   94SAPC   O32 9117   5.046   1.996  -0.120 -0.3794 -0.2169  0.3729
   94SAPC   C32 9118   5.124   2.116  -0.320  0.4946 -0.5314 -0.7394
   94SAPC   H2X 9119   5.214   2.051  -0.324  0.5208 -0.4406 -2.0190
   94SAPC   H2Y 9120   5.167   2.218  -0.325 -0.3233 -0.1445 -0.0854
   94SAPC   C23 9121   5.517   2.366  -0.102  0.4118  0.1963  0.4125
   94SAPC   H3R 9122   5.565   2.266  -0.107 -0.7563 -0.4928  2.0055
   94SAPC   H3S 9123   5.601   2.437  -0.086 -0.5326  1.5123 -0.2320
   94SAPC   C24 9124   5.448   2.401  -0.232 -0.3378  0.4572  0.1271
   94SAPC   H4R 9125   5.415   2.507  -0.227  0.1238  0.6860 -1.1994
   94SAPC   H4S 9126   5.362   2.333  -0.252  0.0949  0.1437 -0.7369
   94SAPC   C25 9127   5.541   2.381  -0.353  0.1265  0.1923  0.1075
   94SAPC   H5R 9128   5.584   2.476  -0.388 -0.1993  0.2255 -0.2018
   94SAPC   C26 9129   5.564   2.268  -0.423  0.6222 -0.0625  0.3491
   94SAPC   H6R 9130   5.630   2.270  -0.512 -1.6329 -1.9076 -1.4805
   94SAPC   C27 9131   5.509   2.129  -0.390  0.4003 -0.0791  0.1241
   94SAPC   H7R 9132   5.401   2.143  -0.410  0.3490 -0.5986  0.0333
   94SAPC   H7S 9133   5.497   2.116  -0.281 -0.3172 -3.7186 -0.2615
   94SAPC   C28 9134   5.565   2.009  -0.468  0.7508 -0.5397 -0.1856
   94SAPC   H8R 9135   5.592   1.933  -0.394 -0.6467  1.0727  2.0959
   94SAPC   C29 9136   5.559   1.983  -0.602 -0.1211 -0.3237 -0.9560
   94SAPC   H9R 9137   5.605   1.896  -0.650 -1.7201 -1.1332 -1.0789
   94SAPC  C210 9138   5.503   2.075  -0.703  0.2742 -0.4774  0.1232
   94SAPC  H10R 9139   5.595   2.103  -0.758  1.1060 -2.5677  0.3643
   94SAPC  H10S 9140   5.446   2.159  -0.657 -0.1163 -0.2642 -0.7327
   94SAPC  C211 9141   5.406   2.000  -0.786 -0.4390 -0.1782 -0.7789
   94SAPC  H11R 9142   5.330   1.959  -0.718 -1.0119  1.1153 -0.6113
   94SAPC  C212 9143   5.403   1.986  -0.918  0.5815  0.3975 -0.4751
   94SAPC  H12R 9144   5.322   1.936  -0.972  0.7069  0.2364 -0.5133
   94SAPC  C213 9145   5.498   2.050  -1.013  0.3447 -0.0756  0.7311
   94SAPC  H13R 9146   5.528   2.151  -0.979  0.4312  0.0343  0.3258
   94SAPC  H13S 9147   5.437   2.076  -1.102 -0.9582 -0.3732  1.4995
   94SAPC  C214 9148   5.620   1.970  -1.043  0.1960  0.3268  0.5307
   94SAPC  H14R 9149   5.675   1.930  -0.957 -0.1023 -2.1128 -0.3280
   94SAPC  C215 9150   5.671   1.950  -1.168  0.5036  0.3473 -0.9683
   94SAPC  H15R 9151   5.754   1.878  -1.170 -0.1300 -0.4362 -0.0231
   94SAPC  C216 9152   5.619   2.000  -1.297 -0.6209 -0.5626 -0.9205
   94SAPC  H16R 9153   5.702   2.044  -1.355 -0.2953  3.1329  1.9931
   94SAPC  H16S 9154   5.528   2.064  -1.302 -0.2464 -0.0868 -2.1337
   94SAPC  C217 9155   5.594   1.876  -1.380  0.7170 -0.1594  0.0273
   94SAPC  H17R 9156   5.507   1.821  -1.338  0.2268  0.3177 -0.3462
   94SAPC  H17S 9157   5.673   1.799  -1.367 -1.5674 -2.1026  3.9670
   94SAPC  C218 9158   5.564   1.918  -1.524  0.1497 -0.5991  0.7597
   94SAPC  H18R 9159   5.655   1.961  -1.570  0.6969 -0.8917  1.5534
   94SAPC  H18S 9160   5.488   1.999  -1.515  0.1336 -0.7392  2.2136
   94SAPC  C219 9161   5.500   1.813  -1.617  0.3445  0.3378  0.3008
   94SAPC  H19R 9162   5.456   1.734  -1.552 -0.7102  0.4993 -0.1955
   94SAPC  H19S 9163   5.583   1.760  -1.669 -0.3617  0.2159 -0.7137
   94SAPC  C220 9164   5.400   1.881  -1.715  0.3046  0.1855 -0.4909
   94SAPC  H20R 9165   5.332   1.941  -1.651  0.4044 -3.0481  3.0348
   94SAPC  H20S 9166   5.345   1.805  -1.774  2.3719 -2.1312  0.3940
   94SAPC  H20T 9167   5.449   1.952  -1.785  2.2130 -1.9252 -1.4131
   94SAPC   C33 9168   5.033   2.089  -0.433 -0.1945 -0.5680  0.8268
   94SAPC   H3X 9169   4.939   2.143  -0.408 -0.1392 -0.8631  1.7142
   94SAPC   H3Y 9170   4.999   1.983  -0.441 -1.6348 -0.0206 -1.4342
   94SAPC   C34 9171   5.084   2.126  -0.574  0.2840 -0.0539  0.2614
   94SAPC   H4X 9172   5.185   2.090  -0.603  0.5491 -0.8010  2.0143
   94SAPC   H4Y 9173   5.106   2.235  -0.579 -0.4127  0.0405 -2.2696
   94SAPC   C35 9174   4.992   2.078  -0.684 -0.4000 -0.0871  0.0914
   94SAPC   H5X 9175   4.893   2.124  -0.664 -0.4420  0.1331 -0.5974
   94SAPC   H5Y 9176   4.984   1.970  -0.658  2.8376 -0.4890 -0.1618
   94SAPC   C36 9177   5.038   2.094  -0.827  0.1906  0.1771  0.8830
   94SAPC   H6X 9178   5.124   2.029  -0.854  1.1530  2.8278 -3.3432
   94SAPC   H6Y 9179   5.073   2.199  -0.839  1.7203 -0.0776  2.6409
   94SAPC   C37 9180   4.929   2.054  -0.939 -0.0511 -0.0588 -0.3978
   94SAPC   H7X 9181   4.830   2.097  -0.913  0.8374  2.7926 -1.3136
   94SAPC   H7Y 9182   4.927   1.944  -0.933 -0.1877 -0.2260 -2.4830
   94SAPC   C38 9183   4.962   2.081  -1.089 -0.1729 -0.1026 -0.4147
   94SAPC   H8X 9184   5.070   2.062  -1.110 -0.3496 -0.3809 -1.0924
   94SAPC   H8Y 9185   4.956   2.191  -1.100  1.3961  0.5157  3.2896
   94SAPC   C39 9186   4.869   2.013  -1.187  0.0377  0.2497  0.2641
   94SAPC   H9X 9187   4.763   2.048  -1.185  0.1410  0.5728  0.2143
   94SAPC   H9Y 9188   4.859   1.903  -1.179  0.0709  0.2674  0.5465
   94SAPC  C310 9189   4.924   2.028  -1.332 -0.0610  0.8279 -0.2503
   94SAPC  H10X 9190   4.920   2.132  -1.370 -1.6427  0.9150  0.0839
   94SAPC  H10Y 9191   4.865   1.971  -1.406  2.2304 -0.3416 -1.2786
   94SAPC  C311 9192   5.067   1.975  -1.351  0.4742 -0.0334 -0.0881
   94SAPC  H11X 9193   5.090   1.889  -1.284 -0.9714 -0.0615  0.4067
   94SAPC  H11Y 9194   5.130   2.060  -1.318  1.2490 -1.2571  1.7390
   94SAPC  C312 9195   5.104   1.933  -1.496 -0.6989  0.1341 -0.3967
   94SAPC  H12X 9196   5.036   1.849  -1.518  0.5179 -1.0533  0.1995
   94SAPC  H12Y 9197   5.212   1.908  -1.506 -0.5479  1.1587 -1.4222
   94SAPC  C313 9198   5.073   2.052  -1.591 -0.4900  0.2980  0.0672
   94SAPC  H13X 9199   4.972   2.097  -1.586 -0.4347  0.4515 -0.2007
   94SAPC  H13Y 9200   5.088   2.025  -1.698 -1.4871 -1.2362  0.2937
   94SAPC  C314 9201   5.178   2.174  -1.571  0.2417 -0.1316  0.0595
   94SAPC  H14X 9202   5.281   2.137  -1.585  0.9694  1.1194  1.7289
   94SAPC  H14Y 9203   5.172   2.218  -1.469 -1.3412 -0.6061  0.2012
   94SAPC  C315 9204   5.145   2.275  -1.682 -0.5350 -0.0058 -0.0446
   94SAPC  H15X 9205   5.092   2.366  -1.647 -2.9665 -1.2961 -0.1683
   94SAPC  H15Y 9206   5.077   2.223  -1.752 -1.4993  1.5291 -0.2728
   94SAPC  C316 9207   5.275   2.307  -1.757 -0.0680 -0.6025  0.5336
   94SAPC  H16X 9208   5.304   2.215  -1.813  0.8054 -0.2710  0.4313
   94SAPC  H16Y 9209   5.357   2.328  -1.684 -0.3145  0.2713  0.5694
   94SAPC  C317 9210   5.252   2.415  -1.862 -0.0504 -0.1516 -0.6425
   94SAPC  H17X 9211   5.154   2.402  -1.914  0.2670  0.7198 -1.4705
   94SAPC  H17Y 9212   5.329   2.398  -1.940  2.3755 -0.6678  1.7141
   94SAPC  C318 9213   5.259   2.564  -1.821  0.1753  0.3473 -0.4637
   94SAPC  H18X 9214   5.360   2.573  -1.778 -0.5091  2.4825  0.8513
   94SAPC  H18Y 9215   5.192   2.587  -1.735 -0.6445  0.1905 -1.0519
   94SAPC  H18Z 9216   5.255   2.632  -1.908  1.0645  1.0240  0.0081
   95SAPC     N 9217   0.213   2.714   3.784 -0.4100  0.0153  0.4578
   95SAPC   C12 9218   0.234   2.791   3.916 -0.3573  0.5117  0.2242
   95SAPC  H12A 9219   0.237   2.897   3.897 -0.1265  0.7220  1.3581
   95SAPC  H12B 9220   0.326   2.764   3.965 -0.7032 -0.1755  0.5129
   95SAPC   C13 9221   0.232   2.571   3.827  0.7729 -0.4915  0.4942
   95SAPC  H13A 9222   0.140   2.535   3.871  0.0438 -0.2227 -0.7693
   95SAPC  H13B 9223   0.241   2.503   3.743 -0.5123 -1.3119  0.9783
   95SAPC  H13C 9224   0.308   2.559   3.903 -0.4861  0.3908  1.9514
   95SAPC   C14 9225   0.090   2.744   3.707  0.8281  0.0694  0.0215
   95SAPC  H14A 9226   0.001   2.708   3.757  1.3374 -0.4450  0.5806
   95SAPC  H14B 9227   0.066   2.848   3.688  1.9535  0.0458 -1.6829
   95SAPC  H14C 9228   0.095   2.694   3.612 -0.9929  3.5211 -2.0964
   95SAPC   C15 9229   0.335   2.763   3.697 -0.0266 -0.0167  0.3843
   95SAPC  H15A 9230   0.336   2.704   3.607  2.5202  2.0416 -1.0675
   95SAPC  H15B 9231   0.334   2.868   3.673  1.4126  0.2772  1.4531
   95SAPC  H15C 9232   0.429   2.752   3.748 -0.2636 -0.0926  0.8088
   95SAPC   C11 9233   0.125   2.759   4.021  0.4012 -0.1872  0.4867
   95SAPC  H11A 9234   0.154   2.809   4.116 -0.2848  1.6506 -0.2303
   95SAPC  H11B 9235   0.124   2.651   4.048 -0.5068 -0.8924 -2.0810
   95SAPC     P 9236  -0.051   2.965   4.003  0.0360 -0.1534 -0.2303
   95SAPC   O13 9237   0.069   3.053   4.018 -0.1485 -0.1436  0.3646
   95SAPC   O14 9238  -0.140   3.012   3.894 -0.0859  0.2345 -0.4110
   95SAPC   O12 9239  -0.011   2.805   3.981  0.4671  0.7273 -0.1017
   95SAPC   O11 9240  -0.135   2.961   4.139 -0.3065  0.1770 -0.2848
   95SAPC    C1 9241  -0.050   2.950   4.255  0.3990 -0.3975  0.9719
   95SAPC    HA 9242  -0.001   2.850   4.247 -1.2499 -1.2160  0.6731
   95SAPC    HB 9243   0.025   3.032   4.264  0.4485 -0.2701 -0.3782
   95SAPC    C2 9244  -0.139   2.948   4.375 -0.2719 -0.1898 -0.2793
   95SAPC    HS 9245  -0.210   2.863   4.373  0.8827 -1.1726 -0.0526
   95SAPC   O21 9246  -0.208   3.073   4.383 -0.5180  0.3914  0.2100
   95SAPC   C21 9247  -0.322   3.068   4.460  0.0296 -0.4248  0.7233
   95SAPC   O22 9248  -0.370   2.967   4.504 -0.0421 -0.7966 -0.2797
   95SAPC   C22 9249  -0.370   3.206   4.474 -0.1813  0.3866 -1.1280
   95SAPC   H2R 9250  -0.289   3.270   4.517 -0.4550 -1.1201  1.8810
   95SAPC   H2S 9251  -0.397   3.247   4.374  1.1771  1.9937 -0.8761
   95SAPC    C3 9252  -0.046   2.925   4.494  0.1639 -0.3418 -0.2945
   95SAPC    HX 9253   0.023   3.010   4.510 -1.7285  1.6379 -1.9915
   95SAPC    HY 9254   0.016   2.836   4.470 -1.1940 -1.5241  0.4282
   95SAPC   O31 9255  -0.120   2.914   4.619 -1.2739  0.2058  0.7197
   95SAPC   C31 9256  -0.156   2.793   4.654  0.1638  0.9286 -0.2877
   95SAPC   O32 9257  -0.127   2.688   4.592  0.5777 -0.1250  0.1125
   95SAPC   C32 9258  -0.240   2.800   4.783 -1.1195 -0.7277  0.2545
   95SAPC   H2X 9259  -0.333   2.745   4.762 -1.1477  0.4401 -3.4484
   95SAPC   H2Y 9260  -0.267   2.905   4.809  1.5832  0.1377 -0.0068
   95SAPC   C23 9261  -0.489   3.205   4.572  0.1213 -0.1014 -0.0460
   95SAPC   H3R 9262  -0.578   3.157   4.526  0.8789  0.1858 -1.8846
   95SAPC   H3S 9263  -0.517   3.311   4.587  1.0408  0.1308  0.0831
   95SAPC   C24 9264  -0.452   3.151   4.718  0.0516 -0.0332 -0.8724
   95SAPC   H4R 9265  -0.423   3.044   4.716 -0.3196 -0.1591  0.1384
   95SAPC   H4S 9266  -0.540   3.157   4.785  2.0890  1.5172  1.9005
   95SAPC   C25 9267  -0.346   3.244   4.777 -0.7490 -0.4242 -0.4837
   95SAPC   H5R 9268  -0.254   3.259   4.719  0.5641 -1.2687  1.2805
   95SAPC   C26 9269  -0.358   3.300   4.901 -0.1196 -0.3279 -0.5534
   95SAPC   H6R 9270  -0.272   3.353   4.944 -1.3011 -0.1753  1.7590
   95SAPC   C27 9271  -0.478   3.306   4.987  0.2625 -0.1151 -1.0206
   95SAPC   H7R 9272  -0.523   3.208   5.013 -0.2807  0.7833  1.7408
   95SAPC   H7S 9273  -0.548   3.372   4.931  1.4405  1.6925 -0.4379
   95SAPC   C28 9274  -0.450   3.375   5.115  0.2399 -0.3127 -0.3870
   95SAPC   H8R 9275  -0.501   3.469   5.138 -0.0186 -1.2427  3.4423
   95SAPC   C29 9276  -0.381   3.321   5.219 -0.8976  0.4141 -0.8441
   95SAPC   H9R 9277  -0.360   3.382   5.308  0.5681  0.1462 -0.9807
   95SAPC  C210 9278  -0.310   3.190   5.227  0.0080 -0.4595  0.4068
   95SAPC  H10R 9279  -0.212   3.213   5.275  0.7423 -0.9068 -0.8219
   95SAPC  H10S 9280  -0.283   3.153   5.126 -0.3604 -0.8227  0.4420
   95SAPC  C211 9281  -0.379   3.078   5.295  0.4818 -0.3080 -0.0625
   95SAPC  H11R 9282  -0.455   3.022   5.237  0.9062 -2.1409  1.0672
   95SAPC  C212 9283  -0.358   3.042   5.424  0.4891  0.3432  0.0719
   95SAPC  H12R 9284  -0.412   2.956   5.466  1.3023  0.3931  1.2578
   95SAPC  C213 9285  -0.259   3.097   5.527 -0.4661 -0.7688  0.6111
   95SAPC  H13R 9286  -0.162   3.120   5.480  0.1414 -1.1202  1.6505
   95SAPC  H13S 9287  -0.233   3.020   5.603  2.0787 -1.3313 -0.7225
   95SAPC  C214 9288  -0.319   3.224   5.579  0.5966 -0.0936 -0.8463
   95SAPC  H14R 9289  -0.416   3.263   5.546  1.3572  1.4644 -1.3410
   95SAPC  C215 9290  -0.262   3.297   5.680 -0.5491 -0.3210  0.2308
   95SAPC  H15R 9291  -0.310   3.396   5.694 -1.2869 -0.6971  0.4064
   95SAPC  C216 9292  -0.141   3.261   5.747 -0.4801 -0.5951  0.5665
   95SAPC  H16R 9293  -0.066   3.325   5.694  0.5031 -1.3115  1.0525
   95SAPC  H16S 9294  -0.107   3.157   5.731  0.0113 -0.3467 -0.0464
   95SAPC  C217 9295  -0.127   3.306   5.897  0.1395  0.4245  0.7512
   95SAPC  H17R 9296  -0.158   3.413   5.892  1.5445  0.8849  1.1607
   95SAPC  H17S 9297  -0.021   3.294   5.930 -0.1183 -1.3459  0.9910
   95SAPC  C218 9298  -0.224   3.235   5.980 -0.1293 -0.3420 -0.2627
   95SAPC  H18R 9299  -0.177   3.151   6.036 -0.3440  0.5181  1.2547
   95SAPC  H18S 9300  -0.315   3.203   5.924  0.2889  0.4611 -1.4403
   95SAPC  C219 9301  -0.278   3.321   6.091  0.4849 -0.2401 -0.9346
   95SAPC  H19R 9302  -0.318   3.413   6.042  1.4059  0.2488 -0.7889
   95SAPC  H19S 9303  -0.198   3.368   6.153 -0.4242 -0.7245  0.6539
   95SAPC  C220 9304  -0.374   3.259   6.198 -0.5293  0.1619 -0.3371
   95SAPC  H20R 9305  -0.417   3.339   6.263  1.0694  0.9888 -0.2484
   95SAPC  H20S 9306  -0.311   3.188   6.255  0.5475  1.0332 -0.4122
   95SAPC  H20T 9307  -0.455   3.200   6.149 -1.1495  1.6741 -1.2278
   95SAPC   C33 9308  -0.157   2.729   4.890 -0.1077  1.1827 -0.4237
   95SAPC   H3X 9309  -0.056   2.774   4.895  0.1769  0.5491 -0.3002
   95SAPC   H3Y 9310  -0.145   2.626   4.849 -2.2150  0.5586  0.3673
   95SAPC   C34 9311  -0.211   2.737   5.029  0.2040  0.0603  0.4513
   95SAPC   H4X 9312  -0.309   2.686   5.018 -1.6872  3.5548 -0.6374
   95SAPC   H4Y 9313  -0.232   2.843   5.058 -0.6003 -0.3166  1.3130
   95SAPC   C35 9314  -0.124   2.687   5.140  0.5428 -0.3240 -0.2913
   95SAPC   H5X 9315  -0.027   2.740   5.136  0.6461 -0.4495  0.4531
   95SAPC   H5Y 9316  -0.105   2.578   5.124 -0.2677 -0.5728  0.3257
   95SAPC   C36 9317  -0.183   2.710   5.281 -0.3460  0.4465 -0.5999
   95SAPC   H6X 9318  -0.293   2.698   5.291 -0.4368  0.9113 -1.0188
   95SAPC   H6Y 9319  -0.160   2.818   5.297  2.3147 -0.2295  0.5867
   95SAPC   C37 9320  -0.102   2.640   5.390  0.1381 -0.5608  0.1451
   95SAPC   H7X 9321  -0.002   2.688   5.398 -0.8289  1.3721  1.4320
   95SAPC   H7Y 9322  -0.089   2.531   5.372  3.1357 -0.7807  2.8468
   95SAPC   C38 9323  -0.158   2.654   5.526  0.4645 -0.2442 -0.7342
   95SAPC   H8X 9324  -0.162   2.553   5.571 -0.8871  0.1777  0.1643
   95SAPC   H8Y 9325  -0.264   2.689   5.526 -0.4776 -2.8184  0.9579
   95SAPC   C39 9326  -0.081   2.768   5.603  0.3184  0.2857 -0.0186
   95SAPC   H9X 9327  -0.083   2.864   5.547 -1.8690  0.3249  0.0282
   95SAPC   H9Y 9328   0.027   2.744   5.609  0.3397  0.2870 -0.3465
   95SAPC  C310 9329  -0.130   2.802   5.737  0.0496 -0.8532 -0.3797
   95SAPC  H10X 9330  -0.240   2.819   5.725 -0.3027 -3.6095 -1.7516
   95SAPC  H10Y 9331  -0.090   2.899   5.773 -3.4494  0.3647  0.6350
   95SAPC  C311 9332  -0.135   2.695   5.844 -0.0373  0.0883  1.1426
   95SAPC  H11X 9333  -0.119   2.592   5.805  1.1895  0.2998  1.0673
   95SAPC  H11Y 9334  -0.241   2.691   5.878  0.4988  0.1532  2.8908
   95SAPC  C312 9335  -0.041   2.722   5.961  0.1113 -0.0018 -0.6135
   95SAPC  H12X 9336   0.067   2.727   5.936 -0.1549 -2.3900 -2.6554
   95SAPC  H12Y 9337  -0.036   2.630   6.023  0.2595  1.5794  1.8411
   95SAPC  C313 9338  -0.083   2.839   6.045 -0.5942  0.1927 -0.2512
   95SAPC  H13X 9339  -0.189   2.822   6.072 -0.3896 -3.3956 -1.2093
   95SAPC  H13Y 9340  -0.064   2.937   5.996 -0.0957  1.2991  1.9835
   95SAPC  C314 9341  -0.008   2.850   6.180 -0.2697  0.5737  0.3168
   95SAPC  H14X 9342   0.099   2.865   6.153 -0.1594 -2.6858 -1.5817
   95SAPC  H14Y 9343  -0.006   2.754   6.235  3.8285 -0.3339 -1.0387
   95SAPC  C315 9344  -0.075   2.961   6.265 -0.3289 -0.0092  0.1339
   95SAPC  H15X 9345  -0.116   2.931   6.364  1.0970 -1.4080  0.3527
   95SAPC  H15Y 9346  -0.152   3.013   6.205 -0.2757  0.6700  0.6470
   95SAPC  C316 9347   0.023   3.067   6.309 -0.0994  0.3354  0.1133
   95SAPC  H16X 9348   0.069   3.126   6.227  1.1477 -1.9136 -0.9122
   95SAPC  H16Y 9349   0.107   2.998   6.332 -0.7728 -1.8526 -3.2782
   95SAPC  C317 9350  -0.005   3.149   6.435  1.1794 -0.4336 -0.1456
   95SAPC  H17X 9351  -0.009   3.078   6.520  1.6900 -1.7109 -1.1575
   95SAPC  H17Y 9352  -0.103   3.200   6.422 -0.2144 -3.1899 -1.1675
   95SAPC  C318 9353   0.107   3.243   6.481  0.3318 -0.5958  0.0775
   95SAPC  H18X 9354   0.088   3.297   6.577  1.7374  1.3586 -0.6825
   95SAPC  H18Y 9355   0.126   3.324   6.408  0.1008 -0.3266  0.3119
   95SAPC  H18Z 9356   0.208   3.198   6.488  0.5904  0.0154  0.3543
   96SAPC     N 9357   6.261   4.953   4.311  0.2890  0.0724 -0.3716
   96SAPC   C12 9358   6.371   4.844   4.291 -0.0131 -0.0171 -0.1187
   96SAPC  H12A 9359   6.459   4.886   4.338  1.1977  0.3345 -2.5774
   96SAPC  H12B 9360   6.382   4.822   4.186 -3.1545 -0.7536 -0.4077
   96SAPC   C13 9361   6.281   5.075   4.228  0.4202  0.2585  0.4790
   96SAPC  H13A 9362   6.364   5.134   4.263 -0.5440  0.3270  2.8417
   96SAPC  H13B 9363   6.295   5.037   4.128  1.0256 -1.4555  1.1687
   96SAPC  H13C 9364   6.200   5.144   4.246 -1.0022 -0.5033 -2.4492
   96SAPC   C14 9365   6.132   4.885   4.273 -0.8043  0.5865 -0.0712
   96SAPC  H14A 9366   6.046   4.948   4.291 -1.7747  0.4995 -3.6343
   96SAPC  H14B 9367   6.125   4.854   4.170  2.3228 -0.3329 -0.0997
   96SAPC  H14C 9368   6.112   4.805   4.342  0.0302  0.4005 -0.0409
   96SAPC   C15 9369   6.250   4.977   4.455  0.3413  0.3369  0.0209
   96SAPC  H15A 9370   6.331   5.043   4.483  0.8042 -0.4625  0.6146
   96SAPC  H15B 9371   6.153   5.009   4.489 -1.3034 -1.6789 -2.4491
   96SAPC  H15C 9372   6.281   4.887   4.506 -2.1127 -0.6945 -0.1493
   96SAPC   C11 9373   6.353   4.697   4.345  0.1971  0.2908  0.1215
   96SAPC  H11A 9374   6.449   4.647   4.322 -0.6452 -0.3709 -2.3359
   96SAPC  H11B 9375   6.284   4.659   4.266  0.7695  1.2764 -0.8869
   96SAPC     P 9376   6.201   4.588   4.506 -0.0668  0.1512  0.2471
   96SAPC   O13 9377   6.079   4.640   4.442  0.0202  0.2082  0.0493
   96SAPC   O14 9378   6.243   4.454   4.463  0.5988 -0.6197  0.4119
   96SAPC   O12 9379   6.323   4.687   4.484 -0.0376 -0.0475  0.0662
   96SAPC   O11 9380   6.176   4.588   4.660  0.7900  0.0968  0.4295
   96SAPC    C1 9381   6.156   4.701   4.747 -0.2533 -0.0554  0.8931
   96SAPC    HA 9382   6.128   4.789   4.685  1.3989 -0.7038 -0.8593
   96SAPC    HB 9383   6.081   4.686   4.828 -1.2081  0.2385  0.0951
   96SAPC    C2 9384   6.288   4.740   4.814  0.5744 -0.3113 -0.4704
   96SAPC    HS 9385   6.370   4.743   4.739  0.6185  0.6577 -0.4001
   96SAPC   O21 9386   6.312   4.647   4.921 -0.1145 -0.6020  0.5878
   96SAPC   C21 9387   6.437   4.598   4.927 -0.0079  0.4008 -0.3026
   96SAPC   O22 9388   6.532   4.628   4.854 -0.1467  0.4564 -0.3582
   96SAPC   C22 9389   6.443   4.508   5.058 -0.0648 -0.9127 -0.2795
   96SAPC   H2R 9390   6.368   4.564   5.119  0.4037 -1.2047  0.5668
   96SAPC   H2S 9391   6.405   4.412   5.017  0.7642 -0.7202 -1.5640
   96SAPC    C3 9392   6.280   4.888   4.870  0.5738 -0.0555  0.1027
   96SAPC    HX 9393   6.274   4.966   4.790 -0.2465 -0.1320  0.0821
   96SAPC    HY 9394   6.375   4.896   4.928  0.5535  2.9444 -0.1089
   96SAPC   O31 9395   6.165   4.905   4.960  0.0018  0.2422  0.2852
   96SAPC   C31 9396   6.157   5.012   5.034  0.2588  0.9662  0.4695
   96SAPC   O32 9397   6.216   5.117   5.007  1.2468  0.2187  0.2974
   96SAPC   C32 9398   6.073   4.980   5.164 -0.1921 -0.0350  0.3427
   96SAPC   H2X 9399   6.084   4.871   5.187  0.3147 -0.0216  0.1716
   96SAPC   H2Y 9400   5.969   5.014   5.148 -0.0664  1.0927  1.7377
   96SAPC   C23 9401   6.584   4.496   5.125  0.3284  0.2434  0.2657
   96SAPC   H3R 9402   6.626   4.591   5.165 -1.9296  0.4601  2.4015
   96SAPC   H3S 9403   6.655   4.484   5.040 -1.0006  0.5642 -0.9137
   96SAPC   C24 9404   6.589   4.384   5.226  0.3797  0.2421 -0.3856
   96SAPC   H4R 9405   6.689   4.402   5.272  0.4197 -0.3020 -0.2548
   96SAPC   H4S 9406   6.593   4.292   5.164 -1.9720  0.2254 -0.6078
   96SAPC   C25 9407   6.476   4.376   5.327  0.1017 -0.0484 -0.1976
   96SAPC   H5R 9408   6.379   4.353   5.281  0.2316  0.9420 -1.0125
   96SAPC   C26 9409   6.483   4.380   5.461 -0.0850 -0.3665  0.7157
   96SAPC   H6R 9410   6.388   4.381   5.516 -0.5851  0.4874 -0.1183
   96SAPC   C27 9411   6.608   4.408   5.537  0.4636  0.4206  0.5452
   96SAPC   H7R 9412   6.635   4.508   5.497 -2.4596  1.9708  2.1530
   96SAPC   H7S 9413   6.684   4.328   5.519  0.3772  0.3252  0.6027
   96SAPC   C28 9414   6.591   4.435   5.684 -0.2628  0.5799  1.0171
   96SAPC   H8R 9415   6.535   4.522   5.720 -0.7076  1.0435 -0.6835
   96SAPC   C29 9416   6.663   4.371   5.781 -0.8563  0.1000  0.2300
   96SAPC   H9R 9417   6.640   4.408   5.882 -0.3570 -2.0055  1.1563
   96SAPC  C210 9418   6.760   4.255   5.767 -0.5769  0.0168 -0.4166
   96SAPC  H10R 9419   6.859   4.287   5.728  1.1028 -0.0820  3.4130
   96SAPC  H10S 9420   6.727   4.176   5.696  4.1610 -1.1262 -1.7312
   96SAPC  C211 9421   6.780   4.203   5.906  0.4247 -0.3085  0.0965
   96SAPC  H11R 9422   6.689   4.198   5.968 -0.1230  0.7498 -0.5888
   96SAPC  C212 9423   6.892   4.144   5.944 -0.7363  0.3977  0.8018
   96SAPC  H12R 9424   6.909   4.112   6.048 -0.5993 -4.7413 -0.5287
   96SAPC  C213 9425   7.014   4.112   5.859 -0.2394 -0.1398 -0.6399
   96SAPC  H13R 9426   7.096   4.075   5.925 -0.8991  1.2397  0.9991
   96SAPC  H13S 9427   7.054   4.211   5.829  1.9650 -0.7954 -0.1045
   96SAPC  C214 9428   6.982   4.023   5.743  0.0501 -0.6962  0.0279
   96SAPC  H14R 9429   6.935   3.926   5.768  0.5334 -1.2979 -1.2980
   96SAPC  C215 9430   6.997   4.048   5.616  0.9941 -0.2304 -0.4672
   96SAPC  H15R 9431   6.974   3.974   5.538 -0.4417 -0.1537 -0.1351
   96SAPC  C216 9432   7.064   4.165   5.553 -0.0019 -0.1322 -0.1832
   96SAPC  H16R 9433   7.167   4.141   5.520 -0.2957 -1.7737  0.0250
   96SAPC  H16S 9434   7.079   4.248   5.625 -1.8744 -0.7835  1.0348
   96SAPC  C217 9435   6.987   4.236   5.442 -0.0626 -0.2936  0.6888
   96SAPC  H17R 9436   7.055   4.318   5.410 -1.5877  1.5970  2.0417
   96SAPC  H17S 9437   6.893   4.268   5.492 -0.1324 -2.0955  1.7966
   96SAPC  C218 9438   6.950   4.149   5.318 -0.7634  0.2890  1.0404
   96SAPC  H18R 9439   6.917   4.221   5.241  0.3436 -0.6796 -0.3935
   96SAPC  H18S 9440   6.874   4.069   5.330  1.0792 -1.7194  0.0919
   96SAPC  C219 9441   7.080   4.091   5.253 -0.1644 -0.4774  0.0753
   96SAPC  H19R 9442   7.111   4.010   5.322 -1.5742 -1.0939  0.0339
   96SAPC  H19S 9443   7.162   4.165   5.251 -0.8943  0.4533  2.3121
   96SAPC  C220 9444   7.056   4.025   5.113 -0.2018 -0.1736 -0.2670
   96SAPC  H20R 9445   7.153   3.974   5.095  1.0671  1.8708  0.4092
   96SAPC  H20S 9446   7.040   4.103   5.035 -3.5301 -2.3540 -2.0351
   96SAPC  H20T 9447   6.969   3.957   5.097  0.8986 -1.2132 -2.2896
   96SAPC   C33 9448   6.133   5.060   5.285  0.3298  0.2956 -0.2243
   96SAPC   H3X 9449   6.166   5.165   5.271 -1.8530  1.2925  1.4428
   96SAPC   H3Y 9450   6.213   5.005   5.339  0.5502 -0.1745 -1.0212
   96SAPC   C34 9451   6.024   5.076   5.390 -0.0684 -0.5916  0.0876
   96SAPC   H4X 9452   5.982   4.976   5.414  2.4237 -1.6571  0.2750
   96SAPC   H4Y 9453   5.948   5.152   5.359 -0.5619 -0.4751  1.4807
   96SAPC   C35 9454   6.088   5.118   5.526 -0.1252  0.2499 -0.4100
   96SAPC   H5X 9455   6.135   5.216   5.502  0.6772 -0.1883 -0.6674
   96SAPC   H5Y 9456   6.160   5.035   5.541  0.0741 -0.1044 -2.8952
   96SAPC   C36 9457   5.988   5.137   5.643 -0.2546 -0.0895  0.4246
   96SAPC   H6X 9458   5.920   5.049   5.648  1.0960 -1.1404  0.8531
   96SAPC   H6Y 9459   5.924   5.222   5.610 -0.1747  0.6882  2.1572
   96SAPC   C37 9460   6.058   5.162   5.780  0.0023  0.1343 -0.0132
   96SAPC   H7X 9461   6.127   5.248   5.782  1.8934 -1.3259  0.9061
   96SAPC   H7Y 9462   6.131   5.079   5.791  0.1344  0.1710 -0.5720
   96SAPC   C38 9463   5.973   5.155   5.901  0.4938 -0.2269  0.1153
   96SAPC   H8X 9464   5.925   5.055   5.903 -1.3740  0.6137  2.8709
   96SAPC   H8Y 9465   5.898   5.237   5.903  0.3981 -0.3090 -0.1454
   96SAPC   C39 9466   6.054   5.163   6.027  0.4149 -0.0104 -0.6401
   96SAPC   H9X 9467   6.115   5.255   6.015  0.7843 -0.3545 -1.4474
   96SAPC   H9Y 9468   6.116   5.072   6.036 -0.6639 -0.6503  0.9523
   96SAPC  C310 9469   5.959   5.167   6.158 -0.3214  0.2798  0.9798
   96SAPC  H10X 9470   5.890   5.080   6.149  0.2014 -0.0655  0.1818
   96SAPC  H10Y 9471   5.908   5.265   6.169 -0.5817  0.1834  0.6468
   96SAPC  C311 9472   6.043   5.143   6.289 -0.0259  0.0581  0.4698
   96SAPC  H11X 9473   5.974   5.169   6.372 -0.2878 -0.8178  0.5425
   96SAPC  H11Y 9474   6.132   5.210   6.285 -1.6823  2.4275  1.3493
   96SAPC  C312 9475   6.087   4.998   6.322  0.4710  0.0203 -0.1350
   96SAPC  H12X 9476   6.151   4.958   6.240  0.2090 -1.6345  0.4143
   96SAPC  H12Y 9477   5.996   4.933   6.320  0.5124 -0.0263 -0.8358
   96SAPC  C313 9478   6.146   4.974   6.460  0.0209  0.2438  0.5358
   96SAPC  H13X 9479   6.244   5.026   6.449  0.6336 -1.2866 -2.2444
   96SAPC  H13Y 9480   6.166   4.867   6.478 -1.8408 -0.1613  0.4249
   96SAPC  C314 9481   6.067   5.035   6.577 -0.7407  0.4955 -1.2931
   96SAPC  H14X 9482   5.965   4.991   6.584 -0.1709 -0.5096  1.9198
   96SAPC  H14Y 9483   6.048   5.143   6.560  0.2662  0.9096  0.0743
   96SAPC  C315 9484   6.138   5.023   6.710  0.4467  0.4630  0.0455
   96SAPC  H15X 9485   6.145   4.917   6.743  2.9767  0.4310 -0.4137
   96SAPC  H15Y 9486   6.073   5.075   6.783  0.0998 -1.2291  0.9825
   96SAPC  C316 9487   6.278   5.084   6.719 -0.4251  0.1552 -0.7937
   96SAPC  H16X 9488   6.246   5.190   6.715  0.3730  0.4453  0.0356
   96SAPC  H16Y 9489   6.338   5.059   6.629 -0.3525 -1.0132 -0.4430
   96SAPC  C317 9490   6.359   5.060   6.847 -0.1666  0.6746 -0.3223
   96SAPC  H17X 9491   6.385   4.952   6.845  1.9589  0.9954  3.1986
   96SAPC  H17Y 9492   6.296   5.072   6.937  0.4290 -0.2674  0.2319
   96SAPC  C318 9493   6.483   5.132   6.867  0.7784 -0.6207  0.1594
   96SAPC  H18X 9494   6.505   5.134   6.976 -1.2779 -0.8663  0.6290
   96SAPC  H18Y 9495   6.484   5.232   6.818  0.8705 -1.2760 -1.2280
   96SAPC  H18Z 9496   6.573   5.082   6.827  1.5448 -0.2956  1.4042
   97SAPC     N 9497   6.900   5.825   4.127 -0.5483 -0.1276 -0.8803
   97SAPC   C12 9498   6.906   5.771   4.275  0.1646 -0.1404  0.7885
   97SAPC  H12A 9499   6.978   5.828   4.331  0.3503  0.4373 -0.0187
   97SAPC  H12B 9500   6.929   5.665   4.276 -1.2741 -0.4641  1.9494
   97SAPC   C13 9501   7.030   5.793   4.059  0.6209  0.4327 -0.1371
   97SAPC  H13A 9502   7.125   5.811   4.107  0.9983  1.7987 -1.2981
   97SAPC  H13B 9503   7.042   5.693   4.020  0.0829  0.1614  0.3810
   97SAPC  H13C 9504   7.030   5.850   3.967 -3.1314  1.7801  0.5259
   97SAPC   C14 9505   6.793   5.765   4.057 -0.1710  0.1454 -0.0979
   97SAPC  H14A 9506   6.696   5.783   4.101 -0.2962 -0.1782 -0.2323
   97SAPC  H14B 9507   6.789   5.802   3.955 -2.4202  2.3941  0.7108
   97SAPC  H14C 9508   6.814   5.662   4.032  1.9936  0.5558 -0.1145
   97SAPC   C15 9509   6.880   5.976   4.130  0.7483 -0.1662  0.3835
   97SAPC  H15A 9510   6.858   6.011   4.030 -5.0054 -2.9703  0.2615
   97SAPC  H15B 9511   6.787   5.995   4.182  0.3365 -2.1553  0.4237
   97SAPC  H15C 9512   6.964   6.030   4.170  1.8182 -0.3659 -1.4984
   97SAPC   C11 9513   6.778   5.788   4.363 -0.3179 -0.0410  0.2295
   97SAPC  H11A 9514   6.756   5.897   4.369 -0.0323  0.0360 -0.0849
   97SAPC  H11B 9515   6.808   5.754   4.464 -0.4694 -2.2464 -0.4238
   97SAPC     P 9516   6.660   5.549   4.356 -0.3696  0.1431 -0.3316
   97SAPC   O13 9517   6.546   5.490   4.282 -0.4748  0.0739  0.0749
   97SAPC   O14 9518   6.787   5.477   4.353 -0.0803  0.0718  0.0295
   97SAPC   O12 9519   6.671   5.705   4.316  0.5599 -0.4287  0.7427
   97SAPC   O11 9520   6.627   5.552   4.515  0.3972 -0.1195  0.5718
   97SAPC    C1 9521   6.540   5.650   4.569  0.6208 -0.2496  0.3018
   97SAPC    HA 9522   6.595   5.745   4.585 -0.5151  0.7028 -1.1611
   97SAPC    HB 9523   6.457   5.680   4.501  1.4328 -1.4458 -1.2727
   97SAPC    C2 9524   6.486   5.605   4.710  0.2171  0.2483  0.5416
   97SAPC    HS 9525   6.454   5.695   4.767 -1.0544 -0.1449  0.4887
   97SAPC   O21 9526   6.591   5.541   4.784  0.0346 -0.2980 -0.6581
   97SAPC   C21 9527   6.596   5.561   4.908  0.4249  0.1452  0.3217
   97SAPC   O22 9528   6.523   5.630   4.978 -0.4915 -0.0230  0.1461
   97SAPC   C22 9529   6.710   5.473   4.954 -0.7578 -0.1010 -0.3771
   97SAPC   H2R 9530   6.675   5.384   5.010  3.7540 -1.3436  0.9211
   97SAPC   H2S 9531   6.767   5.428   4.869 -0.5548 -1.4077  0.4239
   97SAPC    C3 9532   6.358   5.509   4.691 -0.5122  0.3544 -0.2603
   97SAPC    HX 9533   6.398   5.424   4.632  0.8269  0.1799  0.8601
   97SAPC    HY 9534   6.276   5.552   4.629 -2.2733 -0.6385  1.2773
   97SAPC   O31 9535   6.319   5.443   4.811 -0.0422 -0.1976  0.3867
   97SAPC   C31 9536   6.218   5.498   4.884 -0.4233 -0.5490 -0.6736
   97SAPC   O32 9537   6.152   5.591   4.840 -0.4860  0.1087 -0.3232
   97SAPC   C32 9538   6.193   5.419   5.012 -0.5947 -0.2258 -0.6710
   97SAPC   H2X 9539   6.285   5.361   5.037 -0.9327 -0.2487  0.6375
   97SAPC   H2Y 9540   6.106   5.350   4.999 -1.9855  1.5578 -1.1275
   97SAPC   C23 9541   6.815   5.541   5.047 -0.3110 -0.0891  0.2083
   97SAPC   H3R 9542   6.759   5.613   5.112 -3.0261  1.1571 -3.1639
   97SAPC   H3S 9543   6.891   5.594   4.985 -0.7397 -1.6116 -1.6880
   97SAPC   C24 9544   6.876   5.440   5.131 -0.2629 -0.1560  0.7526
   97SAPC   H4R 9545   6.912   5.357   5.067 -2.7537 -1.0846  0.4498
   97SAPC   H4S 9546   6.800   5.403   5.203 -1.5593  0.8974 -0.0354
   97SAPC   C25 9547   6.992   5.500   5.210  0.5709  0.2921 -0.0655
   97SAPC   H5R 9548   7.085   5.507   5.151  1.0258  0.3689  0.6546
   97SAPC   C26 9549   6.987   5.536   5.342  0.1036  0.0235 -0.4552
   97SAPC   H6R 9550   7.076   5.573   5.396 -1.5894  1.2271  1.6436
   97SAPC   C27 9551   6.867   5.527   5.441 -0.2764 -0.1294 -0.5801
   97SAPC   H7R 9552   6.773   5.488   5.396 -0.7016  0.9633 -0.6643
   97SAPC   H7S 9553   6.843   5.632   5.468  0.5047 -0.2802  0.7810
   97SAPC   C28 9554   6.906   5.471   5.572  0.4612 -0.1891 -0.0751
   97SAPC   H8R 9555   6.998   5.411   5.573  1.4219  1.2352  0.5729
   97SAPC   C29 9556   6.851   5.482   5.697  0.2956 -0.0955  0.4878
   97SAPC   H9R 9557   6.897   5.431   5.783 -1.9401 -2.1595  0.5678
   97SAPC  C210 9558   6.726   5.557   5.742 -1.1938 -0.0561 -0.0364
   97SAPC  H10R 9559   6.650   5.549   5.661  0.1522 -0.1038 -1.3578
   97SAPC  H10S 9560   6.752   5.665   5.746  2.0172 -0.7264  0.0168
   97SAPC  C211 9561   6.677   5.512   5.876 -0.2278 -0.3027  0.2352
   97SAPC  H11R 9562   6.590   5.446   5.867 -0.8808  0.4190  1.0593
   97SAPC  C212 9563   6.726   5.541   5.999  0.0886  0.2736 -0.4729
   97SAPC  H12R 9564   6.667   5.495   6.080  0.7639 -1.5894 -0.9952
   97SAPC  C213 9565   6.837   5.638   6.041  0.0525  0.3732 -0.1834
   97SAPC  H13R 9566   6.861   5.709   5.959  0.5277 -0.8801 -1.1699
   97SAPC  H13S 9567   6.927   5.578   6.068  0.9987  1.8226  0.0015
   97SAPC  C214 9568   6.809   5.725   6.156  0.0889 -0.1283 -0.6325
   97SAPC  H14R 9569   6.703   5.715   6.184  0.2718 -2.5351 -0.6134
   97SAPC  C215 9570   6.894   5.808   6.220  0.2399  0.3012  0.1425
   97SAPC  H15R 9571   6.862   5.866   6.308 -1.2962  2.4844 -1.7687
   97SAPC  C216 9572   7.032   5.840   6.177  1.0485  0.7162  0.5040
   97SAPC  H16R 9573   7.028   5.949   6.158  1.7943  0.4772 -1.1863
   97SAPC  H16S 9574   7.051   5.789   6.081  1.6262 -0.8264  1.3904
   97SAPC  C217 9575   7.154   5.814   6.269 -0.0487 -0.0740 -0.0533
   97SAPC  H17R 9576   7.165   5.705   6.285  3.0290  0.3559  1.5104
   97SAPC  H17S 9577   7.159   5.879   6.359 -0.5681 -0.2381  0.0966
   97SAPC  C218 9578   7.282   5.840   6.190 -0.3927 -0.3340  0.1070
   97SAPC  H18R 9579   7.294   5.786   6.094  1.4443  3.1529 -1.8333
   97SAPC  H18S 9580   7.365   5.806   6.256 -0.7970  0.2848  0.9509
   97SAPC  C219 9581   7.310   5.991   6.155 -0.4650  0.6591  0.4540
   97SAPC  H19R 9582   7.302   6.050   6.249  0.2678  1.0177  0.2962
   97SAPC  H19S 9583   7.236   6.038   6.087 -0.5490  1.1518  0.8811
   97SAPC  C220 9584   7.446   6.015   6.079  0.1645 -0.4293  0.8938
   97SAPC  H20R 9585   7.469   6.120   6.050 -0.5989 -1.0013 -2.1038
   97SAPC  H20S 9586   7.453   5.953   5.987  2.1956  1.2102 -0.1464
   97SAPC  H20T 9587   7.536   5.976   6.132 -0.0363 -0.9334  0.8690
   97SAPC   C33 9588   6.160   5.528   5.129  0.2111  1.0014  0.6475
   97SAPC   H3X 9589   6.075   5.594   5.102  0.6843  1.3736  0.0516
   97SAPC   H3Y 9590   6.248   5.596   5.136  0.0514  1.3610 -0.5869
   97SAPC   C34 9591   6.128   5.458   5.273 -0.1195 -0.8398 -0.6768
   97SAPC   H4X 9592   6.221   5.415   5.318 -0.5425 -0.6235  0.4246
   97SAPC   H4Y 9593   6.067   5.368   5.250 -2.6298  0.0758  1.8799
   97SAPC   C35 9594   6.044   5.563   5.356 -0.3657  0.0621 -0.0086
   97SAPC   H5X 9595   5.945   5.595   5.317 -2.2885 -2.1758  2.6215
   97SAPC   H5Y 9596   6.096   5.660   5.369  1.0853 -0.5215 -1.1809
   97SAPC   C36 9597   6.015   5.493   5.494  0.0332 -0.5404  0.6043
   97SAPC   H6X 9598   6.113   5.463   5.537 -0.9745 -0.7115  2.9356
   97SAPC   H6Y 9599   5.956   5.400   5.474 -1.2832  0.5096 -0.6437
   97SAPC   C37 9600   5.941   5.584   5.594  0.6040  0.5248  0.1342
   97SAPC   H7X 9601   5.839   5.607   5.554  0.0893 -0.8131  0.6216
   97SAPC   H7Y 9602   5.994   5.681   5.602  0.0546  0.7172  1.9214
   97SAPC   C38 9603   5.926   5.520   5.741 -0.0588 -0.4145 -0.1794
   97SAPC   H8X 9604   6.025   5.488   5.781 -0.9492 -0.2610  2.3512
   97SAPC   H8Y 9605   5.871   5.427   5.718  1.1446 -1.1191 -0.3041
   97SAPC   C39 9606   5.854   5.602   5.842 -0.4862 -0.0821 -0.2232
   97SAPC   H9X 9607   5.749   5.600   5.806 -0.2783  1.7409 -0.9993
   97SAPC   H9Y 9608   5.878   5.710   5.833  0.3815  0.1483  3.1905
   97SAPC  C310 9609   5.873   5.552   5.988  0.9442  0.3851  0.7085
   97SAPC  H10X 9610   5.977   5.542   6.026  1.7368 -1.3080 -1.6122
   97SAPC  H10Y 9611   5.849   5.445   5.973  1.4346  0.3183  0.3718
   97SAPC  C311 9612   5.780   5.621   6.088  0.1367 -0.3470 -0.3187
   97SAPC  H11X 9613   5.680   5.639   6.044  0.9787  4.1285 -0.8895
   97SAPC  H11Y 9614   5.825   5.721   6.106  0.4058 -0.1671 -1.8988
   97SAPC  C312 9615   5.763   5.537   6.218  0.4531  0.1761  0.0417
   97SAPC  H12X 9616   5.722   5.437   6.194  1.2487 -0.8589  2.6271
   97SAPC  H12Y 9617   5.688   5.588   6.283 -0.4281  0.1284 -0.9066
   97SAPC  C313 9618   5.891   5.528   6.302  0.2617  0.3189  0.0961
   97SAPC  H13X 9619   5.927   5.625   6.342  4.2080 -1.9171  2.5609
   97SAPC  H13Y 9620   5.971   5.489   6.236  0.0575 -2.0211  1.1412
   97SAPC  C314 9621   5.883   5.430   6.417 -0.3764 -0.1402 -0.1937
   97SAPC  H14X 9622   5.985   5.409   6.454  0.2619  3.0882  0.1574
   97SAPC  H14Y 9623   5.828   5.337   6.390 -1.2628 -0.2187  1.6863
   97SAPC  C315 9624   5.797   5.491   6.536 -0.2109 -0.3685  0.1090
   97SAPC  H15X 9625   5.691   5.482   6.504  0.1643  0.4694 -1.4637
   97SAPC  H15Y 9626   5.830   5.597   6.539 -0.8601 -0.1604  0.1966
   97SAPC  C316 9627   5.832   5.424   6.663 -0.2179 -0.5006  0.1657
   97SAPC  H16X 9628   5.940   5.414   6.686 -0.3405 -2.7808 -0.0342
   97SAPC  H16Y 9629   5.805   5.317   6.652 -0.3346 -0.3687 -0.8955
   97SAPC  C317 9630   5.746   5.476   6.783 -0.7116  0.1461 -0.6482
   97SAPC  H17X 9631   5.773   5.419   6.875  0.5802  0.7195 -0.6487
   97SAPC  H17Y 9632   5.643   5.450   6.750  0.2092 -1.3671 -2.4653
   97SAPC  C318 9633   5.756   5.625   6.822  0.5883  0.0728  0.0518
   97SAPC  H18X 9634   5.704   5.638   6.920 -0.2887 -0.0145 -0.3939
   97SAPC  H18Y 9635   5.702   5.686   6.748 -1.1058  0.0490  1.2074
   97SAPC  H18Z 9636   5.866   5.642   6.814  0.9478 -2.0268 -0.0805
   98SAPC     N 9637   0.681   2.994   4.290  0.0884  0.2351  0.1227
   98SAPC   C12 9638   0.765   2.997   4.413 -0.4772  0.1513 -0.4088
   98SAPC  H12A 9639   0.855   2.942   4.391 -1.2295 -1.4739  0.4744
   98SAPC  H12B 9640   0.722   2.937   4.491  1.5056  0.2592  0.8226
   98SAPC   C13 9641   0.757   3.051   4.173  0.2774  0.4303  0.2386
   98SAPC  H13A 9642   0.690   3.060   4.088 -0.6340 -0.1161  0.8688
   98SAPC  H13B 9643   0.802   3.147   4.192  1.6966  0.3187 -2.1781
   98SAPC  H13C 9644   0.836   2.982   4.149  0.2000 -0.2851  1.8587
   98SAPC   C14 9645   0.642   2.854   4.250 -0.0193 -0.0657 -0.5493
   98SAPC  H14A 9646   0.583   2.806   4.327  0.4553 -0.6173 -0.5285
   98SAPC  H14B 9647   0.568   2.857   4.171  1.9128  0.8731 -2.4462
   98SAPC  H14C 9648   0.725   2.796   4.213  0.3479  0.1036 -0.0003
   98SAPC   C15 9649   0.554   3.062   4.305 -0.8932  0.1874 -0.5498
   98SAPC  H15A 9650   0.498   3.010   4.382  1.1893 -0.3096  0.7188
   98SAPC  H15B 9651   0.564   3.168   4.323 -1.9432  0.2656 -0.3183
   98SAPC  H15C 9652   0.488   3.063   4.219 -2.8999  0.2174  0.9077
   98SAPC   C11 9653   0.802   3.139   4.477 -0.3190  0.0293  0.6811
   98SAPC  H11A 9654   0.831   3.126   4.583  0.0703 -1.4380  0.4204
   98SAPC  H11B 9655   0.709   3.200   4.479 -1.2908 -1.3466  4.2394
   98SAPC     P 9656   1.043   3.142   4.399 -0.1854  0.1097 -0.1531
   98SAPC   O13 9657   1.060   3.036   4.301  0.2144 -0.1954  0.4412
   98SAPC   O14 9658   1.138   3.252   4.381 -0.7643  0.3390 -0.4750
   98SAPC   O12 9659   0.896   3.203   4.393 -0.2612  0.4561 -0.2709
   98SAPC   O11 9660   1.055   3.076   4.539  0.0039 -0.5614 -0.1802
   98SAPC    C1 9661   1.191   3.068   4.593  0.9180  0.1810 -0.6739
   98SAPC    HA 9662   1.266   3.020   4.527  2.1986  0.1153  0.7735
   98SAPC    HB 9663   1.234   3.169   4.609  1.7169 -0.1785 -0.5392
   98SAPC    C2 9664   1.204   2.994   4.726  0.3834  0.0294  0.7682
   98SAPC    HS 9665   1.191   2.887   4.699  0.4624  0.3644 -0.6917
   98SAPC   O21 9666   1.100   3.040   4.809  0.0372 -0.2961  0.1971
   98SAPC   C21 9667   1.059   2.956   4.901  0.1373 -0.0103  0.1655
   98SAPC   O22 9668   1.077   2.836   4.903 -0.4331  0.1368  0.7480
   98SAPC   C22 9669   0.983   3.025   5.010 -0.3115  0.6181 -0.0409
   98SAPC   H2R 9670   0.895   3.078   4.968 -0.7373 -0.4839 -0.5753
   98SAPC   H2S 9671   0.943   2.955   5.087  0.3966 -0.0118 -0.2367
   98SAPC    C3 9672   1.354   3.002   4.790  0.4510  0.3552  0.6934
   98SAPC    HX 9673   1.418   2.970   4.705  0.9452 -2.3397  1.9852
   98SAPC    HY 9674   1.361   2.921   4.866 -0.9401 -0.7060 -0.2659
   98SAPC   O31 9675   1.393   3.133   4.833  0.6445 -0.9904 -0.3173
   98SAPC   C31 9676   1.477   3.215   4.761 -0.4401 -0.0619 -0.0010
   98SAPC   O32 9677   1.511   3.195   4.645 -0.2735 -0.1655 -0.1318
   98SAPC   C32 9678   1.518   3.336   4.846  0.3161  0.2299  0.2817
   98SAPC   H2X 9679   1.433   3.375   4.905 -0.6921 -1.6734  0.1604
   98SAPC   H2Y 9680   1.542   3.415   4.772 -0.1235  1.8168  1.7662
   98SAPC   C23 9681   1.060   3.136   5.070 -0.6202  0.0844  0.0648
   98SAPC   H3R 9682   0.987   3.199   5.126 -1.2441 -0.3202 -0.2785
   98SAPC   H3S 9683   1.104   3.204   4.994  1.7665 -1.4709 -0.0387
   98SAPC   C24 9684   1.165   3.081   5.172  0.3615  0.3228 -0.9027
   98SAPC   H4R 9685   1.234   3.009   5.121  0.4365 -0.6163  0.4633
   98SAPC   H4S 9686   1.101   3.024   5.242 -0.2441  0.1973 -1.5402
   98SAPC   C25 9687   1.252   3.186   5.234 -0.8074 -0.2184  0.3163
   98SAPC   H5R 9688   1.311   3.247   5.164  0.6032 -0.3882  1.3216
   98SAPC   C26 9689   1.271   3.217   5.365 -0.1804 -0.1028  0.1189
   98SAPC   H6R 9690   1.330   3.304   5.398  0.8603 -0.5603 -0.4824
   98SAPC   C27 9691   1.201   3.136   5.477 -0.7684  0.1882  0.1745
   98SAPC   H7R 9692   1.268   3.069   5.535 -1.3119 -0.7832 -0.2964
   98SAPC   H7S 9693   1.124   3.063   5.446 -1.5931  0.6417  1.1149
   98SAPC   C28 9694   1.123   3.230   5.561  0.3628 -0.1897 -0.1210
   98SAPC   H8R 9695   1.019   3.240   5.527  0.3905  1.0527  0.1061
   98SAPC   C29 9696   1.165   3.286   5.677  0.0219  0.0817  0.0655
   98SAPC   H9R 9697   1.089   3.346   5.728 -0.1387  3.0565 -3.2572
   98SAPC  C210 9698   1.301   3.265   5.747  0.2277 -0.2508  1.0128
   98SAPC  H10R 9699   1.318   3.358   5.804 -0.5608 -0.3314  1.3830
   98SAPC  H10S 9700   1.383   3.242   5.675 -0.2404 -0.6955  0.6166
   98SAPC  C211 9701   1.296   3.148   5.839  0.4448 -0.5280  0.0559
   98SAPC  H11R 9702   1.234   3.064   5.806  0.4086  0.5735 -3.0222
   98SAPC  C212 9703   1.349   3.134   5.969 -0.5283  0.2622  0.4019
   98SAPC  H12R 9704   1.323   3.040   6.021  1.2809 -0.2563  0.4187
   98SAPC  C213 9705   1.451   3.228   6.031 -0.3507  0.4087 -0.2248
   98SAPC  H13R 9706   1.432   3.223   6.141  2.3143  0.7541  0.3208
   98SAPC  H13S 9707   1.416   3.330   6.008 -1.4144 -0.0395 -0.6545
   98SAPC  C214 9708   1.601   3.211   6.008 -0.6232  0.1388 -0.1778
   98SAPC  H14R 9709   1.636   3.121   5.956  2.3072  2.4331 -2.5860
   98SAPC  C215 9710   1.698   3.287   6.070  0.2502 -0.0365  0.2241
   98SAPC  H15R 9711   1.791   3.282   6.011 -0.8973  0.4810 -1.7242
   98SAPC  C216 9712   1.670   3.401   6.152  1.2349 -0.2688  0.3688
   98SAPC  H16R 9713   1.612   3.367   6.241 -0.7722 -0.1030 -0.8176
   98SAPC  H16S 9714   1.599   3.461   6.090 -0.3113 -3.6405 -1.3863
   98SAPC  C217 9715   1.802   3.463   6.197 -0.0189  0.8064  0.5444
   98SAPC  H17R 9716   1.887   3.464   6.126 -0.4943 -0.1030 -0.0473
   98SAPC  H17S 9717   1.832   3.391   6.276 -2.0284 -0.4455  0.2199
   98SAPC  C218 9718   1.759   3.607   6.237  0.6360  0.5363  0.1126
   98SAPC  H18R 9719   1.651   3.600   6.262  0.3652  0.7594 -0.9276
   98SAPC  H18S 9720   1.762   3.682   6.155  0.2300  1.1181  0.6267
   98SAPC  C219 9721   1.838   3.660   6.351 -0.3192 -0.1648  0.3976
   98SAPC  H19R 9722   1.940   3.683   6.312 -1.0349  0.5565 -1.1284
   98SAPC  H19S 9723   1.845   3.583   6.431 -1.2004 -0.2557  0.3880
   98SAPC  C220 9724   1.767   3.784   6.410 -0.1655  0.0355 -0.0955
   98SAPC  H20R 9725   1.745   3.868   6.342  3.2941  0.5135 -0.7876
   98SAPC  H20S 9726   1.846   3.825   6.477  0.6063  0.3216 -1.1640
   98SAPC  H20T 9727   1.669   3.760   6.456 -0.2633 -1.0975 -0.8526
   98SAPC   C33 9728   1.633   3.317   4.949 -0.7442 -0.4173 -0.4647
   98SAPC   H3X 9729   1.678   3.418   4.963 -0.5036 -0.3282 -1.7748
   98SAPC   H3Y 9730   1.715   3.254   4.909 -1.9888 -1.2008 -1.8608
   98SAPC   C34 9731   1.587   3.264   5.078 -1.0588  0.3629  0.2820
   98SAPC   H4X 9732   1.497   3.324   5.101 -0.3796  0.9381  1.5173
   98SAPC   H4Y 9733   1.666   3.286   5.152 -0.7267  0.3511 -0.0630
   98SAPC   C35 9734   1.562   3.110   5.095 -0.2174  0.5020  0.0086
   98SAPC   H5X 9735   1.506   3.064   5.011 -0.9914 -1.0975  1.3387
   98SAPC   H5Y 9736   1.504   3.104   5.190  0.1261  1.2507  0.2711
   98SAPC   C36 9737   1.695   3.034   5.125 -0.3139  0.3903  0.4693
   98SAPC   H6X 9738   1.740   3.064   5.222  0.7497 -0.6928  0.3345
   98SAPC   H6Y 9739   1.762   3.060   5.040 -0.3977  0.6600  0.4837
   98SAPC   C37 9740   1.665   2.885   5.139  0.0694 -0.1223 -0.1973
   98SAPC   H7X 9741   1.618   2.858   5.042  0.6912  2.2499 -1.2226
   98SAPC   H7Y 9742   1.587   2.856   5.213 -1.2701 -0.4525 -1.6891
   98SAPC   C38 9743   1.788   2.804   5.162  0.2405 -0.9258 -0.2808
   98SAPC   H8X 9744   1.863   2.861   5.103  1.0707  0.9307  2.3844
   98SAPC   H8Y 9745   1.792   2.700   5.122 -1.2110 -1.6812  1.3932
   98SAPC   C39 9746   1.832   2.797   5.307  0.1447 -0.0058 -0.0283
   98SAPC   H9X 9747   1.738   2.775   5.363 -0.1823  0.8506 -0.2197
   98SAPC   H9Y 9748   1.867   2.900   5.330  0.1311 -0.2701  1.2260
   98SAPC  C310 9749   1.935   2.686   5.328  0.1561 -0.7012 -0.0109
   98SAPC  H10X 9750   2.012   2.673   5.249  1.3989 -0.0075  1.0439
   98SAPC  H10Y 9751   1.886   2.587   5.314 -1.1951  0.0394 -0.7531
   98SAPC  C311 9752   1.995   2.701   5.474  0.3732  0.8612 -0.0809
   98SAPC  H11X 9753   1.918   2.668   5.547 -0.1120 -1.2127 -1.4346
   98SAPC  H11Y 9754   2.021   2.808   5.489  2.6989  0.4481 -0.8632
   98SAPC  C312 9755   2.118   2.615   5.500 -0.0898  0.3731 -0.4447
   98SAPC  H12X 9756   2.210   2.644   5.444 -0.1107  0.0995 -0.6197
   98SAPC  H12Y 9757   2.087   2.517   5.459  2.0576 -0.4397 -0.2720
   98SAPC  C313 9758   2.148   2.579   5.648  0.7273 -0.6512 -0.6570
   98SAPC  H13X 9759   2.214   2.490   5.648  1.2493 -0.3361  1.7402
   98SAPC  H13Y 9760   2.060   2.537   5.701  0.3163 -1.7974 -2.1771
   98SAPC  C314 9761   2.213   2.697   5.722  0.2683 -0.2836  0.0545
   98SAPC  H14X 9762   2.287   2.755   5.662  1.5159 -1.8456  0.0431
   98SAPC  H14Y 9763   2.252   2.661   5.819  1.4968  1.0339  0.0858
   98SAPC  C315 9764   2.115   2.810   5.775 -0.0129  0.2641 -0.0736
   98SAPC  H15X 9765   2.027   2.748   5.804  1.3556 -1.3369  0.7884
   98SAPC  H15Y 9766   2.080   2.865   5.685  0.2864 -0.4069 -0.6186
   98SAPC  C316 9767   2.172   2.900   5.887 -0.1402 -0.3593 -0.4743
   98SAPC  H16X 9768   2.250   2.968   5.845 -0.7338 -0.6769 -2.1816
   98SAPC  H16Y 9769   2.208   2.847   5.977  0.5714 -0.5546 -0.8627
   98SAPC  C317 9770   2.058   2.993   5.942 -0.7014 -0.5390  0.0196
   98SAPC  H17X 9771   1.964   2.941   5.971 -1.1234 -0.1530 -0.6251
   98SAPC  H17Y 9772   2.023   3.055   5.856  0.4180 -0.9909 -0.7852
   98SAPC  C318 9773   2.087   3.089   6.062  0.3738  0.2106  0.3699
   98SAPC  H18X 9774   1.996   3.147   6.088  1.0740  1.7074 -0.3898
   98SAPC  H18Y 9775   2.170   3.158   6.038  2.9726 -2.1114  2.0542
   98SAPC  H18Z 9776   2.107   3.015   6.143  0.3266 -1.2104 -0.8560
   99SAPC     N 9777   2.620   1.645   3.957  0.0153 -0.7872 -0.0480
   99SAPC   C12 9778   2.636   1.601   4.102 -0.4233 -0.0804 -0.3664
   99SAPC  H12A 9779   2.735   1.559   4.107 -0.1086  0.6555 -0.3430
   99SAPC  H12B 9780   2.558   1.527   4.115 -0.9175  0.5796  0.4884
   99SAPC   C13 9781   2.733   1.721   3.891  0.3338 -0.6238  0.6509
   99SAPC  H13A 9782   2.752   1.814   3.943  3.6705  0.0994 -1.4831
   99SAPC  H13B 9783   2.823   1.662   3.882  0.6289  0.0002 -0.8678
   99SAPC  H13C 9784   2.707   1.754   3.791  4.2574  1.0861  0.0022
   99SAPC   C14 9785   2.603   1.531   3.867 -0.3610  0.3002 -0.2678
   99SAPC  H14A 9786   2.699   1.481   3.869  0.6727  2.1928  1.1559
   99SAPC  H14B 9787   2.519   1.468   3.893  0.9021 -1.3586 -0.0086
   99SAPC  H14C 9788   2.589   1.551   3.762 -1.2718  0.8016 -0.0573
   99SAPC   C15 9789   2.495   1.727   3.949  0.0207  0.2645  0.3506
   99SAPC  H15A 9790   2.411   1.665   3.977  0.6055 -1.4265 -1.4164
   99SAPC  H15B 9791   2.505   1.819   4.004  1.8354  0.8963 -0.9328
   99SAPC  H15C 9792   2.471   1.759   3.848  0.7815  1.3480  0.4942
   99SAPC   C11 9793   2.627   1.710   4.203  0.3181  0.6782  0.4545
   99SAPC  H11A 9794   2.681   1.804   4.174  0.4966  0.3991 -0.1251
   99SAPC  H11B 9795   2.661   1.686   4.306  0.6700  1.8890  0.6443
   99SAPC     P 9796   2.381   1.667   4.297 -0.6620  0.0259  0.2311
   99SAPC   O13 9797   2.258   1.748   4.292 -0.5661  0.0755  0.4991
   99SAPC   O14 9798   2.380   1.533   4.243  0.2972  0.2978 -0.2379
   99SAPC   O12 9799   2.492   1.747   4.222 -0.2319 -0.6169 -0.9995
   99SAPC   O11 9800   2.431   1.661   4.453  0.0265 -0.1352 -0.3821
   99SAPC    C1 9801   2.481   1.776   4.515 -0.5406  0.0204 -0.0926
   99SAPC    HA 9802   2.565   1.821   4.458 -1.4638  0.4705 -1.1400
   99SAPC    HB 9803   2.400   1.852   4.518  0.2468  0.8837 -0.0283
   99SAPC    C2 9804   2.535   1.748   4.656 -0.2524  0.0999  0.6247
   99SAPC    HS 9805   2.590   1.838   4.691  0.1227  0.6477 -1.2847
   99SAPC   O21 9806   2.614   1.626   4.650  0.4199 -0.4716 -0.2807
   99SAPC   C21 9807   2.738   1.643   4.611  0.7796 -0.5944 -0.1269
   99SAPC   O22 9808   2.783   1.741   4.553  0.0043  0.6249  0.2327
   99SAPC   C22 9809   2.820   1.522   4.655  0.3946  0.3647  0.4607
   99SAPC   H2R 9810   2.810   1.507   4.764 -1.5117 -0.1370  0.2592
   99SAPC   H2S 9811   2.773   1.441   4.595  1.2892  1.0854 -1.3108
   99SAPC    C3 9812   2.421   1.724   4.756  0.0349  0.7952  0.3629
   99SAPC    HX 9813   2.352   1.646   4.717 -0.1559  1.1502 -0.0165
   99SAPC    HY 9814   2.365   1.819   4.760 -1.2680  0.0253  3.6613
   99SAPC   O31 9815   2.471   1.695   4.883 -0.2684  0.6127  0.1436
   99SAPC   C31 9816   2.381   1.637   4.974 -0.9310  0.4089  0.3205
   99SAPC   O32 9817   2.268   1.631   4.954  0.2269  0.1848  0.1083
   99SAPC   C32 9818   2.458   1.562   5.082 -0.8777 -0.8768 -0.3768
   99SAPC   H2X 9819   2.515   1.635   5.143 -1.0786 -0.5756 -0.5484
   99SAPC   H2Y 9820   2.528   1.495   5.028  0.9971  0.1665  0.6533
   99SAPC   C23 9821   2.976   1.523   4.624 -0.0852  0.1787  0.2175
   99SAPC   H3R 9822   3.010   1.628   4.627 -1.5563  0.9412 -3.4701
   99SAPC   H3S 9823   2.998   1.488   4.520  4.1040  0.7488  0.7360
   99SAPC   C24 9824   3.053   1.431   4.725  0.1618 -0.8363 -0.1022
   99SAPC   H4R 9825   3.039   1.462   4.831 -2.0014 -1.0099 -0.3018
   99SAPC   H4S 9826   3.159   1.436   4.690  0.5450  2.3712  1.1463
   99SAPC   C25 9827   2.998   1.294   4.724  0.0806  0.1457  0.2216
   99SAPC   H5R 9828   2.971   1.262   4.622 -0.1690  1.2786 -0.0797
   99SAPC   C26 9829   2.960   1.218   4.827 -0.2901  0.2484 -0.4173
   99SAPC   H6R 9830   2.939   1.114   4.798 -1.0660  0.8777 -2.1800
   99SAPC   C27 9831   2.982   1.247   4.974 -0.1679  0.8320 -0.1182
   99SAPC   H7R 9832   3.074   1.309   4.987  0.1024  0.7215 -1.3924
   99SAPC   H7S 9833   2.985   1.154   5.035 -0.3269  1.7773  1.3957
   99SAPC   C28 9834   2.877   1.333   5.040 -0.1316 -0.6488  0.3481
   99SAPC   H8R 9835   2.825   1.399   4.969  0.0329  0.4673  1.2394
   99SAPC   C29 9836   2.849   1.343   5.171  0.0918 -0.8951 -0.1968
   99SAPC   H9R 9837   2.765   1.404   5.207  0.8761 -0.4078  0.8743
   99SAPC  C210 9838   2.911   1.276   5.294  0.1844 -0.3653  0.6514
   99SAPC  H10R 9839   2.884   1.338   5.382  1.7784 -0.3907  1.1838
   99SAPC  H10S 9840   3.022   1.272   5.292  0.2398  0.0845  1.8874
   99SAPC  C211 9841   2.856   1.133   5.301 -0.1100 -0.8263  0.3458
   99SAPC  H11R 9842   2.839   1.089   5.202 -3.2838  0.9652 -0.0415
   99SAPC  C212 9843   2.849   1.056   5.417  0.2809  0.2073  0.4432
   99SAPC  H12R 9844   2.811   0.953   5.415 -0.4345  0.4759 -0.1410
   99SAPC  C213 9845   2.885   1.108   5.555  0.0953 -0.0064  0.4641
   99SAPC  H13R 9846   2.870   1.217   5.573  3.7012  0.3684  1.9656
   99SAPC  H13S 9847   2.995   1.096   5.561  0.2607  1.1864  0.1203
   99SAPC  C214 9848   2.825   1.024   5.666  0.2681  0.1651 -0.3157
   99SAPC  H14R 9849   2.873   0.926   5.676  0.0346  0.0889  0.1023
   99SAPC  C215 9850   2.729   1.060   5.756  0.1501 -0.2322 -1.0519
   99SAPC  H15R 9851   2.702   0.990   5.837 -1.9895  1.2214 -0.4389
   99SAPC  C216 9852   2.642   1.185   5.765 -0.2294 -0.1505  0.4892
   99SAPC  H16R 9853   2.545   1.153   5.809  0.5794 -2.8747  0.4546
   99SAPC  H16S 9854   2.616   1.227   5.665 -3.3432  2.0005  2.0322
   99SAPC  C217 9855   2.714   1.303   5.841  0.6631  0.3925  0.2567
   99SAPC  H17R 9856   2.801   1.350   5.792  0.8383 -0.6817 -0.5052
   99SAPC  H17S 9857   2.763   1.264   5.932  5.3375 -1.5290 -2.7061
   99SAPC  C218 9858   2.617   1.423   5.870  0.0377  0.5316 -0.0738
   99SAPC  H18R 9859   2.516   1.390   5.902 -0.7362  1.4089 -1.4995
   99SAPC  H18S 9860   2.601   1.466   5.768  0.5597  0.4540 -0.1933
   99SAPC  C219 9861   2.672   1.522   5.967 -0.1235  0.9234  0.2415
   99SAPC  H19R 9862   2.608   1.612   5.955  0.3822  1.0210 -2.2996
   99SAPC  H19S 9863   2.774   1.556   5.940  0.0332  1.7828  1.7897
   99SAPC  C220 9864   2.678   1.484   6.115  0.8772 -0.0085  0.2752
   99SAPC  H20R 9865   2.574   1.460   6.147  0.8745  2.3281  2.2770
   99SAPC  H20S 9866   2.712   1.574   6.169 -0.8191  0.5988  0.3938
   99SAPC  H20T 9867   2.737   1.393   6.140  1.3569 -0.8214 -3.2109
   99SAPC   C33 9868   2.365   1.470   5.173 -0.3357  0.7979 -0.3482
   99SAPC   H3X 9869   2.300   1.408   5.107 -0.3057  1.6982 -1.2535
   99SAPC   H3Y 9870   2.299   1.522   5.245 -1.4701 -1.8766  0.6727
   99SAPC   C34 9871   2.465   1.386   5.256  0.4240  0.1008  0.3702
   99SAPC   H4X 9872   2.524   1.458   5.316  1.0895  0.3108 -0.5194
   99SAPC   H4Y 9873   2.525   1.334   5.178 -0.8764  1.1533 -1.3870
   99SAPC   C35 9874   2.386   1.290   5.349 -0.0113 -0.6780 -0.5385
   99SAPC   H5X 9875   2.460   1.223   5.398 -0.4637  0.1791  1.4316
   99SAPC   H5Y 9876   2.315   1.223   5.296  1.1472 -2.2335 -0.1712
   99SAPC   C36 9877   2.324   1.367   5.469 -0.1157  0.2862  0.4574
   99SAPC   H6X 9878   2.235   1.422   5.431 -1.8506 -3.3497 -1.2307
   99SAPC   H6Y 9879   2.401   1.439   5.503 -0.2030  0.9264 -0.6449
   99SAPC   C37 9880   2.276   1.267   5.580  0.2614 -0.0516 -0.4689
   99SAPC   H7X 9881   2.367   1.238   5.637  0.6390  2.6827  0.4759
   99SAPC   H7Y 9882   2.235   1.178   5.529 -0.8055 -0.2174  0.6370
   99SAPC   C38 9883   2.159   1.313   5.674  0.1569 -0.2337  0.7634
   99SAPC   H8X 9884   2.064   1.326   5.618 -0.6436 -0.1068  2.1215
   99SAPC   H8Y 9885   2.189   1.410   5.718 -0.4927  0.5645 -0.4828
   99SAPC   C39 9886   2.141   1.205   5.780  0.2236 -0.0860 -0.1825
   99SAPC   H9X 9887   2.243   1.189   5.821  0.8606  2.5198 -0.5141
   99SAPC   H9Y 9888   2.096   1.113   5.738  2.0374 -0.9954 -0.2335
   99SAPC  C310 9889   2.057   1.250   5.895 -0.0381  0.1727 -0.1736
   99SAPC  H10X 9890   1.956   1.260   5.851  0.2449  1.7713 -0.5481
   99SAPC  H10Y 9891   2.087   1.349   5.935  2.7556 -1.3661  1.8740
   99SAPC  C311 9892   2.066   1.155   6.015 -1.0431 -0.3271  0.8830
   99SAPC  H11X 9893   2.046   1.053   5.974  0.3315  0.1096 -1.0110
   99SAPC  H11Y 9894   1.983   1.189   6.081 -0.1738  0.2988  1.6648
   99SAPC  C312 9895   2.197   1.164   6.097  0.1660 -0.3295  0.5087
   99SAPC  H12X 9896   2.171   1.148   6.204 -0.2329 -0.7999  0.3491
   99SAPC  H12Y 9897   2.247   1.260   6.074  0.4942 -0.7761 -0.7666
   99SAPC  C313 9898   2.295   1.051   6.056  0.2533  0.0385  0.4244
   99SAPC  H13X 9899   2.360   1.082   5.972 -1.2722 -0.6114 -1.0530
   99SAPC  H13Y 9900   2.240   0.964   6.014 -1.8554  1.8289 -0.7638
   99SAPC  C314 9901   2.386   1.019   6.179  0.0129  0.4111 -0.2462
   99SAPC  H14X 9902   2.325   0.992   6.268  1.3566  1.7497  1.1611
   99SAPC  H14Y 9903   2.439   1.113   6.206 -0.7549  1.3346 -1.8651
   99SAPC  C315 9904   2.478   0.898   6.144  0.2205 -0.3734 -0.1300
   99SAPC  H15X 9905   2.419   0.839   6.070  0.3883 -0.9892  0.2221
   99SAPC  H15Y 9906   2.494   0.828   6.228 -2.7690 -1.0831 -0.0596
   99SAPC  C316 9907   2.603   0.928   6.072 -0.0556 -0.1295  0.3520
   99SAPC  H16X 9908   2.594   1.027   6.023  2.2137 -0.4333 -0.8105
   99SAPC  H16Y 9909   2.624   0.854   5.992 -1.4886  1.2325 -1.3734
   99SAPC  C317 9910   2.729   0.942   6.163  0.9622  0.0299  0.8924
   99SAPC  H17X 9911   2.741   0.840   6.205 -0.1783 -0.6398 -0.3180
   99SAPC  H17Y 9912   2.712   1.023   6.237  1.1531  0.0094  0.9602
   99SAPC  C318 9913   2.857   0.989   6.082  0.6138  0.5721 -0.5365
   99SAPC  H18X 9914   2.897   0.920   6.005  0.7808 -0.9350  0.8661
   99SAPC  H18Y 9915   2.933   1.027   6.153 -1.3481  2.2285  0.7873
   99SAPC  H18Z 9916   2.835   1.079   6.020 -0.6112  0.4232 -0.3426
  100SAPC     N 9917   6.372   4.286   4.095 -0.1274 -0.3661 -0.1876
  100SAPC   C12 9918   6.364   4.137   4.083  0.1033  0.5459 -0.7866
  100SAPC  H12A 9919   6.462   4.092   4.084 -0.8886 -2.1983  4.0039
  100SAPC  H12B 9920   6.318   4.114   3.988 -1.7378  0.0492  0.1769
  100SAPC   C13 9921   6.238   4.341   4.058  0.6238 -0.0113 -0.5420
  100SAPC  H13A 9922   6.223   4.448   4.065  0.1142 -0.0724 -0.6177
  100SAPC  H13B 9923   6.214   4.309   3.958  3.2085 -1.2757 -0.8484
  100SAPC  H13C 9924   6.154   4.301   4.113 -0.5639  0.6432 -1.8197
  100SAPC   C14 9925   6.395   4.328   4.235 -0.5494 -0.1415 -0.5641
  100SAPC  H14A 9926   6.431   4.430   4.240  0.5278 -0.5502  1.4062
  100SAPC  H14B 9927   6.308   4.322   4.300 -0.0096  1.7617  0.4113
  100SAPC  H14C 9928   6.476   4.268   4.273  0.4277  1.5228  0.1141
  100SAPC   C15 9929   6.477   4.344   4.008  0.8704  0.6715  0.0358
  100SAPC  H15A 9930   6.464   4.311   3.906  0.3098 -1.2853  0.6913
  100SAPC  H15B 9931   6.480   4.452   4.007  1.8723  0.7391 -3.3987
  100SAPC  H15C 9932   6.578   4.318   4.037  1.2895  3.3200  1.2484
  100SAPC   C11 9933   6.290   4.067   4.193  0.6978  1.0318 -0.3592
  100SAPC  H11A 9934   6.293   3.967   4.144  2.0873  2.4503 -3.4361
  100SAPC  H11B 9935   6.185   4.102   4.201  0.8843  1.6288 -0.4961
  100SAPC     P 9936   6.506   4.007   4.336  0.0948 -0.2516 -0.2954
  100SAPC   O13 9937   6.601   4.070   4.243  0.5817 -0.2343  0.3789
  100SAPC   O14 9938   6.538   4.007   4.480  0.0722  1.2379 -0.4299
  100SAPC   O12 9939   6.368   4.078   4.318 -0.0862 -0.1042  0.3605
  100SAPC   O11 9940   6.475   3.859   4.291 -0.1134  0.0945 -0.2353
  100SAPC    C1 9941   6.569   3.765   4.240  0.4878 -0.0662  0.6416
  100SAPC    HA 9942   6.511   3.694   4.177 -1.8915  2.2036  0.0630
  100SAPC    HB 9943   6.640   3.815   4.170  0.0958 -0.8071 -0.3051
  100SAPC    C2 9944   6.641   3.676   4.351 -0.9691  0.3694  1.1022
  100SAPC    HS 9945   6.648   3.570   4.319 -0.9332  0.8663 -0.6201
  100SAPC   O21 9946   6.582   3.684   4.481  0.1305 -0.0555 -0.1051
  100SAPC   C21 9947   6.462   3.646   4.483  0.2867  0.4402  0.0527
  100SAPC   O22 9948   6.404   3.582   4.395 -0.2270  0.2638 -0.6096
  100SAPC   C22 9949   6.405   3.704   4.616  0.6781  0.5227  0.4001
  100SAPC   H2R 9950   6.472   3.788   4.645  0.5570  0.4854  0.7840
  100SAPC   H2S 9951   6.301   3.739   4.600  0.6676 -0.3479 -1.8189
  100SAPC    C3 9952   6.793   3.721   4.372 -0.1574  0.2408  0.2974
  100SAPC    HX 9953   6.796   3.828   4.403  0.9523  0.3450 -0.1467
  100SAPC    HY 9954   6.842   3.704   4.274  0.0876  0.9679  0.2892
  100SAPC   O31 9955   6.859   3.630   4.464  0.1226 -0.2951  0.2311
  100SAPC   C31 9956   6.943   3.687   4.548 -0.2579  0.9598  0.4601
  100SAPC   O32 9957   6.992   3.799   4.529  0.1989  0.7525  0.0298
  100SAPC   C32 9958   6.977   3.594   4.662  0.4783  0.3867 -0.3346
  100SAPC   H2X 9959   7.088   3.601   4.667  0.5866  0.7394 -2.2396
  100SAPC   H2Y 9960   6.936   3.497   4.627 -2.5991  1.4816 -0.0578
  100SAPC   C23 9961   6.385   3.594   4.728 -1.3548 -0.5034  0.0710
  100SAPC   H3R 9962   6.480   3.537   4.731 -0.6339  0.5991 -0.9532
  100SAPC   H3S 9963   6.300   3.527   4.705 -0.0745 -1.4200 -2.2744
  100SAPC   C24 9964   6.370   3.663   4.858 -0.7085 -0.3390 -0.1887
  100SAPC   H4R 9965   6.438   3.750   4.867 -0.7197 -0.4232  0.8332
  100SAPC   H4S 9966   6.421   3.611   4.942  1.1566  1.5984 -0.0534
  100SAPC   C25 9967   6.234   3.689   4.913  0.4636  0.0089 -0.6867
  100SAPC   H5R 9968   6.163   3.609   4.885  1.1890 -0.6772 -0.6212
  100SAPC   C26 9969   6.199   3.779   5.016 -0.3820  0.7193 -0.3250
  100SAPC   H6R 9970   6.093   3.781   5.046  0.2439 -2.1185  2.7155
  100SAPC   C27 9971   6.289   3.878   5.082 -0.1827  0.0513  0.1330
  100SAPC   H7R 9972   6.383   3.891   5.025 -0.7294  1.8776 -0.4204
  100SAPC   H7S 9973   6.303   3.837   5.185 -1.1580  3.9476  2.0237
  100SAPC   C28 9974   6.223   4.008   5.103  0.2648 -1.1256  0.1562
  100SAPC   H8R 9975   6.183   4.064   5.017 -1.2554  1.2393  2.2426
  100SAPC   C29 9976   6.183   4.061   5.222  0.0836  0.2037 -1.0728
  100SAPC   H9R 9977   6.142   4.163   5.218  1.2572  0.7579  0.1317
  100SAPC  C210 9978   6.207   4.004   5.357 -0.0478  0.7412 -0.3244
  100SAPC  H10R 9979   6.183   3.895   5.348  1.2532  0.5114 -1.4422
  100SAPC  H10S 9980   6.132   4.047   5.426 -0.2479  0.3773 -0.3101
  100SAPC  C211 9981   6.348   4.013   5.412  1.2195  0.1344 -0.0481
  100SAPC  H11R 9982   6.421   3.953   5.356  0.6962 -1.5034  0.9539
  100SAPC  C212 9983   6.386   4.067   5.527  0.4552 -0.5228 -0.5929
  100SAPC  H12R 9984   6.493   4.071   5.553  0.4966  0.0002 -0.8192
  100SAPC  C213 9985   6.303   4.143   5.618  1.0400  0.2086 -0.1193
  100SAPC  H13R 9986   6.242   4.212   5.557  0.7771 -1.5260 -1.9281
  100SAPC  H13S 9987   6.374   4.211   5.670 -0.3390  1.5484  0.0742
  100SAPC  C214 9988   6.207   4.060   5.702  0.4819 -0.5805 -0.1621
  100SAPC  H14R 9989   6.120   4.028   5.642 -0.8601  1.9312  0.2909
  100SAPC  C215 9990   6.230   4.021   5.830 -0.0659  0.0981 -0.3959
  100SAPC  H15R 9991   6.147   3.978   5.887 -1.1449  2.3438 -0.1484
  100SAPC  C216 9992   6.350   4.048   5.921  0.8796  0.0763  0.3525
  100SAPC  H16R 9993   6.444   4.069   5.867  2.5005  0.4583  3.1583
  100SAPC  H16S 9994   6.374   3.958   5.982 -2.0608  0.4706  2.3352
  100SAPC  C217 9995   6.316   4.166   6.010 -0.5094  0.5106  0.5124
  100SAPC  H17R 9996   6.206   4.171   6.027 -0.9564 -0.9969 -1.5628
  100SAPC  H17S 9997   6.344   4.258   5.955 -1.3209  0.0237 -0.7440
  100SAPC  C218 9998   6.402   4.163   6.138  0.2408 -0.1716 -0.5684
  100SAPC  H18R 9999   6.511   4.176   6.125  0.9566 -0.2288  3.8569
  100SAPC  H18S10000   6.388   4.062   6.183  0.4519 -0.2133 -0.5961
  100SAPC  C21910001   6.367   4.260   6.250  0.4565 -0.1164  0.4764
  100SAPC  H19R10002   6.258   4.273   6.269  0.4742  2.6475 -0.7520
  100SAPC  H19S10003   6.397   4.366   6.231  2.2859 -0.6386  0.2965
  100SAPC  C22010004   6.440   4.232   6.380  0.8496 -0.4827 -0.5516
  100SAPC  H20R10005   6.434   4.125   6.409  0.5416 -0.3425 -0.0821
  100SAPC  H20S10006   6.405   4.299   6.461  2.2876  0.7299 -0.8811
  100SAPC  H20T10007   6.548   4.256   6.370  0.6845  0.1925 -0.7919
  100SAPC   C3310008   6.920   3.632   4.797  0.2153 -0.3745  0.1155
  100SAPC   H3X10009   6.928   3.742   4.811  2.1768 -0.2707 -1.3937
  100SAPC   H3Y10010   6.982   3.586   4.877  2.1718  1.7844 -0.0347
  100SAPC   C3410011   6.774   3.584   4.820  0.0382  0.2971  0.1852
  100SAPC   H4X10012   6.759   3.480   4.782 -3.0941  0.6315  0.2810
  100SAPC   H4Y10013   6.706   3.645   4.757  1.4959 -0.0335 -1.8147
  100SAPC   C3510014   6.733   3.614   4.960 -0.0307  0.1289  0.6388
  100SAPC   H5X10015   6.786   3.545   5.030  0.3584 -0.8600 -0.5958
  100SAPC   H5Y10016   6.626   3.589   4.969 -0.9979  3.1992 -0.9242
  100SAPC   C3610017   6.734   3.769   4.988 -0.4515 -0.0052 -0.2445
  100SAPC   H6X10018   6.676   3.823   4.910 -0.7583  0.3108  0.2043
  100SAPC   H6Y10019   6.840   3.803   4.989 -0.2667 -0.5547 -0.5983
  100SAPC   C3710020   6.660   3.810   5.123  0.1247  0.3241 -0.0999
  100SAPC   H7X10021   6.563   3.756   5.112 -1.1575  2.6217 -0.6637
  100SAPC   H7Y10022   6.624   3.915   5.117  0.3531  0.3468 -1.6379
  100SAPC   C3810023   6.722   3.773   5.258  0.0689  0.0452  0.0290
  100SAPC   H8X10024   6.814   3.823   5.294  1.2556 -2.5079  0.7598
  100SAPC   H8Y10025   6.749   3.666   5.248  0.4484  0.0819  0.5724
  100SAPC   C3910026   6.626   3.775   5.379  0.1689  0.2280  0.1220
  100SAPC   H9X10027   6.531   3.719   5.366  0.6194 -0.8140  1.1039
  100SAPC   H9Y10028   6.594   3.880   5.392 -1.2329  0.5228 -4.1405
  100SAPC  C31010029   6.700   3.733   5.508  0.1497 -0.2146  0.2635
  100SAPC  H10X10030   6.807   3.764   5.508  0.6350 -1.7913  0.0291
  100SAPC  H10Y10031   6.706   3.622   5.510 -1.5428 -0.3178  0.4846
  100SAPC  C31110032   6.626   3.783   5.631 -0.0519  0.1462 -0.1056
  100SAPC  H11X10033   6.527   3.734   5.627  0.6377 -1.2643 -0.5840
  100SAPC  H11Y10034   6.620   3.894   5.632  1.6085  0.3077 -1.7467
  100SAPC  C31210035   6.691   3.720   5.757 -0.4525  0.2034  0.5612
  100SAPC  H12X10036   6.800   3.735   5.743 -0.5918  0.1154 -0.6785
  100SAPC  H12Y10037   6.665   3.612   5.769 -2.4667  0.5205 -0.5365
  100SAPC  C31310038   6.645   3.798   5.880 -0.0757 -0.0949 -0.0171
  100SAPC  H13X10039   6.535   3.809   5.866  0.1389  0.9818 -0.9859
  100SAPC  H13Y10040   6.688   3.900   5.891 -1.8275  0.5875  0.8088
  100SAPC  C31410041   6.664   3.721   6.015 -0.0422 -0.0191  0.4841
  100SAPC  H14X10042   6.772   3.704   6.031  0.5503  2.2798 -0.6199
  100SAPC  H14Y10043   6.609   3.625   6.001  3.6128 -2.4839  1.6420
  100SAPC  C31510044   6.615   3.794   6.137 -0.0730  1.3080 -0.7431
  100SAPC  H15X10045   6.509   3.825   6.125  0.4772  3.5564 -0.1248
  100SAPC  H15Y10046   6.664   3.892   6.154 -1.7697  1.7031  2.8884
  100SAPC  C31610047   6.632   3.709   6.263 -0.9455  0.4228  0.0117
  100SAPC  H16X10048   6.733   3.665   6.253 -1.3679 -0.2589 -1.5204
  100SAPC  H16Y10049   6.561   3.624   6.279 -0.7833 -0.1963 -2.2747
  100SAPC  C31710050   6.639   3.793   6.389 -0.4656 -0.1868  0.2717
  100SAPC  H17X10051   6.712   3.876   6.378  0.5121 -1.2595 -1.9567
  100SAPC  H17Y10052   6.673   3.731   6.474  1.3083 -0.0877 -0.3279
  100SAPC  C31810053   6.513   3.848   6.430 -0.4083 -0.5146  0.3157
  100SAPC  H18X10054   6.430   3.775   6.440 -0.0064 -0.8447  1.3260
  100SAPC  H18Y10055   6.481   3.925   6.355  2.0778 -0.1577 -0.4671
  100SAPC  H18Z10056   6.534   3.888   6.532  2.9963  1.8476 -1.1194
  101OSM      N10057   6.216   0.259   0.361  0.1811 -0.2045 -0.8795
  101OSM    C1510058   6.219   0.133   0.455 -0.3962 -0.6208 -0.5256
  101OSM   H15A10059   6.313   0.131   0.509 -2.3264  0.2445  3.1921
  101OSM   H15B10060   6.207   0.043   0.398  0.6182 -2.2929  1.7470
  101OSM   H15C10061   6.139   0.135   0.527 -0.1332  1.8778 -0.1863
  101OSM    C1410062   6.078   0.276   0.310 -0.1952 -0.0399  0.2248
  101OSM   H14A10063   5.995   0.283   0.379 -0.5894 -1.0967 -0.1208
  101OSM   H14B10064   6.062   0.196   0.240  1.2150  1.7515 -2.2653
  101OSM   H14C10065   6.074   0.367   0.252 -1.2633  0.0441  0.4109
  101OSM    C1310066   6.256   0.389   0.424 -0.0722  0.2241 -0.1915
  101OSM   H13A10067   6.261   0.458   0.341  0.4679  0.9176  0.3984
  101OSM   H13B10068   6.351   0.385   0.476  1.3714  1.5495 -2.5515
  101OSM   H13C10069   6.181   0.420   0.495 -0.9983 -2.6501  0.1862
  101OSM    C1210070   6.321   0.241   0.249  0.4272 -0.5076 -0.4445
  101OSM   H12A10071   6.421   0.227   0.289  0.0700  2.7101  2.0117
  101OSM   H12B10072   6.319   0.335   0.195  0.6852  0.5044  1.2100
  101OSM    C1110073   6.291   0.128   0.144 -0.2502 -0.0792  0.5464
  101OSM   H11A10074   6.376   0.124   0.073 -0.5026  0.7009  0.1830
  101OSM   H11B10075   6.206   0.167   0.085  1.1934  1.5866 -0.5285
  101OSM      P10076   6.368  -0.101   0.247  0.2516 -0.5304  0.1169
  101OSM    O1310077   6.490  -0.035   0.291  0.0878 -0.0422  0.0110
  101OSM    O1410078   6.303  -0.199   0.336  0.1945  0.3689  0.2465
  101OSM    O1110079   6.396  -0.169   0.111  0.5371  0.1820  0.1213
  101OSM    O1210080   6.259   0.003   0.207 -0.2318 -0.1278 -0.2713
  101OSM    C1S10081   6.293  -0.178   0.008  0.4433 -0.1372 -0.6633
  101OSM    H1S10082   6.297  -0.085  -0.052 -2.7209 -0.9595 -2.3721
  101OSM    H1T10083   6.191  -0.185   0.051  1.1862 -0.9272  1.0947
  101OSM     NF10084   6.271  -0.255  -0.217  0.5249 -0.0507 -0.2772
  101OSM    HNF10085   6.176  -0.279  -0.237  0.2799 -1.0751  1.7884
  101OSM    C2S10086   6.317  -0.294  -0.081  0.4668  0.2161 -0.2525
  101OSM    H2S10087   6.426  -0.314  -0.092  0.5987  1.3353 -1.2340
  101OSM    C3S10088   6.258  -0.425  -0.019  0.1747 -0.5305  0.2281
  101OSM    H3S10089   6.148  -0.410  -0.026  0.0834 -1.3895 -0.4337
  101OSM     O310090   6.290  -0.458   0.117 -0.7645  0.1264  0.2152
  101OSM    HO310091   6.310  -0.374   0.159  0.6385 -1.3114  2.6524
  101OSM    C4S10092   6.276  -0.532  -0.115  0.6119  0.4026 -0.5209
  101OSM    H4S10093   6.184  -0.557  -0.170 -0.9536  2.1090  1.1505
  101OSM    C5S10094   6.380  -0.611  -0.117  0.4530 -0.2320  0.2817
  101OSM    H5S10095   6.470  -0.590  -0.057  0.0151 -0.6886  1.1186
  101OSM    C6S10096   6.402  -0.718  -0.215  0.1907 -0.1745 -0.5628
  101OSM    H6S10097   6.302  -0.759  -0.242  0.4297  0.7074 -3.0086
  101OSM    H6T10098   6.464  -0.791  -0.159  0.5735  0.2171 -0.4711
  101OSM    C7S10099   6.480  -0.682  -0.340 -0.0909  0.2670  0.2879
  101OSM    H7S10100   6.475  -0.757  -0.422  0.2317  0.9552 -0.3712
  101OSM    H7T10101   6.584  -0.669  -0.304 -0.6000 -0.2480  2.0573
  101OSM    C8S10102   6.419  -0.557  -0.411 -0.4506 -0.8866 -0.5430
  101OSM    H8S10103   6.473  -0.522  -0.502 -1.0045  0.5088 -0.3586
  101OSM    H8T10104   6.409  -0.469  -0.344  1.0571  0.2565 -1.7573
  101OSM    C9S10105   6.274  -0.566  -0.473  0.0977  0.2621  0.3814
  101OSM    H9S10106   6.256  -0.458  -0.488 -0.4357  0.0364 -0.6752
  101OSM    H9T10107   6.198  -0.603  -0.401  0.5758  1.2583  1.4325
  101OSM   C10S10108   6.264  -0.648  -0.600  1.8241 -0.8562  0.0285
  101OSM   H10S10109   6.308  -0.745  -0.569  0.0596 -0.8888  2.7677
  101OSM   H10T10110   6.330  -0.602  -0.677  1.2722  0.8589  0.5451
  101OSM   C11S10111   6.122  -0.657  -0.654  0.5123 -0.0554  0.6419
  101OSM   H11S10112   6.082  -0.555  -0.672 -0.5329 -0.4293  0.8122
  101OSM   H11T10113   6.049  -0.688  -0.577 -1.7382  1.9748 -0.5309
  101OSM   C12S10114   6.114  -0.766  -0.770  0.5095 -0.5104 -0.5655
  101OSM   H12S10115   6.120  -0.857  -0.708 -0.3263 -1.8440 -2.3654
  101OSM   H12T10116   6.202  -0.750  -0.837  2.6326  1.9372  2.5302
  101OSM   C13S10117   5.988  -0.760  -0.857  0.7530 -0.6569 -0.3740
  101OSM   H13S10118   5.963  -0.654  -0.879  2.0122 -0.3103 -0.1927
  101OSM   H13T10119   5.899  -0.811  -0.814  0.1108  0.8092  0.0842
  101OSM   C14S10120   6.020  -0.831  -0.993 -0.0997 -0.2957 -0.6298
  101OSM   H14S10121   6.047  -0.932  -0.956 -2.1847 -0.2889  1.0942
  101OSM   H14T10122   6.110  -0.784  -1.037 -0.6153  0.2035 -1.1692
  101OSM   C15S10123   5.908  -0.846  -1.100  0.5675  0.0562 -0.5967
  101OSM   H15S10124   5.895  -0.747  -1.148  1.6944  0.2805 -0.4666
  101OSM   H15T10125   5.819  -0.884  -1.046  1.7161 -0.7601  0.7989
  101OSM   C16S10126   5.937  -0.954  -1.206 -0.4089  0.6715  0.5477
  101OSM   H16S10127   5.945  -1.058  -1.168 -1.9195 -0.3514 -1.7470
  101OSM   H16T10128   6.040  -0.937  -1.245  0.2673 -1.7539  1.0862
  101OSM   C17S10129   5.846  -0.936  -1.329  0.4658 -0.1775 -0.5966
  101OSM   H17S10130   5.836  -0.826  -1.347 -1.6919 -0.4193 -1.0901
  101OSM   H17T10131   5.741  -0.959  -1.303  0.3808  1.2519  0.4946
  101OSM   C18S10132   5.883  -1.021  -1.448  0.1506  0.8175  0.2008
  101OSM   H18S10133   5.809  -1.015  -1.532  0.4004 -1.2847 -0.2149
  101OSM   H18T10134   5.886  -1.128  -1.419 -1.1284  0.3894 -1.0745
  101OSM   H18U10135   5.983  -0.989  -1.485 -0.0825 -0.3311 -1.5954
  101OSM    C1F10136   6.335  -0.162  -0.290 -0.4307 -0.3412 -0.1836
  101OSM     OF10137   6.443  -0.116  -0.251  0.1398  0.0902 -0.3262
  101OSM    C2F10138   6.292  -0.129  -0.425  0.6982  0.3748  0.5309
  101OSM    H2F10139   6.194  -0.080  -0.409  0.4405  1.0040 -2.3700
  101OSM    H2G10140   6.289  -0.229  -0.473 -1.1912 -0.4576  2.2415
  101OSM    C3F10141   6.392  -0.034  -0.496 -0.3485 -0.2323 -0.1172
  101OSM    H3F10142   6.497  -0.069  -0.502 -0.0923  0.7502 -2.3400
  101OSM    H3G10143   6.385   0.066  -0.448 -1.8311 -0.5481  0.3590
  101OSM    C4F10144   6.358   0.005  -0.643  0.6218 -0.7222  0.1629
  101OSM    H4F10145   6.420   0.082  -0.694  1.9204  0.0183  2.7153
  101OSM    H4G10146   6.257   0.050  -0.654 -0.1513 -2.7085 -1.6712
  101OSM    C5F10147   6.352  -0.115  -0.732  0.6028 -0.0556  0.1215
  101OSM    H5F10148   6.264  -0.168  -0.689 -0.8203  1.4416 -0.8070
  101OSM    H5G10149   6.447  -0.169  -0.716  2.2650  3.3552  3.1688
  101OSM    C6F10150   6.309  -0.083  -0.882  0.0055  0.0740 -0.1380
  101OSM    H6F10151   6.224  -0.011  -0.877  0.8923  1.5331 -3.3324
  101OSM    H6G10152   6.277  -0.174  -0.936 -2.1394 -0.2434  1.5556
  101OSM    C7F10153   6.416  -0.017  -0.962 -0.2833  0.6505 -0.2107
  101OSM    H7F10154   6.506  -0.082  -0.961  1.5405  2.8619 -3.4353
  101OSM    H7G10155   6.442   0.081  -0.917  2.0577  0.2607 -0.6350
  101OSM    C8F10156   6.389   0.008  -1.112  0.0422  0.4192  0.4924
  101OSM    H8F10157   6.483   0.065  -1.132 -0.3524  1.4949  1.5598
  101OSM    H8G10158   6.291   0.060  -1.120 -0.5656 -0.9814 -1.9990
  101OSM    C9F10159   6.393  -0.113  -1.204 -0.5898  0.5470 -0.1547
  101OSM    H9F10160   6.466  -0.193  -1.184 -2.0997 -0.3627  2.2904
  101OSM   C10F10161   6.301  -0.144  -1.293  0.5506  0.1591 -0.2762
  101OSM   H10F10162   6.310  -0.230  -1.361  1.7633 -0.6032  0.8065
  101OSM   C11F10163   6.176  -0.068  -1.320 -1.4039 -0.7240  0.5561
  101OSM   H11F10164   6.144  -0.021  -1.225 -1.5197  2.4562 -0.9414
  101OSM   H11G10165   6.103  -0.146  -1.349 -1.4630 -1.8265  3.2820
  101OSM   C12F10166   6.193   0.026  -1.437  0.4529 -0.1480 -0.4280
  101OSM   H12F10167   6.267   0.101  -1.401 -0.3808  0.4129  0.1578
  101OSM   H12G10168   6.101   0.082  -1.463 -0.8860 -1.2525  1.6581
  101OSM   C13F10169   6.242  -0.043  -1.566  0.2673  0.0828 -0.5637
  101OSM   H13F10170   6.152  -0.094  -1.606  1.4952 -2.2872 -0.4788
  101OSM   H13G10171   6.328  -0.112  -1.552  0.1635  0.2491  0.9665
  101OSM   C14F10172   6.287   0.080  -1.654 -0.0663  0.4055 -0.3860
  101OSM   H14F10173   6.358   0.143  -1.596  0.3653  0.3725 -0.8715
  101OSM   H14G10174   6.207   0.152  -1.682  2.5045  3.8153  0.3333
  101OSM   C15F10175   6.353   0.032  -1.788  0.5172 -0.4366 -0.6778
  101OSM   H15F10176   6.272  -0.019  -1.844 -0.4507  0.8897 -0.5419
  101OSM   H15G10177   6.428  -0.044  -1.758  0.8683  0.8299  1.9812
  101OSM   C16F10178   6.442   0.143  -1.853 -0.1153 -0.7863  0.3862
  101OSM   H16F10179   6.539   0.149  -1.799 -0.3292  2.1761  0.6167
  101OSM   H16G10180   6.391   0.241  -1.847  1.4468  0.2853 -2.0835
  101OSM   C17F10181   6.474   0.118  -2.005  0.2925  0.3721  0.5939
  101OSM   H17F10182   6.539   0.204  -2.033  0.1029  0.7489  1.2627
  101OSM   H17G10183   6.375   0.135  -2.051 -0.0663  0.2466  1.3004
  101OSM   C18F10184   6.541  -0.011  -2.045 -0.2100 -1.2226  0.1622
  101OSM   H18F10185   6.513  -0.040  -2.148  2.2831 -0.0947 -0.8994
  101OSM   H18G10186   6.506  -0.096  -1.982  1.5370 -2.1009 -0.0084
  101OSM   H18H10187   6.652  -0.015  -2.045 -0.0541  1.1083 -1.9608
  102OSM      N10188   2.497   3.141   0.197  0.1735 -0.4448 -0.9907
  102OSM    C1510189   2.487   3.286   0.228 -0.8076  0.0967 -0.1206
  102OSM   H15A10190   2.443   3.347   0.151  0.1467 -0.5318 -1.1948
  102OSM   H15B10191   2.586   3.327   0.234 -0.5576  0.4003 -3.8986
  102OSM   H15C10192   2.433   3.290   0.321  1.6270 -3.2265  1.6518
  102OSM    C1410193   2.614   3.119   0.109 -0.2371 -0.0348  0.8827
  102OSM   H14A10194   2.613   3.204   0.043 -4.8021  0.6904  1.5528
  102OSM   H14B10195   2.601   3.028   0.052 -1.7528  1.2721 -0.9766
  102OSM   H14C10196   2.707   3.127   0.165 -0.2583  2.4315  0.6845
  102OSM    C1310197   2.493   3.064   0.322 -0.5490  0.0842  0.6803
  102OSM   H13A10198   2.498   2.956   0.315 -2.8387  0.0213 -1.3505
  102OSM   H13B10199   2.405   3.094   0.377 -1.2197 -0.0162 -0.3098
  102OSM   H13C10200   2.576   3.098   0.383 -0.6666  0.1399  0.8090
  102OSM    C1210201   2.379   3.094   0.117  0.2024  0.1208 -0.3142
  102OSM   H12A10202   2.286   3.106   0.172 -0.7771  0.2802 -1.9463
  102OSM   H12B10203   2.383   2.988   0.097 -3.3310 -0.0331 -0.8369
  102OSM    C1110204   2.353   3.142  -0.029 -0.7043  0.4736  1.0448
  102OSM   H11A10205   2.368   3.251  -0.047  0.6242 -0.0500 -1.4278
  102OSM   H11B10206   2.250   3.109  -0.055  0.9606 -1.7494 -3.9326
  102OSM      P10207   2.442   2.919  -0.146  0.0373  0.3656 -0.2166
  102OSM    O1310208   2.571   2.869  -0.098 -0.1610 -0.2091 -0.4161
  102OSM    O1410209   2.325   2.864  -0.082  0.5604  0.7707  0.4074
  102OSM    O1110210   2.434   2.904  -0.299  0.8138  0.2329  0.3428
  102OSM    O1210211   2.444   3.073  -0.114 -0.1433 -0.5077  0.8033
  102OSM    C1S10212   2.325   2.960  -0.361  0.6845 -0.5743 -0.3557
  102OSM    H1S10213   2.305   3.063  -0.327 -1.8154 -0.7023 -1.2693
  102OSM    H1T10214   2.234   2.908  -0.324  1.8284 -1.0493  2.0451
  102OSM     NF10215   2.231   3.030  -0.571 -0.3206 -0.7307 -0.1366
  102OSM    HNF10216   2.152   2.981  -0.607 -1.1074  0.3038  0.1199
  102OSM    C2S10217   2.340   2.955  -0.515  0.0440  0.2185  0.0743
  102OSM    H2S10218   2.422   3.023  -0.545 -0.6474  0.6061 -0.9806
  102OSM    C3S10219   2.354   2.815  -0.577  0.5568  0.0908  0.2891
  102OSM    H3S10220   2.259   2.764  -0.549 -0.7990  0.3161 -3.3741
  102OSM     O310221   2.458   2.733  -0.517  0.0914 -0.5783 -0.2926
  102OSM    HO310222   2.485   2.773  -0.434  0.1521  1.0387 -1.0627
  102OSM    C4S10223   2.376   2.816  -0.724 -0.4960  0.3632 -0.0438
  102OSM    H4S10224   2.475   2.854  -0.753  0.7018 -2.3281  0.2308
  102OSM    C5S10225   2.283   2.794  -0.814  0.1131 -0.2489 -0.0792
  102OSM    H5S10226   2.179   2.794  -0.778 -0.5866  0.8986 -1.9314
  102OSM    C6S10227   2.303   2.810  -0.965  0.0869 -0.9142  0.2133
  102OSM    H6S10228   2.406   2.791  -1.002  1.6819  3.0786  1.9973
  102OSM    H6T10229   2.295   2.918  -0.987  0.6415 -0.4932  1.9101
  102OSM    C7S10230   2.209   2.708  -1.045 -0.1399 -0.1269 -0.4132
  102OSM    H7S10231   2.105   2.724  -1.012 -0.3014 -3.4008  1.0118
  102OSM    H7T10232   2.237   2.608  -1.005 -1.1882  0.5161  2.1521
  102OSM    C8S10233   2.222   2.720  -1.194  0.1406 -0.1929 -0.2450
  102OSM    H8S10234   2.323   2.701  -1.234  0.6398 -1.0105  1.3480
  102OSM    H8T10235   2.207   2.828  -1.218 -0.9441 -0.3401 -0.2704
  102OSM    C9S10236   2.116   2.640  -1.272 -0.5342 -0.3114  0.2963
  102OSM    H9S10237   2.020   2.647  -1.216  0.2374 -3.7647  2.3819
  102OSM    H9T10238   2.135   2.531  -1.276 -2.0093 -0.6140  0.7097
  102OSM   C10S10239   2.101   2.680  -1.425  1.0719  0.1606 -0.0353
  102OSM   H10S10240   2.058   2.782  -1.434 -3.3278 -1.5290 -0.4328
  102OSM   H10T10241   2.032   2.604  -1.467 -0.1410  0.8862  0.5805
  102OSM   C11S10242   2.229   2.677  -1.509 -0.2738 -0.2090  0.1478
  102OSM   H11S10243   2.282   2.582  -1.488  1.4261  0.9944  1.6300
  102OSM   H11T10244   2.301   2.756  -1.478 -1.8575  0.8495  1.2541
  102OSM   C12S10245   2.200   2.707  -1.660  0.6215  0.1019  0.1906
  102OSM   H12S10246   2.130   2.627  -1.694 -0.4370  1.9213 -2.2717
  102OSM   H12T10247   2.291   2.694  -1.723  0.3996  0.6832 -0.2670
  102OSM   C13S10248   2.130   2.840  -1.698  0.3586 -0.4231  0.1530
  102OSM   H13S10249   2.195   2.928  -1.681 -1.2304  0.6244  1.0730
  102OSM   H13T10250   2.051   2.856  -1.621 -2.5624 -1.6547 -2.3502
  102OSM   C14S10251   2.061   2.839  -1.837 -0.3874 -0.7527  0.9430
  102OSM   H14S10252   2.007   2.935  -1.850 -1.3993 -1.1707  1.8301
  102OSM   H14T10253   1.984   2.759  -1.850  1.3407 -2.1452 -1.2416
  102OSM   C15S10254   2.166   2.801  -1.947  0.3043 -0.3363 -0.4645
  102OSM   H15S10255   2.187   2.692  -1.946 -0.8807 -0.5845 -0.3157
  102OSM   H15T10256   2.260   2.849  -1.914 -0.5503 -0.7688  3.0736
  102OSM   C16S10257   2.110   2.837  -2.083 -0.2179  0.3030 -0.4087
  102OSM   H16S10258   2.085   2.945  -2.095  0.7743  0.7737  1.4660
  102OSM   H16T10259   2.017   2.777  -2.096  1.6399 -3.8161  2.7410
  102OSM   C17S10260   2.191   2.772  -2.192 -0.1111 -0.8072 -0.1381
  102OSM   H17S10261   2.136   2.769  -2.288  0.7551 -2.2419 -0.6171
  102OSM   H17T10262   2.214   2.667  -2.163  0.2690 -0.1994  1.9394
  102OSM   C18S10263   2.325   2.844  -2.216  0.3598  0.0492 -0.1361
  102OSM   H18S10264   2.396   2.786  -2.280 -0.2518 -0.8290 -0.0350
  102OSM   H18T10265   2.377   2.870  -2.121 -0.4170  2.1924 -0.2452
  102OSM   H18U10266   2.313   2.946  -2.258  0.1125  0.7017  1.4377
  102OSM    C1F10267   2.216   3.163  -0.555  1.1687 -0.0977 -0.3458
  102OSM     OF10268   2.297   3.225  -0.491  0.4335  0.2324 -0.5385
  102OSM    C2F10269   2.095   3.236  -0.612  0.2293 -0.1164  0.5541
  102OSM    H2F10270   2.084   3.332  -0.557  2.5240  0.3608  0.2884
  102OSM    H2G10271   2.000   3.181  -0.597 -1.2235  1.5801 -1.6763
  102OSM    C3F10272   2.127   3.268  -0.769 -0.2073  0.4174  0.2618
  102OSM    H3F10273   2.227   3.310  -0.793 -0.6815  0.0396 -2.8443
  102OSM    H3G10274   2.059   3.349  -0.802  0.7675  0.9743 -0.4200
  102OSM    C4F10275   2.089   3.147  -0.852  0.3630  0.0711  0.2189
  102OSM    H4F10276   1.985   3.119  -0.825  0.9085 -1.7501  0.5941
  102OSM    H4G10277   2.152   3.058  -0.830  0.7513  0.1743 -0.4375
  102OSM    C5F10278   2.101   3.161  -1.005 -0.4940 -0.6786 -0.9202
  102OSM    H5F10279   2.207   3.157  -1.038 -0.7568  0.4443 -1.9349
  102OSM    H5G10280   2.052   3.253  -1.043 -1.2177 -0.1914  1.0447
  102OSM    C6F10281   2.021   3.045  -1.063 -0.3907  0.1132  0.0178
  102OSM    H6F10282   1.910   3.047  -1.053 -0.6461 -3.1870 -1.0032
  102OSM    H6G10283   2.046   2.951  -1.009 -0.7615 -1.0706 -1.7842
  102OSM    C7F10284   2.037   3.024  -1.214 -0.0713 -0.1101  0.2962
  102OSM    H7F10285   1.991   2.930  -1.249  0.4674  0.0893 -1.0029
  102OSM    H7G10286   2.146   3.031  -1.236  0.0837  0.7248  1.2777
  102OSM    C8F10287   1.971   3.139  -1.298  0.5627 -0.1334 -0.1276
  102OSM    H8F10288   2.032   3.137  -1.391  0.8813 -0.1708  0.0813
  102OSM    H8G10289   1.999   3.230  -1.242  0.1041 -0.3580  0.4766
  102OSM    C9F10290   1.819   3.141  -1.324  0.0617 -0.5271 -0.4425
  102OSM    H9F10291   1.761   3.199  -1.251  1.1729 -2.5728  2.2439
  102OSM   C10F10292   1.763   3.093  -1.432  0.2652 -0.2065 -0.6332
  102OSM   H10F10293   1.654   3.100  -1.443  0.1157  2.0705  1.5513
  102OSM   C11F10294   1.838   3.025  -1.542  0.1599  0.0864 -0.2427
  102OSM   H11F10295   1.921   2.965  -1.499 -0.1663 -2.5170 -2.9170
  102OSM   H11G10296   1.885   3.095  -1.615  1.1905 -1.1691 -0.8221
  102OSM   C12F10297   1.746   2.915  -1.597  0.2927 -0.5368  0.1875
  102OSM   H12F10298   1.701   2.855  -1.515  1.6220 -0.6791  0.8520
  102OSM   H12G10299   1.818   2.852  -1.653  2.1284  4.0041 -3.2771
  102OSM   C13F10300   1.645   2.968  -1.703 -0.6474 -0.8213 -0.0234
  102OSM   H13F10301   1.585   3.042  -1.646  0.9135  0.6086 -0.1479
  102OSM   H13G10302   1.566   2.894  -1.728  1.2961 -3.2346  0.5641
  102OSM   C14F10303   1.721   3.044  -1.816 -0.1271 -0.1370  0.4849
  102OSM   H14F10304   1.794   2.968  -1.852  0.9881  0.8824  0.5022
  102OSM   H14G10305   1.775   3.136  -1.785 -1.3227  0.7102  0.1239
  102OSM   C15F10306   1.637   3.092  -1.936  0.9385 -0.2309  0.0632
  102OSM   H15F10307   1.700   3.115  -2.024 -0.9648  0.7388 -1.1348
  102OSM   H15G10308   1.599   3.187  -1.893  2.3009  0.7484 -0.8110
  102OSM   C16F10309   1.519   3.006  -1.985 -0.5822  0.2752  0.1925
  102OSM   H16F10310   1.440   3.001  -1.906  1.4652 -1.3269  2.2796
  102OSM   H16G10311   1.559   2.904  -2.004  0.3018  1.0771 -2.7068
  102OSM   C17F10312   1.457   3.047  -2.118  0.0584 -0.0678  0.0990
  102OSM   H17F10313   1.537   3.062  -2.192  2.1948 -0.5717  2.1819
  102OSM   H17G10314   1.409   3.148  -2.109  2.0181  0.9073  0.1280
  102OSM   C18F10315   1.360   2.938  -2.159  0.0856 -0.1461 -0.2756
  102OSM   H18F10316   1.266   2.947  -2.099 -0.9249  4.3782 -2.1488
  102OSM   H18G10317   1.425   2.849  -2.145  1.4802  0.8346 -0.4220
  102OSM   H18H10318   1.328   2.948  -2.265 -1.9189 -1.5513  0.1317
  103OSM      N10319   0.211   1.680   0.394  0.3963  0.2541 -0.3420
  103OSM    C1510320   0.344   1.609   0.391  0.4118  0.3158 -0.1900
  103OSM   H15A10321   0.344   1.521   0.329 -0.6589  0.1228  0.0594
  103OSM   H15B10322   0.385   1.578   0.486  2.1936 -1.4515 -1.4667
  103OSM   H15C10323   0.421   1.674   0.352 -0.2865  0.4422 -1.4076
  103OSM    C1410324   0.221   1.807   0.471 -0.5893  0.0024  0.8961
  103OSM   H14A10325   0.299   1.861   0.420 -2.0367 -0.2256 -1.7587
  103OSM   H14B10326   0.238   1.798   0.577  1.0777  2.4459  0.9092
  103OSM   H14C10327   0.134   1.870   0.461 -0.2345  0.2709 -0.8974
  103OSM    C1310328   0.174   1.716   0.257 -0.1377 -1.0080  0.4251
  103OSM   H13A10329   0.183   1.634   0.188 -0.5039  2.3456 -4.0547
  103OSM   H13B10330   0.249   1.787   0.227 -0.8107  0.1975  1.5001
  103OSM   H13C10331   0.081   1.769   0.244  0.0559 -1.1414 -2.0049
  103OSM    C1210332   0.108   1.586   0.460  0.3703 -0.3277 -0.4241
  103OSM   H12A10333   0.025   1.636   0.507  0.1871 -0.8613 -0.1862
  103OSM   H12B10334   0.167   1.548   0.543  0.5869  0.1275 -0.3639
  103OSM    C1110335   0.061   1.469   0.376 -0.4910 -0.6162  0.3523
  103OSM   H11A10336   0.023   1.515   0.283  1.9285  1.2320  0.1836
  103OSM   H11B10337  -0.016   1.419   0.439 -0.7582 -0.9513 -0.2300
  103OSM      P10338   0.173   1.235   0.334  0.6795 -0.2097 -0.1540
  103OSM    O1310339   0.312   1.197   0.307  0.4110  0.5652 -0.5209
  103OSM    O1410340   0.098   1.180   0.453 -0.8575  0.3281 -0.2744
  103OSM    O1110341   0.090   1.200   0.202  0.3703  0.3439 -0.2892
  103OSM    O1210342   0.174   1.387   0.334 -0.0280  0.1238 -0.0201
  103OSM    C1S10343   0.134   1.237   0.073  0.1507 -0.1592  0.7206
  103OSM    H1S10344   0.245   1.243   0.064  0.1952  1.9275  1.9239
  103OSM    H1T10345   0.102   1.341   0.050 -5.0364 -1.5687  0.4492
  103OSM     NF10346   0.098   1.198  -0.183 -0.3432  0.2855  0.6736
  103OSM    HNF10347   0.030   1.254  -0.228 -1.0503 -0.4128  0.8511
  103OSM    C2S10348   0.073   1.146  -0.046 -0.6190  0.5230  0.1700
  103OSM    H2S10349   0.119   1.047  -0.026 -2.1573 -0.3061 -0.2603
  103OSM    C3S10350  -0.078   1.126  -0.023 -0.0379  0.0889 -1.1159
  103OSM    H3S10351  -0.133   1.220  -0.047 -1.0861  0.1911  1.3809
  103OSM     O310352  -0.120   1.083   0.106  0.4904  0.0751 -0.0176
  103OSM    HO310353  -0.046   1.111   0.160  0.2872 -1.6824  1.2672
  103OSM    C4S10354  -0.134   1.042  -0.130  0.3720 -0.3985 -0.0078
  103OSM    H4S10355  -0.187   1.102  -0.206 -1.8278 -1.0014  0.9619
  103OSM    C5S10356  -0.143   0.908  -0.129  0.7077  0.0088  0.6760
  103OSM    H5S10357  -0.087   0.840  -0.062  0.8769 -1.5227 -0.9491
  103OSM    C6S10358  -0.235   0.848  -0.239  0.5719 -0.1039 -0.4574
  103OSM    H6S10359  -0.273   0.909  -0.323 -0.5609 -2.2022 -1.5520
  103OSM    H6T10360  -0.329   0.805  -0.197  1.0753  0.4187  1.2710
  103OSM    C7S10361  -0.165   0.735  -0.311 -0.3913 -0.1530  0.4554
  103OSM    H7S10362  -0.157   0.668  -0.224 -0.6936 -0.3358  0.3440
  103OSM    H7T10363  -0.067   0.760  -0.358  0.3357 -3.0257  0.2818
  103OSM    C8S10364  -0.244   0.655  -0.418  0.3437 -0.4992 -0.1600
  103OSM    H8S10365  -0.337   0.613  -0.374  0.1271 -0.9257 -1.0167
  103OSM    H8T10366  -0.185   0.568  -0.454 -2.2460 -2.1540 -0.6786
  103OSM    C9S10367  -0.293   0.745  -0.531  0.2471 -0.8512  0.1377
  103OSM    H9S10368  -0.227   0.835  -0.531 -1.0567  0.1494 -1.4462
  103OSM    H9T10369  -0.390   0.791  -0.505  1.4318  0.5178  2.5234
  103OSM   C10S10370  -0.299   0.681  -0.665  0.6013  0.1013 -0.6299
  103OSM   H10S10371  -0.380   0.740  -0.712 -0.2803 -0.2316  0.4331
  103OSM   H10T10372  -0.321   0.572  -0.665 -0.4835  0.3138 -0.7017
  103OSM   C11S10373  -0.177   0.710  -0.748 -0.0453 -0.3720 -0.0365
  103OSM   H11S10374  -0.076   0.680  -0.713  1.4293  1.4491 -2.3430
  103OSM   H11T10375  -0.176   0.820  -0.730 -1.0788 -0.6458  1.8350
  103OSM   C12S10376  -0.205   0.671  -0.891 -0.0531 -0.5497 -0.3714
  103OSM   H12S10377  -0.311   0.691  -0.919  0.1022 -0.2095 -0.7287
  103OSM   H12T10378  -0.180   0.564  -0.905 -0.4028 -0.9155  1.5590
  103OSM   C13S10379  -0.110   0.747  -0.985  0.5538  0.0645  0.4775
  103OSM   H13S10380  -0.009   0.739  -0.939  1.1216  1.2149 -0.5193
  103OSM   H13T10381  -0.141   0.852  -1.000  1.4857  0.4485  1.1040
  103OSM   C14S10382  -0.096   0.689  -1.124 -0.2799  0.5823 -0.1469
  103OSM   H14S10383  -0.067   0.582  -1.120 -4.2517 -0.6365  0.1284
  103OSM   H14T10384  -0.013   0.738  -1.179  0.0360  1.9968  1.5001
  103OSM   C15S10385  -0.223   0.686  -1.215 -0.2669 -0.0583  0.1608
  103OSM   H15S10386  -0.243   0.794  -1.233  1.9965  0.5651  0.9977
  103OSM   H15T10387  -0.308   0.637  -1.163 -1.1143 -2.1695 -2.9290
  103OSM   C16S10388  -0.193   0.631  -1.353  0.3439  0.3785  0.1785
  103OSM   H16S10389  -0.090   0.661  -1.382  0.5871  0.4535  1.0825
  103OSM   H16T10390  -0.254   0.679  -1.433  0.2852 -0.9536 -0.6219
  103OSM   C17S10391  -0.192   0.479  -1.361 -0.0228 -0.7393 -0.0867
  103OSM   H17S10392  -0.284   0.434  -1.320 -1.1151 -2.1549 -3.6581
  103OSM   H17T10393  -0.108   0.450  -1.294  0.1664 -0.1062 -0.0435
  103OSM   C18S10394  -0.184   0.416  -1.501 -0.3652 -0.0263  0.2928
  103OSM   H18S10395  -0.175   0.306  -1.482 -0.4192 -0.0783  0.0228
  103OSM   H18T10396  -0.092   0.452  -1.553 -0.4054 -0.8407 -0.3826
  103OSM   H18U10397  -0.280   0.438  -1.553 -0.1554  1.0982  0.3768
  103OSM    C1F10398   0.218   1.188  -0.229  0.1529 -0.5174  0.3546
  103OSM     OF10399   0.300   1.124  -0.175 -0.1327 -0.3317  0.1742
  103OSM    C2F10400   0.253   1.266  -0.350 -0.9021  0.0757  0.6331
  103OSM    H2F10401   0.358   1.298  -0.334  0.3261 -2.4469 -1.6148
  103OSM    H2G10402   0.183   1.349  -0.374 -1.7476 -0.6388  0.5968
  103OSM    C3F10403   0.258   1.157  -0.457 -0.2686 -0.4389  0.1630
  103OSM    H3F10404   0.322   1.069  -0.437  2.6131  1.2210 -1.1943
  103OSM    H3G10405   0.291   1.209  -0.549 -2.0008  1.1811  0.4082
  103OSM    C4F10406   0.115   1.116  -0.488  0.1937  0.1655 -0.0216
  103OSM    H4F10407   0.042   1.199  -0.499  0.5532  0.5416  0.3846
  103OSM    H4G10408   0.065   1.063  -0.405 -0.8961  2.6989  1.0505
  103OSM    C5F10409   0.106   1.030  -0.615 -0.4729 -0.6455  0.1022
  103OSM    H5F10410  -0.004   1.016  -0.629 -0.0705 -1.8170 -2.6141
  103OSM    H5G10411   0.158   0.932  -0.612  1.5824  0.3609 -0.6020
  103OSM    C6F10412   0.155   1.095  -0.748 -0.4675 -0.1385 -0.9704
  103OSM    H6F10413   0.261   1.118  -0.725 -0.3199 -2.5523  1.1826
  103OSM    H6G10414   0.094   1.188  -0.759 -2.0216 -1.0450 -0.3340
  103OSM    C7F10415   0.172   0.989  -0.859  0.2724 -0.4673 -0.5857
  103OSM    H7F10416   0.071   0.945  -0.876 -0.7864  1.4382  0.4107
  103OSM    H7G10417   0.233   0.909  -0.813  0.3325  0.3613  0.8220
  103OSM    C8F10418   0.236   1.028  -0.993 -0.1992  0.3886 -0.6294
  103OSM    H8F10419   0.241   0.937  -1.056  2.6444  0.5741 -0.8154
  103OSM    H8G10420   0.336   1.078  -0.994 -0.4618  1.0185 -3.2217
  103OSM    C9F10421   0.159   1.126  -1.069 -0.0273 -0.0890  0.1947
  103OSM    H9F10422   0.109   1.212  -1.020  0.3104  0.2963 -0.1358
  103OSM   C10F10423   0.161   1.121  -1.203 -0.1542 -0.9275 -0.1925
  103OSM   H10F10424   0.099   1.196  -1.253 -2.5515 -2.4821  0.2912
  103OSM   C11F10425   0.240   1.042  -1.297  0.1208  0.1523  0.5753
  103OSM   H11F10426   0.178   0.955  -1.328 -0.8999  1.0059  0.1761
  103OSM   H11G10427   0.340   1.006  -1.263  0.7911  0.5367 -0.9072
  103OSM   C12F10428   0.264   1.115  -1.427 -0.4870 -0.2163 -0.4119
  103OSM   H12F10429   0.345   1.190  -1.420  1.1326 -1.9938  0.8780
  103OSM   H12G10430   0.172   1.171  -1.456 -0.6381  0.6670  1.5979
  103OSM   C13F10431   0.300   1.021  -1.540  0.9419  0.1920 -0.1156
  103OSM   H13F10432   0.220   0.950  -1.570  1.0095 -0.4366  1.1556
  103OSM   H13G10433   0.382   0.952  -1.510  2.1853  3.0288  3.9351
  103OSM   C14F10434   0.333   1.082  -1.678 -0.2659 -0.4497 -0.1502
  103OSM   H14F10435   0.240   1.134  -1.710  1.0349  1.5205 -0.9259
  103OSM   H14G10436   0.370   0.999  -1.742 -1.0280 -2.2965  1.7157
  103OSM   C15F10437   0.447   1.184  -1.668  0.6075 -0.5602  0.0047
  103OSM   H15F10438   0.535   1.141  -1.615  1.3522  1.0020  0.0946
  103OSM   H15G10439   0.396   1.266  -1.613 -0.9310 -0.3550 -1.6543
  103OSM   C16F10440   0.490   1.244  -1.800 -0.4811 -0.1138 -0.2297
  103OSM   H16F10441   0.530   1.346  -1.784 -0.9283  0.3563 -1.9174
  103OSM   H16G10442   0.394   1.254  -1.856 -2.0548  1.9942  2.5816
  103OSM   C17F10443   0.586   1.164  -1.890 -1.0466 -0.9697 -0.0247
  103OSM   H17F10444   0.523   1.075  -1.915 -0.4954 -1.1818 -0.7120
  103OSM   H17G10445   0.672   1.125  -1.831  1.7977  1.7948 -1.9974
  103OSM   C18F10446   0.627   1.230  -2.018  0.5196 -0.1584 -0.8594
  103OSM   H18F10447   0.662   1.158  -2.096  0.6618 -0.2146 -0.7428
  103OSM   H18G10448   0.709   1.303  -2.005  0.1660 -0.0171  0.6752
  103OSM   H18H10449   0.529   1.265  -2.059  0.0455 -0.1718  0.2315
  104OSM      N10450   6.893   4.032   0.567 -0.4817 -0.5038  0.3070
  104OSM    C1510451   6.790   3.953   0.493  0.3694  0.5297 -0.0982
  104OSM   H15A10452   6.743   3.998   0.407  0.1644  0.2772 -0.1182
  104OSM   H15B10453   6.713   3.945   0.569 -0.0216 -2.4844 -0.6786
  104OSM   H15C10454   6.833   3.854   0.482 -0.7538  0.1374 -1.2149
  104OSM    C1410455   6.833   4.162   0.610 -0.6403 -0.1913 -0.4657
  104OSM   H14A10456   6.819   4.233   0.530 -0.1111 -0.7472 -1.0648
  104OSM   H14B10457   6.902   4.205   0.681 -0.3850  0.4339 -1.0929
  104OSM   H14C10458   6.736   4.147   0.657 -1.6860 -2.1892 -2.9953
  104OSM    C1310459   6.933   3.952   0.685 -0.4429  0.3347  0.1687
  104OSM   H13A10460   6.846   3.944   0.749 -1.0600  4.4882  0.1510
  104OSM   H13B10461   7.010   3.999   0.744 -0.2165  1.9324 -1.3327
  104OSM   H13C10462   6.964   3.855   0.648  0.6678  1.4363 -1.9701
  104OSM    C1210463   7.018   4.052   0.480 -0.4275 -0.2781  0.2310
  104OSM   H12A10464   7.101   4.093   0.536  0.6254 -1.6211 -0.3145
  104OSM   H12B10465   6.997   4.133   0.412  0.7840 -0.9627 -1.0022
  104OSM    C1110466   7.066   3.939   0.384 -0.2155  0.4520 -0.4830
  104OSM   H11A10467   7.129   3.983   0.304  0.4176  1.1564  0.3784
  104OSM   H11B10468   6.978   3.882   0.347 -0.7982  1.2203 -0.2979
  104OSM      P10469   7.245   3.753   0.411  0.4564  0.2320 -0.2673
  104OSM    O1310470   7.374   3.770   0.486  0.3475  0.3896 -0.0458
  104OSM    O1410471   7.178   3.622   0.425  0.6985 -0.2524 -0.1475
  104OSM    O1110472   7.258   3.802   0.262  0.1072  0.6569  0.2806
  104OSM    O1210473   7.145   3.863   0.471 -0.4594  0.1068 -0.2801
  104OSM    C1S10474   7.286   3.710   0.151 -0.1505 -0.1458 -0.1401
  104OSM    H1S10475   7.214   3.626   0.142  1.3796 -1.8592  2.3322
  104OSM    H1T10476   7.382   3.657   0.166  0.4522  0.5744 -1.2937
  104OSM     NF10477   7.321   3.702  -0.092  0.2056 -0.0621 -0.2221
  104OSM    HNF10478   7.405   3.701  -0.147  0.4335 -0.0329  0.1227
  104OSM    C2S10479   7.296   3.793   0.020 -0.1724  0.2381 -0.1826
  104OSM    H2S10480   7.199   3.839  -0.008 -1.0382 -0.1871  1.9627
  104OSM    C3S10481   7.396   3.912   0.035 -0.0713  0.1446 -1.1677
  104OSM    H3S10482   7.489   3.862   0.070 -1.2183 -1.8472 -0.8329
  104OSM     O310483   7.355   4.012   0.132  0.0434  0.5138 -0.2433
  104OSM    HO310484   7.284   3.966   0.178 -1.3495 -0.8688 -3.4870
  104OSM    C4S10485   7.429   3.979  -0.097  1.1580 -0.1975 -0.5067
  104OSM    H4S10486   7.532   3.958  -0.130  1.1858  0.3878 -0.8027
  104OSM    C5S10487   7.357   4.055  -0.177  0.1559 -0.3014  0.1676
  104OSM    H5S10488   7.257   4.089  -0.145  1.2411  0.5507  2.9111
  104OSM    C6S10489   7.405   4.118  -0.305  0.4226 -0.4205 -0.5857
  104OSM    H6S10490   7.515   4.115  -0.316  0.5577 -2.0445  0.7433
  104OSM    H6T10491   7.385   4.227  -0.292 -0.2879 -0.1941 -3.0529
  104OSM    C7S10492   7.344   4.064  -0.439  0.5826  0.3658  0.2708
  104OSM    H7S10493   7.235   4.068  -0.416  0.9630  1.0714  2.1127
  104OSM    H7T10494   7.376   3.964  -0.475 -1.8825 -0.1798 -0.6376
  104OSM    C8S10495   7.355   4.160  -0.555  0.4091  0.3192  0.3962
  104OSM    H8S10496   7.299   4.249  -0.519 -0.8845 -0.7623  1.1722
  104OSM    H8T10497   7.296   4.117  -0.638  0.9371  0.3166  0.0190
  104OSM    C9S10498   7.495   4.192  -0.603 -0.1483 -0.2534  0.0056
  104OSM    H9S10499   7.543   4.273  -0.543  1.3104  0.3318 -1.8191
  104OSM    H9T10500   7.482   4.234  -0.706 -1.9838  0.8177  0.6337
  104OSM   C10S10501   7.585   4.073  -0.637 -0.2833 -0.3274 -0.5443
  104OSM   H10S10502   7.578   4.017  -0.542 -3.2256  2.3898  1.0224
  104OSM   H10T10503   7.686   4.117  -0.655 -0.3822  1.5108  2.7077
  104OSM   C11S10504   7.553   3.990  -0.767 -0.0436  0.0479  0.0017
  104OSM   H11S10505   7.569   4.064  -0.849  2.1504  0.7183  0.9663
  104OSM   H11T10506   7.449   3.951  -0.763 -0.1074  0.1839 -0.2467
  104OSM   C12S10507   7.658   3.877  -0.774  0.0668  0.6680  0.7534
  104OSM   H12S10508   7.633   3.790  -0.710  1.1481  0.9428  1.5915
  104OSM   H12T10509   7.763   3.913  -0.760  0.6258  0.7403 -2.7617
  104OSM   C13S10510   7.661   3.823  -0.921  0.0282  0.7953  0.8569
  104OSM   H13S10511   7.710   3.906  -0.976  1.0471 -0.1384  0.3192
  104OSM   H13T10512   7.558   3.808  -0.962  0.1911 -2.5967  1.4257
  104OSM   C14S10513   7.741   3.691  -0.949  0.5960  0.3229  0.0633
  104OSM   H14S10514   7.698   3.609  -0.888 -1.9172  0.0600 -1.8851
  104OSM   H14T10515   7.849   3.710  -0.928  0.9407 -1.1800 -0.2530
  104OSM   C15S10516   7.734   3.656  -1.100 -0.4231  0.3196 -0.3207
  104OSM   H15S10517   7.787   3.731  -1.164 -0.4066 -0.2153 -0.9471
  104OSM   H15T10518   7.627   3.652  -1.130 -0.5579 -1.3006  0.3171
  104OSM   C16S10519   7.789   3.515  -1.139 -0.0124  0.5786 -0.2621
  104OSM   H16S10520   7.751   3.438  -1.068 -1.5701  1.1147 -0.4861
  104OSM   H16T10521   7.899   3.512  -1.124 -0.1727 -0.1502  0.8858
  104OSM   C17S10522   7.767   3.476  -1.284 -0.5574 -0.1494  0.0181
  104OSM   H17S10523   7.840   3.521  -1.354  0.6400 -3.1684 -0.8179
  104OSM   H17T10524   7.662   3.506  -1.309  0.5958  2.7902 -1.8286
  104OSM   C18S10525   7.778   3.325  -1.308  0.7808  0.5759  0.1969
  104OSM   H18S10526   7.697   3.270  -1.256 -0.9116  0.5922 -2.2246
  104OSM   H18T10527   7.873   3.287  -1.267  1.6934  0.8279 -1.5527
  104OSM   H18U10528   7.775   3.295  -1.415  1.8749  0.5743  0.1547
  104OSM    C1F10529   7.247   3.597  -0.122  0.8961  0.4140  0.2264
  104OSM     OF10530   7.136   3.576  -0.067 -0.2795 -0.2521 -0.2066
  104OSM    C2F10531   7.297   3.501  -0.229 -0.3900 -0.4752  0.5779
  104OSM    H2F10532   7.406   3.489  -0.213  0.0338  1.0113 -0.8991
  104OSM    H2G10533   7.284   3.560  -0.322 -1.9757 -1.3631  0.1968
  104OSM    C3F10534   7.205   3.379  -0.250 -0.5970  0.2368  0.4225
  104OSM    H3F10535   7.097   3.405  -0.249 -0.6933 -0.1559  1.2476
  104OSM    H3G10536   7.213   3.315  -0.159  0.9605 -2.9866 -1.7997
  104OSM    C4F10537   7.233   3.294  -0.375 -0.2559 -0.2650  0.0676
  104OSM    H4F10538   7.159   3.211  -0.377  1.7615 -2.1431  0.6862
  104OSM    H4G10539   7.333   3.246  -0.376 -0.4705 -0.8217  2.0920
  104OSM    C5F10540   7.234   3.368  -0.507  0.0377 -0.1809  0.4670
  104OSM    H5F10541   7.331   3.423  -0.509  0.4140 -0.8501 -0.8902
  104OSM    H5G10542   7.154   3.444  -0.513 -1.2651 -1.6193 -1.1340
  104OSM    C6F10543   7.215   3.271  -0.627 -0.4939 -0.3886  0.6714
  104OSM    H6F10544   7.149   3.188  -0.594 -1.6901 -0.0316 -0.7227
  104OSM    H6G10545   7.312   3.230  -0.664 -1.0571 -0.2985 -1.0182
  104OSM    C7F10546   7.141   3.345  -0.747 -0.0603  0.2331  0.2719
  104OSM    H7F10547   7.046   3.391  -0.714  0.8839  1.2055  1.7229
  104OSM    H7G10548   7.101   3.264  -0.811 -2.6986 -0.6973  2.8947
  104OSM    C8F10549   7.226   3.452  -0.830  0.4326  0.5658  0.0468
  104OSM    H8F10550   7.270   3.529  -0.764 -0.7830  1.1379  0.2218
  104OSM    H8G10551   7.151   3.500  -0.896 -1.5189 -1.9836  0.2393
  104OSM    C9F10552   7.322   3.381  -0.918 -0.6982 -0.2003  0.0470
  104OSM    H9F10553   7.402   3.333  -0.859  0.1222  0.2144 -0.6981
  104OSM   C10F10554   7.337   3.387  -1.054 -0.3395  0.1863 -0.7222
  104OSM   H10F10555   7.430   3.341  -1.090 -0.2149 -0.7050  0.6588
  104OSM   C11F10556   7.244   3.452  -1.153  0.0706  0.1749  0.5645
  104OSM   H11F10557   7.179   3.522  -1.097 -1.3317  0.7166 -1.6100
  104OSM   H11G10558   7.189   3.376  -1.212  0.0547  0.1326  0.6347
  104OSM   C12F10559   7.318   3.545  -1.263 -0.3646 -0.3375 -0.3290
  104OSM   H12F10560   7.413   3.501  -1.303  0.3972  1.2721 -0.3598
  104OSM   H12G10561   7.345   3.637  -1.208 -1.0372 -1.7471  2.5223
  104OSM   C13F10562   7.227   3.573  -1.389  1.0225 -0.1499 -0.0363
  104OSM   H13F10563   7.191   3.478  -1.434 -0.5068  0.3397  0.1076
  104OSM   H13G10564   7.282   3.622  -1.472  0.1881  1.2297  0.1949
  104OSM   C14F10565   7.107   3.667  -1.358 -0.1065 -0.0876 -0.1239
  104OSM   H14F10566   7.153   3.764  -1.329  1.1543 -0.7805  0.2768
  104OSM   H14G10567   7.045   3.622  -1.277  0.5186 -0.6323  0.0654
  104OSM   C15F10568   7.014   3.677  -1.480 -0.2518 -0.1748 -0.9128
  104OSM   H15F10569   7.066   3.713  -1.572 -0.4673 -1.7105 -1.6572
  104OSM   H15G10570   6.930   3.749  -1.470 -0.6838 -0.3489 -2.7798
  104OSM   C16F10571   6.937   3.548  -1.511  0.4048  0.5332 -0.6915
  104OSM   H16F10572   6.877   3.504  -1.428  2.2053 -1.2320 -0.2571
  104OSM   H16G10573   7.009   3.465  -1.529 -2.5406 -2.1614 -1.0246
  104OSM   C17F10574   6.865   3.547  -1.648  0.4171 -0.2918 -0.6622
  104OSM   H17F10575   6.943   3.563  -1.726  1.5032 -2.1808 -0.0152
  104OSM   H17G10576   6.795   3.633  -1.657  1.5334  0.9882  1.9145
  104OSM   C18F10577   6.794   3.414  -1.677 -0.3669  0.2912 -0.3005
  104OSM   H18F10578   6.723   3.386  -1.597 -2.3816  1.1505 -1.7183
  104OSM   H18G10579   6.863   3.329  -1.695 -1.2162 -0.5516  0.3561
  104OSM   H18H10580   6.739   3.426  -1.772  2.0398  1.0183 -1.7035
  105OSM      N10581   0.977   3.227   0.612  0.9573  0.5241  0.5931
  105OSM    C1510582   0.859   3.252   0.521  0.2078 -0.9443  1.0778
  105OSM   H15A10583   0.791   3.323   0.566  1.5596  0.9521  0.2342
  105OSM   H15B10584   0.805   3.165   0.487 -0.3371  0.1284 -0.9736
  105OSM   H15C10585   0.900   3.291   0.429 -2.0466  0.1320  0.4664
  105OSM    C1410586   1.016   3.354   0.678  0.6555  0.1444  0.0797
  105OSM   H14A10587   0.934   3.408   0.723  0.8044  1.4768 -1.1953
  105OSM   H14B10588   1.036   3.419   0.594  0.9841 -1.1047 -0.8397
  105OSM   H14C10589   1.100   3.347   0.745  1.1408 -0.0051 -0.5308
  105OSM    C1310590   0.924   3.131   0.718 -0.6809  0.4141  0.3917
  105OSM   H13A10591   0.895   3.043   0.663  3.0879 -0.0044 -1.2013
  105OSM   H13B10592   0.831   3.173   0.755 -2.3277 -0.7658 -2.1694
  105OSM   H13C10593   0.997   3.113   0.796  0.5472 -2.0382 -1.1928
  105OSM    C1210594   1.094   3.170   0.531  0.1225 -0.0064 -0.3972
  105OSM   H12A10595   1.047   3.104   0.460 -0.0956 -1.9726  1.4508
  105OSM   H12B10596   1.167   3.118   0.593  0.3873  0.9832  0.1342
  105OSM    C1110597   1.175   3.265   0.440  0.0828  0.0540  0.1178
  105OSM   H11A10598   1.250   3.205   0.383 -2.6776 -3.6461 -0.0436
  105OSM   H11B10599   1.231   3.331   0.509 -1.4887  1.9866 -0.3720
  105OSM      P10600   1.115   3.487   0.325  0.0095 -0.1033 -0.1448
  105OSM    O1310601   1.006   3.539   0.238  0.0845  0.0318 -0.0642
  105OSM    O1410602   1.128   3.560   0.453  0.5708  0.1892 -0.5609
  105OSM    O1110603   1.253   3.490   0.251  0.5086  0.0554  0.2176
  105OSM    O1210604   1.088   3.340   0.353  0.0881  0.2251  0.2934
  105OSM    C1S10605   1.271   3.426   0.122 -0.8317  0.4290 -0.4470
  105OSM    H1S10606   1.228   3.324   0.119 -0.7986  0.3232  1.4966
  105OSM    H1T10607   1.378   3.417   0.093 -0.9820 -1.4853 -0.5872
  105OSM     NF10608   1.232   3.433  -0.119 -0.6711  0.3351  0.0528
  105OSM    HNF10609   1.297   3.468  -0.185 -1.6388  0.9035 -0.6315
  105OSM    C2S10610   1.211   3.507   0.003  0.0164  0.0559 -0.3289
  105OSM    H2S10611   1.100   3.515   0.006 -0.2349 -2.8774  0.5448
  105OSM    C3S10612   1.269   3.651   0.011 -0.0772 -0.8255  1.1691
  105OSM    H3S10613   1.371   3.655   0.054 -0.0513 -0.6248  1.0901
  105OSM     O310614   1.199   3.730   0.109 -0.2488 -0.5139  0.1588
  105OSM    HO310615   1.139   3.666   0.148 -0.9786  0.9510  1.5618
  105OSM    C4S10616   1.253   3.722  -0.121  0.0751  0.5088 -0.6525
  105OSM    H4S10617   1.151   3.753  -0.145  0.0245  0.2080 -0.8269
  105OSM    C5S10618   1.344   3.770  -0.202 -0.0972 -0.7851 -0.7290
  105OSM    H5S10619   1.451   3.756  -0.181  0.2081  1.7629 -0.2047
  105OSM    C6S10620   1.319   3.858  -0.319 -0.6345  0.0660  0.3098
  105OSM    H6S10621   1.413   3.909  -0.351 -2.5018  1.8085 -2.9418
  105OSM    H6T10622   1.240   3.934  -0.301 -0.8304  0.5634 -2.2931
  105OSM    C7S10623   1.282   3.769  -0.446  0.4131  0.4153  0.2651
  105OSM    H7S10624   1.271   3.833  -0.537 -1.7823 -2.2853 -1.5505
  105OSM    H7T10625   1.183   3.721  -0.430 -0.0144  1.3125  0.3793
  105OSM    C8S10626   1.372   3.648  -0.488  0.2171  0.0704  0.1006
  105OSM    H8S10627   1.350   3.572  -0.410  0.0137  0.8255  0.7875
  105OSM    H8T10628   1.482   3.661  -0.476  0.3081 -1.3097  0.9640
  105OSM    C9S10629   1.334   3.585  -0.625 -0.1124  0.1956  0.0539
  105OSM    H9S10630   1.224   3.570  -0.627  0.0069 -0.7998  0.3780
  105OSM    H9T10631   1.383   3.485  -0.628 -0.7656 -0.1674  0.9461
  105OSM   C10S10632   1.363   3.664  -0.755  0.0371  0.5911 -0.1317
  105OSM   H10S10633   1.466   3.705  -0.763  0.4860 -0.9153 -4.9186
  105OSM   H10T10634   1.289   3.747  -0.751  0.7557  1.3849 -2.2498
  105OSM   C11S10635   1.334   3.582  -0.886 -0.1288  0.0683 -0.4289
  105OSM   H11S10636   1.226   3.556  -0.890 -0.1289  0.0517 -0.3158
  105OSM   H11T10637   1.394   3.489  -0.880 -0.1872  0.0881  0.6023
  105OSM   C12S10638   1.366   3.668  -1.012  0.0493 -0.1323 -0.4927
  105OSM   H12S10639   1.473   3.699  -1.008  0.2766 -1.0497  1.4513
  105OSM   H12T10640   1.311   3.762  -0.991  1.1281 -0.1305  2.7779
  105OSM   C13S10641   1.334   3.600  -1.147 -0.3724  0.0521  0.0911
  105OSM   H13S10642   1.333   3.676  -1.228  1.5297 -1.4737 -1.4529
  105OSM   H13T10643   1.230   3.560  -1.143 -0.9508  1.5455  1.3551
  105OSM   C14S10644   1.446   3.504  -1.195 -0.4728  0.1661 -0.1810
  105OSM   H14S10645   1.448   3.416  -1.128  1.3417 -1.5882 -2.3984
  105OSM   H14T10646   1.542   3.559  -1.194 -0.3965  0.0541 -0.8217
  105OSM   C15S10647   1.429   3.445  -1.327 -0.2891  0.4900  0.8111
  105OSM   H15S10648   1.519   3.386  -1.355 -1.1469 -0.5488  0.1618
  105OSM   H15T10649   1.421   3.522  -1.406 -2.8887 -2.1930 -1.7648
  105OSM   C16S10650   1.304   3.352  -1.335  0.9154  0.1185 -0.7687
  105OSM   H16S10651   1.210   3.411  -1.329  1.9043  1.6851  0.2696
  105OSM   H16T10652   1.313   3.285  -1.247 -0.7534 -0.1341 -0.7610
  105OSM   C17S10653   1.289   3.272  -1.461 -0.0914 -0.2519  0.1604
  105OSM   H17S10654   1.369   3.197  -1.477 -0.2924 -0.6332  0.9134
  105OSM   H17T10655   1.293   3.353  -1.538  0.5107 -0.9962 -0.6008
  105OSM   C18S10656   1.157   3.194  -1.479  0.1559  0.3881 -0.4712
  105OSM   H18S10657   1.109   3.184  -1.379  1.0308  0.8659  0.0192
  105OSM   H18T10658   1.180   3.093  -1.518  0.4157  0.2686 -0.0276
  105OSM   H18U10659   1.082   3.246  -1.541 -0.5242  0.7580  0.6313
  105OSM    C1F10660   1.154   3.331  -0.150 -0.8134 -0.2480  0.7127
  105OSM     OF10661   1.055   3.307  -0.082 -0.0354  0.2001 -0.2775
  105OSM    C2F10662   1.193   3.255  -0.276 -0.8148  0.3326  0.2883
  105OSM    H2F10663   1.259   3.171  -0.245 -0.1975  0.0579 -1.5894
  105OSM    H2G10664   1.247   3.330  -0.336  0.1877 -0.5433  0.0667
  105OSM    C3F10665   1.073   3.188  -0.353  0.2811  0.3082 -0.1693
  105OSM    H3F10666   0.998   3.255  -0.399 -2.1186 -2.1083 -0.0671
  105OSM    H3G10667   1.012   3.132  -0.280  2.2924  0.3349  1.6256
  105OSM    C4F10668   1.111   3.088  -0.462  0.6063  0.9680  0.2830
  105OSM    H4F10669   1.019   3.032  -0.489  0.3781  0.0216  2.7264
  105OSM    H4G10670   1.171   3.007  -0.415  0.3945  0.6861  0.0779
  105OSM    C5F10671   1.193   3.155  -0.576 -0.5960 -0.7983  0.5541
  105OSM    H5F10672   1.286   3.199  -0.535 -0.6448 -0.8721  0.7448
  105OSM    H5G10673   1.138   3.238  -0.625  2.6820  0.5353 -1.2022
  105OSM    C6F10674   1.235   3.058  -0.690  0.0100  0.5549 -0.2494
  105OSM    H6F10675   1.136   3.013  -0.714 -1.5996  1.5356  3.6667
  105OSM    H6G10676   1.294   2.976  -0.645  0.2348  0.5204 -0.6074
  105OSM    C7F10677   1.300   3.123  -0.809 -0.2656 -0.5135 -0.1306
  105OSM    H7F10678   1.388   3.171  -0.759  0.0210  0.1235 -1.2081
  105OSM    H7G10679   1.233   3.196  -0.858  1.2501  0.6690 -0.5330
  105OSM    C8F10680   1.354   3.032  -0.921  0.0979  0.3272  0.1695
  105OSM    H8F10681   1.274   2.978  -0.976  0.1126  0.1833  0.2894
  105OSM    H8G10682   1.417   2.953  -0.876  0.2180 -0.0252 -0.6125
  105OSM    C9F10683   1.449   3.116  -1.002 -1.3816 -0.4750 -0.0612
  105OSM    H9F10684   1.500   3.206  -0.965  0.9488 -1.5847 -0.4060
  105OSM   C10F10685   1.508   3.073  -1.112 -0.1033 -0.2081  0.4087
  105OSM   H10F10686   1.578   3.145  -1.158 -0.4931  0.0035  0.1409
  105OSM   C11F10687   1.494   2.941  -1.184 -0.1954  0.1183  0.2117
  105OSM   H11F10688   1.447   2.862  -1.121 -2.1531  0.0749 -1.2080
  105OSM   H11G10689   1.594   2.901  -1.209  0.4311  0.9100  1.3648
  105OSM   C12F10690   1.419   2.964  -1.317  0.5209 -0.1911 -0.5704
  105OSM   H12F10691   1.479   3.027  -1.386  1.7440 -0.2493  0.4044
  105OSM   H12G10692   1.332   3.025  -1.287 -0.5110 -1.9163  0.0599
  105OSM   C13F10693   1.385   2.837  -1.396  0.1139 -0.5899 -0.2824
  105OSM   H13F10694   1.321   2.765  -1.341 -0.7847  0.7396  0.4381
  105OSM   H13G10695   1.483   2.788  -1.419  0.2444 -0.0576 -0.8815
  105OSM   C14F10696   1.330   2.858  -1.539 -0.3748 -0.7834  0.1718
  105OSM   H14F10697   1.379   2.941  -1.594 -1.4362 -0.7687 -0.8167
  105OSM   H14G10698   1.222   2.883  -1.540 -0.0402  1.0314 -2.3251
  105OSM   C15F10699   1.358   2.740  -1.634 -0.1582 -0.7594  0.1262
  105OSM   H15F10700   1.455   2.688  -1.619 -0.0049 -0.2218  1.0470
  105OSM   H15G10701   1.354   2.751  -1.744 -1.3944 -0.5782  0.1748
  105OSM   C16F10702   1.248   2.632  -1.619 -0.2232 -0.3986  0.6093
  105OSM   H16F10703   1.156   2.691  -1.643  1.2241  0.9949 -2.0557
  105OSM   H16G10704   1.241   2.590  -1.517  0.1958 -0.7529  0.4948
  105OSM   C17F10705   1.270   2.515  -1.716 -0.1887  0.2930 -0.2647
  105OSM   H17F10706   1.273   2.554  -1.820  2.4512 -1.3406 -0.9063
  105OSM   H17G10707   1.170   2.468  -1.721 -0.5131  0.7467  1.3133
  105OSM   C18F10708   1.375   2.403  -1.681 -0.0071  0.0114  0.8114
  105OSM   H18F10709   1.389   2.377  -1.574  1.1083 -0.3998  0.5734
  105OSM   H18G10710   1.476   2.445  -1.699  0.3078 -0.6378  1.0478
  105OSM   H18H10711   1.360   2.311  -1.742  0.1828  0.6878 -0.2686
  106OSM      N10712   5.769   6.164   0.346  0.0399  0.0811 -0.6088
  106OSM    C1510713   5.848   6.072   0.258 -0.4977 -0.7412  0.0598
  106OSM   H15A10714   5.798   5.976   0.266 -1.0939 -0.2881  2.6639
  106OSM   H15B10715   5.952   6.062   0.287 -0.4843 -0.1789  0.2012
  106OSM   H15C10716   5.838   6.101   0.155  0.1186  0.4730  0.3224
  106OSM    C1410717   5.820   6.309   0.350  0.0877 -0.7603 -0.6744
  106OSM   H14A10718   5.919   6.332   0.387 -1.2580  3.1699  1.0119
  106OSM   H14B10719   5.746   6.359   0.411 -1.3062 -1.7930 -1.4464
  106OSM   H14C10720   5.814   6.339   0.246  1.7938 -1.4811 -1.0153
  106OSM    C1310721   5.636   6.163   0.288  0.5385  0.5574  0.0818
  106OSM   H13A10722   5.628   6.203   0.188 -1.4415 -0.2462 -0.1229
  106OSM   H13B10723   5.559   6.220   0.337 -0.2650 -0.2606 -0.2019
  106OSM   H13C10724   5.597   6.063   0.284 -1.4451  1.2436  0.9511
  106OSM    C1210725   5.754   6.106   0.484 -0.2200  0.4060 -0.2295
  106OSM   H12A10726   5.665   6.148   0.530 -1.4027  0.5022 -2.4622
  106OSM   H12B10727   5.844   6.126   0.540 -0.1207  0.6144 -0.4562
  106OSM    C1110728   5.730   5.958   0.509  0.0329 -0.0029  0.0497
  106OSM   H11A10729   5.695   5.934   0.611 -0.1536 -2.0903 -0.4636
  106OSM   H11B10730   5.823   5.899   0.492  0.6704  0.5258  1.5170
  106OSM      P10731   5.631   5.762   0.368  0.0496  0.2058  0.2494
  106OSM    O1310732   5.663   5.672   0.480 -0.4069  0.1104 -0.5050
  106OSM    O1410733   5.508   5.736   0.291  0.5322 -0.9565  0.2016
  106OSM    O1110734   5.751   5.770   0.265  0.1710 -0.1892  0.5164
  106OSM    O1210735   5.626   5.905   0.433 -0.0524 -0.1452  0.4977
  106OSM    C1S10736   5.778   5.670   0.170 -0.1597 -0.1864 -0.2673
  106OSM    H1S10737   5.683   5.632   0.128 -1.6033  3.5185 -0.7376
  106OSM    H1T10738   5.824   5.584   0.223  0.7963 -0.8283 -2.0689
  106OSM     NF10739   5.892   5.643  -0.051 -0.2891 -0.8729  0.0348
  106OSM    HNF10740   5.947   5.561  -0.069 -0.9631 -1.2565 -0.3117
  106OSM    C2S10741   5.899   5.714   0.075  0.3445 -0.1634  0.2664
  106OSM    H2S10742   5.912   5.822   0.051  1.9935 -0.3459  0.2561
  106OSM    C3S10743   6.033   5.692   0.153 -0.7239 -0.6254  0.1353
  106OSM    H3S10744   6.038   5.582   0.171 -0.4608 -0.6411 -0.0246
  106OSM     O310745   6.027   5.745   0.286  0.2721 -0.1093  0.3521
  106OSM    HO310746   5.935   5.766   0.302 -0.3745 -1.8962 -0.7713
  106OSM    C4S10747   6.156   5.732   0.071 -0.0339 -0.0664  0.3124
  106OSM    H4S10748   6.172   5.664  -0.014  0.9559  0.0280  0.4111
  106OSM    C5S10749   6.211   5.860   0.065 -0.5366 -0.0389 -0.0052
  106OSM    H5S10750   6.162   5.944   0.117 -1.0591  0.8421 -1.8571
  106OSM    C6S10751   6.303   5.905  -0.046 -0.1714 -0.2034 -0.6749
  106OSM    H6S10752   6.403   5.935  -0.009 -0.4369 -0.7011  0.4991
  106OSM    H6T10753   6.261   5.992  -0.100  0.1495  0.0956 -0.4468
  106OSM    C7S10754   6.317   5.803  -0.157 -0.0930 -0.1061 -0.0216
  106OSM    H7S10755   6.215   5.784  -0.196 -0.4575  1.0775  0.3081
  106OSM    H7T10756   6.359   5.708  -0.118 -0.6374  1.0288  3.6796
  106OSM    C8S10757   6.394   5.864  -0.275  0.2788  0.0781 -0.5306
  106OSM    H8S10758   6.501   5.840  -0.257 -0.2729 -1.0753  1.5214
  106OSM    H8T10759   6.377   5.973  -0.272 -0.0457  0.0700 -1.5476
  106OSM    C9S10760   6.353   5.806  -0.413  0.0216 -0.3733 -0.7023
  106OSM    H9S10761   6.243   5.809  -0.424 -0.0964 -1.2851  0.1444
  106OSM    H9T10762   6.396   5.704  -0.423  2.6358  0.5858 -0.2283
  106OSM   C10S10763   6.409   5.885  -0.533 -0.0530  0.0953 -0.4415
  106OSM   H10S10764   6.520   5.891  -0.528  0.0311 -0.0770 -1.7689
  106OSM   H10T10765   6.375   5.991  -0.534 -1.2459 -0.2744 -1.1042
  106OSM   C11S10766   6.363   5.837  -0.677  0.0541 -0.3830  0.1131
  106OSM   H11S10767   6.256   5.861  -0.693  0.0513 -0.2197  0.3792
  106OSM   H11T10768   6.360   5.726  -0.681  0.3572 -0.3887 -3.2701
  106OSM   C12S10769   6.440   5.895  -0.789 -0.2388 -0.5107 -0.1813
  106OSM   H12S10770   6.542   5.852  -0.778 -0.1013 -0.3068 -0.6373
  106OSM   H12T10771   6.434   6.005  -0.777 -0.9363 -0.3899 -1.4759
  106OSM   C13S10772   6.377   5.853  -0.923  0.6057  0.1054  0.1929
  106OSM   H13S10773   6.273   5.893  -0.929  1.1930  1.7095  0.3182
  106OSM   H13T10774   6.374   5.742  -0.925  0.3268  0.0625  1.8265
  106OSM   C14S10775   6.441   5.903  -1.051 -0.1697 -0.3160 -0.3470
  106OSM   H14S10776   6.542   5.859  -1.067  0.0170  0.6449 -2.1132
  106OSM   H14T10777   6.477   6.007  -1.037  1.4120 -0.8733  0.0109
  106OSM   C15S10778   6.355   5.876  -1.172  0.3493 -0.0723  0.0300
  106OSM   H15S10779   6.253   5.917  -1.152 -0.2240 -0.9285 -1.0480
  106OSM   H15T10780   6.344   5.767  -1.192  0.1996 -0.3616  1.5544
  106OSM   C16S10781   6.401   5.943  -1.303  0.4232 -0.6991  0.2375
  106OSM   H16S10782   6.499   5.919  -1.349  0.0521 -0.6709 -0.5874
  106OSM   H16T10783   6.396   6.052  -1.278  1.7719 -1.1387  2.7272
  106OSM   C17S10784   6.301   5.916  -1.407  0.2028 -0.2948  1.6815
  106OSM   H17S10785   6.201   5.963  -1.395  0.0714 -0.2680  0.5822
  106OSM   H17T10786   6.273   5.809  -1.418 -0.9199 -0.0866  2.3492
  106OSM   C18S10787   6.355   5.971  -1.540  0.2445 -0.2055 -0.0780
  106OSM   H18S10788   6.276   5.972  -1.619  0.8320  0.5415 -0.6637
  106OSM   H18T10789   6.449   5.918  -1.566 -1.1805 -2.4016 -1.0869
  106OSM   H18U10790   6.371   6.081  -1.530 -1.0101 -0.1029  1.1168
  106OSM    C1F10791   5.786   5.647  -0.133 -0.2367 -0.6068 -0.4148
  106OSM     OF10792   5.701   5.736  -0.124  0.0589 -0.3905  0.1787
  106OSM    C2F10793   5.781   5.543  -0.230 -0.2552  0.5159 -0.2238
  106OSM    H2F10794   5.861   5.469  -0.210 -0.8036  0.3865  1.7218
  106OSM    H2G10795   5.798   5.576  -0.335 -1.8064 -0.7134 -0.9019
  106OSM    C3F10796   5.644   5.479  -0.211  0.4052 -0.5623 -0.0275
  106OSM    H3F10797   5.568   5.549  -0.253 -0.1832 -2.0610 -1.5662
  106OSM    H3G10798   5.630   5.464  -0.102  0.3328  0.9444  0.1925
  106OSM    C4F10799   5.637   5.351  -0.291 -0.1475 -0.2167 -0.3755
  106OSM    H4F10800   5.562   5.282  -0.245  0.2724 -1.2401 -1.1793
  106OSM    H4G10801   5.736   5.301  -0.291 -0.9009 -1.9139 -2.6663
  106OSM    C5F10802   5.590   5.368  -0.441  0.5722  0.4298 -0.1495
  106OSM    H5F10803   5.614   5.474  -0.464 -0.5182  0.8972  0.7933
  106OSM    H5G10804   5.480   5.374  -0.455  0.3674  1.1452  1.5303
  106OSM    C6F10805   5.646   5.273  -0.542 -0.9880  0.5740  0.0928
  106OSM    H6F10806   5.617   5.168  -0.519  2.3177  0.3130  4.1876
  106OSM    H6G10807   5.753   5.280  -0.514 -1.3200  1.2891  1.2565
  106OSM    C7F10808   5.626   5.326  -0.693 -0.3796  0.0387 -0.2153
  106OSM    H7F10809   5.688   5.416  -0.709  1.1333 -0.4089  2.5205
  106OSM    H7G10810   5.521   5.355  -0.714  0.2080  1.0387 -2.0270
  106OSM    C8F10811   5.676   5.221  -0.797 -0.5998  0.1608  0.1232
  106OSM    H8F10812   5.665   5.268  -0.897  0.8276  1.0688  0.3653
  106OSM    H8G10813   5.597   5.143  -0.795 -0.5667  0.1393  0.6846
  106OSM    C9F10814   5.822   5.170  -0.782  0.2557 -0.3344  0.2151
  106OSM    H9F10815   5.871   5.185  -0.684  0.7975  1.2463 -0.2681
  106OSM   C10F10816   5.881   5.106  -0.886 -0.4418  0.3694  0.9077
  106OSM   H10F10817   5.986   5.078  -0.876 -1.2381 -3.4219 -0.0007
  106OSM   C11F10818   5.818   5.084  -1.022 -0.2389  0.0320  0.0921
  106OSM   H11F10819   5.877   5.105  -1.113 -0.0300 -2.4524 -0.4055
  106OSM   H11G10820   5.726   5.144  -1.041 -0.7670 -1.6114 -3.2257
  106OSM   C12F10821   5.770   4.937  -1.025  0.4316  0.2988 -0.1426
  106OSM   H12F10822   5.668   4.939  -0.980  0.4771 -0.3080 -0.0076
  106OSM   H12G10823   5.842   4.876  -0.967  0.4837  0.9823  0.5267
  106OSM   C13F10824   5.749   4.879  -1.172 -0.4776  0.0688 -1.0119
  106OSM   H13F10825   5.698   4.960  -1.230  1.6974  1.2377 -1.3762
  106OSM   H13G10826   5.678   4.793  -1.168 -2.3358  1.5735  2.1172
  106OSM   C14F10827   5.880   4.841  -1.238  0.5319 -1.1164 -0.0560
  106OSM   H14F10828   5.917   4.761  -1.170 -1.5432 -1.1936  1.0685
  106OSM   H14G10829   5.938   4.935  -1.234 -0.4616 -0.5100  0.5720
  106OSM   C15F10830   5.865   4.799  -1.378 -0.2914  0.2276  0.3297
  106OSM   H15F10831   5.836   4.883  -1.445  0.7553  0.5869  0.3076
  106OSM   H15G10832   5.787   4.720  -1.382  1.3834 -1.4566 -0.3800
  106OSM   C16F10833   5.997   4.745  -1.435  0.5330 -0.9951  1.4627
  106OSM   H16F10834   6.031   4.664  -1.366  0.9477 -2.0989  0.0040
  106OSM   H16G10835   6.067   4.831  -1.436 -1.0282  0.3560  3.0984
  106OSM   C17F10836   5.979   4.682  -1.576 -0.6150  0.0985  0.2560
  106OSM   H17F10837   5.910   4.739  -1.642  0.7982 -2.4426 -3.8144
  106OSM   H17G10838   5.929   4.583  -1.564  0.4895 -0.2172  2.9080
  106OSM   C18F10839   6.112   4.651  -1.637 -0.4346  0.3722  0.9053
  106OSM   H18F10840   6.169   4.575  -1.579 -1.2346  0.6320  2.0730
  106OSM   H18G10841   6.168   4.745  -1.655 -1.4735  1.0327  1.0410
  106OSM   H18H10842   6.105   4.606  -1.739  2.3124  0.1650  0.7263
  107OSM      N10843   0.876   5.194   0.476  0.3039  0.1960  0.1059
  107OSM    C1510844   0.982   5.143   0.372 -0.0952 -1.2542  0.7026
  107OSM   H15A10845   1.065   5.212   0.365 -0.2156 -1.2262 -0.6676
  107OSM   H15B10846   0.923   5.134   0.282  1.9254 -1.2361 -0.6861
  107OSM   H15C10847   1.013   5.043   0.398  0.7799 -0.8698  1.1528
  107OSM    C1410848   0.788   5.080   0.515  0.2158 -0.0783  0.4418
  107OSM   H14A10849   0.713   5.058   0.442  1.7136  0.7730 -1.4523
  107OSM   H14B10850   0.739   5.102   0.609  1.0098 -0.5667  0.9899
  107OSM   H14C10851   0.849   4.991   0.522 -1.6084 -1.4487 -0.4576
  107OSM    C1310852   0.953   5.219   0.594 -0.2552 -0.1502 -0.1213
  107OSM   H13A10853   0.898   5.266   0.673  0.6562  0.1641  0.3324
  107OSM   H13B10854   1.028   5.288   0.559 -0.3735  0.0963  0.1168
  107OSM   H13C10855   1.004   5.131   0.631 -0.5025 -0.1017  0.3345
  107OSM    C1210856   0.799   5.321   0.436  0.6691  0.1000 -0.1376
  107OSM   H12A10857   0.858   5.411   0.439 -2.5421  2.4493 -0.9618
  107OSM   H12B10858   0.724   5.337   0.512  3.2340  1.9546  2.2075
  107OSM    C1110859   0.734   5.317   0.295  0.3786 -0.0746 -0.1200
  107OSM   H11A10860   0.825   5.327   0.233  1.4023 -2.1049  0.9759
  107OSM   H11B10861   0.668   5.404   0.273  0.6667  0.5021  1.1995
  107OSM      P10862   0.527   5.173   0.230  0.1649  0.4874 -0.4608
  107OSM    O1310863   0.505   5.031   0.186 -0.1648 -0.1813  0.5697
  107OSM    O1410864   0.456   5.204   0.355  0.6847 -0.6048  0.2979
  107OSM    O1110865   0.486   5.278   0.116  0.8422  0.2937 -0.0825
  107OSM    O1210866   0.673   5.199   0.256  0.0159  0.4416  0.0844
  107OSM    C1S10867   0.536   5.276  -0.013  0.0075  0.6447  0.1439
  107OSM    H1S10868   0.635   5.226  -0.017 -1.0060 -1.4820  0.2581
  107OSM    H1T10869   0.540   5.379  -0.055  0.6791  0.7200  0.3831
  107OSM     NF10870   0.514   5.194  -0.240 -0.4643  0.0869  0.1413
  107OSM    HNF10871   0.479   5.247  -0.317 -1.2985 -3.0060 -1.7892
  107OSM    C2S10872   0.443   5.199  -0.119  0.2374 -0.7404 -0.5441
  107OSM    H2S10873   0.442   5.102  -0.064  1.3369 -0.5670 -0.1971
  107OSM    C3S10874   0.296   5.254  -0.125 -0.0096 -0.3671 -0.7194
  107OSM    H3S10875   0.291   5.352  -0.177 -0.2857 -0.3747 -0.7115
  107OSM     O310876   0.226   5.260   0.004 -0.4810 -0.7542  0.3310
  107OSM    HO310877   0.298   5.250   0.067  0.5358  3.1988  0.0369
  107OSM    C4S10878   0.205   5.159  -0.203  0.1273 -0.0762 -0.0726
  107OSM    H4S10879   0.207   5.051  -0.183  0.8114 -0.2947 -1.2754
  107OSM    C5S10880   0.112   5.200  -0.293  0.1562 -0.0440 -0.8651
  107OSM    H5S10881   0.105   5.309  -0.305  1.6538  0.3866  1.4534
  107OSM    C6S10882   0.016   5.111  -0.367  0.3400  0.9995 -0.5196
  107OSM    H6S10883   0.014   5.017  -0.309  2.6758 -0.2854 -2.3393
  107OSM    H6T10884   0.059   5.089  -0.467  0.4690 -1.4358  0.0057
  107OSM    C7S10885  -0.126   5.175  -0.370  0.4406 -0.3133  0.2890
  107OSM    H7S10886  -0.124   5.277  -0.416  0.3126 -0.5658 -0.2866
  107OSM    H7T10887  -0.183   5.169  -0.275  0.9842  0.8909  0.7105
  107OSM    C8S10888  -0.216   5.077  -0.463  0.3475  0.2961 -0.0033
  107OSM    H8S10889  -0.220   4.977  -0.415 -0.8637 -0.4732 -1.6048
  107OSM    H8T10890  -0.166   5.065  -0.561  0.8699  2.3889 -0.0516
  107OSM    C9S10891  -0.362   5.138  -0.469 -0.3589  0.4633  0.4776
  107OSM    H9S10892  -0.374   5.228  -0.533  1.0665  0.2342 -0.1630
  107OSM    H9T10893  -0.388   5.164  -0.364  3.7718 -0.5828  1.9650
  107OSM   C10S10894  -0.463   5.025  -0.519  0.6083  1.1343 -0.3422
  107OSM   H10S10895  -0.560   5.050  -0.471  0.1957  0.9282 -1.0512
  107OSM   H10T10896  -0.441   4.923  -0.482 -0.5592  0.8959 -0.2699
  107OSM   C11S10897  -0.466   5.028  -0.676 -0.1937  0.0965 -0.5030
  107OSM   H11S10898  -0.363   5.020  -0.717  0.4672  0.6591  1.0055
  107OSM   H11T10899  -0.492   5.134  -0.696  2.7077  1.3467  1.6257
  107OSM   C12S10900  -0.559   4.926  -0.752  0.0490 -0.3181 -0.0261
  107OSM   H12S10901  -0.509   4.827  -0.741  0.0191 -0.5053 -1.4090
  107OSM   H12T10902  -0.549   4.957  -0.858  1.8106  0.3746  0.3107
  107OSM   C13S10903  -0.708   4.902  -0.710 -0.3444  0.2019 -0.7834
  107OSM   H13S10904  -0.758   5.001  -0.717  0.9270  0.8149 -1.4864
  107OSM   H13T10905  -0.721   4.867  -0.605  0.0871  3.5007  0.4892
  107OSM   C14S10906  -0.779   4.783  -0.789  0.0338 -0.7395  0.0241
  107OSM   H14S10907  -0.705   4.702  -0.767  1.2841  0.3148 -0.1957
  107OSM   H14T10908  -0.783   4.813  -0.896  1.5433 -0.0074  0.1416
  107OSM   C15S10909  -0.920   4.743  -0.748 -0.0848  0.2134 -0.1708
  107OSM   H15S10910  -0.985   4.833  -0.757 -1.9674 -1.1297 -0.5803
  107OSM   H15T10911  -0.924   4.710  -0.641 -0.9303  1.0697  0.0773
  107OSM   C16S10912  -0.975   4.630  -0.836 -0.2784 -0.1269  0.0418
  107OSM   H16S10913  -0.920   4.533  -0.833 -2.2748 -1.3754 -1.1848
  107OSM   H16T10914  -0.974   4.672  -0.939  0.0256  1.0567  0.5157
  107OSM   C17S10915  -1.126   4.602  -0.793 -0.1778  0.0974 -0.5245
  107OSM   H17S10916  -1.189   4.692  -0.808 -2.0477 -0.9634  0.5660
  107OSM   H17T10917  -1.140   4.582  -0.685  0.4139  0.6053 -0.3504
  107OSM   C18S10918  -1.183   4.485  -0.871 -0.0142  0.9255  0.3895
  107OSM   H18S10919  -1.132   4.387  -0.866 -1.8777 -0.0590  1.3980
  107OSM   H18T10920  -1.177   4.518  -0.977  3.1999 -1.0245 -0.1575
  107OSM   H18U10921  -1.293   4.476  -0.858 -0.1027  1.7857  0.2677
  107OSM    C1F10922   0.626   5.125  -0.249 -0.9174 -0.2236  0.3264
  107OSM     OF10923   0.665   5.046  -0.163  0.6452 -0.5288 -0.1087
  107OSM    C2F10924   0.707   5.147  -0.373  0.0791 -0.1010 -0.3726
  107OSM    H2F10925   0.800   5.196  -0.338  0.3217  0.2612 -1.4671
  107OSM    H2G10926   0.652   5.213  -0.444  1.3939 -0.2277 -1.5431
  107OSM    C3F10927   0.736   5.006  -0.430 -0.1341  0.4957 -0.4468
  107OSM    H3F10928   0.791   4.950  -0.351  0.1290  0.0776 -0.9248
  107OSM    H3G10929   0.803   5.019  -0.517  1.2690 -1.8206  0.1976
  107OSM    C4F10930   0.621   4.915  -0.479 -0.5932 -0.5613 -0.0448
  107OSM    H4F10931   0.547   4.891  -0.400 -2.1151 -1.2522 -1.6102
  107OSM    H4G10932   0.662   4.813  -0.499 -1.4280 -0.6831 -1.2296
  107OSM    C5F10933   0.555   4.962  -0.609  0.3572 -0.7112 -0.2153
  107OSM    H5F10934   0.509   5.061  -0.588 -1.1213 -1.5699  0.7526
  107OSM    H5G10935   0.476   4.891  -0.641  0.4086 -0.1894 -1.5832
  107OSM    C6F10936   0.648   4.986  -0.738  0.2619  0.6743 -0.7854
  107OSM    H6F10937   0.707   5.078  -0.718  1.3771  0.2337 -1.9391
  107OSM    H6G10938   0.589   5.013  -0.828  0.4427 -0.4181 -1.2475
  107OSM    C7F10939   0.736   4.866  -0.774 -0.3390  0.1544  0.2883
  107OSM    H7F10940   0.677   4.772  -0.778 -1.2747  0.6931  0.9528
  107OSM    H7G10941   0.822   4.863  -0.703  0.5018 -0.2554 -0.7214
  107OSM    C8F10942   0.792   4.891  -0.919 -0.1341  0.2593 -0.1041
  107OSM    H8F10943   0.837   4.992  -0.915  1.3235 -0.3501 -0.5342
  107OSM    H8G10944   0.698   4.893  -0.978 -0.6021 -2.2140  0.4292
  107OSM    C9F10945   0.896   4.782  -0.960 -0.2438 -0.2555  0.6516
  107OSM    H9F10946   0.990   4.776  -0.903  0.3152  0.5037 -0.1545
  107OSM   C10F10947   0.891   4.714  -1.076 -0.0448  0.1244 -0.5457
  107OSM   H10F10948   0.974   4.643  -1.088  0.3926 -0.4931  4.1402
  107OSM   C11F10949   0.776   4.732  -1.177 -0.1193  0.3012  0.2626
  107OSM   H11F10950   0.711   4.821  -1.169  0.6927  1.0516 -1.2123
  107OSM   H11G10951   0.711   4.642  -1.170 -1.8825  1.2598 -2.2515
  107OSM   C12F10952   0.836   4.750  -1.322  0.3632  0.3283  0.0417
  107OSM   H12F10953   0.913   4.829  -1.309  0.9140 -0.3664  1.0995
  107OSM   H12G10954   0.758   4.796  -1.387 -0.6429 -0.3181  0.7718
  107OSM   C13F10955   0.906   4.632  -1.380 -0.0308 -0.0674  0.3176
  107OSM   H13F10956   0.995   4.612  -1.316 -2.0339  1.1874  3.6823
  107OSM   H13G10957   0.942   4.658  -1.482  2.2303 -1.4440  0.6779
  107OSM   C14F10958   0.818   4.496  -1.388 -0.6453 -0.7561 -0.0025
  107OSM   H14F10959   0.784   4.477  -1.284  1.7900 -3.1532  0.4630
  107OSM   H14G10960   0.897   4.420  -1.404 -0.4572 -0.4781 -0.4061
  107OSM   C15F10961   0.689   4.483  -1.478 -0.7220 -0.0066 -0.2069
  107OSM   H15F10962   0.649   4.379  -1.481 -2.4139  0.6445 -2.1058
  107OSM   H15G10963   0.720   4.505  -1.582 -3.7687 -0.7707 -1.3771
  107OSM   C16F10964   0.578   4.573  -1.434  0.4610  0.0273  0.0571
  107OSM   H16F10965   0.574   4.660  -1.502  1.0300 -0.5824 -0.7670
  107OSM   H16G10966   0.602   4.624  -1.338  1.2359  0.3798 -0.3210
  107OSM   C17F10967   0.432   4.519  -1.415  0.7890 -0.7633 -0.0251
  107OSM   H17F10968   0.439   4.425  -1.355  1.1469  0.0862  1.3020
  107OSM   H17G10969   0.376   4.493  -1.507 -0.0980  0.7102  0.0751
  107OSM   C18F10970   0.355   4.623  -1.339  0.4186 -0.3730 -0.4111
  107OSM   H18F10971   0.322   4.700  -1.412 -2.5520 -0.6996  0.4311
  107OSM   H18G10972   0.421   4.657  -1.256  2.0419  0.3260 -1.9288
  107OSM   H18H10973   0.264   4.583  -1.288 -0.8991  0.2726 -2.1426
  108OSM      N10974   2.418   6.125   0.391 -0.2448 -0.2408 -0.1150
  108OSM    C1510975   2.277   6.176   0.405 -0.9179  0.0494  0.5918
  108OSM   H15A10976   2.267   6.260   0.338 -1.0645  0.4473  1.1070
  108OSM   H15B10977   2.261   6.225   0.499 -2.6043  1.8469 -0.5627
  108OSM   H15C10978   2.207   6.095   0.386  0.3546 -0.6672 -1.3999
  108OSM    C1410979   2.505   6.237   0.407 -0.1080 -0.0425  0.4764
  108OSM   H14A10980   2.489   6.290   0.314 -0.4966 -2.0162 -0.6353
  108OSM   H14B10981   2.610   6.217   0.399 -0.3143 -0.5739 -1.6402
  108OSM   H14C10982   2.472   6.297   0.490 -2.0579  0.1745 -0.3913
  108OSM    C1310983   2.430   6.040   0.514 -0.0623  0.7636 -0.6150
  108OSM   H13A10984   2.530   6.001   0.532 -0.1698  0.6741 -0.1923
  108OSM   H13B10985   2.370   5.951   0.505  2.5958 -1.4762  1.7556
  108OSM   H13C10986   2.401   6.087   0.607 -2.0624 -0.3835 -0.5931
  108OSM    C1210987   2.438   6.052   0.260 -0.3369 -0.1921 -0.8060
  108OSM   H12A10988   2.394   6.104   0.176  1.3331  0.5370 -1.2770
  108OSM   H12B10989   2.392   5.954   0.268 -1.3333  0.0876 -2.5090
  108OSM    C1110990   2.586   6.042   0.206 -0.4757 -0.8142 -0.8636
  108OSM   H11A10991   2.615   6.149   0.212 -2.1642 -0.4299  1.7405
  108OSM   H11B10992   2.588   6.023   0.096  0.2932  1.9158 -1.3911
  108OSM      P10993   2.807   5.987   0.330  0.1612 -0.2009 -0.0179
  108OSM    O1310994   2.795   6.098   0.430 -0.2633 -0.6267 -0.0431
  108OSM    O1410995   2.855   5.855   0.379  0.8481  0.0871  0.7130
  108OSM    O1110996   2.869   6.040   0.197  0.3905  0.1711 -0.4431
  108OSM    O1210997   2.657   5.949   0.279 -0.2507 -0.1056  0.4309
  108OSM    C1S10998   2.875   5.955   0.088  0.0327  0.2216 -0.6545
  108OSM    H1S10999   2.786   5.889   0.085  0.0754  0.0664  0.7554
  108OSM    H1T11000   2.967   5.893   0.099 -0.0699  0.2580  0.5951
  108OSM     NF11001   2.884   5.920  -0.166 -0.2224 -0.8420 -0.3614
  108OSM    HNF11002   2.966   5.905  -0.221  0.7805  2.2658  0.0873
  108OSM    C2S11003   2.887   6.026  -0.054 -0.7232  0.0319  0.2588
  108OSM    H2S11004   2.805   6.101  -0.055 -0.8255 -0.0828  0.0510
  108OSM    C3S11005   3.015   6.112  -0.065  0.4032 -0.0569  0.0286
  108OSM    H3S11006   3.092   6.033  -0.050 -0.9370 -1.3933  0.0980
  108OSM     O311007   3.022   6.218   0.032  0.2417 -0.1234  0.2904
  108OSM    HO311008   2.976   6.186   0.110 -1.2902 -2.6406 -1.5101
  108OSM    C4S11009   3.026   6.163  -0.206 -0.9309 -0.4172  0.7043
  108OSM    H4S11010   2.936   6.211  -0.248  0.3314  0.9737 -0.5674
  108OSM    C5S11011   3.126   6.123  -0.291  0.4191 -0.4422 -0.0982
  108OSM    H5S11012   3.209   6.058  -0.261  1.4890  0.5533 -0.8428
  108OSM    C6S11013   3.120   6.138  -0.438  0.2933  0.3726  0.4402
  108OSM    H6S11014   3.138   6.044  -0.494 -1.6764  0.0785  0.2144
  108OSM    H6T11015   3.200   6.208  -0.470 -0.9945  1.6243 -0.1834
  108OSM    C7S11016   2.990   6.194  -0.510  0.0571 -0.1955 -0.2828
  108OSM    H7S11017   2.983   6.304  -0.495  1.5187 -0.1073 -0.1694
  108OSM    H7T11018   2.892   6.154  -0.475  0.7826 -1.7063  0.1023
  108OSM    C8S11019   2.999   6.188  -0.665  0.1825  0.4332  0.2890
  108OSM    H8S11020   3.025   6.080  -0.675  1.0996  0.2194  3.7076
  108OSM    H8T11021   3.083   6.255  -0.693 -0.1215  0.5720 -0.3003
  108OSM    C9S11022   2.869   6.227  -0.735  0.6764 -0.4089 -0.4837
  108OSM    H9S11023   2.849   6.332  -0.705 -0.7042 -0.4348 -1.1975
  108OSM    H9T11024   2.781   6.168  -0.700  1.1016 -0.4892  0.4781
  108OSM   C10S11025   2.868   6.201  -0.888  0.0792 -0.3131 -0.0302
  108OSM   H10S11026   2.895   6.095  -0.909  2.3062  0.0017  0.9276
  108OSM   H10T11027   2.950   6.261  -0.933 -0.7374  1.9442  1.3140
  108OSM   C11S11028   2.737   6.239  -0.959 -0.4333  0.1751  0.0065
  108OSM   H11S11029   2.721   6.348  -0.961 -1.9760 -0.0329 -2.7833
  108OSM   H11T11030   2.661   6.180  -0.903 -0.0269  0.3011  0.7098
  108OSM   C12S11031   2.729   6.216  -1.103 -0.4539  0.1813  0.1631
  108OSM   H12S11032   2.786   6.123  -1.124 -1.5546 -0.2204 -1.1791
  108OSM   H12T11033   2.779   6.291  -1.167 -1.2456  0.8648  0.3304
  108OSM   C13S11034   2.590   6.179  -1.150  0.2331  0.7301  0.9434
  108OSM   H13S11035   2.516   6.260  -1.133 -0.5298  0.0013  1.1057
  108OSM   H13T11036   2.551   6.097  -1.086 -0.3440 -0.9492 -1.4238
  108OSM   C14S11037   2.561   6.122  -1.295  0.1026  0.3002 -0.5548
  108OSM   H14S11038   2.452   6.126  -1.319  0.4248 -0.3784 -2.2211
  108OSM   H14T11039   2.584   6.013  -1.297 -0.7873 -0.0518  2.6315
  108OSM   C15S11040   2.631   6.211  -1.401  0.2746  0.6600  0.6234
  108OSM   H15S11041   2.740   6.197  -1.391  0.6007  0.6196 -2.3126
  108OSM   H15T11042   2.608   6.318  -1.381 -1.1501  0.5973 -0.4758
  108OSM   C16S11043   2.574   6.175  -1.545 -0.4046 -0.0252 -0.2558
  108OSM   H16S11044   2.466   6.198  -1.551 -0.9875 -0.6855  4.3112
  108OSM   H16T11045   2.588   6.066  -1.563 -1.7684  0.1829 -3.0837
  108OSM   C17S11046   2.644   6.257  -1.653  0.2053  0.6977  0.5643
  108OSM   H17S11047   2.750   6.223  -1.656  0.1564  0.6457 -1.9867
  108OSM   H17T11048   2.661   6.362  -1.620 -2.0515  1.0023  0.9418
  108OSM   C18S11049   2.591   6.249  -1.794  0.3681 -0.0274  0.3517
  108OSM   H18S11050   2.492   6.289  -1.821  2.2755  2.6049 -3.7394
  108OSM   H18T11051   2.606   6.142  -1.823 -1.5658  0.1307 -1.4184
  108OSM   H18U11052   2.652   6.315  -1.860 -2.1444  2.4747  0.3896
  108OSM    C1F11053   2.769   5.858  -0.194  0.1269 -0.2495  0.0750
  108OSM     OF11054   2.666   5.904  -0.145 -0.5387  0.4781  0.7889
  108OSM    C2F11055   2.773   5.746  -0.290 -0.2811 -0.3663  0.1055
  108OSM    H2F11056   2.735   5.654  -0.239 -1.8749 -0.1630 -0.6510
  108OSM    H2G11057   2.873   5.716  -0.326 -0.1134 -2.4082  2.0235
  108OSM    C3F11058   2.691   5.753  -0.419  0.8984  0.2104  0.8043
  108OSM    H3F11059   2.585   5.738  -0.389  1.4190 -2.1035  1.6566
  108OSM    H3G11060   2.710   5.662  -0.479 -0.8807  0.9902 -1.0791
  108OSM    C4F11061   2.721   5.884  -0.494  0.3374 -0.2182  0.4631
  108OSM    H4F11062   2.826   5.897  -0.527 -0.3739  1.7209 -1.1780
  108OSM    H4G11063   2.709   5.974  -0.431 -0.4765  0.4187 -0.5757
  108OSM    C5F11064   2.626   5.914  -0.609 -0.2348  0.2762  0.2729
  108OSM    H5F11065   2.650   6.019  -0.635 -1.5782  0.0273 -2.3438
  108OSM    H5G11066   2.520   5.895  -0.581 -0.0790 -0.6551  0.2707
  108OSM    C6F11067   2.646   5.821  -0.727 -0.0005  0.0630  1.0104
  108OSM    H6F11068   2.591   5.873  -0.809 -0.9627  0.4538  1.8735
  108OSM    H6G11069   2.610   5.717  -0.717  0.4905 -0.0536  1.5570
  108OSM    C7F11070   2.786   5.820  -0.793 -0.6230  0.3716  0.0402
  108OSM    H7F11071   2.861   5.775  -0.724  0.6289  3.2189  0.6642
  108OSM    H7G11072   2.820   5.926  -0.794  1.1257 -0.1653  0.0416
  108OSM    C8F11073   2.794   5.755  -0.934  0.0415  0.6949 -0.1165
  108OSM    H8F11074   2.889   5.777  -0.988  1.1614  0.1680  1.5637
  108OSM    H8G11075   2.716   5.786  -1.006  0.5013  1.4779 -0.2885
  108OSM    C9F11076   2.775   5.597  -0.921 -0.2389 -0.1026  0.6189
  108OSM    H9F11077   2.673   5.568  -0.893  0.0474 -1.1212  0.6440
  108OSM   C10F11078   2.868   5.509  -0.949  0.4100 -0.6960  0.1168
  108OSM   H10F11079   2.847   5.403  -0.929 -0.5713 -0.8893 -1.7100
  108OSM   C11F11080   3.006   5.537  -1.011  0.1975 -0.0278  0.2963
  108OSM   H11F11081   3.089   5.485  -0.960  2.4698  1.3671 -1.7557
  108OSM   H11G11082   3.035   5.644  -1.009  1.9779 -0.4758 -0.3322
  108OSM   C12F11083   3.020   5.484  -1.158  1.3381 -0.1627  0.3221
  108OSM   H12F11084   2.921   5.453  -1.200  1.3784 -0.7884  0.6772
  108OSM   H12G11085   3.067   5.384  -1.148  0.2787 -0.6486  0.5366
  108OSM   C13F11086   3.105   5.574  -1.250  0.2870 -0.2683  0.1147
  108OSM   H13F11087   3.195   5.606  -1.192  0.8565 -0.2731 -0.7467
  108OSM   H13G11088   3.042   5.663  -1.270  1.0332 -0.0947 -1.5918
  108OSM   C14F11089   3.148   5.515  -1.383 -0.8270  0.3311  0.1371
  108OSM   H14F11090   3.194   5.415  -1.372  0.6526  0.7891 -1.4108
  108OSM   H14G11091   3.224   5.587  -1.422  1.3770 -2.5934 -1.3185
  108OSM   C15F11092   3.042   5.497  -1.491  0.0106 -0.3864  0.1835
  108OSM   H15F11093   2.997   5.599  -1.499  0.1996 -0.0147  2.7712
  108OSM   H15G11094   2.957   5.434  -1.457  1.4469 -1.5956  1.7124
  108OSM   C16F11095   3.087   5.456  -1.630 -0.1294 -0.2375 -0.0218
  108OSM   H16F11096   3.121   5.352  -1.617  2.0222  0.1871 -1.7321
  108OSM   H16G11097   3.171   5.519  -1.667  0.5545  0.7883  2.9649
  108OSM   C17F11098   2.966   5.458  -1.735 -0.4772  0.2465  0.3846
  108OSM   H17F11099   2.937   5.565  -1.744  0.1005  0.4180  0.5330
  108OSM   H17G11100   2.878   5.399  -1.702 -0.2281 -1.3789 -1.6190
  108OSM   C18F11101   3.018   5.398  -1.868 -0.2680 -0.1747 -0.2797
  108OSM   H18F11102   3.104   5.463  -1.897  1.8343 -2.7390 -0.1449
  108OSM   H18G11103   2.938   5.399  -1.945 -1.0970  0.1508  0.5572
  108OSM   H18H11104   3.066   5.298  -1.860 -0.8145 -0.3551  1.0190
  109OSM      N11105   3.183   5.954   0.531 -0.2755  0.4177 -0.3187
  109OSM    C1511106   3.070   6.027   0.590 -0.5014 -0.2766  0.5155
  109OSM   H15A11107   2.972   5.982   0.584 -1.9237  2.5326  0.9331
  109OSM   H15B11108   3.059   6.120   0.537 -0.2991 -0.2441  0.5296
  109OSM   H15C11109   3.091   6.050   0.694  0.7332 -3.3104  1.0483
  109OSM    C1411110   3.310   6.030   0.574  0.2728  0.7217  0.8269
  109OSM   H14A11111   3.321   6.061   0.677 -1.7333  1.5503  0.8512
  109OSM   H14B11112   3.290   6.125   0.525 -1.1748 -0.3346 -0.7621
  109OSM   H14C11113   3.400   5.982   0.541  0.1081  0.4412  0.7823
  109OSM    C1311114   3.187   5.827   0.599 -0.0150 -0.0590 -0.3628
  109OSM   H13A11115   3.221   5.829   0.702 -3.7612 -2.6370  1.1764
  109OSM   H13B11116   3.262   5.768   0.549  1.7326  0.0674  1.9559
  109OSM   H13C11117   3.098   5.766   0.592  0.5686 -1.0842  0.8440
  109OSM    C1211118   3.175   5.941   0.381  0.5021  0.0549  1.0435
  109OSM   H12A11119   3.083   5.893   0.351 -0.0225  1.0656  1.0199
  109OSM   H12B11120   3.259   5.882   0.345 -1.3763 -1.5540 -0.9713
  109OSM    C1111121   3.176   6.074   0.297 -0.6804 -0.0205  0.8086
  109OSM   H11A11122   3.101   6.142   0.343  0.8858 -0.4574  4.2583
  109OSM   H11B11123   3.136   6.061   0.194 -2.1595  1.1606  1.1885
  109OSM      P11124   3.428   6.080   0.213  0.0207 -0.0943 -0.3172
  109OSM    O1311125   3.541   6.151   0.276 -0.0318  0.6506  0.0773
  109OSM    O1411126   3.430   5.932   0.209 -0.2811 -0.3019 -0.3243
  109OSM    O1111127   3.401   6.144   0.075 -0.1777  0.3261  0.0204
  109OSM    O1211128   3.304   6.127   0.297  0.0815 -0.1631 -0.1997
  109OSM    C1S11129   3.505   6.166  -0.024 -0.2810  0.8910  0.2113
  109OSM    H1S11130   3.541   6.068  -0.062 -0.3862  1.0642 -0.3439
  109OSM    H1T11131   3.596   6.215   0.016  0.4889 -1.4002  1.4694
  109OSM     NF11132   3.541   6.257  -0.254  0.2979 -0.1519  0.5107
  109OSM    HNF11133   3.618   6.320  -0.255 -0.2645  0.5336  0.3266
  109OSM    C2S11134   3.444   6.248  -0.148  0.2434 -1.0319 -0.5064
  109OSM    H2S11135   3.348   6.202  -0.179 -1.3235  2.6249 -1.6199
  109OSM    C3S11136   3.406   6.389  -0.098  0.2742  0.3430 -0.2220
  109OSM    H3S11137   3.503   6.441  -0.083  1.2957 -1.5830  0.2679
  109OSM     O311138   3.330   6.400   0.027 -0.0646 -0.6649 -0.4127
  109OSM    HO311139   3.315   6.310   0.055 -1.9576 -0.2027  0.2073
  109OSM    C4S11140   3.327   6.456  -0.196 -0.9338  0.1405  0.6505
  109OSM    H4S11141   3.255   6.386  -0.241 -0.6392 -0.8638  1.6540
  109OSM    C5S11142   3.343   6.573  -0.260  0.1913 -0.8468  0.1320
  109OSM    H5S11143   3.427   6.640  -0.238 -1.1523  0.1311  2.6585
  109OSM    C6S11144   3.244   6.618  -0.364 -0.6659  0.1038  0.7436
  109OSM    H6S11145   3.226   6.728  -0.364 -0.5892  0.1226  1.7495
  109OSM    H6T11146   3.148   6.561  -0.359 -0.0535 -1.0199  0.0957
  109OSM    C7S11147   3.299   6.573  -0.507  0.5698 -0.0994 -0.1872
  109OSM    H7S11148   3.320   6.464  -0.502  0.3909 -0.1165  0.2738
  109OSM    H7T11149   3.392   6.622  -0.544  0.6122 -1.3678 -1.8571
  109OSM    C8S11150   3.177   6.582  -0.611 -0.8620  0.3137  0.1211
  109OSM    H8S11151   3.132   6.684  -0.606 -0.0194  0.7442 -0.7330
  109OSM    H8T11152   3.098   6.512  -0.577  1.5379 -1.7695  1.7664
  109OSM    C9S11153   3.213   6.540  -0.754 -0.2795  0.1701 -0.7618
  109OSM    H9S11154   3.220   6.430  -0.763 -0.5158  0.1487 -0.6923
  109OSM    H9T11155   3.305   6.586  -0.797  0.3120  0.0411  0.3290
  109OSM   C10S11156   3.109   6.589  -0.862  0.5657  0.6675  0.3910
  109OSM   H10S11157   3.119   6.700  -0.858  2.3131  0.5882 -0.9216
  109OSM   H10T11158   3.006   6.573  -0.822  0.9729 -1.3775  0.7468
  109OSM   C11S11159   3.130   6.528  -0.996 -1.0029 -0.3392  0.2957
  109OSM   H11S11160   3.130   6.417  -0.991  0.5110 -0.5370 -2.2623
  109OSM   H11T11161   3.233   6.542  -1.036 -0.4463 -2.9713  0.6174
  109OSM   C12S11162   3.016   6.558  -1.090  0.4150 -0.3871 -0.8334
  109OSM   H12S11163   2.988   6.664  -1.103  1.6464  0.0818  0.1405
  109OSM   H12T11164   2.929   6.495  -1.061  0.1560 -0.1596 -1.1074
  109OSM   C13S11165   3.041   6.507  -1.233 -0.3681  0.1874  0.2498
  109OSM   H13S11166   3.065   6.399  -1.222  0.1547  0.0640 -1.7244
  109OSM   H13T11167   3.124   6.559  -1.285 -0.9355  0.7514 -0.0984
  109OSM   C14S11168   2.921   6.521  -1.321 -0.5416 -0.4755  0.4465
  109OSM   H14S11169   2.892   6.627  -1.338 -0.6233 -0.6655 -0.6593
  109OSM   H14T11170   2.834   6.478  -1.266 -3.0819  1.2372 -1.9289
  109OSM   C15S11171   2.937   6.446  -1.452  0.7049 -0.2878 -0.1693
  109OSM   H15S11172   2.845   6.464  -1.512  0.1146  0.9598  1.0414
  109OSM   H15T11173   2.934   6.337  -1.432  0.5941 -0.6493 -2.0072
  109OSM   C16S11174   3.057   6.488  -1.528  0.0955  0.1592  0.6794
  109OSM   H16S11175   3.150   6.461  -1.475 -0.1101 -1.3818  0.2981
  109OSM   H16T11176   3.063   6.599  -1.529  0.3891  0.1421 -0.2441
  109OSM   C17S11177   3.058   6.441  -1.668 -0.1492 -0.2458 -0.0392
  109OSM   H17S11178   2.969   6.479  -1.722 -1.2250 -1.1667  1.0279
  109OSM   H17T11179   3.041   6.331  -1.664  0.0187 -0.2578  0.3792
  109OSM   C18S11180   3.187   6.497  -1.738 -0.8811 -0.0915 -0.3856
  109OSM   H18S11181   3.233   6.577  -1.675  1.6637 -1.0708 -0.8478
  109OSM   H18T11182   3.187   6.538  -1.841  2.5322 -0.3403 -0.6006
  109OSM   H18U11183   3.257   6.410  -1.736 -0.8388 -0.0523 -0.0816
  109OSM    C1F11184   3.543   6.148  -0.341 -0.8831 -0.5142 -0.2313
  109OSM     OF11185   3.485   6.049  -0.310 -0.2020  0.1181  0.7630
  109OSM    C2F11186   3.621   6.159  -0.473 -0.1725  0.5197  0.0052
  109OSM    H2F11187   3.715   6.101  -0.461 -1.3723 -1.0468  2.9828
  109OSM    H2G11188   3.644   6.265  -0.497 -1.3263  0.3370 -2.0905
  109OSM    C3F11189   3.535   6.108  -0.589  0.2654  0.1586  0.2854
  109OSM    H3F11190   3.434   6.153  -0.580  1.6510  3.9860 -1.1667
  109OSM    H3G11191   3.520   5.998  -0.586  1.1208  0.0309  2.9990
  109OSM    C4F11192   3.580   6.157  -0.728 -0.5992  0.5731 -0.4369
  109OSM    H4F11193   3.544   6.086  -0.806 -2.0442 -0.2931  0.9710
  109OSM    H4G11194   3.691   6.164  -0.728 -0.3529 -2.2352 -0.0747
  109OSM    C5F11195   3.533   6.294  -0.771  0.1545 -0.3198  0.6048
  109OSM    H5F11196   3.588   6.370  -0.711  1.6296 -1.8760  1.2930
  109OSM    H5G11197   3.422   6.298  -0.763  0.0584  1.1183 -0.8885
  109OSM    C6F11198   3.567   6.327  -0.917 -0.1553 -0.0418  0.2257
  109OSM    H6F11199   3.527   6.241  -0.974  0.7428 -1.3920  1.5634
  109OSM    H6G11200   3.677   6.325  -0.938 -0.4356 -0.4444 -1.3089
  109OSM    C7F11201   3.519   6.463  -0.968 -0.2640 -0.1230 -0.0287
  109OSM    H7F11202   3.572   6.536  -0.902  2.9610 -0.2258 -2.2517
  109OSM    H7G11203   3.410   6.479  -0.959 -0.1730  0.6608 -0.1875
  109OSM    C8F11204   3.569   6.489  -1.112 -0.5862  0.3066  0.4038
  109OSM    H8F11205   3.513   6.431  -1.188 -0.8557  1.0561  0.0142
  109OSM    H8G11206   3.668   6.440  -1.116 -0.7370 -0.5914  4.1676
  109OSM    C9F11207   3.582   6.636  -1.145 -0.0372 -0.0325 -0.3761
  109OSM    H9F11208   3.663   6.689  -1.093  0.3326  1.5665 -2.4535
  109OSM   C10F11209   3.511   6.711  -1.230  0.0596  0.5305 -0.0505
  109OSM   H10F11210   3.540   6.816  -1.246 -0.8962  0.6913 -0.8148
  109OSM   C11F11211   3.404   6.670  -1.317  0.0468  0.1926  0.2465
  109OSM   H11F11212   3.335   6.757  -1.330  0.9071  0.9100  0.3474
  109OSM   H11G11213   3.345   6.586  -1.275  0.0790 -0.0216 -0.1238
  109OSM   C12F11214   3.447   6.616  -1.460 -0.1124 -0.0204  0.1866
  109OSM   H12F11215   3.354   6.566  -1.495  2.1622 -2.9295 -2.2590
  109OSM   H12G11216   3.522   6.535  -1.453  1.8556  1.2399 -3.3941
  109OSM   C13F11217   3.500   6.730  -1.547  0.6294  0.5780  0.0839
  109OSM   H13F11218   3.590   6.773  -1.498  1.5647  0.5802 -1.5599
  109OSM   H13G11219   3.425   6.813  -1.547  0.0879  0.1131  1.4856
  109OSM   C14F11220   3.538   6.696  -1.688  0.0505 -0.2936  0.4005
  109OSM   H14F11221   3.448   6.653  -1.735  0.8976 -1.1746 -0.4502
  109OSM   H14G11222   3.613   6.614  -1.690 -0.4180 -0.7854  1.8113
  109OSM   C15F11223   3.574   6.818  -1.772 -0.4605 -0.0478 -0.3974
  109OSM   H15F11224   3.675   6.854  -1.742  0.2052  1.3396 -3.7951
  109OSM   H15G11225   3.509   6.904  -1.744  0.0987  0.0353  0.7168
  109OSM   C16F11226   3.572   6.794  -1.918  0.0220  0.2983  0.2531
  109OSM   H16F11227   3.470   6.756  -1.939  0.8843 -1.8991 -0.1741
  109OSM   H16G11228   3.632   6.704  -1.945  0.3219  0.8862 -1.1481
  109OSM   C17F11229   3.592   6.918  -2.003 -0.4451 -0.3015 -0.2613
  109OSM   H17F11230   3.504   6.984  -1.993 -0.6115 -0.7106  1.2309
  109OSM   H17G11231   3.589   6.869  -2.103  3.2768  1.6911 -1.5515
  109OSM   C18F11232   3.727   6.982  -1.964 -0.0142 -0.2860 -0.3095
  109OSM   H18F11233   3.753   7.070  -2.027  3.3498  0.6013  2.0205
  109OSM   H18G11234   3.807   6.905  -1.973 -3.2550 -4.1479  0.7716
  109OSM   H18H11235   3.724   7.031  -1.865 -0.8127  0.6530 -0.7807
  110OSM      N11236   4.394   3.010   0.442  0.6676 -0.3743  0.0915
  110OSM    C1511237   4.364   3.041   0.583 -0.1875  0.4351 -0.4654
  110OSM   H15A11238   4.456   3.051   0.638 -1.5701  0.1286  2.0251
  110OSM   H15B11239   4.309   2.958   0.625 -0.6047 -0.3782 -2.4817
  110OSM   H15C11240   4.316   3.136   0.601  2.3224  1.4368  1.5654
  110OSM    C1411241   4.444   3.140   0.377  0.5790  1.1045  0.0508
  110OSM   H14A11242   4.530   3.178   0.429  2.0539 -1.0863 -0.6808
  110OSM   H14B11243   4.373   3.221   0.391 -1.7710 -0.9123  0.6171
  110OSM   H14C11244   4.470   3.141   0.272 -0.1642  0.2900 -0.1521
  110OSM    C1311245   4.491   2.897   0.417 -0.7411 -0.6973 -0.4821
  110OSM   H13A11246   4.582   2.925   0.469 -1.5559  0.3319  0.4305
  110OSM   H13B11247   4.514   2.876   0.314 -0.4861  0.0548 -0.5891
  110OSM   H13C11248   4.462   2.813   0.477 -3.2061 -1.6085 -2.7382
  110OSM    C1211249   4.257   2.976   0.367 -0.1864 -0.3193 -0.5459
  110OSM   H12A11250   4.185   3.053   0.393  1.8103  1.2461  0.6096
  110OSM   H12B11251   4.222   2.882   0.409 -1.7977  0.3492 -0.2893
  110OSM    C1111252   4.264   2.960   0.219 -0.4127 -0.3390  0.1060
  110OSM   H11A11253   4.305   3.044   0.160 -0.2377 -1.7346 -1.8475
  110OSM   H11B11254   4.158   2.953   0.186 -0.3065 -2.4641  0.0941
  110OSM      P11255   4.259   2.707   0.154  0.1192  0.1677  0.6393
  110OSM    O1311256   4.360   2.601   0.134 -0.7122  0.9068  0.1048
  110OSM    O1411257   4.170   2.689   0.265  0.6530  0.1965 -0.9461
  110OSM    O1111258   4.183   2.721   0.023  0.3427  0.1420 -0.2388
  110OSM    O1211259   4.335   2.845   0.175 -0.0564 -0.0361  0.6565
  110OSM    C1S11260   4.246   2.776  -0.095  0.4804  0.2254  0.0156
  110OSM    H1S11261   4.294   2.690  -0.146 -1.1776 -2.3000  2.4444
  110OSM    H1T11262   4.323   2.855  -0.080  0.6671  0.1420 -0.5001
  110OSM     NF11263   4.165   2.864  -0.321 -0.0958 -0.5765  0.6006
  110OSM    HNF11264   4.162   2.964  -0.322 -0.9752 -0.5322  2.6648
  110OSM    C2S11265   4.127   2.830  -0.185 -0.1247  0.0416 -0.1272
  110OSM    H2S11266   4.057   2.743  -0.188 -1.2362  0.9384 -1.2815
  110OSM    C3S11267   4.048   2.942  -0.113 -0.1643 -0.2432  0.5758
  110OSM    H3S11268   4.121   3.026  -0.099 -0.3170  0.2501 -1.2699
  110OSM     O311269   3.983   2.901   0.007  0.3314  0.2845 -0.0918
  110OSM    HO311270   4.035   2.822   0.023 -0.1301  0.3354  2.0038
  110OSM    C4S11271   3.938   2.994  -0.206 -0.0141  0.0564  0.4060
  110OSM    H4S11272   3.887   2.920  -0.268  0.8274  1.7840 -2.5764
  110OSM    C5S11273   3.916   3.126  -0.235  0.0811 -0.2293 -0.2913
  110OSM    H5S11274   3.969   3.203  -0.177  0.7731 -1.1555  0.3363
  110OSM    C6S11275   3.812   3.186  -0.322  0.0242 -0.0054  0.0594
  110OSM    H6S11276   3.747   3.264  -0.277  0.8952  1.0672 -0.4998
  110OSM    H6T11277   3.746   3.104  -0.358  2.3312 -1.7842 -0.3776
  110OSM    C7S11278   3.878   3.256  -0.447  0.6141 -0.4472  0.4038
  110OSM    H7S11279   3.937   3.176  -0.497 -2.3699 -2.7955  0.3439
  110OSM    H7T11280   3.958   3.327  -0.418  1.3976 -0.9755 -0.4024
  110OSM    C8S11281   3.766   3.293  -0.553 -1.0674 -0.2920 -0.4144
  110OSM    H8S11282   3.721   3.388  -0.517 -1.6072 -1.1277  1.2111
  110OSM    H8T11283   3.682   3.220  -0.556 -1.3799 -0.1707  2.6572
  110OSM    C9S11284   3.833   3.319  -0.693 -0.8009  0.4138 -0.2771
  110OSM    H9S11285   3.917   3.248  -0.711  0.2903  1.9637 -1.6151
  110OSM    H9T11286   3.877   3.421  -0.683  2.3633 -0.9047  0.4838
  110OSM   C10S11287   3.749   3.314  -0.818 -1.0620 -0.3255  0.2760
  110OSM   H10S11288   3.662   3.383  -0.810 -0.1048  0.7990  1.5252
  110OSM   H10T11289   3.708   3.211  -0.825  0.3220 -1.0174  1.6305
  110OSM   C11S11290   3.837   3.362  -0.929  0.3309 -0.1776 -0.0768
  110OSM   H11S11291   3.903   3.278  -0.961 -0.4796 -0.5203 -0.9007
  110OSM   H11T11292   3.898   3.447  -0.893 -2.2794  0.3806  3.5939
  110OSM   C12S11293   3.766   3.394  -1.062  0.0348  0.4400  0.2629
  110OSM   H12S11294   3.672   3.449  -1.042 -0.7404 -1.1586  1.2373
  110OSM   H12T11295   3.748   3.301  -1.121  1.3928 -0.2007  0.8231
  110OSM   C13S11296   3.867   3.474  -1.146 -0.4116  0.6456 -0.3633
  110OSM   H13S11297   3.960   3.414  -1.140 -0.9495 -0.0950  1.4284
  110OSM   H13T11298   3.881   3.566  -1.084 -0.1529  0.3276  0.0558
  110OSM   C14S11299   3.822   3.489  -1.294  0.4262 -0.8667  0.0355
  110OSM   H14S11300   3.896   3.554  -1.345  2.3788 -2.1333  1.1164
  110OSM   H14T11301   3.731   3.554  -1.298  2.1885  1.7115 -2.1876
  110OSM   C15S11302   3.806   3.358  -1.374  0.1667  0.2863  0.5031
  110OSM   H15S11303   3.728   3.293  -1.328  0.5370  0.9290  2.1338
  110OSM   H15T11304   3.903   3.304  -1.372  0.0819  0.0093 -1.4395
  110OSM   C16S11305   3.780   3.376  -1.524  0.1285  0.3534  0.4691
  110OSM   H16S11306   3.861   3.430  -1.576 -1.1893  1.4898 -0.4926
  110OSM   H16T11307   3.696   3.448  -1.532  0.3662  0.4101 -2.2816
  110OSM   C17S11308   3.748   3.255  -1.611 -0.2197  0.1857  0.5070
  110OSM   H17S11309   3.661   3.202  -1.568 -1.3274  1.0735 -0.5418
  110OSM   H17T11310   3.826   3.176  -1.606 -1.8645 -1.5888 -0.5807
  110OSM   C18S11311   3.726   3.292  -1.760 -0.4854  0.3727  1.0017
  110OSM   H18S11312   3.698   3.199  -1.814  2.0297  0.8326 -1.3060
  110OSM   H18T11313   3.823   3.328  -1.802 -0.7590 -0.3345 -0.2696
  110OSM   H18U11314   3.659   3.379  -1.778 -0.9646 -0.0602  0.6780
  110OSM    C1F11315   4.224   2.788  -0.412 -0.2635  0.0021  0.2790
  110OSM     OF11316   4.259   2.674  -0.385  0.1298 -0.1161  0.1116
  110OSM    C2F11317   4.242   2.856  -0.541 -0.2476 -0.6765 -0.3395
  110OSM    H2F11318   4.336   2.916  -0.539 -0.5598 -0.1956  0.9670
  110OSM    H2G11319   4.150   2.909  -0.571 -1.2925 -1.4102  1.4170
  110OSM    C3F11320   4.267   2.760  -0.661  0.0025  0.2329 -0.3636
  110OSM    H3F11321   4.188   2.683  -0.675 -0.2433  0.7175 -1.7178
  110OSM    H3G11322   4.362   2.703  -0.646 -0.3006 -0.6195 -1.5580
  110OSM    C4F11323   4.289   2.833  -0.787 -1.0691 -0.4398  0.2287
  110OSM    H4F11324   4.373   2.906  -0.780 -2.6735  1.5494 -0.1709
  110OSM    H4G11325   4.202   2.901  -0.796  1.0666  2.2086 -4.3488
  110OSM    C5F11326   4.309   2.740  -0.912 -0.0892 -0.2846 -0.0640
  110OSM    H5F11327   4.213   2.687  -0.932  0.9746 -1.8543 -1.2374
  110OSM    H5G11328   4.383   2.663  -0.882  0.3484 -0.3674 -1.3149
  110OSM    C6F11329   4.318   2.825  -1.040  0.1483 -0.2575  0.2938
  110OSM    H6F11330   4.403   2.895  -1.052 -1.7164  2.2632  1.1677
  110OSM    H6G11331   4.221   2.876  -1.056  0.3311 -0.3244 -1.2060
  110OSM    C7F11332   4.330   2.751  -1.179 -0.3888 -0.3746 -0.5017
  110OSM    H7F11333   4.241   2.685  -1.181 -1.7160  1.1714  2.1939
  110OSM    H7G11334   4.421   2.688  -1.189  2.3255  2.7304  2.2179
  110OSM    C8F11335   4.327   2.838  -1.301  0.2307  0.1311 -0.7537
  110OSM    H8F11336   4.401   2.920  -1.310  1.3170 -0.1248  3.5973
  110OSM    H8G11337   4.228   2.888  -1.294  0.7402  1.0125  0.4465
  110OSM    C9F11338   4.322   2.749  -1.426  0.1881  0.4994  0.5517
  110OSM    H9F11339   4.382   2.657  -1.416  1.3970  1.4882  4.2676
  110OSM   C10F11340   4.268   2.781  -1.548 -0.2814  0.2348  0.4651
  110OSM   H10F11341   4.282   2.708  -1.629  0.1410  4.1436 -3.3625
  110OSM   C11F11342   4.200   2.911  -1.586 -0.2326  0.2114  0.6102
  110OSM   H11F11343   4.169   2.964  -1.494 -0.5574 -1.9766  1.8506
  110OSM   H11G11344   4.106   2.888  -1.640 -0.0299 -2.1953  1.1654
  110OSM   C12F11345   4.290   2.997  -1.684 -0.2618  0.3201 -0.6277
  110OSM   H12F11346   4.390   3.014  -1.639 -0.2621 -1.0837 -0.0345
  110OSM   H12G11347   4.244   3.098  -1.690  0.9615  1.0150  0.8402
  110OSM   C13F11348   4.316   2.953  -1.833 -0.7809  0.1009 -0.1094
  110OSM   H13F11349   4.363   2.852  -1.830 -1.8681 -0.4371 -0.7486
  110OSM   H13G11350   4.392   3.016  -1.883 -1.2089 -1.0602 -2.3557
  110OSM   C14F11351   4.188   2.952  -1.922  0.5632  0.3630  0.2275
  110OSM   H14F11352   4.165   3.057  -1.950  3.8606  1.2468  0.3933
  110OSM   H14G11353   4.105   2.908  -1.861 -0.6347  0.2380 -1.4263
  110OSM   C15F11354   4.210   2.866  -2.050 -0.3173  0.8276  0.7028
  110OSM   H15F11355   4.247   2.767  -2.015  2.1236  1.4743  0.1343
  110OSM   H15G11356   4.295   2.907  -2.109 -0.4974 -0.8864 -0.8458
  110OSM   C16F11357   4.085   2.861  -2.143 -0.2184  0.0463  0.1825
  110OSM   H16F11358   4.070   2.954  -2.201  1.6030  0.2941  0.0365
  110OSM   H16G11359   3.993   2.854  -2.080 -1.6687 -1.1475 -1.9557
  110OSM   C17F11360   4.097   2.752  -2.257 -0.2990 -0.3353  0.3218
  110OSM   H17F11361   4.108   2.654  -2.206  0.0725 -0.2742  0.3619
  110OSM   H17G11362   4.193   2.787  -2.302 -1.3428  0.2876 -1.5275
  110OSM   C18F11363   3.978   2.755  -2.357 -0.0984 -0.3140 -0.1665
  110OSM   H18F11364   3.985   2.662  -2.418  0.8459 -1.4351  1.5476
  110OSM   H18G11365   3.995   2.839  -2.427  0.5181 -0.9435 -0.7932
  110OSM   H18H11366   3.886   2.769  -2.296  0.4595 -0.3744  0.7095
  111OSM      N11367   4.894   1.849   0.831  0.8495 -0.6920  0.4124
  111OSM    C1511368   4.986   1.743   0.866  0.6327 -0.6706  0.3690
  111OSM   H15A11369   5.088   1.774   0.886  0.7347  1.4792 -2.7673
  111OSM   H15B11370   4.991   1.672   0.784  1.2360 -1.4174  1.0313
  111OSM   H15C11371   4.960   1.684   0.952  0.1799 -0.3976  0.4202
  111OSM    C1411372   4.751   1.801   0.841 -0.3146  0.6353 -0.1275
  111OSM   H14A11373   4.682   1.874   0.800  0.3776  0.7599 -1.1140
  111OSM   H14B11374   4.728   1.792   0.946 -0.2274  3.6699  0.2526
  111OSM   H14C11375   4.728   1.708   0.791 -3.3942  0.5336  1.2224
  111OSM    C1311376   4.901   1.967   0.934  0.0653 -0.3010  0.0387
  111OSM   H13A11377   5.001   2.009   0.930  0.3088 -0.8780  0.0238
  111OSM   H13B11378   4.884   1.946   1.038  0.7047 -1.4638 -0.0746
  111OSM   H13C11379   4.830   2.043   0.905  1.9147  2.2148  1.6751
  111OSM    C1211380   4.922   1.900   0.690  0.0350 -0.2156  0.4455
  111OSM   H12A11381   5.028   1.922   0.682 -0.0006 -0.4998 -1.0637
  111OSM   H12B11382   4.869   1.994   0.683 -3.1054 -1.9196 -0.4305
  111OSM    C1111383   4.888   1.804   0.570  0.4668  0.2627 -0.4770
  111OSM   H11A11384   4.922   1.862   0.482  2.8963  0.7417  0.7230
  111OSM   H11B11385   4.781   1.771   0.565 -0.2304  1.9735  1.7199
  111OSM      P11386   4.943   1.555   0.520  0.4196 -0.1124  0.0798
  111OSM    O1311387   5.065   1.472   0.527  0.5630 -0.0896 -0.2425
  111OSM    O1411388   4.823   1.502   0.593  0.3753  0.3920 -0.0651
  111OSM    O1111389   4.905   1.579   0.366 -0.3196  0.1542 -0.0745
  111OSM    O1211390   4.984   1.696   0.576 -0.1603  0.2600 -0.1783
  111OSM    C1S11391   5.006   1.640   0.274 -0.1340 -0.1253 -0.4398
  111OSM    H1S11392   5.095   1.575   0.258  1.4489  1.3985  1.4770
  111OSM    H1T11393   5.054   1.731   0.317  2.6728 -0.9222 -1.6780
  111OSM     NF11394   5.039   1.744   0.043  0.7300  0.5700  0.1454
  111OSM    HNF11395   5.039   1.842   0.026 -0.3186  0.3258 -1.4102
  111OSM    C2S11396   4.938   1.689   0.137 -0.2087 -0.5345  0.1724
  111OSM    H2S11397   4.890   1.602   0.088 -2.5476  0.9267 -0.2757
  111OSM    C3S11398   4.834   1.792   0.168  0.3275 -0.3191 -0.2163
  111OSM    H3S11399   4.869   1.871   0.238 -2.0103  0.4977  0.1153
  111OSM     O311400   4.724   1.740   0.241  0.2606  0.2671 -0.1544
  111OSM    HO311401   4.768   1.667   0.286 -1.8616  0.2004  1.9467
  111OSM    C4S11402   4.781   1.846   0.032  0.4485 -0.4790 -0.6657
  111OSM    H4S11403   4.851   1.917  -0.014 -0.2155  0.0701 -0.8451
  111OSM    C5S11404   4.659   1.818  -0.017 -0.9502 -0.0556 -0.1491
  111OSM    H5S11405   4.591   1.751   0.037  2.4436 -2.4893  1.4445
  111OSM    C6S11406   4.597   1.878  -0.142  0.9729 -0.1793 -0.4036
  111OSM    H6S11407   4.498   1.921  -0.115  0.3833 -0.3279 -2.2384
  111OSM    H6T11408   4.563   1.796  -0.209 -0.4405  1.1342 -1.3790
  111OSM    C7S11409   4.684   1.984  -0.223 -0.2849  0.3403 -0.2691
  111OSM    H7S11410   4.775   1.926  -0.248 -0.0242  0.2042  0.9446
  111OSM    H7T11411   4.704   2.067  -0.153 -1.0426  0.0573  0.3008
  111OSM    C8S11412   4.614   2.053  -0.344 -0.5085 -0.1062 -0.4693
  111OSM    H8S11413   4.647   2.158  -0.353  0.9993 -0.5512 -0.3254
  111OSM    H8T11414   4.505   2.055  -0.320 -0.2036  0.4143  0.9610
  111OSM    C9S11415   4.644   1.997  -0.483  0.6918 -0.1395  0.1670
  111OSM    H9S11416   4.626   1.887  -0.479 -0.9151  0.1156  1.1167
  111OSM    H9T11417   4.749   2.019  -0.511  1.1621 -0.8924  1.2458
  111OSM   C10S11418   4.554   2.057  -0.591  0.5345  0.3443  0.1629
  111OSM   H10S11419   4.582   2.164  -0.596  0.4361  0.3691  0.1574
  111OSM   H10T11420   4.447   2.042  -0.565  0.5627  3.3888  2.5726
  111OSM   C11S11421   4.578   1.972  -0.719 -0.3019 -0.1585  0.2749
  111OSM   H11S11422   4.538   1.869  -0.708  0.8200 -0.7190 -0.6498
  111OSM   H11T11423   4.686   1.960  -0.743 -0.1250  0.1118  0.9064
  111OSM   C12S11424   4.510   2.032  -0.845  0.3273 -0.6304  0.1709
  111OSM   H12S11425   4.562   2.127  -0.871 -0.8791  0.2280  0.7838
  111OSM   H12T11426   4.406   2.066  -0.828  0.1645  0.9848 -3.2982
  111OSM   C13S11427   4.504   1.932  -0.959  0.2043  0.0927  0.2438
  111OSM   H13S11428   4.436   1.854  -0.920 -0.2293  0.7272  0.7884
  111OSM   H13T11429   4.603   1.885  -0.971  0.7333  1.0826  0.5868
  111OSM   C14S11430   4.459   1.978  -1.094  0.1461 -0.0053  0.3700
  111OSM   H14S11431   4.510   2.070  -1.132  1.4517 -1.1806 -0.8754
  111OSM   H14T11432   4.351   2.004  -1.087 -0.4888 -1.5710 -2.1853
  111OSM   C15S11433   4.471   1.871  -1.212 -0.0263 -0.0217 -0.4422
  111OSM   H15S11434   4.415   1.780  -1.180 -0.2634  0.4632  0.5754
  111OSM   H15T11435   4.577   1.838  -1.215  0.2290  0.4463  1.8470
  111OSM   C16S11436   4.417   1.911  -1.348 -0.4080  0.4244  0.1867
  111OSM   H16S11437   4.313   1.951  -1.347 -0.3189  0.7364 -1.2081
  111OSM   H16T11438   4.413   1.821  -1.411  2.1325  0.3678 -0.0165
  111OSM   C17S11439   4.499   2.027  -1.410 -0.2167 -0.0785  0.2946
  111OSM   H17S11440   4.606   2.003  -1.398 -0.1338 -0.3891 -0.9904
  111OSM   H17T11441   4.495   2.121  -1.350 -0.1643 -0.2262  0.5281
  111OSM   C18S11442   4.470   2.056  -1.554  0.2684  0.4158  0.7849
  111OSM   H18S11443   4.489   1.963  -1.612  1.1735  1.1967 -0.2065
  111OSM   H18T11444   4.527   2.136  -1.607  1.1879 -0.2934  0.6750
  111OSM   H18U11445   4.364   2.081  -1.572 -0.0462  1.0291  3.1151
  111OSM    C1F11446   5.132   1.664  -0.014  0.7427 -0.4445 -0.3488
  111OSM     OF11447   5.165   1.560   0.039 -0.3732 -0.0145  0.1078
  111OSM    C2F11448   5.191   1.715  -0.142  0.8598  0.3034  0.1884
  111OSM    H2F11449   5.287   1.756  -0.105  0.8378 -0.7530  1.4800
  111OSM    H2G11450   5.126   1.793  -0.187  2.2475  1.1194 -0.4572
  111OSM    C3F11451   5.218   1.606  -0.244 -0.2886 -0.0298  0.9116
  111OSM    H3F11452   5.121   1.555  -0.264 -0.5329  1.3199 -1.6129
  111OSM    H3G11453   5.291   1.531  -0.206  1.6333 -0.8958 -3.7694
  111OSM    C4F11454   5.280   1.662  -0.377  0.1457  0.3893  0.0455
  111OSM    H4F11455   5.317   1.567  -0.422  1.1358  0.8369 -0.1069
  111OSM    H4G11456   5.365   1.731  -0.359 -0.0059  0.8846 -1.0779
  111OSM    C5F11457   5.167   1.709  -0.468 -0.6533 -0.2913 -0.2485
  111OSM    H5F11458   5.125   1.804  -0.427 -0.9670  0.5409 -2.3930
  111OSM    H5G11459   5.085   1.635  -0.458  0.9206 -2.0426  0.4042
  111OSM    C6F11460   5.204   1.718  -0.615  0.1410  0.1973 -0.3550
  111OSM    H6F11461   5.294   1.782  -0.631 -0.2146  1.0790  0.9721
  111OSM    H6G11462   5.125   1.786  -0.654  1.5474  1.1480 -1.7119
  111OSM    C7F11463   5.197   1.588  -0.695  0.2350 -0.1580  0.1358
  111OSM    H7F11464   5.107   1.525  -0.681  0.5874 -0.6332  0.2959
  111OSM    H7G11465   5.288   1.531  -0.666  0.3888 -0.3246 -0.6295
  111OSM    C8F11466   5.190   1.614  -0.848  0.4442 -0.3783 -0.2961
  111OSM    H8F11467   5.134   1.710  -0.860  0.4407 -0.4611 -0.9720
  111OSM    H8G11468   5.133   1.538  -0.904  0.8118 -0.3609 -0.6939
  111OSM    C9F11469   5.328   1.639  -0.898  0.3237 -0.5332  0.4419
  111OSM    H9F11470   5.412   1.659  -0.831  2.6903  0.0919 -2.5270
  111OSM   C10F11471   5.357   1.655  -1.031 -0.1021 -0.7389 -0.2384
  111OSM   H10F11472   5.463   1.678  -1.047 -0.3066  0.6838  0.3212
  111OSM   C11F11473   5.266   1.658  -1.149  0.5761  0.4883 -0.1246
  111OSM   H11F11474   5.301   1.737  -1.219  0.8154  0.1405 -0.4056
  111OSM   H11G11475   5.158   1.671  -1.127  0.8768  1.8197  0.6667
  111OSM   C12F11476   5.276   1.522  -1.225  0.5482 -0.1101  0.0036
  111OSM   H12F11477   5.230   1.443  -1.163 -1.0471  0.7348 -0.0680
  111OSM   H12G11478   5.384   1.497  -1.234  0.5364  0.0485 -0.6496
  111OSM   C13F11479   5.215   1.529  -1.365  0.8571 -0.5600 -0.0880
  111OSM   H13F11480   5.252   1.622  -1.413  0.7490 -1.3445 -1.7600
  111OSM   H13G11481   5.104   1.527  -1.360  0.8584 -1.6784 -0.2657
  111OSM   C14F11482   5.246   1.399  -1.442  0.2098  0.2023  0.8384
  111OSM   H14F11483   5.214   1.309  -1.384 -0.4720  0.3661  0.7205
  111OSM   H14G11484   5.356   1.382  -1.435  0.0633 -1.7625 -0.7380
  111OSM   C15F11485   5.180   1.388  -1.584 -0.1155 -0.0159  0.3112
  111OSM   H15F11486   5.070   1.387  -1.568 -0.0660 -0.3598  0.6328
  111OSM   H15G11487   5.208   1.289  -1.624  3.5946  0.2974  1.6955
  111OSM   C16F11488   5.234   1.495  -1.673  0.0049 -0.4296  0.4600
  111OSM   H16F11489   5.328   1.541  -1.636 -2.3756  4.0985  1.6475
  111OSM   H16G11490   5.156   1.573  -1.680  0.4545 -0.0846 -1.1600
  111OSM   C17F11491   5.258   1.439  -1.812 -1.0267 -0.3633 -0.3212
  111OSM   H17F11492   5.169   1.380  -1.844 -0.9023  0.9187 -3.3201
  111OSM   H17G11493   5.344   1.372  -1.787  0.6466  1.0775 -1.9658
  111OSM   C18F11494   5.299   1.538  -1.916  0.3141  0.5009  0.5038
  111OSM   H18F11495   5.295   1.500  -2.020 -2.4671  3.5664 -0.6920
  111OSM   H18G11496   5.402   1.577  -1.907  0.3891  0.7078 -1.0354
  111OSM   H18H11497   5.229   1.625  -1.915 -0.3215  0.0325  2.4721
  112OSM      N11498   0.598   0.243   0.483 -0.2116  0.2829  0.3823
  112OSM    C1511499   0.452   0.247   0.510 -0.0351 -0.2948 -0.7031
  112OSM   H15A11500   0.433   0.231   0.615  2.6516 -1.5695 -0.3250
  112OSM   H15B11501   0.402   0.171   0.451 -2.0932  0.4013  0.0488
  112OSM   H15C11502   0.416   0.346   0.486 -0.5500 -0.3899 -0.3371
  112OSM    C1411503   0.663   0.355   0.559  0.2301 -0.2328 -0.1468
  112OSM   H14A11504   0.665   0.335   0.665  3.8407 -0.3970 -0.1444
  112OSM   H14B11505   0.605   0.446   0.548  0.7629  0.0050 -1.0899
  112OSM   H14C11506   0.765   0.373   0.530  0.6666 -2.0154  0.1863
  112OSM    C1311507   0.646   0.109   0.526 -0.5474  0.4594 -0.7554
  112OSM   H13A11508   0.607   0.083   0.624 -1.1293 -0.0365 -1.1148
  112OSM   H13B11509   0.753   0.113   0.514 -0.5911 -0.7012 -1.7556
  112OSM   H13C11510   0.617   0.039   0.450 -1.3225 -0.5014  0.3824
  112OSM    C1211511   0.630   0.271   0.334  0.7978 -0.4888  0.0958
  112OSM   H12A11512   0.735   0.252   0.321  0.7068  0.1111 -1.6854
  112OSM   H12B11513   0.613   0.375   0.313  0.2951  0.0198  2.7016
  112OSM    C1111514   0.554   0.185   0.232 -0.5500  0.2324  0.1002
  112OSM   H11A11515   0.550   0.228   0.130 -0.0010 -1.6516 -0.7676
  112OSM   H11B11516   0.446   0.183   0.258 -0.6087 -1.7817 -0.1108
  112OSM      P11517   0.718  -0.002   0.164 -0.3978 -0.1339  0.1899
  112OSM    O1311518   0.813   0.114   0.135  0.6198 -0.0392  0.8065
  112OSM    O1411519   0.767  -0.116   0.245  0.0513  0.0770 -0.0182
  112OSM    O1111520   0.664  -0.051   0.028  0.3221  0.1385  0.5252
  112OSM    O1211521   0.592   0.051   0.239  0.2656  0.3464 -0.0544
  112OSM    C1S11522   0.530  -0.093   0.008  0.5469  0.1807 -0.2694
  112OSM    H1S11523   0.445  -0.025   0.032 -2.2011 -2.3887 -2.0173
  112OSM    H1T11524   0.507  -0.183   0.069 -0.3988  0.6070  0.0250
  112OSM     NF11525   0.369  -0.135  -0.172  0.5837 -1.5417 -0.0616
  112OSM    HNF11526   0.328  -0.215  -0.216  1.2315 -0.0301 -3.8307
  112OSM    C2S11527   0.506  -0.138  -0.144 -0.0450 -0.2439  0.1139
  112OSM    H2S11528   0.559  -0.065  -0.208  2.2100  0.0354  2.1473
  112OSM    C3S11529   0.579  -0.269  -0.169 -0.4014 -0.1496  0.0565
  112OSM    H3S11530   0.547  -0.340  -0.090  0.7991  1.6128  2.2557
  112OSM     O311531   0.717  -0.266  -0.129 -0.3012  0.0632  0.1473
  112OSM    HO311532   0.721  -0.175  -0.099  1.4399  0.3369 -0.7765
  112OSM    C4S11533   0.554  -0.315  -0.307  0.7606  0.5759  0.4218
  112OSM    H4S11534   0.494  -0.407  -0.309  2.8418 -0.8194 -0.9396
  112OSM    C5S11535   0.620  -0.285  -0.421 -0.3926  0.7053 -0.3069
  112OSM    H5S11536   0.695  -0.205  -0.419  0.0922  0.2585 -0.6187
  112OSM    C6S11537   0.605  -0.345  -0.556  0.4086 -0.2169 -0.0786
  112OSM    H6S11538   0.702  -0.388  -0.589  0.7793  0.7471 -0.2947
  112OSM    H6T11539   0.571  -0.268  -0.628  1.7939  3.3815  2.7424
  112OSM    C7S11540   0.501  -0.456  -0.575 -0.6194 -0.1338 -0.2355
  112OSM    H7S11541   0.403  -0.408  -0.554  1.2286  4.0656 -0.2435
  112OSM    H7T11542   0.538  -0.542  -0.515  2.4616  1.2390  0.0343
  112OSM    C8S11543   0.493  -0.498  -0.727  0.2205 -0.2157  0.5461
  112OSM    H8S11544   0.586  -0.552  -0.753 -0.9572 -1.4539 -1.3747
  112OSM    H8T11545   0.494  -0.401  -0.782  0.6411  0.1218  1.1318
  112OSM    C9S11546   0.368  -0.585  -0.758  0.0435  0.4666  0.3073
  112OSM    H9S11547   0.346  -0.633  -0.661  1.7586  1.4764  1.2421
  112OSM    H9T11548   0.386  -0.667  -0.831 -3.4557 -0.9993  0.9171
  112OSM   C10S11549   0.249  -0.509  -0.814 -0.0377  0.1908  1.1954
  112OSM   H10S11550   0.228  -0.410  -0.768 -1.5394 -0.1315  1.2382
  112OSM   H10T11551   0.153  -0.564  -0.801 -0.7354  1.0854  0.0602
  112OSM   C11S11552   0.255  -0.494  -0.971  0.0804 -0.1021  0.2576
  112OSM   H11S11553   0.267  -0.593  -1.021 -0.8842 -0.4733  0.7305
  112OSM   H11T11554   0.346  -0.432  -0.987  0.6797 -0.7123  1.1611
  112OSM   C12S11555   0.140  -0.417  -1.032  0.1597  0.6620 -0.8656
  112OSM   H12S11556   0.184  -0.324  -1.073 -0.7373  1.6347  0.3157
  112OSM   H12T11557   0.068  -0.386  -0.954 -0.4995 -0.1808 -1.1231
  112OSM   C13S11558   0.073  -0.501  -1.143  0.2912 -0.3757 -0.2081
  112OSM   H13S11559   0.032  -0.590  -1.091 -1.1655  0.5684  0.3501
  112OSM   H13T11560   0.160  -0.539  -1.199 -1.1091 -3.1019 -0.7140
  112OSM   C14S11561  -0.037  -0.423  -1.215  0.7459 -0.3186 -0.0123
  112OSM   H14S11562   0.007  -0.323  -1.233  0.5724 -0.0436  1.0283
  112OSM   H14T11563  -0.125  -0.424  -1.147  0.5574 -2.4687 -0.2160
  112OSM   C15S11564  -0.092  -0.496  -1.338  0.3867 -0.1336 -0.2595
  112OSM   H15S11565  -0.114  -0.600  -1.305  0.0452  0.2779  0.8476
  112OSM   H15T11566  -0.012  -0.514  -1.414 -0.5518  1.8010 -1.8140
  112OSM   C16S11567  -0.206  -0.420  -1.405  0.1194  0.0619 -0.4863
  112OSM   H16S11568  -0.153  -0.326  -1.432  2.5549 -1.3220 -0.7694
  112OSM   H16T11569  -0.283  -0.397  -1.328  0.1627  2.9359 -1.1887
  112OSM   C17S11570  -0.251  -0.484  -1.537 -0.4998  0.3789  0.0299
  112OSM   H17S11571  -0.299  -0.581  -1.512  0.1212  0.1281  0.2577
  112OSM   H17T11572  -0.165  -0.529  -1.592  0.3794  2.4718 -0.4130
  112OSM   C18S11573  -0.345  -0.409  -1.623 -0.1532  0.4066  0.3918
  112OSM   H18S11574  -0.353  -0.457  -1.723  2.5273  0.4462  0.1005
  112OSM   H18T11575  -0.310  -0.306  -1.646 -1.3617  0.5520 -0.9316
  112OSM   H18U11576  -0.446  -0.412  -1.575  0.1217 -0.4084  0.9313
  112OSM    C1F11577   0.292  -0.021  -0.173 -0.5232  0.3809 -0.2452
  112OSM     OF11578   0.334   0.093  -0.147 -0.2988 -0.0359  0.5761
  112OSM    C2F11579   0.146  -0.032  -0.208  0.0814  0.1115  0.4390
  112OSM    H2F11580   0.090   0.018  -0.126 -1.9388 -0.9159 -0.2563
  112OSM    H2G11581   0.130  -0.142  -0.209  0.5395 -0.0095  2.2464
  112OSM    C3F11582   0.116   0.044  -0.347  0.1341 -0.9443 -0.0150
  112OSM    H3F11583   0.141   0.152  -0.340 -1.7151 -0.5614  1.3568
  112OSM    H3G11584   0.007   0.038  -0.367 -0.0689 -0.8443  1.0201
  112OSM    C4F11585   0.192  -0.007  -0.471  0.6427 -0.3976 -0.3620
  112OSM    H4F11586   0.195  -0.118  -0.462 -1.7568 -0.5290 -0.5432
  112OSM    H4G11587   0.291   0.041  -0.465 -0.4616  1.8475  1.4368
  112OSM    C5F11588   0.126   0.042  -0.600 -0.5880 -0.1715  0.1107
  112OSM    H5F11589   0.136   0.149  -0.627  0.9935 -0.3224 -0.0187
  112OSM    H5G11590   0.019   0.019  -0.583 -0.2065 -0.8381  1.8836
  112OSM    C6F11591   0.182  -0.028  -0.724  0.4202  0.4543 -0.2008
  112OSM    H6F11592   0.130  -0.003  -0.819  0.8067 -0.0266 -0.5485
  112OSM    H6G11593   0.158  -0.135  -0.709  1.6776  0.1430 -0.2996
  112OSM    C7F11594   0.334  -0.015  -0.734 -0.0730  0.5276  0.0843
  112OSM    H7F11595   0.385  -0.049  -0.641  0.4869  3.8650  1.1299
  112OSM    H7G11596   0.373   0.086  -0.759  3.1558 -0.0068  2.2881
  112OSM    C8F11597   0.383  -0.116  -0.850 -1.2005 -0.4280  0.4373
  112OSM    H8F11598   0.322  -0.105  -0.942 -0.2411 -0.0746 -0.1671
  112OSM    H8G11599   0.355  -0.219  -0.819 -1.5236 -0.4646  0.0283
  112OSM    C9F11600   0.536  -0.101  -0.881 -0.3799 -0.1980 -0.0079
  112OSM    H9F11601   0.608  -0.121  -0.799 -0.5125  3.2303  1.0843
  112OSM   C10F11602   0.586  -0.057  -1.001  0.2287 -0.3183  0.3496
  112OSM   H10F11603   0.696  -0.051  -1.007  0.2312  0.2948  0.9322
  112OSM   C11F11604   0.504  -0.020  -1.125  0.4711  0.5730  0.4064
  112OSM   H11F11605   0.517   0.086  -1.157 -2.8110  1.6511  2.2093
  112OSM   H11G11606   0.395  -0.024  -1.106 -0.0795  0.4186 -2.3432
  112OSM   C12F11607   0.526  -0.115  -1.247  0.2057 -0.3054  0.8698
  112OSM   H12F11608   0.631  -0.096  -1.275 -0.9376  0.7526 -3.3678
  112OSM   H12G11609   0.462  -0.065  -1.323  0.5769 -0.6577  0.3191
  112OSM   C13F11610   0.481  -0.262  -1.223 -0.0304  0.2001  0.2829
  112OSM   H13F11611   0.374  -0.265  -1.194 -0.1847 -1.5373 -0.4114
  112OSM   H13G11612   0.557  -0.302  -1.153  3.4038 -0.0860 -3.2666
  112OSM   C14F11613   0.494  -0.340  -1.356 -0.8361 -0.2750  0.2884
  112OSM   H14F11614   0.511  -0.446  -1.330 -2.1193 -0.1695  1.6955
  112OSM   H14G11615   0.578  -0.291  -1.410 -0.4265  0.5382  1.5974
  112OSM   C15F11616   0.374  -0.344  -1.449  0.9934  0.3978  0.1528
  112OSM   H15F11617   0.349  -0.242  -1.484 -3.0590 -0.2914  0.4787
  112OSM   H15G11618   0.285  -0.382  -1.393  1.2633  1.5490  1.4094
  112OSM   C16F11619   0.411  -0.440  -1.563 -0.4251 -0.3020  0.3850
  112OSM   H16F11620   0.416  -0.545  -1.530  1.0577 -1.0166 -1.8391
  112OSM   H16G11621   0.514  -0.421  -1.600 -1.2021  0.0978 -1.7644
  112OSM   C17F11622   0.310  -0.435  -1.681 -0.2335  0.3823  0.9136
  112OSM   H17F11623   0.319  -0.521  -1.750  0.3750 -0.5541  2.1171
  112OSM   H17G11624   0.333  -0.344  -1.739  0.3495 -1.5028 -1.9980
  112OSM   C18F11625   0.164  -0.460  -1.632 -0.3172 -0.3527 -0.0564
  112OSM   H18F11626   0.084  -0.469  -1.709 -1.2258 -0.8506  0.9244
  112OSM   H18G11627   0.138  -0.375  -1.566 -1.2769 -0.8200  0.1804
  112OSM   H18H11628   0.156  -0.556  -1.577 -0.4798 -0.5570 -0.4339
  113OSM      N11629   3.708   0.926   0.343  0.1634  0.6429  0.3404
  113OSM    C1511630   3.683   0.796   0.419  0.6681 -0.3708  0.3091
  113OSM   H15A11631   3.599   0.812   0.486 -0.3147  1.9908 -1.3319
  113OSM   H15B11632   3.768   0.769   0.479  2.0865 -0.5826 -1.6984
  113OSM   H15C11633   3.660   0.707   0.363 -0.7681 -0.7738  1.4569
  113OSM    C1411634   3.575   0.945   0.277 -0.8518  0.5380  0.1778
  113OSM   H14A11635   3.491   0.957   0.344 -1.2906 -0.7131 -0.1223
  113OSM   H14B11636   3.549   0.856   0.222 -0.4006  0.6394 -0.2141
  113OSM   H14C11637   3.578   1.029   0.209  2.0183 -0.1575 -0.6947
  113OSM    C1311638   3.730   1.030   0.439  0.5743 -0.4056  0.1563
  113OSM   H13A11639   3.726   1.128   0.394 -1.1190 -0.0659  0.9666
  113OSM   H13B11640   3.824   1.023   0.492  1.7558 -0.1410 -1.8413
  113OSM   H13C11641   3.652   1.039   0.513 -0.5831  0.2195 -1.0971
  113OSM    C1211642   3.819   0.907   0.244 -0.2833 -0.3642  0.8373
  113OSM   H12A11643   3.817   0.988   0.173  3.1842 -0.6591  0.2113
  113OSM   H12B11644   3.806   0.813   0.193  2.0365 -0.6201  0.5937
  113OSM    C1111645   3.960   0.907   0.291  0.6140  0.0044 -0.2217
  113OSM   H11A11646   3.985   1.002   0.343  4.3213  0.6533 -2.7751
  113OSM   H11B11647   4.032   0.922   0.208 -0.4326 -0.3922 -1.2242
  113OSM      P11648   4.002   0.640   0.315  0.0805  0.3997 -0.1629
  113OSM    O1311649   4.136   0.588   0.351  0.4264 -0.4463 -0.2376
  113OSM    O1411650   3.892   0.570   0.380  0.5354  0.4292  0.3172
  113OSM    O1111651   3.991   0.651   0.160 -0.5747 -0.2028 -0.0920
  113OSM    O1211652   4.000   0.789   0.364 -0.5108  0.2904 -0.0847
  113OSM    C1S11653   4.094   0.677   0.066 -0.6178  0.0638 -0.2017
  113OSM    H1S11654   4.175   0.602   0.079 -0.9074 -0.5561 -1.7949
  113OSM    H1T11655   4.127   0.783   0.070 -0.9868  0.2618 -1.6586
  113OSM     NF11656   4.156   0.684  -0.176 -0.2346  0.3024  0.6795
  113OSM    HNF11657   4.150   0.766  -0.233 -0.8960  2.1433  3.2491
  113OSM    C2S11658   4.042   0.665  -0.086 -1.0913  0.3277 -0.0182
  113OSM    H2S11659   4.010   0.559  -0.092 -0.9976  0.2928  0.0894
  113OSM    C3S11660   3.922   0.762  -0.107 -0.5969  0.3675 -0.8464
  113OSM    H3S11661   3.964   0.862  -0.081 -0.0545  0.3883 -1.7810
  113OSM     O311662   3.813   0.750  -0.019  0.2168  0.2096  0.1790
  113OSM    HO311663   3.847   0.676   0.032  1.6277  0.8061  0.1563
  113OSM    C4S11664   3.878   0.754  -0.246  0.1449 -0.3803 -0.3199
  113OSM    H4S11665   3.941   0.807  -0.318  0.5875 -0.9879 -0.3926
  113OSM    C5S11666   3.792   0.662  -0.296  0.0369  0.5957  0.2985
  113OSM    H5S11667   3.737   0.592  -0.231  3.5444 -1.1601  1.6190
  113OSM    C6S11668   3.765   0.643  -0.439  0.1617  0.0421  0.9574
  113OSM    H6S11669   3.658   0.663  -0.458 -0.6068 -2.0548  2.6643
  113OSM    H6T11670   3.774   0.534  -0.458  1.5863  0.2493  0.2687
  113OSM    C7S11671   3.854   0.713  -0.543 -0.3669 -0.3354  0.6403
  113OSM    H7S11672   3.960   0.687  -0.523  0.2931  0.4848 -1.5275
  113OSM    H7T11673   3.858   0.824  -0.542  4.0815 -0.3021  1.1377
  113OSM    C8S11674   3.812   0.666  -0.682 -0.7126 -0.4922  0.0808
  113OSM    H8S11675   3.709   0.702  -0.705 -0.2685  1.3370  0.8010
  113OSM    H8T11676   3.802   0.555  -0.682 -0.0776 -0.5494  0.2602
  113OSM    C9S11677   3.907   0.721  -0.791  0.2534  1.1243  0.0414
  113OSM    H9S11678   4.007   0.675  -0.772 -0.8754 -1.9541 -0.7597
  113OSM    H9T11679   3.911   0.831  -0.782  0.2220  1.1645 -0.3977
  113OSM   C10S11680   3.867   0.669  -0.927  0.2806  0.2256  0.0263
  113OSM   H10S11681   3.768   0.710  -0.955  0.9069  2.7037  1.1390
  113OSM   H10T11682   3.860   0.559  -0.942  0.2209  0.1806  0.3904
  113OSM   C11S11683   3.969   0.715  -1.040 -0.2309 -0.2012  0.6141
  113OSM   H11S11684   4.070   0.715  -0.993  0.2142  1.4206 -0.2429
  113OSM   H11T11685   3.944   0.823  -1.053  2.5494  0.3884 -0.6972
  113OSM   C12S11686   3.963   0.614  -1.151 -0.1117 -0.3502  0.2144
  113OSM   H12S11687   3.860   0.578  -1.176 -0.0498  0.6679 -1.7256
  113OSM   H12T11688   4.019   0.525  -1.116  0.3030 -0.0991  0.1904
  113OSM   C13S11689   4.031   0.671  -1.273  0.6580  0.2084 -0.1207
  113OSM   H13S11690   4.134   0.699  -1.240  0.9615 -1.6821  0.7171
  113OSM   H13T11691   3.981   0.763  -1.308  0.5271  0.5768  0.9891
  113OSM   C14S11692   4.044   0.563  -1.384 -0.4250  1.0407 -0.0011
  113OSM   H14S11693   4.061   0.459  -1.350  1.8563  0.6304 -2.1002
  113OSM   H14T11694   4.138   0.586  -1.439  1.6785 -2.0314  2.0500
  113OSM   C15S11695   3.923   0.572  -1.482  0.8103  0.1214  0.0514
  113OSM   H15S11696   3.913   0.676  -1.520  1.1977  1.3296  3.0225
  113OSM   H15T11697   3.835   0.555  -1.417  2.1854 -3.8590  1.2074
  113OSM   C16S11698   3.933   0.455  -1.597  0.2042  0.0699 -0.2589
  113OSM   H16S11699   3.886   0.364  -1.554 -1.7910  0.6174 -1.1689
  113OSM   H16T11700   4.036   0.439  -1.634  0.8332  2.5091  0.2813
  113OSM   C17S11701   3.842   0.505  -1.708 -0.4396  0.4346  0.0663
  113OSM   H17S11702   3.863   0.610  -1.738 -2.7484  1.6966  2.4742
  113OSM   H17T11703   3.741   0.517  -1.664 -1.0425  0.4929 -1.2889
  113OSM   C18S11704   3.833   0.403  -1.827  0.1062  0.6313  0.4608
  113OSM   H18S11705   3.926   0.386  -1.885 -0.4271  1.1831 -0.5775
  113OSM   H18T11706   3.762   0.441  -1.903  0.5741  1.8840  0.6335
  113OSM   H18U11707   3.802   0.304  -1.788  0.7576  0.2864  0.1123
  113OSM    C1F11708   4.253   0.593  -0.191 -0.1886  0.3593 -0.3946
  113OSM     OF11709   4.266   0.498  -0.115  0.7129  0.3051 -0.2799
  113OSM    C2F11710   4.343   0.599  -0.308 -0.0972  0.1510 -0.2370
  113OSM    H2F11711   4.441   0.567  -0.267 -0.6424  1.6235  2.5033
  113OSM    H2G11712   4.348   0.709  -0.327 -0.1275  0.5187  1.6328
  113OSM    C3F11713   4.290   0.515  -0.421 -0.3321 -0.1902  0.0674
  113OSM    H3F11714   4.192   0.558  -0.449  0.3521  0.4557 -1.4539
  113OSM    H3G11715   4.273   0.409  -0.392 -2.1416 -0.1384 -0.6745
  113OSM    C4F11716   4.388   0.522  -0.542 -0.0068 -0.6315 -0.3910
  113OSM    H4F11717   4.487   0.478  -0.516  0.7701  0.4717 -1.3968
  113OSM    H4G11718   4.418   0.626  -0.565  1.3014 -0.8511  0.2146
  113OSM    C5F11719   4.321   0.468  -0.669  0.3395 -0.1946 -0.8989
  113OSM    H5F11720   4.230   0.530  -0.686 -0.1775 -0.4053  0.9107
  113OSM    H5G11721   4.289   0.362  -0.661 -0.3995  0.1440  1.7855
  113OSM    C6F11722   4.408   0.488  -0.799  0.0646  0.4409 -0.2899
  113OSM    H6F11723   4.502   0.429  -0.795 -0.6151 -0.7844 -1.2665
  113OSM    H6G11724   4.435   0.595  -0.811 -0.4785  0.7323  0.9368
  113OSM    C7F11725   4.325   0.441  -0.918 -0.3889 -0.7797 -0.0184
  113OSM    H7F11726   4.217   0.457  -0.896 -0.4704 -2.5244  1.0085
  113OSM    H7G11727   4.330   0.331  -0.932 -1.9440 -1.6263  4.4308
  113OSM    C8F11728   4.365   0.519  -1.046  0.2813 -0.1532  0.2186
  113OSM    H8F11729   4.353   0.628  -1.030 -0.0746 -0.3074  1.0408
  113OSM    H8G11730   4.282   0.499  -1.117  1.8112  2.6701 -2.6079
  113OSM    C9F11731   4.508   0.502  -1.091  0.4519 -0.1136  0.2763
  113OSM    H9F11732   4.592   0.532  -1.027  0.9614  1.1088 -0.9356
  113OSM   C10F11733   4.536   0.480  -1.218 -0.5153 -0.0017  0.2871
  113OSM   H10F11734   4.642   0.491  -1.244 -0.1504 -0.4568  1.4730
  113OSM   C11F11735   4.440   0.462  -1.329 -0.0646  0.3689  0.1102
  113OSM   H11F11736   4.396   0.561  -1.356  2.9369  1.5474 -0.9098
  113OSM   H11G11737   4.360   0.393  -1.296 -0.4331 -0.0075 -1.4947
  113OSM   C12F11738   4.500   0.387  -1.456  0.4587 -0.1596 -0.6022
  113OSM   H12F11739   4.508   0.283  -1.418 -1.0022 -0.8159 -2.0211
  113OSM   H12G11740   4.596   0.441  -1.472  0.0518  1.1748  1.0751
  113OSM   C13F11741   4.421   0.396  -1.587 -0.0195  0.5775 -0.1668
  113OSM   H13F11742   4.320   0.350  -1.583  0.5154 -1.1355 -3.0346
  113OSM   H13G11743   4.473   0.334  -1.663 -0.7795  0.3897 -0.5449
  113OSM   C14F11744   4.420   0.541  -1.641 -0.5052  0.0977  0.2555
  113OSM   H14F11745   4.523   0.566  -1.674 -0.1398  0.3393  1.5321
  113OSM   H14G11746   4.399   0.606  -1.554 -3.5723 -0.6965  0.2119
  113OSM   C15F11747   4.317   0.564  -1.748 -0.3821  0.3722 -0.5306
  113OSM   H15F11748   4.220   0.554  -1.695 -0.5635 -0.4180 -0.9982
  113OSM   H15G11749   4.318   0.498  -1.838  1.6129 -0.8261  0.3010
  113OSM   C16F11750   4.332   0.707  -1.800  0.3628  0.4896  0.0253
  113OSM   H16F11751   4.421   0.705  -1.867  0.7327 -0.5754  0.5129
  113OSM   H16G11752   4.355   0.769  -1.711  1.2984 -1.3783  1.1597
  113OSM   C17F11753   4.209   0.764  -1.866  0.2709  0.3641  0.0798
  113OSM   H17F11754   4.227   0.872  -1.885  0.5156  0.5086  1.0886
  113OSM   H17G11755   4.117   0.768  -1.803  0.3078  1.9039  0.0712
  113OSM   C18F11756   4.168   0.695  -2.000 -0.3752  0.5362  0.1533
  113OSM   H18F11757   4.085   0.748  -2.052 -0.1900  1.2932  0.6093
  113OSM   H18G11758   4.133   0.591  -1.983  0.4573  0.2006 -0.1414
  113OSM   H18H11759   4.261   0.689  -2.060 -0.7605  1.3859 -0.5620
  114OSM      N11760   1.507   6.401   0.218  0.4296 -0.4711  0.4329
  114OSM    C1511761   1.560   6.308   0.115 -0.5838 -0.5794 -0.2223
  114OSM   H15A11762   1.631   6.353   0.048 -0.8205  1.7145  0.9731
  114OSM   H15B11763   1.486   6.259   0.054 -0.9392  0.6632 -0.8285
  114OSM   H15C11764   1.611   6.232   0.172  2.7105  2.7817  1.7838
  114OSM    C1411765   1.378   6.361   0.281  0.4389 -0.1964 -0.2770
  114OSM   H14A11766   1.306   6.367   0.200 -0.5193  0.3692  0.6002
  114OSM   H14B11767   1.357   6.423   0.366  1.2711 -1.1237  0.6274
  114OSM   H14C11768   1.362   6.261   0.318 -2.2018 -0.1422 -1.0006
  114OSM    C1311769   1.614   6.400   0.326 -0.1251 -0.5516  0.2359
  114OSM   H13A11770   1.698   6.453   0.283 -0.3936  1.3209  1.8325
  114OSM   H13B11771   1.651   6.304   0.357  2.5975  1.0608  2.5258
  114OSM   H13C11772   1.599   6.453   0.420 -0.8261 -2.7257  1.4104
  114OSM    C1211773   1.485   6.544   0.173  0.2785 -1.1269 -0.0233
  114OSM   H12A11774   1.455   6.592   0.264 -0.3644  0.6231 -1.1044
  114OSM   H12B11775   1.392   6.554   0.119  0.4701 -1.6482 -0.4580
  114OSM    C1111776   1.603   6.624   0.109  0.6287 -0.0443 -0.3508
  114OSM   H11A11777   1.558   6.721   0.080 -2.7040 -0.9759  1.1535
  114OSM   H11B11778   1.612   6.563   0.017 -1.2165 -1.2614  0.2123
  114OSM      P11779   1.769   6.764   0.254 -0.4533  0.1819  0.1316
  114OSM    O1311780   1.678   6.795   0.372 -0.5803 -0.0392  0.3162
  114OSM    O1411781   1.918   6.760   0.279 -0.1969  0.0782  0.2135
  114OSM    O1111782   1.738   6.869   0.137  0.2670  0.6172  0.0417
  114OSM    O1211783   1.724   6.629   0.186 -0.2570 -0.1961 -0.5789
  114OSM    C1S11784   1.824   6.900   0.030  0.2786 -0.6748  0.0742
  114OSM    H1S11785   1.892   6.818  -0.000 -0.2887 -2.3762  3.0408
  114OSM    H1T11786   1.888   6.984   0.065 -0.9249 -0.1859  1.2104
  114OSM     NF11787   1.821   6.952  -0.211  0.0464  0.4861 -0.0400
  114OSM    HNF11788   1.834   7.047  -0.241  0.0431  0.2221 -0.9158
  114OSM    C2S11789   1.738   6.941  -0.094 -0.2407 -0.1410 -0.7169
  114OSM    H2S11790   1.670   6.855  -0.113 -0.3035 -0.3353  0.3289
  114OSM    C3S11791   1.651   7.073  -0.060  0.4761  0.1046 -0.0669
  114OSM    H3S11792   1.716   7.162  -0.069  0.5818  0.2136  1.5017
  114OSM     O311793   1.612   7.083   0.078  0.6462  0.3749  0.2998
  114OSM    HO311794   1.665   7.012   0.113  0.7349 -0.2223 -0.9726
  114OSM    C4S11795   1.541   7.088  -0.165 -0.1179 -0.4435  0.3574
  114OSM    H4S11796   1.470   7.005  -0.159 -2.1443  1.3476  3.1415
  114OSM    C5S11797   1.524   7.196  -0.241  0.2308 -0.1380 -0.3173
  114OSM    H5S11798   1.584   7.288  -0.235 -1.0680  0.8604 -1.7470
  114OSM    C6S11799   1.409   7.215  -0.340 -1.0617  0.0206 -0.7827
  114OSM    H6S11800   1.350   7.306  -0.315  0.5704  0.7230  0.7197
  114OSM    H6T11801   1.342   7.126  -0.335  1.1902 -1.6898  0.8503
  114OSM    C7S11802   1.464   7.204  -0.482 -0.2953 -0.2963  0.0105
  114OSM    H7S11803   1.551   7.136  -0.490  1.1629  1.3736  0.8258
  114OSM    H7T11804   1.500   7.301  -0.522  3.3838 -0.8775  1.5372
  114OSM    C8S11805   1.356   7.154  -0.582 -0.0883 -0.0775 -0.5084
  114OSM    H8S11806   1.327   7.056  -0.538 -1.0484  0.6791  0.6266
  114OSM    H8T11807   1.407   7.142  -0.680 -0.6049 -0.9773 -0.6777
  114OSM    C9S11808   1.224   7.238  -0.604 -0.1654 -0.4628 -0.2425
  114OSM    H9S11809   1.140   7.207  -0.538  0.3596 -1.3784  0.0098
  114OSM    H9T11810   1.203   7.205  -0.708  1.0338  0.4301 -0.7828
  114OSM   C10S11811   1.235   7.393  -0.580  0.4007 -0.0171 -0.2915
  114OSM   H10S11812   1.331   7.435  -0.615  1.0503 -0.0488  1.3336
  114OSM   H10T11813   1.226   7.417  -0.472  0.8611 -0.9661 -0.0324
  114OSM   C11S11814   1.129   7.460  -0.657 -0.7948 -0.5202 -0.1108
  114OSM   H11S11815   1.029   7.425  -0.623 -0.4762  0.2302  1.7408
  114OSM   H11T11816   1.151   7.443  -0.765 -1.0163 -0.8659 -0.1040
  114OSM   C12S11817   1.134   7.614  -0.649 -0.3653  0.5055  0.1827
  114OSM   H12S11818   1.230   7.643  -0.697  0.1058 -0.2880  0.6261
  114OSM   H12T11819   1.137   7.646  -0.543 -1.5185 -1.8278  0.9904
  114OSM   C13S11820   1.012   7.676  -0.709 -0.0718 -0.0525  0.2241
  114OSM   H13S11821   0.924   7.634  -0.655  1.1501 -0.0495  2.3253
  114OSM   H13T11822   0.998   7.648  -0.815  0.5050 -1.3747  0.4798
  114OSM   C14S11823   0.990   7.831  -0.693  0.1975 -0.3402  0.3010
  114OSM   H14S11824   1.032   7.867  -0.597  1.8679 -0.5976 -0.2953
  114OSM   H14T11825   0.882   7.857  -0.701 -0.0489 -0.7075  2.0196
  114OSM   C15S11826   1.066   7.904  -0.801 -0.6202 -0.3146  0.0435
  114OSM   H15S11827   1.172   7.874  -0.810 -0.5859  0.4617 -3.9333
  114OSM   H15T11828   1.058   8.013  -0.781  0.2906 -0.2426  0.0528
  114OSM   C16S11829   0.996   7.896  -0.936  0.1635  0.6310  0.1000
  114OSM   H16S11830   0.889   7.925  -0.928 -0.0656  0.3063 -1.4319
  114OSM   H16T11831   1.003   7.793  -0.975  3.8530  0.6810  0.2441
  114OSM   C17S11832   1.071   7.988  -1.042  0.3190  0.4411 -0.1813
  114OSM   H17S11833   1.176   7.954  -1.033 -0.2520 -0.9000  2.5250
  114OSM   H17T11834   1.071   8.092  -1.002  1.3666 -0.0418  1.1672
  114OSM   C18S11835   1.013   7.979  -1.184 -0.0811 -0.6806  0.3132
  114OSM   H18S11836   0.903   7.997  -1.181  0.3169  2.8707 -1.3352
  114OSM   H18T11837   1.046   7.888  -1.238  2.9735  1.8031 -2.4992
  114OSM   H18U11838   1.050   8.062  -1.248 -0.6373 -0.7299 -0.0798
  114OSM    C1F11839   1.879   6.848  -0.275 -0.0119  0.1434 -0.0909
  114OSM     OF11840   1.863   6.736  -0.219  0.0890 -0.1828  0.0194
  114OSM    C2F11841   1.962   6.864  -0.395  0.1956  0.1786  0.2983
  114OSM    H2F11842   2.023   6.956  -0.381  0.8905 -0.0695 -0.9881
  114OSM    H2G11843   1.901   6.872  -0.487  2.2328  1.0623 -1.0432
  114OSM    C3F11844   2.068   6.752  -0.415 -0.1291 -0.4580 -0.1775
  114OSM    H3F11845   2.007   6.660  -0.423 -0.6134 -0.0304 -1.5734
  114OSM    H3G11846   2.133   6.736  -0.326  0.4277  0.7373 -0.3510
  114OSM    C4F11847   2.161   6.766  -0.543 -0.1062  0.0321 -0.3965
  114OSM    H4F11848   2.090   6.796  -0.622  2.9244  1.2732 -2.8733
  114OSM    H4G11849   2.203   6.667  -0.570 -0.5469  0.4072 -2.6150
  114OSM    C5F11850   2.270   6.868  -0.544  0.0766  0.1146 -0.8107
  114OSM    H5F11851   2.359   6.831  -0.489  0.0724  0.9418 -0.2301
  114OSM    H5G11852   2.229   6.958  -0.493 -1.0476 -0.8112 -0.0315
  114OSM    C6F11853   2.320   6.898  -0.688  0.2695 -0.3041 -0.0863
  114OSM    H6F11854   2.361   6.810  -0.742  2.3697  0.8407 -0.4790
  114OSM    H6G11855   2.406   6.967  -0.675 -0.8984  1.2267 -0.3185
  114OSM    C7F11856   2.218   6.969  -0.775  0.1655  0.3085  0.6919
  114OSM    H7F11857   2.180   7.051  -0.710 -1.6786 -0.1606  0.2850
  114OSM    H7G11858   2.131   6.900  -0.787  0.8598 -0.1868 -2.1732
  114OSM    C8F11859   2.281   7.011  -0.908 -0.1237 -0.2463  0.2834
  114OSM    H8F11860   2.318   6.932  -0.977  0.5892  3.4382 -4.1328
  114OSM    H8G11861   2.372   7.070  -0.883  0.0093 -0.2656 -0.1420
  114OSM    C9F11862   2.203   7.118  -0.983  0.2248  0.0485 -0.3412
  114OSM    H9F11863   2.161   7.187  -0.909  0.2554 -2.5631  2.3031
  114OSM   C10F11864   2.157   7.120  -1.106  0.0920 -0.2826 -0.0176
  114OSM   H10F11865   2.101   7.207  -1.143  0.0164  0.2979  1.3933
  114OSM   C11F11866   2.170   7.015  -1.216 -0.1763 -0.5229  0.1627
  114OSM   H11F11867   2.073   6.963  -1.231 -1.5216  1.9779 -0.3400
  114OSM   H11G11868   2.255   6.946  -1.195  0.1014  0.1426  1.3505
  114OSM   C12F11869   2.211   7.076  -1.357 -0.1254  0.0185 -0.5944
  114OSM   H12F11870   2.315   7.115  -1.357 -0.0838 -0.0833 -0.2007
  114OSM   H12G11871   2.147   7.166  -1.366 -0.5954 -0.2546 -0.0788
  114OSM   C13F11872   2.181   6.994  -1.482 -0.7447  0.5499 -0.4438
  114OSM   H13F11873   2.074   7.002  -1.511 -0.2650 -1.8562 -3.4239
  114OSM   H13G11874   2.209   6.888  -1.467  1.6270  1.2126  0.2288
  114OSM   C14F11875   2.269   7.046  -1.595  0.2494  0.0673  0.4706
  114OSM   H14F11876   2.374   7.053  -1.560  0.7035  0.4837 -0.9297
  114OSM   H14G11877   2.240   7.152  -1.614  1.0841  0.3494  0.7157
  114OSM   C15F11878   2.252   6.973  -1.728 -0.6149 -0.1233 -0.2136
  114OSM   H15F11879   2.168   6.899  -1.730 -1.2846  0.6280 -0.8207
  114OSM   H15G11880   2.340   6.909  -1.751  0.5963  1.5022 -0.2354
  114OSM   C16F11881   2.234   7.075  -1.848  0.0340  0.5367  0.4642
  114OSM   H16F11882   2.251   7.015  -1.940 -2.2433 -2.1494  1.6705
  114OSM   H16G11883   2.316   7.150  -1.856 -1.3715  1.9991 -1.2510
  114OSM   C17F11884   2.098   7.143  -1.858 -0.2962  0.3934 -0.5096
  114OSM   H17F11885   2.092   7.195  -1.956 -1.0206  0.8058 -0.2548
  114OSM   H17G11886   2.078   7.214  -1.776  0.6114 -1.8824  1.7977
  114OSM   C18F11887   1.976   7.054  -1.850  0.3610  0.4939  0.6068
  114OSM   H18F11888   1.989   6.959  -1.905 -2.1884  1.7237 -2.4412
  114OSM   H18G11889   1.892   7.108  -1.899 -1.8035 -1.7625  1.5667
  114OSM   H18H11890   1.948   7.025  -1.746 -0.4974  0.0281  0.2593
  115OSM      N11891   3.337   3.205   0.295 -0.1808 -0.1362  0.6907
  115OSM    C1511892   3.356   3.124   0.170  0.4712  0.1877  0.2074
  115OSM   H15A11893   3.454   3.135   0.128  1.0941  3.9531  2.2368
  115OSM   H15B11894   3.287   3.146   0.090 -0.8887 -0.7474  1.0746
  115OSM   H15C11895   3.338   3.023   0.206  0.1556  0.5007  0.9577
  115OSM    C1411896   3.457   3.163   0.375 -0.1695 -0.3833 -0.0927
  115OSM   H14A11897   3.445   3.200   0.476 -0.9395 -1.8111  0.3869
  115OSM   H14B11898   3.544   3.214   0.337 -0.2825  2.7270  3.3154
  115OSM   H14C11899   3.475   3.056   0.367  1.0545 -0.1086 -1.4715
  115OSM    C1311900   3.349   3.351   0.267  0.8819  0.4242 -0.1015
  115OSM   H13A11901   3.442   3.381   0.223  1.3389  5.4091  3.4768
  115OSM   H13B11902   3.324   3.418   0.347  0.5410  0.9265 -0.6160
  115OSM   H13C11903   3.263   3.377   0.206 -1.0075 -1.9858  1.3240
  115OSM    C1211904   3.210   3.164   0.354 -0.0226  0.0057 -0.4187
  115OSM   H12A11905   3.182   3.243   0.422  1.6213  2.0434 -1.9875
  115OSM   H12B11906   3.226   3.070   0.405  0.0771  0.5726  0.6168
  115OSM    C1111907   3.088   3.164   0.257 -0.2243 -0.5461  0.4441
  115OSM   H11A11908   3.099   3.252   0.190 -0.9029 -0.3739  0.5564
  115OSM   H11B11909   2.997   3.181   0.317 -0.1312  0.9906  0.1769
  115OSM      P11910   3.055   2.911   0.259 -0.2570  0.0042  0.4702
  115OSM    O1311911   3.180   2.853   0.314 -0.0416 -0.1592  0.6591
  115OSM    O1411912   2.943   2.924   0.355 -0.2139 -0.5745  0.1797
  115OSM    O1111913   3.006   2.815   0.135 -0.0384  0.3774  0.2847
  115OSM    O1211914   3.087   3.045   0.179  0.0773  0.0265  0.0139
  115OSM    C1S11915   2.925   2.864   0.029  0.1993 -0.9411 -0.2346
  115OSM    H1S11916   2.878   2.962   0.052 -0.2213 -0.4565 -2.8135
  115OSM    H1T11917   2.844   2.793   0.003  1.4491 -2.0426 -1.2286
  115OSM     NF11918   2.894   2.930  -0.197  0.1612  0.3924 -0.1346
  115OSM    HNF11919   2.825   2.861  -0.219  1.6480 -0.7615 -1.4363
  115OSM    C2S11920   2.996   2.885  -0.109  0.3673 -0.3358  0.4085
  115OSM    H2S11921   3.071   2.965  -0.094 -0.7382  0.9075 -0.4601
  115OSM    C3S11922   3.065   2.749  -0.150 -0.6657  0.3425 -0.3411
  115OSM    H3S11923   2.977   2.681  -0.151 -1.0434  0.7956  0.7014
  115OSM     O311924   3.139   2.681  -0.044  0.2204  0.1710 -0.0437
  115OSM    HO311925   3.108   2.730   0.033  0.5492  0.5444 -0.1458
  115OSM    C4S11926   3.132   2.727  -0.292 -0.0838 -0.3007  0.1436
  115OSM    H4S11927   3.059   2.722  -0.374 -0.0306 -2.4612  0.1569
  115OSM    C5S11928   3.265   2.722  -0.327  0.2574  0.4315  0.2001
  115OSM    H5S11929   3.341   2.750  -0.252  2.2752  1.9150 -2.2285
  115OSM    C6S11930   3.315   2.725  -0.472 -1.0431 -0.1183  0.5155
  115OSM    H6S11931   3.383   2.638  -0.487  1.1341  0.9875  3.2905
  115OSM    H6T11932   3.375   2.817  -0.483 -0.8535 -0.2614  0.3274
  115OSM    C7S11933   3.212   2.740  -0.589 -0.2000 -0.4101 -0.0234
  115OSM    H7S11934   3.173   2.844  -0.582 -1.0182 -0.7115  0.0009
  115OSM    H7T11935   3.131   2.666  -0.571  2.4241 -3.1204  1.4679
  115OSM    C8S11936   3.268   2.714  -0.731 -0.1775  0.1638 -0.4808
  115OSM    H8S11937   3.273   2.603  -0.734 -0.3362  0.1456 -0.1080
  115OSM    H8T11938   3.362   2.767  -0.755 -1.5108  2.8420 -0.2306
  115OSM    C9S11939   3.172   2.759  -0.838  0.2226  0.6530  0.0902
  115OSM    H9S11940   3.158   2.869  -0.831  1.0558  1.1912 -3.8380
  115OSM    H9T11941   3.074   2.711  -0.820  0.9030 -0.4653  0.9827
  115OSM   C10S11942   3.217   2.731  -0.987 -0.2787 -0.5956  0.5169
  115OSM   H10S11943   3.227   2.624  -1.014  0.6315 -0.3679 -0.1072
  115OSM   H10T11944   3.319   2.772  -1.002 -0.5132  0.3340  1.3578
  115OSM   C11S11945   3.132   2.800  -1.092 -0.4279  0.6691 -0.0855
  115OSM   H11S11946   3.108   2.905  -1.067  2.0004  1.3132 -0.1910
  115OSM   H11T11947   3.033   2.752  -1.106  0.0123 -0.4252  0.3743
  115OSM   C12S11948   3.194   2.788  -1.231  0.3365  0.3119 -0.2194
  115OSM   H12S11949   3.226   2.683  -1.248 -0.3217 -0.0995  1.0195
  115OSM   H12T11950   3.284   2.853  -1.222 -0.8326  1.8213  1.0898
  115OSM   C13S11951   3.106   2.836  -1.343 -0.4511  0.6900 -0.1341
  115OSM   H13S11952   3.044   2.928  -1.329 -0.1574  0.4784  3.6537
  115OSM   H13T11953   3.028   2.759  -1.357  0.1178  0.1571 -0.4107
  115OSM   C14S11954   3.192   2.855  -1.473 -0.2509 -0.1331 -0.5092
  115OSM   H14S11955   3.275   2.781  -1.463 -0.7721 -0.6751 -0.0576
  115OSM   H14T11956   3.241   2.954  -1.469 -1.0124  0.2252  0.3264
  115OSM   C15S11957   3.131   2.835  -1.603 -0.5892 -0.1279 -1.2329
  115OSM   H15S11958   3.056   2.913  -1.630 -0.5857  0.0725 -0.6807
  115OSM   H15T11959   3.064   2.746  -1.601 -3.0660  1.6072  1.1282
  115OSM   C16S11960   3.240   2.843  -1.714 -0.8334 -0.2792 -0.0951
  115OSM   H16S11961   3.306   2.753  -1.712  1.9134  1.6169  1.4146
  115OSM   H16T11962   3.312   2.922  -1.682 -0.9578 -0.3710  0.4147
  115OSM   C17S11963   3.177   2.848  -1.856  0.0234 -0.4092  0.2038
  115OSM   H17S11964   3.101   2.928  -1.862 -1.2370 -1.6170 -0.8769
  115OSM   H17T11965   3.121   2.753  -1.870  1.5575 -1.2211 -0.7457
  115OSM   C18S11966   3.281   2.857  -1.971 -0.3757 -0.3424 -0.1489
  115OSM   H18S11967   3.337   2.764  -1.992  2.4715  0.3411  3.2976
  115OSM   H18T11968   3.368   2.922  -1.944 -0.4789 -0.5684  0.7735
  115OSM   H18U11969   3.231   2.892  -2.064  0.4056 -0.2066 -0.5254
  115OSM    C1F11970   2.872   3.049  -0.243 -0.1647 -0.7120 -0.0988
  115OSM     OF11971   2.949   3.138  -0.196  0.2115 -0.4455  0.2624
  115OSM    C2F11972   2.760   3.081  -0.336 -0.0396  0.0191  0.8744
  115OSM    H2F11973   2.784   3.182  -0.376  0.4851 -0.3253  0.2985
  115OSM    H2G11974   2.662   3.083  -0.284 -0.8939  2.0061 -0.6864
  115OSM    C3F11975   2.761   2.975  -0.452  0.0875 -0.7348  0.4600
  115OSM    H3F11976   2.679   3.006  -0.520  0.8984 -1.0952 -0.7050
  115OSM    H3G11977   2.749   2.872  -0.412  2.1387 -1.5019 -0.7658
  115OSM    C4F11978   2.888   2.975  -0.539 -0.7256 -1.0389 -0.3930
  115OSM    H4F11979   2.979   2.964  -0.477 -1.6564 -3.0845  0.7122
  115OSM    H4G11980   2.885   3.076  -0.585 -0.4569 -0.6333  0.4571
  115OSM    C5F11981   2.885   2.878  -0.652 -0.3081 -0.4906  0.3380
  115OSM    H5F11982   2.908   2.777  -0.612  0.7597 -0.3641  0.0712
  115OSM    H5G11983   2.964   2.905  -0.726  0.5383  0.4872  1.5618
  115OSM    C6F11984   2.755   2.877  -0.735 -0.0999 -0.1838 -0.3845
  115OSM    H6F11985   2.725   2.980  -0.762  1.0522  0.4858  0.7846
  115OSM    H6G11986   2.681   2.838  -0.662  1.1714 -1.3613  0.3364
  115OSM    C7F11987   2.752   2.784  -0.857  0.1227 -0.3612 -0.3432
  115OSM    H7F11988   2.646   2.752  -0.858  0.4957 -1.7498  0.9592
  115OSM    H7G11989   2.823   2.701  -0.838  0.7788  0.9182  4.1553
  115OSM    C8F11990   2.786   2.864  -0.986 -0.7316  0.2815  0.2034
  115OSM    H8F11991   2.822   2.785  -1.056  0.3313  1.4334 -0.5854
  115OSM    H8G11992   2.881   2.912  -0.954  0.6663 -1.5718 -0.9674
  115OSM    C9F11993   2.681   2.954  -1.044  0.4051 -0.1418 -0.0703
  115OSM    H9F11994   2.651   3.040  -0.982 -1.9454  0.0827 -1.4018
  115OSM   C10F11995   2.603   2.923  -1.151  0.4928 -0.1670 -0.6995
  115OSM   H10F11996   2.515   2.987  -1.166 -0.0635  0.0059  2.5288
  115OSM   C11F11997   2.615   2.813  -1.250 -0.4924  0.4452 -0.2770
  115OSM   H11F11998   2.518   2.762  -1.265 -2.0156  2.3395  2.3559
  115OSM   H11G11999   2.683   2.731  -1.216  0.1617  0.0712 -2.3415
  115OSM   C12F12000   2.672   2.846  -1.392  0.3243 -0.5410  0.3739
  115OSM   H12F12001   2.683   2.748  -1.443 -1.7038 -0.5521 -0.1088
  115OSM   H12G12002   2.773   2.891  -1.383 -0.1679  0.3896  1.6200
  115OSM   C13F12003   2.572   2.935  -1.474  0.2228 -0.0813 -0.0886
  115OSM   H13F12004   2.568   3.039  -1.434 -0.3369  0.3885 -1.3192
  115OSM   H13G12005   2.470   2.900  -1.448  0.7739 -0.3397  1.8608
  115OSM   C14F12006   2.599   2.951  -1.621 -0.4728 -0.5688  0.1370
  115OSM   H14F12007   2.611   2.846  -1.655 -2.7113 -2.3309  4.0140
  115OSM   H14G12008   2.695   3.005  -1.636 -0.9720  0.5834  0.8855
  115OSM   C15F12009   2.487   3.021  -1.708 -0.5506 -0.0009 -0.6273
  115OSM   H15F12010   2.490   3.130  -1.687 -2.3914 -0.2248  1.1900
  115OSM   H15G12011   2.392   2.979  -1.669  0.9775 -1.7016  1.5366
  115OSM   C16F12012   2.488   2.995  -1.861  0.1489  0.0212 -1.0465
  115OSM   H16F12013   2.390   3.033  -1.895  0.4800  1.1741 -0.7624
  115OSM   H16G12014   2.505   2.888  -1.887  1.2349  0.0425 -0.5017
  115OSM   C17F12015   2.595   3.087  -1.921  0.1006 -0.0667  0.1231
  115OSM   H17F12016   2.692   3.051  -1.882  0.4899  0.7352 -0.0988
  115OSM   H17G12017   2.572   3.189  -1.884 -0.8924 -0.6862  1.3084
  115OSM   C18F12018   2.577   3.089  -2.075 -0.2059 -0.1048 -0.2576
  115OSM   H18F12019   2.469   3.114  -2.083 -1.0021 -3.1911 -0.2261
  115OSM   H18G12020   2.592   2.987  -2.115  1.4632 -0.0165  0.0447
  115OSM   H18H12021   2.654   3.156  -2.120  1.5894 -2.1705 -0.4311
  116OSM      N12022   3.601   6.601   0.348  0.3408  0.1099 -0.3918
  116OSM    C1512023   3.680   6.475   0.352  0.1208 -0.3039  0.5877
  116OSM   H15A12024   3.785   6.497   0.342  0.1414 -0.3196  0.7650
  116OSM   H15B12025   3.662   6.404   0.272 -1.0454  3.7012 -3.0890
  116OSM   H15C12026   3.671   6.427   0.449  0.7906  0.6416  1.1337
  116OSM    C1412027   3.618   6.664   0.478 -0.4317  0.1031 -1.1218
  116OSM   H14A12028   3.723   6.685   0.495 -0.7835 -0.7127  2.7810
  116OSM   H14B12029   3.580   6.616   0.566  1.5882  0.4909  0.0352
  116OSM   H14C12030   3.570   6.761   0.478  2.2102  1.7083  3.2845
  116OSM    C1312031   3.651   6.683   0.234  0.4086  0.1439  0.2725
  116OSM   H13A12032   3.571   6.752   0.215 -0.5190 -0.7385  0.9149
  116OSM   H13B12033   3.658   6.631   0.139  1.8389  0.2835  0.2799
  116OSM   H13C12034   3.738   6.744   0.253 -0.8508  2.2050 -0.2702
  116OSM    C1212035   3.454   6.564   0.331  0.4346 -0.2956  0.2252
  116OSM   H12A12036   3.435   6.504   0.419  1.9595  0.5326  1.1565
  116OSM   H12B12037   3.443   6.497   0.247 -0.0199 -0.2054  0.2077
  116OSM    C1112038   3.353   6.683   0.324 -0.0628 -0.3112  0.1717
  116OSM   H11A12039   3.256   6.630   0.335 -1.3258  1.7859 -0.3157
  116OSM   H11B12040   3.375   6.731   0.226  2.1640  1.6119  1.4980
  116OSM      P12041   3.264   6.899   0.433  0.8530  0.0485  0.2550
  116OSM    O1312042   3.128   6.846   0.414  0.1939  0.2837  0.3289
  116OSM    O1412043   3.285   6.981   0.552 -0.8957 -0.0567 -0.3244
  116OSM    O1112044   3.294   6.989   0.308  0.2763 -0.4902  0.3269
  116OSM    O1212045   3.363   6.778   0.431  0.3795  0.4159  0.4099
  116OSM    C1S12046   3.430   7.028   0.267 -0.3763  0.0560  0.1636
  116OSM    H1S12047   3.478   6.928   0.267 -0.7648 -0.1286 -0.1311
  116OSM    H1T12048   3.479   7.100   0.336  0.5641  0.5881 -1.0219
  116OSM     NF12049   3.577   7.094   0.082  0.2978  1.2309  0.6886
  116OSM    HNF12050   3.632   7.176   0.094  1.0203  0.9465 -0.5100
  116OSM    C2S12051   3.435   7.090   0.122  0.2584  0.5321  0.7995
  116OSM    H2S12052   3.391   7.004   0.068  2.4285  0.2873 -0.7257
  116OSM    C3S12053   3.363   7.221   0.111 -0.2375  0.1085  0.1586
  116OSM    H3S12054   3.433   7.288   0.165  0.3625 -0.9127  0.6879
  116OSM     O312055   3.228   7.232   0.165  0.2455  0.2205  0.9332
  116OSM    HO312056   3.211   7.144   0.200  0.3000 -0.8630 -1.5478
  116OSM    C4S12057   3.365   7.267  -0.030 -0.5486  0.4561  0.8305
  116OSM    H4S12058   3.313   7.196  -0.096  1.0675  1.0409 -1.1746
  116OSM    C5S12059   3.455   7.349  -0.089 -0.3387  0.0791 -0.4519
  116OSM    H5S12060   3.547   7.366  -0.030  0.0234  0.7365 -1.1889
  116OSM    C6S12061   3.467   7.379  -0.235 -0.6536 -0.1156  0.5197
  116OSM    H6S12062   3.573   7.380  -0.270 -1.3043  0.7089 -1.5868
  116OSM    H6T12063   3.445   7.487  -0.249  0.4015 -0.0711 -1.0224
  116OSM    C7S12064   3.386   7.299  -0.335 -0.0329 -0.0063  0.0932
  116OSM    H7S12065   3.282   7.335  -0.317  0.2435  1.2290 -0.6136
  116OSM    H7T12066   3.400   7.189  -0.328  1.9266  0.0828 -1.5977
  116OSM    C8S12067   3.410   7.357  -0.474 -1.0322  0.2560  0.2469
  116OSM    H8S12068   3.471   7.448  -0.487 -1.1183  0.1872 -0.7205
  116OSM    H8T12069   3.321   7.385  -0.534 -0.6865 -0.4159 -0.6011
  116OSM    C9S12070   3.486   7.248  -0.551 -0.1781 -0.8758  0.0884
  116OSM    H9S12071   3.426   7.161  -0.584 -1.1567  1.1772 -4.2773
  116OSM    H9T12072   3.569   7.202  -0.492 -0.7502 -0.7503  1.0065
  116OSM   C10S12073   3.550   7.306  -0.681 -0.7383  0.4317 -0.1124
  116OSM   H10S12074   3.623   7.227  -0.708 -0.1937  0.9804 -0.2844
  116OSM   H10T12075   3.594   7.405  -0.657 -1.4785  0.4687  1.1676
  116OSM   C11S12076   3.454   7.309  -0.798  0.7702 -0.5227  0.5543
  116OSM   H11S12077   3.369   7.374  -0.766 -0.5842 -1.3274 -1.2206
  116OSM   H11T12078   3.415   7.209  -0.825  1.5097 -0.2391 -1.7985
  116OSM   C12S12079   3.506   7.382  -0.922 -0.4839 -0.3703 -0.7167
  116OSM   H12S12080   3.599   7.336  -0.962 -0.3177 -2.9043  2.2200
  116OSM   H12T12081   3.552   7.477  -0.889 -2.2416 -0.5398  2.6534
  116OSM   C13S12082   3.398   7.411  -1.024 -0.4727  0.0050  0.4794
  116OSM   H13S12083   3.338   7.491  -0.976 -2.5019 -1.1751 -0.0058
  116OSM   H13T12084   3.340   7.321  -1.053 -1.3154  0.7057 -0.0403
  116OSM   C14S12085   3.476   7.457  -1.154  0.3162  0.1197 -0.0212
  116OSM   H14S12086   3.510   7.364  -1.204  1.2623  0.7620 -0.6191
  116OSM   H14T12087   3.569   7.513  -1.127 -0.7381  1.2843  1.3396
  116OSM   C15S12088   3.378   7.546  -1.237 -0.0807 -0.6518  0.2702
  116OSM   H15S12089   3.346   7.629  -1.170 -0.4312 -0.4933 -0.0867
  116OSM   H15T12090   3.299   7.471  -1.260  0.6619 -0.6053 -2.9705
  116OSM   C16S12091   3.440   7.603  -1.366  0.8603 -0.0881 -0.4731
  116OSM   H16S12092   3.485   7.523  -1.428  2.2698 -0.5168  1.0478
  116OSM   H16T12093   3.528   7.665  -1.341  0.1752  0.3513  0.9586
  116OSM   C17S12094   3.338   7.676  -1.465  0.6151  0.0903 -0.4452
  116OSM   H17S12095   3.271   7.593  -1.498  1.2839 -0.1594 -1.1953
  116OSM   H17T12096   3.393   7.705  -1.557 -2.6448  2.3315 -1.8903
  116OSM   C18S12097   3.261   7.793  -1.410  0.1119  0.8403 -0.2685
  116OSM   H18S12098   3.200   7.763  -1.322  0.8356 -0.1570 -0.0873
  116OSM   H18T12099   3.206   7.844  -1.492 -1.1007 -0.3925 -0.2619
  116OSM   H18U12100   3.339   7.860  -1.368  0.7100 -1.1949  2.0979
  116OSM    C1F12101   3.649   6.985   0.058  0.0634  0.3523  0.5430
  116OSM     OF12102   3.588   6.876   0.040  0.1401 -0.2771 -0.6492
  116OSM    C2F12103   3.800   6.991   0.059  0.0410 -0.1552 -0.2479
  116OSM    H2F12104   3.844   6.891   0.077  0.2643 -0.0750 -0.3536
  116OSM    H2G12105   3.834   7.068   0.132 -0.4229 -1.4507  1.4058
  116OSM    C3F12106   3.866   7.034  -0.079  0.1445  0.5007  0.4574
  116OSM    H3F12107   3.840   6.946  -0.142  0.0541  0.1786  0.9398
  116OSM    H3G12108   3.973   7.023  -0.053  0.0242 -2.5592  0.0273
  116OSM    C4F12109   3.812   7.163  -0.141  0.3544 -0.8123 -0.5534
  116OSM    H4F12110   3.771   7.215  -0.052 -0.2507 -0.7478 -0.8623
  116OSM    H4G12111   3.733   7.154  -0.219  0.3247 -1.8114 -0.4173
  116OSM    C5F12112   3.919   7.248  -0.215  0.3037 -0.1386  0.0498
  116OSM    H5F12113   4.013   7.264  -0.159  0.0540 -1.1076  0.7656
  116OSM    H5G12114   3.874   7.350  -0.220 -1.3975 -0.7940  1.0151
  116OSM    C6F12115   3.958   7.212  -0.354  0.6876  0.1010  0.6930
  116OSM    H6F12116   4.030   7.127  -0.347  0.9837  0.3515  0.7162
  116OSM    H6G12117   4.012   7.298  -0.399  1.0095 -0.3409  0.2165
  116OSM    C7F12118   3.851   7.166  -0.456  0.1002  0.0512 -0.6358
  116OSM    H7F12119   3.786   7.251  -0.485 -0.2594 -0.4374 -1.3011
  116OSM    H7G12120   3.798   7.083  -0.403  1.4605 -0.8446 -0.6275
  116OSM    C8F12121   3.911   7.095  -0.584 -0.5163  0.7513  0.7311
  116OSM    H8F12122   3.822   7.051  -0.633  0.3422  1.1273 -1.2938
  116OSM    H8G12123   3.983   7.016  -0.552  0.6175  1.3214 -0.2946
  116OSM    C9F12124   3.994   7.171  -0.685 -0.3536  0.7933  0.1138
  116OSM    H9F12125   4.068   7.227  -0.627  0.5186 -1.7808  1.6819
  116OSM   C10F12126   3.985   7.170  -0.819 -0.2860  0.8825  0.3519
  116OSM   H10F12127   4.064   7.219  -0.877  1.0667  0.1759  1.5243
  116OSM   C11F12128   3.890   7.082  -0.908 -0.9919 -0.1519 -0.6189
  116OSM   H11F12129   3.785   7.091  -0.874 -1.5578 -0.2208 -2.2774
  116OSM   H11G12130   3.916   6.974  -0.913  0.8500  0.2737 -0.9264
  116OSM   C12F12131   3.897   7.140  -1.044 -0.5938 -0.3706  0.3388
  116OSM   H12F12132   3.996   7.119  -1.090 -0.7888  3.2283 -2.1716
  116OSM   H12G12133   3.876   7.249  -1.045 -0.8898 -0.4277  0.2191
  116OSM   C13F12134   3.790   7.066  -1.129 -0.0033 -0.3520 -0.4590
  116OSM   H13F12135   3.686   7.070  -1.091 -0.7253 -1.4486 -2.1806
  116OSM   H13G12136   3.816   6.958  -1.141 -0.8301 -0.3280 -3.0271
  116OSM   C14F12137   3.780   7.114  -1.275  1.5128 -0.2954 -0.3203
  116OSM   H14F12138   3.841   7.049  -1.342  1.4524  0.5872 -1.2594
  116OSM   H14G12139   3.817   7.217  -1.292  0.7177 -0.0017 -0.2988
  116OSM   C15F12140   3.636   7.101  -1.336 -0.3139 -0.3255 -0.6188
  116OSM   H15F12141   3.573   7.168  -1.273  1.8914 -0.2275  1.6433
  116OSM   H15G12142   3.598   6.997  -1.327 -0.0953 -0.4472 -1.0682
  116OSM   C16F12143   3.627   7.142  -1.488 -0.5272  0.1901 -0.5790
  116OSM   H16F12144   3.679   7.069  -1.554 -0.5073  0.5714 -0.9878
  116OSM   H16G12145   3.670   7.241  -1.511  0.9762  0.7193  3.5962
  116OSM   C17F12146   3.477   7.138  -1.525  0.1566 -0.4379  0.3834
  116OSM   H17F12147   3.431   7.048  -1.478  2.2108 -1.6653  0.1648
  116OSM   H17G12148   3.483   7.117  -1.634 -1.3582 -2.9014  0.6910
  116OSM   C18F12149   3.393   7.267  -1.503 -0.2706  0.1582 -0.1099
  116OSM   H18F12150   3.437   7.347  -1.566 -1.8308  0.4267 -0.9203
  116OSM   H18G12151   3.376   7.295  -1.397  1.9666 -2.1232  0.9375
  116OSM   H18H12152   3.298   7.255  -1.560 -0.4297  0.9304 -0.0302
  117OSM      N12153   3.771   2.434   0.052 -0.9152  0.7815 -0.1159
  117OSM    C1512154   3.897   2.506   0.013  0.8464 -0.3578 -0.2412
  117OSM   H15A12155   3.952   2.462  -0.069  2.1781  0.4535  0.1845
  117OSM   H15B12156   3.957   2.516   0.102  0.0652  2.1262  0.0670
  117OSM   H15C12157   3.877   2.605  -0.024 -0.4102 -0.0225  1.2406
  117OSM    C1412158   3.680   2.524   0.126  0.2468  0.4521 -0.5211
  117OSM   H14A12159   3.584   2.479   0.145 -0.6337  2.4543  0.0233
  117OSM   H14B12160   3.660   2.606   0.058  0.5701  1.2175  0.2772
  117OSM   H14C12161   3.722   2.560   0.219  2.6729  0.0354 -1.3686
  117OSM    C1312162   3.710   2.397  -0.077  0.5043  0.2606 -0.5090
  117OSM   H13A12163   3.667   2.484  -0.124 -0.0283  0.4469  0.3026
  117OSM   H13B12164   3.632   2.324  -0.062 -1.2394  2.0823 -0.3337
  117OSM   H13C12165   3.788   2.362  -0.143  1.8002  0.8700  0.6505
  117OSM    C1212166   3.817   2.308   0.124  0.0522 -1.5429 -0.1581
  117OSM   H12A12167   3.873   2.258   0.046 -0.4471 -1.0033 -0.8751
  117OSM   H12B12168   3.725   2.252   0.136 -0.6552 -0.3752 -0.0227
  117OSM    C1112169   3.911   2.310   0.245 -0.0865 -0.2285  0.2141
  117OSM   H11A12170   3.895   2.213   0.296 -4.8776 -1.1454 -2.4470
  117OSM   H11B12171   3.880   2.393   0.313 -0.7494 -0.5662  0.3348
  117OSM      P12172   4.127   2.226   0.118 -0.3308 -0.3908  0.2030
  117OSM    O1312173   4.263   2.219   0.178  0.5420 -0.4801 -0.1008
  117OSM    O1412174   4.050   2.100   0.100 -0.0205  0.6629 -0.0904
  117OSM    O1112175   4.123   2.296  -0.025 -0.4850 -0.4939 -0.1623
  117OSM    O1212176   4.046   2.331   0.205 -0.2845 -0.0768 -0.1716
  117OSM    C1S12177   4.222   2.385  -0.076 -0.2039  0.0908  0.2604
  117OSM    H1S12178   4.309   2.395  -0.007 -0.6799  0.7417  0.7809
  117OSM    H1T12179   4.183   2.489  -0.088  1.2206  0.6810  0.5675
  117OSM     NF12180   4.388   2.431  -0.252  0.3228 -0.1320  0.2865
  117OSM    HNF12181   4.366   2.504  -0.316  2.3126  0.7867  0.5813
  117OSM    C2S12182   4.275   2.344  -0.217  0.1215  0.7641  0.5180
  117OSM    H2S12183   4.308   2.238  -0.213 -1.8711  0.0284 -0.9194
  117OSM    C3S12184   4.158   2.347  -0.324 -0.5571  0.1569  0.0755
  117OSM    H3S12185   4.134   2.455  -0.336  0.7155  0.4714  0.1847
  117OSM     O312186   4.046   2.264  -0.290 -0.7997 -0.5096 -0.3627
  117OSM    HO312187   4.067   2.234  -0.201  1.5558  1.3305 -0.1900
  117OSM    C4S12188   4.211   2.298  -0.451 -0.6225 -0.1011 -0.1843
  117OSM    H4S12189   4.226   2.189  -0.452  1.1604  0.0540 -3.0295
  117OSM    C5S12190   4.229   2.365  -0.563 -0.1387 -0.2821 -0.0489
  117OSM    H5S12191   4.193   2.468  -0.580  1.5077  0.4006  0.4267
  117OSM    C6S12192   4.287   2.302  -0.683  0.1389 -0.1726 -0.3787
  117OSM    H6S12193   4.285   2.191  -0.675 -2.3905 -0.0641  1.8589
  117OSM    H6T12194   4.392   2.336  -0.694 -0.5319  2.5957  0.7798
  117OSM    C7S12195   4.209   2.348  -0.812  1.1693 -0.1533 -0.0235
  117OSM    H7S12196   4.204   2.459  -0.804  2.2002 -0.2426  3.7404
  117OSM    H7T12197   4.107   2.304  -0.817  2.0687 -2.2349 -1.4800
  117OSM    C8S12198   4.267   2.301  -0.946  0.1106 -0.0023 -0.2599
  117OSM    H8S12199   4.246   2.192  -0.957  2.5908 -0.8207  2.0675
  117OSM    H8T12200   4.375   2.326  -0.943  0.5571 -1.8632  1.6480
  117OSM    C9S12201   4.203   2.363  -1.071 -0.3967  0.7221  0.0285
  117OSM    H9S12202   4.202   2.473  -1.061 -0.7874  0.6563  0.8397
  117OSM    H9T12203   4.095   2.339  -1.083  0.2006 -1.5722 -1.4556
  117OSM   C10S12204   4.270   2.298  -1.193 -0.6904 -1.1411  0.7153
  117OSM   H10S12205   4.207   2.208  -1.209 -0.4494 -1.1530 -0.2547
  117OSM   H10T12206   4.377   2.280  -1.170 -0.5013 -2.8190 -1.2037
  117OSM   C11S12207   4.264   2.400  -1.310  0.0116  0.2927  0.1193
  117OSM   H11S12208   4.340   2.479  -1.292 -1.3094  1.6582 -0.1814
  117OSM   H11T12209   4.161   2.440  -1.316  0.0677  0.7382  1.6280
  117OSM   C12S12210   4.293   2.321  -1.438  0.1241 -0.2566  0.1483
  117OSM   H12S12211   4.269   2.214  -1.421 -0.8611 -0.0375  0.1812
  117OSM   H12T12212   4.397   2.330  -1.475  0.9328 -2.8602  1.5560
  117OSM   C13S12213   4.213   2.373  -1.562  0.3941  0.2152  1.3060
  117OSM   H13S12214   4.222   2.483  -1.556 -1.4780  0.6880 -2.1848
  117OSM   H13T12215   4.106   2.350  -1.544  0.7670 -2.1323  0.9196
  117OSM   C14S12216   4.261   2.325  -1.701 -0.1504  0.2113  0.1820
  117OSM   H14S12217   4.258   2.215  -1.712  0.3224  0.3805 -1.9606
  117OSM   H14T12218   4.372   2.333  -1.698 -0.0566 -0.8871  2.3679
  117OSM   C15S12219   4.190   2.400  -1.817 -0.9576 -0.4787  1.1977
  117OSM   H15S12220   4.232   2.502  -1.829  3.5685 -2.3089 -0.9383
  117OSM   H15T12221   4.079   2.391  -1.817 -0.9137 -1.2292 -0.0088
  117OSM   C16S12222   4.222   2.357  -1.964  0.1149 -0.2141 -0.1932
  117OSM   H16S12223   4.168   2.416  -2.041  1.5647  0.9406 -0.3697
  117OSM   H16T12224   4.172   2.259  -1.968  0.8678 -0.6210  0.1883
  117OSM   C17S12225   4.367   2.358  -2.011 -0.1641  0.7840  0.2263
  117OSM   H17S12226   4.373   2.326  -2.117  2.2711 -3.0596  1.3039
  117OSM   H17T12227   4.420   2.276  -1.958 -0.6262  1.2547  1.4679
  117OSM   C18S12228   4.438   2.488  -1.995 -0.0283 -0.1028 -0.2076
  117OSM   H18S12229   4.540   2.473  -2.038 -0.0868 -0.0854 -0.3550
  117OSM   H18T12230   4.466   2.512  -1.891  2.4296  2.2136 -1.2688
  117OSM   H18U12231   4.396   2.576  -2.048  0.3534  0.0712 -0.2271
  117OSM    C1F12232   4.503   2.428  -0.188  0.1832  0.4219  0.4745
  117OSM     OF12233   4.536   2.334  -0.115  0.0947  0.3935 -0.1647
  117OSM    C2F12234   4.579   2.551  -0.202  1.3906  0.0872 -0.0667
  117OSM    H2F12235   4.604   2.586  -0.099  0.5266  0.6693 -0.0383
  117OSM    H2G12236   4.512   2.624  -0.253 -2.3522 -2.9731 -0.0093
  117OSM    C3F12237   4.709   2.532  -0.276  0.4726  0.9385  0.5416
  117OSM    H3F12238   4.780   2.477  -0.210  1.6962  2.4440  0.5478
  117OSM    H3G12239   4.754   2.632  -0.293  0.6805  0.9253  0.9923
  117OSM    C4F12240   4.706   2.456  -0.405 -0.0371  0.1383  0.6419
  117OSM    H4F12241   4.603   2.423  -0.431  1.0263 -1.0670 -2.5755
  117OSM    H4G12242   4.773   2.367  -0.398 -1.6066 -1.0605  1.0267
  117OSM    C5F12243   4.766   2.539  -0.516  0.0740 -0.6985 -0.1875
  117OSM    H5F12244   4.859   2.591  -0.487  1.1021 -1.2073 -2.4087
  117OSM    H5G12245   4.689   2.617  -0.535 -1.4340 -1.6903  1.5118
  117OSM    C6F12246   4.797   2.469  -0.648 -0.1061  0.3065  0.0865
  117OSM    H6F12247   4.824   2.366  -0.617 -1.3671  0.4325  1.8043
  117OSM    H6G12248   4.874   2.523  -0.707  1.1177 -1.5108 -0.0435
  117OSM    C7F12249   4.675   2.455  -0.738 -0.0314  0.3196  0.8040
  117OSM    H7F12250   4.635   2.556  -0.763  0.2716  0.9263  2.6088
  117OSM    H7G12251   4.593   2.409  -0.681  1.4045 -1.1778  1.7453
  117OSM    C8F12252   4.694   2.377  -0.874  0.4192 -0.3554  0.3685
  117OSM    H8F12253   4.593   2.359  -0.916  0.0041  0.4520  1.0145
  117OSM    H8G12254   4.731   2.275  -0.852  0.3225 -0.5347 -0.2723
  117OSM    C9F12255   4.794   2.451  -0.966 -0.4261 -0.0505  0.1421
  117OSM    H9F12256   4.896   2.454  -0.926 -1.4648  2.0788  2.9473
  117OSM   C10F12257   4.772   2.496  -1.088 -0.1971 -0.4354  0.2167
  117OSM   H10F12258   4.837   2.565  -1.144 -3.0479  2.8100  0.5190
  117OSM   C11F12259   4.647   2.487  -1.173 -0.8579  0.4995 -0.2692
  117OSM   H11F12260   4.627   2.583  -1.223 -1.4654 -1.3689 -3.9091
  117OSM   H11G12261   4.555   2.482  -1.111 -0.0535  3.1349  1.2919
  117OSM   C12F12262   4.654   2.378  -1.283 -0.2815 -0.1734 -0.4027
  117OSM   H12F12263   4.555   2.359  -1.330 -0.8387  0.2182  0.5893
  117OSM   H12G12264   4.693   2.283  -1.239  0.9947  0.6867  0.3732
  117OSM   C13F12265   4.744   2.424  -1.403 -0.2745 -0.3294 -0.4305
  117OSM   H13F12266   4.841   2.448  -1.355 -0.5882 -0.4443  0.2692
  117OSM   H13G12267   4.689   2.511  -1.445  1.5543  1.3503  0.4812
  117OSM   C14F12268   4.779   2.317  -1.508  0.4956  0.1620 -0.5664
  117OSM   H14F12269   4.741   2.218  -1.474  2.0929 -1.5611 -3.3398
  117OSM   H14G12270   4.889   2.312  -1.516  0.4144 -0.3210 -1.5664
  117OSM   C15F12271   4.735   2.353  -1.647 -0.4077 -0.2657  0.5183
  117OSM   H15F12272   4.792   2.442  -1.681  0.1847 -0.6684  0.4371
  117OSM   H15G12273   4.632   2.390  -1.664  0.1537  1.8637  1.4357
  117OSM   C16F12274   4.778   2.231  -1.734  0.2183 -0.3024 -0.8115
  117OSM   H16F12275   4.749   2.136  -1.684  3.2502 -0.4713  0.8445
  117OSM   H16G12276   4.889   2.229  -1.732  0.2177 -0.8036  1.3771
  117OSM   C17F12277   4.722   2.231  -1.879 -0.4839 -0.1921  0.2330
  117OSM   H17F12278   4.613   2.246  -1.865 -0.0970  1.4999  1.8169
  117OSM   H17G12279   4.731   2.132  -1.929  2.0236  0.1686 -0.1400
  117OSM   C18F12280   4.791   2.331  -1.964  0.2097  0.2274 -0.2325
  117OSM   H18F12281   4.794   2.426  -1.907 -0.6054  0.0799  0.0657
  117OSM   H18G12282   4.734   2.359  -2.055 -2.8583 -0.1392  1.4661
  117OSM   H18H12283   4.896   2.301  -1.989  0.4184  0.4976  0.3121
  118OSM      N12284   3.417   1.691   0.393  0.3575 -0.1956 -0.9450
  118OSM    C1512285   3.492   1.795   0.311  0.0690  0.0091  0.1543
  118OSM   H15A12286   3.591   1.763   0.284  0.3148 -0.0535  1.0914
  118OSM   H15B12287   3.499   1.893   0.356 -2.9569  1.1356 -1.5354
  118OSM   H15C12288   3.430   1.804   0.223  1.0123  0.4462 -0.4778
  118OSM    C1412289   3.497   1.690   0.519 -0.0702 -0.0604  0.0329
  118OSM   H14A12290   3.594   1.652   0.491  0.3750  1.1842 -0.1571
  118OSM   H14B12291   3.451   1.619   0.587  0.9209 -0.5154  0.2449
  118OSM   H14C12292   3.507   1.788   0.563  1.3043  0.4610 -1.3639
  118OSM    C1312293   3.279   1.726   0.429 -0.0556  1.1004  0.0736
  118OSM   H13A12294   3.214   1.723   0.343 -0.2882 -1.4283  0.2684
  118OSM   H13B12295   3.274   1.823   0.475 -1.6315  0.6051  1.0163
  118OSM   H13C12296   3.237   1.647   0.489  1.2318 -0.9507 -1.5644
  118OSM    C1212297   3.419   1.549   0.332 -0.3251  0.0135  0.3008
  118OSM   H12A12298   3.364   1.483   0.397  0.4397  0.9144  1.9262
  118OSM   H12B12299   3.522   1.518   0.330 -0.5106 -0.7710  1.7607
  118OSM    C1112300   3.363   1.526   0.196  0.1021  0.1187  0.6418
  118OSM   H11A12301   3.368   1.417   0.175  1.3752  0.1673  0.6178
  118OSM   H11B12302   3.436   1.568   0.124  1.2264 -2.6442  0.0072
  118OSM      P12303   3.211   1.685   0.050  0.2816 -0.3100  0.1284
  118OSM    O1312304   3.068   1.698   0.028  0.1822  0.4393  0.0402
  118OSM    O1412305   3.284   1.809   0.079 -0.1070  0.3244  0.0610
  118OSM    O1112306   3.282   1.592  -0.059  0.2408  0.3623  0.1194
  118OSM    O1212307   3.234   1.587   0.180  0.4511 -0.1581  0.1751
  118OSM    C1S12308   3.245   1.589  -0.196 -0.4048  0.2224 -0.3070
  118OSM    H1S12309   3.237   1.691  -0.239 -1.9190 -0.0321 -0.6818
  118OSM    H1T12310   3.151   1.531  -0.213 -0.6116  0.3399  0.3724
  118OSM     NF12311   3.321   1.543  -0.437  0.7345 -0.2962  0.1352
  118OSM    HNF12312   3.270   1.474  -0.488 -0.8150  0.6019  0.4046
  118OSM    C2S12313   3.358   1.528  -0.292 -0.6021  0.9734 -0.2437
  118OSM    H2S12314   3.454   1.580  -0.272  0.3557 -0.3904 -1.1083
  118OSM    C3S12315   3.386   1.376  -0.249  0.1737 -0.4970  0.4108
  118OSM    H3S12316   3.285   1.334  -0.236 -1.8584  3.7919  0.3550
  118OSM     O312317   3.419   1.361  -0.113 -0.5124 -0.5467 -0.8899
  118OSM    HO312318   3.394   1.445  -0.074  1.4236  0.3922 -1.5511
  118OSM    C4S12319   3.462   1.294  -0.339  0.2111  0.2603 -1.1884
  118OSM    H4S12320   3.545   1.358  -0.372  0.5400 -0.6481 -2.1536
  118OSM    C5S12321   3.443   1.170  -0.375  0.3439 -0.2798 -0.1104
  118OSM    H5S12322   3.361   1.107  -0.337 -1.8474 -0.0447 -3.9869
  118OSM    C6S12323   3.525   1.087  -0.470  0.4969 -0.4771  0.0565
  118OSM    H6S12324   3.539   0.981  -0.441 -0.7791 -0.3585  1.2184
  118OSM    H6T12325   3.629   1.125  -0.474  0.1241  0.6302  0.3955
  118OSM    C7S12326   3.470   1.106  -0.612 -0.0121 -0.2053 -0.0498
  118OSM    H7S12327   3.502   1.207  -0.647  0.8616 -0.7593 -0.9122
  118OSM    H7T12328   3.360   1.096  -0.620 -0.3421  2.7690 -0.4091
  118OSM    C8S12329   3.532   1.001  -0.705  0.0454 -0.1547  0.2044
  118OSM    H8S12330   3.504   0.901  -0.666  0.0618 -0.3236 -0.2147
  118OSM    H8T12331   3.644   1.001  -0.705  0.0454 -0.4704 -0.3486
  118OSM    C9S12332   3.497   1.016  -0.856  0.3466  0.5626  0.3216
  118OSM    H9S12333   3.554   1.102  -0.896 -1.2550  1.2041 -0.7071
  118OSM    H9T12334   3.387   1.027  -0.871  0.3194 -0.7518 -0.5430
  118OSM   C10S12335   3.544   0.885  -0.927 -0.5833  0.3672  0.8034
  118OSM   H10S12336   3.463   0.809  -0.918 -1.5542  1.5215  2.2141
  118OSM   H10T12337   3.637   0.848  -0.877 -0.3239 -0.9054 -0.5618
  118OSM   C11S12338   3.570   0.907  -1.078 -0.2181  0.6117  0.3538
  118OSM   H11S12339   3.477   0.924  -1.137 -0.3842 -0.8973  0.1179
  118OSM   H11T12340   3.608   0.807  -1.108 -2.2521 -0.3977  0.9640
  118OSM   C12S12341   3.685   1.010  -1.115 -0.3575  0.2220  0.2989
  118OSM   H12S12342   3.779   0.984  -1.062 -0.8244 -0.6857  0.7059
  118OSM   H12T12343   3.650   1.109  -1.079  0.0915 -0.5951  3.2601
  118OSM   C13S12344   3.716   1.030  -1.273  0.0671  0.6278  0.1237
  118OSM   H13S12345   3.765   0.932  -1.292  0.2048  0.5045  1.0470
  118OSM   H13T12346   3.793   1.109  -1.282 -0.0435  0.7416  0.1705
  118OSM   C14S12347   3.587   1.042  -1.360 -0.2601  0.4053 -0.2034
  118OSM   H14S12348   3.514   1.116  -1.319 -0.7499  0.0096 -0.3482
  118OSM   H14T12349   3.536   0.943  -1.361  0.2522  0.1356 -1.7489
  118OSM   C15S12350   3.622   1.076  -1.502 -0.2368  0.5918 -0.8003
  118OSM   H15S12351   3.680   0.992  -1.545  1.0614  1.4061 -0.6724
  118OSM   H15T12352   3.689   1.164  -1.499 -0.9595  1.1429  0.9979
  118OSM   C16S12353   3.504   1.106  -1.587  0.1629 -0.4153 -0.3440
  118OSM   H16S12354   3.469   1.209  -1.562  1.6604  0.1902 -0.5919
  118OSM   H16T12355   3.421   1.034  -1.572 -0.4957  0.8221  2.5484
  118OSM   C17S12356   3.541   1.114  -1.737 -0.0554 -0.1617  0.4869
  118OSM   H17S12357   3.443   1.117  -1.790 -0.8603  0.0395  1.9123
  118OSM   H17T12358   3.590   1.017  -1.762 -1.0621 -1.1709  2.2441
  118OSM   C18S12359   3.644   1.219  -1.769 -0.2021 -0.1900 -0.2909
  118OSM   H18S12360   3.620   1.324  -1.741 -1.4507 -0.5731  0.1039
  118OSM   H18T12361   3.668   1.218  -1.878 -0.0657 -0.1226 -0.2621
  118OSM   H18U12362   3.740   1.201  -1.716 -0.0197 -1.9502 -1.1572
  118OSM    C1F12363   3.339   1.665  -0.485  0.6414  0.1215 -0.0917
  118OSM     OF12364   3.381   1.755  -0.411 -0.1026  0.6417  0.5120
  118OSM    C2F12365   3.288   1.696  -0.631 -0.4819 -0.3473 -0.1022
  118OSM    H2F12366   3.182   1.668  -0.646 -0.6447 -0.9776  1.9605
  118OSM    H2G12367   3.352   1.630  -0.694 -0.1876 -0.3548  0.2016
  118OSM    C3F12368   3.319   1.840  -0.673 -0.1566  0.0091 -0.1848
  118OSM    H3F12369   3.427   1.867  -0.664 -0.3397  0.7351 -0.1446
  118OSM    H3G12370   3.265   1.915  -0.612  1.7889  0.7520  0.7150
  118OSM    C4F12371   3.268   1.873  -0.814  0.2365 -0.2932  0.5599
  118OSM    H4F12372   3.257   1.983  -0.815 -2.1980 -0.4400  2.1679
  118OSM    H4G12373   3.163   1.835  -0.821  1.1000 -3.0348  1.2898
  118OSM    C5F12374   3.347   1.817  -0.927 -0.3428 -0.1060  0.0317
  118OSM    H5F12375   3.334   1.706  -0.925  1.2066 -0.3264 -0.6812
  118OSM    H5G12376   3.457   1.836  -0.925 -0.1193 -0.4389 -3.3044
  118OSM    C6F12377   3.293   1.867  -1.066  0.2417 -0.1847  0.0844
  118OSM    H6F12378   3.188   1.837  -1.085  0.2940  0.9626 -2.4217
  118OSM    H6G12379   3.344   1.826  -1.155  0.9683  1.0110 -0.0852
  118OSM    C7F12380   3.302   2.019  -1.075  0.3460 -0.6858  0.0024
  118OSM    H7F12381   3.399   2.057  -1.035 -0.0778  0.2786  0.1457
  118OSM    H7G12382   3.223   2.061  -1.008 -1.2318  0.1440 -2.2568
  118OSM    C8F12383   3.264   2.077  -1.219 -0.2484  0.0456 -0.8156
  118OSM    H8F12384   3.353   2.067  -1.285 -0.1708 -1.6988 -0.4881
  118OSM    H8G12385   3.244   2.185  -1.201 -3.1856 -0.6146  0.3948
  118OSM    C9F12386   3.144   2.016  -1.289  0.4783 -0.1299  0.2243
  118OSM    H9F12387   3.052   2.046  -1.236  2.0037  3.4891  1.1172
  118OSM   C10F12388   3.134   1.924  -1.390  0.3154  0.5089  0.2857
  118OSM   H10F12389   3.037   1.895  -1.432  1.1371 -1.1922 -0.5582
  118OSM   C11F12390   3.256   1.875  -1.465 -0.8782 -0.1383 -0.7066
  118OSM   H11F12391   3.292   1.781  -1.418 -2.2941 -0.6940 -0.6967
  118OSM   H11G12392   3.331   1.956  -1.453 -1.6633  0.6824 -1.2464
  118OSM   C12F12393   3.244   1.862  -1.615  0.1462  0.0583  0.1363
  118OSM   H12F12394   3.170   1.787  -1.650  1.1551 -0.1941 -1.5504
  118OSM   H12G12395   3.336   1.825  -1.665  1.0825  0.5555  1.4225
  118OSM   C13F12396   3.229   1.992  -1.691 -0.2119  0.1376 -0.1457
  118OSM   H13F12397   3.314   2.061  -1.676  0.8384 -0.8138 -1.5482
  118OSM   H13G12398   3.144   2.052  -1.653 -0.5024  0.0964 -0.7167
  118OSM   C14F12399   3.223   1.965  -1.840 -0.0324 -0.7746  0.0730
  118OSM   H14F12400   3.159   1.876  -1.855 -1.7785  0.6884 -1.7560
  118OSM   H14G12401   3.321   1.952  -1.890 -0.3328  0.7257 -0.9751
  118OSM   C15F12402   3.150   2.079  -1.917  0.3760 -0.6384 -0.1165
  118OSM   H15F12403   3.227   2.158  -1.932  1.5878 -1.8542 -0.4428
  118OSM   H15G12404   3.061   2.117  -1.862  0.1628  0.2961 -1.0712
  118OSM   C16F12405   3.105   2.029  -2.054  0.2550 -0.3404 -0.3032
  118OSM   H16F12406   3.036   2.097  -2.108 -0.5783 -1.0649 -0.1607
  118OSM   H16G12407   3.056   1.930  -2.038 -0.2139 -0.9624 -4.3152
  118OSM   C17F12408   3.215   2.007  -2.160 -0.8638  0.6863 -0.3542
  118OSM   H17F12409   3.299   1.944  -2.123 -3.8590 -2.0866  2.2948
  118OSM   H17G12410   3.263   2.105  -2.183 -0.2245  0.2030 -1.1146
  118OSM   C18F12411   3.177   1.931  -2.283  0.3399  0.1743  0.2117
  118OSM   H18F12412   3.097   1.978  -2.344  0.4246  0.0506  0.0057
  118OSM   H18G12413   3.143   1.826  -2.265  1.3387 -0.0866  0.6596
  118OSM   H18H12414   3.262   1.906  -2.349 -1.5845 -2.5040 -1.4560
  119OSM      N12415   4.905   6.297   0.172 -0.3329  0.0392  0.9737
  119OSM    C1512416   4.838   6.196   0.254  0.5815  0.3187  0.0611
  119OSM   H15A12417   4.810   6.114   0.189 -2.0613  1.2356 -0.0650
  119OSM   H15B12418   4.751   6.230   0.308  1.6348  0.7401  1.5679
  119OSM   H15C12419   4.906   6.155   0.327  1.2301  2.6090  0.8203
  119OSM    C1412420   4.805   6.385   0.112  0.5535 -0.0972  0.4977
  119OSM   H14A12421   4.753   6.333   0.033 -2.8089  2.3298  0.9043
  119OSM   H14B12422   4.853   6.465   0.057 -0.9982 -0.3524 -1.3316
  119OSM   H14C12423   4.725   6.417   0.177  1.8209  0.4802  1.8267
  119OSM    C1312424   4.990   6.370   0.267  0.2836  0.3595 -0.1827
  119OSM   H13A12425   5.053   6.296   0.313 -0.6298 -2.0074 -2.5180
  119OSM   H13B12426   4.946   6.436   0.341  1.1167 -0.2551  0.8833
  119OSM   H13C12427   5.054   6.431   0.205  1.0908  0.9054  1.1292
  119OSM    C1212428   5.007   6.235   0.078  0.4265 -0.3596 -0.2566
  119OSM   H12A12429   4.952   6.181   0.002 -0.3347  1.2213 -0.8620
  119OSM   H12B12430   5.068   6.160   0.126 -0.9491 -0.1226  2.0526
  119OSM    C1112431   5.105   6.335   0.016  0.4692 -1.0193  1.1612
  119OSM   H11A12432   5.047   6.428   0.001  0.7652 -0.5886  2.5520
  119OSM   H11B12433   5.139   6.290  -0.080  1.1412  2.8175 -0.6013
  119OSM      P12434   5.306   6.265   0.163 -0.3717 -0.1985  0.1043
  119OSM    O1312435   5.374   6.343   0.272  0.2249 -0.2543 -0.2835
  119OSM    O1412436   5.231   6.145   0.205 -0.9862  0.5147 -0.7064
  119OSM    O1112437   5.415   6.226   0.063  0.4483 -0.0673  0.3067
  119OSM    O1212438   5.215   6.371   0.097 -0.2191  0.0223 -0.7314
  119OSM    C1S12439   5.411   6.096  -0.008 -0.0051 -0.0487 -0.4634
  119OSM    H1S12440   5.312   6.085  -0.057  0.1766  0.7384 -1.0262
  119OSM    H1T12441   5.415   6.014   0.067 -2.6682 -0.6411 -0.8703
  119OSM     NF12442   5.506   5.956  -0.207  0.1994 -0.4866  0.5485
  119OSM    HNF12443   5.570   5.880  -0.197 -0.5394 -0.9295  2.4868
  119OSM    C2S12444   5.520   6.079  -0.124 -0.1932  0.7757 -0.4351
  119OSM    H2S12445   5.491   6.162  -0.191  0.6618  1.0940 -0.4210
  119OSM    C3S12446   5.658   6.104  -0.066  0.2050  0.2011 -0.2934
  119OSM    H3S12447   5.669   6.031   0.017 -2.1529  1.1210  0.9048
  119OSM     O312448   5.667   6.234  -0.001 -0.0157 -0.2766  0.0598
  119OSM    HO312449   5.576   6.262  -0.014  0.4727  1.1091 -0.4936
  119OSM    C4S12450   5.767   6.094  -0.169 -0.1269 -0.7266 -0.0027
  119OSM    H4S12451   5.755   6.160  -0.257  1.5259  0.2863  0.4813
  119OSM    C5S12452   5.881   6.025  -0.175 -0.0172 -0.5150 -0.3029
  119OSM    H5S12453   5.915   5.961  -0.093  1.2652  0.5980  0.0721
  119OSM    C6S12454   5.980   6.050  -0.286 -0.6774 -0.1855 -0.2156
  119OSM    H6S12455   6.086   6.037  -0.256  0.0836  1.3980 -2.0121
  119OSM    H6T12456   5.979   6.158  -0.314  0.8097 -0.0937  0.0039
  119OSM    C7S12457   5.964   5.972  -0.417  0.5368  1.0106  0.5293
  119OSM    H7S12458   5.974   5.862  -0.404 -0.5665  0.4118 -2.7273
  119OSM    H7T12459   6.035   6.019  -0.488  1.5302  1.6896  1.9318
  119OSM    C8S12460   5.824   5.989  -0.476  0.2934  0.1720  0.5537
  119OSM    H8S12461   5.804   6.098  -0.485  0.7022  0.2776  0.9163
  119OSM    H8T12462   5.747   5.946  -0.409 -0.6027 -1.5822 -1.4801
  119OSM    C9S12463   5.813   5.921  -0.613 -0.0655  0.4476  0.6273
  119OSM    H9S12464   5.821   5.812  -0.595  0.6274  0.4447  0.3515
  119OSM    H9T12465   5.893   5.960  -0.680  0.0683 -2.6132 -1.1887
  119OSM   C10S12466   5.685   5.954  -0.683  0.1699  0.5987 -0.2074
  119OSM   H10S12467   5.682   6.064  -0.699  0.1836  0.5715 -0.4027
  119OSM   H10T12468   5.598   5.947  -0.615  0.2866  0.2215 -0.0931
  119OSM   C11S12469   5.661   5.890  -0.822 -0.8281  0.3702  0.0850
  119OSM   H11S12470   5.632   5.785  -0.798  1.0239 -0.1821  0.0605
  119OSM   H11T12471   5.761   5.888  -0.869 -1.2984  1.9591 -1.0575
  119OSM   C12S12472   5.558   5.957  -0.907  0.2236 -0.3445 -0.2627
  119OSM   H12S12473   5.548   6.067  -0.922  0.5726  0.2013  2.8367
  119OSM   H12T12474   5.457   5.929  -0.870 -0.2080  1.9733  0.4583
  119OSM   C13S12475   5.545   5.893  -1.052 -0.4646 -0.4754 -0.0169
  119OSM   H13S12476   5.569   5.786  -1.037  1.2456 -0.0282  0.6704
  119OSM   H13T12477   5.617   5.938  -1.124 -0.7583 -1.6459 -1.0750
  119OSM   C14S12478   5.399   5.905  -1.119 -0.3618  0.6473 -0.6605
  119OSM   H14S12479   5.382   6.013  -1.141 -1.2497  0.9581  1.3373
  119OSM   H14T12480   5.331   5.869  -1.040  0.6347  0.5925  0.1969
  119OSM   C15S12481   5.394   5.821  -1.250 -0.0912  0.2030  0.1103
  119OSM   H15S12482   5.414   5.716  -1.219 -4.2240 -0.5393  0.8251
  119OSM   H15T12483   5.468   5.857  -1.325  0.6333 -0.7478  0.3505
  119OSM   C16S12484   5.248   5.816  -1.294 -0.2184  0.0652 -0.3254
  119OSM   H16S12485   5.186   5.807  -1.202 -0.1025  1.5982 -0.0563
  119OSM   H16T12486   5.237   5.726  -1.358  2.2033  0.6048 -1.6297
  119OSM   C17S12487   5.221   5.945  -1.370  0.6893  0.3936 -0.2722
  119OSM   H17S12488   5.285   5.958  -1.460 -0.8673  0.9168 -1.3491
  119OSM   H17T12489   5.250   6.029  -1.302 -0.5371 -2.2554  3.9172
  119OSM   C18S12490   5.074   5.954  -1.413 -0.4979  0.2539 -0.2580
  119OSM   H18S12491   5.051   6.052  -1.460 -1.5250 -0.0920 -0.4936
  119OSM   H18T12492   5.019   5.960  -1.317  1.4141  0.7680  0.8616
  119OSM   H18U12493   5.040   5.865  -1.470  1.6069 -0.1385 -1.0130
  119OSM    C1F12494   5.390   5.929  -0.271 -0.2450 -0.3048  0.1032
  119OSM     OF12495   5.309   6.009  -0.295  0.0777  0.5741 -0.1450
  119OSM    C2F12496   5.389   5.793  -0.331  0.1082 -0.3169 -0.4442
  119OSM    H2F12497   5.360   5.714  -0.260  0.9507 -2.2354 -2.1323
  119OSM    H2G12498   5.493   5.765  -0.359  1.0104 -0.7460  2.9232
  119OSM    C3F12499   5.305   5.788  -0.456  0.1139  0.8105 -0.0396
  119OSM    H3F12500   5.322   5.879  -0.517 -1.0663  0.7824 -0.4359
  119OSM    H3G12501   5.197   5.784  -0.431  0.2952  0.0465  0.6551
  119OSM    C4F12502   5.347   5.676  -0.550 -0.2771  0.0306  0.7840
  119OSM    H4F12503   5.314   5.573  -0.521 -0.5277 -0.1406 -0.0823
  119OSM    H4G12504   5.458   5.679  -0.558 -0.3959  0.9855 -0.7521
  119OSM    C5F12505   5.302   5.705  -0.694  0.0686 -0.3342  0.1545
  119OSM    H5F12506   5.343   5.632  -0.768  0.2075 -1.3193  1.1756
  119OSM    H5G12507   5.355   5.799  -0.723 -1.1587  0.6271  0.9532
  119OSM    C6F12508   5.154   5.718  -0.713  0.5331  0.6952 -0.8739
  119OSM    H6F12509   5.114   5.803  -0.654  2.3641  1.2817 -0.4130
  119OSM    H6G12510   5.104   5.625  -0.677  0.6446  0.2239 -1.8907
  119OSM    C7F12511   5.111   5.731  -0.860  0.3707 -0.0130 -0.0247
  119OSM    H7F12512   5.133   5.632  -0.904 -2.0999 -0.8121  0.3952
  119OSM    H7G12513   5.160   5.814  -0.916  1.1991 -0.6666 -0.2868
  119OSM    C8F12514   4.961   5.755  -0.872  0.1116  0.4128  0.2973
  119OSM    H8F12515   4.929   5.667  -0.812  2.3592 -1.9083 -1.6573
  119OSM    H8G12516   4.920   5.738  -0.974 -1.1641 -0.8025  0.9717
  119OSM    C9F12517   4.884   5.864  -0.805  0.2203  0.3643 -0.0739
  119OSM    H9F12518   4.858   5.852  -0.699 -2.1242 -0.9163 -0.7242
  119OSM   C10F12519   4.848   5.982  -0.869  0.0045  0.8490  0.2899
  119OSM   H10F12520   4.783   6.049  -0.811  0.9419  0.1691  2.2013
  119OSM   C11F12521   4.858   6.017  -1.013  0.2774 -0.0177  0.0801
  119OSM   H11F12522   4.885   5.926  -1.070  1.9672  0.4390  0.0912
  119OSM   H11G12523   4.931   6.098  -1.036  0.9605 -0.6830 -0.1242
  119OSM   C12F12524   4.719   6.061  -1.079 -0.0091 -0.0857  0.6796
  119OSM   H12F12525   4.662   6.127  -1.011  0.2397  1.3249 -0.4244
  119OSM   H12G12526   4.654   5.972  -1.084  0.5864 -0.5580  1.2022
  119OSM   C13F12527   4.734   6.119  -1.222 -0.7131  0.4081 -0.5764
  119OSM   H13F12528   4.809   6.063  -1.281  0.0109  2.1265 -1.3467
  119OSM   H13G12529   4.773   6.222  -1.216  1.6790 -0.4773 -0.0232
  119OSM   C14F12530   4.591   6.114  -1.298 -0.2821  0.4076 -0.0366
  119OSM   H14F12531   4.520   6.169  -1.232  0.1200  2.0484 -0.9175
  119OSM   H14G12532   4.560   6.008  -1.291  1.3004  0.0165  3.6488
  119OSM   C15F12533   4.597   6.158  -1.446 -0.2548  0.1104  0.0929
  119OSM   H15F12534   4.669   6.102  -1.509  1.3193  0.8401  1.1695
  119OSM   H15G12535   4.643   6.259  -1.450 -0.7765  0.3703  0.5743
  119OSM   C16F12536   4.455   6.167  -1.519 -0.9196  0.5004  0.4558
  119OSM   H16F12537   4.376   6.199  -1.448 -2.6029  0.1241 -1.1853
  119OSM   H16G12538   4.444   6.063  -1.554  0.1763  0.6102 -0.2701
  119OSM   C17F12539   4.452   6.258  -1.646  0.3711 -0.2931 -0.0648
  119OSM   H17F12540   4.471   6.363  -1.615 -2.1994  0.0767  0.5465
  119OSM   H17G12541   4.347   6.255  -1.683 -0.9231  0.1032  3.2857
  119OSM   C18F12542   4.552   6.221  -1.753  0.0760  0.1761 -0.0822
  119OSM   H18F12543   4.557   6.295  -1.836  0.3492 -0.8655 -1.0242
  119OSM   H18G12544   4.521   6.120  -1.788  3.0815 -0.8054 -0.2216
  119OSM   H18H12545   4.648   6.206  -1.698 -0.5015  0.8924  1.1606
  120OSM      N12546   2.596   4.032   0.065 -0.9025 -0.0055  0.3434
  120OSM    C1512547   2.625   4.070  -0.074  0.0248 -0.1268 -0.2303
  120OSM   H15A12548   2.539   4.067  -0.140 -0.7484  0.5936  0.7111
  120OSM   H15B12549   2.700   4.002  -0.110  0.4554  0.8522 -1.2176
  120OSM   H15C12550   2.665   4.170  -0.067  2.3856 -1.0050 -0.4277
  120OSM    C1412551   2.720   4.063   0.146 -0.1322  0.1344  0.7239
  120OSM   H14A12552   2.804   4.022   0.092  0.0089  0.1136  0.9610
  120OSM   H14B12553   2.707   4.013   0.240 -1.1733 -1.2112 -0.0993
  120OSM   H14C12554   2.729   4.171   0.155 -1.1137  0.4290 -1.2703
  120OSM    C1312555   2.479   4.106   0.119 -0.4046 -0.4923 -0.1685
  120OSM   H13A12556   2.507   4.210   0.125  2.9260 -1.1747 -1.7662
  120OSM   H13B12557   2.459   4.070   0.219 -2.6675 -2.3120 -1.1519
  120OSM   H13C12558   2.390   4.096   0.058 -0.7530 -2.0914  0.5211
  120OSM    C1212559   2.582   3.877   0.076 -0.4100 -0.0377  0.0751
  120OSM   H12A12560   2.479   3.853   0.057 -0.1422 -0.1184 -1.4329
  120OSM   H12B12561   2.597   3.853   0.180 -0.3066  1.4322  0.4177
  120OSM    C1112562   2.678   3.793  -0.019  0.5257  0.2892  0.6945
  120OSM   H11A12563   2.639   3.787  -0.123 -1.7751  1.6183  1.4097
  120OSM   H11B12564   2.667   3.688   0.016 -0.0964 -0.0479 -0.4588
  120OSM      P12565   2.914   3.764   0.078 -0.2404 -0.0512  0.0665
  120OSM    O1312566   2.996   3.870   0.133  0.0493 -0.0087 -0.5540
  120OSM    O1412567   2.856   3.664   0.173  0.4362  0.2848 -0.3847
  120OSM    O1112568   3.012   3.687  -0.023  0.4914  0.4805 -0.5361
  120OSM    O1212569   2.809   3.833  -0.021  0.0838 -0.1218  0.2175
  120OSM    C1S12570   2.964   3.594  -0.125 -0.0011 -0.1117 -1.4079
  120OSM    H1S12571   2.918   3.651  -0.209 -0.9947 -1.9115 -2.1429
  120OSM    H1T12572   2.881   3.532  -0.085  0.3577 -1.4581 -2.6545
  120OSM     NF12573   3.020   3.418  -0.282  0.7726 -0.0703 -0.0138
  120OSM    HNF12574   2.989   3.324  -0.272 -0.2425  0.0988 -1.2944
  120OSM    C2S12575   3.071   3.495  -0.169 -0.0167  0.0089 -0.0370
  120OSM    H2S12576   3.160   3.546  -0.211  0.1674 -0.4377 -0.1972
  120OSM    C3S12577   3.124   3.406  -0.051  0.7178 -0.0199 -0.1129
  120OSM    H3S12578   3.031   3.365  -0.009 -0.9672  1.2313 -2.3766
  120OSM     O312579   3.171   3.481   0.060  0.4818  0.1495  0.0452
  120OSM    HO312580   3.154   3.574   0.045  2.0226  1.0277  2.9044
  120OSM    C4S12581   3.227   3.303  -0.100  0.2505 -0.3271  0.2255
  120OSM    H4S12582   3.168   3.214  -0.126 -0.6226  0.1184  0.6547
  120OSM    C5S12583   3.357   3.309  -0.114 -0.4162 -0.7604  0.4829
  120OSM    H5S12584   3.400   3.410  -0.107 -1.2206 -0.4968  2.3118
  120OSM    C6S12585   3.440   3.199  -0.176  0.4299 -0.4708  0.0976
  120OSM    H6S12586   3.474   3.137  -0.090  0.2931  2.0769  2.0863
  120OSM    H6T12587   3.534   3.247  -0.213  1.2598  0.3179  3.0010
  120OSM    C7S12588   3.371   3.113  -0.285 -0.3824  0.0250 -0.7913
  120OSM    H7S12589   3.273   3.078  -0.245 -0.2634  1.0318  0.4474
  120OSM    H7T12590   3.445   3.036  -0.316  0.0666  0.5628 -1.0658
  120OSM    C8S12591   3.326   3.191  -0.407  0.1912 -0.4870 -0.0707
  120OSM    H8S12592   3.363   3.296  -0.398 -0.0365 -0.5032  1.2860
  120OSM    H8T12593   3.216   3.206  -0.406 -0.0181 -1.8244 -0.6670
  120OSM    C9S12594   3.359   3.122  -0.539  0.1661 -0.3330 -0.4372
  120OSM    H9S12595   3.300   3.027  -0.538 -1.5040  0.6687 -0.2398
  120OSM    H9T12596   3.466   3.095  -0.549  0.2537 -0.3985  0.5835
  120OSM   C10S12597   3.315   3.205  -0.664  0.1514  0.3771  0.0636
  120OSM   H10S12598   3.352   3.309  -0.653  0.2460  0.3614 -0.0991
  120OSM   H10T12599   3.206   3.223  -0.671  0.4603  1.9467 -1.3775
  120OSM   C11S12600   3.363   3.131  -0.787 -0.3057 -0.4495  0.6586
  120OSM   H11S12601   3.313   3.033  -0.798 -0.3638 -0.2227 -1.6144
  120OSM   H11T12602   3.473   3.115  -0.783 -0.2046  0.2379  0.8433
  120OSM   C12S12603   3.327   3.210  -0.911 -0.3238  0.2502  0.4442
  120OSM   H12S12604   3.388   3.303  -0.905  0.5666 -0.0977 -1.9873
  120OSM   H12T12605   3.218   3.226  -0.897 -1.0233 -1.2624 -2.3472
  120OSM   C13S12606   3.362   3.149  -1.046  0.6237 -0.2536 -0.3734
  120OSM   H13S12607   3.336   3.041  -1.050  5.8450 -1.7714 -2.9746
  120OSM   H13T12608   3.472   3.141  -1.057  0.6222  0.1004 -0.6380
  120OSM   C14S12609   3.294   3.229  -1.151 -0.0210 -1.3345  0.4208
  120OSM   H14S12610   3.191   3.265  -1.129 -0.7648 -2.5689 -0.8445
  120OSM   H14T12611   3.292   3.165  -1.242 -0.2123 -0.1014 -0.4812
  120OSM   C15S12612   3.376   3.357  -1.193  0.4503  0.4623 -0.5798
  120OSM   H15S12613   3.479   3.322  -1.217  0.4748 -1.2711  1.6888
  120OSM   H15T12614   3.383   3.426  -1.106  3.1022  1.2700 -1.3328
  120OSM   C16S12615   3.323   3.442  -1.317 -0.7506  0.3479 -0.0733
  120OSM   H16S12616   3.231   3.488  -1.275 -2.2286 -1.1220 -1.5627
  120OSM   H16T12617   3.294   3.375  -1.400  1.1259  0.6601 -1.0355
  120OSM   C17S12618   3.434   3.537  -1.370 -0.0066  0.2664 -0.1374
  120OSM   H17S12619   3.527   3.476  -1.371 -0.1370  0.0609  0.1966
  120OSM   H17T12620   3.447   3.606  -1.284 -0.0882 -1.1819  1.0796
  120OSM   C18S12621   3.396   3.613  -1.495  0.5559  0.3819 -0.4555
  120OSM   H18S12622   3.299   3.664  -1.478  0.2978 -0.3553  0.3092
  120OSM   H18T12623   3.373   3.552  -1.585 -4.0276  2.7832 -1.2204
  120OSM   H18U12624   3.473   3.692  -1.513  2.1384 -0.7455  1.0932
  120OSM    C1F12625   2.994   3.463  -0.402  0.0180 -0.4849 -0.0534
  120OSM     OF12626   3.021   3.582  -0.431  0.0539 -0.0495 -0.3180
  120OSM    C2F12627   2.946   3.364  -0.504 -0.4305 -0.2313  0.5925
  120OSM    H2F12628   2.836   3.363  -0.489 -0.2191 -1.6106  2.3955
  120OSM    H2G12629   2.998   3.267  -0.488  1.0095  0.7988  2.5594
  120OSM    C3F12630   2.962   3.419  -0.651  0.3837  0.2685 -0.1662
  120OSM    H3F12631   3.071   3.439  -0.662  0.0913  2.0307  0.0080
  120OSM    H3G12632   2.908   3.515  -0.658 -0.3811 -0.1757 -0.3976
  120OSM    C4F12633   2.910   3.324  -0.752 -0.4146  0.6438  0.2765
  120OSM    H4F12634   2.806   3.288  -0.737  0.3948 -1.8123  0.4363
  120OSM    H4G12635   2.978   3.237  -0.753  0.6333  1.4078  1.6776
  120OSM    C5F12636   2.910   3.390  -0.885  0.1572  0.6371 -0.0804
  120OSM    H5F12637   3.014   3.413  -0.916 -0.3148 -0.0838 -2.3924
  120OSM    H5G12638   2.845   3.480  -0.887 -0.7425  0.0622  1.3487
  120OSM    C6F12639   2.862   3.296  -1.001 -0.4836 -0.1270  0.3389
  120OSM    H6F12640   2.754   3.279  -0.979 -1.0021 -0.3455 -2.0593
  120OSM    H6G12641   2.916   3.199  -0.996  0.7924  0.5866  0.9579
  120OSM    C7F12642   2.867   3.367  -1.134 -0.0767 -0.3287 -0.1069
  120OSM    H7F12643   2.969   3.403  -1.160 -0.2414  1.2509  1.2397
  120OSM    H7G12644   2.823   3.468  -1.117  3.7295  1.6698 -0.8829
  120OSM    C8F12645   2.780   3.306  -1.251 -0.8148  0.4028  0.8102
  120OSM    H8F12646   2.768   3.380  -1.333  1.9365  0.0196 -0.0284
  120OSM    H8G12647   2.675   3.290  -1.218 -1.8770  1.2919 -1.9008
  120OSM    C9F12648   2.847   3.185  -1.314  0.8877 -0.1113  0.8265
  120OSM    H9F12649   2.866   3.101  -1.245 -1.3424 -0.5571  0.9620
  120OSM   C10F12650   2.890   3.169  -1.442 -0.2093  0.3960  0.3167
  120OSM   H10F12651   2.944   3.076  -1.467 -1.1013 -0.1422  0.3372
  120OSM   C11F12652   2.874   3.268  -1.560  0.3163  0.1905  0.9510
  120OSM   H11F12653   2.814   3.354  -1.524  0.4494  1.1996 -1.0954
  120OSM   H11G12654   2.814   3.223  -1.642  1.2055  0.0806  0.3425
  120OSM   C12F12655   3.007   3.319  -1.614 -0.6409 -0.4795 -0.4031
  120OSM   H12F12656   3.066   3.336  -1.522  0.1862  2.5585 -1.3683
  120OSM   H12G12657   2.993   3.420  -1.660  0.1905 -0.5442 -0.8100
  120OSM   C13F12658   3.080   3.226  -1.713 -0.4639 -0.0607  0.2037
  120OSM   H13F12659   3.034   3.203  -1.811  1.2124  1.8326 -1.0982
  120OSM   H13G12660   3.103   3.129  -1.662  3.7916  0.4591 -0.4270
  120OSM   C14F12661   3.213   3.287  -1.752  0.1951  0.2944  0.2032
  120OSM   H14F12662   3.281   3.213  -1.800 -0.6946 -0.5391  0.1846
  120OSM   H14G12663   3.272   3.307  -1.660 -0.3438  2.7159  0.0864
  120OSM   C15F12664   3.204   3.406  -1.844 -0.5295 -0.4526  0.1736
  120OSM   H15F12665   3.175   3.496  -1.786  1.2555  0.9566 -1.0283
  120OSM   H15G12666   3.122   3.394  -1.919  0.7667 -0.1501 -1.3525
  120OSM   C16F12667   3.333   3.426  -1.923 -0.2467 -0.6481  0.1704
  120OSM   H16F12668   3.351   3.334  -1.983  1.0374 -1.1255  1.2566
  120OSM   H16G12669   3.419   3.437  -1.855  0.8565 -2.1509 -0.9090
  120OSM   C17F12670   3.340   3.555  -2.005  0.6968 -0.4149  0.8471
  120OSM   H17F12671   3.443   3.555  -2.047  1.3592 -0.2789  2.4161
  120OSM   H17G12672   3.352   3.650  -1.949  2.5115  0.6352 -1.1577
  120OSM   C18F12673   3.238   3.565  -2.108  0.7964  0.5463 -0.0595
  120OSM   H18F12674   3.237   3.651  -2.179  0.0680  1.0447  0.5403
  120OSM   H18G12675   3.137   3.581  -2.064  1.0012  2.0823 -0.0808
  120OSM   H18H12676   3.222   3.478  -2.175 -0.8701  0.8959 -0.1594
  121OSM      N12677   1.403   0.152   0.420 -0.1694  0.1256  0.5397
  121OSM    C1512678   1.510   0.244   0.468  0.1505 -0.2251 -0.2557
  121OSM   H15A12679   1.573   0.280   0.388 -0.3750  1.2823 -0.0223
  121OSM   H15B12680   1.583   0.213   0.542  1.1434 -0.4616 -1.3099
  121OSM   H15C12681   1.461   0.336   0.498 -0.4701 -0.2755 -1.0818
  121OSM    C1412682   1.330   0.090   0.537  0.4463 -0.2335 -0.0103
  121OSM   H14A12683   1.242   0.040   0.498  1.5877 -0.4881 -2.4479
  121OSM   H14B12684   1.307   0.172   0.603  0.2390  1.0018 -1.5588
  121OSM   H14C12685   1.396   0.025   0.593 -0.4631 -2.7264 -1.6081
  121OSM    C1312686   1.304   0.241   0.349 -0.0245  0.5963  0.0913
  121OSM   H13A12687   1.354   0.284   0.264  3.1322 -1.7699  0.5799
  121OSM   H13B12688   1.254   0.313   0.412 -2.7627 -0.1186 -1.0881
  121OSM   H13C12689   1.220   0.182   0.313 -0.7336  0.7330  1.4477
  121OSM    C1212690   1.456   0.050   0.318  0.4703  1.3486 -0.3555
  121OSM   H12A12691   1.523  -0.027   0.353 -1.8411 -0.1287  1.0968
  121OSM   H12B12692   1.515   0.099   0.241  0.0316  3.8519  0.8009
  121OSM    C1112693   1.344  -0.021   0.237  0.3649 -0.5467 -0.0626
  121OSM   H11A12694   1.376  -0.095   0.161 -1.2641 -2.0212  0.6109
  121OSM   H11B12695   1.314   0.055   0.162  1.9439  0.7281  0.5485
  121OSM      P12696   1.190  -0.211   0.338  0.0439 -0.4423  0.1745
  121OSM    O1312697   1.295  -0.290   0.406 -0.1184 -0.5431 -0.4025
  121OSM    O1412698   1.063  -0.218   0.404  0.3049  0.4110 -0.6562
  121OSM    O1112699   1.177  -0.270   0.193  0.7930 -0.2939  0.8624
  121OSM    O1212700   1.232  -0.058   0.314 -0.0752 -0.3795  0.7328
  121OSM    C1S12701   1.085  -0.208   0.108  0.4728 -0.2176  0.9101
  121OSM    H1S12702   1.117  -0.104   0.088  1.5638 -0.4867  1.1865
  121OSM    H1T12703   0.980  -0.212   0.143 -0.4220  2.3965 -1.1483
  121OSM     NF12704   1.001  -0.224  -0.135  0.0257 -0.1822  0.0144
  121OSM    HNF12705   0.907  -0.257  -0.139 -0.0671  0.2417 -2.6313
  121OSM    C2S12706   1.079  -0.286  -0.031 -0.1250  0.0018  0.1068
  121OSM    H2S12707   1.179  -0.279  -0.078 -1.5433 -0.6803 -3.2561
  121OSM    C3S12708   1.055  -0.436  -0.007 -0.1289  0.0533 -0.4349
  121OSM    H3S12709   0.969  -0.442   0.064  0.7306  2.2617  0.8862
  121OSM     O312710   1.161  -0.509   0.059  0.0905  0.4813 -0.1938
  121OSM    HO312711   1.185  -0.446   0.128 -0.5801  0.4967  0.0313
  121OSM    C4S12712   1.025  -0.501  -0.139  0.2217  0.4907 -0.3158
  121OSM    H4S12713   1.122  -0.521  -0.187  0.0907 -1.6340  0.2139
  121OSM    C5S12714   0.906  -0.557  -0.180 -0.3151  0.3450  0.4080
  121OSM    H5S12715   0.819  -0.573  -0.115 -2.6361  1.2191 -2.2980
  121OSM    C6S12716   0.883  -0.622  -0.313  0.0261  0.7233  0.5092
  121OSM    H6S12717   0.790  -0.580  -0.358 -0.5224 -0.6111  0.3746
  121OSM    H6T12718   0.870  -0.732  -0.304  2.0066  0.1686 -2.1179
  121OSM    C7S12719   0.985  -0.598  -0.430  0.6802  0.1182  0.4639
  121OSM    H7S12720   1.080  -0.647  -0.400  0.7248  0.6275  1.1900
  121OSM    H7T12721   0.995  -0.491  -0.458 -1.4161 -0.1130 -1.4920
  121OSM    C8S12722   0.933  -0.671  -0.558 -0.0497 -0.4844  0.1288
  121OSM    H8S12723   0.833  -0.638  -0.591  0.2229  1.5223  1.1380
  121OSM    H8T12724   0.920  -0.776  -0.526  1.7440  0.2731  4.0075
  121OSM    C9S12725   1.043  -0.665  -0.660 -0.3068 -0.2875  0.1259
  121OSM    H9S12726   1.126  -0.730  -0.626  0.9530  0.8468 -0.6713
  121OSM    H9T12727   1.086  -0.563  -0.675  0.3825 -0.8584 -2.3596
  121OSM   C10S12728   0.997  -0.705  -0.797  0.1362 -0.9041  0.4345
  121OSM   H10S12729   0.964  -0.811  -0.798 -0.4615 -0.7215 -0.7326
  121OSM   H10T12730   1.081  -0.692  -0.870 -0.6503 -0.9652 -0.5081
  121OSM   C11S12731   0.874  -0.628  -0.859 -0.1074  0.2541 -0.1220
  121OSM   H11S12732   0.784  -0.658  -0.801  0.4394 -0.6575  0.2770
  121OSM   H11T12733   0.863  -0.663  -0.964 -2.3212 -1.9223  0.7288
  121OSM   C12S12734   0.882  -0.477  -0.865  0.1552  0.3046 -0.4596
  121OSM   H12S12735   0.880  -0.436  -0.761  0.4725  1.0198 -0.7244
  121OSM   H12T12736   0.802  -0.433  -0.928 -0.9144  0.4954  0.9835
  121OSM   C13S12737   1.013  -0.422  -0.929  1.0051  0.2313 -0.4990
  121OSM   H13S12738   1.102  -0.460  -0.874  0.2365  1.0056  1.3829
  121OSM   H13T12739   1.023  -0.313  -0.915  0.3431  0.2574 -0.1725
  121OSM   C14S12740   1.027  -0.457  -1.083 -0.2072  0.5452  0.4105
  121OSM   H14S12741   1.016  -0.566  -1.106  1.2056  0.1797  1.3538
  121OSM   H14T12742   1.134  -0.440  -1.108  0.0557 -1.5677 -0.1650
  121OSM   C15S12743   0.928  -0.389  -1.180 -0.0150  0.0194 -0.3403
  121OSM   H15S12744   0.951  -0.280  -1.186 -0.3240  0.1093  0.0722
  121OSM   H15T12745   0.822  -0.408  -1.152 -0.4685  2.5801 -0.0181
  121OSM   C16S12746   0.950  -0.442  -1.322 -0.1558 -0.3611 -0.3304
  121OSM   H16S12747   0.948  -0.551  -1.340 -1.7301 -0.3301 -0.4779
  121OSM   H16T12748   1.036  -0.385  -1.365 -2.7769  2.1007 -2.7379
  121OSM   C17S12749   0.838  -0.393  -1.418 -0.6209 -0.6284 -0.6934
  121OSM   H17S12750   0.824  -0.283  -1.411  2.3080 -0.1654 -0.9294
  121OSM   H17T12751   0.744  -0.449  -1.400  0.4577 -2.2347  0.2524
  121OSM   C18S12752   0.868  -0.433  -1.557 -0.7176  0.2060  0.0398
  121OSM   H18S12753   0.789  -0.399  -1.627 -0.2474 -1.6859 -1.4796
  121OSM   H18T12754   0.895  -0.539  -1.576 -0.5470  0.5546 -1.8721
  121OSM   H18U12755   0.950  -0.365  -1.590 -2.3350  1.3104 -1.9558
  121OSM    C1F12756   1.032  -0.097  -0.169  0.3977 -0.2551 -0.5596
  121OSM     OF12757   1.143  -0.055  -0.161 -0.7851  0.2389  0.5066
  121OSM    C2F12758   0.916  -0.006  -0.208 -0.3895  0.1183  0.0526
  121OSM    H2F12759   0.914   0.083  -0.142 -2.6086  0.2352 -0.1024
  121OSM    H2G12760   0.820  -0.060  -0.194  0.2879 -1.0908  0.2774
  121OSM    C3F12761   0.935   0.038  -0.351 -0.4413  0.3935  0.0120
  121OSM    H3F12762   1.022   0.107  -0.355  0.9253 -1.1903  1.0252
  121OSM    H3G12763   0.849   0.095  -0.393 -1.7855 -0.0870  1.9678
  121OSM    C4F12764   0.972  -0.071  -0.453  0.6334  0.5317 -0.4342
  121OSM    H4F12765   0.884  -0.138  -0.446  0.1472  1.0924 -1.0098
  121OSM    H4G12766   1.063  -0.124  -0.417 -0.5276 -1.0550  0.2703
  121OSM    C5F12767   0.971  -0.007  -0.590  0.5266 -0.8067  0.3654
  121OSM    H5F12768   1.051   0.070  -0.595 -1.5360  1.4109 -0.7193
  121OSM    H5G12769   0.874   0.047  -0.599  1.0233 -0.1490 -1.6760
  121OSM    C6F12770   0.997  -0.098  -0.710 -0.1138 -0.6555  0.2284
  121OSM    H6F12771   0.931  -0.188  -0.708 -0.5160 -0.4491 -1.4911
  121OSM    H6G12772   1.102  -0.132  -0.712  0.5275  0.5399  4.4085
  121OSM    C7F12773   0.958  -0.031  -0.845 -0.3757  0.0938 -0.4281
  121OSM    H7F12774   0.855   0.010  -0.849 -0.0394  1.0845  0.4909
  121OSM    H7G12775   0.977  -0.110  -0.921  3.0394  1.6213 -1.3643
  121OSM    C8F12776   1.048   0.095  -0.881 -0.0100 -0.0481  0.4765
  121OSM    H8F12777   1.027   0.167  -0.800 -0.3947  0.2687  0.0999
  121OSM    H8G12778   1.010   0.134  -0.978  1.0422  2.6884  1.0560
  121OSM    C9F12779   1.201   0.076  -0.897  0.9821 -0.8142 -0.4054
  121OSM    H9F12780   1.247   0.055  -0.800 -0.4343  0.5632  0.6271
  121OSM   C10F12781   1.275   0.061  -1.003 -0.3248 -0.5067  0.4033
  121OSM   H10F12782   1.382   0.040  -0.986  0.1407  2.1792  1.2685
  121OSM   C11F12783   1.226   0.077  -1.147  0.0027  0.2907  0.3386
  121OSM   H11F12784   1.306   0.076  -1.224 -1.0846 -0.9380 -0.8406
  121OSM   H11G12785   1.176   0.176  -1.152  1.1550  0.8583 -0.3612
  121OSM   C12F12786   1.139  -0.038  -1.185  0.1631  0.2437  0.7826
  121OSM   H12F12787   1.045  -0.042  -1.126 -2.0928  1.1085 -2.5020
  121OSM   H12G12788   1.189  -0.133  -1.157  1.3388  0.6288  0.0411
  121OSM   C13F12789   1.119  -0.055  -1.335  0.1118 -0.0755  0.2801
  121OSM   H13F12790   1.059  -0.148  -1.350 -0.3843  0.3072 -0.1620
  121OSM   H13G12791   1.214  -0.072  -1.389 -0.4475 -2.5069 -0.0725
  121OSM   C14F12792   1.044   0.067  -1.397  0.4629 -0.3059  1.0059
  121OSM   H14F12793   1.023   0.036  -1.502  0.3633 -1.7082  1.4219
  121OSM   H14G12794   1.106   0.160  -1.401 -3.4372  2.5024 -1.3715
  121OSM   C15F12795   0.917   0.113  -1.318  0.1208 -0.1439  0.0948
  121OSM   H15F12796   0.942   0.149  -1.216  0.1232 -0.1522  0.0975
  121OSM   H15G12797   0.855   0.022  -1.301 -0.1758  0.2146  1.0031
  121OSM   C16F12798   0.844   0.223  -1.392  0.2827  0.0946  0.3451
  121OSM   H16F12799   0.839   0.171  -1.490  0.0096 -0.3454  0.5896
  121OSM   H16G12800   0.902   0.318  -1.396  2.3075 -1.1140 -1.9771
  121OSM   C17F12801   0.696   0.245  -1.353 -0.0739 -0.4708 -0.2149
  121OSM   H17F12802   0.695   0.204  -1.250 -0.6574 -1.7585 -0.7150
  121OSM   H17G12803   0.632   0.177  -1.414 -0.7758  0.7472 -0.8644
  121OSM   C18F12804   0.659   0.396  -1.347  0.2408  0.5331  0.2693
  121OSM   H18F12805   0.741   0.447  -1.292  1.6115 -1.2812 -0.0034
  121OSM   H18G12806   0.562   0.407  -1.294  1.4593 -0.3904  2.8236
  121OSM   H18H12807   0.664   0.433  -1.452 -0.0577  1.8691  0.7141
  122OSM      N12808   2.886   2.417   0.133  0.5194 -0.3472  0.2164
  122OSM    C1512809   2.822   2.473   0.006  0.3372  0.2774 -0.1431
  122OSM   H15A12810   2.767   2.399  -0.050 -0.8568  0.9914  0.0550
  122OSM   H15B12811   2.895   2.511  -0.063  2.2059 -1.5838  0.7055
  122OSM   H15C12812   2.749   2.549   0.031  2.0118  1.7803  0.3756
  122OSM    C1412813   2.794   2.431   0.247  0.7240 -0.7788  0.5380
  122OSM   H14A12814   2.702   2.375   0.243  1.3884 -2.0903  2.3433
  122OSM   H14B12815   2.753   2.531   0.253 -2.8987 -2.1368  0.5370
  122OSM   H14C12816   2.836   2.388   0.337 -0.8272  0.5924  1.9812
  122OSM    C1312817   2.926   2.274   0.117 -0.0656 -0.6348 -0.5195
  122OSM   H13A12818   3.002   2.262   0.041 -1.0746 -1.3318 -1.4467
  122OSM   H13B12819   2.835   2.228   0.081 -1.5310  1.3389  0.4533
  122OSM   H13C12820   2.976   2.235   0.205  1.1886  0.5317 -0.6876
  122OSM    C1212821   3.013   2.505   0.160 -0.2808  0.3893  0.0836
  122OSM   H12A12822   2.990   2.611   0.162 -0.6719  0.2935  1.9309
  122OSM   H12B12823   3.085   2.497   0.079 -0.8935 -2.9569 -0.2609
  122OSM    C1112824   3.093   2.463   0.290  0.1416 -0.1881  0.9575
  122OSM   H11A12825   3.023   2.443   0.375  1.2354 -5.3685  0.9792
  122OSM   H11B12826   3.152   2.556   0.307  0.0170  0.5822 -2.2250
  122OSM      P12827   3.309   2.354   0.196 -0.0016 -0.3552 -0.2047
  122OSM    O1312828   3.384   2.485   0.206  0.3194  0.0089  0.0954
  122OSM    O1412829   3.379   2.227   0.216 -0.2800  0.4053 -0.3494
  122OSM    O1112830   3.251   2.366   0.048  0.0118  0.3756  0.1733
  122OSM    O1212831   3.175   2.351   0.273  0.4518  0.0256 -0.7069
  122OSM    C1S12832   3.242   2.255  -0.036  0.1103 -0.2198  0.0446
  122OSM    H1S12833   3.147   2.199  -0.032  0.5755 -1.0656 -0.3695
  122OSM    H1T12834   3.323   2.179  -0.023  1.3142  1.1322  0.6857
  122OSM     NF12835   3.203   2.188  -0.275 -0.1216  0.0087  0.2025
  122OSM    HNF12836   3.278   2.137  -0.317 -0.6626 -0.2204 -0.5137
  122OSM    C2S12837   3.241   2.295  -0.187 -0.0065  1.0621 -0.0063
  122OSM    H2S12838   3.177   2.386  -0.199  1.5574  2.2379  0.2379
  122OSM    C3S12839   3.387   2.353  -0.219  0.2609 -0.7792  0.6594
  122OSM    H3S12840   3.453   2.273  -0.180  0.6796 -0.0601  1.4687
  122OSM     O312841   3.429   2.451  -0.136  0.4599 -0.0659  0.1240
  122OSM    HO312842   3.365   2.443  -0.064  0.2291 -0.7566 -0.1520
  122OSM    C4S12843   3.427   2.374  -0.357  0.4390  0.5578  0.1771
  122OSM    H4S12844   3.336   2.403  -0.411  1.0708  2.1839 -0.0555
  122OSM    C5S12845   3.543   2.332  -0.410 -0.1679 -0.1124  0.2922
  122OSM    H5S12846   3.620   2.280  -0.351  1.9524  2.2394 -0.2452
  122OSM    C6S12847   3.581   2.323  -0.560  0.0320  0.7197 -0.1143
  122OSM    H6S12848   3.573   2.215  -0.586 -0.8283  0.4659  1.1201
  122OSM    H6T12849   3.684   2.356  -0.583 -0.6030  2.7334 -0.2330
  122OSM    C7S12850   3.483   2.395  -0.660 -0.7226 -0.2077  0.0521
  122OSM    H7S12851   3.502   2.502  -0.637 -0.5408  0.2412 -2.0238
  122OSM    H7T12852   3.377   2.379  -0.630 -1.6403  3.5217 -0.6516
  122OSM    C8S12853   3.520   2.371  -0.806 -0.1913 -0.6353 -0.6344
  122OSM    H8S12854   3.511   2.262  -0.829 -0.8570 -0.4507 -1.2654
  122OSM    H8T12855   3.629   2.389  -0.814  0.0606 -1.7819 -0.0415
  122OSM    C9S12856   3.440   2.445  -0.911  0.3899 -0.2952  0.3382
  122OSM    H9S12857   3.450   2.555  -0.903  1.3532 -0.2596 -0.9740
  122OSM    H9T12858   3.332   2.418  -0.909  0.3470 -0.2504 -1.0239
  122OSM   C10S12859   3.499   2.403  -1.046 -0.0746  0.0625  0.6085
  122OSM   H10S12860   3.488   2.293  -1.047 -4.8780  0.3360  0.0009
  122OSM   H10T12861   3.607   2.427  -1.058 -0.0678 -1.0641 -2.2110
  122OSM   C11S12862   3.430   2.451  -1.177 -0.0113  0.1378  0.0891
  122OSM   H11S12863   3.427   2.562  -1.168  1.3110  0.3365 -1.5298
  122OSM   H11T12864   3.330   2.406  -1.163  0.3190 -0.1740  1.6068
  122OSM   C12S12865   3.490   2.411  -1.312 -0.0409 -0.7590  0.0095
  122OSM   H12S12866   3.520   2.304  -1.318  1.2028 -0.3642 -1.3820
  122OSM   H12T12867   3.573   2.483  -1.326 -0.6798  0.8877  3.6554
  122OSM   C13S12868   3.395   2.444  -1.430  0.6622  0.6949  0.2689
  122OSM   H13S12869   3.407   2.553  -1.452 -4.2713  1.3659 -0.2010
  122OSM   H13T12870   3.288   2.439  -1.400  0.0278  2.7461 -1.3868
  122OSM   C14S12871   3.417   2.360  -1.559  0.2511 -0.0032  0.3071
  122OSM   H14S12872   3.419   2.251  -1.539 -0.9922 -0.6662 -2.7005
  122OSM   H14T12873   3.514   2.389  -1.605 -0.1439  2.7982  1.0115
  122OSM   C15S12874   3.315   2.380  -1.680 -0.1289 -0.0503 -0.7153
  122OSM   H15S12875   3.272   2.482  -1.669 -0.4291 -0.2518  0.0304
  122OSM   H15T12876   3.233   2.306  -1.664 -2.2200  2.3020  0.1360
  122OSM   C16S12877   3.388   2.375  -1.815 -0.8030  0.0886  0.0218
  122OSM   H16S12878   3.409   2.267  -1.832 -2.2672  0.0691 -1.9484
  122OSM   H16T12879   3.483   2.430  -1.802 -1.4845  1.6378 -1.2016
  122OSM   C17S12880   3.313   2.430  -1.935 -0.2005 -0.0250 -0.2993
  122OSM   H17S12881   3.290   2.536  -1.912 -1.8836 -0.4420  0.0937
  122OSM   H17T12882   3.215   2.381  -1.954 -0.6368 -0.4696  2.5489
  122OSM   C18S12883   3.388   2.431  -2.064  0.8426  0.4550  0.1736
  122OSM   H18S12884   3.479   2.490  -2.041  0.2813  1.5941 -0.4410
  122OSM   H18T12885   3.334   2.478  -2.149  0.1829 -1.0334 -0.2790
  122OSM   H18U12886   3.414   2.329  -2.101  1.5741  1.5360 -2.5264
  122OSM    C1F12887   3.082   2.152  -0.289  0.1929 -0.4261 -0.0696
  122OSM     OF12888   2.998   2.229  -0.241  0.2159 -0.1398 -0.3576
  122OSM    C2F12889   3.049   2.030  -0.366  0.2597 -0.6344 -0.8484
  122OSM    H2F12890   3.147   1.992  -0.402 -0.8920 -0.7257 -4.2828
  122OSM    H2G12891   2.985   2.061  -0.452 -1.2116 -1.0009  0.0793
  122OSM    C3F12892   2.985   1.908  -0.291 -0.4817  0.4086  1.0564
  122OSM    H3F12893   2.882   1.936  -0.259 -0.5820  2.2166 -0.6612
  122OSM    H3G12894   3.051   1.882  -0.206  0.1897  0.0436  0.4290
  122OSM    C4F12895   2.985   1.790  -0.397 -0.3336 -0.2631  0.3760
  122OSM    H4F12896   3.012   1.697  -0.343 -2.2899  0.1816  2.2550
  122OSM    H4G12897   3.061   1.811  -0.475  0.0610 -2.2782  0.1557
  122OSM    C5F12898   2.853   1.794  -0.458  0.3082  0.1307 -0.2870
  122OSM    H5F12899   2.821   1.900  -0.466 -1.3353 -0.4351 -1.7478
  122OSM    H5G12900   2.777   1.749  -0.391 -0.0621  2.9500  1.3444
  122OSM    C6F12901   2.836   1.724  -0.592 -0.4697 -0.1259 -0.3828
  122OSM    H6F12902   2.735   1.680  -0.603 -1.9414  2.2212  2.5281
  122OSM    H6G12903   2.904   1.636  -0.583 -0.1221 -0.1341 -2.6430
  122OSM    C7F12904   2.851   1.806  -0.716  0.0746 -0.1107  0.1028
  122OSM    H7F12905   2.960   1.825  -0.723 -0.3279  2.1024 -1.3834
  122OSM    H7G12906   2.805   1.905  -0.697  0.8608  0.0905  0.9867
  122OSM    C8F12907   2.785   1.739  -0.840 -0.5425  0.4930 -0.3543
  122OSM    H8F12908   2.674   1.735  -0.833 -0.4017 -1.7178  2.3803
  122OSM    H8G12909   2.813   1.633  -0.856 -2.2843  0.1791 -1.6039
  122OSM    C9F12910   2.841   1.814  -0.965 -0.1095  0.0786  0.1684
  122OSM    H9F12911   2.932   1.872  -0.941  0.0096 -0.6795  1.7018
  122OSM   C10F12912   2.800   1.827  -1.091 -1.1387 -0.4616 -0.2429
  122OSM   H10F12913   2.868   1.888  -1.153  2.6673 -2.8461  1.2444
  122OSM   C11F12914   2.691   1.760  -1.163 -0.0389  0.7296  0.3647
  122OSM   H11F12915   2.611   1.837  -1.159 -0.2837  0.5277 -0.4242
  122OSM   H11G12916   2.664   1.668  -1.106  3.2159 -0.1827  0.6439
  122OSM   C12F12917   2.709   1.723  -1.313 -0.7422  0.2676  0.1047
  122OSM   H12F12918   2.619   1.673  -1.355 -0.8417  0.8967 -0.4422
  122OSM   H12G12919   2.801   1.663  -1.329 -0.4330  0.2969  1.5971
  122OSM   C13F12920   2.730   1.848  -1.402  0.3854 -0.8699  0.4144
  122OSM   H13F12921   2.834   1.886  -1.400  1.0357 -2.5655  0.2176
  122OSM   H13G12922   2.648   1.921  -1.385 -0.4278 -2.0496  1.8526
  122OSM   C14F12923   2.712   1.797  -1.549  0.0433  0.0150 -0.5103
  122OSM   H14F12924   2.612   1.750  -1.560  0.2634 -0.2767 -1.3547
  122OSM   H14G12925   2.792   1.721  -1.562  1.9735  2.0641 -1.3386
  122OSM   C15F12926   2.722   1.910  -1.652 -0.4088  0.5898 -0.0002
  122OSM   H15F12927   2.820   1.959  -1.634  0.6299 -0.9283 -1.2348
  122OSM   H15G12928   2.642   1.981  -1.625 -1.7129 -1.2218  1.0968
  122OSM   C16F12929   2.712   1.855  -1.798  0.6264 -0.1154 -0.0105
  122OSM   H16F12930   2.612   1.813  -1.822  0.5441  1.3122 -2.5448
  122OSM   H16G12931   2.783   1.771  -1.807  0.4495 -0.1355 -1.6308
  122OSM   C17F12932   2.755   1.955  -1.904 -0.2736 -0.2334 -0.5918
  122OSM   H17F12933   2.857   1.986  -1.875 -0.0148 -1.6367  0.0879
  122OSM   H17G12934   2.691   2.045  -1.891 -0.9342 -0.8907  1.0682
  122OSM   C18F12935   2.751   1.915  -2.052  0.1352  0.9023  0.7302
  122OSM   H18F12936   2.821   1.831  -2.064  1.1706  1.5166  2.1606
  122OSM   H18G12937   2.791   1.999  -2.113 -0.7880  0.0811 -1.0663
  122OSM   H18H12938   2.647   1.887  -2.081  0.2577  1.0153  0.1710
  123OSM      N12939   5.892   1.587   4.410  0.5036 -0.6737 -0.3609
  123OSM    C1512940   5.771   1.503   4.443  0.3885 -0.5154 -0.0655
  123OSM   H15A12941   5.720   1.475   4.353 -1.0028  1.0121  0.2054
  123OSM   H15B12942   5.693   1.557   4.494 -1.7326  0.3548 -3.8797
  123OSM   H15C12943   5.791   1.417   4.505 -2.1320 -0.0964  1.4675
  123OSM    C1412944   5.985   1.493   4.335 -0.0704  0.0266  0.6036
  123OSM   H14A12945   5.969   1.475   4.230  0.8089 -0.0074  0.4660
  123OSM   H14B12946   5.989   1.392   4.373  1.7092 -0.1548  0.0158
  123OSM   H14C12947   6.083   1.537   4.347 -0.5948  1.8405 -1.1975
  123OSM    C1312948   5.859   1.708   4.329 -0.1511 -0.6703 -0.5798
  123OSM   H13A12949   5.941   1.778   4.323 -0.3501 -0.4727 -0.9925
  123OSM   H13B12950   5.789   1.770   4.382  1.1345 -0.7549  1.3515
  123OSM   H13C12951   5.825   1.679   4.231 -1.2657  1.1663 -0.7785
  123OSM    C1212952   5.957   1.622   4.543  0.0658  0.4468  0.3083
  123OSM   H12A12953   5.965   1.527   4.593 -1.7360  0.2179  0.2405
  123OSM   H12B12954   5.886   1.673   4.607 -1.3333  1.9168 -2.2539
  123OSM    C1112955   6.087   1.709   4.534 -0.3994  0.5751  0.2099
  123OSM   H11A12956   6.140   1.679   4.441 -0.1706  0.0766  0.4952
  123OSM   H11B12957   6.155   1.697   4.621 -1.0358 -1.4534  0.4759
  123OSM      P12958   6.156   1.948   4.482 -0.1909 -0.0908  0.1543
  123OSM    O1312959   6.253   1.890   4.386 -0.3193  0.7277  0.1672
  123OSM    O1412960   6.077   2.057   4.423 -0.6671 -0.3707 -0.1286
  123OSM    O1112961   6.231   1.990   4.611 -0.2557  0.9162 -0.6891
  123OSM    O1212962   6.043   1.841   4.519  0.0550 -0.3246 -0.5445
  123OSM    C1S12963   6.202   2.109   4.685  0.4880 -0.1583 -0.5940
  123OSM    H1S12964   6.105   2.154   4.655  0.4029 -0.3281 -0.5709
  123OSM    H1T12965   6.281   2.183   4.659  1.1382 -0.8251 -0.5539
  123OSM     NF12966   6.213   2.217   4.905 -0.3264 -0.2293 -0.6893
  123OSM    HNF12967   6.303   2.239   4.943 -1.7776  1.2812  2.1837
  123OSM    C2S12968   6.203   2.086   4.840 -0.2958  0.1506 -0.0752
  123OSM    H2S12969   6.101   2.043   4.847  0.6262 -2.2026 -0.0393
  123OSM    C3S12970   6.316   1.996   4.888  0.1280  0.2709  0.1740
  123OSM    H3S12971   6.411   2.040   4.850  0.6277 -1.2028 -0.3639
  123OSM     O312972   6.315   1.865   4.831 -0.1027 -0.3806  0.0904
  123OSM    HO312973   6.248   1.868   4.763 -0.5557  1.8386  0.5560
  123OSM    C4S12974   6.314   1.996   5.035  0.4668  0.3323  0.1626
  123OSM    H4S12975   6.368   2.079   5.083 -1.8818  2.3461 -0.4456
  123OSM    C5S12976   6.248   1.913   5.113 -0.0252 -0.9042 -0.3068
  123OSM    H5S12977   6.199   1.832   5.057 -0.7641 -0.4920 -0.2775
  123OSM    C6S12978   6.235   1.921   5.265  0.1354  0.2563 -0.1246
  123OSM    H6S12979   6.302   2.002   5.302 -0.1503  0.7931 -0.7725
  123OSM    H6T12980   6.271   1.832   5.321  0.3360  1.8998  2.5391
  123OSM    C7S12981   6.095   1.966   5.303 -0.0201  0.4161 -0.1174
  123OSM    H7S12982   6.036   1.876   5.329  1.1237  0.2805  2.2613
  123OSM    H7T12983   6.043   2.026   5.226 -0.9475  1.8287  1.5269
  123OSM    C8S12984   6.097   2.056   5.425  0.2745 -0.7189 -0.1402
  123OSM    H8S12985   5.998   2.105   5.442 -0.9380 -2.4588 -1.7794
  123OSM    H8T12986   6.171   2.133   5.396 -0.8367  0.3947 -0.1239
  123OSM    C9S12987   6.156   1.969   5.533  0.2500  0.8512 -0.5893
  123OSM    H9S12988   6.265   1.958   5.513 -0.0246 -0.6820 -1.3555
  123OSM    H9T12989   6.110   1.870   5.550  0.3388  0.5932 -1.7803
  123OSM   C10S12990   6.154   2.031   5.676 -0.2482  0.9821 -0.2714
  123OSM   H10S12991   6.048   2.018   5.708  0.2369 -0.0613  1.0083
  123OSM   H10T12992   6.174   2.139   5.666 -3.6320  1.9277  1.6303
  123OSM   C11S12993   6.226   1.944   5.784 -0.0032  0.3991 -0.1285
  123OSM   H11S12994   6.336   1.952   5.774  0.3529  0.1754  2.7087
  123OSM   H11T12995   6.191   1.839   5.791 -2.2987  1.2005  2.7194
  123OSM   C12S12996   6.187   2.006   5.925  0.0464 -0.0560  0.1502
  123OSM   H12S12997   6.077   2.006   5.942  0.2173 -0.3093  1.3551
  123OSM   H12T12998   6.211   2.114   5.932 -1.4003  0.3477 -0.6729
  123OSM   C13S12999   6.251   1.935   6.047 -0.2728 -0.1249 -0.4610
  123OSM   H13S13000   6.357   1.960   6.071 -0.6671 -0.1717  1.5228
  123OSM   H13T13001   6.229   1.826   6.044 -0.7678  0.0028 -2.1675
  123OSM   C14S13002   6.180   1.980   6.183  0.2661 -0.3412  0.1135
  123OSM   H14S13003   6.073   1.950   6.171  0.6208 -1.4206 -0.5334
  123OSM   H14T13004   6.174   2.091   6.184  1.3864 -0.2541 -0.6942
  123OSM   C15S13005   6.234   1.918   6.315 -0.2391  0.1335  0.6322
  123OSM   H15S13006   6.239   1.810   6.292 -1.0250  0.8811 -3.9586
  123OSM   H15T13007   6.159   1.950   6.391 -0.5616 -0.1955  0.4528
  123OSM   C16S13008   6.375   1.969   6.354 -0.6357  0.1316 -0.5627
  123OSM   H16S13009   6.390   2.077   6.374  0.2605 -0.2914  1.3120
  123OSM   H16T13010   6.437   1.934   6.269 -0.0085  1.1254 -0.5191
  123OSM   C17S13011   6.433   1.907   6.481  0.1974 -0.7319 -0.8908
  123OSM   H17S13012   6.395   1.967   6.567  1.9041  2.1030 -1.9531
  123OSM   H17T13013   6.542   1.924   6.489  0.5107 -3.0757  1.0611
  123OSM   C18S13014   6.403   1.760   6.506 -0.0389  0.6444  0.8458
  123OSM   H18S13015   6.440   1.713   6.599 -1.4254 -0.2122  0.9854
  123OSM   H18T13016   6.449   1.713   6.417 -3.0938  0.9147 -1.0144
  123OSM   H18U13017   6.295   1.737   6.492  0.2261  1.1368 -3.5218
  123OSM    C1F13018   6.112   2.302   4.909 -0.4387 -0.4918  1.0566
  123OSM     OF13019   5.997   2.261   4.893 -0.2575  0.0777  0.5275
  123OSM    C2F13020   6.137   2.450   4.929 -0.2192 -0.0625 -0.1492
  123OSM    H2F13021   6.114   2.508   4.837  2.0487  1.2370  0.0357
  123OSM    H2G13022   6.243   2.468   4.957 -0.2841 -0.6035  0.4578
  123OSM    C3F13023   6.050   2.502   5.046  0.3560  0.2702 -0.4652
  123OSM    H3F13024   5.943   2.504   5.017  0.8139  2.4660 -2.3202
  123OSM    H3G13025   6.070   2.611   5.059 -3.2921  1.1356 -1.0319
  123OSM    C4F13026   6.078   2.439   5.182  0.0626  0.0733 -0.3126
  123OSM    H4F13027   6.170   2.489   5.219  0.7763  0.2662 -2.2438
  123OSM    H4G13028   6.096   2.330   5.172  2.0406  0.3544 -0.2334
  123OSM    C5F13029   5.960   2.470   5.279 -0.0431 -0.0400 -0.5113
  123OSM    H5F13030   5.872   2.415   5.239  0.9855 -0.6051 -2.0777
  123OSM    H5G13031   5.943   2.579   5.291  1.2347  0.0721  0.4400
  123OSM    C6F13032   5.983   2.413   5.419 -0.2518 -0.2111  0.4692
  123OSM    H6F13033   6.087   2.432   5.454 -0.3998  0.3630  0.6036
  123OSM    H6G13034   5.976   2.302   5.415 -1.0154 -0.1819  0.8420
  123OSM    C7F13035   5.883   2.460   5.527  0.2074 -0.3247  0.0783
  123OSM    H7F13036   5.778   2.443   5.495  0.3838 -0.6565 -0.3354
  123OSM    H7G13037   5.900   2.569   5.531 -0.1815 -0.2879  2.9134
  123OSM    C8F13038   5.910   2.399   5.665 -0.0266  0.1704 -0.0745
  123OSM    H8F13039   5.922   2.291   5.643  0.1239 -0.0457  1.0125
  123OSM    H8G13040   5.816   2.406   5.723  1.3290 -0.0903  2.2625
  123OSM    C9F13041   6.027   2.451   5.747 -0.1061 -0.7689  0.3909
  123OSM    H9F13042   6.123   2.419   5.705 -0.3353 -0.5394 -0.3217
  123OSM   C10F13043   6.023   2.514   5.863 -0.5848 -0.8457 -0.0976
  123OSM   H10F13044   6.117   2.553   5.903 -1.1593  0.3199  0.1499
  123OSM   C11F13045   5.904   2.570   5.938  1.0393 -0.2709 -0.3614
  123OSM   H11F13046   5.816   2.545   5.876 -0.2714 -1.2348  1.7423
  123OSM   H11G13047   5.904   2.681   5.944  0.3926 -0.2836 -0.0347
  123OSM   C12F13048   5.880   2.501   6.077 -0.6765 -0.8669 -0.3967
  123OSM   H12F13049   5.976   2.507   6.132 -1.4750 -1.9291  1.1901
  123OSM   H12G13050   5.855   2.397   6.046 -1.7513 -0.8572  0.3831
  123OSM   C13F13051   5.764   2.563   6.163 -0.2746 -0.4156  0.2556
  123OSM   H13F13052   5.772   2.504   6.257  2.8315  0.9005  0.9379
  123OSM   H13G13053   5.669   2.543   6.110  0.0245  0.1822 -0.5175
  123OSM   C14F13054   5.777   2.711   6.176 -0.0133 -0.7344 -0.0929
  123OSM   H14F13055   5.743   2.765   6.085 -3.2338 -2.1956  0.1142
  123OSM   H14G13056   5.879   2.751   6.198 -0.2692 -0.0478 -0.1184
  123OSM   C15F13057   5.679   2.765   6.284 -0.1925  0.8856 -0.3941
  123OSM   H15F13058   5.716   2.720   6.378 -1.8579 -1.4931 -0.7805
  123OSM   H15G13059   5.578   2.722   6.264  0.1915 -0.7547  0.8727
  123OSM   C16F13060   5.672   2.917   6.277  0.1365  1.3617  0.5639
  123OSM   H16F13061   5.641   2.943   6.173  1.2396  1.3189  0.2105
  123OSM   H16G13062   5.775   2.956   6.291  0.1614  0.8743  1.8183
  123OSM   C17F13063   5.582   2.990   6.373 -0.8862 -0.1624  0.5310
  123OSM   H17F13064   5.478   2.973   6.338 -0.9450  1.0486  0.0443
  123OSM   H17G13065   5.592   3.100   6.356  0.6915 -0.4728 -0.7609
  123OSM   C18F13066   5.599   2.943   6.516 -0.3691 -0.3708  1.0211
  123OSM   H18F13067   5.708   2.949   6.536 -0.0243  1.4822 -1.0823
  123OSM   H18G13068   5.569   2.838   6.535 -0.4553 -1.2049 -2.9266
  123OSM   H18H13069   5.539   3.010   6.582 -1.4166 -0.0736 -0.2027
  124OSM      N13070   4.744   3.073   4.079 -0.5960  0.5532 -0.4158
  124OSM    C1513071   4.696   3.207   4.101  0.1393 -0.6269  0.5741
  124OSM   H15A13072   4.589   3.214   4.107  0.3282  2.5311  2.9711
  124OSM   H15B13073   4.740   3.276   4.031 -2.0790  1.8251  1.4341
  124OSM   H15C13074   4.732   3.242   4.197  1.4107  1.1117 -0.4879
  124OSM    C1413075   4.719   3.043   3.932  0.4636 -0.4201  0.1454
  124OSM   H14A13076   4.616   3.059   3.905  0.9970  1.3656 -0.9824
  124OSM   H14B13077   4.757   2.944   3.909  0.1353 -0.0896 -2.0413
  124OSM   H14C13078   4.771   3.107   3.863 -0.4140 -1.7591 -1.8791
  124OSM    C1313079   4.896   3.077   4.092 -0.3336  0.5079  0.3684
  124OSM   H13A13080   4.938   3.158   4.034  1.0532 -1.7252 -1.9650
  124OSM   H13B13081   4.942   2.985   4.060 -2.0955 -0.2518 -0.0690
  124OSM   H13C13082   4.918   3.084   4.198 -0.8610 -2.9850  0.8278
  124OSM    C1213083   4.681   2.960   4.159 -0.0174  0.1280  1.0160
  124OSM   H12A13084   4.707   2.868   4.109  0.2768 -0.6037  2.4612
  124OSM   H12B13085   4.574   2.970   4.159 -0.2268 -1.5408 -0.6270
  124OSM    C1113086   4.742   2.937   4.299  0.8658  0.4680 -0.4462
  124OSM   H11A13087   4.670   2.870   4.351  0.4116 -0.1993 -1.9010
  124OSM   H11B13088   4.736   3.034   4.354 -0.6827 -0.9557  2.0940
  124OSM      P13089   4.900   2.739   4.250  0.3171 -0.0463 -0.2078
  124OSM    O1313090   4.818   2.721   4.128 -0.8199 -0.7334  0.4144
  124OSM    O1413091   5.044   2.721   4.231 -0.1254 -0.2412  0.3430
  124OSM    O1113092   4.858   2.649   4.371  0.3515  0.2285  0.9449
  124OSM    O1213093   4.874   2.880   4.310  0.4317  0.4605  0.0049
  124OSM    C1S13094   4.866   2.692   4.505 -0.4102  0.7572 -0.1771
  124OSM    H1S13095   4.800   2.781   4.520 -0.1345  0.9956 -0.3775
  124OSM    H1T13096   4.968   2.723   4.536 -0.0590  0.3951 -0.9657
  124OSM     NF13097   4.808   2.638   4.741  0.9206 -0.1494 -0.3004
  124OSM    HNF13098   4.880   2.616   4.806  0.2658 -0.3361  0.3733
  124OSM    C2S13099   4.811   2.580   4.609 -0.5065  0.1085 -0.4563
  124OSM    H2S13100   4.705   2.556   4.586  0.0266 -1.7142 -1.1753
  124OSM    C3S13101   4.898   2.450   4.599  0.5242 -0.0289  0.4829
  124OSM    H3S13102   5.006   2.472   4.611  0.4100  2.1851 -1.7135
  124OSM     O313103   4.900   2.394   4.469  0.0127  0.2641  0.4852
  124OSM    HO313104   4.877   2.469   4.414  2.5140  0.2586 -0.6863
  124OSM    C4S13105   4.869   2.341   4.701  0.1705  0.2980  0.2525
  124OSM    H4S13106   4.772   2.290   4.690  0.7760 -1.4575  2.3047
  124OSM    C5S13107   4.948   2.298   4.810 -0.6628  0.8824  0.1368
  124OSM    H5S13108   5.039   2.355   4.832 -0.2956  0.0136  0.8907
  124OSM    C6S13109   4.897   2.203   4.906 -0.4173 -0.1533  0.3089
  124OSM    H6S13110   4.894   2.101   4.863  0.3812 -0.4252  0.8833
  124OSM    H6T13111   4.800   2.236   4.949  1.1727  2.3329  2.2772
  124OSM    C7S13112   5.000   2.205   5.018 -1.1933  0.3807  0.5096
  124OSM    H7S13113   5.106   2.182   4.995 -0.9612 -0.6643  2.3907
  124OSM    H7T13114   4.975   2.115   5.079  0.3028 -0.7470 -0.4488
  124OSM    C8S13115   4.986   2.327   5.113  0.1573 -0.0122 -0.3846
  124OSM    H8S13116   4.881   2.332   5.148  0.3738 -0.2080  0.3104
  124OSM    H8T13117   5.010   2.419   5.055 -0.0969  1.7704  2.2000
  124OSM    C9S13118   5.071   2.318   5.240 -0.0764 -0.4939 -0.5232
  124OSM    H9S13119   5.061   2.415   5.293  1.9799 -0.6030  0.1897
  124OSM    H9T13120   5.179   2.306   5.215 -0.1548 -1.9780 -0.2339
  124OSM   C10S13121   5.061   2.192   5.329 -0.1994  0.5285 -0.0062
  124OSM   H10S13122   5.143   2.200   5.404 -1.5772  0.9167  1.5336
  124OSM   H10T13123   5.081   2.096   5.277 -0.2086  0.3376  0.3386
  124OSM   C11S13124   4.925   2.178   5.392  0.3884  0.2290  0.5739
  124OSM   H11S13125   4.869   2.104   5.331  1.0632  0.0198  0.1958
  124OSM   H11T13126   4.872   2.271   5.366 -1.2277 -0.8227 -0.0675
  124OSM   C12S13127   4.917   2.156   5.546 -0.0137 -0.0756 -0.1199
  124OSM   H12S13128   4.950   2.257   5.579  0.4118 -0.4213  0.5462
  124OSM   H12T13129   4.996   2.082   5.569  0.1887 -0.1427 -1.0091
  124OSM   C13S13130   4.783   2.120   5.604 -0.5753 -0.5544  0.2871
  124OSM   H13S13131   4.742   2.023   5.569 -2.0122  0.5255 -1.1768
  124OSM   H13T13132   4.712   2.201   5.577 -1.3420 -1.0302  0.8233
  124OSM   C14S13133   4.792   2.119   5.758 -0.2661  0.3244  1.3820
  124OSM   H14S13134   4.867   2.195   5.788  2.5766 -2.4295  1.6988
  124OSM   H14T13135   4.837   2.021   5.783  0.2720  0.3705  0.6335
  124OSM   C15S13136   4.652   2.121   5.816 -0.6355 -0.0419  0.4633
  124OSM   H15S13137   4.577   2.051   5.773  0.6483 -1.7782  0.9145
  124OSM   H15T13138   4.604   2.220   5.802  1.8304  0.9215 -2.4917
  124OSM   C16S13139   4.656   2.082   5.963 -0.5137  0.2746  0.0027
  124OSM   H16S13140   4.751   2.129   5.996 -0.1005  0.3292 -1.2240
  124OSM   H16T13141   4.662   1.971   5.974  2.7052  0.3728  0.1270
  124OSM   C17S13142   4.537   2.116   6.052 -0.7512 -1.2503 -0.4048
  124OSM   H17S13143   4.437   2.084   6.013 -2.2610  1.2044  1.2267
  124OSM   H17T13144   4.531   2.226   6.041 -1.9588 -1.3658 -1.0767
  124OSM   C18S13145   4.555   2.075   6.199  0.5301  0.1165  0.5588
  124OSM   H18S13146   4.470   2.127   6.250 -0.6583 -1.5175  0.3229
  124OSM   H18T13147   4.657   2.104   6.232  0.5289  1.6869 -0.6726
  124OSM   H18U13148   4.544   1.965   6.204 -0.8336  0.1153 -1.2429
  124OSM    C1F13149   4.729   2.742   4.783  0.1568 -0.2816  0.0736
  124OSM     OF13150   4.652   2.797   4.702  0.0399  0.3723  0.0964
  124OSM    C2F13151   4.736   2.776   4.922  0.6607 -0.1079  0.4080
  124OSM    H2F13152   4.665   2.856   4.952  0.9106  0.2688  0.0057
  124OSM    H2G13153   4.838   2.817   4.932  0.2470  1.2985 -0.7203
  124OSM    C3F13154   4.725   2.658   5.015  0.5503 -0.0626  0.4043
  124OSM    H3F13155   4.790   2.574   4.984  0.8140  0.4342 -0.4318
  124OSM    H3G13156   4.623   2.615   5.018  0.8489 -0.9269 -0.9623
  124OSM    C4F13157   4.762   2.707   5.151  0.1895 -0.2184 -0.1025
  124OSM    H4F13158   4.728   2.812   5.164 -1.7706 -0.5718 -1.7776
  124OSM    H4G13159   4.872   2.706   5.166  0.3929  0.4724 -1.3708
  124OSM    C5F13160   4.708   2.616   5.254  0.3807 -0.0287  0.4039
  124OSM    H5F13161   4.750   2.514   5.242  1.3449  0.1436  1.9030
  124OSM    H5G13162   4.599   2.619   5.234  0.6849  1.4819 -1.2883
  124OSM    C6F13163   4.733   2.643   5.404  0.1106 -0.4854 -0.0399
  124OSM    H6F13164   4.700   2.556   5.466  1.1170 -2.9742 -2.7450
  124OSM    H6G13165   4.670   2.731   5.429 -1.8912 -1.5944 -0.9467
  124OSM    C7F13166   4.889   2.666   5.429 -0.6845 -0.1357 -0.0998
  124OSM    H7F13167   4.918   2.751   5.365  2.2592 -0.9600 -0.0079
  124OSM    H7G13168   4.947   2.577   5.395  0.9660  0.9691 -0.3179
  124OSM    C8F13169   4.922   2.687   5.572  0.2214  0.8534 -0.1639
  124OSM    H8F13170   4.850   2.768   5.599 -0.1811  1.2985 -2.3545
  124OSM    H8G13171   5.028   2.719   5.580  0.8778 -1.5482  1.8942
  124OSM    C9F13172   4.897   2.568   5.664 -1.0387 -0.2186 -0.3594
  124OSM    H9F13173   4.986   2.503   5.667  1.8373  3.3707 -0.6148
  124OSM   C10F13174   4.805   2.536   5.756  0.1989 -0.1053  0.3314
  124OSM   H10F13175   4.798   2.434   5.797 -0.6866 -0.1386  0.1161
  124OSM   C11F13176   4.675   2.614   5.779 -0.6383  0.6104  0.2058
  124OSM   H11F13177   4.589   2.555   5.741 -0.2279  0.8941 -1.2233
  124OSM   H11G13178   4.675   2.704   5.714 -2.3128  0.4343 -0.0876
  124OSM   C12F13179   4.665   2.654   5.924 -0.3110 -0.1308 -0.5032
  124OSM   H12F13180   4.582   2.727   5.935  0.3341  0.5629 -0.1598
  124OSM   H12G13181   4.759   2.702   5.957  0.1958 -1.6025  0.3325
  124OSM   C13F13182   4.621   2.531   6.017 -0.2077 -0.3070  0.4837
  124OSM   H13F13183   4.695   2.449   6.024 -1.7402 -1.8755 -0.8149
  124OSM   H13G13184   4.527   2.491   5.974 -0.0361 -0.2794  0.0734
  124OSM   C14F13185   4.609   2.582   6.163  0.1667  0.9380 -0.4510
  124OSM   H14F13186   4.589   2.498   6.234  0.7441  2.5865  1.7804
  124OSM   H14G13187   4.520   2.648   6.159 -1.5947 -1.2775 -0.0672
  124OSM   C15F13188   4.741   2.641   6.212  0.2868  0.4399 -0.1786
  124OSM   H15F13189   4.768   2.730   6.152 -2.5109  1.9822  0.6674
  124OSM   H15G13190   4.821   2.564   6.213 -0.1852 -0.0617  1.1367
  124OSM   C16F13191   4.730   2.699   6.354 -0.4797 -0.3042  0.2297
  124OSM   H16F13192   4.708   2.610   6.418 -1.2186 -0.0039  0.3968
  124OSM   H16G13193   4.642   2.766   6.364 -1.4805 -1.5865  0.3824
  124OSM   C17F13194   4.861   2.768   6.400  0.7252 -0.6631 -0.7035
  124OSM   H17F13195   4.900   2.815   6.308  1.8673 -1.1713 -0.4922
  124OSM   H17G13196   4.942   2.700   6.434  1.5678  0.7225  0.2084
  124OSM   C18F13197   4.836   2.877   6.503 -0.2710  0.0615 -0.5645
  124OSM   H18F13198   4.786   2.844   6.596 -2.4528  1.4235 -1.1821
  124OSM   H18G13199   4.770   2.959   6.466  0.7767  1.4104  0.4594
  124OSM   H18H13200   4.927   2.928   6.540  0.3570 -1.7522  0.5350
  125OSM      N13201   0.648   6.118   4.283 -0.3562 -0.3187 -0.1227
  125OSM    C1513202   0.509   6.133   4.230 -0.2403 -0.0884 -0.0629
  125OSM   H15A13203   0.490   6.234   4.198  2.8062  0.2515 -1.0916
  125OSM   H15B13204   0.441   6.110   4.311  0.6234  1.2790  1.1190
  125OSM   H15C13205   0.497   6.069   4.144  1.1001 -1.2900  0.6033
  125OSM    C1413206   0.685   5.981   4.297  0.1280 -0.3522  0.4392
  125OSM   H14A13207   0.696   5.918   4.209  0.6241 -1.7208  1.4369
  125OSM   H14B13208   0.596   5.934   4.338 -1.3842  1.7797 -0.2154
  125OSM   H14C13209   0.774   5.964   4.356  0.4404 -2.3633 -0.4987
  125OSM    C1313210   0.739   6.182   4.184  0.2388  0.0749  0.1384
  125OSM   H13A13211   0.724   6.287   4.164  2.7732  0.6243  0.7799
  125OSM   H13B13212   0.734   6.135   4.087  0.3113  1.0075 -0.3306
  125OSM   H13C13213   0.843   6.169   4.212  0.0213 -1.8108  0.1823
  125OSM    C1213214   0.664   6.192   4.420 -0.6135  0.4366  0.5053
  125OSM   H12A13215   0.622   6.291   4.404 -0.3295  0.2551 -1.7198
  125OSM   H12B13216   0.769   6.198   4.443 -0.5270 -0.1077  0.2619
  125OSM    C1113217   0.609   6.136   4.551 -0.2556  0.6674  0.0787
  125OSM   H11A13218   0.649   6.196   4.636  1.7786  1.1305 -1.1589
  125OSM   H11B13219   0.643   6.031   4.568 -2.4299 -0.0435  0.3884
  125OSM      P13220   0.394   6.272   4.588  0.0176  0.3136 -0.2588
  125OSM    O1313221   0.459   6.388   4.530 -1.0055 -0.2117  0.0164
  125OSM    O1413222   0.247   6.262   4.561 -0.3263 -0.1213  0.1610
  125OSM    O1113223   0.426   6.262   4.736  0.0614  0.0756 -0.1849
  125OSM    O1213224   0.466   6.138   4.535  0.4015 -0.3327 -0.6647
  125OSM    C1S13225   0.359   6.171   4.822 -0.3276  0.4233  0.1624
  125OSM    H1S13226   0.397   6.068   4.809 -1.2260 -0.0750  1.2365
  125OSM    H1T13227   0.251   6.166   4.798 -0.4763  1.8659  0.4393
  125OSM     NF13228   0.343   6.089   5.066 -0.5498 -0.3931  0.1172
  125OSM    HNF13229   0.251   6.089   5.105 -0.7709 -1.1180 -0.3914
  125OSM    C2S13230   0.381   6.206   4.982  0.4512 -0.2600 -0.0599
  125OSM    H2S13231   0.491   6.215   4.995  1.2647 -2.8729 -3.4826
  125OSM    C3S13232   0.313   6.339   5.028 -0.2269  0.4871  0.5946
  125OSM    H3S13233   0.204   6.316   5.029  0.1839 -1.7792  2.8605
  125OSM     O313234   0.333   6.449   4.941 -0.8386 -0.1522  0.2113
  125OSM    HO313235   0.384   6.406   4.872 -0.1936 -0.5199  0.9109
  125OSM    C4S13236   0.364   6.366   5.171 -0.0038  0.2610 -0.0109
  125OSM    H4S13237   0.467   6.403   5.161 -0.1416  0.2773 -1.6689
  125OSM    C5S13238   0.281   6.361   5.278  0.4824 -0.3249  0.0156
  125OSM    H5S13239   0.184   6.313   5.262 -0.1435  1.0856 -0.5247
  125OSM    C6S13240   0.316   6.391   5.425  0.2354  0.4511  0.4671
  125OSM    H6S13241   0.239   6.463   5.460 -1.3740  0.3459 -2.5270
  125OSM    H6T13242   0.417   6.435   5.419  0.5027 -0.0553  1.0586
  125OSM    C7S13243   0.340   6.270   5.523  0.1880  0.3335  0.5278
  125OSM    H7S13244   0.404   6.192   5.477 -0.6197  0.0853 -0.2103
  125OSM    H7T13245   0.247   6.208   5.519  0.9898 -0.8607 -0.6811
  125OSM    C8S13246   0.379   6.304   5.667  0.3216 -0.5718 -0.1469
  125OSM    H8S13247   0.487   6.283   5.683  0.4255 -1.2713 -1.5672
  125OSM    H8T13248   0.333   6.232   5.737 -0.2919  0.4366  0.5135
  125OSM    C9S13249   0.337   6.446   5.713  0.7503  0.2990  0.0141
  125OSM    H9S13250   0.238   6.475   5.671 -0.8987  0.4177  3.6149
  125OSM    H9T13251   0.413   6.521   5.681 -0.8233  2.7138  1.5264
  125OSM   C10S13252   0.312   6.460   5.864  0.4318  0.0661 -0.2067
  125OSM   H10S13253   0.237   6.391   5.907 -1.1710  0.2305 -2.5548
  125OSM   H10T13254   0.270   6.562   5.877 -3.1220 -1.0371 -1.8991
  125OSM   C11S13255   0.429   6.453   5.954 -0.7704  0.4170 -0.3560
  125OSM   H11S13256   0.519   6.470   5.891 -2.4505  0.8163 -2.7812
  125OSM   H11T13257   0.441   6.353   6.002  0.9639 -0.3027 -2.1296
  125OSM   C12S13258   0.427   6.558   6.057  0.6606 -0.2771 -0.1842
  125OSM   H12S13259   0.330   6.553   6.110 -0.7285  1.0754 -2.4149
  125OSM   H12T13260   0.432   6.661   6.014  0.2410  0.0570  0.5576
  125OSM   C13S13261   0.551   6.554   6.154 -0.6603  0.2012 -0.3175
  125OSM   H13S13262   0.639   6.575   6.090  0.2197 -1.6850  0.1830
  125OSM   H13T13263   0.555   6.453   6.201  2.4023 -1.0356 -2.8528
  125OSM   C14S13264   0.528   6.652   6.265 -0.2340  0.5389 -0.0848
  125OSM   H14S13265   0.427   6.657   6.310 -0.2780  0.1600 -0.1407
  125OSM   H14T13266   0.551   6.752   6.221 -2.1244  0.0827 -2.3827
  125OSM   C15S13267   0.623   6.621   6.378 -0.1784 -0.3752  0.1486
  125OSM   H15S13268   0.721   6.583   6.342  0.1862  1.5595 -1.0564
  125OSM   H15T13269   0.568   6.541   6.433 -1.6411  0.1650 -0.4915
  125OSM   C16S13270   0.659   6.752   6.464  0.5579 -0.5646  0.4921
  125OSM   H16S13271   0.559   6.799   6.469 -0.4523 -2.4064 -1.1220
  125OSM   H16T13272   0.725   6.823   6.408 -0.2531 -0.9570 -1.0097
  125OSM   C17S13273   0.725   6.713   6.592 -0.4159 -0.0491 -0.2309
  125OSM   H17S13274   0.830   6.683   6.574 -0.8595 -0.8001 -1.7380
  125OSM   H17T13275   0.677   6.619   6.628 -0.1020 -0.6260 -1.2617
  125OSM   C18S13276   0.724   6.811   6.722 -0.0732  0.5824 -0.1745
  125OSM   H18S13277   0.786   6.773   6.806 -0.3705 -3.0667 -1.4131
  125OSM   H18T13278   0.621   6.844   6.749 -0.9731 -0.6046 -1.9242
  125OSM   H18U13279   0.766   6.909   6.692 -0.4530  1.6794  2.5299
  125OSM    C1F13280   0.403   5.971   5.054  0.1396  0.2212  0.3465
  125OSM     OF13281   0.516   5.955   5.016  0.2368  0.2369  0.1653
  125OSM    C2F13282   0.313   5.852   5.085  0.4991  0.4428  0.1767
  125OSM    H2F13283   0.256   5.845   4.990 -0.8973 -1.2645  1.0893
  125OSM    H2G13284   0.236   5.883   5.159  1.8638 -1.4898  2.5461
  125OSM    C3F13285   0.379   5.728   5.140 -0.5215  0.5892 -0.3731
  125OSM    H3F13286   0.449   5.689   5.063 -0.0256  2.6346 -1.0267
  125OSM    H3G13287   0.301   5.651   5.158 -2.5631  2.6550  0.0860
  125OSM    C4F13288   0.458   5.742   5.264 -0.0842 -0.5696  0.4051
  125OSM    H4F13289   0.527   5.829   5.273 -0.8317 -0.0312  1.1971
  125OSM    H4G13290   0.518   5.650   5.274 -0.4692 -0.7442  1.1910
  125OSM    C5F13291   0.380   5.765   5.393 -1.1330 -0.0520 -0.2713
  125OSM    H5F13292   0.285   5.709   5.387 -0.4814 -1.1274 -0.8936
  125OSM    H5G13293   0.358   5.872   5.417  1.0654 -0.0090  1.9916
  125OSM    C6F13294   0.456   5.720   5.517 -0.6250 -0.8145 -0.7198
  125OSM    H6F13295   0.546   5.785   5.519  0.5315 -2.3875  0.7238
  125OSM    H6G13296   0.498   5.618   5.507 -0.7573 -0.9159 -0.2758
  125OSM    C7F13297   0.394   5.746   5.660 -0.2150 -0.3694 -0.4693
  125OSM    H7F13298   0.345   5.845   5.659  0.1927 -0.1435  0.7360
  125OSM    H7G13299   0.483   5.750   5.726  0.1577  0.4393 -1.0043
  125OSM    C8F13300   0.287   5.641   5.692  0.1058 -0.4579  0.0498
  125OSM    H8F13301   0.336   5.543   5.672 -1.5174 -0.7179 -3.4036
  125OSM    H8G13302   0.209   5.656   5.614 -0.5155 -0.7651  0.6006
  125OSM    C9F13303   0.225   5.641   5.827 -0.1124 -0.1701  0.7265
  125OSM    H9F13304   0.134   5.702   5.833  0.9435  1.2538  3.4176
  125OSM   C10F13305   0.264   5.571   5.932  0.7071 -0.4388 -0.1079
  125OSM   H10F13306   0.204   5.600   6.020  1.2103  3.0167 -0.7322
  125OSM   C11F13307   0.391   5.489   5.946  0.9094  0.9340  0.4075
  125OSM   H11F13308   0.474   5.522   5.880  0.7496 -0.9807 -0.8489
  125OSM   H11G13309   0.364   5.383   5.930  1.1977  0.3293  3.3800
  125OSM   C12F13310   0.446   5.481   6.092  0.4460 -0.4364 -0.4925
  125OSM   H12F13311   0.474   5.581   6.132  4.4088 -1.7607  0.4958
  125OSM   H12G13312   0.546   5.435   6.084  0.4837 -0.0209 -4.7241
  125OSM   C13F13313   0.353   5.406   6.185 -0.3322  0.8163  0.3378
  125OSM   H13F13314   0.355   5.297   6.163 -0.1278  1.2117 -1.8354
  125OSM   H13G13315   0.247   5.429   6.159 -0.3172  0.1908 -0.2999
  125OSM   C14F13316   0.403   5.435   6.328 -1.1880  0.1802 -0.0315
  125OSM   H14F13317   0.345   5.516   6.377 -1.4908 -0.4887  0.7550
  125OSM   H14G13318   0.508   5.467   6.312 -1.5662  0.5567 -2.0260
  125OSM   C15F13319   0.395   5.298   6.393  0.8327 -0.1364  0.3274
  125OSM   H15F13320   0.455   5.229   6.330 -0.5560 -1.7801  0.7334
  125OSM   H15G13321   0.294   5.252   6.402  1.1295 -1.5342 -2.4557
  125OSM   C16F13322   0.458   5.303   6.535  0.1576 -0.2579  0.5460
  125OSM   H16F13323   0.446   5.198   6.568  0.0886 -0.0909  1.0624
  125OSM   H16G13324   0.400   5.367   6.605  1.3295 -0.7140  1.9892
  125OSM   C17F13325   0.601   5.353   6.534  0.7921 -0.6397  0.1627
  125OSM   H17F13326   0.590   5.459   6.503 -0.6188 -1.4579 -2.4273
  125OSM   H17G13327   0.655   5.296   6.455  0.4864  0.8830 -1.1903
  125OSM   C18F13328   0.668   5.325   6.668 -0.6726  0.1281  0.6848
  125OSM   H18F13329   0.600   5.358   6.750 -1.7921  0.2263 -0.2439
  125OSM   H18G13330   0.765   5.377   6.683 -1.7358  2.8787 -1.1238
  125OSM   H18H13331   0.694   5.219   6.687  2.5215  0.7802  0.5043
  126OSM      N13332   6.370   6.041   3.773  0.1441 -0.2699 -0.1780
  126OSM    C1513333   6.404   5.902   3.733 -0.0654  0.3687 -0.1293
  126OSM   H15A13334   6.411   5.898   3.625 -0.9697 -1.8843 -0.1502
  126OSM   H15B13335   6.325   5.831   3.753  1.7718 -1.2430  1.7719
  126OSM   H15C13336   6.500   5.863   3.763  0.6049  0.0074 -2.5131
  126OSM    C1413337   6.474   6.137   3.729  0.8010 -0.0714  0.1141
  126OSM   H14A13338   6.485   6.138   3.621 -1.6069  0.7945 -0.2056
  126OSM   H14B13339   6.567   6.112   3.776  1.4347 -1.1387 -1.6339
  126OSM   H14C13340   6.447   6.232   3.774  0.1908  0.4170 -1.2154
  126OSM    C1313341   6.245   6.087   3.717  1.0748  0.3287  0.1556
  126OSM   H13A13342   6.159   6.031   3.750  1.7571 -0.4785  0.6079
  126OSM   H13B13343   6.255   6.082   3.610  0.8784 -1.5390  0.1921
  126OSM   H13C13344   6.228   6.190   3.746 -0.9983  0.3441 -0.9751
  126OSM    C1213345   6.353   6.062   3.927 -0.0678  0.6811  0.0121
  126OSM   H12A13346   6.323   6.161   3.956 -0.0551  1.3539 -2.1174
  126OSM   H12B13347   6.442   6.021   3.972  0.0699 -0.5784 -1.3344
  126OSM    C1113348   6.247   5.971   3.995  0.4301 -0.0284  0.0786
  126OSM   H11A13349   6.268   5.967   4.104  0.7782  0.2726  0.0256
  126OSM   H11B13350   6.274   5.867   3.965 -1.0068 -1.1449  2.3722
  126OSM      P13351   6.035   6.112   4.060  0.1967  0.1964 -0.3183
  126OSM    O1313352   5.998   6.226   3.971 -0.4164  0.4435 -0.3123
  126OSM    O1413353   5.919   6.041   4.126 -0.0136 -0.0413  0.6600
  126OSM    O1113354   6.145   6.168   4.166  0.7755 -0.0524 -0.4551
  126OSM    O1213355   6.117   6.013   3.966  0.1288  0.7870  0.6317
  126OSM    C1S13356   6.115   6.141   4.303 -0.1087 -0.3837  0.1578
  126OSM    H1S13357   6.143   6.037   4.332  0.4485  0.4851  3.0443
  126OSM    H1T13358   6.014   6.172   4.336  0.7989  0.2918  2.4908
  126OSM     NF13359   6.174   6.197   4.542  0.5500  0.4295  0.1567
  126OSM    HNF13360   6.127   6.263   4.600 -0.5064 -0.6734  0.5749
  126OSM    C2S13361   6.210   6.227   4.398  0.7348 -0.2135 -0.4392
  126OSM    H2S13362   6.314   6.197   4.375  0.6301 -0.9987  0.0965
  126OSM    C3S13363   6.192   6.374   4.359 -0.4371  0.4234 -0.0320
  126OSM    H3S13364   6.082   6.390   4.361 -0.6491 -0.9024  2.6063
  126OSM     O313365   6.229   6.397   4.220 -0.4564 -0.3437 -0.1969
  126OSM    HO313366   6.218   6.306   4.192 -0.1419  0.2198 -2.3276
  126OSM    C4S13367   6.257   6.476   4.452  0.3635  0.0127 -0.1856
  126OSM    H4S13368   6.185   6.506   4.530  0.2084 -0.8967  0.0295
  126OSM    C5S13369   6.387   6.519   4.465  0.4141  0.3576  0.3788
  126OSM    H5S13370   6.463   6.466   4.407 -0.1869 -0.0971 -0.0103
  126OSM    C6S13371   6.436   6.608   4.572 -0.4584  0.1505  0.0212
  126OSM    H6S13372   6.498   6.680   4.515  2.0708 -1.2773  0.8135
  126OSM    H6T13373   6.500   6.541   4.633 -2.0210  0.2060  1.8040
  126OSM    C7S13374   6.338   6.668   4.671  0.0051 -0.2276  0.4004
  126OSM    H7S13375   6.277   6.588   4.717  0.4413 -0.8536 -0.0979
  126OSM    H7T13376   6.276   6.740   4.613 -0.5903 -1.0919 -0.0475
  126OSM    C8S13377   6.412   6.745   4.785  0.1815 -0.1182 -0.0557
  126OSM    H8S13378   6.477   6.815   4.729  1.8318 -0.8478  0.8789
  126OSM    H8T13379   6.486   6.675   4.830 -0.3893 -0.2667  0.6606
  126OSM    C9S13380   6.326   6.803   4.900  0.4528 -0.1250  0.0288
  126OSM    H9S13381   6.275   6.722   4.956  1.8913  0.0760  1.7411
  126OSM    H9T13382   6.241   6.862   4.859  0.9285  0.5059 -0.0724
  126OSM   C10S13383   6.397   6.910   4.982  0.1951  0.4400  0.5089
  126OSM   H10S13384   6.324   6.981   5.027  0.1104 -0.1016  1.2452
  126OSM   H10T13385   6.472   6.964   4.920 -0.5590  0.3942 -0.4679
  126OSM   C11S13386   6.485   6.848   5.096  0.5374  1.0233  0.5894
  126OSM   H11S13387   6.555   6.778   5.045  1.6812  3.0306 -0.7401
  126OSM   H11T13388   6.427   6.768   5.147 -0.1468 -0.2637 -2.0234
  126OSM   C12S13389   6.537   6.948   5.192  0.4338  0.1724 -0.3070
  126OSM   H12S13390   6.453   6.979   5.257  0.1808 -1.0874 -0.0098
  126OSM   H12T13391   6.582   7.038   5.144  2.0243 -0.6898 -0.5162
  126OSM   C13S13392   6.643   6.895   5.293 -0.0691  0.3955 -0.0843
  126OSM   H13S13393   6.721   6.972   5.310 -0.7617  1.5897 -1.9080
  126OSM   H13T13394   6.699   6.814   5.241 -0.5113 -0.1378  0.2613
  126OSM   C14S13395   6.595   6.843   5.431  0.2379 -0.3769 -0.3257
  126OSM   H14S13396   6.663   6.769   5.478 -1.6920 -1.6358  0.5979
  126OSM   H14T13397   6.500   6.787   5.419 -1.5901  2.5691 -0.7076
  126OSM   C15S13398   6.580   6.966   5.534 -0.5182  0.3621  0.3313
  126OSM   H15S13399   6.483   7.010   5.504 -1.3283 -1.3914  0.2856
  126OSM   H15T13400   6.662   7.039   5.515 -0.2207  0.0725  0.4914
  126OSM   C16S13401   6.573   6.929   5.681  0.2136  0.2693 -0.2699
  126OSM   H16S13402   6.655   6.858   5.706 -0.6727  0.0486  2.3268
  126OSM   H16T13403   6.480   6.870   5.699  1.4821 -1.6390  0.3500
  126OSM   C17S13404   6.562   7.048   5.769 -0.6647 -0.1836  0.1777
  126OSM   H17S13405   6.535   7.013   5.871 -0.1335 -3.5962 -0.7264
  126OSM   H17T13406   6.488   7.122   5.730  1.2035  2.6879  1.7153
  126OSM   C18S13407   6.693   7.129   5.769 -0.0621 -0.8098  0.1575
  126OSM   H18S13408   6.707   7.181   5.671 -1.6461 -1.2968 -0.3591
  126OSM   H18T13409   6.780   7.061   5.787  0.3655 -0.7297 -1.4231
  126OSM   H18U13410   6.691   7.197   5.856  1.3852 -1.7421  0.9559
  126OSM    C1F13411   6.191   6.077   4.601 -0.4468 -0.2349  0.6289
  126OSM     OF13412   6.251   5.991   4.539  0.3871  0.2500  0.2371
  126OSM    C2F13413   6.164   6.062   4.745 -0.1068 -0.2597 -0.4177
  126OSM    H2F13414   6.054   6.046   4.753 -0.3709  1.1635 -0.9596
  126OSM    H2G13415   6.184   6.151   4.808  0.9833 -2.4606  2.5795
  126OSM    C3F13416   6.229   5.936   4.813 -0.5191 -0.2942 -0.5108
  126OSM    H3F13417   6.337   5.931   4.789 -0.5594 -0.9884 -0.5450
  126OSM    H3G13418   6.176   5.857   4.755  1.6496 -0.4657 -2.3850
  126OSM    C4F13419   6.205   5.922   4.960 -0.7637 -0.3264 -0.0221
  126OSM    H4F13420   6.233   6.019   5.007  0.3807 -0.2593 -0.8017
  126OSM    H4G13421   6.265   5.841   5.006 -1.2565  0.8648  2.8922
  126OSM    C5F13422   6.051   5.913   4.989 -0.8316  0.0650 -0.0428
  126OSM    H5F13423   6.009   5.833   4.925  0.6548 -2.3821  1.8374
  126OSM    H5G13424   6.010   6.011   4.956  0.4403  0.6298 -0.0224
  126OSM    C6F13425   6.006   5.892   5.136  0.0084  0.2419 -0.5928
  126OSM    H6F13426   6.076   5.814   5.174  0.9036  1.0086 -0.6201
  126OSM    H6G13427   5.907   5.842   5.135 -1.0375  2.2409 -0.8243
  126OSM    C7F13428   6.020   6.015   5.224  0.4023 -0.4342 -0.4089
  126OSM    H7F13429   5.975   6.097   5.164  1.6143  1.4098  1.0765
  126OSM    H7G13430   6.129   6.036   5.230  0.1077  1.2824 -0.3782
  126OSM    C8F13431   5.962   6.023   5.365  0.5839 -0.1062 -0.1061
  126OSM    H8F13432   5.974   6.123   5.412  1.5635 -0.3944  0.2844
  126OSM    H8G13433   6.003   5.938   5.424  0.7855 -0.6294 -0.9765
  126OSM    C9F13434   5.812   5.990   5.352 -0.6046 -0.6976  0.1906
  126OSM    H9F13435   5.782   5.961   5.251  3.3690 -0.9222 -1.0811
  126OSM   C10F13436   5.713   6.026   5.438  0.0492  0.1473  0.1245
  126OSM   H10F13437   5.605   6.017   5.415  0.0837  1.3815 -0.5985
  126OSM   C11F13438   5.728   6.077   5.579  0.2902 -0.5782 -0.5956
  126OSM   H11F13439   5.638   6.131   5.616  1.4022  0.2435  1.0221
  126OSM   H11G13440   5.814   6.147   5.578 -1.7806  2.2111  0.9363
  126OSM   C12F13441   5.767   5.968   5.667 -0.0137  0.1734 -0.5593
  126OSM   H12F13442   5.854   5.916   5.620  1.2353 -1.5903  3.2824
  126OSM   H12G13443   5.689   5.892   5.690 -1.3121  1.4344 -0.6467
  126OSM   C13F13444   5.831   6.017   5.804 -0.0773  0.2291  0.0791
  126OSM   H13F13445   5.908   6.092   5.775 -0.7717  0.8552 -0.1869
  126OSM   H13G13446   5.879   5.933   5.860 -1.2464 -0.6616 -0.2161
  126OSM   C14F13447   5.736   6.081   5.904 -0.0771 -0.0231  0.6025
  126OSM   H14F13448   5.658   6.008   5.934  0.1688 -0.6581 -0.2754
  126OSM   H14G13449   5.692   6.176   5.865  2.7779  1.6067  1.0695
  126OSM   C15F13450   5.819   6.135   6.026  0.3549  0.5811 -0.5959
  126OSM   H15F13451   5.904   6.190   5.980 -0.5236  3.0730  0.5995
  126OSM   H15G13452   5.872   6.058   6.085  1.6957  2.5358  0.8577
  126OSM   C16F13453   5.750   6.226   6.124 -0.1289  0.7370 -0.0159
  126OSM   H16F13454   5.704   6.312   6.071  0.2264  0.3136 -1.0315
  126OSM   H16G13455   5.818   6.264   6.204  0.5688  0.5201 -0.4928
  126OSM   C17F13456   5.638   6.139   6.195 -0.1768 -0.1397 -0.2467
  126OSM   H17F13457   5.687   6.067   6.264  0.2650  1.1272  0.8000
  126OSM   H17G13458   5.574   6.080   6.125  1.5625 -1.7575 -0.5563
  126OSM   C18F13459   5.550   6.236   6.271 -0.7730  0.2007 -0.1507
  126OSM   H18F13460   5.598   6.276   6.364 -0.5686  0.6878 -0.4594
  126OSM   H18G13461   5.467   6.177   6.315  1.8830 -3.6821  0.1019
  126OSM   H18H13462   5.531   6.331   6.217 -2.4308  0.3038  0.5400
  127OSM      N13463   4.248   0.834   4.107  0.0677  0.5065  0.3642
  127OSM    C1513464   4.268   0.964   4.039 -0.4033 -0.0242 -0.3163
  127OSM   H15A13465   4.289   0.943   3.935  0.4295 -0.3241 -0.0922
  127OSM   H15B13466   4.353   1.013   4.082 -0.0274 -1.2166  0.3263
  127OSM   H15C13467   4.183   1.031   4.045  1.5418  2.5213  0.4283
  127OSM    C1413468   4.243   0.866   4.249  0.3024  0.2672 -0.5472
  127OSM   H14A13469   4.323   0.929   4.287 -0.6041  1.5632 -0.7458
  127OSM   H14B13470   4.233   0.778   4.310  0.5059 -0.9931 -2.2677
  127OSM   H14C13471   4.152   0.919   4.272  0.0079 -0.9978  1.4961
  127OSM    C1313472   4.117   0.780   4.063  0.5237  0.1914  0.4656
  127OSM   H13A13473   4.032   0.845   4.076  1.0840  0.8063  1.1315
  127OSM   H13B13474   4.097   0.689   4.117 -2.5718  0.1168 -0.6309
  127OSM   H13C13475   4.131   0.752   3.960 -0.8021  1.2683 -0.0425
  127OSM    C1213476   4.358   0.734   4.091  0.3456 -0.3031 -0.7581
  127OSM   H12A13477   4.450   0.772   4.135  0.4075 -1.2726 -0.0138
  127OSM   H12B13478   4.370   0.715   3.985  0.2255 -1.1342 -0.6320
  127OSM    C1113479   4.339   0.595   4.171  0.7342  0.3637  0.2049
  127OSM   H11A13480   4.391   0.514   4.116 -1.8843 -0.8944 -0.5710
  127OSM   H11B13481   4.231   0.572   4.180  0.9381 -0.7875 -0.2065
  127OSM      P13482   4.548   0.623   4.328 -0.7402  0.2938 -0.1419
  127OSM    O1313483   4.630   0.518   4.265  0.1939  0.7206 -0.2299
  127OSM    O1413484   4.579   0.765   4.299  0.6339 -0.5064  0.2946
  127OSM    O1113485   4.543   0.604   4.484 -0.6719 -0.0554 -0.0972
  127OSM    O1213486   4.393   0.602   4.302 -0.4191  0.2275  0.9408
  127OSM    C1S13487   4.665   0.628   4.562  0.0586  0.2430 -0.2775
  127OSM    H1S13488   4.703   0.731   4.550 -0.3148  0.5743  1.1858
  127OSM    H1T13489   4.741   0.555   4.526  3.1339  2.3317  1.5072
  127OSM     NF13490   4.769   0.574   4.771 -0.3153 -0.4812 -0.2869
  127OSM    HNF13491   4.797   0.482   4.795 -3.3944 -1.4411  0.0966
  127OSM    C2S13492   4.644   0.588   4.709  0.1457  0.1827 -0.7069
  127OSM    H2S13493   4.589   0.673   4.755 -2.2417 -1.3080 -0.6796
  127OSM    C3S13494   4.553   0.458   4.726  0.5692 -0.4285 -0.2425
  127OSM    H3S13495   4.605   0.380   4.665  0.0809 -0.7456 -0.2557
  127OSM     O313496   4.423   0.465   4.665 -0.4860  0.4393  0.1119
  127OSM    HO313497   4.431   0.527   4.592  2.1924 -0.6719 -0.6334
  127OSM    C4S13498   4.548   0.416   4.865 -0.2348 -1.1913 -0.3561
  127OSM    H4S13499   4.612   0.333   4.900 -2.3415 -1.7206  2.6465
  127OSM    C5S13500   4.482   0.483   4.960  0.0320 -0.0976 -0.2245
  127OSM    H5S13501   4.425   0.575   4.939 -0.9238 -0.9376 -1.4739
  127OSM    C6S13502   4.483   0.452   5.110  0.1083  0.7257  0.4566
  127OSM    H6S13503   4.544   0.361   5.128 -1.0981 -0.1825  0.0864
  127OSM    H6T13504   4.376   0.423   5.120 -0.5724  1.3783 -3.2473
  127OSM    C7S13505   4.525   0.561   5.203 -0.8377 -0.2254 -0.1259
  127OSM    H7S13506   4.505   0.536   5.310  1.1015  0.3721  0.4027
  127OSM    H7T13507   4.479   0.656   5.170 -0.2289  0.5355  1.1730
  127OSM    C8S13508   4.675   0.584   5.187  1.0795 -0.1712 -0.9308
  127OSM    H8S13509   4.700   0.597   5.080  0.5612  1.4639 -0.8796
  127OSM    H8T13510   4.739   0.497   5.212  2.8027  0.6585 -2.2106
  127OSM    C9S13511   4.724   0.715   5.261  0.3023 -0.5821 -0.1172
  127OSM    H9S13512   4.654   0.799   5.239  0.7481  0.6262  2.6108
  127OSM    H9T13513   4.827   0.736   5.227  1.0105 -0.2643  2.0398
  127OSM   C10S13514   4.737   0.716   5.421 -0.5321  0.1876 -0.4544
  127OSM   H10S13515   4.635   0.701   5.463  0.9703  0.4177  3.6609
  127OSM   H10T13516   4.756   0.822   5.446  1.5270 -0.4932  1.0871
  127OSM   C11S13517   4.836   0.629   5.487 -0.3862 -0.2969  0.3111
  127OSM   H11S13518   4.937   0.661   5.451 -0.5640  0.5659  0.5542
  127OSM   H11T13519   4.818   0.525   5.452 -1.4166 -0.2871  0.7871
  127OSM   C12S13520   4.828   0.623   5.641 -0.3680  0.1123  0.3557
  127OSM   H12S13521   4.726   0.589   5.670  0.1175 -1.7029  0.1019
  127OSM   H12T13522   4.854   0.726   5.673  1.9072 -0.1965 -0.3180
  127OSM   C13S13523   4.941   0.542   5.707  0.5315 -0.9534  0.5047
  127OSM   H13S13524   5.033   0.593   5.673 -0.2342  1.0422  1.2985
  127OSM   H13T13525   4.949   0.437   5.672  3.1536 -0.9968  1.0463
  127OSM   C14S13526   4.928   0.546   5.862  0.1923 -0.0866  0.6265
  127OSM   H14S13527   4.829   0.514   5.901 -0.0571  2.0673  1.8759
  127OSM   H14T13528   4.927   0.653   5.892 -0.7928  0.5338 -1.4335
  127OSM   C15S13529   5.039   0.459   5.926  0.4581 -0.3792  0.8419
  127OSM   H15S13530   5.141   0.478   5.887 -0.2144  1.2610 -0.2440
  127OSM   H15T13531   5.012   0.359   5.885 -1.7220  0.5270 -0.1216
  127OSM   C16S13532   5.026   0.445   6.075 -0.1047 -0.4489 -0.0086
  127OSM   H16S13533   4.927   0.403   6.099 -0.4840 -0.2952 -1.2293
  127OSM   H16T13534   5.036   0.541   6.130 -1.3774  0.1870 -0.8472
  127OSM   C17S13535   5.125   0.346   6.134  0.0418 -0.0040 -0.0704
  127OSM   H17S13536   5.221   0.402   6.138  0.0206 -0.0114  0.6840
  127OSM   H17T13537   5.132   0.251   6.077 -2.7491 -1.1525  1.3069
  127OSM   C18S13538   5.094   0.312   6.275  0.4427  0.6300 -0.3240
  127OSM   H18S13539   5.192   0.292   6.323  0.5274  0.8771 -0.3943
  127OSM   H18T13540   5.023   0.227   6.288  1.3274  0.0158  0.6648
  127OSM   H18U13541   5.031   0.387   6.327  0.6630  0.5088  0.1260
  127OSM    C1F13542   4.839   0.679   4.796  0.1089 -0.6733  0.3115
  127OSM     OF13543   4.790   0.788   4.767  0.0753 -0.0051  0.2502
  127OSM    C2F13544   4.977   0.664   4.850  0.3062  1.0927  0.0142
  127OSM    H2F13545   5.038   0.618   4.770  0.0956  1.2957 -0.2629
  127OSM    H2G13546   4.963   0.600   4.940 -3.2146  1.1182 -0.3815
  127OSM    C3F13547   5.029   0.801   4.887  0.3363 -0.3905  0.2854
  127OSM    H3F13548   4.947   0.840   4.951  1.1055 -0.8656  1.6133
  127OSM    H3G13549   5.024   0.862   4.794 -1.7798 -2.9196 -1.4062
  127OSM    C4F13550   5.169   0.794   4.953  0.0301  0.6909 -0.8209
  127OSM    H4F13551   5.227   0.886   4.973  0.0899  0.7420 -1.2436
  127OSM    H4G13552   5.245   0.737   4.896 -0.5163  0.2905 -1.1601
  127OSM    C5F13553   5.158   0.723   5.092 -0.1723  0.2622 -0.3263
  127OSM    H5F13554   5.121   0.619   5.084  2.1798 -0.6783  0.1874
  127OSM    H5G13555   5.075   0.767   5.152  2.2837  1.7451  2.2051
  127OSM    C6F13556   5.282   0.727   5.182 -0.1659 -0.6689 -0.5756
  127OSM    H6F13557   5.305   0.835   5.194  0.4152 -1.0132  2.1163
  127OSM    H6G13558   5.371   0.682   5.133  0.6437 -0.2942  0.5147
  127OSM    C7F13559   5.259   0.672   5.323 -0.1711  0.9827  0.3520
  127OSM    H7F13560   5.215   0.572   5.303 -0.9481  1.2109  0.8793
  127OSM    H7G13561   5.177   0.733   5.366  0.5128  1.9794  0.2928
  127OSM    C8F13562   5.377   0.651   5.420 -0.2879 -0.0150  0.5347
  127OSM    H8F13563   5.466   0.619   5.363 -0.1579  0.2695  0.5728
  127OSM    H8G13564   5.344   0.572   5.491 -1.6974  0.5006  0.4958
  127OSM    C9F13565   5.416   0.777   5.489 -0.1612  0.3860  0.0218
  127OSM    H9F13566   5.467   0.843   5.417  1.6112 -3.0882 -2.2055
  127OSM   C10F13567   5.395   0.819   5.615  0.1790  0.2670  0.2913
  127OSM   H10F13568   5.409   0.927   5.632  1.0903  0.3346 -0.7479
  127OSM   C11F13569   5.318   0.737   5.724  0.2877  0.2695 -0.2834
  127OSM   H11F13570   5.316   0.629   5.699 -2.0667 -0.2920  1.9501
  127OSM   H11G13571   5.212   0.770   5.730 -0.0122 -0.5195 -1.0113
  127OSM   C12F13572   5.385   0.759   5.862 -0.1875  0.3450  0.6212
  127OSM   H12F13573   5.331   0.700   5.939  0.2700 -1.1419 -0.1572
  127OSM   H12G13574   5.376   0.867   5.889 -3.5479  0.5364 -0.8021
  127OSM   C13F13575   5.536   0.720   5.863  0.9659  0.3836  0.1846
  127OSM   H13F13576   5.561   0.723   5.971 -1.3813  0.6710  0.7623
  127OSM   H13G13577   5.594   0.799   5.810  2.6748  0.0547  1.4744
  127OSM   C14F13578   5.553   0.575   5.806 -0.4351 -0.2027  0.4155
  127OSM   H14F13579   5.531   0.559   5.698 -1.1175 -1.3800  0.7135
  127OSM   H14G13580   5.464   0.522   5.845 -1.3612  1.0175  0.0319
  127OSM   C15F13581   5.684   0.506   5.846  0.4680  0.0560 -0.1346
  127OSM   H15F13582   5.772   0.558   5.802  1.5274 -1.1663  0.4945
  127OSM   H15G13583   5.682   0.407   5.796 -4.4337  0.0240 -0.3351
  127OSM   C16F13584   5.694   0.479   5.991  0.0547  0.1484  0.1123
  127OSM   H16F13585   5.605   0.424   6.028  1.4337 -1.7720  0.7355
  127OSM   H16G13586   5.698   0.574   6.048  0.2205 -0.0132  0.3683
  127OSM   C17F13587   5.803   0.382   6.042 -0.0868 -0.1343 -0.9513
  127OSM   H17F13588   5.901   0.428   6.019 -0.3658  2.3157  2.1077
  127OSM   H17G13589   5.802   0.294   5.974  1.5873 -0.4655 -0.5875
  127OSM   C18F13590   5.792   0.350   6.191  0.0557 -0.1107  0.4241
  127OSM   H18F13591   5.871   0.278   6.223  0.9308  1.0752  1.0139
  127OSM   H18G13592   5.692   0.308   6.214 -1.1266  2.0072 -0.5270
  127OSM   H18H13593   5.800   0.444   6.250  0.1817  0.6533 -0.7786
  128OSM      N13594   6.679   1.679   3.980 -0.1099 -0.4484 -0.0731
  128OSM    C1513595   6.688   1.660   3.828  0.5283 -0.0491  0.1920
  128OSM   H15A13596   6.771   1.596   3.801  0.6219  0.1254  0.0622
  128OSM   H15B13597   6.706   1.758   3.787 -0.7362  0.2183  0.2436
  128OSM   H15C13598   6.595   1.622   3.790 -0.1748  0.7283  1.0984
  128OSM    C1413599   6.802   1.757   4.019  0.2465 -0.0869 -0.0808
  128OSM   H14A13600   6.887   1.699   3.985  1.1844  2.8689 -3.3985
  128OSM   H14B13601   6.817   1.760   4.126  1.1145 -0.9104 -0.1578
  128OSM   H14C13602   6.820   1.854   3.976 -2.1261  0.5551  0.2771
  128OSM    C1313603   6.557   1.769   4.000 -0.0427  0.1437 -0.1200
  128OSM   H13A13604   6.583   1.874   4.010  0.0071  0.0947  0.2765
  128OSM   H13B13605   6.502   1.743   4.089 -0.5637 -1.0793 -0.7813
  128OSM   H13C13606   6.499   1.751   3.911 -2.0573 -1.1825  1.3869
  128OSM    C1213607   6.652   1.552   4.053 -0.3058  0.0051  0.6441
  128OSM   H12A13608   6.741   1.491   4.041 -0.0006  0.6654 -0.6233
  128OSM   H12B13609   6.577   1.495   4.000 -0.3862 -1.6367  2.4092
  128OSM    C1113610   6.607   1.558   4.202  0.6039 -0.3079 -0.4631
  128OSM   H11A13611   6.676   1.625   4.259  0.4568 -0.5290 -0.0152
  128OSM   H11B13612   6.618   1.457   4.247  0.6245  0.3620  1.1330
  128OSM      P13613   6.353   1.513   4.188  0.4456 -0.3145 -0.0646
  128OSM    O1313614   6.245   1.586   4.129  0.5131 -0.1813  0.0813
  128OSM    O1413615   6.402   1.398   4.106  0.5536 -0.5062 -0.0402
  128OSM    O1113616   6.312   1.461   4.333  0.3579  0.0571 -0.4752
  128OSM    O1213617   6.472   1.607   4.219  0.1976  0.0483 -0.2765
  128OSM    C1S13618   6.406   1.387   4.415 -0.4651  0.4294 -0.1688
  128OSM    H1S13619   6.468   1.467   4.460 -0.3181  1.2536 -1.7495
  128OSM    H1T13620   6.461   1.311   4.356  0.4791 -1.2883  2.7024
  128OSM     NF13621   6.418   1.259   4.637  0.3762  0.5219 -0.1236
  128OSM    HNF13622   6.420   1.160   4.651 -2.1546  0.0701 -2.2959
  128OSM    C2S13623   6.335   1.308   4.527  0.6712 -0.1563  0.3769
  128OSM    H2S13624   6.269   1.389   4.566 -0.5689 -0.4160 -1.1011
  128OSM    C3S13625   6.236   1.197   4.467 -0.2450  0.4198  0.2118
  128OSM    H3S13626   6.300   1.118   4.422 -1.3998 -0.1170 -0.5326
  128OSM     O313627   6.157   1.235   4.353 -0.5893  0.5172  0.3808
  128OSM    HO313628   6.197   1.322   4.344 -0.1061  0.2978  0.3470
  128OSM    C4S13629   6.155   1.131   4.571 -0.2860  0.0261 -0.2641
  128OSM    H4S13630   6.075   1.188   4.621  1.7675  2.3996  0.4874
  128OSM    C5S13631   6.171   0.999   4.605  0.1817 -0.4252 -0.1402
  128OSM    H5S13632   6.239   0.924   4.563 -1.1712 -1.7764  0.0075
  128OSM    C6S13633   6.092   0.949   4.721  0.1010  0.5641 -0.1267
  128OSM    H6S13634   5.985   0.929   4.698  0.6051 -4.5591  0.8025
  128OSM    H6T13635   6.086   1.015   4.810  1.0972 -3.3252  3.1149
  128OSM    C7S13636   6.149   0.813   4.758 -0.4102  0.1105 -0.2299
  128OSM    H7S13637   6.258   0.813   4.782 -0.4532 -1.8195  0.1309
  128OSM    H7T13638   6.131   0.738   4.679  1.7952  2.1297 -2.8482
  128OSM    C8S13639   6.083   0.746   4.886  0.5685 -0.4504  0.3008
  128OSM    H8S13640   5.974   0.740   4.869  0.2927  3.8256 -0.3616
  128OSM    H8T13641   6.093   0.809   4.977  1.0930  0.6748 -0.5174
  128OSM    C9S13642   6.121   0.604   4.918 -0.3703 -0.1305 -0.1466
  128OSM    H9S13643   6.228   0.605   4.946 -0.1747 -0.6636 -0.8427
  128OSM    H9T13644   6.109   0.534   4.832  0.6308  1.3833 -1.5634
  128OSM   C10S13645   6.046   0.521   5.034 -0.2561 -0.6008 -0.3196
  128OSM   H10S13646   5.938   0.516   5.011 -0.4422  0.0467  0.3611
  128OSM   H10T13647   6.064   0.575   5.130  1.4308  0.0064 -0.9334
  128OSM   C11S13648   6.095   0.374   5.031 -0.3498  0.1853 -0.1048
  128OSM   H11S13649   6.170   0.353   4.952  0.4534  2.3454  0.0027
  128OSM   H11T13650   6.012   0.306   5.001 -0.4009 -0.4818  1.4659
  128OSM   C12S13651   6.165   0.322   5.157 -0.3714  0.3385  0.9693
  128OSM   H12S13652   6.204   0.219   5.146 -1.7288 -0.2337  1.3020
  128OSM   H12T13653   6.109   0.321   5.254 -0.6623 -1.0218  0.8020
  128OSM   C13S13654   6.292   0.409   5.177 -0.3986  0.1232 -0.2089
  128OSM   H13S13655   6.269   0.516   5.197  1.6051  0.4597  0.5438
  128OSM   H13T13656   6.366   0.408   5.095 -1.8491 -2.2304 -1.5986
  128OSM   C14S13657   6.373   0.368   5.307  0.7269 -0.6623 -0.1282
  128OSM   H14S13658   6.404   0.261   5.307 -0.0643 -0.9182 -1.0289
  128OSM   H14T13659   6.308   0.377   5.396  4.6947 -2.3936  3.2713
  128OSM   C15S13660   6.494   0.451   5.318 -1.2133  0.4861 -0.0290
  128OSM   H15S13661   6.453   0.538   5.374 -0.4485  0.7555  0.1156
  128OSM   H15T13662   6.521   0.488   5.217  1.6767 -2.7863 -0.6634
  128OSM   C16S13663   6.618   0.390   5.390  0.0234 -0.2861  0.7909
  128OSM   H16S13664   6.660   0.308   5.328 -0.4325 -0.5495  0.8255
  128OSM   H16T13665   6.596   0.356   5.493  1.0210 -4.4090 -0.1703
  128OSM   C17S13666   6.729   0.499   5.405  0.1548 -0.1495  0.2579
  128OSM   H17S13667   6.709   0.564   5.492  0.3742 -1.8262  1.6027
  128OSM   H17T13668   6.728   0.554   5.308 -1.2327  0.7421  0.7441
  128OSM   C18S13669   6.867   0.433   5.420  0.3324 -0.4340  0.5817
  128OSM   H18S13670   6.868   0.364   5.507  0.1575 -2.1269 -0.7199
  128OSM   H18T13671   6.948   0.509   5.426  0.2402 -0.4316  2.0274
  128OSM   H18U13672   6.888   0.360   5.339 -0.0065 -1.4779  1.4138
  128OSM    C1F13673   6.476   1.340   4.719  0.1019 -0.2217 -0.6614
  128OSM     OF13674   6.489   1.457   4.690 -0.4583 -0.0224  0.2590
  128OSM    C2F13675   6.532   1.291   4.851  0.6083  0.3744 -0.0397
  128OSM    H2F13676   6.634   1.249   4.837 -0.1774 -2.1886  1.2957
  128OSM    H2G13677   6.464   1.209   4.884 -0.4226  0.4679 -1.7874
  128OSM    C3F13678   6.533   1.387   4.972  0.6834  0.1014 -0.7537
  128OSM    H3F13679   6.431   1.425   4.992  1.0168  1.3931 -1.4117
  128OSM    H3G13680   6.603   1.471   4.955  0.4426  0.6529  0.8171
  128OSM    C4F13681   6.598   1.304   5.093  0.2858 -1.2640 -0.4587
  128OSM    H4F13682   6.697   1.274   5.053 -0.1714 -0.7342 -2.0507
  128OSM    H4G13683   6.539   1.212   5.113 -0.3773 -0.5839  0.9043
  128OSM    C5F13684   6.616   1.390   5.218  0.6550 -0.0703  0.6006
  128OSM    H5F13685   6.521   1.430   5.260  0.0890  0.3553 -1.0168
  128OSM    H5G13686   6.676   1.481   5.201  1.4693 -0.6049  0.5525
  128OSM    C6F13687   6.675   1.303   5.330 -0.0220 -0.0295 -0.0645
  128OSM    H6F13688   6.771   1.260   5.294 -0.7919  0.3858 -2.8305
  128OSM    H6G13689   6.602   1.226   5.363  0.5065 -0.6980 -0.4265
  128OSM    C7F13690   6.714   1.399   5.444  0.3944  0.3343 -0.3550
  128OSM    H7F13691   6.626   1.463   5.466  0.1716  0.3794 -1.3221
  128OSM    H7G13692   6.801   1.462   5.418  0.8184 -0.0113  0.2127
  128OSM    C8F13693   6.742   1.344   5.587 -0.1883  0.3049  0.2229
  128OSM    H8F13694   6.770   1.440   5.636 -3.7423  1.7412 -0.2537
  128OSM    H8G13695   6.834   1.282   5.584  1.6749  2.8456  0.7153
  128OSM    C9F13696   6.638   1.271   5.663  0.4918 -0.2908 -0.1165
  128OSM    H9F13697   6.556   1.226   5.606  0.3550  2.0401 -1.9276
  128OSM   C10F13698   6.626   1.255   5.796 -0.2449  0.0014 -0.2353
  128OSM   H10F13699   6.537   1.202   5.831 -0.5152 -1.0281 -2.3153
  128OSM   C11F13700   6.705   1.317   5.909 -0.5051  1.0398  0.2886
  128OSM   H11F13701   6.774   1.395   5.871  0.9744  0.3280  1.4362
  128OSM   H11G13702   6.779   1.248   5.955 -0.7958 -0.3454 -1.2301
  128OSM   C12F13703   6.608   1.372   6.018  0.5207  0.3967 -1.2165
  128OSM   H12F13704   6.565   1.288   6.077  2.7406  0.2113  0.2710
  128OSM   H12G13705   6.527   1.436   5.978 -0.0431  1.3275  1.2484
  128OSM   C13F13706   6.676   1.475   6.113 -0.3403  1.3716  0.2591
  128OSM   H13F13707   6.596   1.525   6.172  0.6661  1.2798  1.7328
  128OSM   H13G13708   6.728   1.547   6.046  0.6556  0.4812  0.0507
  128OSM   C14F13709   6.785   1.398   6.208  0.8077  0.3132  0.2455
  128OSM   H14F13710   6.837   1.329   6.138  3.4452  0.3605  2.0056
  128OSM   H14G13711   6.729   1.338   6.283 -1.9991 -1.0973 -2.7169
  128OSM   C15F13712   6.886   1.492   6.277  0.2824 -0.1588  0.5864
  128OSM   H15F13713   6.845   1.587   6.317  2.6658  0.5239  1.6063
  128OSM   H15G13714   6.950   1.523   6.191  0.2990 -0.1890  0.5874
  128OSM   C16F13715   6.962   1.417   6.383 -0.0285  0.6507 -0.4657
  128OSM   H16F13716   7.060   1.461   6.408 -0.0823  0.9784 -0.8267
  128OSM   H16G13717   6.976   1.315   6.341  0.8893  0.2821  0.6797
  128OSM   C17F13718   6.890   1.415   6.513  0.0297 -0.0209 -0.0036
  128OSM   H17F13719   6.780   1.408   6.500 -0.0691  0.3392  0.5794
  128OSM   H17G13720   6.911   1.515   6.558 -2.0790  0.9122 -0.9908
  128OSM   C18F13721   6.928   1.297   6.604  0.2685  0.2388 -0.0108
  128OSM   H18F13722   7.039   1.294   6.609  0.2473  0.8764  1.1910
  128OSM   H18G13723   6.879   1.201   6.579 -0.6590  0.4043  1.0722
  128OSM   H18H13724   6.893   1.317   6.707 -0.4974  1.0538 -0.4167
  129OSM      N13725   0.841   4.268   4.406  0.1689  0.0177 -0.7263
  129OSM    C1513726   0.722   4.330   4.330 -0.8991 -0.2511 -0.5023
  129OSM   H15A13727   0.656   4.255   4.288 -2.5071  0.4299  0.6716
  129OSM   H15B13728   0.763   4.393   4.253  2.3613  0.0649  1.3037
  129OSM   H15C13729   0.655   4.381   4.399 -2.5495 -2.1839 -0.5707
  129OSM    C1413730   0.961   4.281   4.318 -0.1542 -0.4599  0.1949
  129OSM   H14A13731   1.055   4.266   4.369  0.8189  0.7943 -1.1495
  129OSM   H14B13732   0.957   4.381   4.276 -1.9898  0.1918  1.7724
  129OSM   H14C13733   0.957   4.220   4.230 -1.4842 -0.2983  0.1289
  129OSM    C1313734   0.859   4.328   4.545  0.7256 -0.0867 -0.8385
  129OSM   H13A13735   0.881   4.434   4.536 -0.0758  0.1528 -0.0520
  129OSM   H13B13736   0.954   4.301   4.590  1.7865  3.7579 -0.3300
  129OSM   H13C13737   0.768   4.311   4.600  1.4923  0.3331  0.6050
  129OSM    C1213738   0.813   4.116   4.410 -0.6575 -0.0682 -0.2825
  129OSM   H12A13739   0.898   4.055   4.436 -1.3631 -0.5564  0.9716
  129OSM   H12B13740   0.793   4.087   4.308 -2.9307  3.2022 -0.9368
  129OSM    C1113741   0.690   4.075   4.497  0.8794 -0.2426  1.0836
  129OSM   H11A13742   0.707   4.104   4.603 -0.8270  1.1010  1.0463
  129OSM   H11B13743   0.694   3.964   4.505  1.1652 -0.3055  0.2077
  129OSM      P13744   0.462   4.209   4.531 -0.0737  0.2000 -0.4927
  129OSM    O1313745   0.411   4.319   4.444  0.0982 -0.0650  0.3602
  129OSM    O1413746   0.357   4.120   4.583  0.0874  1.0084  0.2992
  129OSM    O1113747   0.545   4.271   4.656 -0.2552  0.1463 -0.0232
  129OSM    O1213748   0.568   4.125   4.439 -0.1509  0.1810 -0.3408
  129OSM    C1S13749   0.492   4.370   4.742 -0.5099  1.1512  0.3237
  129OSM    H1S13750   0.408   4.430   4.700  1.6919  2.4353 -2.5577
  129OSM    H1T13751   0.562   4.455   4.757  0.2335  0.4139  1.1563
  129OSM     NF13752   0.393   4.434   4.965  0.0496 -0.4474 -0.4763
  129OSM    HNF13753   0.446   4.494   5.024 -0.2898 -1.2223  0.6729
  129OSM    C2S13754   0.460   4.323   4.892 -0.2335 -0.5124 -0.1209
  129OSM    H2S13755   0.383   4.243   4.890 -3.1114  2.0726 -0.2305
  129OSM    C3S13756   0.593   4.272   4.951  0.8081 -0.4975 -0.0297
  129OSM    H3S13757   0.658   4.362   4.951  0.1059  0.0211  0.1177
  129OSM     O313758   0.659   4.175   4.870 -0.6291  0.9385 -0.5103
  129OSM    HO313759   0.613   4.185   4.786 -0.9834  0.5116 -0.3757
  129OSM    C4S13760   0.579   4.229   5.091 -0.5510  0.5991  0.3964
  129OSM    H4S13761   0.623   4.292   5.169 -0.9643 -1.1666  2.1374
  129OSM    C5S13762   0.540   4.107   5.125  0.3214  0.8416 -0.7765
  129OSM    H5S13763   0.514   4.036   5.046  0.0068  0.2044 -0.1043
  129OSM    C6S13764   0.553   4.048   5.263  0.1294 -0.4470 -0.4227
  129OSM    H6S13765   0.621   3.961   5.257 -0.3644 -1.0098  1.4709
  129OSM    H6T13766   0.456   4.000   5.289 -0.1527 -0.8571 -2.1142
  129OSM    C7S13767   0.583   4.143   5.376  0.5852  0.0726 -0.4874
  129OSM    H7S13768   0.513   4.228   5.365 -0.3780 -0.1954  2.5014
  129OSM    H7T13769   0.688   4.181   5.380 -0.0622  1.8415  0.6996
  129OSM    C8S13770   0.545   4.078   5.503 -0.1862 -0.2769 -0.4911
  129OSM    H8S13771   0.590   3.977   5.512 -1.7405 -1.0109 -0.6863
  129OSM    H8T13772   0.436   4.068   5.520 -0.2162  0.1591 -0.4091
  129OSM    C9S13773   0.604   4.163   5.621  0.1891  0.0529 -0.1616
  129OSM    H9S13774   0.575   4.269   5.610  2.3351  0.5235 -1.8401
  129OSM    H9T13775   0.714   4.153   5.621  0.0749 -1.5094  0.4270
  129OSM   C10S13776   0.556   4.105   5.756 -0.1546 -0.1979  0.3620
  129OSM   H10S13777   0.564   3.995   5.744 -0.3480 -0.4067  1.8962
  129OSM   H10T13778   0.449   4.136   5.764  0.0501  0.1680  2.1547
  129OSM   C11S13779   0.628   4.178   5.869  0.3603 -0.6933  0.3459
  129OSM   H11S13780   0.646   4.281   5.832 -1.3909 -0.9780 -1.5361
  129OSM   H11T13781   0.732   4.141   5.883  1.7493  2.6976 -0.1456
  129OSM   C12S13782   0.566   4.167   6.006  0.5485 -0.7296 -0.2563
  129OSM   H12S13783   0.562   4.267   6.055 -1.8874 -0.4370 -0.8845
  129OSM   H12T13784   0.631   4.108   6.072  0.8281 -0.4441 -0.2737
  129OSM   C13S13785   0.424   4.107   6.026 -0.7792  0.3696 -0.1482
  129OSM   H13S13786   0.417   4.009   5.973  2.3033  0.0624 -0.2215
  129OSM   H13T13787   0.354   4.178   5.978 -0.9284  0.5804  0.3793
  129OSM   C14S13788   0.385   4.093   6.178 -0.4989  0.2407 -0.0390
  129OSM   H14S13789   0.394   4.186   6.237 -0.7579 -0.6689  1.4790
  129OSM   H14T13790   0.457   4.021   6.223 -1.0890 -0.5227 -0.2751
  129OSM   C15S13791   0.241   4.058   6.213  0.3786  0.1102  0.3732
  129OSM   H15S13792   0.230   3.960   6.162  2.6776 -0.9977  1.8638
  129OSM   H15T13793   0.186   4.140   6.162  0.3627 -0.5847 -0.7802
  129OSM   C16S13794   0.203   4.037   6.359  0.1049 -0.2720 -0.8107
  129OSM   H16S13795   0.202   4.137   6.408 -0.2627 -1.4014  1.6753
  129OSM   H16T13796   0.289   3.978   6.397 -0.0408  0.5366  0.8810
  129OSM   C17S13797   0.071   3.967   6.379 -0.0139  0.0794  0.9683
  129OSM   H17S13798   0.080   3.865   6.337 -0.9233  0.3617  0.0314
  129OSM   H17T13799  -0.002   4.026   6.318  0.6843  0.0965  0.1281
  129OSM   C18S13800   0.040   3.953   6.527  0.8168  0.0361 -0.2135
  129OSM   H18S13801  -0.043   3.881   6.543  1.3166 -0.9231 -1.7090
  129OSM   H18T13802   0.016   4.051   6.575 -0.1370  0.8762 -2.2702
  129OSM   H18U13803   0.125   3.902   6.577 -1.1232 -0.3796  2.9426
  129OSM    C1F13804   0.269   4.448   4.944  1.0694 -0.1487  0.5316
  129OSM     OF13805   0.202   4.384   4.860 -0.2941 -0.0439 -0.1984
  129OSM    C2F13806   0.206   4.550   5.041 -0.9008  0.5257  0.1337
  129OSM    H2F13807   0.194   4.649   4.993 -0.5833  1.4524  1.8703
  129OSM    H2G13808   0.275   4.551   5.129 -0.9113  0.6093  0.1410
  129OSM    C3F13809   0.072   4.487   5.092 -0.1131  0.1671 -0.3614
  129OSM    H3F13810   0.090   4.389   5.141  2.3658  1.0163  0.5920
  129OSM    H3G13811  -0.013   4.480   5.020  0.0302  1.7196 -0.6992
  129OSM    C4F13812   0.006   4.599   5.187 -0.3412  0.6572  0.9345
  129OSM    H4F13813  -0.101   4.583   5.209 -1.0522  3.1161 -0.3453
  129OSM    H4G13814   0.016   4.693   5.128 -1.4823  0.1225 -0.1407
  129OSM    C5F13815   0.079   4.605   5.314 -0.4772  0.1259 -0.1195
  129OSM    H5F13816   0.167   4.673   5.318  0.3845 -1.0240  1.0215
  129OSM    H5G13817   0.109   4.500   5.335 -0.9327  0.0599  0.2128
  129OSM    C6F13818  -0.005   4.653   5.437 -1.3462 -0.3554  0.2806
  129OSM    H6F13819  -0.074   4.569   5.461  0.0919 -1.9715 -1.0118
  129OSM    H6G13820  -0.062   4.739   5.394  0.8226  1.3386  0.6007
  129OSM    C7F13821   0.060   4.706   5.566  0.2201 -0.2865 -0.2841
  129OSM    H7F13822   0.109   4.805   5.555 -1.6139  0.4694 -2.3557
  129OSM    H7G13823   0.139   4.630   5.587  0.3176  0.3991  2.1297
  129OSM    C8F13824  -0.041   4.707   5.682 -0.2736 -0.7855 -0.8650
  129OSM    H8F13825  -0.093   4.610   5.689 -1.7340 -0.1087 -1.8607
  129OSM    H8G13826  -0.118   4.782   5.652  1.2756  1.1662 -0.2235
  129OSM    C9F13827   0.038   4.748   5.806 -0.6063 -0.1509  0.5436
  129OSM    H9F13828   0.095   4.842   5.804  1.4176 -1.3255  0.3564
  129OSM   C10F13829   0.052   4.675   5.922  0.4092  0.0324  0.2241
  129OSM   H10F13830   0.117   4.713   6.002 -0.0706 -0.7561  1.0064
  129OSM   C11F13831  -0.026   4.548   5.959  0.2147  0.3625 -0.6119
  129OSM   H11F13832  -0.031   4.491   5.864 -0.0881  0.9669 -0.9641
  129OSM   H11G13833  -0.132   4.553   5.991 -0.6954 -1.5880 -3.0340
  129OSM   C12F13834   0.031   4.462   6.086  0.1750  0.4991  0.2630
  129OSM   H12F13835   0.124   4.413   6.049 -1.8828 -1.4516 -2.7771
  129OSM   H12G13836  -0.044   4.384   6.108  0.6420  0.0900  0.4396
  129OSM   C13F13837   0.049   4.541   6.213 -0.5135 -0.1492 -0.0819
  129OSM   H13F13838  -0.050   4.587   6.231  0.3008  1.9096 -0.5720
  129OSM   H13G13839   0.119   4.627   6.204 -0.4658 -0.3051 -1.3591
  129OSM   C14F13840   0.082   4.445   6.328  0.3301  0.6148 -0.0831
  129OSM   H14F13841   0.160   4.373   6.295  0.6143  0.7338  0.3221
  129OSM   H14G13842  -0.013   4.389   6.338  0.4867  0.3055 -0.3045
  129OSM   C15F13843   0.126   4.514   6.457 -0.1036  0.9551  0.3762
  129OSM   H15F13844   0.042   4.581   6.484 -1.0116  0.1295 -0.3611
  129OSM   H15G13845   0.213   4.584   6.454 -2.5605  4.2842 -3.0471
  129OSM   C16F13846   0.149   4.420   6.576 -0.1643 -0.6572  0.0734
  129OSM   H16F13847   0.227   4.343   6.556 -1.7902 -1.8940 -1.8511
  129OSM   H16G13848   0.052   4.374   6.602 -0.9073  0.1267 -1.1986
  129OSM   C17F13849   0.202   4.503   6.689  0.3009  0.2230  0.1947
  129OSM   H17F13850   0.309   4.532   6.683 -0.3382  2.9168  0.6372
  129OSM   H17G13851   0.192   4.434   6.775  1.7553 -0.6066 -0.2594
  129OSM   C18F13852   0.113   4.615   6.715 -0.2563 -0.8053 -0.1505
  129OSM   H18F13853   0.132   4.701   6.647 -1.9676 -0.5256 -0.3378
  129OSM   H18G13854   0.108   4.654   6.819  0.0287 -0.1780 -0.3669
  129OSM   H18H13855   0.007   4.590   6.692 -1.3561  4.2035 -1.9124
  130OSM      N13856   6.425   2.764   4.092 -0.0111  0.4631  0.1399
  130OSM    C1513857   6.537   2.839   4.161  0.3520 -0.4191  0.2191
  130OSM   H15A13858   6.604   2.763   4.199  0.1110 -0.6526  0.1760
  130OSM   H15B13859   6.494   2.893   4.244  0.1453 -1.1184  0.5707
  130OSM   H15C13860   6.592   2.885   4.080 -1.3237 -1.8986 -1.8533
  130OSM    C1413861   6.484   2.674   3.994 -0.0688 -0.4936 -0.1855
  130OSM   H14A13862   6.542   2.590   4.030 -0.9171 -0.7064  0.7364
  130OSM   H14B13863   6.548   2.737   3.934 -0.2938  0.7257  0.8265
  130OSM   H14C13864   6.405   2.643   3.928 -1.0278 -0.0416  0.7280
  130OSM    C1313865   6.346   2.672   4.185 -0.1337  0.2135 -0.6586
  130OSM   H13A13866   6.405   2.586   4.210  0.4723  0.5626 -0.8759
  130OSM   H13B13867   6.261   2.635   4.130  0.0508 -0.8099 -0.2828
  130OSM   H13C13868   6.308   2.721   4.274 -0.1813  0.7529 -0.9688
  130OSM    C1213869   6.330   2.859   4.022 -0.3034  0.5199 -0.2051
  130OSM   H12A13870   6.394   2.906   3.948  1.0683  1.6172  1.6063
  130OSM   H12B13871   6.299   2.935   4.091 -1.5055 -1.6429  1.7811
  130OSM    C1113872   6.210   2.808   3.936 -0.1553  0.4534 -0.5377
  130OSM   H11A13873   6.227   2.728   3.861 -1.0420 -1.5806  1.3279
  130OSM   H11B13874   6.182   2.903   3.885 -0.0397  1.5987  1.4242
  130OSM      P13875   6.014   2.881   4.095  0.4001 -0.1598  0.1295
  130OSM    O1313876   6.103   2.979   4.164 -0.4323  0.3179 -0.0185
  130OSM    O1413877   5.914   2.930   3.992  0.4674 -0.2330  0.8153
  130OSM    O1113878   5.929   2.802   4.202 -0.4306 -0.2620 -0.5460
  130OSM    O1213879   6.106   2.765   4.028  0.3874  0.1565 -0.1942
  130OSM    C1S13880   5.965   2.793   4.338 -0.7146  0.9611  0.4151
  130OSM    H1S13881   6.076   2.789   4.340 -0.6195  1.9463 -1.1343
  130OSM    H1T13882   5.927   2.696   4.378 -0.1120  0.5258 -0.0435
  130OSM     NF13883   5.962   2.882   4.558 -0.5538  0.0739  0.4726
  130OSM    HNF13884   5.896   2.877   4.632 -0.8886  2.3632  0.3923
  130OSM    C2S13885   5.912   2.905   4.422 -0.8098  0.6787  0.0728
  130OSM    H2S13886   5.957   3.002   4.395  2.3783 -0.0800  2.1494
  130OSM    C3S13887   5.759   2.918   4.411  0.4991  0.2564  0.3382
  130OSM    H3S13888   5.724   2.812   4.419  0.2915  0.3487  0.6740
  130OSM     O313889   5.708   2.951   4.287  0.1560 -0.5480 -0.0299
  130OSM    HO313890   5.747   2.884   4.230  1.5204 -0.7454  1.1056
  130OSM    C4S13891   5.709   3.006   4.523  0.8226  0.6039  0.1473
  130OSM    H4S13892   5.693   2.950   4.617 -1.2569 -0.9143 -1.0108
  130OSM    C5S13893   5.689   3.139   4.524 -0.4425  0.3041  0.1708
  130OSM    H5S13894   5.713   3.194   4.431  2.7906 -0.0066  0.6949
  130OSM    C6S13895   5.637   3.214   4.652  0.0978 -0.1163  0.7818
  130OSM    H6S13896   5.526   3.207   4.654  0.1422 -0.8719  0.9841
  130OSM    H6T13897   5.649   3.323   4.635  0.3216  0.0983  2.1893
  130OSM    C7S13898   5.687   3.168   4.790  0.0651  0.6037 -0.9005
  130OSM    H7S13899   5.798   3.178   4.795  0.1231 -0.5354  1.7625
  130OSM    H7T13900   5.659   3.062   4.808  1.3612  0.1740 -1.3214
  130OSM    C8S13901   5.635   3.270   4.897 -0.0862  0.2639 -0.0342
  130OSM    H8S13902   5.527   3.294   4.887  0.2369  1.1853 -1.7275
  130OSM    H8T13903   5.692   3.360   4.867 -0.6322  0.4493 -0.5617
  130OSM    C9S13904   5.647   3.225   5.043  0.1977 -0.1143 -1.0868
  130OSM    H9S13905   5.751   3.191   5.062  0.4831  1.5349  0.6357
  130OSM    H9T13906   5.587   3.132   5.049 -1.3640  0.9396  1.0518
  130OSM   C10S13907   5.594   3.328   5.141  0.0240 -0.5703  0.2077
  130OSM   H10S13908   5.502   3.373   5.098  1.6423  0.6279 -2.2615
  130OSM   H10T13909   5.668   3.410   5.133  1.9091 -1.8943  2.6998
  130OSM   C11S13910   5.572   3.277   5.287 -0.1228  0.4420  0.5810
  130OSM   H11S13911   5.576   3.167   5.280  2.0824  0.4970  0.2581
  130OSM   H11T13912   5.477   3.318   5.328  0.3167 -1.2598  3.5777
  130OSM   C12S13913   5.684   3.327   5.383 -0.3683  0.6890 -0.4248
  130OSM   H12S13914   5.700   3.435   5.361 -0.7662  0.3080 -2.8762
  130OSM   H12T13915   5.777   3.270   5.365  0.6121  2.4877 -1.3073
  130OSM   C13S13916   5.637   3.321   5.530 -0.8639 -0.0780 -0.8436
  130OSM   H13S13917   5.533   3.361   5.536 -1.1921 -1.1107  2.7032
  130OSM   H13T13918   5.709   3.369   5.599 -0.8099 -1.1682 -0.1245
  130OSM   C14S13919   5.627   3.171   5.582  0.1611 -0.0605  0.4200
  130OSM   H14S13920   5.726   3.120   5.590 -0.8725 -1.9621  2.1648
  130OSM   H14T13921   5.561   3.120   5.509  0.9805 -0.7588  0.1441
  130OSM   C15S13922   5.559   3.161   5.732  0.3920  0.2663 -0.4015
  130OSM   H15S13923   5.476   3.087   5.728 -1.6542  2.2638  1.7694
  130OSM   H15T13924   5.521   3.262   5.758 -1.4957 -0.8192  1.3280
  130OSM   C16S13925   5.661   3.106   5.841 -0.2473 -0.2306  0.0495
  130OSM   H16S13926   5.698   3.009   5.801 -1.9954 -1.1727  0.6203
  130OSM   H16T13927   5.613   3.084   5.939  0.3519 -1.6955  0.0350
  130OSM   C17S13928   5.782   3.197   5.872 -0.1462  0.0468  0.4255
  130OSM   H17S13929   5.741   3.276   5.939  0.3415 -0.3678  1.2261
  130OSM   H17T13930   5.822   3.245   5.780 -0.2300  0.8791  0.8089
  130OSM   C18S13931   5.902   3.124   5.937  0.0568 -0.0225  0.2279
  130OSM   H18S13932   5.970   3.204   5.972  0.6453 -0.6144  0.4435
  130OSM   H18T13933   5.952   3.061   5.860  1.0784 -2.5619  2.8062
  130OSM   H18U13934   5.857   3.053   6.009 -1.2725 -1.4939 -1.9166
  130OSM    C1F13935   6.086   2.879   4.592 -0.0387 -0.0357 -0.3729
  130OSM     OF13936   6.174   2.936   4.524 -0.2375  0.2178  0.0313
  130OSM    C2F13937   6.102   2.816   4.722 -0.5197  0.6301  0.0251
  130OSM    H2F13938   6.105   2.707   4.703 -1.5604  0.8329 -1.5446
  130OSM    H2G13939   6.014   2.838   4.787 -2.1278 -2.6669 -0.8192
  130OSM    C3F13940   6.235   2.860   4.793  0.1186  1.1619  0.2949
  130OSM    H3F13941   6.241   2.970   4.808  0.6479  1.0910  0.6233
  130OSM    H3G13942   6.317   2.822   4.729  1.1311  1.9474  1.0916
  130OSM    C4F13943   6.246   2.789   4.928 -0.2041  0.2950 -0.2188
  130OSM    H4F13944   6.280   2.686   4.902 -0.2610  0.1622  0.2333
  130OSM    H4G13945   6.143   2.790   4.970 -0.1317  5.6513  0.6017
  130OSM    C5F13946   6.359   2.839   5.029  0.6924 -0.2227  0.0587
  130OSM    H5F13947   6.353   2.948   5.051 -0.3005  0.1454 -1.7885
  130OSM    H5G13948   6.451   2.829   4.967 -0.6047  0.9283 -2.2147
  130OSM    C6F13949   6.363   2.755   5.156 -0.0687  0.3858  0.4321
  130OSM    H6F13950   6.466   2.764   5.196 -0.0986 -0.0918  0.6260
  130OSM    H6G13951   6.353   2.648   5.126 -0.5894  1.2329 -2.7356
  130OSM    C7F13952   6.248   2.790   5.254  0.0826 -0.2286  0.2323
  130OSM    H7F13953   6.151   2.759   5.209  1.0081 -0.2922 -1.8321
  130OSM    H7G13954   6.249   2.900   5.244  3.5034 -0.2081 -0.3511
  130OSM    C8F13955   6.278   2.725   5.384 -0.5390 -0.3894 -0.2103
  130OSM    H8F13956   6.383   2.744   5.412 -0.1250 -1.1772 -1.1777
  130OSM    H8G13957   6.284   2.614   5.384  1.5423 -0.3178  0.7513
  130OSM    C9F13958   6.175   2.766   5.488 -0.8985 -1.0600  0.1476
  130OSM    H9F13959   6.068   2.775   5.465 -1.4559  3.7606  3.1170
  130OSM   C10F13960   6.204   2.814   5.617 -0.1332 -0.4541 -0.0690
  130OSM   H10F13961   6.127   2.845   5.688  0.9726 -1.7628  1.7723
  130OSM   C11F13962   6.341   2.829   5.687  0.6129 -0.2406  0.2249
  130OSM   H11F13963   6.357   2.939   5.693  0.1469 -0.0586 -1.3553
  130OSM   H11G13964   6.418   2.780   5.624  0.6748 -2.2575  1.7620
  130OSM   C12F13965   6.363   2.779   5.830 -0.2942 -0.2221  0.0234
  130OSM   H12F13966   6.462   2.804   5.874 -0.8106  1.5604  0.2341
  130OSM   H12G13967   6.347   2.669   5.824  0.3533 -0.3947  1.2382
  130OSM   C13F13968   6.260   2.840   5.928  0.4244 -0.0307 -0.7481
  130OSM   H13F13969   6.155   2.828   5.895  0.8494 -0.8479 -1.8886
  130OSM   H13G13970   6.265   2.951   5.937 -4.3529  0.4245 -1.2417
  130OSM   C14F13971   6.255   2.775   6.063  0.5274 -0.4166 -0.0683
  130OSM   H14F13972   6.356   2.764   6.109  0.8452 -0.3906 -0.7450
  130OSM   H14G13973   6.230   2.670   6.041  1.0948 -0.3470 -1.0973
  130OSM   C15F13974   6.155   2.839   6.157  0.3326  0.3569 -0.3101
  130OSM   H15F13975   6.132   2.753   6.224  1.4370  0.1158 -0.2252
  130OSM   H15G13976   6.060   2.862   6.106  0.1969 -1.4566 -0.9338
  130OSM   C16F13977   6.202   2.954   6.247 -0.1021  0.3792 -0.3164
  130OSM   H16F13978   6.221   3.044   6.185  0.9968  1.0537  0.9202
  130OSM   H16G13979   6.296   2.920   6.296 -1.1905  0.5246  2.0379
  130OSM   C17F13980   6.099   2.990   6.357 -0.5819 -0.2477 -1.2028
  130OSM   H17F13981   6.018   3.047   6.306 -0.0884  0.7974 -0.8407
  130OSM   H17G13982   6.155   3.067   6.414  0.6809 -1.4583 -0.7494
  130OSM   C18F13983   6.039   2.872   6.436  0.1819 -0.2104 -1.1112
  130OSM   H18F13984   5.990   2.920   6.523 -2.1761  0.4932 -2.7525
  130OSM   H18G13985   6.118   2.800   6.468  1.5653  1.5508 -0.3881
  130OSM   H18H13986   5.964   2.814   6.378 -0.2480 -1.5679  0.6733
  131OSM      N13987   5.825   5.491   4.251 -0.1446 -0.3295  0.4846
  131OSM    C1513988   5.768   5.612   4.314  0.2339  0.3209 -0.7374
  131OSM   H15A13989   5.767   5.703   4.255 -1.2207  1.6195  1.1442
  131OSM   H15B13990   5.833   5.639   4.396 -0.5253 -0.1036  0.0284
  131OSM   H15C13991   5.668   5.595   4.352  0.7637 -0.7484  0.2221
  131OSM    C1413992   5.725   5.430   4.161  0.0115 -0.7819  0.3419
  131OSM   H14A13993   5.701   5.502   4.084 -0.6734  0.4244  1.6310
  131OSM   H14B13994   5.636   5.414   4.220  0.1420 -2.4682  0.1351
  131OSM   H14C13995   5.754   5.331   4.128 -1.2256 -1.7441  2.0020
  131OSM    C1313996   5.946   5.528   4.177 -1.1544  0.0936 -0.3138
  131OSM   H13A13997   5.996   5.454   4.117 -0.7527 -0.7987  1.0688
  131OSM   H13B13998   6.023   5.571   4.240 -1.7914 -0.3346  0.7812
  131OSM   H13C13999   5.913   5.612   4.117 -1.2525 -0.3100 -0.8242
  131OSM    C1214000   5.859   5.385   4.356  0.3397  0.5236 -0.2629
  131OSM   H12A14001   5.767   5.362   4.409 -0.8212  0.8703 -2.0720
  131OSM   H12B14002   5.931   5.423   4.428  0.3355  0.2402 -0.1031
  131OSM    C1114003   5.924   5.253   4.314 -0.0581  0.1042  0.2682
  131OSM   H11A14004   5.976   5.206   4.400  1.3205 -3.1457 -2.1597
  131OSM   H11B14005   6.013   5.278   4.252 -1.0370  1.2028 -0.7499
  131OSM      P14006   5.737   5.050   4.299  0.2041  0.4005 -0.5434
  131OSM    O1314007   5.604   5.045   4.240  0.1774  0.2720  0.1320
  131OSM    O1414008   5.806   4.923   4.300 -0.6232 -0.2882  0.0140
  131OSM    O1114009   5.718   5.100   4.451 -0.3729  0.1548  0.0265
  131OSM    O1214010   5.834   5.164   4.235 -0.1501  0.1080  0.1778
  131OSM    C1S14011   5.613   5.040   4.530 -0.2330  0.3630  0.6367
  131OSM    H1S14012   5.617   4.929   4.517  0.6020  0.0551  3.1408
  131OSM    H1T14013   5.515   5.078   4.493  0.4052 -0.0138 -1.6134
  131OSM     NF14014   5.523   4.981   4.762  0.3557  0.2788  0.3496
  131OSM    HNF14015   5.458   5.032   4.818  1.5769  0.5508  1.5851
  131OSM    C2S14016   5.619   5.059   4.687 -0.0333  0.2795  0.4834
  131OSM    H2S14017   5.721   5.025   4.715 -0.9863 -0.8063  2.9650
  131OSM    C3S14018   5.601   5.216   4.715  0.6928  0.6583 -0.2057
  131OSM    H3S14019   5.493   5.238   4.702 -0.4993 -3.7943  0.2587
  131OSM     O314020   5.688   5.300   4.632 -0.0076  0.1505  0.0138
  131OSM    HO314021   5.710   5.238   4.562 -1.8318  1.9884 -2.3535
  131OSM    C4S14022   5.640   5.236   4.865  0.2346  0.0190  0.4762
  131OSM    H4S14023   5.548   5.243   4.925 -0.9075 -1.3617 -1.0398
  131OSM    C5S14024   5.762   5.253   4.912  1.2570  0.9596 -0.0685
  131OSM    H5S14025   5.843   5.271   4.841  2.1866 -0.7316  0.5005
  131OSM    C6S14026   5.802   5.278   5.061  0.7251 -0.2142  0.2338
  131OSM    H6S14027   5.843   5.381   5.051  1.7676 -0.8613 -4.2724
  131OSM    H6T14028   5.893   5.215   5.076 -0.0595 -0.9874  2.0238
  131OSM    C7S14029   5.705   5.277   5.181 -0.5246 -0.4353 -0.0042
  131OSM    H7S14030   5.616   5.344   5.170 -0.1033 -0.1135 -1.7788
  131OSM    H7T14031   5.741   5.308   5.282 -3.6325  1.4764  0.6746
  131OSM    C8S14032   5.651   5.139   5.205  0.0159  0.7172 -0.5863
  131OSM    H8S14033   5.739   5.070   5.207 -0.2071  0.4298 -0.6884
  131OSM    H8T14034   5.594   5.104   5.117  1.4222 -2.6185 -0.3497
  131OSM    C9S14035   5.573   5.115   5.332  0.7309  0.5618  0.1329
  131OSM    H9S14036   5.519   5.018   5.323 -0.1959  1.1089 -0.2778
  131OSM    H9T14037   5.489   5.187   5.338  0.1466  0.2688 -2.9849
  131OSM   C10S14038   5.648   5.116   5.465  0.0159 -0.0964 -1.0643
  131OSM   H10S14039   5.710   5.208   5.464 -1.9795  1.3276 -0.2666
  131OSM   H10T14040   5.712   5.025   5.476  0.3957  0.2330 -0.4937
  131OSM   C11S14041   5.561   5.117   5.593  0.1061  0.4820 -0.4329
  131OSM   H11S14042   5.494   5.029   5.602 -1.4019  1.7694  3.5612
  131OSM   H11T14043   5.498   5.209   5.600  2.6616  2.3097  0.0366
  131OSM   C12S14044   5.642   5.127   5.726  0.3261  0.0647  0.1153
  131OSM   H12S14045   5.717   5.209   5.719  0.1477  0.1647 -0.7128
  131OSM   H12T14046   5.689   5.028   5.743 -0.0956  0.0006  0.9396
  131OSM   C13S14047   5.548   5.155   5.844  0.7017 -0.2676  0.2801
  131OSM   H13S14048   5.473   5.075   5.854  2.1293 -1.6044  0.6750
  131OSM   H13T14049   5.488   5.248   5.833  0.1182 -0.8867 -2.7497
  131OSM   C14S14050   5.620   5.140   5.976  0.6107 -1.0319  0.4862
  131OSM   H14S14051   5.698   5.219   5.976  0.5960 -0.9653 -1.4524
  131OSM   H14T14052   5.668   5.040   5.979  4.0789  0.3346 -2.3625
  131OSM   C15S14053   5.528   5.159   6.091  0.7481  0.3074  0.5043
  131OSM   H15S14054   5.428   5.112   6.078  1.2294 -0.6674  0.2204
  131OSM   H15T14055   5.499   5.266   6.102  0.2317  0.1916  0.2816
  131OSM   C16S14056   5.584   5.113   6.233  0.4067 -0.1521 -0.6578
  131OSM   H16S14057   5.687   5.147   6.256  0.7760 -1.1940 -0.7082
  131OSM   H16T14058   5.590   5.002   6.238 -0.6441 -0.1881  0.0060
  131OSM   C17S14059   5.499   5.160   6.343  0.0905 -0.0179 -0.3753
  131OSM   H17S14060   5.401   5.109   6.350 -0.5469  1.1715 -0.4091
  131OSM   H17T14061   5.469   5.266   6.332  0.2044  0.3211  2.0741
  131OSM   C18S14062   5.575   5.144   6.480 -0.7529 -0.0868  0.7326
  131OSM   H18S14063   5.608   5.040   6.500 -0.2372 -0.0163  0.2866
  131OSM   H18T14064   5.507   5.173   6.563 -0.6939  3.2142 -0.2443
  131OSM   H18U14065   5.658   5.218   6.483 -1.2245  0.8735 -3.3208
  131OSM    C1F14066   5.514   4.849   4.768 -0.0317  0.2178  0.4538
  131OSM     OF14067   5.614   4.774   4.752  0.0807 -0.6029  0.5079
  131OSM    C2F14068   5.380   4.790   4.805 -0.5211  0.6567 -1.2832
  131OSM    H2F14069   5.354   4.728   4.716 -0.1488  0.4237 -1.2312
  131OSM    H2G14070   5.298   4.863   4.817 -0.2529  0.6733  0.6803
  131OSM    C3F14071   5.403   4.692   4.926  0.1018  0.0588  0.0460
  131OSM    H3F14072   5.474   4.618   4.883  0.4151 -0.4436  1.3622
  131OSM    H3G14073   5.312   4.630   4.940 -0.4491  0.6408 -0.9102
  131OSM    C4F14074   5.460   4.769   5.048 -0.2832  0.6303 -0.0305
  131OSM    H4F14075   5.386   4.841   5.087 -1.0377  1.3303 -2.5876
  131OSM    H4G14076   5.548   4.830   5.020 -0.6394 -0.2591 -3.5727
  131OSM    C5F14077   5.504   4.675   5.159  0.1770 -0.5914 -0.0556
  131OSM    H5F14078   5.567   4.592   5.119  1.1754  0.1090  0.0332
  131OSM    H5G14079   5.414   4.621   5.196 -1.9269  2.8946  0.2846
  131OSM    C6F14080   5.581   4.742   5.269  0.6084  0.4870  0.5417
  131OSM    H6F14081   5.528   4.833   5.305 -1.0507  0.4915 -1.7327
  131OSM    H6G14082   5.683   4.771   5.236  0.9305  0.3437  1.3616
  131OSM    C7F14083   5.603   4.659   5.391  0.2896  0.0535  0.0339
  131OSM    H7F14084   5.646   4.565   5.352  3.1388  0.7349  1.3436
  131OSM    H7G14085   5.509   4.628   5.441 -0.1817  0.4034 -0.6134
  131OSM    C8F14086   5.712   4.719   5.483  0.4950 -0.8647  0.1190
  131OSM    H8F14087   5.663   4.813   5.515 -1.0515 -0.1413 -3.8312
  131OSM    H8G14088   5.798   4.749   5.419  0.1360  1.7284  0.7355
  131OSM    C9F14089   5.758   4.619   5.584  0.1097 -0.3680 -0.1048
  131OSM    H9F14090   5.799   4.527   5.540  1.4293 -0.2530  0.8133
  131OSM   C10F14091   5.740   4.633   5.719  0.6038 -0.3185  0.4086
  131OSM   H10F14092   5.779   4.553   5.784  0.9939 -0.6418 -0.2128
  131OSM   C11F14093   5.682   4.753   5.788  0.1496 -0.3895  0.0423
  131OSM   H11F14094   5.615   4.799   5.713  2.1693  0.3547 -1.3945
  131OSM   H11G14095   5.765   4.827   5.798  1.5375 -1.8640 -0.0023
  131OSM   C12F14096   5.616   4.708   5.920 -0.7677 -0.6408 -0.0825
  131OSM   H12F14097   5.558   4.615   5.903 -3.3580  0.6509  1.1008
  131OSM   H12G14098   5.541   4.782   5.957 -1.7597 -1.8766  0.4538
  131OSM   C13F14099   5.732   4.687   6.024  0.2028 -0.8727 -0.6178
  131OSM   H13F14100   5.800   4.774   6.014  0.1173 -0.7103  0.1835
  131OSM   H13G14101   5.787   4.592   6.009  1.8884 -0.0746  0.2227
  131OSM   C14F14102   5.674   4.688   6.169  0.1756  0.4322  0.0920
  131OSM   H14F14103   5.624   4.590   6.182  0.7265  0.0960 -0.2705
  131OSM   H14G14104   5.596   4.767   6.173  0.9403  1.1782  0.6191
  131OSM   C15F14105   5.773   4.704   6.282 -0.1526  0.5740  1.0134
  131OSM   H15F14106   5.710   4.737   6.368 -0.9275  2.2918 -0.1456
  131OSM   H15G14107   5.841   4.791   6.272  2.6188 -1.1768  3.0783
  131OSM   C16F14108   5.846   4.571   6.302 -0.3994 -0.9742 -0.0718
  131OSM   H16F14109   5.831   4.512   6.209  0.1307 -0.3341 -0.5790
  131OSM   H16G14110   5.801   4.508   6.381  1.7203 -0.1282  1.9277
  131OSM   C17F14111   5.995   4.579   6.332 -0.7005 -0.1347  0.4174
  131OSM   H17F14112   6.011   4.646   6.419  0.6771  2.0210 -1.3945
  131OSM   H17G14113   6.028   4.638   6.244 -0.9800  1.2488  1.2128
  131OSM   C18F14114   6.066   4.447   6.344 -0.2842 -0.8479  0.4163
  131OSM   H18F14115   6.048   4.376   6.261  0.9541 -0.3240 -0.3252
  131OSM   H18G14116   6.039   4.398   6.441  0.0480  0.6856  1.3174
  131OSM   H18H14117   6.173   4.475   6.345 -0.2976 -0.4280 -2.6369
  132OSM      N14118   3.365   4.177   3.839 -0.2502  0.1224  0.2871
  132OSM    C1514119   3.261   4.257   3.766 -0.7277 -0.0269 -0.1069
  132OSM   H15A14120   3.289   4.348   3.714 -1.5274  0.1089 -0.3272
  132OSM   H15B14121   3.186   4.298   3.832 -0.4699  1.0853 -0.4820
  132OSM   H15C14122   3.206   4.196   3.696 -4.1090  2.0195  0.5041
  132OSM    C1414123   3.460   4.126   3.736  0.6389  1.2444 -0.2410
  132OSM   H14A14124   3.512   4.194   3.669  1.8511 -2.0388 -2.9348
  132OSM   H14B14125   3.406   4.053   3.677  2.8197  2.0276 -3.4733
  132OSM   H14C14126   3.542   4.071   3.781 -0.5824 -0.1574  0.3325
  132OSM    C1314127   3.445   4.263   3.937  0.3924 -0.0169  0.0770
  132OSM   H13A14128   3.526   4.209   3.984 -0.6255 -1.1039  0.6246
  132OSM   H13B14129   3.379   4.308   4.010  1.2873  1.6447 -0.0698
  132OSM   H13C14130   3.493   4.346   3.886  2.2684  0.9289  3.1024
  132OSM    C1214131   3.311   4.063   3.910  0.1314  0.2777 -0.2025
  132OSM   H12A14132   3.239   4.100   3.982  0.5516  2.0451 -0.6479
  132OSM   H12B14133   3.380   4.021   3.982  0.8273  2.2475  0.3372
  132OSM    C1114134   3.230   3.945   3.841  0.1078 -0.3936 -0.2198
  132OSM   H11A14135   3.186   3.880   3.920 -1.7620  0.4899 -0.4765
  132OSM   H11B14136   3.301   3.878   3.787 -1.2610  0.0527 -2.7119
  132OSM      P14137   2.973   3.987   3.780  0.1087  0.2923 -0.0638
  132OSM    O1314138   2.898   4.080   3.691 -0.4695  0.1895 -0.8689
  132OSM    O1414139   2.937   3.843   3.774 -0.3463 -0.7023 -0.1463
  132OSM    O1114140   2.952   4.044   3.933 -0.4571 -0.3346 -0.4073
  132OSM    O1214141   3.129   4.001   3.752 -0.2051 -0.0278  0.3174
  132OSM    C1S14142   2.948   4.185   3.954  0.0951 -0.0881  0.5333
  132OSM    H1S14143   2.863   4.226   3.895  0.6148 -0.7283 -0.6994
  132OSM    H1T14144   3.034   4.236   3.905 -1.4307  0.4882 -1.6817
  132OSM     NF14145   2.897   4.371   4.117  0.2608  0.8010 -0.7780
  132OSM    HNF14146   2.957   4.449   4.134 -0.7281  1.3254  0.5130
  132OSM    C2S14147   2.950   4.235   4.098 -0.4123  0.5032  0.4222
  132OSM    H2S14148   2.887   4.165   4.156 -1.1406 -0.1732 -1.1402
  132OSM    C3S14149   3.092   4.217   4.152 -0.0296 -0.3119 -0.0271
  132OSM    H3S14150   3.164   4.269   4.086  0.0755 -0.0951  0.2566
  132OSM     O314151   3.139   4.078   4.150 -0.3549 -0.6601  0.1078
  132OSM    HO314152   3.069   4.032   4.104 -0.4970  0.1696 -0.5232
  132OSM    C4S14153   3.115   4.282   4.288  0.4130  0.3899  0.2097
  132OSM    H4S14154   3.132   4.390   4.286  0.6365  0.3435 -1.9623
  132OSM    C5S14155   3.120   4.226   4.411 -0.4164 -0.3638  0.6532
  132OSM    H5S14156   3.096   4.120   4.433  0.3328 -0.2412  2.2381
  132OSM    C6S14157   3.179   4.288   4.540  0.4446 -0.1557  0.1544
  132OSM    H6S14158   3.289   4.296   4.537  0.4275 -0.2754 -2.4560
  132OSM    H6T14159   3.146   4.241   4.635 -1.1190  0.1919 -0.1846
  132OSM    C7S14160   3.134   4.431   4.559 -0.4429 -0.8675  0.3755
  132OSM    H7S14161   3.026   4.453   4.548 -0.6335 -1.1254  1.6211
  132OSM    H7T14162   3.189   4.494   4.486  0.4041 -1.5534  0.3985
  132OSM    C8S14163   3.171   4.497   4.697 -0.0908 -0.7910  0.5450
  132OSM    H8S14164   3.278   4.475   4.715 -0.2501 -1.5204  0.6675
  132OSM    H8T14165   3.118   4.442   4.779 -1.6306 -0.1580  0.0103
  132OSM    C9S14166   3.144   4.657   4.704  0.4082  0.0389  0.2025
  132OSM    H9S14167   3.037   4.685   4.695  0.4322  0.1781  0.3468
  132OSM    H9T14168   3.174   4.693   4.603 -1.8336 -0.3191 -0.6566
  132OSM   C10S14169   3.225   4.732   4.812  0.3564  0.2105  0.6504
  132OSM   H10S14170   3.249   4.835   4.777  1.2447 -0.1449  0.1728
  132OSM   H10T14171   3.321   4.675   4.817  0.6180  0.6963  1.3293
  132OSM   C11S14172   3.158   4.741   4.943 -0.4287  0.0326 -0.4717
  132OSM   H11S14173   3.130   4.635   4.963  0.3154 -0.2026 -0.6469
  132OSM   H11T14174   3.060   4.793   4.936  0.1167  1.2505  0.5810
  132OSM   C12S14175   3.246   4.789   5.058  0.5235 -0.2576  0.1330
  132OSM   H12S14176   3.299   4.878   5.019 -1.6020  0.7826 -0.5760
  132OSM   H12T14177   3.313   4.704   5.085  1.2898  0.5114  0.6914
  132OSM   C13S14178   3.165   4.825   5.186 -0.1367  0.0422 -0.2045
  132OSM   H13S14179   3.088   4.746   5.200 -0.4857  0.5313  0.7084
  132OSM   H13T14180   3.107   4.917   5.164 -0.5066 -0.4029 -1.1429
  132OSM   C14S14181   3.249   4.836   5.316 -0.3608 -0.4065  0.2158
  132OSM   H14S14182   3.330   4.911   5.301 -0.0362 -0.7714  0.1297
  132OSM   H14T14183   3.291   4.735   5.332  0.7634  0.3741  2.5175
  132OSM   C15S14184   3.167   4.886   5.435 -0.5372 -0.2326 -0.3996
  132OSM   H15S14185   3.074   4.826   5.432 -1.2724  0.9185 -1.0407
  132OSM   H15T14186   3.145   4.994   5.423 -1.3846 -0.2767  0.6043
  132OSM   C16S14187   3.249   4.875   5.566 -0.2720 -0.3871 -0.3532
  132OSM   H16S14188   3.359   4.891   5.562 -0.1220 -0.8686  1.2768
  132OSM   H16T14189   3.249   4.769   5.599  2.8142 -0.6557 -0.9174
  132OSM   C17S14190   3.193   4.963   5.672  0.1804  0.6846  0.0514
  132OSM   H17S14191   3.091   4.925   5.692  0.2624 -0.0077 -0.7793
  132OSM   H17T14192   3.169   5.066   5.636  0.8836  0.1261 -2.1876
  132OSM   C18S14193   3.282   4.976   5.794  0.4401  0.4071 -0.2473
  132OSM   H18S14194   3.224   5.040   5.863 -1.7148 -0.9943 -0.6877
  132OSM   H18T14195   3.386   5.012   5.774  0.5881 -1.2962 -3.2222
  132OSM   H18U14196   3.289   4.871   5.829 -1.2235 -0.6841 -2.9181
  132OSM    C1F14197   2.765   4.398   4.117  0.1034  0.8602 -0.4403
  132OSM     OF14198   2.681   4.313   4.077  0.4155 -0.5089  0.0112
  132OSM    C2F14199   2.714   4.537   4.142  0.4860 -0.1598 -0.2613
  132OSM    H2F14200   2.633   4.552   4.068 -1.7900 -0.1337  2.0663
  132OSM    H2G14201   2.786   4.621   4.132 -0.3233  0.8646  1.7701
  132OSM    C3F14202   2.642   4.539   4.285 -0.4773 -0.2550  0.2378
  132OSM    H3F14203   2.581   4.450   4.308 -0.6256  0.0545  1.0621
  132OSM    H3G14204   2.577   4.629   4.281  1.2246  0.9869 -1.2132
  132OSM    C4F14205   2.748   4.533   4.404 -0.5890  0.0818 -0.6332
  132OSM    H4F14206   2.790   4.636   4.406 -1.1681  0.3284  1.6915
  132OSM    H4G14207   2.825   4.457   4.377 -0.7144  0.7866 -3.2748
  132OSM    C5F14208   2.685   4.494   4.536  0.0334 -0.7539  1.0566
  132OSM    H5F14209   2.640   4.392   4.538 -0.0423 -0.7471  0.0201
  132OSM    H5G14210   2.593   4.555   4.547  1.0055  0.7777  0.9200
  132OSM    C6F14211   2.770   4.526   4.661 -0.1664  0.3057  0.1746
  132OSM    H6F14212   2.821   4.623   4.641  0.6296 -0.1721 -0.1746
  132OSM    H6G14213   2.848   4.447   4.671  0.0757  0.2369 -1.8984
  132OSM    C7F14214   2.680   4.537   4.795  0.6832 -0.4663  0.0120
  132OSM    H7F14215   2.621   4.444   4.814  0.9494 -0.4227  1.1109
  132OSM    H7G14216   2.605   4.614   4.767  1.0490 -0.6235 -1.4873
  132OSM    C8F14217   2.760   4.588   4.914  0.2491 -0.1833 -0.9669
  132OSM    H8F14218   2.822   4.675   4.885 -3.0810  2.4144 -0.9540
  132OSM    H8G14219   2.830   4.510   4.949  0.2024 -1.4895 -3.5285
  132OSM    C9F14220   2.650   4.637   5.012 -0.5152  0.1972 -0.0665
  132OSM    H9F14221   2.563   4.569   5.019  1.3561 -2.3216  0.0790
  132OSM   C10F14222   2.649   4.750   5.075 -0.1349 -0.3449 -0.1422
  132OSM   H10F14223   2.559   4.773   5.133 -2.5829 -1.3460 -3.2347
  132OSM   C11F14224   2.752   4.860   5.079 -0.0095  0.4145 -0.0959
  132OSM   H11F14225   2.725   4.943   5.010 -0.2586 -0.0047 -0.5138
  132OSM   H11G14226   2.845   4.820   5.033 -0.2612  0.3081 -0.5136
  132OSM   C12F14227   2.773   4.909   5.224 -0.2936 -0.6535 -0.3485
  132OSM   H12F14228   2.684   4.966   5.258 -0.8090 -1.7213  0.1178
  132OSM   H12G14229   2.835   5.001   5.217 -1.4682  0.1838 -0.0512
  132OSM   C13F14230   2.808   4.801   5.321  0.5042 -0.4205 -0.4796
  132OSM   H13F14231   2.909   4.755   5.309  0.0723 -1.6980  0.5542
  132OSM   H13G14232   2.734   4.718   5.316  1.1771 -0.9831 -1.5530
  132OSM   C14F14233   2.801   4.855   5.464  0.4636 -0.3323  0.2018
  132OSM   H14F14234   2.721   4.932   5.474  1.5430  0.9992 -0.9087
  132OSM   H14G14235   2.897   4.901   5.494 -0.8011  1.5797  1.5242
  132OSM   C15F14236   2.757   4.745   5.564  0.7732  0.0300  0.1511
  132OSM   H15F14237   2.837   4.669   5.579  2.5386  1.6919 -0.3850
  132OSM   H15G14238   2.670   4.691   5.522  0.1885  1.2318 -0.2355
  132OSM   C16F14239   2.713   4.797   5.702 -1.0393 -0.4839  0.4503
  132OSM   H16F14240   2.679   4.710   5.762 -2.6733 -1.4104 -1.6806
  132OSM   H16G14241   2.620   4.857   5.691 -0.6458  0.0090 -0.2574
  132OSM   C17F14242   2.820   4.870   5.784 -0.6958  0.0351  0.9698
  132OSM   H17F14243   2.838   4.966   5.731 -0.2055 -1.5369 -1.9644
  132OSM   H17G14244   2.911   4.809   5.771  1.0749  2.6510  0.2522
  132OSM   C18F14245   2.786   4.890   5.931 -0.3234  0.1016  0.4790
  132OSM   H18F14246   2.755   4.791   5.971 -2.0777 -0.5656 -2.2116
  132OSM   H18G14247   2.703   4.963   5.931 -0.3660  0.0670 -0.2575
  132OSM   H18H14248   2.869   4.931   5.992  0.2582  1.7235 -1.2983
  133OSM      N14249   1.121   0.554   4.342  0.0256 -0.5803  0.4455
  133OSM    C1514250   1.198   0.641   4.250 -0.6368 -0.0610  0.5952
  133OSM   H15A14251   1.155   0.637   4.152  1.0742  2.1702 -0.3475
  133OSM   H15B14252   1.299   0.609   4.232  0.0247  1.6596  1.0097
  133OSM   H15C14253   1.201   0.742   4.289 -2.4388  0.4232 -0.3833
  133OSM    C1414254   1.115   0.417   4.283  0.2286 -0.4871 -0.2816
  133OSM   H14A14255   1.213   0.376   4.265  1.7898  2.7090  0.4119
  133OSM   H14B14256   1.061   0.423   4.190 -0.9765 -0.0356  0.4190
  133OSM   H14C14257   1.059   0.353   4.350  0.5458 -1.5346 -0.9880
  133OSM    C1314258   1.189   0.544   4.473 -0.2227 -0.3818 -0.4259
  133OSM   H13A14259   1.156   0.460   4.531 -0.9598 -0.2900 -0.7090
  133OSM   H13B14260   1.198   0.636   4.531  0.5917 -1.1489  0.7203
  133OSM   H13C14261   1.292   0.529   4.442  0.2248  1.0480  0.2642
  133OSM    C1214262   0.981   0.615   4.353  0.2242  0.0186 -0.3634
  133OSM   H12A14263   0.919   0.555   4.419 -0.1244  1.0463  0.2745
  133OSM   H12B14264   0.927   0.608   4.260 -1.3344  0.3563  0.4828
  133OSM    C1114265   0.967   0.757   4.414 -0.9824  0.1422  0.4069
  133OSM   H11A14266   0.997   0.775   4.520  1.1090  0.6674 -0.2312
  133OSM   H11B14267   0.861   0.781   4.436 -1.1585 -1.0156  0.9205
  133OSM      P14268   0.990   0.990   4.304  0.6608 -0.0188 -0.3873
  133OSM    O1314269   1.069   1.054   4.202 -0.0368 -0.0170 -0.5263
  133OSM    O1414270   0.838   0.986   4.277  0.4709 -0.7112 -0.1775
  133OSM    O1114271   1.017   1.058   4.441  0.3060 -0.2658 -0.8542
  133OSM    O1214272   1.047   0.850   4.338  0.0673  0.2205  0.2844
  133OSM    C1S14273   0.937   1.149   4.513 -0.2887 -0.1178 -1.6439
  133OSM    H1S14274   0.835   1.158   4.469 -1.8630 -0.3259  1.6263
  133OSM    H1T14275   0.982   1.251   4.509 -1.5082  0.5905  0.5906
  133OSM     NF14276   0.865   1.249   4.733  0.4534 -0.9226  0.5806
  133OSM    HNF14277   0.924   1.307   4.789  2.1334 -0.8475 -1.1648
  133OSM    C2S14278   0.920   1.131   4.669 -0.2823  0.0340 -0.4090
  133OSM    H2S14279   0.845   1.051   4.688  0.7297 -1.4271 -2.1594
  133OSM    C3S14280   1.060   1.088   4.730 -1.1319  0.2908 -0.0243
  133OSM    H3S14281   1.129   1.175   4.723  0.8154 -1.2761 -1.1120
  133OSM     O314282   1.130   0.983   4.661 -0.2084 -0.0877  0.5935
  133OSM    HO314283   1.107   0.992   4.568  1.6460 -1.4212 -0.0798
  133OSM    C4S14284   1.047   1.059   4.882  0.3530  0.1652 -0.1794
  133OSM    H4S14285   1.060   1.142   4.953  1.1898 -0.4267  0.3789
  133OSM    C5S14286   1.023   0.936   4.925 -0.1574  0.6112  0.1467
  133OSM    H5S14287   1.012   0.851   4.856  1.4719 -0.3428  1.0027
  133OSM    C6S14288   1.011   0.884   5.063  0.1414 -0.1274 -0.4764
  133OSM    H6S14289   1.066   0.790   5.081  0.5769 -0.1939 -1.9878
  133OSM    H6T14290   0.908   0.853   5.088 -0.0250 -0.0927 -1.1023
  133OSM    C7S14291   1.061   0.987   5.179  0.5255  0.5353  0.5243
  133OSM    H7S14292   1.003   1.082   5.174 -0.4377 -0.0153  0.9517
  133OSM    H7T14293   1.165   1.021   5.161  0.6249  0.0055  0.0624
  133OSM    C8S14294   1.041   0.927   5.322 -0.1562  0.6930 -0.0529
  133OSM    H8S14295   1.090   0.827   5.323 -1.9833 -0.2924 -1.8543
  133OSM    H8T14296   0.937   0.891   5.338  0.3427 -1.3502 -1.0906
  133OSM    C9S14297   1.077   1.021   5.440 -0.3697 -0.1240 -0.2527
  133OSM    H9S14298   0.994   1.094   5.442  1.5021  2.1136  0.1711
  133OSM    H9T14299   1.174   1.072   5.421  0.9439 -2.3773 -0.0270
  133OSM   C10S14300   1.089   0.948   5.575  0.5837 -0.0953 -0.5121
  133OSM   H10S14301   1.160   0.867   5.547 -0.5874 -1.2697 -0.1742
  133OSM   H10T14302   1.000   0.888   5.603 -0.2098  2.1628  2.2440
  133OSM   C11S14303   1.144   1.031   5.691  0.3994 -0.0107 -0.5867
  133OSM   H11S14304   1.079   1.121   5.701 -1.7498 -1.5208 -0.1235
  133OSM   H11T14305   1.251   1.037   5.662  0.6474 -2.0494 -0.2401
  133OSM   C12S14306   1.153   0.962   5.833  0.3740  0.2261  0.6445
  133OSM   H12S14307   1.225   0.879   5.813  0.6586  0.1865  1.7789
  133OSM   H12T14308   1.052   0.921   5.855  0.4025 -1.5542 -1.9789
  133OSM   C13S14309   1.200   1.057   5.945  0.0420 -0.6112  0.1312
  133OSM   H13S14310   1.124   1.138   5.954  1.7329  0.9355  1.3554
  133OSM   H13T14311   1.301   1.099   5.926  0.4020 -2.1990 -1.7830
  133OSM   C14S14312   1.209   0.994   6.089  0.3148 -0.5665  0.6026
  133OSM   H14S14313   1.289   0.917   6.095  1.5835  0.5660 -0.7080
  133OSM   H14T14314   1.110   0.953   6.118  0.6627 -0.3411  2.1885
  133OSM   C15S14315   1.237   1.096   6.201  0.3198 -0.1820 -0.1194
  133OSM   H15S14316   1.313   1.164   6.160  1.1826 -0.5108  0.8942
  133OSM   H15T14317   1.288   1.035   6.279 -0.1849 -1.1780 -0.5443
  133OSM   C16S14318   1.133   1.167   6.289  0.7567 -0.2592  0.2999
  133OSM   H16S14319   1.076   1.248   6.239 -0.0437  0.1698  1.8220
  133OSM   H16T14320   1.180   1.195   6.386  0.7348 -2.9490  1.1807
  133OSM   C17S14321   1.009   1.074   6.320 -0.4632  0.5191  0.1995
  133OSM   H17S14322   1.044   0.969   6.323  2.6832  1.4105 -1.6967
  133OSM   H17T14323   0.934   1.086   6.238 -0.3184  1.5927  0.2149
  133OSM   C18S14324   0.950   1.114   6.449  0.4794 -0.4450 -0.0468
  133OSM   H18S14325   0.867   1.045   6.476 -0.3178  0.2075 -0.7711
  133OSM   H18T14326   0.910   1.217   6.439  0.7132 -0.1480  1.7575
  133OSM   H18U14327   1.031   1.119   6.525 -0.0693  0.0214  0.5124
  133OSM    C1F14328   0.750   1.291   4.701  0.5029  0.2080  0.5243
  133OSM     OF14329   0.674   1.233   4.620 -0.1037  0.4412 -0.1512
  133OSM    C2F14330   0.715   1.427   4.762 -0.7493 -0.0793  0.6326
  133OSM    H2F14331   0.623   1.472   4.717 -0.5138  0.3627  0.5873
  133OSM    H2G14332   0.804   1.487   4.733  0.4291 -2.3827 -0.7469
  133OSM    C3F14333   0.702   1.422   4.909  0.1854  0.4314  0.8984
  133OSM    H3F14334   0.800   1.405   4.960  0.2227  2.4476  1.5893
  133OSM    H3G14335   0.638   1.341   4.951 -0.3578  0.1668 -0.3962
  133OSM    C4F14336   0.638   1.545   4.962 -0.4193  0.1786 -0.2604
  133OSM    H4F14337   0.534   1.558   4.925 -1.2747 -1.7658  1.2725
  133OSM    H4G14338   0.692   1.634   4.924  0.5250  0.0138  0.6511
  133OSM    C5F14339   0.641   1.549   5.111 -0.0674 -0.0274  0.4260
  133OSM    H5F14340   0.740   1.577   5.152  0.1920  2.8748 -1.8357
  133OSM    H5G14341   0.605   1.451   5.149  0.6500 -1.0223 -1.3601
  133OSM    C6F14342   0.533   1.642   5.159 -0.7859  0.0482  0.8108
  133OSM    H6F14343   0.428   1.638   5.121 -0.1400 -0.1478 -1.0730
  133OSM    H6G14344   0.559   1.740   5.113 -1.5432 -1.5709 -3.5704
  133OSM    C7F14345   0.519   1.643   5.310  0.5508  0.1352  0.5007
  133OSM    H7F14346   0.517   1.536   5.341  0.4351  0.4104  1.4526
  133OSM    H7G14347   0.421   1.682   5.345  0.5863  1.1683 -0.4716
  133OSM    C8F14348   0.631   1.728   5.377 -0.5766  0.2561  0.1612
  133OSM    H8F14349   0.616   1.836   5.356 -0.7023 -0.0731 -1.6045
  133OSM    H8G14350   0.730   1.695   5.337  0.0535 -0.6354  2.2640
  133OSM    C9F14351   0.642   1.691   5.521  0.0128 -0.0207 -0.3489
  133OSM    H9F14352   0.705   1.602   5.540  0.1585 -0.0058 -0.7662
  133OSM   C10F14353   0.573   1.746   5.618 -0.1576  1.0881  0.2816
  133OSM   H10F14354   0.589   1.702   5.718  1.5917 -1.3901 -0.9782
  133OSM   C11F14355   0.481   1.865   5.610 -0.0404  0.1553 -0.5900
  133OSM   H11F14356   0.381   1.827   5.640  0.0685 -0.7940 -1.3947
  133OSM   H11G14357   0.487   1.902   5.505 -0.6667  1.0560 -0.3191
  133OSM   C12F14358   0.515   1.993   5.691 -0.5063 -1.7631 -0.2063
  133OSM   H12F14359   0.475   2.077   5.631  1.7670 -0.6975 -0.3650
  133OSM   H12G14360   0.623   2.018   5.684 -1.1974  1.2213 -1.8440
  133OSM   C13F14361   0.454   1.997   5.832 -0.3567 -0.2979  0.3240
  133OSM   H13F14362   0.497   1.921   5.901 -0.4954 -1.1484 -0.4990
  133OSM   H13G14363   0.346   1.973   5.821 -0.5066  0.7399 -0.6472
  133OSM   C14F14364   0.475   2.132   5.898 -0.0761  0.1145  0.2819
  133OSM   H14F14365   0.413   2.195   5.830 -1.9695 -2.1993 -0.2714
  133OSM   H14G14366   0.578   2.170   5.883 -0.1001 -0.2970 -1.0457
  133OSM   C15F14367   0.417   2.138   6.039  0.4555 -0.3547  0.0501
  133OSM   H15F14368   0.321   2.082   6.033  0.7519 -1.0264  1.2437
  133OSM   H15G14369   0.384   2.240   6.065  0.2694 -0.3297 -0.2766
  133OSM   C16F14370   0.519   2.091   6.138  0.6862  0.8879  0.9251
  133OSM   H16F14371   0.591   2.172   6.162 -0.6965  2.5433 -0.2387
  133OSM   H16G14372   0.565   2.005   6.086 -1.1399 -1.2884  2.6987
  133OSM   C17F14373   0.454   2.030   6.262 -0.0608  0.4644  0.2267
  133OSM   H17F14374   0.394   1.942   6.229 -1.3026  2.2161 -2.5548
  133OSM   H17G14375   0.393   2.112   6.303 -0.1519  0.4769  0.0673
  133OSM   C18F14376   0.557   1.981   6.371  0.4468  0.1688  0.0762
  133OSM   H18F14377   0.631   2.056   6.407 -0.1631  0.1461  1.4409
  133OSM   H18G14378   0.623   1.897   6.340  0.8491  0.0442  1.2284
  133OSM   H18H14379   0.502   1.949   6.462  1.4940 -0.6546  0.4439
  134OSM      N14380   1.435   1.006   4.462  0.0698 -0.6319  0.4153
  134OSM    C1514381   1.437   1.052   4.606 -1.0962 -0.2072  0.0965
  134OSM   H15A14382   1.496   1.142   4.618  0.2225 -1.1302  0.8273
  134OSM   H15B14383   1.483   0.984   4.675  1.1949 -0.3581 -1.4606
  134OSM   H15C14384   1.335   1.075   4.632 -2.0817  0.2939 -3.6030
  134OSM    C1414385   1.563   0.959   4.418  0.1525 -0.2437 -0.4397
  134OSM   H14A14386   1.644   1.019   4.458 -2.0227  1.2601  2.0417
  134OSM   H14B14387   1.573   0.945   4.312 -0.5680 -0.1439 -0.5263
  134OSM   H14C14388   1.579   0.861   4.460  2.2077  0.7410  1.2950
  134OSM    C1314389   1.336   0.890   4.444  0.4269  0.6556 -0.0565
  134OSM   H13A14390   1.354   0.810   4.514  0.3320  0.0590 -0.7009
  134OSM   H13B14391   1.349   0.847   4.346 -0.2200 -1.8208  0.8564
  134OSM   H13C14392   1.234   0.922   4.464  0.0063 -0.6801  0.0391
  134OSM    C1214393   1.401   1.117   4.368 -0.1367 -1.3305  0.4344
  134OSM   H12A14394   1.303   1.146   4.402 -0.9628 -3.7991  0.3541
  134OSM   H12B14395   1.389   1.089   4.264 -1.9055  2.3764 -0.5238
  134OSM    C1114396   1.498   1.243   4.372  0.9757 -0.5126  0.3313
  134OSM   H11A14397   1.489   1.310   4.283 -0.6796 -0.9418  0.1490
  134OSM   H11B14398   1.601   1.204   4.362  1.2692 -0.4110  2.5360
  134OSM      P14399   1.348   1.409   4.503 -0.1060  0.1839 -0.0770
  134OSM    O1314400   1.359   1.532   4.423 -0.7315 -0.0804  1.0158
  134OSM    O1414401   1.230   1.329   4.477  0.6134  0.2534 -0.1120
  134OSM    O1114402   1.351   1.456   4.650 -0.4190 -0.6601 -0.1352
  134OSM    O1214403   1.485   1.317   4.495  0.3616  0.0061 -0.4443
  134OSM    C1S14404   1.416   1.397   4.762 -0.1339  0.1268 -0.7819
  134OSM    H1S14405   1.527   1.407   4.753 -0.1279 -0.2904 -1.2190
  134OSM    H1T14406   1.416   1.286   4.769  1.2235  0.1200 -0.4646
  134OSM     NF14407   1.448   1.392   5.006  0.3558  0.3058 -0.0243
  134OSM    HNF14408   1.431   1.297   5.029  1.0900  0.1101 -0.2543
  134OSM    C2S14409   1.362   1.447   4.896  0.1204 -0.2711 -0.3951
  134OSM    H2S14410   1.375   1.557   4.889  2.6565 -0.4141  0.8675
  134OSM    C3S14411   1.215   1.408   4.921 -0.7533  0.0238 -0.1418
  134OSM    H3S14412   1.211   1.298   4.936 -1.3205  0.0663  0.0711
  134OSM     O314413   1.128   1.431   4.808 -0.1571  0.2167 -0.2785
  134OSM    HO314414   1.182   1.452   4.732 -0.1657 -0.8205 -0.5866
  134OSM    C4S14415   1.160   1.460   5.053 -0.0266  0.1150 -0.1338
  134OSM    H4S14416   1.181   1.563   5.085 -1.4023  0.0858  0.9671
  134OSM    C5S14417   1.068   1.398   5.132  0.3025 -0.3967 -0.6001
  134OSM    H5S14418   1.021   1.308   5.090 -0.7223  0.4291 -1.2834
  134OSM    C6S14419   1.016   1.450   5.266 -0.2598  0.0584 -0.5001
  134OSM    H6S14420   1.041   1.381   5.349  1.5996  0.9123 -0.3245
  134OSM    H6T14421   0.905   1.457   5.262 -0.4117 -1.1034  0.9022
  134OSM    C7S14422   1.065   1.584   5.308  0.3748 -0.4269 -0.7996
  134OSM    H7S14423   1.028   1.667   5.245  2.1085  0.1771 -1.0880
  134OSM    H7T14424   1.174   1.599   5.326  0.0943  1.2604 -0.3177
  134OSM    C8S14425   1.017   1.631   5.452  0.7101  1.0408 -0.5394
  134OSM    H8S14426   1.015   1.545   5.522 -0.4761 -0.9451 -2.8455
  134OSM    H8T14427   0.914   1.664   5.428  0.7589  1.3323 -0.3522
  134OSM    C9S14428   1.080   1.763   5.507  0.8619  0.6844  0.4072
  134OSM    H9S14429   1.088   1.846   5.433  0.7736  0.7613  0.4836
  134OSM    H9T14430   1.173   1.720   5.549  0.0795 -3.4459 -1.6163
  134OSM   C10S14431   0.996   1.815   5.624 -0.3846 -0.6072 -0.2481
  134OSM   H10S14432   0.970   1.737   5.698 -0.2586 -0.9587 -0.5699
  134OSM   H10T14433   0.898   1.848   5.582 -0.3759  1.3426  1.0724
  134OSM   C11S14434   1.053   1.940   5.696  0.7249  0.3208  0.0389
  134OSM   H11S14435   1.072   2.015   5.617 -2.2565 -0.2402 -1.3499
  134OSM   H11T14436   1.150   1.913   5.743  0.6571 -0.5858 -0.3200
  134OSM   C12S14437   0.955   2.000   5.796  0.5444 -0.0977  0.1882
  134OSM   H12S14438   0.858   2.023   5.746 -0.2881  0.1948  1.8610
  134OSM   H12T14439   0.988   2.101   5.827 -2.0019  0.5873  0.9553
  134OSM   C13S14440   0.931   1.903   5.913 -0.5174 -0.2642 -0.0283
  134OSM   H13S14441   0.900   1.802   5.878  0.6884 -1.7520  2.8281
  134OSM   H13T14442   0.868   1.946   5.993 -1.0298 -1.2316  0.0962
  134OSM   C14S14443   1.058   1.882   6.000  0.4199  0.0405  0.0322
  134OSM   H14S14444   1.131   1.826   5.938 -1.8571 -2.1116 -0.8904
  134OSM   H14T14445   1.027   1.823   6.088 -1.0482  1.3179  0.4180
  134OSM   C15S14446   1.128   2.020   6.038 -0.4541 -0.2596 -0.1497
  134OSM   H15S14447   1.045   2.092   6.054  0.4017  0.7185  0.0229
  134OSM   H15T14448   1.180   2.059   5.948 -1.7110 -0.5946 -1.0329
  134OSM   C16S14449   1.235   2.015   6.148  0.2109 -0.1867  0.2286
  134OSM   H16S14450   1.296   2.108   6.140 -1.7305  1.1078 -0.2857
  134OSM   H16T14451   1.300   1.926   6.134  2.8247  1.2329  2.2475
  134OSM   C17S14452   1.192   1.992   6.293 -1.1608 -0.0796 -0.7555
  134OSM   H17S14453   1.085   1.965   6.303 -1.2508  0.3813 -0.4994
  134OSM   H17T14454   1.199   2.092   6.339  2.6632 -1.3471  1.9231
  134OSM   C18S14455   1.282   1.891   6.370 -0.6522 -0.4825 -0.4806
  134OSM   H18S14456   1.347   1.957   6.431 -2.9389  2.1478 -0.6723
  134OSM   H18T14457   1.345   1.829   6.302 -0.2464  1.1417 -1.6439
  134OSM   H18U14458   1.212   1.838   6.439  0.3299 -1.7298 -0.4011
  134OSM    C1F14459   1.573   1.428   5.036 -0.6280  0.1513 -0.0478
  134OSM     OF14460   1.620   1.532   4.984  0.1455  0.6319 -0.0217
  134OSM    C2F14461   1.655   1.325   5.118  0.2940 -0.2660 -0.0264
  134OSM    H2F14462   1.738   1.383   5.164 -1.2513 -0.4266  3.2471
  134OSM    H2G14463   1.692   1.249   5.046 -1.3505 -0.0927 -1.1140
  134OSM    C3F14464   1.577   1.267   5.243  0.0178 -0.7038  0.3921
  134OSM    H3F14465   1.623   1.188   5.306  2.2576  1.2463  1.3671
  134OSM    H3G14466   1.479   1.231   5.205 -0.5988 -0.0152  1.2668
  134OSM    C4F14467   1.545   1.373   5.345  0.5021 -0.3774 -0.5591
  134OSM    H4F14468   1.504   1.466   5.302  1.0371  0.4303  0.6192
  134OSM    H4G14469   1.639   1.398   5.399 -0.5638  2.2213  0.2651
  134OSM    C5F14470   1.460   1.313   5.456  0.3913 -0.5037  0.4310
  134OSM    H5F14471   1.514   1.249   5.529  0.3196 -0.8434  0.1874
  134OSM    H5G14472   1.388   1.242   5.410  1.5796 -0.1686 -2.1314
  134OSM    C6F14473   1.372   1.418   5.535  0.9694 -0.3979 -0.5358
  134OSM    H6F14474   1.279   1.444   5.480  0.3960 -0.2777  0.4647
  134OSM    H6G14475   1.436   1.509   5.543  1.0599 -0.3060 -2.0028
  134OSM    C7F14476   1.342   1.362   5.672  0.0932  0.5150 -0.2746
  134OSM    H7F14477   1.438   1.331   5.717  0.3339 -1.6420 -2.0893
  134OSM    H7G14478   1.290   1.263   5.665  1.4823 -0.1642 -1.3753
  134OSM    C8F14479   1.282   1.464   5.760 -0.8213 -0.3981  0.4517
  134OSM    H8F14480   1.190   1.505   5.713 -1.1950 -1.7085 -0.0194
  134OSM    H8G14481   1.348   1.553   5.769 -1.2825  0.0574 -0.5031
  134OSM    C9F14482   1.234   1.410   5.890 -0.3952  0.2608 -0.4767
  134OSM    H9F14483   1.152   1.339   5.867  0.9528 -1.8430  0.8658
  134OSM   C10F14484   1.270   1.444   6.012  0.6855 -0.3269 -0.1414
  134OSM   H10F14485   1.238   1.371   6.089  0.1541  2.5377  2.5541
  134OSM   C11F14486   1.378   1.552   6.040 -0.6529  0.1142 -0.3044
  134OSM   H11F14487   1.346   1.648   5.994  0.6028  1.6318  1.8084
  134OSM   H11G14488   1.479   1.522   6.004 -0.2051 -0.2344  1.1924
  134OSM   C12F14489   1.405   1.580   6.186  0.2879 -0.3897 -0.7389
  134OSM   H12F14490   1.327   1.650   6.222  0.2784 -1.4703  1.5675
  134OSM   H12G14491   1.496   1.644   6.189 -0.0777  0.1177 -0.3195
  134OSM   C13F14492   1.419   1.465   6.283 -0.0022 -0.1424  0.6884
  134OSM   H13F14493   1.499   1.393   6.255  1.2458  1.3410  0.3014
  134OSM   H13G14494   1.324   1.409   6.271  0.0315  0.2373 -1.9274
  134OSM   C14F14495   1.430   1.515   6.424  0.5148 -0.3039 -0.7181
  134OSM   H14F14496   1.339   1.572   6.452 -0.4897 -1.6053 -1.2390
  134OSM   H14G14497   1.520   1.579   6.437 -1.3036  2.1710  0.6540
  134OSM   C15F14498   1.436   1.393   6.528  0.1712  0.2748  0.3345
  134OSM   H15F14499   1.517   1.322   6.501  0.0436  1.0061 -2.2051
  134OSM   H15G14500   1.337   1.342   6.521  0.4872 -0.1573 -1.2380
  134OSM   C16F14501   1.464   1.439   6.672 -0.2145 -0.2528  0.0819
  134OSM   H16F14502   1.568   1.478   6.668 -0.4363  0.3243 -0.2857
  134OSM   H16G14503   1.466   1.348   6.735  1.7261 -0.1710  0.1911
  134OSM   C17F14504   1.375   1.549   6.721 -0.2222 -0.4492 -0.6481
  134OSM   H17F14505   1.271   1.514   6.702  0.0484 -2.1915  0.7945
  134OSM   H17G14506   1.392   1.647   6.672  0.4277  0.6681  1.6556
  134OSM   C18F14507   1.399   1.566   6.875 -0.0462 -0.1845 -0.1214
  134OSM   H18F14508   1.332   1.642   6.921 -0.5528 -0.7181  0.0355
  134OSM   H18G14509   1.503   1.602   6.884 -0.7695  2.1546 -0.5191
  134OSM   H18H14510   1.377   1.473   6.932 -2.7574  1.1190  1.1571
  135OSM      N14511   3.476   6.516   3.873  0.3635  0.0537 -0.3569
  135OSM    C1514512   3.341   6.574   3.853  0.3485 -0.2124  0.5575
  135OSM   H15A14513   3.269   6.516   3.909  0.3096 -1.8680 -1.1132
  135OSM   H15B14514   3.317   6.583   3.748  1.8181 -0.8218  0.1336
  135OSM   H15C14515   3.326   6.664   3.910 -0.7467 -0.0234 -0.0031
  135OSM    C1414516   3.496   6.397   3.795 -0.6084  0.9435  0.5910
  135OSM   H14A14517   3.458   6.421   3.697 -1.8978 -0.1590  0.7919
  135OSM   H14B14518   3.433   6.314   3.824 -0.1960 -0.0042 -1.1151
  135OSM   H14C14519   3.599   6.365   3.790  0.1276  3.3288 -2.4521
  135OSM    C1314520   3.580   6.621   3.836 -0.9053 -0.4766  0.6355
  135OSM   H13A14521   3.569   6.714   3.889 -0.8099 -0.4288  0.5719
  135OSM   H13B14522   3.580   6.637   3.729 -0.6846 -0.8551  0.5757
  135OSM   H13C14523   3.680   6.595   3.868 -1.3898 -1.8405  1.1106
  135OSM    C1214524   3.490   6.482   4.013  0.4685 -0.1889 -0.8320
  135OSM   H12A14525   3.398   6.434   4.044  0.0282  1.4318  0.5621
  135OSM   H12B14526   3.483   6.581   4.057 -0.2349 -1.2315  1.5440
  135OSM    C1114527   3.612   6.405   4.071  0.3117 -0.7899 -0.1777
  135OSM   H11A14528   3.617   6.439   4.177  0.8945  2.2873 -1.0854
  135OSM   H11B14529   3.700   6.455   4.023  0.1689 -1.5181 -1.2221
  135OSM      P14530   3.539   6.156   4.126  0.0713  0.2171 -0.4178
  135OSM    O1314531   3.394   6.162   4.106  0.2684 -0.2254  0.4054
  135OSM    O1414532   3.598   6.023   4.120 -0.4765 -0.1263  0.4212
  135OSM    O1114533   3.564   6.221   4.266  0.0620 -0.1221  0.1668
  135OSM    O1214534   3.619   6.264   4.038  0.0154  0.1087  0.7324
  135OSM    C1S14535   3.535   6.149   4.391  0.1057 -0.2757 -0.1955
  135OSM    H1S14536   3.609   6.067   4.398  0.8629  0.3206 -0.9045
  135OSM    H1T14537   3.437   6.098   4.401  0.7089 -1.1056  1.9938
  135OSM     NF14538   3.569   6.178   4.630 -0.4866 -0.1037  0.0177
  135OSM    HNF14539   3.481   6.166   4.675  0.7996 -3.1858  2.0056
  135OSM    C2S14540   3.558   6.258   4.505 -0.1232  0.4538 -0.0099
  135OSM    H2S14541   3.655   6.309   4.489 -0.5816  1.0397 -0.9918
  135OSM    C3S14542   3.443   6.364   4.500  0.7984 -0.3812 -0.1452
  135OSM    H3S14543   3.345   6.311   4.499  1.3151 -1.3729  0.4716
  135OSM     O314544   3.447   6.440   4.384 -0.7840 -0.4648  0.4535
  135OSM    HO314545   3.518   6.399   4.334  0.0142 -1.7238  2.5103
  135OSM    C4S14546   3.439   6.439   4.629 -0.1084 -0.4640  0.6649
  135OSM    H4S14547   3.343   6.432   4.682 -0.4440  0.3419  0.1887
  135OSM    C5S14548   3.527   6.533   4.672 -0.4459 -0.1208 -0.4591
  135OSM    H5S14549   3.617   6.527   4.609 -0.8617 -0.9382 -0.9883
  135OSM    C6S14550   3.521   6.627   4.791  0.4126 -0.4185 -0.1211
  135OSM    H6S14551   3.529   6.735   4.765  0.5220  0.1604  2.1543
  135OSM    H6T14552   3.615   6.605   4.845  1.5563  1.5215 -1.2048
  135OSM    C7S14553   3.400   6.608   4.890 -0.1599 -0.1328  0.7325
  135OSM    H7S14554   3.399   6.503   4.928 -0.7841 -0.7706 -0.9533
  135OSM    H7T14555   3.307   6.645   4.842  1.5415  2.2759 -0.9243
  135OSM    C8S14556   3.424   6.684   5.019 -0.2744  0.1030 -0.1804
  135OSM    H8S14557   3.440   6.791   4.994  0.0442  0.4374  1.3537
  135OSM    H8T14558   3.522   6.652   5.062 -0.9663 -2.2229 -0.1827
  135OSM    C9S14559   3.311   6.663   5.126 -0.0738  0.1442  0.2969
  135OSM    H9S14560   3.295   6.553   5.120  5.0496 -0.8471 -0.3949
  135OSM    H9T14561   3.223   6.713   5.081  0.3785 -0.7445 -1.6850
  135OSM   C10S14562   3.339   6.722   5.264  0.2699 -0.3833  0.5714
  135OSM   H10S14563   3.248   6.720   5.329 -0.2536 -0.0909 -0.1479
  135OSM   H10T14564   3.360   6.830   5.250 -2.7620  0.1699 -0.5308
  135OSM   C11S14565   3.447   6.656   5.351  0.1186 -0.6135  0.3609
  135OSM   H11S14566   3.538   6.642   5.290 -0.1228 -5.3192  0.7104
  135OSM   H11T14567   3.410   6.554   5.377  0.5266 -0.4588  1.6339
  135OSM   C12S14568   3.468   6.732   5.483 -0.0754  0.0647  0.3667
  135OSM   H12S14569   3.377   6.718   5.544 -0.9590  0.6695 -0.7866
  135OSM   H12T14570   3.475   6.838   5.451  1.4882 -0.5083 -1.3626
  135OSM   C13S14571   3.589   6.705   5.572 -1.0003 -0.6895  0.5333
  135OSM   H13S14572   3.675   6.741   5.512 -0.3476 -0.0156  1.8305
  135OSM   H13T14573   3.600   6.599   5.602  1.1491  0.0415  2.6670
  135OSM   C14S14574   3.602   6.798   5.693 -0.4036 -0.3000 -0.0686
  135OSM   H14S14575   3.523   6.765   5.764 -1.5231 -0.9206 -1.5481
  135OSM   H14T14576   3.573   6.903   5.674 -0.3742 -0.0535  1.1881
  135OSM   C15S14577   3.737   6.780   5.758 -1.0664  1.3704  0.2256
  135OSM   H15S14578   3.814   6.809   5.683 -0.6665 -0.0857  0.0362
  135OSM   H15T14579   3.737   6.674   5.792 -2.2079  0.6997 -1.7025
  135OSM   C16S14580   3.765   6.872   5.879  0.0795 -0.8878  0.7791
  135OSM   H16S14581   3.773   6.975   5.838  2.1407 -1.8922 -1.5611
  135OSM   H16T14582   3.867   6.841   5.912  1.5848  1.3206 -1.4462
  135OSM   C17S14583   3.653   6.869   5.982  1.0966  0.4507 -0.3767
  135OSM   H17S14584   3.630   6.762   6.004  1.7161  0.0358 -1.6464
  135OSM   H17T14585   3.563   6.904   5.926  1.1001 -0.3618 -0.9132
  135OSM   C18S14586   3.669   6.941   6.117  0.0426  0.0468  0.2503
  135OSM   H18S14587   3.717   7.041   6.115  0.1729  0.0283 -2.4386
  135OSM   H18T14588   3.747   6.887   6.175  0.4070 -0.6218 -0.8050
  135OSM   H18U14589   3.579   6.944   6.181  0.9938 -0.0562  1.6417
  135OSM    C1F14590   3.678   6.108   4.667  0.5218  0.2908 -0.1731
  135OSM     OF14591   3.765   6.097   4.589 -0.2713 -0.4188  0.1830
  135OSM    C2F14592   3.665   6.023   4.793 -0.0271 -0.4961  0.7427
  135OSM    H2F14593   3.689   5.917   4.769  2.6936 -0.3769  2.5273
  135OSM    H2G14594   3.557   6.018   4.816 -0.3896  0.1462 -0.6800
  135OSM    C3F14595   3.758   6.078   4.900 -0.2147  0.3279 -0.0957
  135OSM    H3F14596   3.723   6.177   4.938 -1.8650 -0.5179  0.6983
  135OSM    H3G14597   3.864   6.075   4.869 -0.1309 -1.2416  0.2825
  135OSM    C4F14598   3.755   5.981   5.019  0.4540  0.6949 -0.4281
  135OSM    H4F14599   3.836   6.011   5.090  0.4150 -1.5423  0.6269
  135OSM    H4G14600   3.783   5.878   4.990 -2.0913 -1.0123  2.6406
  135OSM    C5F14601   3.621   5.973   5.083 -0.1256 -0.7181 -0.2994
  135OSM    H5F14602   3.548   5.933   5.009  0.4796 -0.1345 -1.2378
  135OSM    H5G14603   3.584   6.075   5.102 -1.0630 -0.7099 -1.9641
  135OSM    C6F14604   3.635   5.898   5.221 -0.0203 -0.2625  0.9258
  135OSM    H6F14605   3.714   5.943   5.285 -0.6105 -0.6141  1.9173
  135OSM    H6G14606   3.674   5.797   5.196  0.1897  0.2845 -1.0678
  135OSM    C7F14607   3.503   5.884   5.300 -0.1605  0.2687  0.1750
  135OSM    H7F14608   3.435   5.823   5.237  2.7743 -1.9520 -1.1271
  135OSM    H7G14609   3.453   5.983   5.308  0.2160  0.4804 -0.0547
  135OSM    C8F14610   3.533   5.821   5.439  0.4748  0.0382 -0.1719
  135OSM    H8F14611   3.605   5.871   5.506 -0.6448  1.2823  0.1488
  135OSM    H8G14612   3.566   5.719   5.408 -1.2015 -0.0463 -1.8741
  135OSM    C9F14613   3.399   5.813   5.500  0.1340  0.3772 -0.0660
  135OSM    H9F14614   3.348   5.725   5.459  1.4276  0.0985 -1.1668
  135OSM   C10F14615   3.348   5.906   5.591  0.0013  0.0256  0.1462
  135OSM   H10F14616   3.251   5.882   5.638  0.4354  0.2387  1.1600
  135OSM   C11F14617   3.414   6.025   5.650  0.2756  0.1459  0.1451
  135OSM   H11F14618   3.524   6.030   5.640  0.3919  1.7934  1.7530
  135OSM   H11G14619   3.392   6.028   5.759 -1.3854  1.6620 -0.1876
  135OSM   C12F14620   3.359   6.157   5.592 -0.5309 -0.5078 -0.5352
  135OSM   H12F14621   3.249   6.172   5.592 -0.3007  1.6091 -0.2114
  135OSM   H12G14622   3.400   6.161   5.489  1.7544 -2.6539  0.1872
  135OSM   C13F14623   3.416   6.275   5.673 -0.3833 -0.2902 -0.3038
  135OSM   H13F14624   3.416   6.363   5.604  0.3094 -0.5600 -0.6602
  135OSM   H13G14625   3.523   6.264   5.702 -0.1026 -4.4128 -2.1836
  135OSM   C14F14626   3.328   6.312   5.793  0.6755 -0.2980 -0.1526
  135OSM   H14F14627   3.367   6.248   5.874  1.4787  3.3967  2.5998
  135OSM   H14G14628   3.220   6.290   5.779  1.0119 -1.1788 -1.5906
  135OSM   C15F14629   3.323   6.458   5.851  0.0290  0.2904 -0.7113
  135OSM   H15F14630   3.260   6.454   5.942  1.1433  0.9818  0.1172
  135OSM   H15G14631   3.279   6.532   5.780 -0.7881  1.1736  0.6700
  135OSM   C16F14632   3.467   6.502   5.889 -0.0406 -0.4856 -0.4143
  135OSM   H16F14633   3.457   6.602   5.936 -3.0538  0.3860 -2.6081
  135OSM   H16G14634   3.523   6.523   5.795  1.4578  2.2000  0.9427
  135OSM   C17F14635   3.553   6.415   5.983 -0.8529  0.0372 -0.0436
  135OSM   H17F14636   3.556   6.313   5.939 -0.5996  0.1148 -0.2067
  135OSM   H17G14637   3.496   6.394   6.077  0.0780 -1.9789  0.1353
  135OSM   C18F14638   3.693   6.456   5.997 -0.7857  0.0523 -0.2748
  135OSM   H18F14639   3.744   6.450   5.898 -0.6277 -1.6120 -0.1306
  135OSM   H18G14640   3.744   6.385   6.065  2.1222  2.1204 -0.1363
  135OSM   H18H14641   3.704   6.557   6.040 -0.6301 -0.2854  0.4947
  136OSM      N14642   5.465   3.565   4.081  0.0960  0.4812 -0.5505
  136OSM    C1514643   5.374   3.490   3.985  0.6739 -0.0207  0.6933
  136OSM   H15A14644   5.399   3.509   3.882  1.3196 -0.1110  0.8271
  136OSM   H15B14645   5.277   3.533   4.005 -0.0209 -1.4762  0.5923
  136OSM   H15C14646   5.367   3.383   3.997 -0.6641 -0.2314 -1.4217
  136OSM    C1414647   5.600   3.499   4.062 -0.7211  0.6190  0.1564
  136OSM   H14A14648   5.596   3.392   4.080 -0.4283  0.8555  1.6713
  136OSM   H14B14649   5.671   3.547   4.126 -0.8739  1.5540 -0.3631
  136OSM   H14C14650   5.623   3.506   3.957 -0.2503 -1.7976  0.0241
  136OSM    C1314651   5.459   3.716   4.057 -0.0884 -0.0473  0.3097
  136OSM   H13A14652   5.529   3.760   4.127  0.6230  1.4109 -1.2578
  136OSM   H13B14653   5.363   3.752   4.090  1.1729  3.2022  0.7715
  136OSM   H13C14654   5.476   3.746   3.955  1.8868 -0.0191  0.6089
  136OSM    C1214655   5.410   3.541   4.222 -0.3025  0.0334 -0.2018
  136OSM   H12A14656   5.487   3.582   4.286 -1.1663 -0.8961  1.5106
  136OSM   H12B14657   5.401   3.434   4.237 -3.3263  0.0761 -1.1654
  136OSM    C1114658   5.275   3.602   4.250  0.5552  0.5449  0.1293
  136OSM   H11A14659   5.217   3.547   4.326  1.3928 -0.2530  0.2150
  136OSM   H11B14660   5.206   3.595   4.163  0.2717 -0.1738  0.4073
  136OSM      P14661   5.359   3.792   4.409  0.1295 -0.0345 -0.1373
  136OSM    O1314662   5.375   3.944   4.406  0.3267 -0.5593  0.1170
  136OSM    O1414663   5.288   3.744   4.531 -0.2782  0.4082  0.5200
  136OSM    O1114664   5.506   3.736   4.417 -0.4467  0.8161 -0.3650
  136OSM    O1214665   5.287   3.742   4.280  0.0392 -0.2572  0.2202
  136OSM    C1S14666   5.596   3.774   4.526  0.4590  0.5164  0.6734
  136OSM    H1S14667   5.544   3.745   4.620 -0.5337 -1.8178 -0.4912
  136OSM    H1T14668   5.623   3.881   4.519  3.2503 -0.1169  0.2321
  136OSM     NF14669   5.800   3.725   4.665  0.3594 -0.1151  0.0227
  136OSM    HNF14670   5.882   3.782   4.657 -0.8387  1.6600 -0.2099
  136OSM    C2S14671   5.729   3.695   4.537 -1.2809  0.3388  0.0831
  136OSM    H2S14672   5.711   3.587   4.553  0.9547  0.2323  2.7396
  136OSM    C3S14673   5.812   3.694   4.404  0.7948 -0.1110  0.1998
  136OSM    H3S14674   5.843   3.800   4.395  0.9855 -0.2303 -0.6337
  136OSM     O314675   5.732   3.654   4.293 -0.4013 -0.3784 -0.2174
  136OSM    HO314676   5.650   3.670   4.339  0.1313 -1.5365  1.2206
  136OSM    C4S14677   5.936   3.602   4.432 -0.1037 -0.3397 -0.2729
  136OSM    H4S14678   6.033   3.648   4.455 -0.6264  0.0501  1.2606
  136OSM    C5S14679   5.941   3.465   4.432  0.1886  0.3446 -0.5001
  136OSM    H5S14680   5.854   3.405   4.403  0.2660 -0.0501  0.0694
  136OSM    C6S14681   6.066   3.386   4.457  0.1467 -0.3112 -0.5082
  136OSM    H6S14682   6.156   3.451   4.469 -2.1422  2.6772  2.1650
  136OSM    H6T14683   6.095   3.338   4.361  1.4679 -1.1125  0.2622
  136OSM    C7S14684   6.064   3.280   4.577 -0.9029 -0.6818 -1.1291
  136OSM    H7S14685   6.160   3.226   4.588 -1.6411 -1.8492 -0.0879
  136OSM    H7T14686   5.991   3.207   4.536 -0.7464 -1.1056 -0.6625
  136OSM    C8S14687   6.026   3.339   4.712 -0.1014 -0.2895  0.3911
  136OSM    H8S14688   5.917   3.356   4.720 -0.2337 -1.4803  1.3528
  136OSM    H8T14689   6.069   3.441   4.725 -0.5478  0.2524 -1.8889
  136OSM    C9S14690   6.065   3.248   4.825 -0.3915  0.3684 -0.0409
  136OSM    H9S14691   6.173   3.220   4.832 -0.3606  0.6994  0.9834
  136OSM    H9T14692   6.014   3.150   4.812 -2.1926  1.1863  0.6243
  136OSM   C10S14693   6.024   3.305   4.962 -0.7821  0.2338 -0.6668
  136OSM   H10S14694   5.918   3.336   4.954 -0.1640  2.2743 -1.7017
  136OSM   H10T14695   6.086   3.398   4.956  0.1933 -0.3849 -0.4292
  136OSM   C11S14696   6.068   3.217   5.078  0.6014 -0.4981 -0.5552
  136OSM   H11S14697   6.179   3.207   5.074  0.7040 -0.7346  1.5665
  136OSM   H11T14698   6.023   3.116   5.076 -0.9935  0.1768 -0.5423
  136OSM   C12S14699   6.039   3.281   5.219 -0.0034  0.1265  0.5690
  136OSM   H12S14700   5.931   3.269   5.240 -0.7683  2.1812 -1.6751
  136OSM   H12T14701   6.057   3.391   5.211 -0.4314  0.1603  0.0951
  136OSM   C13S14702   6.123   3.215   5.329 -0.6066  0.8602  0.3359
  136OSM   H13S14703   6.227   3.195   5.295 -1.2060 -0.2291 -0.9690
  136OSM   H13T14704   6.077   3.118   5.356 -0.7511 -0.2538 -3.3579
  136OSM   C14S14705   6.138   3.302   5.453 -0.2633  0.7469 -0.8070
  136OSM   H14S14706   6.036   3.329   5.489 -0.6010  1.0615 -1.9602
  136OSM   H14T14707   6.193   3.395   5.426  0.0842  0.5369 -0.8308
  136OSM   C15S14708   6.219   3.226   5.561  0.4993 -0.1072 -0.2063
  136OSM   H15S14709   6.303   3.166   5.523  0.4078 -2.4184  2.8389
  136OSM   H15T14710   6.139   3.161   5.604 -0.3371  1.0492  0.0543
  136OSM   C16S14711   6.277   3.320   5.666 -0.2102 -0.6552 -0.1047
  136OSM   H16S14712   6.336   3.389   5.603  0.2542 -2.2896 -1.5446
  136OSM   H16T14713   6.349   3.272   5.735  1.4440 -0.7421 -1.8135
  136OSM   C17S14714   6.177   3.397   5.750  0.1169  0.5333 -0.0813
  136OSM   H17S14715   6.127   3.326   5.820 -1.0149  2.2761  0.9526
  136OSM   H17T14716   6.102   3.438   5.680  2.5837  1.1651 -2.5442
  136OSM   C18S14717   6.244   3.518   5.821  0.0192  0.5610  0.2007
  136OSM   H18S14718   6.262   3.592   5.740  2.9946  0.4450  0.6305
  136OSM   H18T14719   6.344   3.499   5.866 -0.4831  1.0554  1.5944
  136OSM   H18U14720   6.176   3.573   5.891 -2.0422 -0.1385 -1.1817
  136OSM    C1F14721   5.748   3.698   4.780  0.3314  0.4334 -0.2696
  136OSM     OF14722   5.651   3.624   4.790  0.0075 -0.0135 -0.1420
  136OSM    C2F14723   5.809   3.764   4.897 -0.3597 -0.3334 -0.2318
  136OSM    H2F14724   5.804   3.875   4.895 -0.4449 -0.3298  0.1485
  136OSM    H2G14725   5.915   3.732   4.907 -0.4892 -0.5354  0.5628
  136OSM    C3F14726   5.740   3.735   5.032  0.6163  0.2437  0.6636
  136OSM    H3F14727   5.733   3.625   5.039 -2.4567  0.3984  1.5611
  136OSM    H3G14728   5.638   3.778   5.025  0.5931 -0.0145 -0.6579
  136OSM    C4F14729   5.804   3.783   5.165  0.2846 -0.8458  0.1865
  136OSM    H4F14730   5.761   3.883   5.183 -1.0833 -1.4966  0.7001
  136OSM    H4G14731   5.911   3.800   5.138  0.0383 -0.3830 -0.5174
  136OSM    C5F14732   5.784   3.690   5.276  0.2228  0.2320 -0.8484
  136OSM    H5F14733   5.815   3.588   5.245  0.8469  0.2056 -0.1767
  136OSM    H5G14734   5.676   3.685   5.300  0.6543  0.9156  1.5728
  136OSM    C6F14735   5.870   3.726   5.406 -0.3000  0.6709  0.3802
  136OSM    H6F14736   5.857   3.833   5.433  1.0026  0.8885  0.2322
  136OSM    H6G14737   5.974   3.709   5.371 -0.0784  2.6794 -0.0499
  136OSM    C7F14738   5.819   3.650   5.532 -0.2045 -0.2804  0.4414
  136OSM    H7F14739   5.808   3.542   5.508  1.1750 -0.5825  1.0547
  136OSM    H7G14740   5.716   3.684   5.556  0.4755  1.8746  0.5248
  136OSM    C8F14741   5.905   3.661   5.653 -0.7777 -0.0528 -1.0365
  136OSM    H8F14742   6.008   3.638   5.619 -0.0151  1.2172  0.2796
  136OSM    H8G14743   5.871   3.584   5.725 -2.2799  0.0731 -1.5664
  136OSM    C9F14744   5.925   3.797   5.709 -0.7128 -1.0588  0.3632
  136OSM    H9F14745   5.965   3.864   5.632  0.7740 -1.1099  1.0612
  136OSM   C10F14746   5.895   3.840   5.832 -0.5330  0.3685  0.4540
  136OSM   H10F14747   5.934   3.938   5.865 -0.6609  0.7131 -0.3886
  136OSM   C11F14748   5.833   3.759   5.943 -0.7711 -0.2888  0.4251
  136OSM   H11F14749   5.754   3.690   5.908  0.9057 -1.7445 -0.6607
  136OSM   H11G14750   5.775   3.831   6.005 -2.0945  1.3020 -2.4505
  136OSM   C12F14751   5.945   3.681   6.027  0.4016 -0.1038  1.2971
  136OSM   H12F14752   6.037   3.740   6.050  2.0036 -2.2377  0.7091
  136OSM   H12G14753   5.966   3.590   5.967  1.5638  1.1878 -0.3828
  136OSM   C13F14754   5.879   3.622   6.160  0.1011  0.4618  0.4164
  136OSM   H13F14755   5.797   3.552   6.132  0.6634  0.1444 -0.5014
  136OSM   H13G14756   5.834   3.709   6.212  1.2058  0.8642  0.7139
  136OSM   C14F14757   5.968   3.526   6.239 -0.4478 -1.1116  0.2079
  136OSM   H14F14758   6.054   3.590   6.269  0.1643 -1.4775 -0.7104
  136OSM   H14G14759   6.009   3.447   6.172  0.2166 -0.4346 -0.2010
  136OSM   C15F14760   5.893   3.454   6.360  0.0791 -0.1359  0.8794
  136OSM   H15F14761   5.833   3.373   6.312  0.5246 -0.0975  0.2377
  136OSM   H15G14762   5.818   3.522   6.405 -1.0944  0.6167 -1.9522
  136OSM   C16F14763   6.000   3.394   6.457 -0.7016 -1.0204  0.1377
  136OSM   H16F14764   6.070   3.469   6.498 -1.6257 -0.6334  1.0582
  136OSM   H16G14765   6.068   3.335   6.393  0.4105  0.5266 -0.1646
  136OSM   C17F14766   5.946   3.309   6.579 -0.6023  0.2435  0.3812
  136OSM   H17F14767   5.913   3.365   6.669  0.8005 -1.5575  2.0905
  136OSM   H17G14768   6.030   3.255   6.627 -1.1364 -0.3109  0.6949
  136OSM   C18F14769   5.837   3.217   6.542  1.0090 -0.0805 -0.0274
  136OSM   H18F14770   5.748   3.272   6.503  2.1497  2.0365  0.1582
  136OSM   H18G14771   5.796   3.162   6.630  2.1902 -0.1960  0.4660
  136OSM   H18H14772   5.871   3.150   6.461  0.4321 -1.3258  0.7222
  137OSM      N14773   3.988   0.359   3.833 -0.1367  0.0157 -0.1550
  137OSM    C1514774   3.926   0.501   3.842  0.0938 -0.5568  0.4448
  137OSM   H15A14775   4.002   0.575   3.825 -0.3033 -0.0838  0.6987
  137OSM   H15B14776   3.888   0.511   3.943  0.0425 -3.0292  0.7365
  137OSM   H15C14777   3.850   0.509   3.765  0.8526  0.9720 -0.1897
  137OSM    C1414778   3.876   0.268   3.854  0.2035  0.1084  0.4792
  137OSM   H14A14779   3.922   0.174   3.878  2.3111  1.2462  1.1047
  137OSM   H14B14780   3.810   0.259   3.769 -1.0492 -0.6892  1.4963
  137OSM   H14C14781   3.830   0.312   3.942 -1.2845 -1.1171  0.3623
  137OSM    C1314782   4.045   0.344   3.698 -0.5444 -0.2605 -0.8832
  137OSM   H13A14783   3.961   0.352   3.630  0.7793  0.7001 -2.4853
  137OSM   H13B14784   4.106   0.255   3.692 -0.4172 -0.1106 -1.9740
  137OSM   H13C14785   4.112   0.424   3.671  0.8152 -1.1328 -0.2140
  137OSM    C1214786   4.098   0.347   3.942  1.4369  0.1480 -0.0211
  137OSM   H12A14787   4.171   0.424   3.925  0.5902  1.1612  0.7314
  137OSM   H12B14788   4.154   0.257   3.922  1.7961  0.4211 -0.2509
  137OSM    C1114789   4.047   0.339   4.092  0.6067 -0.7237 -0.5322
  137OSM   H11A14790   4.140   0.336   4.153 -0.0031 -3.0229  0.3886
  137OSM   H11B14791   3.993   0.244   4.109  1.4414 -1.1719 -0.3266
  137OSM      P14792   3.848   0.442   4.216  0.4439 -0.2179  0.3593
  137OSM    O1314793   3.790   0.578   4.215  0.2033 -0.0130  0.1564
  137OSM    O1414794   3.749   0.337   4.175  0.3987  0.5647  0.0701
  137OSM    O1114795   3.922   0.410   4.351  0.4296 -0.0109 -0.3475
  137OSM    O1214796   3.967   0.454   4.113 -0.5633 -0.4210 -0.0651
  137OSM    C1S14797   4.025   0.492   4.405 -0.0353 -0.4055  0.5817
  137OSM    H1S14798   4.010   0.597   4.369  0.0071  0.0928  1.9576
  137OSM    H1T14799   4.126   0.464   4.369 -0.0071  0.7157 -0.2739
  137OSM     NF14800   4.147   0.579   4.603  0.1413  0.6308  0.4902
  137OSM    HNF14801   4.230   0.528   4.621 -0.2277 -0.3538 -0.4965
  137OSM    C2S14802   4.032   0.495   4.558 -0.8389 -0.2034 -0.7291
  137OSM    H2S14803   3.933   0.532   4.593 -1.9817 -2.3443 -1.5208
  137OSM    C3S14804   4.044   0.352   4.616 -0.5975 -0.6733  0.5446
  137OSM    H3S14805   4.136   0.306   4.575 -0.6612  0.1558 -0.5517
  137OSM     O314806   3.948   0.262   4.576  0.0458  0.0563  0.1531
  137OSM    HO314807   3.899   0.299   4.502 -1.3725 -0.4594  0.7956
  137OSM    C4S14808   4.058   0.347   4.766  0.1929 -0.5997 -0.5282
  137OSM    H4S14809   4.150   0.387   4.811  0.0453  0.0639 -0.8111
  137OSM    C5S14810   3.962   0.321   4.855  0.0873 -0.4510 -0.0220
  137OSM    H5S14811   3.864   0.293   4.813 -0.1019 -0.5571  0.4809
  137OSM    C6S14812   3.949   0.359   5.003 -0.2877 -0.0732 -0.4928
  137OSM    H6S14813   3.956   0.277   5.077  4.0780  0.6014  0.0853
  137OSM    H6T14814   3.851   0.410   5.016 -1.1432 -1.0144 -2.7088
  137OSM    C7S14815   4.057   0.447   5.070  0.8890  0.4188 -0.1890
  137OSM    H7S14816   4.076   0.542   5.014  3.0043  0.8562  1.1799
  137OSM    H7T14817   4.145   0.380   5.076 -0.1865 -1.2790 -1.9698
  137OSM    C8S14818   4.016   0.476   5.219  0.1759  0.3078 -0.4210
  137OSM    H8S14819   3.981   0.377   5.254  0.5732 -0.5840 -2.4456
  137OSM    H8T14820   3.930   0.546   5.212 -3.1960 -3.2554  1.5346
  137OSM    C9S14821   4.136   0.549   5.291  0.1128  0.0447  0.3481
  137OSM    H9S14822   4.154   0.642   5.233 -0.8157  0.9107  1.4045
  137OSM    H9T14823   4.230   0.490   5.298  1.8074  2.1674 -2.4646
  137OSM   C10S14824   4.087   0.597   5.426 -0.5655  0.3627 -0.1185
  137OSM   H10S14825   4.060   0.504   5.480 -1.8133  0.3978 -0.6360
  137OSM   H10T14826   3.990   0.652   5.419 -3.0764 -3.3077  2.1161
  137OSM   C11S14827   4.199   0.676   5.500 -0.2460  0.1057  0.2679
  137OSM   H11S14828   4.150   0.736   5.580 -1.0715  2.1600 -1.6788
  137OSM   H11T14829   4.255   0.737   5.426  1.8107 -0.5409  1.2120
  137OSM   C12S14830   4.302   0.588   5.575 -0.3542 -0.0775 -0.0663
  137OSM   H12S14831   4.342   0.518   5.499 -1.4999 -0.0919 -0.6850
  137OSM   H12T14832   4.245   0.514   5.636  1.0715 -0.3138  1.0249
  137OSM   C13S14833   4.415   0.665   5.642  0.3821 -0.5509  0.0452
  137OSM   H13S14834   4.444   0.761   5.593 -1.7278 -0.1371 -0.5034
  137OSM   H13T14835   4.498   0.598   5.674  0.8752 -0.1939 -0.4489
  137OSM   C14S14836   4.379   0.704   5.788  0.0018  0.2779 -0.2007
  137OSM   H14S14837   4.356   0.614   5.848  3.7926 -1.1217 -0.6161
  137OSM   H14T14838   4.284   0.761   5.792 -0.4523 -0.5106  0.5311
  137OSM   C15S14839   4.486   0.778   5.869 -0.2735 -0.3800  0.2121
  137OSM   H15S14840   4.429   0.823   5.953 -0.6510  1.0209 -0.7610
  137OSM   H15T14841   4.517   0.860   5.801  2.2676 -1.2184  0.2582
  137OSM   C16S14842   4.603   0.694   5.933  0.1032  0.4656  0.6648
  137OSM   H16S14843   4.668   0.779   5.965  0.7296  0.4056 -0.4017
  137OSM   H16T14844   4.650   0.636   5.851  1.5864  1.8361  0.4939
  137OSM   C17S14845   4.570   0.608   6.056 -0.0104  0.1838  0.4443
  137OSM   H17S14846   4.659   0.561   6.102 -0.7969  0.6314  2.5375
  137OSM   H17T14847   4.500   0.527   6.027  0.0856 -0.6489  2.3987
  137OSM   C18S14848   4.504   0.681   6.176  1.1094  0.8050  0.8306
  137OSM   H18S14849   4.516   0.618   6.267  1.6889  0.0298  0.2338
  137OSM   H18T14850   4.397   0.699   6.151  1.0779 -0.9611 -0.4881
  137OSM   H18U14851   4.560   0.775   6.195  1.7738  0.7501 -0.7419
  137OSM    C1F14852   4.151   0.708   4.574 -0.7247 -0.8060 -0.7537
  137OSM     OF14853   4.055   0.762   4.514  0.4814 -0.3729 -0.3626
  137OSM    C2F14854   4.279   0.777   4.602  0.2704  0.1129  0.1943
  137OSM    H2F14855   4.332   0.769   4.505 -0.0451 -1.2503  0.1202
  137OSM    H2G14856   4.333   0.727   4.686  1.7548 -1.3516 -1.5639
  137OSM    C3F14857   4.257   0.930   4.636 -0.0226  0.4788  0.6043
  137OSM    H3F14858   4.182   0.968   4.563 -0.6784 -1.5879  0.1365
  137OSM    H3G14859   4.350   0.983   4.608 -1.0462  1.6596 -0.7530
  137OSM    C4F14860   4.210   0.960   4.778 -0.2573 -0.4032 -0.0204
  137OSM    H4F14861   4.128   0.892   4.810 -0.1575 -0.4855  0.0603
  137OSM    H4G14862   4.169   1.063   4.773 -1.1530 -0.5948  2.0354
  137OSM    C5F14863   4.326   0.965   4.873  0.1243  0.2368  0.1913
  137OSM    H5F14864   4.401   1.026   4.818  1.0303 -0.7459  0.3045
  137OSM    H5G14865   4.370   0.864   4.888  0.3252 -0.0370 -1.8923
  137OSM    C6F14866   4.289   1.013   5.010 -0.6871 -0.6066  0.0889
  137OSM    H6F14867   4.193   0.964   5.036 -0.2501 -1.8765 -0.6494
  137OSM    H6G14868   4.264   1.122   5.010 -0.0419 -0.4124 -2.0402
  137OSM    C7F14869   4.391   0.989   5.120  0.3701 -0.0198 -0.3887
  137OSM    H7F14870   4.481   1.054   5.110 -0.0018  0.7188  0.9137
  137OSM    H7G14871   4.421   0.882   5.114  1.2544  0.0677  1.6804
  137OSM    C8F14872   4.344   0.995   5.270  0.1249 -0.6392 -0.1323
  137OSM    H8F14873   4.275   0.908   5.278 -0.0137 -0.3938  1.9257
  137OSM    H8G14874   4.304   1.096   5.293  1.6793 -0.0574  0.1422
  137OSM    C9F14875   4.456   0.958   5.362  0.8046 -0.3165  0.2739
  137OSM    H9F14876   4.489   0.854   5.345  1.7323 -0.1303  0.8814
  137OSM   C10F14877   4.518   1.040   5.458  0.3845 -0.1251 -0.1478
  137OSM   H10F14878   4.606   1.002   5.513  1.6482  1.0583 -1.2808
  137OSM   C11F14879   4.472   1.176   5.495  0.7000 -0.3876 -0.6293
  137OSM   H11F14880   4.422   1.234   5.415  2.5909  3.6769  0.8844
  137OSM   H11G14881   4.550   1.249   5.525 -0.5612  0.2955  1.2011
  137OSM   C12F14882   4.379   1.155   5.610  0.3145 -0.5918  0.4521
  137OSM   H12F14883   4.420   1.078   5.679 -1.1959  0.4839  2.6938
  137OSM   H12G14884   4.285   1.113   5.571 -0.2963  1.3950 -0.3750
  137OSM   C13F14885   4.346   1.268   5.703  0.0740 -0.0880  0.5979
  137OSM   H13F14886   4.290   1.336   5.635 -3.1504 -2.8817  0.1686
  137OSM   H13G14887   4.435   1.318   5.748 -1.7161  2.1848  1.8191
  137OSM   C14F14888   4.251   1.211   5.802  0.0180 -0.1312  0.1753
  137OSM   H14F14889   4.306   1.145   5.873 -1.7059  0.2164  1.9163
  137OSM   H14G14890   4.175   1.148   5.751  0.9456 -1.0325 -0.1379
  137OSM   C15F14891   4.178   1.319   5.884  0.7623  0.2517  0.2530
  137OSM   H15F14892   4.166   1.413   5.826  0.6316  1.4953  2.2081
  137OSM   H15G14893   4.236   1.348   5.975 -0.6393 -2.2013  2.0561
  137OSM   C16F14894   4.036   1.272   5.937  1.2411 -0.6093  0.5325
  137OSM   H16F14895   3.989   1.198   5.869 -2.0652  2.3558 -0.7251
  137OSM   H16G14896   3.964   1.355   5.922  0.4275 -1.2382  0.8794
  137OSM   C17F14897   4.037   1.229   6.086 -0.4959  0.1831  0.4159
  137OSM   H17F14898   4.110   1.294   6.139  0.7994 -0.5611 -0.4056
  137OSM   H17G14899   4.094   1.134   6.084  1.5808  1.3772 -1.2226
  137OSM   C18F14900   3.907   1.201   6.168  0.2122 -0.0001  0.5150
  137OSM   H18F14901   3.855   1.297   6.191 -0.9597 -1.0020  2.2684
  137OSM   H18G14902   3.920   1.154   6.267 -2.2575 -0.6713  0.5908
  137OSM   H18H14903   3.838   1.145   6.101  0.9229  1.5148 -1.5879
  138OSM      N14904   4.219   3.663   4.378 -0.5418  0.2606 -0.0989
  138OSM    C1514905   4.142   3.751   4.474 -0.6362  0.1493  0.8985
  138OSM   H15A14906   4.199   3.840   4.494 -0.4302  0.9692 -2.5862
  138OSM   H15B14907   4.116   3.695   4.562 -2.2351  2.2699  1.8588
  138OSM   H15C14908   4.049   3.789   4.433 -1.1429 -0.2211  1.6802
  138OSM    C1414909   4.320   3.585   4.453 -0.3368  0.6116  0.1522
  138OSM   H14A14910   4.351   3.499   4.395 -0.9074 -1.2298  2.4565
  138OSM   H14B14911   4.273   3.553   4.545  2.7413 -0.3500  1.5194
  138OSM   H14C14912   4.404   3.649   4.475 -0.6063  1.5026 -1.2638
  138OSM    C1314913   4.124   3.548   4.321  0.3450  0.4385 -0.3948
  138OSM   H13A14914   4.191   3.466   4.299 -0.4772 -0.0116 -1.3037
  138OSM   H13B14915   4.082   3.591   4.231  1.4562  1.9853 -0.2178
  138OSM   H13C14916   4.053   3.517   4.396  1.1670  1.1458  0.7021
  138OSM    C1214917   4.265   3.748   4.260 -0.3245 -0.3224 -0.4473
  138OSM   H12A14918   4.341   3.706   4.196  1.4104  2.4995 -0.4112
  138OSM   H12B14919   4.322   3.824   4.312 -1.0600 -1.4801  2.2042
  138OSM    C1114920   4.152   3.802   4.165 -0.4275  0.4549  0.3076
  138OSM   H11A14921   4.114   3.730   4.090 -2.0934  0.2247  1.3086
  138OSM   H11B14922   4.208   3.877   4.105  2.7140 -1.8443  0.0820
  138OSM      P14923   3.907   3.881   4.177  0.8325  0.0800 -0.3253
  138OSM    O1314924   3.877   4.027   4.182 -0.5365  0.0070 -0.0224
  138OSM    O1414925   3.885   3.808   4.051  0.3655  0.1034  0.3076
  138OSM    O1114926   3.817   3.813   4.292  0.6500  0.0821 -0.2339
  138OSM    O1214927   4.052   3.858   4.239  0.0161 -0.2392  0.9436
  138OSM    C1S14928   3.776   3.890   4.412  0.3257  0.0218  0.2191
  138OSM    H1S14929   3.722   3.981   4.380  0.9967 -0.5359 -2.8314
  138OSM    H1T14930   3.868   3.923   4.465  0.3389  0.5452 -0.1290
  138OSM     NF14931   3.613   3.883   4.601 -0.2245 -0.4385  1.2609
  138OSM    HNF14932   3.648   3.900   4.693  1.4563 -1.4651  0.8615
  138OSM    C2S14933   3.686   3.803   4.510 -0.8104  0.5428 -0.1113
  138OSM    H2S14934   3.619   3.750   4.440 -0.1189 -0.4870 -0.0078
  138OSM    C3S14935   3.781   3.699   4.587  0.2325  0.3891 -0.0188
  138OSM    H3S14936   3.861   3.744   4.648  1.6744 -2.2867  0.1956
  138OSM     O314937   3.863   3.617   4.495  0.2018  0.1907  0.5387
  138OSM    HO314938   3.852   3.650   4.405 -0.4100 -1.0884  0.1207
  138OSM    C4S14939   3.692   3.614   4.680 -0.2725 -0.2831  0.5317
  138OSM    H4S14940   3.627   3.540   4.631 -0.0270 -0.5735  0.6413
  138OSM    C5S14941   3.697   3.633   4.809 -0.2433 -0.3289 -0.3269
  138OSM    H5S14942   3.770   3.707   4.843  0.0851 -0.2127 -1.2509
  138OSM    C6S14943   3.615   3.557   4.908  1.3663 -0.3643  0.2969
  138OSM    H6S14944   3.682   3.527   4.991  0.8292 -1.9025  0.2005
  138OSM    H6T14945   3.576   3.462   4.865 -0.5088  0.5495 -0.1433
  138OSM    C7S14946   3.497   3.643   4.962 -0.2596  0.1210  0.6251
  138OSM    H7S14947   3.433   3.681   4.879  0.6217 -0.4187 -0.3369
  138OSM    H7T14948   3.540   3.727   5.020  2.2017 -0.6782  0.0834
  138OSM    C8S14949   3.415   3.560   5.063 -0.2469 -0.0241  0.7729
  138OSM    H8S14950   3.371   3.469   5.016  3.9825 -0.3117 -3.4212
  138OSM    H8T14951   3.343   3.633   5.106  1.8236  1.2221  2.3071
  138OSM    C9S14952   3.495   3.519   5.183  0.6205 -0.7294 -0.5471
  138OSM    H9S14953   3.552   3.605   5.224 -1.1487 -0.5834  1.7939
  138OSM    H9T14954   3.580   3.452   5.156 -0.1273 -1.7543 -0.3967
  138OSM   C10S14955   3.414   3.442   5.292  0.6978 -0.0838 -0.2099
  138OSM   H10S14956   3.409   3.335   5.261  0.4004 -0.3566  0.7323
  138OSM   H10T14957   3.313   3.488   5.287  1.1985  0.9716 -0.8560
  138OSM   C11S14958   3.484   3.454   5.426 -0.2873  0.2964  0.1985
  138OSM   H11S14959   3.489   3.562   5.451 -1.4897  0.2715  0.6280
  138OSM   H11T14960   3.588   3.414   5.423 -0.1517  0.4354  2.0504
  138OSM   C12S14961   3.407   3.365   5.531 -0.5830  0.5554  0.1784
  138OSM   H12S14962   3.418   3.256   5.508 -1.8116  0.3875  0.3064
  138OSM   H12T14963   3.298   3.385   5.522 -0.7657 -0.0394  1.0029
  138OSM   C13S14964   3.445   3.383   5.680  0.4937 -0.4584 -0.0517
  138OSM   H13S14965   3.439   3.491   5.705  0.1837 -0.8382  1.6398
  138OSM   H13T14966   3.545   3.347   5.712 -0.0971 -0.1856  2.2663
  138OSM   C14S14967   3.346   3.309   5.775  0.2531 -0.0195 -0.0796
  138OSM   H14S14968   3.386   3.205   5.773  1.1068  0.3194 -1.5845
  138OSM   H14T14969   3.242   3.301   5.736  0.2172  0.9127 -0.1896
  138OSM   C15S14970   3.333   3.366   5.919  0.3017 -1.0290  0.3338
  138OSM   H15S14971   3.438   3.388   5.948  0.3051  0.2956 -0.5913
  138OSM   H15T14972   3.282   3.303   5.994  0.4549  1.0737  2.2958
  138OSM   C16S14973   3.243   3.496   5.912 -0.4152  0.2300  0.2999
  138OSM   H16S14974   3.160   3.476   5.841  1.9114 -4.0658 -1.6624
  138OSM   H16T14975   3.296   3.581   5.865  0.8088 -1.2263 -1.1098
  138OSM   C17S14976   3.181   3.530   6.041 -0.8058  0.2934 -0.8131
  138OSM   H17S14977   3.274   3.552   6.099 -0.3471  0.2931 -1.5278
  138OSM   H17T14978   3.131   3.446   6.093 -0.5489  1.3644  1.2814
  138OSM   C18S14979   3.105   3.658   6.044 -0.1188 -0.3708  0.8044
  138OSM   H18S14980   3.010   3.640   5.990  0.6880  1.1387 -1.2032
  138OSM   H18T14981   3.166   3.739   6.000 -1.4177  0.7182  0.9639
  138OSM   H18U14982   3.061   3.697   6.139 -2.3608  2.3780 -1.2191
  138OSM    C1F14983   3.504   3.947   4.554  0.0463  0.6415 -0.4288
  138OSM     OF14984   3.470   3.933   4.439  0.0460  0.5707  0.0399
  138OSM    C2F14985   3.438   4.042   4.648 -0.8099  0.3824 -0.0977
  138OSM    H2F14986   3.406   4.126   4.583 -2.0176  1.1564  1.4444
  138OSM    H2G14987   3.516   4.075   4.719 -0.6351  1.0959 -0.6087
  138OSM    C3F14988   3.330   3.985   4.732 -0.4988  0.3902  0.1880
  138OSM    H3F14989   3.362   3.888   4.776 -2.3765 -0.5511 -0.4235
  138OSM    H3G14990   3.251   3.962   4.658 -1.1290 -0.3725  1.0732
  138OSM    C4F14991   3.278   4.089   4.834  0.6952  0.9429 -0.6531
  138OSM    H4F14992   3.260   4.188   4.787 -0.1523  0.7166 -0.8123
  138OSM    H4G14993   3.361   4.095   4.908 -0.3322  1.5699  0.4754
  138OSM    C5F14994   3.152   4.042   4.899 -0.0084 -0.5390 -0.5852
  138OSM    H5F14995   3.166   3.938   4.935 -3.2400 -0.8152  0.2073
  138OSM    H5G14996   3.066   4.028   4.830 -0.2068  1.2350 -0.7586
  138OSM    C6F14997   3.107   4.130   5.012  0.7930  0.6411  0.0658
  138OSM    H6F14998   3.074   4.225   4.965  0.6309  0.5486 -0.0079
  138OSM    H6G14999   3.205   4.143   5.062  1.4230  0.1434 -1.0156
  138OSM    C7F15000   2.993   4.073   5.091  0.2149  0.0537 -0.7197
  138OSM    H7F15001   3.018   3.968   5.118 -1.8721 -0.0498  1.0835
  138OSM    H7G15002   2.895   4.062   5.040 -0.5557 -0.8491  0.8547
  138OSM    C8F15003   2.976   4.152   5.228 -0.0109  0.1972 -0.6511
  138OSM    H8F15004   3.077   4.149   5.273 -0.4381  2.3427  0.5890
  138OSM    H8G15005   2.893   4.102   5.282 -0.2820  0.4058 -0.8718
  138OSM    C9F15006   2.935   4.292   5.193  0.3784  0.1093 -0.4551
  138OSM    H9F15007   2.861   4.298   5.113 -1.6245 -0.5623  1.2593
  138OSM   C10F15008   2.996   4.407   5.243 -0.2359 -0.1298 -0.1466
  138OSM   H10F15009   2.961   4.505   5.206  2.3773  0.3434 -1.6023
  138OSM   C11F15010   3.118   4.421   5.321 -0.8627 -0.1795  0.1771
  138OSM   H11F15011   3.182   4.505   5.286  1.0046 -1.6854 -0.1709
  138OSM   H11G15012   3.184   4.332   5.311  0.1614  0.5631  0.1558
  138OSM   C12F15013   3.079   4.433   5.470  0.4348 -0.2236  0.3461
  138OSM   H12F15014   2.989   4.370   5.488  0.9233 -1.1879 -0.4577
  138OSM   H12G15015   3.042   4.535   5.492  2.7662  0.4588  1.5165
  138OSM   C13F15016   3.185   4.404   5.560 -0.3910 -0.3603 -0.0084
  138OSM   H13F15017   3.144   4.454   5.651 -0.5685  3.4100 -1.9445
  138OSM   H13G15018   3.278   4.462   5.540 -0.6522  0.4177  0.9529
  138OSM   C14F15019   3.193   4.253   5.567  0.1942 -0.1121  0.3128
  138OSM   H14F15020   3.219   4.216   5.465  0.6319 -0.8194  0.6756
  138OSM   H14G15021   3.092   4.211   5.587  0.0496 -0.1149 -0.4060
  138OSM   C15F15022   3.287   4.203   5.680  0.3028  0.8728  0.7652
  138OSM   H15F15023   3.243   4.219   5.781  2.2854  1.4988  1.5718
  138OSM   H15G15024   3.384   4.257   5.677  0.5161  0.4854  0.6511
  138OSM   C16F15025   3.317   4.053   5.670  0.0274 -0.2627 -0.1299
  138OSM   H16F15026   3.370   4.033   5.574 -1.3959  2.3416 -1.5894
  138OSM   H16G15027   3.221   4.000   5.652  0.3719 -0.8074 -0.3971
  138OSM   C17F15028   3.384   4.000   5.797  0.2390 -0.4330  0.3685
  138OSM   H17F15029   3.327   4.045   5.881 -1.3701  1.0900 -1.4016
  138OSM   H17G15030   3.489   4.035   5.795  0.6989 -1.7943 -0.6239
  138OSM   C18F15031   3.382   3.849   5.811 -0.1619 -0.4463 -0.3280
  138OSM   H18F15032   3.473   3.805   5.766  0.0840 -0.5945  0.3028
  138OSM   H18G15033   3.297   3.793   5.766  0.1308 -0.8820 -0.3454
  138OSM   H18H15034   3.379   3.820   5.918 -1.0218 -0.3181 -0.3051
  139OSM      N15035   0.190   5.425   4.541 -0.1546 -0.0869 -0.0015
  139OSM    C1515036   0.218   5.376   4.407 -0.6800 -0.4015 -0.5975
  139OSM   H15A15037   0.250   5.450   4.336 -0.6948 -1.5679 -1.8743
  139OSM   H15B15038   0.131   5.338   4.355  0.7327 -1.5885 -2.1943
  139OSM   H15C15039   0.283   5.290   4.414 -1.1067 -0.9327 -2.6291
  139OSM    C1415040   0.157   5.313   4.632  0.0799 -1.0112 -0.9809
  139OSM   H14A15041   0.229   5.233   4.630 -0.1175 -1.2700  0.8854
  139OSM   H14B15042   0.072   5.254   4.602  0.2377 -0.6843 -2.1117
  139OSM   H14C15043   0.130   5.340   4.733 -0.1936 -1.7862 -0.8420
  139OSM    C1315044   0.309   5.496   4.590 -0.1489 -0.8225  0.4429
  139OSM   H13A15045   0.385   5.420   4.599  0.2851 -0.3183  1.1402
  139OSM   H13B15046   0.280   5.545   4.682 -0.9054  1.5053 -0.9519
  139OSM   H13C15047   0.331   5.578   4.523 -4.1286 -0.0690 -0.1591
  139OSM    C1215048   0.073   5.522   4.541 -0.1890  0.1629  0.1662
  139OSM   H12A15049  -0.014   5.468   4.506 -0.4622  0.6562  0.0763
  139OSM   H12B15050   0.101   5.604   4.476  0.4710  0.2722  0.5792
  139OSM    C1115051   0.019   5.576   4.671 -0.1908  0.0962  0.3275
  139OSM   H11A15052   0.005   5.493   4.743 -0.4665  0.5946  0.8494
  139OSM   H11B15053  -0.083   5.618   4.662 -0.2142 -0.1594 -0.7931
  139OSM      P15054   0.138   5.811   4.658  0.1534 -0.0644 -0.3715
  139OSM    O1315055   0.274   5.848   4.697  0.2379 -0.3631 -0.2174
  139OSM    O1415056   0.112   5.803   4.515 -0.2752 -0.1855 -0.0192
  139OSM    O1115057   0.029   5.903   4.722 -0.0026  0.7515  0.0591
  139OSM    O1215058   0.112   5.670   4.723 -0.2468  0.0424 -0.1484
  139OSM    C1S15059   0.014   5.896   4.862  0.5999 -0.6665  0.0510
  139OSM    H1S15060   0.109   5.931   4.908 -0.0991 -0.2165  1.1974
  139OSM    H1T15061  -0.022   5.798   4.900  1.0297 -1.0539 -0.5323
  139OSM     NF15062  -0.109   5.966   5.066  0.7774 -0.0548  0.6362
  139OSM    HNF15063  -0.184   5.905   5.092  0.0241  0.5957  0.0401
  139OSM    C2S15064  -0.100   5.995   4.921 -0.2660  0.1549  0.0793
  139OSM    H2S15065  -0.062   6.098   4.906  1.8416 -0.8383 -1.9643
  139OSM    C3S15066  -0.238   5.984   4.847 -0.1714  0.0609  0.7622
  139OSM    H3S15067  -0.266   5.879   4.868  1.7115 -0.7084 -0.3914
  139OSM     O315068  -0.238   5.988   4.704  0.3364  0.1728 -0.7483
  139OSM    HO315069  -0.144   5.971   4.690  0.3593 -0.5802  0.1738
  139OSM    C4S15070  -0.349   6.075   4.912  0.1913 -0.4881  0.0929
  139OSM    H4S15071  -0.387   6.027   5.003  1.8499 -0.8089  0.6525
  139OSM    C5S15072  -0.391   6.191   4.862  0.3577 -1.0365  0.5950
  139OSM    H5S15073  -0.355   6.237   4.769  1.4702  0.9584  1.9316
  139OSM    C6S15074  -0.513   6.271   4.909  0.1585  0.1932 -0.1950
  139OSM    H6S15075  -0.598   6.202   4.927  1.3199 -1.3117 -0.3386
  139OSM    H6T15076  -0.542   6.339   4.826 -0.4212  0.5187  0.2650
  139OSM    C7S15077  -0.473   6.339   5.039 -0.2072 -0.1574  0.2285
  139OSM    H7S15078  -0.388   6.409   5.022 -1.1410  1.0581  0.3586
  139OSM    H7T15079  -0.454   6.269   5.123  0.1330  2.5693  2.6074
  139OSM    C8S15080  -0.591   6.422   5.081 -0.0621 -0.8621  0.0496
  139OSM    H8S15081  -0.683   6.361   5.064  0.9068 -2.2417 -0.4081
  139OSM    H8T15082  -0.596   6.504   5.006 -1.4858 -1.0905 -0.1324
  139OSM    C9S15083  -0.572   6.471   5.220  0.5681  0.0308 -0.6343
  139OSM    H9S15084  -0.491   6.547   5.228  1.8687 -1.4092  0.4061
  139OSM    H9T15085  -0.563   6.381   5.284  1.9944 -1.0397 -2.2704
  139OSM   C10S15086  -0.695   6.547   5.274 -0.6540  0.4606  0.4831
  139OSM   H10S15087  -0.789   6.494   5.251 -1.3706  2.3462 -1.2231
  139OSM   H10T15088  -0.701   6.642   5.217 -0.5334 -1.3613 -2.8002
  139OSM   C11S15089  -0.686   6.580   5.421  0.6383 -0.9306 -0.0221
  139OSM   H11S15090  -0.765   6.654   5.449 -0.0320 -0.2277 -3.2538
  139OSM   H11T15091  -0.585   6.627   5.423 -0.2120  1.0345  1.8204
  139OSM   C12S15092  -0.692   6.468   5.520  0.5849  0.4094  0.4605
  139OSM   H12S15093  -0.604   6.400   5.518  0.9518  0.8928 -0.9637
  139OSM   H12T15094  -0.784   6.405   5.509  0.6248  0.5846 -1.1091
  139OSM   C13S15095  -0.701   6.528   5.665  0.2714  0.1491  0.7769
  139OSM   H13S15096  -0.804   6.563   5.688  0.7486  1.5051  0.9428
  139OSM   H13T15097  -0.636   6.617   5.673  0.7170 -0.2987  2.5774
  139OSM   C14S15098  -0.671   6.429   5.774  0.1318 -0.1560 -0.1534
  139OSM   H14S15099  -0.564   6.434   5.800  0.0018  1.9149  0.1343
  139OSM   H14T15100  -0.684   6.323   5.744  1.3932  0.0248 -1.4220
  139OSM   C15S15101  -0.748   6.452   5.902 -0.5085 -0.1083 -0.3898
  139OSM   H15S15102  -0.853   6.415   5.900 -0.9397  1.0734 -1.4999
  139OSM   H15T15103  -0.749   6.563   5.911  0.3190 -0.1174 -0.0738
  139OSM   C16S15104  -0.680   6.389   6.029  0.6906  0.2916  0.5508
  139OSM   H16S15105  -0.572   6.411   6.027  1.0554 -1.4016 -0.8084
  139OSM   H16T15106  -0.703   6.280   6.034 -0.2943  0.5250  1.3781
  139OSM   C17S15107  -0.736   6.447   6.165  0.6908 -0.1108  0.4816
  139OSM   H17S15108  -0.685   6.543   6.185 -0.6066  0.5538  0.6901
  139OSM   H17T15109  -0.703   6.381   6.249 -0.9847 -2.4703 -0.5890
  139OSM   C18S15110  -0.890   6.457   6.181 -0.3145  1.0573 -0.1942
  139OSM   H18S15111  -0.918   6.483   6.285  0.1389  0.8963 -0.0291
  139OSM   H18T15112  -0.930   6.358   6.148  2.6508 -0.4968  0.4866
  139OSM   H18U15113  -0.937   6.536   6.119  0.7156  0.1006 -2.3308
  139OSM    C1F15114  -0.016   5.999   5.154  0.3486 -0.5680  1.2929
  139OSM     OF15115   0.065   6.090   5.129 -0.8518  0.6556  0.1906
  139OSM    C2F15116   0.000   5.915   5.275 -0.6498  0.0074  0.2164
  139OSM    H2F15117   0.063   5.827   5.250  1.5546  0.8141  2.5321
  139OSM    H2G15118  -0.103   5.882   5.299 -1.1270  1.7325  0.6958
  139OSM    C3F15119   0.054   5.992   5.395 -0.2870  0.5366  0.2359
  139OSM    H3F15120  -0.017   6.077   5.400 -1.6633 -0.6172  0.9068
  139OSM    H3G15121   0.157   6.027   5.369  0.4222  0.3599  2.5784
  139OSM    C4F15122   0.049   5.913   5.529  0.6445  0.2522  0.0992
  139OSM    H4F15123   0.142   5.851   5.528  2.7135  3.0787 -1.8816
  139OSM    H4G15124  -0.032   5.838   5.527  0.4714  0.4566 -0.7590
  139OSM    C5F15125   0.047   5.999   5.655 -0.2502  0.3150  0.1844
  139OSM    H5F15126   0.024   6.102   5.622  0.3687 -0.2015 -2.0426
  139OSM    H5G15127   0.152   6.004   5.693  0.4996 -0.9595 -1.5909
  139OSM    C6F15128  -0.048   5.951   5.763  0.1769 -0.1148 -0.3273
  139OSM    H6F15129  -0.048   5.843   5.789 -2.0553  0.2140  1.2923
  139OSM    H6G15130  -0.154   5.967   5.734 -0.0114  1.2726  1.0353
  139OSM    C7F15131  -0.001   6.014   5.894 -0.2358 -0.0862 -0.3684
  139OSM    H7F15132   0.108   6.009   5.914 -0.3827  1.3285  1.0292
  139OSM    H7G15133  -0.053   5.964   5.978  0.9075  0.3310  0.6130
  139OSM    C8F15134  -0.037   6.167   5.912  0.3992 -0.0436  0.1094
  139OSM    H8F15135   0.005   6.234   5.833  0.6487  0.6670  0.8256
  139OSM    H8G15136   0.004   6.208   6.007  0.2357  0.3219  0.0250
  139OSM    C9F15137  -0.191   6.192   5.920 -0.0727  0.6444 -0.2450
  139OSM    H9F15138  -0.230   6.211   5.819 -0.1684 -1.2307 -0.6052
  139OSM   C10F15139  -0.275   6.167   6.022 -0.4027 -0.7885 -0.0742
  139OSM   H10F15140  -0.382   6.192   6.015 -0.2678  0.5046  1.6319
  139OSM   C11F15141  -0.239   6.128   6.166 -0.1122 -0.0612  0.5685
  139OSM   H11F15142  -0.138   6.161   6.196 -0.0480 -0.9548  1.3836
  139OSM   H11G15143  -0.248   6.017   6.175 -0.1793 -0.2258 -1.0985
  139OSM   C12F15144  -0.333   6.200   6.261 -0.1962 -0.3804 -0.3048
  139OSM   H12F15145  -0.438   6.182   6.232 -0.4480  0.5785 -0.0063
  139OSM   H12G15146  -0.319   6.310   6.264 -0.6211 -0.3191  2.9467
  139OSM   C13F15147  -0.297   6.149   6.401  0.5977 -0.4755  0.4313
  139OSM   H13F15148  -0.189   6.168   6.422 -0.0209  3.3815  0.8104
  139OSM   H13G15149  -0.308   6.038   6.410 -2.4250 -0.3927 -1.1239
  139OSM   C14F15150  -0.375   6.216   6.508  0.6615  0.3901 -0.9147
  139OSM   H14F15151  -0.376   6.326   6.491  0.9115  0.6603  0.6528
  139OSM   H14G15152  -0.330   6.202   6.608 -2.2404  1.5513  0.6659
  139OSM   C15F15153  -0.527   6.181   6.524 -0.3937 -1.1379  0.8942
  139OSM   H15F15154  -0.549   6.075   6.548  0.5230 -1.3751  0.7324
  139OSM   H15G15155  -0.565   6.197   6.421 -0.1875  1.2991  1.1186
  139OSM   C16F15156  -0.608   6.267   6.620 -0.3592 -0.2617 -0.4885
  139OSM   H16F15157  -0.565   6.257   6.722 -0.0812 -0.9076 -0.6625
  139OSM   H16G15158  -0.713   6.232   6.635 -0.0476 -0.4553  1.5221
  139OSM   C17F15159  -0.619   6.416   6.575 -0.1831 -0.5594  0.6696
  139OSM   H17F15160  -0.677   6.408   6.480 -0.1372 -1.5996  0.7152
  139OSM   H17G15161  -0.517   6.458   6.558 -1.0378  1.5249  0.3535
  139OSM   C18F15162  -0.685   6.512   6.670 -0.5553  0.1582 -0.1625
  139OSM   H18F15163  -0.614   6.512   6.756 -1.0816  1.8734  0.3086
  139OSM   H18G15164  -0.779   6.477   6.717 -0.6893  1.0470  0.2511
  139OSM   H18H15165  -0.700   6.612   6.625 -0.9784  0.4072  0.5177
  140OSM      N15166   2.503   2.422   4.090  0.6910  0.1044 -0.6993
  140OSM    C1515167   2.386   2.494   4.027  0.3944  0.0268 -0.3206
  140OSM   H15A15168   2.337   2.559   4.098  0.3725 -0.5094  0.1656
  140OSM   H15B15169   2.308   2.426   3.996  1.5664 -1.0947 -0.8871
  140OSM   H15C15170   2.423   2.546   3.940 -0.0264  0.0318 -0.4992
  140OSM    C1415171   2.596   2.356   3.996 -0.2673 -0.3583  0.0130
  140OSM   H14A15172   2.634   2.437   3.934 -0.4339 -0.2314  0.0770
  140OSM   H14B15173   2.544   2.289   3.929 -2.0816 -1.0307  2.0082
  140OSM   H14C15174   2.680   2.311   4.046  0.4661  2.0856  1.1482
  140OSM    C1315175   2.572   2.525   4.175 -0.1611  0.4673  0.0931
  140OSM   H13A15176   2.499   2.575   4.237 -0.9176 -0.4195 -0.0587
  140OSM   H13B15177   2.604   2.605   4.111  0.1146  0.8520  0.7044
  140OSM   H13C15178   2.654   2.489   4.236  1.0748  3.8590  0.6310
  140OSM    C1215179   2.454   2.315   4.192  0.1003 -0.2058 -0.1371
  140OSM   H12A15180   2.533   2.271   4.251  0.0087  0.4666  0.5019
  140OSM   H12B15181   2.430   2.234   4.125  0.5249 -1.9016  1.6672
  140OSM    C1115182   2.339   2.346   4.293 -0.6445  0.3570  0.1624
  140OSM   H11A15183   2.369   2.427   4.363 -0.9598  1.0691 -0.5172
  140OSM   H11B15184   2.316   2.263   4.363 -0.8800 -0.0285 -0.3690
  140OSM      P15185   2.125   2.275   4.163 -0.0190 -0.2374  0.1462
  140OSM    O1315186   2.016   2.347   4.095  0.1941  0.3629 -0.2358
  140OSM    O1415187   2.202   2.184   4.079 -0.0335  0.3637 -0.0747
  140OSM    O1115188   2.078   2.189   4.289  0.4207 -0.6141  0.3605
  140OSM    O1215189   2.221   2.377   4.229  0.6711  0.1813  0.1205
  140OSM    C1S15190   2.008   2.256   4.397 -0.4107  0.2193 -0.1411
  140OSM    H1S15191   1.911   2.295   4.361  0.0823  1.3763 -0.2447
  140OSM    H1T15192   2.069   2.342   4.434 -1.4162  1.0270 -0.3234
  140OSM     NF15193   1.910   2.230   4.624 -0.5040  0.6702 -0.1057
  140OSM    HNF15194   1.967   2.257   4.701 -0.8488 -1.5312  0.9814
  140OSM    C2S15195   1.982   2.164   4.516 -0.3497 -0.5747  0.1292
  140OSM    H2S15196   1.915   2.085   4.476 -2.9807  0.8361  1.5115
  140OSM    C3S15197   2.106   2.092   4.576  0.0075  0.1158 -0.2401
  140OSM    H3S15198   2.161   2.166   4.638  0.6128 -0.5606  0.0439
  140OSM     O315199   2.204   2.062   4.477  0.0645  0.3416  0.3507
  140OSM    HO315200   2.172   2.107   4.399  2.3472  0.0605 -0.8515
  140OSM    C4S15201   2.080   1.972   4.658 -0.1953 -0.4175 -0.6503
  140OSM    H4S15202   2.062   1.879   4.601 -0.8079 -0.7204  0.0196
  140OSM    C5S15203   2.082   1.980   4.790  0.8285 -0.4533  0.4937
  140OSM    H5S15204   2.108   2.080   4.825  1.3217 -0.4612  0.1687
  140OSM    C6S15205   2.065   1.864   4.880 -0.9163 -0.3772 -0.1017
  140OSM    H6S15206   2.122   1.898   4.968 -0.0468  2.0365 -1.5134
  140OSM    H6T15207   2.118   1.774   4.842  0.2908 -0.5668  1.9501
  140OSM    C7S15208   1.924   1.817   4.923  0.0552 -0.3217  0.4401
  140OSM    H7S15209   1.859   1.799   4.834  0.7988  0.3806 -0.2612
  140OSM    H7T15210   1.888   1.915   4.962 -2.2871  0.1503 -2.5040
  140OSM    C8S15211   1.929   1.701   5.027 -0.1020  0.0012  0.2702
  140OSM    H8S15212   1.994   1.619   4.990 -0.3135  0.1533 -0.4527
  140OSM    H8T15213   1.830   1.652   5.032  0.2054 -0.5583  1.1318
  140OSM    C9S15214   1.981   1.732   5.169 -0.7324  0.3642 -1.0022
  140OSM    H9S15215   1.916   1.810   5.213 -2.1108 -0.3650 -1.7000
  140OSM    H9T15216   2.084   1.774   5.157  0.3261 -1.7782 -0.0149
  140OSM   C10S15217   1.995   1.611   5.273  0.2356 -0.3112  0.1506
  140OSM   H10S15218   2.070   1.638   5.350 -0.7268  1.8539  0.4135
  140OSM   H10T15219   2.019   1.518   5.218  0.7835 -0.8264  1.2410
  140OSM   C11S15220   1.861   1.583   5.357 -0.2160 -0.8428  0.7131
  140OSM   H11S15221   1.853   1.486   5.412 -1.6263 -1.5364 -0.6446
  140OSM   H11T15222   1.766   1.584   5.298 -0.5368 -1.4347  1.2041
  140OSM   C12S15223   1.850   1.706   5.452  0.0828 -0.2334 -0.5366
  140OSM   H12S15224   1.776   1.780   5.414 -1.6175 -0.5122  1.9380
  140OSM   H12T15225   1.951   1.749   5.469  1.1505 -2.8325  0.1245
  140OSM   C13S15226   1.789   1.681   5.592  0.0070 -0.2725  0.4075
  140OSM   H13S15227   1.678   1.680   5.588  0.0314  0.5511 -1.8837
  140OSM   H13T15228   1.819   1.775   5.643  1.8893  0.2686 -1.5717
  140OSM   C14S15229   1.858   1.561   5.663 -0.6082 -0.4359 -0.0790
  140OSM   H14S15230   1.964   1.566   5.628 -1.0004  0.0544 -1.2518
  140OSM   H14T15231   1.821   1.466   5.619  0.4354 -1.0370  0.2892
  140OSM   C15S15232   1.840   1.566   5.820 -0.6976 -0.3168 -0.6845
  140OSM   H15S15233   1.859   1.463   5.855 -0.5034  0.2224  0.8419
  140OSM   H15T15234   1.732   1.579   5.840 -0.3966 -1.0883  1.8047
  140OSM   C16S15235   1.916   1.668   5.898 -0.2684 -0.1179 -0.4380
  140OSM   H16S15236   1.857   1.762   5.890 -1.2702 -0.6191  0.6777
  140OSM   H16T15237   2.019   1.682   5.859 -0.8749  3.6155 -1.0772
  140OSM   C17S15238   1.909   1.639   6.050  0.0206 -0.7510 -1.5924
  140OSM   H17S15239   1.983   1.559   6.067 -0.1270 -0.2828  1.9397
  140OSM   H17T15240   1.808   1.602   6.080 -1.0303  2.1441 -1.1807
  140OSM   C18S15241   1.947   1.754   6.142 -0.4795  0.3347 -0.3556
  140OSM   H18S15242   1.924   1.855   6.101  1.3566  1.3810  1.0494
  140OSM   H18T15243   2.058   1.748   6.140 -0.5221 -0.5753 -0.3153
  140OSM   H18U15244   1.928   1.733   6.249  2.0590 -1.0130 -0.0869
  140OSM    C1F15245   1.781   2.253   4.622  0.0218 -0.6228  0.2447
  140OSM     OF15246   1.709   2.205   4.537  0.1029  0.2085 -0.4587
  140OSM    C2F15247   1.730   2.345   4.730  0.2693 -0.3146  0.4868
  140OSM    H2F15248   1.756   2.449   4.701  1.1648 -0.8106 -0.5892
  140OSM    H2G15249   1.792   2.322   4.820  1.8109 -1.0413 -0.7169
  140OSM    C3F15250   1.577   2.336   4.742  0.3667 -0.2507 -0.6401
  140OSM    H3F15251   1.552   2.228   4.754  1.3214 -0.5082 -0.8659
  140OSM    H3G15252   1.524   2.364   4.649  1.7172  1.4299 -0.9529
  140OSM    C4F15253   1.537   2.438   4.854  0.4113  0.0625  0.7549
  140OSM    H4F15254   1.535   2.538   4.807  1.1123 -0.3496 -0.1906
  140OSM    H4G15255   1.615   2.445   4.932  0.5029 -0.7615  0.7543
  140OSM    C5F15256   1.394   2.422   4.923 -0.7034  0.3697  0.3959
  140OSM    H5F15257   1.397   2.337   4.995  0.9901 -0.6613 -0.8136
  140OSM    H5G15258   1.315   2.407   4.846 -1.4092 -1.5097  1.4417
  140OSM    C6F15259   1.355   2.555   4.998  0.3375  0.2136  0.6593
  140OSM    H6F15260   1.331   2.630   4.920  0.8617 -1.9869 -1.7609
  140OSM    H6G15261   1.442   2.578   5.063 -1.0646  2.4697  1.8524
  140OSM    C7F15262   1.232   2.556   5.088  0.4083 -0.0247  0.2783
  140OSM    H7F15263   1.142   2.549   5.023  0.0229 -1.3610  0.9186
  140OSM    H7G15264   1.228   2.646   5.152  1.5331 -0.3025  0.7702
  140OSM    C8F15265   1.226   2.430   5.184 -0.0184  0.0961 -0.2551
  140OSM    H8F15266   1.320   2.409   5.238 -1.0261 -0.7737  1.2229
  140OSM    H8G15267   1.212   2.339   5.122 -2.1766  0.4353 -0.3373
  140OSM    C9F15268   1.115   2.431   5.288 -0.2093 -0.2332  0.1514
  140OSM    H9F15269   1.036   2.360   5.258 -0.8530  0.1979  0.7979
  140OSM   C10F15270   1.110   2.511   5.399 -0.0986  0.5820 -0.9229
  140OSM   H10F15271   1.030   2.513   5.474  0.8539 -0.1361  0.1295
  140OSM   C11F15272   1.228   2.595   5.442 -0.1600 -0.2422  0.2718
  140OSM   H11F15273   1.187   2.686   5.490  0.1865 -0.8452  1.7459
  140OSM   H11G15274   1.275   2.629   5.347 -0.6677 -0.4033 -0.0406
  140OSM   C12F15275   1.335   2.519   5.521  0.7874 -0.3017  0.4112
  140OSM   H12F15276   1.421   2.484   5.460  2.2368 -2.3045  3.3581
  140OSM   H12G15277   1.281   2.438   5.574 -0.8150 -0.4508 -1.3385
  140OSM   C13F15278   1.404   2.604   5.621 -1.0098 -0.0148 -0.1003
  140OSM   H13F15279   1.479   2.543   5.674 -2.7224 -1.1324  1.1501
  140OSM   H13G15280   1.324   2.637   5.692  0.3836  1.5552  0.7927
  140OSM   C14F15281   1.471   2.737   5.578 -0.3108  0.2283 -0.0180
  140OSM   H14F15282   1.407   2.803   5.516  2.4748  0.3822 -2.9180
  140OSM   H14G15283   1.548   2.706   5.505 -0.9467 -1.0812 -0.1764
  140OSM   C15F15284   1.513   2.810   5.708 -0.4300 -0.3354  0.3439
  140OSM   H15F15285   1.569   2.735   5.767  1.0718 -1.5716 -2.4405
  140OSM   H15G15286   1.428   2.837   5.774 -0.2264 -0.4006  0.6363
  140OSM   C16F15287   1.581   2.947   5.692  0.7583 -0.2031 -0.2432
  140OSM   H16F15288   1.606   2.976   5.796 -0.9238 -1.7441  0.6270
  140OSM   H16G15289   1.502   3.015   5.654  2.6702  1.0631 -2.2717
  140OSM   C17F15290   1.696   2.963   5.588 -0.8339  0.6919  1.0573
  140OSM   H17F15291   1.652   2.946   5.487  1.5065 -0.5400  0.1797
  140OSM   H17G15292   1.775   2.885   5.595 -0.6273  0.6940 -0.9028
  140OSM   C18F15293   1.772   3.099   5.593  0.3828 -0.3998  0.7572
  140OSM   H18F15294   1.838   3.109   5.682 -1.6809 -0.8644  2.3968
  140OSM   H18G15295   1.697   3.179   5.575 -0.0897 -0.9206  0.3504
  140OSM   H18H15296   1.841   3.112   5.506  0.8341  0.5814  1.2435
  141OSM      N15297   4.744   1.781   3.831 -0.5358 -0.6518  0.5158
  141OSM    C1515298   4.751   1.938   3.842 -0.7504 -0.1345 -0.1585
  141OSM   H15A15299   4.779   1.977   3.745 -2.2901 -0.1814 -0.6529
  141OSM   H15B15300   4.823   1.974   3.914  1.3371  0.2844 -2.3252
  141OSM   H15C15301   4.654   1.977   3.870  0.0307  1.8635 -0.0746
  141OSM    C1415302   4.670   1.747   3.705  0.1590 -0.3015  0.2748
  141OSM   H14A15303   4.568   1.767   3.736  0.6441  1.3764  0.9484
  141OSM   H14B15304   4.687   1.643   3.685  0.3830 -0.9555  3.3383
  141OSM   H14C15305   4.707   1.804   3.622  1.7182  1.0438  1.8138
  141OSM    C1315306   4.890   1.738   3.809  0.0602  0.1072  0.1462
  141OSM   H13A15307   4.936   1.797   3.731 -0.4448  1.4351  0.8184
  141OSM   H13B15308   4.905   1.632   3.791  0.9583  0.0867  0.8927
  141OSM   H13C15309   4.940   1.760   3.902 -5.6568 -1.9058  4.2286
  141OSM    C1215310   4.686   1.740   3.962  0.3154 -0.4913 -0.0985
  141OSM   H12A15311   4.742   1.782   4.045 -0.4741  1.2417 -0.3957
  141OSM   H12B15312   4.687   1.633   3.969  1.5075 -0.5437 -0.7675
  141OSM    C1115313   4.535   1.778   3.980  0.2095  0.3229  0.7183
  141OSM   H11A15314   4.510   1.764   4.087 -0.3471  1.4195  0.7479
  141OSM   H11B15315   4.470   1.711   3.920 -0.4216  0.9693  0.6588
  141OSM      P15316   4.366   1.974   3.956 -0.1298  0.0212  0.3283
  141OSM    O1315317   4.383   2.109   3.890 -0.0373  0.1442  0.2620
  141OSM    O1415318   4.270   1.878   3.896 -0.2219  0.4436  0.0071
  141OSM    O1115319   4.335   1.990   4.108  0.0829 -0.7536 -0.3754
  141OSM    O1215320   4.509   1.915   3.951  0.4095  0.2577 -0.1191
  141OSM    C1S15321   4.386   2.107   4.175  0.2354 -0.1981  0.0196
  141OSM    H1S15322   4.323   2.196   4.156  0.3757  0.5986  2.7539
  141OSM    H1T15323   4.489   2.138   4.148 -0.1112 -0.0547 -1.1883
  141OSM     NF15324   4.436   2.210   4.401 -0.4358  0.4154 -0.3613
  141OSM    HNF15325   4.535   2.200   4.411 -0.0289  1.6377 -2.4283
  141OSM    C2S15326   4.389   2.090   4.332  0.4722 -0.1209 -0.0492
  141OSM    H2S15327   4.281   2.074   4.355  0.0279  1.1099 -1.1076
  141OSM    C3S15328   4.466   1.963   4.371  0.0442 -0.0085  0.2526
  141OSM    H3S15329   4.573   1.974   4.346 -0.1402  0.2338 -0.4812
  141OSM     O315330   4.420   1.844   4.304  0.0672  0.4315  0.0148
  141OSM    HO315331   4.362   1.879   4.236  1.7471  0.7012 -1.3737
  141OSM    C4S15332   4.456   1.936   4.515 -0.4155 -0.1121 -0.1810
  141OSM    H4S15333   4.355   1.905   4.546 -0.7657 -1.0192 -2.1075
  141OSM    C5S15334   4.565   1.917   4.600 -0.0802  0.3890  0.1777
  141OSM    H5S15335   4.667   1.909   4.561  0.4321 -0.2015  1.5551
  141OSM    C6S15336   4.548   1.851   4.736  0.5953 -0.4468 -0.4535
  141OSM    H6S15337   4.523   1.744   4.724 -3.8162  0.2120  1.1338
  141OSM    H6T15338   4.466   1.901   4.791  1.1380  0.1347 -0.1515
  141OSM    C7S15339   4.666   1.870   4.835  0.2826 -0.0484  0.3202
  141OSM    H7S15340   4.667   1.978   4.859 -1.8098  0.0472  0.1810
  141OSM    H7T15341   4.759   1.849   4.778 -0.6144 -1.4463 -0.7189
  141OSM    C8S15342   4.681   1.763   4.951  0.4378 -0.1605 -0.2325
  141OSM    H8S15343   4.724   1.669   4.910  3.0778  0.2260  1.3748
  141OSM    H8T15344   4.580   1.747   4.993 -0.0737  1.3964 -0.8079
  141OSM    C9S15345   4.780   1.810   5.053  0.1548 -0.1312  0.0738
  141OSM    H9S15346   4.870   1.832   4.991  0.8807 -2.1488  0.3338
  141OSM    H9T15347   4.800   1.730   5.127 -0.7655 -0.6496 -0.2221
  141OSM   C10S15348   4.759   1.946   5.120 -0.0986  0.2751  0.7434
  141OSM   H10S15349   4.747   2.027   5.045 -0.0671 -0.3361  0.0686
  141OSM   H10T15350   4.852   1.964   5.178 -0.5620  0.7587  1.3536
  141OSM   C11S15351   4.639   1.954   5.212 -0.1074  0.3957  0.3074
  141OSM   H11S15352   4.548   1.977   5.154  0.0140  0.1960  0.0402
  141OSM   H11T15353   4.652   2.044   5.277  0.1425 -0.7504  1.9262
  141OSM   C12S15354   4.620   1.831   5.305  0.1344 -0.6416 -0.1998
  141OSM   H12S15355   4.721   1.797   5.336  0.7491 -0.8204 -2.2479
  141OSM   H12T15356   4.576   1.747   5.248 -1.4997  1.0544 -1.5238
  141OSM   C13S15357   4.542   1.851   5.430  0.3163 -0.5448 -0.5364
  141OSM   H13S15358   4.439   1.869   5.393 -0.2343 -0.2771  1.0641
  141OSM   H13T15359   4.567   1.935   5.497  0.5909 -2.1449  1.4446
  141OSM   C14S15360   4.525   1.716   5.515  0.9878 -0.5455 -0.4932
  141OSM   H14S15361   4.622   1.700   5.566  0.8643 -0.3859 -0.2010
  141OSM   H14T15362   4.499   1.633   5.446 -1.4381  0.2402 -0.6102
  141OSM   C15S15363   4.409   1.724   5.617  0.6687 -1.0089 -0.6454
  141OSM   H15S15364   4.403   1.626   5.669  1.0826 -0.2705  0.8405
  141OSM   H15T15365   4.314   1.753   5.568  1.1563  1.3973 -0.2849
  141OSM   C16S15366   4.424   1.840   5.715 -0.0010 -0.0609 -0.3833
  141OSM   H16S15367   4.452   1.931   5.658 -2.1943  2.1779  1.8647
  141OSM   H16T15368   4.497   1.797   5.787 -1.7068 -0.2232  1.3272
  141OSM   C17S15369   4.287   1.873   5.791  0.3999 -0.5373  0.0895
  141OSM   H17S15370   4.197   1.857   5.729 -0.4482  2.4670  0.3595
  141OSM   H17T15371   4.295   1.982   5.811 -0.8538 -0.5957  1.0583
  141OSM   C18S15372   4.266   1.795   5.922 -0.6834  0.1714  0.1051
  141OSM   H18S15373   4.213   1.704   5.889  0.0546  0.2185 -1.2825
  141OSM   H18T15374   4.200   1.854   5.990 -1.3230 -0.5311  0.1059
  141OSM   H18U15375   4.360   1.763   5.972 -1.2155  1.3553  1.9915
  141OSM    C1F15376   4.359   2.318   4.436  0.2379 -0.2350 -0.7945
  141OSM     OF15377   4.239   2.313   4.412 -0.5686 -0.3751  0.2201
  141OSM    C2F15378   4.428   2.440   4.495  0.1296  0.1519  0.1058
  141OSM    H2F15379   4.476   2.508   4.422 -0.8776 -0.6913 -1.3803
  141OSM    H2G15380   4.515   2.395   4.548 -1.8037 -1.5284  2.0395
  141OSM    C3F15381   4.337   2.526   4.589  0.3350 -0.0141 -0.6023
  141OSM    H3F15382   4.239   2.554   4.545  0.3674  1.7716  0.3905
  141OSM    H3G15383   4.385   2.623   4.612 -2.0976  1.1536 -0.1821
  141OSM    C4F15384   4.308   2.451   4.720  0.4922 -0.3798 -0.2123
  141OSM    H4F15385   4.222   2.382   4.701  0.1151 -0.8077  2.6826
  141OSM    H4G15386   4.268   2.524   4.792  3.0708 -0.3843  1.3243
  141OSM    C5F15387   4.421   2.373   4.784 -0.0974 -0.5446  0.2702
  141OSM    H5F15388   4.510   2.437   4.798  0.5620 -1.5744  0.9491
  141OSM    H5G15389   4.453   2.289   4.719 -2.1571 -2.6799  1.8306
  141OSM    C6F15390   4.389   2.312   4.924  0.3221 -0.3461  0.4028
  141OSM    H6F15391   4.472   2.239   4.934 -0.4583 -1.4659 -0.9348
  141OSM    H6G15392   4.286   2.272   4.922 -0.5738  1.8069  0.0496
  141OSM    C7F15393   4.419   2.407   5.038 -0.2878  0.1163  0.0259
  141OSM    H7F15394   4.409   2.511   5.000 -1.6648  0.1303  0.3581
  141OSM    H7G15395   4.525   2.391   5.068 -0.0504 -0.2820 -1.0055
  141OSM    C8F15396   4.324   2.398   5.153  0.1822 -0.2017  0.2107
  141OSM    H8F15397   4.225   2.435   5.119 -0.5841 -0.3240  2.1619
  141OSM    H8G15398   4.354   2.478   5.224 -0.3369  0.1024  0.0980
  141OSM    C9F15399   4.312   2.258   5.203 -0.3092 -0.2270 -0.2450
  141OSM    H9F15400   4.246   2.195   5.141  0.9042 -0.3496 -1.4683
  141OSM   C10F15401   4.358   2.207   5.315  0.4692  0.6639  0.0712
  141OSM   H10F15402   4.345   2.100   5.337  0.7956  0.8526  1.2250
  141OSM   C11F15403   4.449   2.278   5.402 -0.2976  0.3811 -0.1385
  141OSM   H11F15404   4.453   2.386   5.378 -0.5579  0.3309 -0.4204
  141OSM   H11G15405   4.555   2.245   5.400 -0.4501 -0.2426 -3.2586
  141OSM   C12F15406   4.404   2.268   5.546 -0.0800  0.4801  0.3572
  141OSM   H12F15407   4.480   2.316   5.611  1.7388 -1.0919 -0.5081
  141OSM   H12G15408   4.404   2.161   5.576  0.5265  0.1971 -0.6148
  141OSM   C13F15409   4.261   2.315   5.581 -0.8394 -0.1538 -0.2133
  141OSM   H13F15410   4.186   2.245   5.539  1.0611 -3.2410  1.1370
  141OSM   H13G15411   4.245   2.411   5.526 -0.7110 -0.1919 -0.3191
  141OSM   C14F15412   4.267   2.324   5.736  0.4317  0.3287  0.4659
  141OSM   H14F15413   4.350   2.396   5.754  1.5624 -0.1455 -2.3318
  141OSM   H14G15414   4.282   2.223   5.781 -2.1073  0.9936  3.0959
  141OSM   C15F15415   4.139   2.384   5.804  0.5486  0.2558 -0.0483
  141OSM   H15F15416   4.052   2.322   5.772  0.8844 -0.6048  0.6743
  141OSM   H15G15417   4.145   2.492   5.775  2.5530  0.2089  0.0655
  141OSM   C16F15418   4.145   2.357   5.960  0.1908  0.4528  0.1277
  141OSM   H16F15419   4.236   2.412   5.991  0.5189 -1.0309  1.9387
  141OSM   H16G15420   4.169   2.250   5.974 -1.1735  0.1147  0.0232
  141OSM   C17F15421   4.027   2.398   6.039 -0.0238 -1.1906  0.0242
  141OSM   H17F15422   3.934   2.342   6.014  0.1991 -0.7497 -1.9613
  141OSM   H17G15423   4.002   2.499   6.001  0.0067 -1.1580  0.0921
  141OSM   C18F15424   4.037   2.399   6.194  0.0654 -0.4363 -0.5230
  141OSM   H18F15425   4.114   2.475   6.221  2.7169 -2.8614 -0.7581
  141OSM   H18G15426   4.069   2.303   6.240 -1.1152 -0.8311 -0.5077
  141OSM   H18H15427   3.937   2.425   6.235  0.7720  0.9325  0.4290
  142OSM      N15428   0.412   3.894   4.229 -0.3806 -0.0856  0.0889
  142OSM    C1515429   0.336   4.022   4.193  0.0724 -0.0912 -0.3329
  142OSM   H15A15430   0.370   4.058   4.097  1.4283 -0.8993 -0.1826
  142OSM   H15B15431   0.348   4.093   4.273 -2.4762 -1.1011  1.0763
  142OSM   H15C15432   0.230   4.002   4.203  0.3388 -0.7047  1.6065
  142OSM    C1415433   0.384   3.793   4.125 -0.1988  0.3337 -0.5067
  142OSM   H14A15434   0.416   3.694   4.156  0.1058  0.1216 -1.4663
  142OSM   H14B15435   0.434   3.818   4.033  1.8915  1.6031  0.8801
  142OSM   H14C15436   0.280   3.777   4.105 -0.5910 -0.2054  1.7555
  142OSM    C1315437   0.553   3.923   4.231 -0.4968 -0.0201 -0.0840
  142OSM   H13A15438   0.573   3.993   4.310  2.6195 -1.3384  0.4460
  142OSM   H13B15439   0.585   3.972   4.140 -0.9181 -1.3893 -1.0088
  142OSM   H13C15440   0.614   3.834   4.244  0.6297 -0.1009 -4.3873
  142OSM    C1215441   0.368   3.841   4.364  0.0120  0.1584 -0.5380
  142OSM   H12A15442   0.263   3.820   4.368  0.3193 -1.3046  1.0624
  142OSM   H12B15443   0.383   3.919   4.437 -1.4367  0.2971 -0.3753
  142OSM    C1115444   0.439   3.722   4.430 -0.9630  0.9641  0.3332
  142OSM   H11A15445   0.382   3.691   4.521 -0.7256  0.2375  0.2367
  142OSM   H11B15446   0.542   3.738   4.466 -0.6179 -1.4623  0.5639
  142OSM      P15447   0.536   3.482   4.346 -0.4491 -0.1298 -0.2643
  142OSM    O1315448   0.460   3.366   4.285 -0.7154  0.2444 -0.1242
  142OSM    O1415449   0.671   3.506   4.285 -0.6747  0.6664 -0.2629
  142OSM    O1115450   0.552   3.466   4.499 -0.0426  0.1003 -0.1521
  142OSM    O1215451   0.442   3.615   4.333  0.1439  0.0449 -0.3276
  142OSM    C1S15452   0.443   3.446   4.590 -0.8055  0.1707  0.8324
  142OSM    H1S15453   0.347   3.458   4.534 -0.1733  0.9516 -0.1072
  142OSM    H1T15454   0.441   3.525   4.668  1.5015  1.4170 -0.2645
  142OSM     NF15455   0.311   3.299   4.726  0.5253  0.3047  0.4461
  142OSM    HNF15456   0.296   3.344   4.814 -0.2439 -1.2034  1.1223
  142OSM    C2S15457   0.432   3.314   4.659 -0.3943  0.2939 -0.0802
  142OSM    H2S15458   0.436   3.229   4.587 -0.7444 -0.2596  0.5356
  142OSM    C3S15459   0.558   3.313   4.751  0.0984  0.2971  0.6867
  142OSM    H3S15460   0.539   3.392   4.827 -0.3240  0.4955  0.3818
  142OSM     O315461   0.685   3.345   4.703 -0.1155 -0.4836 -0.1699
  142OSM    HO315462   0.668   3.389   4.619  0.0138 -0.2717 -0.0881
  142OSM    C4S15463   0.555   3.193   4.840  0.9526  0.3991  0.5023
  142OSM    H4S15464   0.501   3.212   4.934 -0.3689  1.8475 -0.4982
  142OSM    C5S15465   0.604   3.069   4.812 -0.0721 -0.1098 -0.8319
  142OSM    H5S15466   0.649   3.050   4.714 -1.8136  0.3520 -1.7684
  142OSM    C6S15467   0.596   2.950   4.901  0.3955 -0.3493 -0.1788
  142OSM    H6S15468   0.701   2.917   4.913 -0.0430 -1.6935  0.1423
  142OSM    H6T15469   0.544   2.862   4.856 -0.1663  1.3072 -3.0765
  142OSM    C7S15470   0.522   2.986   5.039 -0.4212  0.5054  1.0581
  142OSM    H7S15471   0.508   2.887   5.086 -0.1465 -0.3027 -0.5084
  142OSM    H7T15472   0.423   3.032   5.018  0.1238  0.7374 -1.3799
  142OSM    C8S15473   0.603   3.064   5.138  1.1652 -0.2677 -0.0604
  142OSM    H8S15474   0.634   3.165   5.105 -0.9764  0.6069  0.4303
  142OSM    H8T15475   0.695   3.005   5.157  1.9197  1.0189  0.4293
  142OSM    C9S15476   0.524   3.077   5.273 -0.2678 -0.1965 -0.8229
  142OSM    H9S15477   0.509   2.974   5.312  0.6585  0.4790  1.4985
  142OSM    H9T15478   0.422   3.118   5.257  0.0470  0.2009 -1.8988
  142OSM   C10S15479   0.608   3.148   5.377 -0.9175 -0.5888  0.0214
  142OSM   H10S15480   0.636   3.233   5.313 -1.6578 -0.2948  0.0845
  142OSM   H10T15481   0.702   3.093   5.398 -0.4675 -0.5812 -1.8490
  142OSM   C11S15482   0.545   3.195   5.506  0.6158  0.2708 -0.4755
  142OSM   H11S15483   0.530   3.103   5.568 -2.2093 -0.1756 -1.6600
  142OSM   H11T15484   0.444   3.228   5.474 -0.0932 -2.0141 -0.7902
  142OSM   C12S15485   0.626   3.295   5.599  0.5378 -0.3790  0.0221
  142OSM   H12S15486   0.551   3.338   5.670  1.2565 -0.7280  1.0145
  142OSM   H12T15487   0.672   3.377   5.540  1.8787 -1.7271 -0.8556
  142OSM   C13S15488   0.732   3.222   5.679  0.0387 -0.4433  0.1564
  142OSM   H13S15489   0.824   3.207   5.619 -0.0051  0.9643 -0.3124
  142OSM   H13T15490   0.696   3.124   5.716  0.7366 -1.1417 -0.9449
  142OSM   C14S15491   0.761   3.308   5.808  0.1798 -0.2569  0.1537
  142OSM   H14S15492   0.673   3.359   5.853  0.9207  0.7621  0.4670
  142OSM   H14T15493   0.834   3.383   5.773  0.4286  0.9007  2.9142
  142OSM   C15S15494   0.820   3.218   5.913  1.0467 -1.1713  0.4264
  142OSM   H15S15495   0.898   3.161   5.858  0.9929 -0.5123 -0.3531
  142OSM   H15T15496   0.739   3.148   5.941 -1.2759  0.6709 -1.2649
  142OSM   C16S15497   0.867   3.300   6.031  0.5428  0.8077  0.4137
  142OSM   H16S15498   0.774   3.339   6.076 -0.8984 -1.8319 -0.0844
  142OSM   H16T15499   0.935   3.382   5.998  0.7491 -0.1310 -1.6275
  142OSM   C17S15500   0.940   3.214   6.135 -0.2157  0.5288  0.3023
  142OSM   H17S15501   1.003   3.148   6.072 -0.3100 -0.0307  0.7872
  142OSM   H17T15502   0.866   3.145   6.181  1.1794 -0.1613  1.5878
  142OSM   C18S15503   1.020   3.272   6.255  0.1117  0.4215 -0.3051
  142OSM   H18S15504   1.110   3.331   6.230  0.4906  0.7373  1.6671
  142OSM   H18T15505   1.062   3.186   6.312  0.5539  0.1092 -1.0781
  142OSM   H18U15506   0.949   3.330   6.317 -1.2778  1.5612 -2.7904
  142OSM    C1F15507   0.203   3.238   4.669 -0.4597  0.6578  0.1802
  142OSM     OF15508   0.212   3.165   4.572  0.4657 -0.0700 -0.3947
  142OSM    C2F15509   0.068   3.268   4.726  0.4523 -0.2866  0.0542
  142OSM    H2F15510  -0.000   3.289   4.641  1.0353  1.3485 -0.0388
  142OSM    H2G15511   0.067   3.357   4.793 -3.6495 -1.4579  1.9307
  142OSM    C3F15512   0.030   3.142   4.806 -0.7435 -0.2683 -0.9219
  142OSM    H3F15513   0.037   3.054   4.738 -3.0118 -0.9633 -0.3147
  142OSM    H3G15514  -0.078   3.151   4.829 -1.3581  0.0495 -3.5365
  142OSM    C4F15515   0.109   3.134   4.938 -0.4593 -0.2733  0.2770
  142OSM    H4F15516   0.129   3.242   4.958  0.0730 -0.1464 -0.8424
  142OSM    H4G15517   0.208   3.088   4.916 -1.0680 -1.1089 -0.8368
  142OSM    C5F15518   0.043   3.070   5.052  0.0663  0.6862  0.1409
  142OSM    H5F15519   0.044   2.959   5.048 -0.8437  0.6982 -1.6555
  142OSM    H5G15520  -0.060   3.093   5.086 -0.7128 -0.3572 -1.4023
  142OSM    C6F15521   0.127   3.103   5.178  0.1049  0.2322 -0.2606
  142OSM    H6F15522   0.117   3.212   5.195  2.9677  0.4143  0.9048
  142OSM    H6G15523   0.233   3.084   5.148  0.1194  0.7620 -0.5552
  142OSM    C7F15524   0.093   3.015   5.297  0.5339 -0.2514 -0.3458
  142OSM    H7F15525   0.105   2.907   5.275  0.4885 -0.3968  0.3121
  142OSM    H7G15526  -0.016   3.028   5.318  0.1217 -0.1808 -2.3852
  142OSM    C8F15527   0.197   3.035   5.418 -0.4971  0.0480 -0.1361
  142OSM    H8F15528   0.293   3.043   5.363  0.5681 -2.6206  1.1425
  142OSM    H8G15529   0.205   2.939   5.474  0.7587  0.4420  0.4153
  142OSM    C9F15530   0.159   3.144   5.516  0.2730 -0.2466  0.1921
  142OSM    H9F15531   0.139   3.240   5.467 -1.5967  0.2403  1.7655
  142OSM   C10F15532   0.167   3.146   5.650  0.3443  0.5873  0.6575
  142OSM   H10F15533   0.131   3.236   5.703  0.5183  0.8177  0.3923
  142OSM   C11F15534   0.201   3.033   5.745  0.1068 -0.8718  0.0541
  142OSM   H11F15535   0.285   2.977   5.699 -1.6358 -1.8846 -2.0798
  142OSM   H11G15536   0.124   2.955   5.758  1.6837 -2.6353 -0.7053
  142OSM   C12F15537   0.227   3.096   5.881 -0.0776  0.1364  0.3725
  142OSM   H12F15538   0.235   3.012   5.953  1.5896  1.0016  1.2399
  142OSM   H12G15539   0.145   3.153   5.931  0.0073  2.3329 -1.8011
  142OSM   C13F15540   0.364   3.176   5.880 -0.2694 -0.2468 -0.3918
  142OSM   H13F15541   0.360   3.274   5.829 -0.0965 -0.0033  0.0640
  142OSM   H13G15542   0.436   3.116   5.820 -2.2692 -1.8708 -1.3133
  142OSM   C14F15543   0.411   3.195   6.027  0.0910 -0.0299 -0.3271
  142OSM   H14F15544   0.333   3.241   6.092 -0.1568  2.1123 -2.0457
  142OSM   H14G15545   0.495   3.267   6.024  0.0630  0.0010 -0.3749
  142OSM   C15F15546   0.449   3.066   6.090  0.3105  1.0775  0.3969
  142OSM   H15F15547   0.514   3.009   6.020  3.0898  0.9199  2.9339
  142OSM   H15G15548   0.357   3.004   6.104 -1.1887  3.5111  2.0535
  142OSM   C16F15549   0.521   3.082   6.225 -0.6668  0.4689  0.4416
  142OSM   H16F15550   0.603   3.155   6.207 -0.1597  0.1039  1.2143
  142OSM   H16G15551   0.578   2.990   6.249  0.0081  0.4302 -1.2300
  142OSM   C17F15552   0.422   3.121   6.334  0.4840 -0.3264 -0.0907
  142OSM   H17F15553   0.318   3.127   6.294  0.5433  2.6771 -0.0397
  142OSM   H17G15554   0.447   3.221   6.375 -0.9683 -0.4241  1.1168
  142OSM   C18F15555   0.434   3.021   6.453  0.4548  0.1395 -0.2055
  142OSM   H18F15556   0.389   3.067   6.543 -1.3102 -1.4283 -0.2339
  142OSM   H18G15557   0.539   3.001   6.486  0.3712  0.3307  0.1758
  142OSM   H18H15558   0.392   2.921   6.430  1.3309 -0.4319  0.6095
  143OSM      N15559   4.940   3.954   4.496  0.5544  0.1315  0.4033
  143OSM    C1515560   5.058   3.989   4.575 -1.2355  0.1704  0.5394
  143OSM   H15A15561   5.129   3.908   4.578  0.6720  1.7639  1.1918
  143OSM   H15B15562   5.040   4.011   4.679  1.6888 -1.7380  1.5682
  143OSM   H15C15563   5.116   4.073   4.537  0.1796 -1.9238 -2.3919
  143OSM    C1415564   4.981   3.902   4.363  0.0863  1.0019  0.4296
  143OSM   H14A15565   5.041   3.985   4.328  0.0398  0.4371 -1.0587
  143OSM   H14B15566   4.900   3.891   4.292  1.2563 -1.1171 -0.6951
  143OSM   H14C15567   5.034   3.808   4.357 -2.2396 -0.4059  0.7091
  143OSM    C1315568   4.864   3.846   4.569 -0.1017  0.3977 -0.4544
  143OSM   H13A15569   4.838   3.891   4.663 -1.1772 -1.0594 -0.0057
  143OSM   H13B15570   4.923   3.762   4.602 -1.7865 -0.2047  1.2118
  143OSM   H13C15571   4.786   3.812   4.502  0.2023 -2.1117  0.3456
  143OSM    C1215572   4.863   4.082   4.480  0.4372  0.0268  0.0371
  143OSM   H12A15573   4.927   4.165   4.452  1.2362 -0.4883  0.2934
  143OSM   H12B15574   4.826   4.103   4.579  2.2612 -1.2487  1.0393
  143OSM    C1115575   4.739   4.073   4.383  0.4023  0.3893  0.2132
  143OSM   H11A15576   4.768   4.083   4.276 -0.0226  0.1761  0.0767
  143OSM   H11B15577   4.687   4.168   4.409  1.1847  0.9055 -0.0517
  143OSM      P15578   4.523   3.961   4.486 -0.2786  0.0635  0.2910
  143OSM    O1315579   4.412   4.020   4.419 -0.4713 -0.0307 -0.1946
  143OSM    O1415580   4.492   3.828   4.537  0.3117 -0.2474  0.0551
  143OSM    O1115581   4.569   4.040   4.610 -0.0161 -0.3216  0.7053
  143OSM    O1215582   4.649   3.960   4.392  0.3793  0.3733  0.5701
  143OSM    C1S15583   4.484   4.128   4.683  0.1395 -0.0153  0.1564
  143OSM    H1S15584   4.379   4.095   4.669 -0.1955  0.6941  0.8919
  143OSM    H1T15585   4.491   4.234   4.650 -0.7352 -0.3231 -1.1053
  143OSM     NF15586   4.400   4.195   4.910  0.3470  0.1079 -0.2465
  143OSM    HNF15587   4.422   4.275   4.965  0.4952  0.0497 -0.2202
  143OSM    C2S15588   4.506   4.122   4.840 -0.0157 -0.0422 -0.4850
  143OSM    H2S15589   4.488   4.016   4.867 -0.1465  0.3932  1.2658
  143OSM    C3S15590   4.650   4.164   4.874 -0.2866 -0.5347  0.5991
  143OSM    H3S15591   4.654   4.272   4.848 -0.0068 -1.4515 -3.9531
  143OSM     O315592   4.751   4.113   4.785 -0.8664  0.2459  0.3518
  143OSM    HO315593   4.697   4.078   4.713  1.7769  1.3182 -2.3803
  143OSM    C4S15594   4.679   4.155   5.024 -0.2766 -0.5225  0.8948
  143OSM    H4S15595   4.625   4.232   5.080  1.5326  0.5894  1.1919
  143OSM    C5S15596   4.739   4.059   5.097  0.0988  0.0472 -0.3351
  143OSM    H5S15597   4.776   3.973   5.040  0.8863 -0.8779  1.4799
  143OSM    C6S15598   4.754   4.052   5.249 -0.2959 -0.0841 -0.0866
  143OSM    H6S15599   4.865   4.049   5.260 -0.1439 -1.4012 -1.5610
  143OSM    H6T15600   4.720   3.949   5.275  0.3427 -0.5014 -0.8580
  143OSM    C7S15601   4.684   4.162   5.333 -0.2267  0.2648  0.1991
  143OSM    H7S15602   4.578   4.169   5.299 -0.0935 -0.3417 -0.3595
  143OSM    H7T15603   4.737   4.257   5.309  1.1528 -0.4906  0.1561
  143OSM    C8S15604   4.670   4.137   5.485  0.2570 -0.1917  0.1071
  143OSM    H8S15605   4.621   4.038   5.500 -0.1695 -0.1578 -0.9959
  143OSM    H8T15606   4.603   4.213   5.530  2.3090  0.8046  1.6648
  143OSM    C9S15607   4.800   4.143   5.564 -0.1494  0.3036 -0.0096
  143OSM    H9S15608   4.863   4.228   5.531 -0.2127  1.8038  3.3044
  143OSM    H9T15609   4.863   4.053   5.544 -1.2860 -0.1192 -2.0080
  143OSM   C10S15610   4.780   4.175   5.714  0.5661 -0.0810 -0.4821
  143OSM   H10S15611   4.711   4.258   5.740 -1.1496 -1.6210  0.0663
  143OSM   H10T15612   4.875   4.199   5.767 -0.9576  1.3659  1.7727
  143OSM   C11S15613   4.733   4.051   5.790  0.0544 -0.3416  0.3052
  143OSM   H11S15614   4.800   3.962   5.790 -0.0158 -0.3955 -0.0055
  143OSM   H11T15615   4.643   4.010   5.739 -0.0190 -1.5103  1.3264
  143OSM   C12S15616   4.698   4.071   5.931  0.5361 -0.6007  0.1634
  143OSM   H12S15617   4.644   3.983   5.973 -0.8116  0.9294  1.8262
  143OSM   H12T15618   4.629   4.157   5.947  0.5381 -1.0555  3.1266
  143OSM   C13S15619   4.817   4.088   6.026  0.2779 -0.2694  0.1599
  143OSM   H13S15620   4.872   4.177   5.988  0.2135 -1.0700 -1.9494
  143OSM   H13T15621   4.884   3.999   6.031 -0.5460 -0.9517 -0.5968
  143OSM   C14S15622   4.779   4.110   6.178 -0.0546 -0.3711  0.7137
  143OSM   H14S15623   4.723   4.206   6.182 -2.1765 -1.5869  1.7868
  143OSM   H14T15624   4.875   4.117   6.233  0.8565 -3.4693 -0.2884
  143OSM   C15S15625   4.680   4.009   6.241 -0.5913 -0.3344 -0.6597
  143OSM   H15S15626   4.711   3.903   6.228 -1.2549 -1.0635  2.7917
  143OSM   H15T15627   4.579   4.004   6.195 -1.1299  0.6663  0.3976
  143OSM   C16S15628   4.664   4.040   6.391 -0.1675  0.3116 -0.3890
  143OSM   H16S15629   4.764   4.057   6.436  0.2286 -0.6882 -0.8669
  143OSM   H16T15630   4.618   3.963   6.457  2.1083  0.3781  1.4010
  143OSM   C17S15631   4.582   4.166   6.427  0.4835  0.0665  0.1695
  143OSM   H17S15632   4.631   4.259   6.392  1.5057 -1.2268 -2.0144
  143OSM   H17T15633   4.566   4.158   6.537 -0.0012 -2.4327 -0.0358
  143OSM   C18S15634   4.438   4.165   6.368 -0.0283  0.1552  0.6384
  143OSM   H18S15635   4.390   4.077   6.416  3.3749 -0.5853  3.1110
  143OSM   H18T15636   4.441   4.159   6.257 -3.7975 -0.1785  0.4392
  143OSM   H18U15637   4.373   4.252   6.395 -0.2429  0.4128 -0.6510
  143OSM    C1F15638   4.269   4.160   4.904  0.2096  0.7326  0.2982
  143OSM     OF15639   4.235   4.058   4.849 -0.0976  0.0976  0.1865
  143OSM    C2F15640   4.178   4.241   4.989 -0.5583 -0.8026  1.3906
  143OSM    H2F15641   4.109   4.293   4.920  0.7635 -0.6611  0.1250
  143OSM    H2G15642   4.239   4.321   5.035 -1.9830  1.1547  0.0104
  143OSM    C3F15643   4.105   4.173   5.104 -0.4832 -0.1182  0.2585
  143OSM    H3F15644   4.062   4.079   5.066  1.7218 -0.0821 -2.6387
  143OSM    H3G15645   4.028   4.250   5.130 -1.3564 -0.2304 -1.8346
  143OSM    C4F15646   4.198   4.142   5.218  0.1036  0.1667 -0.4932
  143OSM    H4F15647   4.271   4.222   5.242  0.8257 -0.8930  1.0545
  143OSM    H4G15648   4.271   4.060   5.199  3.2273  2.1733  1.7173
  143OSM    C5F15649   4.111   4.108   5.343 -0.7988 -0.2807  0.2011
  143OSM    H5F15650   4.040   4.033   5.302 -0.1475 -0.0724 -1.3833
  143OSM    H5G15651   4.056   4.198   5.378  0.0978  0.4554 -0.2594
  143OSM    C6F15652   4.184   4.057   5.468  0.3113 -0.3474 -0.6323
  143OSM    H6F15653   4.261   3.980   5.447 -0.7778 -2.8220  3.4214
  143OSM    H6G15654   4.106   4.018   5.537 -0.3886 -0.1618 -1.3106
  143OSM    C7F15655   4.256   4.177   5.528  0.8206  0.8096 -0.1853
  143OSM    H7F15656   4.181   4.258   5.513  1.0148  1.1097  0.4186
  143OSM    H7G15657   4.348   4.189   5.466  2.5045 -0.1184  2.0296
  143OSM    C8F15658   4.279   4.165   5.684 -0.2642 -0.1157 -0.1779
  143OSM    H8F15659   4.184   4.179   5.740 -0.5281  2.2133 -1.0871
  143OSM    H8G15660   4.347   4.247   5.717  0.7099 -1.6768  1.9866
  143OSM    C9F15661   4.354   4.043   5.713  0.6431  0.5645  0.1357
  143OSM    H9F15662   4.435   4.029   5.640 -0.1708  0.5188 -0.7843
  143OSM   C10F15663   4.322   3.968   5.819  0.0919  0.6877 -0.4516
  143OSM   H10F15664   4.383   3.876   5.829  0.5303  0.9901 -0.2801
  143OSM   C11F15665   4.208   3.988   5.914 -0.5607 -0.0401 -0.5127
  143OSM   H11F15666   4.203   3.886   5.959 -3.0612  0.4530  0.4780
  143OSM   H11G15667   4.106   4.002   5.871 -0.7494  0.2871  0.0351
  143OSM   C12F15668   4.235   4.090   6.027  0.0580 -1.0397  0.7002
  143OSM   H12F15669   4.239   4.187   5.973 -0.3128  0.4242  3.1259
  143OSM   H12G15670   4.335   4.068   6.070  0.8311  1.4409  0.3589
  143OSM   C13F15671   4.138   4.113   6.131 -0.7296  0.1782 -0.0027
  143OSM   H13F15672   4.034   4.141   6.102 -0.7120 -1.2664 -1.6347
  143OSM   H13G15673   4.172   4.192   6.201 -1.9958 -1.1082  2.2017
  143OSM   C14F15674   4.114   3.988   6.224  0.0729 -0.4396 -0.2034
  143OSM   H14F15675   4.217   3.950   6.245  1.3562  2.9999  0.3023
  143OSM   H14G15676   4.055   3.925   6.154  0.5771  0.7879 -1.8035
  143OSM   C15F15677   4.038   4.029   6.354 -0.1717  0.0595 -0.0046
  143OSM   H15F15678   4.090   4.101   6.420 -3.7196 -0.4802  3.8306
  143OSM   H15G15679   4.027   3.943   6.424  0.4303 -0.4619 -0.5342
  143OSM   C16F15680   3.895   4.089   6.332 -0.1708 -0.7405  0.4805
  143OSM   H16F15681   3.854   4.042   6.240  0.8167 -2.6198  0.9533
  143OSM   H16G15682   3.909   4.196   6.307 -1.2045 -0.2473  1.8446
  143OSM   C17F15683   3.805   4.091   6.452 -0.2692  0.4779 -0.0473
  143OSM   H17F15684   3.752   3.993   6.454  0.5856 -0.0372  2.9031
  143OSM   H17G15685   3.727   4.170   6.456  1.5064  2.3867 -0.9659
  143OSM   C18F15686   3.869   4.119   6.588  0.0991  0.1697 -0.0543
  143OSM   H18F15687   3.894   4.022   6.636  0.3197  0.9396  1.4347
  143OSM   H18G15688   3.801   4.172   6.657  0.0830 -0.5603  0.5115
  143OSM   H18H15689   3.954   4.191   6.584 -0.1445  0.4238 -0.9029
  144OSM      N15690   4.229   5.389   4.208 -0.2185 -0.3545  0.2475
  144OSM    C1515691   4.327   5.449   4.310 -0.1626 -0.0127  0.3730
  144OSM   H15A15692   4.324   5.380   4.392 -2.5013 -0.8364 -0.3266
  144OSM   H15B15693   4.299   5.552   4.328  0.8675  0.5007 -0.8226
  144OSM   H15C15694   4.423   5.460   4.261  0.0986  1.1291  1.1106
  144OSM    C1415695   4.213   5.497   4.103  0.4776  0.8093  0.1757
  144OSM   H14A15696   4.143   5.458   4.030  1.4250 -1.7079  0.5231
  144OSM   H14B15697   4.310   5.519   4.063  0.8468 -0.4052  0.3486
  144OSM   H14C15698   4.166   5.588   4.138 -0.7704  0.6514 -1.0120
  144OSM    C1315699   4.275   5.257   4.148  0.2601  0.1149 -0.0838
  144OSM   H13A15700   4.199   5.219   4.081 -0.1111 -3.1751  1.9745
  144OSM   H13B15701   4.270   5.188   4.231 -2.0661  1.5384  1.0583
  144OSM   H13C15702   4.372   5.263   4.102  0.6563  1.0117  0.8477
  144OSM    C1215703   4.095   5.369   4.282 -0.2419 -1.0414  0.7272
  144OSM   H12A15704   4.026   5.331   4.208  0.0496 -0.5494  0.1866
  144OSM   H12B15705   4.055   5.464   4.315  1.8526 -0.1882  0.9601
  144OSM    C1115706   4.092   5.274   4.404 -0.1464 -0.0191 -0.7619
  144OSM   H11A15707   3.990   5.266   4.447 -0.0004  0.6363 -0.2725
  144OSM   H11B15708   4.158   5.318   4.482 -0.1078 -1.0888 -0.1815
  144OSM      P15709   4.060   5.005   4.389 -0.1238  0.2200 -0.1836
  144OSM    O1315710   3.951   5.021   4.488 -0.2728 -0.4448 -0.2624
  144OSM    O1415711   4.026   4.951   4.257 -0.1475  0.2449  0.0403
  144OSM    O1115712   4.170   4.917   4.460 -0.3107 -0.0691  0.4379
  144OSM    O1215713   4.132   5.145   4.376  0.0720 -0.9522  0.5740
  144OSM    C1S15714   4.231   4.961   4.588 -0.3640  0.9141  0.1659
  144OSM    H1S15715   4.234   5.072   4.597  0.2254  0.9001  0.1868
  144OSM    H1T15716   4.335   4.924   4.593  0.0761  2.2263  1.2230
  144OSM     NF15717   4.213   4.945   4.834  0.2475  0.0320 -0.0788
  144OSM    HNF15718   4.264   4.879   4.889 -1.7643 -2.0187 -0.5461
  144OSM    C2S15719   4.153   4.897   4.703  0.1135 -1.2481 -0.2533
  144OSM    H2S15720   4.048   4.933   4.690  0.5401 -0.0061 -0.3463
  144OSM    C3S15721   4.145   4.743   4.688 -0.0410 -0.3750 -1.0188
  144OSM    H3S15722   4.250   4.709   4.688  0.2115  0.3622 -0.4524
  144OSM     O315723   4.103   4.692   4.570  0.4129 -0.3499  0.2937
  144OSM    HO315724   4.104   4.775   4.521 -0.8854  0.2804  1.2485
  144OSM    C4S15725   4.059   4.688   4.801 -0.3881  0.5749 -0.5541
  144OSM    H4S15726   3.964   4.734   4.832  0.4584  1.7248  0.4620
  144OSM    C5S15727   4.096   4.593   4.894  0.8492  0.8750 -0.2213
  144OSM    H5S15728   4.190   4.536   4.888  0.1091 -0.5477  1.0904
  144OSM    C6S15729   4.014   4.549   5.016 -0.7932  0.2149  0.5117
  144OSM    H6S15730   4.000   4.439   5.011 -1.5246  0.3028  0.4893
  144OSM    H6T15731   3.909   4.586   5.011 -0.9444 -0.3114 -3.5922
  144OSM    C7S15732   4.086   4.588   5.144 -0.2873  0.3346 -0.2553
  144OSM    H7S15733   4.116   4.694   5.157  1.6926 -0.1244 -0.7470
  144OSM    H7T15734   4.186   4.540   5.157 -0.4031 -0.4134 -1.9974
  144OSM    C8S15735   4.007   4.546   5.271 -0.0456 -0.1258 -0.0066
  144OSM    H8S15736   3.963   4.446   5.250 -1.8278  0.2364  1.7427
  144OSM    H8T15737   3.918   4.612   5.278 -0.8539 -1.1115 -0.8222
  144OSM    C9S15738   4.093   4.552   5.403  0.0938  0.3183 -0.3950
  144OSM    H9S15739   4.140   4.653   5.407  1.6964 -0.3601 -1.3455
  144OSM    H9T15740   4.171   4.473   5.398 -0.7132 -0.5094 -0.1562
  144OSM   C10S15741   3.995   4.528   5.525 -0.5922 -0.0556 -0.7762
  144OSM   H10S15742   3.946   4.429   5.516 -2.6501  0.8335  0.0216
  144OSM   H10T15743   3.913   4.603   5.524 -0.7648 -0.2172  0.0286
  144OSM   C11S15744   4.075   4.544   5.657  0.3833 -0.0742  0.6346
  144OSM   H11S15745   4.094   4.653   5.648 -0.8948  0.0675 -0.7165
  144OSM   H11T15746   4.177   4.503   5.637  0.3644  0.8546 -1.7255
  144OSM   C12S15747   4.011   4.482   5.780  0.3722 -0.0613 -0.3562
  144OSM   H12S15748   4.014   4.371   5.776  1.1788 -0.0353 -0.5803
  144OSM   H12T15749   3.904   4.511   5.781  0.6203  0.8710 -0.3092
  144OSM   C13S15750   4.077   4.529   5.910  0.4175 -0.5517 -0.1151
  144OSM   H13S15751   4.108   4.635   5.896  0.3634 -0.3324  1.2473
  144OSM   H13T15752   4.160   4.459   5.934  2.0855  1.3664 -0.0688
  144OSM   C14S15753   3.980   4.518   6.034  0.1203 -0.3383  0.3049
  144OSM   H14S15754   3.961   4.411   6.057 -0.6670  0.0499  1.5258
  144OSM   H14T15755   3.891   4.577   6.002  0.0126 -1.6332 -1.9722
  144OSM   C15S15756   4.053   4.576   6.155 -0.0481  0.1710  0.1666
  144OSM   H15S15757   4.099   4.676   6.138  0.1311  0.3983  1.7924
  144OSM   H15T15758   4.119   4.497   6.197 -1.7984 -1.0268  0.8077
  144OSM   C16S15759   3.951   4.611   6.265  0.3087  0.7327 -0.4767
  144OSM   H16S15760   3.870   4.535   6.269  1.1132 -0.1154  0.2253
  144OSM   H16T15761   3.905   4.708   6.237 -2.2464 -0.7187 -1.7079
  144OSM   C17S15762   4.014   4.612   6.405 -0.1467 -0.3319  0.2391
  144OSM   H17S15763   3.956   4.678   6.473  0.8591  2.9467 -1.8612
  144OSM   H17T15764   4.117   4.651   6.413  0.4365 -0.8515 -3.0538
  144OSM   C18S15765   4.019   4.468   6.480 -0.2627  0.7516  0.5831
  144OSM   H18S15766   4.110   4.414   6.447 -3.1189 -5.1430  1.2219
  144OSM   H18T15767   3.926   4.408   6.482  0.9508 -1.2168  3.1866
  144OSM   H18U15768   4.049   4.491   6.585  0.7727 -0.3894  0.5567
  144OSM    C1F15769   4.192   5.066   4.879  0.0978  0.3314  0.4220
  144OSM     OF15770   4.112   5.141   4.829  0.7506  0.0682  0.5827
  144OSM    C2F15771   4.269   5.101   5.000  0.4328  0.7566 -0.4174
  144OSM    H2F15772   4.284   5.209   5.020 -0.5049  0.8740 -0.3246
  144OSM    H2G15773   4.368   5.055   4.977  0.5719  2.0074 -2.6710
  144OSM    C3F15774   4.201   5.028   5.123 -0.2681  0.4525 -0.1944
  144OSM    H3F15775   4.218   4.921   5.100  3.8231  0.5278  1.6480
  144OSM    H3G15776   4.090   5.036   5.124 -0.1832  2.0858 -0.1050
  144OSM    C4F15777   4.252   5.088   5.251  0.5943  0.1702 -0.2387
  144OSM    H4F15778   4.210   5.190   5.257 -3.0614 -1.2761  1.8690
  144OSM    H4G15779   4.362   5.072   5.248  0.5177 -0.3905 -0.3043
  144OSM    C5F15780   4.184   5.014   5.365  0.1696 -0.1640 -0.2827
  144OSM    H5F15781   4.195   4.905   5.347 -2.1972 -0.4073 -0.5464
  144OSM    H5G15782   4.076   5.038   5.370 -0.2501 -1.4668 -2.0538
  144OSM    C6F15783   4.230   5.050   5.504 -0.3012  0.0183 -0.4052
  144OSM    H6F15784   4.282   5.148   5.499  0.2370 -0.1842  0.8387
  144OSM    H6G15785   4.303   4.975   5.542 -0.0388 -0.9435 -2.6704
  144OSM    C7F15786   4.117   5.072   5.608 -0.1222 -0.6293  0.3664
  144OSM    H7F15787   4.054   4.980   5.606 -0.5690 -0.3798  1.8045
  144OSM    H7G15788   4.062   5.158   5.565  2.4567  0.5324 -0.8091
  144OSM    C8F15789   4.165   5.113   5.743  0.1397  0.4121  0.3835
  144OSM    H8F15790   4.089   5.167   5.804 -0.5008 -0.1070  0.0561
  144OSM    H8G15791   4.255   5.178   5.744  0.9225 -0.6323 -0.4354
  144OSM    C9F15792   4.209   4.982   5.809 -0.3012  0.0562 -0.1327
  144OSM    H9F15793   4.306   4.946   5.771 -0.2751 -1.3951  1.2135
  144OSM   C10F15794   4.164   4.929   5.922 -0.2509 -0.2712  0.0888
  144OSM   H10F15795   4.204   4.834   5.960 -0.3708 -0.3543  0.0099
  144OSM   C11F15796   4.041   4.975   5.997 -0.2845  0.3235 -0.9675
  144OSM   H11F15797   3.990   4.884   6.033  0.6246  0.6348  1.2930
  144OSM   H11G15798   3.973   5.035   5.932 -0.1810  0.8234 -0.6260
  144OSM   C12F15799   4.100   5.051   6.120 -0.1250  0.0668  0.4567
  144OSM   H12F15800   4.178   5.126   6.095  0.6958 -1.1353 -0.6982
  144OSM   H12G15801   4.158   4.979   6.181  1.0115 -0.7619 -1.5286
  144OSM   C13F15802   3.988   5.131   6.188  0.2449 -0.2809 -0.7826
  144OSM   H13F15803   3.922   5.059   6.240 -0.8195  0.3002 -1.3057
  144OSM   H13G15804   3.933   5.187   6.110 -0.3621  0.8261  0.4004
  144OSM   C14F15805   4.042   5.238   6.281  0.1294  0.0909 -0.2746
  144OSM   H14F15806   4.098   5.314   6.223  0.3928  2.8397  3.2297
  144OSM   H14G15807   4.122   5.190   6.342 -0.4754 -0.0318  0.4403
  144OSM   C15F15808   3.939   5.329   6.364  0.8883 -0.2371 -0.0695
  144OSM   H15F15809   3.876   5.369   6.281  0.1961 -1.2976 -0.0752
  144OSM   H15G15810   3.989   5.418   6.406  1.1847 -0.1200 -0.6493
  144OSM   C16F15811   3.868   5.257   6.479 -0.2177 -0.0638  0.0433
  144OSM   H16F15812   3.948   5.210   6.540  0.7859 -0.0399 -1.2003
  144OSM   H16G15813   3.803   5.177   6.439 -0.0313 -0.6583  0.8954
  144OSM   C17F15814   3.789   5.346   6.581  0.2328  0.1633 -0.1557
  144OSM   H17F15815   3.712   5.402   6.524 -0.5711  0.7383  1.4185
  144OSM   H17G15816   3.860   5.427   6.611  0.2022  0.0692  0.1814
  144OSM   C18F15817   3.725   5.284   6.704 -0.5242 -1.1555  0.2581
  144OSM   H18F15818   3.644   5.216   6.671 -2.5774  2.3082 -2.3951
  144OSM   H18G15819   3.677   5.370   6.755 -0.7344  0.0902 -1.9236
  144OSM   H18H15820   3.805   5.246   6.772  0.3586  2.1552  1.2169
  145SAPE     N15821   2.093   6.587   0.166  0.2747  0.0403 -0.1496
  145SAPE   HN115822   2.184   6.607   0.211  0.3888  1.6599 -1.0152
  145SAPE   HN215823   2.020   6.654   0.198  0.8966  0.6741 -0.0306
  145SAPE   HN315824   2.063   6.490   0.186 -2.3331  1.1043  1.8287
  145SAPE   C1215825   2.112   6.592   0.014  0.4871 -0.3409  0.4567
  145SAPE  H12A15826   2.157   6.690  -0.009 -0.2427 -0.0061  0.4393
  145SAPE  H12B15827   2.012   6.584  -0.032  0.3154 -0.8618  0.9103
  145SAPE   C1115828   2.211   6.485  -0.040 -0.9200  0.7368  0.1883
  145SAPE  H11A15829   2.155   6.389  -0.046  1.5345 -0.7062 -1.0315
  145SAPE  H11B15830   2.300   6.475   0.026  0.9888  0.3770 -2.2872
  145SAPE     P15831   2.408   6.589  -0.186  0.7268  0.1349 -0.4112
  145SAPE   O1315832   2.402   6.725  -0.141 -0.5276 -0.7526 -0.4468
  145SAPE   O1415833   2.503   6.506  -0.113 -0.8227 -0.3106  0.6175
  145SAPE   O1215834   2.264   6.519  -0.176 -0.4982 -0.1908 -0.5794
  145SAPE   O1115835   2.445   6.589  -0.331 -0.4214 -0.0148 -0.5176
  145SAPE    C115836   2.413   6.469  -0.405 -0.4859  0.2528 -0.3826
  145SAPE    HA15837   2.411   6.376  -0.344  0.4774  0.9070  0.7082
  145SAPE    HB15838   2.320   6.477  -0.464  1.4089 -0.6320 -3.7590
  145SAPE    C215839   2.525   6.442  -0.505  0.5983  0.0877  0.1856
  145SAPE    HS15840   2.617   6.479  -0.454  0.7797 -0.1115  0.0080
  145SAPE   O2115841   2.501   6.517  -0.632  0.3573  0.5929  0.1915
  145SAPE   C2115842   2.622   6.543  -0.698  0.0466 -0.0665 -0.2776
  145SAPE   O2215843   2.729   6.528  -0.647 -0.2132 -0.0454  0.2999
  145SAPE   C2215844   2.588   6.591  -0.839  0.3237  0.6277 -0.1496
  145SAPE   H2R15845   2.548   6.510  -0.904  1.1319  2.7728 -3.6099
  145SAPE   H2S15846   2.503   6.662  -0.831  1.2416  1.6792  0.5249
  145SAPE    C315847   2.539   6.289  -0.527  0.0711  0.7313  0.3988
  145SAPE    HX15848   2.571   6.236  -0.435  2.4203 -2.0966 -1.8720
  145SAPE    HY15849   2.620   6.270  -0.601  0.6615  2.4915  0.5534
  145SAPE   O3115850   2.408   6.238  -0.561 -0.2973  0.6050  0.7123
  145SAPE   C3115851   2.382   6.245  -0.693  0.5600 -0.2621 -0.2538
  145SAPE   O3215852   2.462   6.267  -0.780 -0.4680  0.3968  0.1107
  145SAPE   C3215853   2.233   6.235  -0.721  0.0758 -0.1236  0.4452
  145SAPE   H2X15854   2.191   6.136  -0.690 -0.0791 -2.0947 -4.9193
  145SAPE   H2Y15855   2.235   6.217  -0.831  0.8604  0.5185  0.3512
  145SAPE   C2315856   2.715   6.650  -0.910 -0.1653  0.4207  0.6355
  145SAPE   H3R15857   2.692   6.674  -1.016  0.7473 -1.8453 -0.1424
  145SAPE   H3S15858   2.799   6.577  -0.914  0.0940  0.7228  0.5783
  145SAPE   C2415859   2.761   6.778  -0.838 -0.4317  0.6830 -0.0206
  145SAPE   H4R15860   2.857   6.797  -0.890 -0.3515 -0.0368 -0.1480
  145SAPE   H4S15861   2.789   6.742  -0.736  0.3485 -0.2455 -0.5447
  145SAPE   C2515862   2.675   6.903  -0.837  1.0835  0.2409  0.4974
  145SAPE   H5R15863   2.620   6.927  -0.745  0.0250  1.2163 -0.3577
  145SAPE   C2615864   2.660   6.984  -0.947  0.3245 -0.8343  0.5838
  145SAPE   H6R15865   2.596   7.073  -0.937 -0.2191 -0.6941 -3.0261
  145SAPE   C2715866   2.715   6.964  -1.085  0.2412 -1.0323 -0.7792
  145SAPE   H7R15867   2.752   6.860  -1.092  0.7858 -1.0301  1.4537
  145SAPE   H7S15868   2.810   7.021  -1.099 -0.5544  1.9560  3.8075
  145SAPE   C2815869   2.616   7.005  -1.190 -0.0473  0.7598  0.0614
  145SAPE   H8R15870   2.557   7.096  -1.172  2.8065  2.4071  1.7045
  145SAPE   C2915871   2.585   6.932  -1.295  0.2130 -0.1827  0.3396
  145SAPE   H9R15872   2.502   6.969  -1.356  1.5399  1.9580 -0.2877
  145SAPE  C21015873   2.657   6.806  -1.358  0.7869  0.1368 -0.4124
  145SAPE  H10R15874   2.722   6.754  -1.284 -0.1022 -1.5731 -0.7811
  145SAPE  H10S15875   2.721   6.842  -1.442 -0.1126 -0.8268 -1.5436
  145SAPE  C21115876   2.556   6.704  -1.405 -0.1610  1.0099 -0.1750
  145SAPE  H11R15877   2.472   6.702  -1.335  2.7839  1.4330  3.7597
  145SAPE  C21215878   2.564   6.652  -1.529  0.2254 -0.4762  0.3453
  145SAPE  H12R15879   2.495   6.573  -1.562 -0.1172  0.1108 -0.3789
  145SAPE  C21315880   2.675   6.668  -1.630 -0.6018 -0.2110 -0.3301
  145SAPE  H13R15881   2.678   6.567  -1.676 -0.8494 -1.0569  1.4358
  145SAPE  H13S15882   2.772   6.685  -1.579  0.7107 -0.6041 -2.5415
  145SAPE  C21415883   2.644   6.783  -1.730  0.3966  0.6133 -0.5064
  145SAPE  H14R15884   2.602   6.875  -1.686  2.0393  1.2204 -0.1215
  145SAPE  C21515885   2.663   6.787  -1.863 -0.0581 -0.4871  0.6115
  145SAPE  H15R15886   2.648   6.877  -1.925  0.0778 -0.9735 -0.1500
  145SAPE  C21615887   2.730   6.677  -1.943  0.1043  0.4723 -0.2475
  145SAPE  H16R15888   2.670   6.657  -2.034 -0.8162 -0.2271  0.4839
  145SAPE  H16S15889   2.742   6.583  -1.885  1.0823 -0.8386 -2.4609
  145SAPE  C21715890   2.872   6.717  -1.994  0.1689  0.2772 -0.0759
  145SAPE  H17R15891   2.951   6.681  -1.924  1.4756 -1.1149 -2.1461
  145SAPE  H17S15892   2.874   6.828  -1.988  0.6649  0.4201 -2.1968
  145SAPE  C21815893   2.913   6.669  -2.140 -0.3090 -0.0488 -0.2190
  145SAPE  H18R15894   3.019   6.694  -2.160 -0.0845 -0.2939  0.6199
  145SAPE  H18S15895   2.857   6.743  -2.202 -1.1058 -0.0337  0.5035
  145SAPE  C21915896   2.874   6.526  -2.175 -0.1517 -0.7813 -0.0457
  145SAPE  H19R15897   2.927   6.500  -2.270  0.3470 -0.1139  0.0442
  145SAPE  H19S15898   2.765   6.530  -2.192 -0.4049  0.2098  1.6704
  145SAPE  C22015899   2.909   6.417  -2.079 -0.8039 -0.2351  0.3801
  145SAPE  H20R15900   2.883   6.317  -2.119  1.6429  0.2884 -2.9808
  145SAPE  H20S15901   2.859   6.429  -1.980  0.7041  1.2777  1.0109
  145SAPE  H20T15902   3.013   6.415  -2.039 -1.4164  0.2529  2.0727
  145SAPE   C3315903   2.130   6.351  -0.702 -0.0471 -0.6816 -0.0666
  145SAPE   H3X15904   2.117   6.379  -0.595  1.6865  1.9879 -0.4432
  145SAPE   H3Y15905   2.025   6.321  -0.724 -0.7527  0.8975  0.9142
  145SAPE   C3415906   2.160   6.484  -0.769 -0.1238  0.4197  0.3235
  145SAPE   H4X15907   2.259   6.525  -0.739  0.5144 -0.8485  0.0082
  145SAPE   H4Y15908   2.084   6.561  -0.744 -0.2697 -0.0225  1.2769
  145SAPE   C3515909   2.180   6.470  -0.914  0.4735 -1.0375 -0.2828
  145SAPE   H5X15910   2.089   6.421  -0.954 -0.6485 -0.6362  1.6477
  145SAPE   H5Y15911   2.274   6.412  -0.928 -0.0218 -1.6468 -1.1484
  145SAPE   C3615912   2.194   6.606  -0.986  0.2907 -0.1498  0.1502
  145SAPE   H6X15913   2.289   6.656  -0.958  0.7653 -1.8838  1.8210
  145SAPE   H6Y15914   2.111   6.671  -0.950 -0.0121 -0.6907  0.4427
  145SAPE   C3715915   2.175   6.592  -1.136 -0.0240 -0.0095  0.3746
  145SAPE   H7X15916   2.165   6.696  -1.176  1.7666  0.6540  1.5292
  145SAPE   H7Y15917   2.079   6.540  -1.152  0.3171  0.1206 -2.9106
  145SAPE   C3815918   2.288   6.519  -1.214 -1.0111  0.7840 -0.3056
  145SAPE   H8X15919   2.300   6.420  -1.166 -0.2790  1.0278  0.0216
  145SAPE   H8Y15920   2.389   6.561  -1.196  0.3219 -2.5405  0.5521
  145SAPE   C3915921   2.263   6.510  -1.370 -0.0748 -0.4950  0.5509
  145SAPE   H9X15922   2.340   6.438  -1.407 -0.2754 -0.0571 -0.7521
  145SAPE   H9Y15923   2.280   6.610  -1.415  2.9387 -0.8879  0.5654
  145SAPE  C31015924   2.120   6.456  -1.407 -0.1268  0.2692 -0.5316
  145SAPE  H10X15925   2.044   6.527  -1.369  0.4846  0.8889 -0.4440
  145SAPE  H10Y15926   2.097   6.365  -1.348  2.8217 -0.7515 -0.7804
  145SAPE  C31115927   2.100   6.427  -1.555 -0.9211 -0.3543  0.3409
  145SAPE  H11X15928   2.166   6.349  -1.597  3.6856  2.6302  1.3571
  145SAPE  H11Y15929   2.137   6.516  -1.611 -0.7068 -0.0446  0.9558
  145SAPE  C31215930   1.954   6.402  -1.593 -0.7156 -0.2536 -0.3520
  145SAPE  H12X15931   1.897   6.497  -1.589 -2.3914 -1.2308 -0.1940
  145SAPE  H12Y15932   1.914   6.334  -1.515 -0.8971  1.1282  0.8086
  145SAPE  C31315933   1.914   6.352  -1.736 -0.3162  0.2626  0.3282
  145SAPE  H13X15934   1.967   6.256  -1.758  1.0302  0.8542  0.8945
  145SAPE  H13Y15935   1.953   6.426  -1.808  0.6047 -1.2989 -0.8540
  145SAPE  C31415936   1.769   6.321  -1.755 -0.2956  0.4252 -0.1914
  145SAPE  H14X15937   1.712   6.405  -1.711 -0.0564 -0.1997  1.3962
  145SAPE  H14Y15938   1.763   6.229  -1.692  3.0816  0.9164  1.0612
  145SAPE  C31515939   1.742   6.291  -1.900  0.1615 -0.2520 -0.6688
  145SAPE  H15X15940   1.805   6.209  -1.940  1.8632  0.3246  0.7093
  145SAPE  H15Y15941   1.761   6.381  -1.961  1.9941 -2.5118 -3.7053
  145SAPE  C31615942   1.592   6.247  -1.920 -0.4479 -0.7002 -0.6314
  145SAPE  H16X15943   1.523   6.312  -1.862  1.2758 -0.0607  0.8303
  145SAPE  H16Y15944   1.578   6.145  -1.879 -1.9538 -0.0352  0.6342
  145SAPE  C31715945   1.548   6.228  -2.062 -0.9005 -0.2636  0.2424
  145SAPE  H17X15946   1.439   6.212  -2.049 -0.8660  0.6871  2.0647
  145SAPE  H17Y15947   1.587   6.138  -2.115 -0.8432  0.6043 -1.2494
  145SAPE  C31815948   1.562   6.343  -2.161  0.0445 -0.0073 -0.4114
  145SAPE  H18X15949   1.660   6.395  -2.158  0.8576 -1.4922 -0.6671
  145SAPE  H18Y15950   1.487   6.422  -2.137 -1.2640 -1.1177 -0.7417
  145SAPE  H18Z15951   1.546   6.303  -2.263  0.3162 -1.5192  0.1249
  146SAPE     N15952   2.009   0.825   0.268 -0.0199  0.8095 -0.3516
  146SAPE   HN115953   2.084   0.788   0.330 -0.3518 -1.5741 -1.2573
  146SAPE   HN215954   1.924   0.847   0.323 -1.1734 -0.4383 -1.5534
  146SAPE   HN315955   1.992   0.742   0.207  0.8834 -0.6436  1.2873
  146SAPE   C1215956   2.075   0.944   0.199 -0.3087  0.0075  0.6588
  146SAPE  H12A15957   2.044   1.033   0.258 -1.2240  0.3930 -0.3677
  146SAPE  H12B15958   2.035   0.939   0.095 -1.3469 -1.7356  1.0962
  146SAPE   C1115959   2.228   0.942   0.200  0.4592  0.1537 -0.3405
  146SAPE  H11A15960   2.261   0.975   0.301  1.2995 -0.4680 -0.4076
  146SAPE  H11B15961   2.257   1.028   0.135  1.0386  2.2219  2.4821
  146SAPE     P15962   2.311   0.770   0.015 -0.1862 -0.1128 -0.2898
  146SAPE   O1315963   2.443   0.831  -0.014 -0.4863  0.3744  0.1494
  146SAPE   O1415964   2.311   0.621   0.013 -0.4744  0.1315 -0.5236
  146SAPE   O1215965   2.275   0.817   0.161 -0.3019  0.0572 -0.4067
  146SAPE   O1115966   2.200   0.828  -0.082  0.4366 -0.6706 -0.2629
  146SAPE    C115967   2.091   0.751  -0.125 -0.4529  0.6024 -0.2516
  146SAPE    HA15968   2.135   0.688  -0.206  0.1073 -0.3859  0.7956
  146SAPE    HB15969   2.053   0.696  -0.036  0.9691 -1.6849 -0.9656
  146SAPE    C215970   1.990   0.841  -0.200  0.4232 -0.5377  0.0209
  146SAPE    HS15971   1.948   0.910  -0.122  0.6907 -3.8354  3.3709
  146SAPE   O2115972   1.888   0.759  -0.262  0.9157 -0.0512  0.1411
  146SAPE   C2115973   1.785   0.725  -0.185  0.0957 -0.6344 -0.0468
  146SAPE   O2215974   1.782   0.729  -0.061  0.2709 -0.5412  0.0201
  146SAPE   C2215975   1.680   0.673  -0.284  0.9272  0.3437  0.2788
  146SAPE   H2R15976   1.694   0.715  -0.385  1.9976 -0.5424  0.0353
  146SAPE   H2S15977   1.679   0.562  -0.294 -0.4481  0.2972  0.7340
  146SAPE    C315978   2.050   0.935  -0.303 -0.3794  0.5198  0.0106
  146SAPE    HX15979   2.124   0.876  -0.362 -1.2484 -0.1548 -0.4164
  146SAPE    HY15980   2.105   1.016  -0.250 -0.3203 -0.1555  0.9870
  146SAPE   O3115981   1.953   0.994  -0.393 -0.2589  0.2140 -0.6230
  146SAPE   C3115982   1.913   1.115  -0.363  0.3792  0.1593  0.6346
  146SAPE   O3215983   1.918   1.167  -0.259 -0.1001 -0.2988 -0.2620
  146SAPE   C3215984   1.850   1.178  -0.490  0.2916  0.2251  0.1248
  146SAPE   H2X15985   1.810   1.274  -0.450  0.0049 -0.3024  1.1369
  146SAPE   H2Y15986   1.770   1.108  -0.523  0.7117 -0.3497  0.3126
  146SAPE   C2315987   1.542   0.733  -0.238  0.5531 -0.6082  1.0503
  146SAPE   H3R15988   1.527   0.708  -0.130 -0.8653 -0.6429  0.8635
  146SAPE   H3S15989   1.471   0.671  -0.296  1.3531 -1.0589  0.5381
  146SAPE   C2415990   1.516   0.879  -0.264  0.0801  0.4397  0.1264
  146SAPE   H4R15991   1.556   0.897  -0.366  0.2591  0.2530  0.1636
  146SAPE   H4S15992   1.584   0.935  -0.197  2.1261 -0.3764 -1.1493
  146SAPE   C2515993   1.377   0.926  -0.258  0.1375  0.1783  0.2957
  146SAPE   H5R15994   1.322   0.898  -0.167  1.2961  1.9002  1.6086
  146SAPE   C2615995   1.310   0.993  -0.352  0.8589 -0.2984  0.3090
  146SAPE   H6R15996   1.204   1.013  -0.330  0.4072  0.4113 -2.2600
  146SAPE   C2715997   1.364   1.038  -0.487  0.1118 -0.0805 -0.5716
  146SAPE   H7R15998   1.277   1.034  -0.556 -1.4824 -2.4022  1.4084
  146SAPE   H7S15999   1.439   0.964  -0.522  0.1004 -1.8479  2.7422
  146SAPE   C2816000   1.439   1.169  -0.478 -0.1061 -0.3210 -0.3222
  146SAPE   H8R16001   1.458   1.213  -0.379 -0.7395  0.1816 -0.4116
  146SAPE   C2916002   1.471   1.245  -0.581 -0.0411  1.0014 -0.7957
  146SAPE   H9R16003   1.521   1.341  -0.560 -0.0025  0.6844  0.6474
  146SAPE  C21016004   1.430   1.208  -0.723  0.2191  0.7225  0.3625
  146SAPE  H10R16005   1.330   1.163  -0.734 -0.2086  2.0469 -1.8104
  146SAPE  H10S16006   1.500   1.136  -0.771 -0.2911  0.9553 -0.7623
  146SAPE  C21116007   1.430   1.326  -0.817 -0.5379  0.5258  1.0188
  146SAPE  H11R16008   1.369   1.411  -0.784  1.4606  2.2168  0.6150
  146SAPE  C21216009   1.473   1.337  -0.944 -0.3923  0.3735  0.1737
  146SAPE  H12R16010   1.477   1.434  -0.996 -1.7993  0.6955  0.6351
  146SAPE  C21316011   1.547   1.230  -1.011 -0.6014  0.4023  0.3963
  146SAPE  H13R16012   1.488   1.140  -1.036  2.4015 -1.0586 -2.3470
  146SAPE  H13S16013   1.630   1.195  -0.946 -1.5672 -3.3461 -0.2043
  146SAPE  C21416014   1.592   1.268  -1.153 -0.4777  0.3131  0.5996
  146SAPE  H14R16015   1.690   1.318  -1.158  1.0001 -2.4432  0.0832
  146SAPE  C21516016   1.522   1.246  -1.266 -0.0729  0.1206  0.2247
  146SAPE  H15R16017   1.564   1.270  -1.365 -2.2181 -2.2450 -1.3859
  146SAPE  C21616018   1.390   1.179  -1.285 -0.6595  0.2493  0.3929
  146SAPE  H16R16019   1.328   1.260  -1.328  0.7400 -0.8514 -4.3003
  146SAPE  H16S16020   1.335   1.153  -1.192 -1.3931  2.2591  0.5624
  146SAPE  C21716021   1.410   1.059  -1.381 -0.9168  0.6293  0.5693
  146SAPE  H17R16022   1.361   0.966  -1.346  1.3789 -1.3134 -1.0311
  146SAPE  H17S16023   1.512   1.018  -1.395 -0.6476  2.0601 -2.6463
  146SAPE  C21816024   1.357   1.082  -1.525 -0.2790  0.7016 -1.4228
  146SAPE  H18R16025   1.370   0.995  -1.593  1.7801  1.3712 -1.9552
  146SAPE  H18S16026   1.420   1.167  -1.559  1.5702  0.4089  0.9991
  146SAPE  C21916027   1.205   1.120  -1.527  0.3504  0.1868 -0.1520
  146SAPE  H19R16028   1.189   1.209  -1.464  0.5686 -0.0136  0.1909
  146SAPE  H19S16029   1.148   1.041  -1.472  0.3465  1.0170  1.0773
  146SAPE  C22016030   1.151   1.132  -1.671 -0.6002 -0.4752 -0.0045
  146SAPE  H20R16031   1.176   1.052  -1.743  0.7155  0.0683 -0.1788
  146SAPE  H20S16032   1.197   1.224  -1.712  0.2717 -0.6641  0.5156
  146SAPE  H20T16033   1.042   1.149  -1.681 -0.5529  0.9329  1.4499
  146SAPE   C3316034   1.944   1.193  -0.619  0.3596 -0.5957  0.0464
  146SAPE   H3X16035   1.953   1.096  -0.672  0.7757 -0.6478  0.2061
  146SAPE   H3Y16036   2.043   1.216  -0.574  0.0610  1.3355 -0.1974
  146SAPE   C3416037   1.907   1.306  -0.712 -0.2517  0.1825 -0.5784
  146SAPE   H4X16038   1.900   1.400  -0.653  0.0111  0.4759 -1.0143
  146SAPE   H4Y16039   1.806   1.299  -0.758 -1.1566 -0.4904  1.3783
  146SAPE   C3516040   2.013   1.324  -0.826  0.3765  0.0561 -0.2471
  146SAPE   H5X16041   2.115   1.290  -0.800  0.6190  0.3624 -0.7797
  146SAPE   H5Y16042   2.015   1.431  -0.853  0.6424  0.1368  0.0912
  146SAPE   C3616043   1.965   1.261  -0.956  0.4522  0.9629  0.3096
  146SAPE   H6X16044   1.863   1.294  -0.982 -0.7707 -1.8375  1.1082
  146SAPE   H6Y16045   1.943   1.154  -0.933  3.1840  0.3463  0.4340
  146SAPE   C3716046   2.058   1.266  -1.078 -0.4235  0.1631  0.1239
  146SAPE   H7X16047   2.157   1.222  -1.053 -1.8667 -3.3611  0.2478
  146SAPE   H7Y16048   2.070   1.375  -1.096 -1.3747  1.0289  3.8194
  146SAPE   C3816049   1.999   1.180  -1.194  0.7592  0.7895 -0.3105
  146SAPE   H8X16050   1.902   1.220  -1.232  0.4857 -0.7022 -1.2425
  146SAPE   H8Y16051   1.990   1.073  -1.168  2.0933  0.5750 -0.6562
  146SAPE   C3916052   2.090   1.171  -1.318  0.0280  0.3018  0.6030
  146SAPE   H9X16053   2.186   1.127  -1.283 -1.2281 -2.4435  0.8847
  146SAPE   H9Y16054   2.100   1.278  -1.348  0.4737  0.1156  0.0535
  146SAPE  C31016055   2.042   1.089  -1.445 -0.1833  0.0403  0.3184
  146SAPE  H10X16056   2.014   0.991  -1.402 -0.4609 -0.6514 -1.3650
  146SAPE  H10Y16057   2.129   1.091  -1.514 -0.0190  1.3101  0.5400
  146SAPE  C31116058   1.919   1.148  -1.505  0.0092  0.0827  0.3924
  146SAPE  H11X16059   1.929   1.258  -1.520 -0.9018  0.0559 -0.6428
  146SAPE  H11Y16060   1.846   1.123  -1.425 -0.0712 -0.9290  0.0237
  146SAPE  C31216061   1.872   1.075  -1.625  0.3173  0.6334  0.0406
  146SAPE  H12X16062   1.866   0.964  -1.616 -1.0510  0.8404  2.6761
  146SAPE  H12Y16063   1.949   1.094  -1.703  0.0624  2.6171  0.2274
  146SAPE  C31316064   1.733   1.130  -1.669  0.0508  0.0359  0.1464
  146SAPE  H13X16065   1.753   1.236  -1.692 -1.0069  0.2814  0.2882
  146SAPE  H13Y16066   1.660   1.130  -1.584 -0.1451  1.1941 -0.0107
  146SAPE  C31416067   1.667   1.065  -1.791  0.2918  0.4739 -0.0009
  146SAPE  H14X16068   1.734   1.085  -1.877 -1.2608 -0.2864 -1.4425
  146SAPE  H14Y16069   1.567   1.113  -1.800 -0.2067 -0.2881  1.1911
  146SAPE  C31516070   1.641   0.917  -1.761 -0.0889 -0.0141  0.2855
  146SAPE  H15X16071   1.574   0.914  -1.673 -0.9932  0.1745 -0.3792
  146SAPE  H15Y16072   1.742   0.872  -1.748  0.0641  0.0335 -0.6842
  146SAPE  C31616073   1.590   0.823  -1.882 -0.1645  0.1161  0.3735
  146SAPE  H16X16074   1.498   0.874  -1.919  1.1817  1.1512 -1.7225
  146SAPE  H16Y16075   1.569   0.723  -1.839  1.2316  0.1118  1.0977
  146SAPE  C31716076   1.691   0.789  -1.993  0.1673 -1.0601  0.0358
  146SAPE  H17X16077   1.789   0.751  -1.957 -0.6492 -1.6997  1.6667
  146SAPE  H17Y16078   1.718   0.877  -2.056  3.1349 -3.0731 -1.7346
  146SAPE  C31816079   1.642   0.676  -2.082 -0.0632 -0.2442  0.8190
  146SAPE  H18X16080   1.534   0.694  -2.104 -0.1641 -2.5691 -1.0322
  146SAPE  H18Y16081   1.653   0.575  -2.037 -2.5114 -0.3336  1.3725
  146SAPE  H18Z16082   1.697   0.673  -2.179 -1.5195 -0.1100 -0.0400
  147SAPE     N16083   1.727   4.210   0.437  0.0840 -0.2240  0.3124
  147SAPE   HN116084   1.758   4.169   0.528  0.1405  1.2119  0.9601
  147SAPE   HN216085   1.801   4.281   0.421  0.6910 -0.7885  0.5407
  147SAPE   HN316086   1.634   4.254   0.453  0.4231  0.8697 -0.6744
  147SAPE   C1216087   1.721   4.105   0.325 -0.4176 -0.1530  0.6584
  147SAPE  H12A16088   1.689   4.159   0.233  3.4924  1.1713 -0.1055
  147SAPE  H12B16089   1.645   4.027   0.350 -1.9442  0.1037 -2.5778
  147SAPE   C1116090   1.846   4.031   0.297 -0.1614  0.0902  0.0861
  147SAPE  H11A16091   1.833   3.973   0.204  0.7370  0.6407 -0.3952
  147SAPE  H11B16092   1.874   3.968   0.385  0.1358 -0.1619 -0.1841
  147SAPE     P16093   2.076   4.099   0.201 -0.6218  0.1668 -0.0721
  147SAPE   O1316094   2.143   4.225   0.166 -0.1063 -0.0230 -0.3857
  147SAPE   O1416095   2.156   4.012   0.293  0.4229 -0.3332  0.0385
  147SAPE   O1216096   1.936   4.137   0.272  0.2382  0.2556  0.1069
  147SAPE   O1116097   2.048   4.017   0.067 -0.2867  0.0313  0.6661
  147SAPE    C116098   1.951   4.053  -0.029 -0.3141  0.1868  0.5244
  147SAPE    HA16099   1.879   3.972  -0.051  0.3171  0.4622 -3.2669
  147SAPE    HB16100   1.899   4.148  -0.006 -0.6291  0.4033 -1.0238
  147SAPE    C216101   2.018   4.078  -0.167  0.2618 -0.3303  0.2850
  147SAPE    HS16102   2.073   3.985  -0.194  2.0311  0.7967 -0.2039
  147SAPE   O2116103   2.110   4.191  -0.155  0.4022 -0.0869 -0.5739
  147SAPE   C2116104   2.228   4.178  -0.139 -0.1381 -0.0929  1.1943
  147SAPE   O2216105   2.296   4.073  -0.140  0.2811 -0.5678 -0.0108
  147SAPE   C2216106   2.296   4.316  -0.157 -0.5804 -0.1255 -0.6074
  147SAPE   H2R16107   2.352   4.315  -0.253 -0.2192 -0.4094 -0.3961
  147SAPE   H2S16108   2.223   4.399  -0.168  0.8525  1.8011  2.8936
  147SAPE    C316109   1.910   4.111  -0.282  0.6583  0.5870 -0.8482
  147SAPE    HX16110   1.878   4.216  -0.264  2.2152  0.7513  1.3408
  147SAPE    HY16111   1.835   4.032  -0.263 -0.2752  1.5646 -0.3403
  147SAPE   O3116112   1.972   4.096  -0.418  1.0130 -0.1076 -0.2189
  147SAPE   C3116113   1.960   3.979  -0.473  0.0064  0.0458 -0.0444
  147SAPE   O3216114   1.934   3.872  -0.417  0.4834  0.2672 -0.0460
  147SAPE   C3216115   1.984   4.001  -0.626 -0.2990  0.6745 -0.9375
  147SAPE   H2X16116   2.065   4.075  -0.641 -0.7551  1.3896  0.0085
  147SAPE   H2Y16117   1.892   4.050  -0.666 -1.5040  0.4521  1.3756
  147SAPE   C2316118   2.393   4.375  -0.049 -0.1771 -0.4283 -0.1208
  147SAPE   H3R16119   2.475   4.304  -0.024  0.4582  0.7594  1.3347
  147SAPE   H3S16120   2.335   4.395   0.043 -0.9774 -0.9036 -0.5169
  147SAPE   C2416121   2.465   4.508  -0.091  0.1584  0.0921  0.0567
  147SAPE   H4R16122   2.536   4.495  -0.175 -0.2725  0.7427 -0.4115
  147SAPE   H4S16123   2.511   4.549   0.001 -0.5237  0.7168  0.1360
  147SAPE   C2516124   2.356   4.604  -0.136  0.3544  0.2791  0.3549
  147SAPE   H5R16125   2.272   4.632  -0.071 -2.3156  1.9311 -3.4323
  147SAPE   C2616126   2.336   4.651  -0.261  0.4413 -0.2061  0.0240
  147SAPE   H6R16127   2.250   4.718  -0.276  1.1758  1.0986  1.3519
  147SAPE   C2716128   2.410   4.636  -0.386 -0.4950 -0.0498  0.1311
  147SAPE   H7R16129   2.490   4.560  -0.376  1.9170  2.4525  1.3760
  147SAPE   H7S16130   2.468   4.729  -0.401 -1.2172  0.3365 -0.3301
  147SAPE   C2816131   2.326   4.605  -0.507  0.0386  0.0153 -0.9525
  147SAPE   H8R16132   2.256   4.521  -0.498 -0.0128  0.1173 -0.3300
  147SAPE   C2916133   2.353   4.649  -0.634 -0.4244  0.5647 -0.3900
  147SAPE   H9R16134   2.292   4.619  -0.721 -1.4997 -0.2898  0.6177
  147SAPE  C21016135   2.453   4.762  -0.655  0.4231  0.2625 -0.3329
  147SAPE  H10R16136   2.552   4.727  -0.619  0.1214 -1.3729 -1.0130
  147SAPE  H10S16137   2.424   4.840  -0.581  0.6186 -0.3494  0.3958
  147SAPE  C21116138   2.469   4.790  -0.801  0.2391  0.4977 -0.1115
  147SAPE  H11R16139   2.426   4.718  -0.872  1.5266  0.5935 -1.0386
  147SAPE  C21216140   2.556   4.884  -0.849 -1.1476  0.4997 -0.0308
  147SAPE  H12R16141   2.586   4.884  -0.955 -1.7747 -0.8569 -0.2242
  147SAPE  C21316142   2.635   4.984  -0.771  0.0017  0.8379  0.4849
  147SAPE  H13R16143   2.617   4.975  -0.662  1.0923  0.5757  0.6547
  147SAPE  H13S16144   2.605   5.088  -0.797 -0.3910  0.8412  0.9416
  147SAPE  C21416145   2.781   4.960  -0.800  0.8268  0.6883 -0.4020
  147SAPE  H14R16146   2.835   4.901  -0.725 -0.0993  0.7743  0.3514
  147SAPE  C21516147   2.847   5.011  -0.905 -0.6306  0.0309 -0.0887
  147SAPE  H15R16148   2.952   4.978  -0.906 -0.2048  1.3645 -0.4780
  147SAPE  C21616149   2.799   5.087  -1.025 -0.2619  0.1470 -0.9988
  147SAPE  H16R16150   2.808   5.197  -1.015 -0.4503  0.0686  0.1579
  147SAPE  H16S16151   2.691   5.068  -1.039 -0.7547  2.5098 -0.7269
  147SAPE  C21716152   2.882   5.053  -1.147  0.0283  0.8980 -0.2758
  147SAPE  H17R16153   2.881   4.948  -1.184 -1.7337  0.4159  0.9958
  147SAPE  H17S16154   2.984   5.086  -1.119 -0.5245  3.2271 -0.8319
  147SAPE  C21816155   2.836   5.138  -1.271  0.2902  0.1862 -0.1435
  147SAPE  H18R16156   2.786   5.233  -1.243  0.9928 -0.0667  2.2492
  147SAPE  H18S16157   2.766   5.074  -1.330  1.8724 -1.1951 -0.5954
  147SAPE  C21916158   2.938   5.166  -1.372 -0.3135 -0.2840  0.3446
  147SAPE  H19R16159   3.004   5.241  -1.323 -0.2103  0.0231 -0.2586
  147SAPE  H19S16160   2.891   5.218  -1.458 -0.9654  0.9297  1.3915
  147SAPE  C22016161   3.032   5.054  -1.410 -0.3296  0.1727  0.1149
  147SAPE  H20R16162   3.088   5.015  -1.322  1.0691  1.0555 -0.3617
  147SAPE  H20S16163   3.106   5.078  -1.488  0.2441 -0.1094  0.5663
  147SAPE  H20T16164   2.975   4.966  -1.446  0.1533 -0.2210  0.2999
  147SAPE   C3316165   2.024   3.873  -0.705  0.4092  0.6959  0.3344
  147SAPE   H3X16166   1.940   3.802  -0.718  0.7755  0.0188  1.5261
  147SAPE   H3Y16167   2.097   3.815  -0.645 -1.2189  0.8562  2.6092
  147SAPE   C3416168   2.086   3.908  -0.843  0.2723  0.6595  0.4828
  147SAPE   H4X16169   2.101   3.812  -0.896 -0.9845  1.2879 -1.0838
  147SAPE   H4Y16170   2.186   3.957  -0.845 -0.3623  2.1165 -3.1920
  147SAPE   C3516171   1.991   3.979  -0.938  0.3582  0.5367 -0.4452
  147SAPE   H5X16172   1.958   4.070  -0.883 -0.5473 -0.7816  1.3104
  147SAPE   H5Y16173   1.900   3.917  -0.951  0.5585  0.3484 -0.9642
  147SAPE   C3616174   2.051   4.009  -1.074  0.3234  0.2497 -0.3530
  147SAPE   H6X16175   2.161   4.001  -1.062  0.3251 -1.5573 -1.2303
  147SAPE   H6Y16176   2.018   4.112  -1.103 -0.8344  0.2618  0.9105
  147SAPE   C3716177   2.016   3.914  -1.184 -0.3389 -0.6310 -0.7583
  147SAPE   H7X16178   1.907   3.910  -1.203 -0.5639 -4.1194  0.4429
  147SAPE   H7Y16179   2.041   3.809  -1.154 -1.0504 -0.8472 -0.9147
  147SAPE   C3816180   2.091   3.942  -1.312 -0.4096 -0.1145  0.1664
  147SAPE   H8X16181   2.200   3.940  -1.288 -0.6510  1.2765  1.6021
  147SAPE   H8Y16182   2.065   4.043  -1.352 -0.3714  1.1951  3.1871
  147SAPE   C3916183   2.059   3.846  -1.424  0.3742 -0.0350  0.2453
  147SAPE   H9X16184   1.950   3.844  -1.447  0.2309  3.5066 -0.0327
  147SAPE   H9Y16185   2.094   3.745  -1.395  0.0535 -0.8484 -1.9491
  147SAPE  C31016186   2.121   3.892  -1.562 -0.1837  0.3394 -0.0615
  147SAPE  H10X16187   2.231   3.895  -1.546 -0.3018  3.0449  0.7692
  147SAPE  H10Y16188   2.102   4.000  -1.581 -0.8679  0.2296 -0.0107
  147SAPE  C31116189   2.084   3.804  -1.673 -0.3126  0.0724  0.2538
  147SAPE  H11X16190   1.974   3.800  -1.663 -0.3737  0.0915 -0.3880
  147SAPE  H11Y16191   2.113   3.704  -1.633 -0.7002  0.6003  1.9629
  147SAPE  C31216192   2.132   3.845  -1.814 -0.3377  0.4371 -0.0170
  147SAPE  H12X16193   2.084   3.943  -1.835  1.4809  1.9821  2.4273
  147SAPE  H12Y16194   2.081   3.777  -1.886 -0.8459  2.1543 -1.3466
  147SAPE  C31316195   2.285   3.832  -1.832  0.4690 -0.0495 -0.8601
  147SAPE  H13X16196   2.324   3.738  -1.788 -1.1854 -1.0833 -1.5127
  147SAPE  H13Y16197   2.339   3.917  -1.786  2.1333 -0.8757 -1.2130
  147SAPE  C31416198   2.321   3.843  -1.975  0.3427 -0.3371  0.1159
  147SAPE  H14X16199   2.282   3.750  -2.020 -0.3887  0.1187 -0.2132
  147SAPE  H14Y16200   2.430   3.849  -1.994  0.2945 -1.2683 -0.5033
  147SAPE  C31516201   2.259   3.972  -2.043  0.8214 -0.9439  0.6399
  147SAPE  H15X16202   2.296   4.069  -2.007  0.7104 -0.1264 -1.3102
  147SAPE  H15Y16203   2.149   3.972  -2.029  0.6379  0.3449 -0.6010
  147SAPE  C31616204   2.281   3.970  -2.194 -0.0692 -0.5489  0.3415
  147SAPE  H16X16205   2.266   3.867  -2.231 -0.6408 -0.1054 -0.6983
  147SAPE  H16Y16206   2.388   3.998  -2.208 -0.7434  1.2302 -1.7489
  147SAPE  C31716207   2.197   4.073  -2.273  0.0151 -0.0644 -0.2058
  147SAPE  H17X16208   2.241   4.080  -2.375  1.0043  2.6750  0.3385
  147SAPE  H17Y16209   2.206   4.175  -2.230 -0.3290  0.5022 -1.4065
  147SAPE  C31816210   2.048   4.038  -2.270  0.2748  0.1915  0.3010
  147SAPE  H18X16211   1.983   4.097  -2.338 -0.9758 -1.9676 -0.4864
  147SAPE  H18Y16212   2.003   4.028  -2.169 -0.2377 -3.0970 -0.1528
  147SAPE  H18Z16213   2.030   3.935  -2.308 -0.7946  0.9359 -1.3067
  148SAPE     N16214   5.586   3.572   0.572  0.1397 -0.4504 -0.0457
  148SAPE   HN116215   5.646   3.646   0.615 -0.4541  2.6446 -3.9609
  148SAPE   HN216216   5.504   3.554   0.633 -0.8288  3.8095  0.2621
  148SAPE   HN316217   5.645   3.487   0.561 -0.4429 -1.0586  1.2580
  148SAPE   C1216218   5.548   3.634   0.440 -0.0635  0.5779  0.2219
  148SAPE  H12A16219   5.500   3.727   0.479 -1.6724 -0.3698  0.5914
  148SAPE  H12B16220   5.471   3.572   0.389  0.3024  0.5613 -0.3290
  148SAPE   C1116221   5.676   3.658   0.364  0.4341 -0.1831 -0.2995
  148SAPE  H11A16222   5.657   3.703   0.264  0.5662  2.5629  0.8375
  148SAPE  H11B16223   5.714   3.556   0.340 -0.2315 -0.7005  0.7999
  148SAPE     P16224   5.772   3.896   0.425 -0.0159  0.0842 -0.2477
  148SAPE   O1316225   5.653   3.957   0.472  0.6663  0.0838 -1.3434
  148SAPE   O1416226   5.894   3.939   0.491  0.4921  0.5845  0.4916
  148SAPE   O1216227   5.766   3.737   0.444 -1.0713 -0.7313  0.4882
  148SAPE   O1116228   5.788   3.912   0.276  0.5640  0.3380  0.2943
  148SAPE    C116229   5.712   4.024   0.209  0.0054  0.1165 -0.4314
  148SAPE    HA16230   5.718   4.119   0.266  1.8266  1.0319 -2.0004
  148SAPE    HB16231   5.772   4.056   0.121 -1.2241  0.7471 -1.0479
  148SAPE    C216232   5.564   3.999   0.174  0.0206  0.3137 -0.0242
  148SAPE    HS16233   5.502   3.996   0.267 -0.1524  2.2732 -0.0289
  148SAPE   O2116234   5.551   3.877   0.106 -0.5488 -0.0036  0.7086
  148SAPE   C2116235   5.419   3.840   0.106  0.6355 -0.5080  0.0516
  148SAPE   O2216236   5.332   3.901   0.170 -0.4104  0.1549  0.2160
  148SAPE   C2216237   5.406   3.718   0.028  0.6899 -0.5246 -0.2848
  148SAPE   H2R16238   5.500   3.702  -0.029  1.6027 -1.4527  1.3956
  148SAPE   H2S16239   5.397   3.630   0.095  1.4161  1.0185  1.9573
  148SAPE    C316240   5.519   4.119   0.089  0.7007  0.2012 -0.1912
  148SAPE    HX16241   5.514   4.213   0.149  2.0092 -0.7453  1.4933
  148SAPE    HY16242   5.412   4.111   0.061  0.3485  0.7386  0.9598
  148SAPE   O3116243   5.602   4.142  -0.023 -0.1335 -0.4936  0.1816
  148SAPE   C3116244   5.552   4.105  -0.140  0.4062  0.2370 -1.5742
  148SAPE   O3216245   5.446   4.049  -0.161 -0.2453  0.2878  0.0614
  148SAPE   C3216246   5.650   4.144  -0.248  0.8691 -0.2676 -0.6735
  148SAPE   H2X16247   5.724   4.061  -0.243  2.3309  1.0062 -0.0218
  148SAPE   H2Y16248   5.710   4.235  -0.225  0.2718  0.8103 -3.0706
  148SAPE   C2316249   5.283   3.704  -0.070  0.2201 -0.0055  0.0855
  148SAPE   H3R16250   5.291   3.785  -0.146 -1.0998  1.4776  1.4570
  148SAPE   H3S16251   5.185   3.720  -0.020 -0.6948 -0.9553 -1.3089
  148SAPE   C2416252   5.291   3.572  -0.151 -0.2986  0.0167  0.2640
  148SAPE   H4R16253   5.327   3.489  -0.085  2.9806 -0.3236 -1.7419
  148SAPE   H4S16254   5.376   3.577  -0.221  0.1906 -0.0118  0.8445
  148SAPE   C2516255   5.156   3.544  -0.213 -0.4046 -0.0620 -0.1397
  148SAPE   H5R16256   5.073   3.542  -0.140 -0.8465 -1.1910 -0.6553
  148SAPE   C2616257   5.120   3.515  -0.342 -0.1884  0.2967  0.4040
  148SAPE   H6R16258   5.016   3.491  -0.368 -0.1138  1.8592 -1.5689
  148SAPE   C2716259   5.215   3.509  -0.462 -0.3730 -0.2677 -0.0900
  148SAPE   H7R16260   5.202   3.419  -0.526 -0.5066 -1.7558  1.9359
  148SAPE   H7S16261   5.314   3.498  -0.414 -0.9747 -0.9372  1.0549
  148SAPE   C2816262   5.217   3.628  -0.555 -0.3670 -0.2014  0.4226
  148SAPE   H8R16263   5.299   3.701  -0.551  0.7932 -1.1675 -2.5106
  148SAPE   C2916264   5.128   3.653  -0.656  0.0147 -0.2431  0.2660
  148SAPE   H9R16265   5.158   3.739  -0.719 -0.3153 -1.6757 -1.9817
  148SAPE  C21016266   5.020   3.562  -0.701  0.0543 -0.2602 -0.0853
  148SAPE  H10R16267   4.928   3.559  -0.638 -0.8818 -1.5539 -1.4515
  148SAPE  H10S16268   5.057   3.459  -0.686  1.1567  0.3195  1.4223
  148SAPE  C21116269   4.978   3.590  -0.845  0.0730  0.0890  0.3530
  148SAPE  H11R16270   4.910   3.673  -0.867  1.4569  0.9986 -0.6107
  148SAPE  C21216271   5.020   3.521  -0.951 -0.8736 -0.0228 -0.0640
  148SAPE  H12R16272   4.979   3.536  -1.052 -0.1598 -1.2589 -0.5691
  148SAPE  C21316273   5.115   3.405  -0.950 -0.5255  0.3857 -1.4565
  148SAPE  H13R16274   5.068   3.309  -0.983 -0.1906  0.4503 -2.1232
  148SAPE  H13S16275   5.148   3.396  -0.844 -1.7656 -0.3077 -1.1107
  148SAPE  C21416276   5.239   3.441  -1.027  0.1404 -0.7125 -0.3840
  148SAPE  H14R16277   5.295   3.517  -0.970 -1.9973  1.0470 -0.5201
  148SAPE  C21516278   5.267   3.408  -1.155  0.4990 -1.2391 -0.2534
  148SAPE  H15R16279   5.340   3.470  -1.209  0.1542 -0.6926 -0.0962
  148SAPE  C21616280   5.190   3.316  -1.239 -0.5054  0.2109  0.1758
  148SAPE  H16R16281   5.081   3.331  -1.223 -0.6839 -1.8797  1.2652
  148SAPE  H16S16282   5.205   3.210  -1.209 -3.0040  0.2099  1.6866
  148SAPE  C21716283   5.204   3.331  -1.392  0.1229  0.6533  0.5959
  148SAPE  H17R16284   5.138   3.255  -1.436  0.3108  1.9202 -2.0527
  148SAPE  H17S16285   5.308   3.310  -1.425 -0.3530  0.8062 -1.0405
  148SAPE  C21816286   5.158   3.465  -1.458  0.7113 -0.7869  0.3489
  148SAPE  H18R16287   5.243   3.537  -1.451  1.1406 -1.1101 -1.2496
  148SAPE  H18S16288   5.065   3.499  -1.408  1.1079 -1.8150  1.8456
  148SAPE  C21916289   5.137   3.448  -1.609  0.5622  0.2917 -0.5902
  148SAPE  H19R16290   5.044   3.390  -1.623  0.3666 -0.0693  1.7381
  148SAPE  H19S16291   5.232   3.401  -1.643  0.5125 -0.1614 -0.1149
  148SAPE  C22016292   5.111   3.571  -1.690  0.4868  0.0133  0.3733
  148SAPE  H20R16293   5.093   3.553  -1.799  1.1001  1.8413 -0.0604
  148SAPE  H20S16294   5.203   3.634  -1.693  1.0565 -0.8180 -1.3477
  148SAPE  H20T16295   5.022   3.624  -1.650 -1.0675 -2.8184  0.8848
  148SAPE   C3316296   5.592   4.157  -0.389 -0.9274 -0.1521  0.4395
  148SAPE   H3X16297   5.505   4.224  -0.376 -0.6376  0.2653  0.2464
  148SAPE   H3Y16298   5.559   4.060  -0.432  0.0618  0.5882 -2.1408
  148SAPE   C3416299   5.689   4.224  -0.491  0.2424 -0.3834 -0.7193
  148SAPE   H4X16300   5.680   4.335  -0.492  0.2426 -0.3552  0.6278
  148SAPE   H4Y16301   5.655   4.195  -0.593  0.3595 -0.6722 -0.6775
  148SAPE   C3516302   5.834   4.177  -0.479  0.7718  0.1596 -0.5161
  148SAPE   H5X16303   5.834   4.071  -0.447 -1.0552  0.0717 -0.7002
  148SAPE   H5Y16304   5.871   4.237  -0.394 -2.4538  1.6511  0.0012
  148SAPE   C3616305   5.922   4.205  -0.598  0.1446  0.0733  0.2289
  148SAPE   H6X16306   6.025   4.173  -0.574  0.3070  0.1324 -0.3842
  148SAPE   H6Y16307   5.912   4.310  -0.633 -2.2333  0.2984  1.4098
  148SAPE   C3716308   5.878   4.122  -0.715  0.1764 -0.9557 -0.1077
  148SAPE   H7X16309   5.780   4.150  -0.758  0.3551 -1.5220 -0.9107
  148SAPE   H7Y16310   5.861   4.023  -0.666 -0.7695 -0.3235  0.9169
  148SAPE   C3816311   5.988   4.114  -0.828  0.4523 -0.0631 -0.1487
  148SAPE   H8X16312   6.075   4.061  -0.783 -0.9505 -2.6701 -0.2631
  148SAPE   H8Y16313   6.017   4.213  -0.869 -0.4545 -1.0680 -3.5073
  148SAPE   C3916314   5.934   4.024  -0.940 -0.5394  0.1858 -0.7484
  148SAPE   H9X16315   5.879   3.944  -0.886 -1.5867 -0.4776 -2.7159
  148SAPE   H9Y16316   6.025   3.976  -0.983 -0.2074 -0.0731  0.2071
  148SAPE  C31016317   5.860   4.097  -1.051  0.5241 -0.0109  0.6113
  148SAPE  H10X16318   5.778   4.161  -1.010 -1.1841 -0.3038 -2.0877
  148SAPE  H10Y16319   5.810   4.023  -1.116  0.2099 -0.1508  1.0031
  148SAPE  C31116320   5.965   4.177  -1.133  0.3812 -0.3839  0.1705
  148SAPE  H11X16321   6.048   4.119  -1.178  0.7887 -1.1059  1.7647
  148SAPE  H11Y16322   6.001   4.252  -1.059 -0.2546  0.2611 -0.1623
  148SAPE  C31216323   5.902   4.259  -1.251 -0.0630 -0.3361 -0.3369
  148SAPE  H12X16324   5.976   4.333  -1.288 -1.1283  0.5474 -0.7699
  148SAPE  H12Y16325   5.804   4.301  -1.217 -0.6756 -0.4163 -1.9445
  148SAPE  C31316326   5.878   4.164  -1.373 -0.0150  0.0704  0.2258
  148SAPE  H13X16327   5.823   4.071  -1.347  1.0167 -0.7454 -0.4298
  148SAPE  H13Y16328   5.980   4.137  -1.406 -1.2371 -2.0735 -2.0939
  148SAPE  C31416329   5.809   4.247  -1.479  0.5044 -0.2284  1.1992
  148SAPE  H14X16330   5.879   4.331  -1.501 -1.1691  0.9830  0.2903
  148SAPE  H14Y16331   5.719   4.300  -1.441 -1.6184 -0.6260 -2.7531
  148SAPE  C31516332   5.765   4.167  -1.603  0.5446  0.1481 -0.5180
  148SAPE  H15X16333   5.681   4.101  -1.573 -0.5265  2.4597  1.9308
  148SAPE  H15Y16334   5.852   4.107  -1.639  0.4865  0.6643 -1.5396
  148SAPE  C31616335   5.710   4.259  -1.711 -1.2418 -0.2188  0.3146
  148SAPE  H16X16336   5.793   4.326  -1.743 -2.2817  1.1596  0.4452
  148SAPE  H16Y16337   5.628   4.325  -1.676 -1.2502  0.2102 -0.4892
  148SAPE  C31716338   5.657   4.176  -1.827  0.5887 -0.3739 -0.5830
  148SAPE  H17X16339   5.593   4.095  -1.787 -0.3400  0.6902  0.1423
  148SAPE  H17Y16340   5.740   4.136  -1.888  0.6970 -0.0983 -0.6190
  148SAPE  C31816341   5.572   4.252  -1.930  0.0391 -0.1365  0.0960
  148SAPE  H18X16342   5.570   4.202  -2.030 -0.6463 -1.2071  0.6293
  148SAPE  H18Y16343   5.613   4.353  -1.950 -1.2184  1.0931  3.2443
  148SAPE  H18Z16344   5.470   4.264  -1.888  0.4709 -0.1893  1.1718
  149SAPE     N16345   4.356   3.861   8.388  0.0143 -0.3018 -0.7528
  149SAPE   HN116346   4.433   3.790   8.380 -0.8880 -1.4631  0.4426
  149SAPE   HN216347   4.302   3.832   8.472  3.2056 -2.1052  0.8700
  149SAPE   HN316348   4.294   3.854   8.305 -0.7146  1.1931 -0.3563
  149SAPE   C1216349   4.390   4.004   8.433  0.6655 -0.1336 -0.7350
  149SAPE  H12A16350   4.293   4.056   8.449  1.6046  1.0933  1.4595
  149SAPE  H12B16351   4.456   4.047   8.355  0.0344 -0.1206 -1.2695
  149SAPE   C1116352   4.470   4.013   8.568  0.2021 -0.1720  0.0107
  149SAPE  H11A16353   4.569   3.964   8.555  0.5034  0.2389  0.7001
  149SAPE  H11B16354   4.416   3.949   8.641  0.7750 -1.2001 -0.4353
  149SAPE     P16355   4.385   4.229   8.688  0.1001 -0.0941 -0.4421
  149SAPE   O1316356   4.250   4.169   8.684  0.0256 -0.5247  0.8803
  149SAPE   O1416357   4.456   4.250   8.822 -0.5596  0.3075  0.0567
  149SAPE   O1216358   4.485   4.150   8.596 -0.1206 -0.3918 -0.1332
  149SAPE   O1116359   4.378   4.365   8.608  0.4940 -0.2555 -0.0090
  149SAPE    C116360   4.494   4.429   8.556  0.2222 -0.1341 -0.1231
  149SAPE    HA16361   4.487   4.537   8.582  0.6599 -0.5957  2.0905
  149SAPE    HB16362   4.590   4.395   8.600  0.8076 -0.3083 -1.4577
  149SAPE    C216363   4.510   4.405   8.403 -0.1055  0.4337 -0.3793
  149SAPE    HS16364   4.533   4.298   8.382 -0.6477  0.2143  0.1224
  149SAPE   O2116365   4.614   4.488   8.356  0.1531 -0.1927 -0.1634
  149SAPE   C2116366   4.673   4.455   8.244  0.2764  0.1354  0.1608
  149SAPE   O2216367   4.651   4.348   8.187 -0.7262 -0.5575  0.1155
  149SAPE   C2216368   4.756   4.575   8.190  0.8094  0.4112 -0.5079
  149SAPE   H2R16369   4.681   4.657   8.194  0.2323 -0.1496  0.9960
  149SAPE   H2S16370   4.831   4.602   8.267  2.6003 -1.7276 -1.3883
  149SAPE    C316371   4.378   4.434   8.329  0.2508 -0.0047 -0.4912
  149SAPE    HX16372   4.344   4.537   8.350 -1.2442 -0.9063  1.9996
  149SAPE    HY16373   4.300   4.367   8.371  0.1259 -1.3221 -2.6427
  149SAPE   O3116374   4.382   4.419   8.182 -0.3859  0.2917 -0.1123
  149SAPE   C3116375   4.336   4.309   8.131  0.0734  0.1077 -0.6712
  149SAPE   O3216376   4.275   4.218   8.195 -0.4300  0.1176  0.4539
  149SAPE   C3216377   4.384   4.306   7.986  0.5158  0.5040 -0.2663
  149SAPE   H2X16378   4.489   4.272   7.996 -0.3476 -2.2064  0.2967
  149SAPE   H2Y16379   4.387   4.404   7.934  1.1169  1.0304  0.7335
  149SAPE   C2316380   4.830   4.552   8.056  0.8864 -0.4223  0.4942
  149SAPE   H3R16381   4.750   4.527   7.983  1.0467  0.6491 -0.0652
  149SAPE   H3S16382   4.885   4.457   8.066 -1.2878 -1.8258 -0.1440
  149SAPE   C2416383   4.914   4.674   8.006 -0.6241  0.2429  0.4460
  149SAPE   H4R16384   4.968   4.643   7.914 -0.5373  2.3760 -0.2835
  149SAPE   H4S16385   4.992   4.688   8.084 -2.1308 -0.8234  2.2185
  149SAPE   C2516386   4.836   4.799   7.983 -0.4240 -0.0901 -0.9316
  149SAPE   H5R16387   4.799   4.843   8.077 -1.2022 -0.3834 -1.0891
  149SAPE   C2616388   4.815   4.865   7.872 -0.1437  0.0900  0.8455
  149SAPE   H6R16389   4.747   4.951   7.863 -2.7114 -2.0187 -2.5113
  149SAPE   C2716390   4.865   4.824   7.731 -0.2022  0.6049 -0.5959
  149SAPE   H7R16391   4.854   4.714   7.719 -2.3577  0.7826 -0.6917
  149SAPE   H7S16392   4.975   4.840   7.734  0.4802 -3.1713  0.0645
  149SAPE   C2816393   4.800   4.893   7.613  0.1775 -0.6599  0.3561
  149SAPE   H8R16394   4.693   4.916   7.615  0.4206  0.5437  0.4486
  149SAPE   C2916395   4.865   4.942   7.505 -0.4539 -0.0203  0.4082
  149SAPE   H9R16396   4.800   4.981   7.425 -0.6164 -0.6551  0.2208
  149SAPE  C21016397   5.008   4.915   7.467  0.4757  0.5703  0.2442
  149SAPE  H10R16398   5.005   4.805   7.451 -0.4597  0.6986 -0.5284
  149SAPE  H10S16399   5.081   4.943   7.546 -0.4385  1.5736  0.7582
  149SAPE  C21116400   5.051   4.987   7.344  0.6783 -0.1030 -0.1442
  149SAPE  H11R16401   5.073   5.093   7.362 -1.5471  0.4273 -0.2307
  149SAPE  C21216402   5.071   4.949   7.217  0.1919 -0.4549  0.2507
  149SAPE  H12R16403   5.093   5.030   7.145  2.4196  0.3310  1.7045
  149SAPE  C21316404   5.043   4.816   7.156 -0.0743  0.6092 -0.0647
  149SAPE  H13R16405   4.965   4.763   7.215  0.6284  1.6299  1.8474
  149SAPE  H13S16406   5.125   4.741   7.156 -2.0567 -1.6943 -0.9025
  149SAPE  C21416407   4.985   4.843   7.017  0.3153 -0.3084  0.4901
  149SAPE  H14R16408   4.900   4.908   7.044 -1.2746 -2.3594  0.6409
  149SAPE  C21516409   5.018   4.809   6.895  0.3219 -0.0181  0.1241
  149SAPE  H15R16410   4.956   4.841   6.809 -0.8710 -0.2758  0.8582
  149SAPE  C21616411   5.140   4.734   6.862  0.6082  0.3300 -0.2610
  149SAPE  H16R16412   5.215   4.734   6.944 -0.2518 -2.2956  0.6173
  149SAPE  H16S16413   5.191   4.776   6.773  0.7764 -1.0939 -0.8725
  149SAPE  C21716414   5.121   4.584   6.824  0.5994  0.4399  0.1003
  149SAPE  H17R16415   5.080   4.532   6.913  1.2717  0.5466  0.4813
  149SAPE  H17S16416   5.218   4.535   6.797 -0.5262 -2.6126  1.1578
  149SAPE  C21816417   5.028   4.574   6.705 -0.1185  0.0810 -0.6990
  149SAPE  H18R16418   5.044   4.627   6.609  0.8160  1.2350  0.0551
  149SAPE  H18S16419   4.924   4.601   6.735 -0.0816 -2.0458  1.6491
  149SAPE  C21916420   4.995   4.419   6.668  0.2323 -0.5648  0.7449
  149SAPE  H19R16421   4.970   4.359   6.758  2.1287 -4.8317 -1.3157
  149SAPE  H19S16422   5.095   4.382   6.639  0.4724  0.3452  0.3884
  149SAPE  C22016423   4.891   4.403   6.561 -0.2708  0.1160 -0.0906
  149SAPE  H20R16424   4.796   4.429   6.614  0.3531  1.2950  0.4976
  149SAPE  H20S16425   4.890   4.293   6.545 -0.3872  0.0324  0.4534
  149SAPE  H20T16426   4.907   4.466   6.472  1.0462  0.8404  0.6348
  149SAPE   C3316427   4.297   4.208   7.896 -0.4646 -0.0253  0.6875
  149SAPE   H3X16428   4.195   4.217   7.939 -1.4832  1.1974 -1.7716
  149SAPE   H3Y16429   4.331   4.103   7.907  3.1913  0.9230 -0.2598
  149SAPE   C3416430   4.288   4.265   7.754  0.2852  0.3388 -0.7496
  149SAPE   H4X16431   4.383   4.242   7.702  1.2043  2.7256 -0.2274
  149SAPE   H4Y16432   4.271   4.375   7.756  2.2232  0.7811 -3.4638
  149SAPE   C3516433   4.158   4.218   7.681  0.2137  0.5769  0.4203
  149SAPE   H5X16434   4.070   4.257   7.737 -0.3988 -0.5460  0.2608
  149SAPE   H5Y16435   4.137   4.109   7.683 -1.9119  0.9420 -0.0826
  149SAPE   C3616436   4.154   4.270   7.534  0.0914 -0.3261  0.4314
  149SAPE   H6X16437   4.223   4.203   7.479 -2.6761 -2.3707 -0.7950
  149SAPE   H6Y16438   4.175   4.379   7.534  0.5257 -0.3922 -0.8154
  149SAPE   C3716439   4.023   4.243   7.464 -0.6757 -0.0214  0.0234
  149SAPE   H7X16440   3.944   4.279   7.533 -0.4752 -2.1870  1.4616
  149SAPE   H7Y16441   4.011   4.133   7.460  4.2194 -0.8404  1.5050
  149SAPE   C3816442   4.004   4.324   7.329 -0.1047 -0.2289 -0.5885
  149SAPE   H8X16443   4.091   4.305   7.263  0.5392 -0.5327  0.3206
  149SAPE   H8Y16444   3.992   4.434   7.341  1.8018 -0.2049  1.9750
  149SAPE   C3916445   3.875   4.292   7.264  0.1744  0.5324  0.8536
  149SAPE   H9X16446   3.789   4.348   7.304 -0.2631  0.1963  0.3978
  149SAPE   H9Y16447   3.864   4.183   7.283  0.3791  0.1587 -0.9512
  149SAPE  C31016448   3.872   4.314   7.107 -0.1677 -0.0948 -0.4370
  149SAPE  H10X16449   3.807   4.234   7.065 -0.8797 -0.6153  1.5295
  149SAPE  H10Y16450   3.973   4.297   7.064  1.0161  0.1292  2.0661
  149SAPE  C31116451   3.817   4.448   7.055  0.4391 -0.4440 -0.0813
  149SAPE  H11X16452   3.883   4.535   7.075 -0.1293 -0.6736  3.3163
  149SAPE  H11Y16453   3.728   4.474   7.115  0.6843  1.2501 -0.3886
  149SAPE  C31216454   3.763   4.440   6.908 -0.2548 -0.2970 -0.7075
  149SAPE  H12X16455   3.700   4.350   6.895 -0.5409 -0.2997  0.6001
  149SAPE  H12Y16456   3.854   4.438   6.845 -0.2189 -0.3477 -0.6531
  149SAPE  C31316457   3.674   4.564   6.878  0.0725  0.2819 -0.3475
  149SAPE  H13X16458   3.724   4.652   6.926  0.9475 -0.4964  0.2257
  149SAPE  H13Y16459   3.575   4.545   6.925  0.8169 -0.5844  0.9608
  149SAPE  C31416460   3.664   4.594   6.724 -0.0378  0.0094 -0.6913
  149SAPE  H14X16461   3.767   4.619   6.691  1.1098  1.5204  3.5089
  149SAPE  H14Y16462   3.596   4.680   6.704  1.5040  1.3657 -0.2850
  149SAPE  C31516463   3.612   4.476   6.648 -0.0113  0.4171 -0.4123
  149SAPE  H15X16464   3.508   4.470   6.686  0.0185  4.6682  0.8877
  149SAPE  H15Y16465   3.667   4.380   6.660  0.4220  0.8021  0.8950
  149SAPE  C31616466   3.616   4.500   6.491  0.3974  0.0239 -0.2999
  149SAPE  H16X16467   3.717   4.503   6.446  1.2775  1.0089  1.6603
  149SAPE  H16Y16468   3.573   4.599   6.464 -0.3706  0.1354  1.2187
  149SAPE  C31716469   3.525   4.401   6.415  0.4149  0.1182  0.0585
  149SAPE  H17X16470   3.438   4.380   6.481  1.3097 -0.8601  0.9737
  149SAPE  H17Y16471   3.574   4.302   6.416 -2.6046 -1.5257  1.9563
  149SAPE  C31816472   3.477   4.442   6.276 -0.0856  0.6106 -0.0720
  149SAPE  H18X16473   3.564   4.476   6.216  0.4509  1.5922  1.2024
  149SAPE  H18Y16474   3.406   4.525   6.296  0.9166  1.2512  0.9224
  149SAPE  H18Z16475   3.426   4.363   6.216  0.7007  0.0574 -0.0194
  150SAPE     N16476   1.228   2.073   0.402 -1.1447  0.2320  0.5062
  150SAPE   HN116477   1.190   1.985   0.440  0.8613 -1.3522 -0.9015
  150SAPE   HN216478   1.269   2.134   0.476 -0.6738  3.4707 -2.1602
  150SAPE   HN316479   1.150   2.117   0.349 -0.6624 -0.0286 -0.4388
  150SAPE   C1216480   1.341   2.044   0.300 -0.3706  0.2551  0.1436
  150SAPE  H12A16481   1.432   2.018   0.358  0.0307  0.9339 -0.1647
  150SAPE  H12B16482   1.365   2.142   0.253 -2.3305  0.2292 -1.0135
  150SAPE   C1116483   1.289   1.949   0.198  0.5522 -0.0675 -0.3512
  150SAPE  H11A16484   1.375   1.918   0.135  1.0426 -1.6809  1.0511
  150SAPE  H11B16485   1.207   1.998   0.141 -0.2700 -0.3124  0.5957
  150SAPE     P16486   1.115   1.739   0.212  0.3119 -0.2357  0.0793
  150SAPE   O1316487   1.173   1.611   0.171  0.1610 -0.5526 -0.0222
  150SAPE   O1416488   1.014   1.738   0.315  0.0274  0.5033  0.2046
  150SAPE   O1216489   1.236   1.836   0.259  0.0126  0.1222 -0.1094
  150SAPE   O1116490   1.068   1.833   0.093 -0.0122  0.3784  0.5512
  150SAPE    C116491   1.050   1.781  -0.036  0.0536 -0.1721  0.7227
  150SAPE    HA16492   1.035   1.672  -0.026  0.9996 -0.1541  3.2118
  150SAPE    HB16493   0.957   1.828  -0.074 -0.0282  0.2794  1.4382
  150SAPE    C216494   1.167   1.802  -0.135  0.5218 -0.9964  0.3829
  150SAPE    HS16495   1.253   1.753  -0.084  0.1152  0.3804  2.5259
  150SAPE   O2116496   1.191   1.946  -0.141 -0.4199  0.0933  0.1179
  150SAPE   C2116497   1.317   1.982  -0.172 -0.1140 -0.2671 -0.4147
  150SAPE   O2216498   1.401   1.898  -0.204 -0.1684 -0.1336 -0.8898
  150SAPE   C2216499   1.328   2.127  -0.153  0.3433  0.9253 -0.7143
  150SAPE   H2R16500   1.279   2.187  -0.233 -1.6568 -0.2049 -0.4024
  150SAPE   H2S16501   1.283   2.153  -0.054  0.3145 -1.3061 -0.0861
  150SAPE    C316502   1.137   1.740  -0.280 -0.2329  0.0157  0.3829
  150SAPE    HX16503   1.220   1.744  -0.354 -0.5594  0.9223  0.0564
  150SAPE    HY16504   1.065   1.811  -0.325  1.7798  1.8128 -0.2151
  150SAPE   O3116505   1.078   1.608  -0.271 -0.1881  0.0381 -0.2075
  150SAPE   C3116506   1.154   1.502  -0.251  0.0034  0.2522 -0.3180
  150SAPE   O3216507   1.271   1.505  -0.218 -0.0666 -0.0665 -0.6432
  150SAPE   C3216508   1.080   1.374  -0.287  0.1484 -0.5114  0.2235
  150SAPE   H2X16509   1.000   1.361  -0.211  0.6840  0.9785  1.0864
  150SAPE   H2Y16510   1.159   1.298  -0.268 -0.7795 -1.0429  2.1409
  150SAPE   C2316511   1.469   2.179  -0.158 -0.0938  0.3841  0.0531
  150SAPE   H3R16512   1.508   2.163  -0.261  0.1000  0.9661  0.0359
  150SAPE   H3S16513   1.536   2.122  -0.089  1.8313  1.1205 -1.1306
  150SAPE   C2416514   1.468   2.330  -0.129  0.1693  0.0598  0.1227
  150SAPE   H4R16515   1.466   2.355  -0.021  3.6350 -1.3768  0.6293
  150SAPE   H4S16516   1.376   2.375  -0.173  0.1155 -0.0441  0.1287
  150SAPE   C2516517   1.591   2.395  -0.184  0.3079 -0.0884  0.0354
  150SAPE   H5R16518   1.682   2.348  -0.143  0.1554  0.1418  0.6387
  150SAPE   C2616519   1.594   2.507  -0.266 -0.3300  0.5607 -0.0787
  150SAPE   H6R16520   1.694   2.540  -0.297  0.3742 -0.2676  1.2211
  150SAPE   C2716521   1.468   2.590  -0.301  0.3159  0.0349  0.3852
  150SAPE   H7R16522   1.512   2.691  -0.305 -0.6994  0.4434 -1.8081
  150SAPE   H7S16523   1.388   2.587  -0.224  0.6061 -1.0135  0.6688
  150SAPE   C2816524   1.412   2.561  -0.446  0.4592  0.0189  0.3666
  150SAPE   H8R16525   1.460   2.472  -0.489 -1.1854 -1.3578  1.2646
  150SAPE   C2916526   1.314   2.628  -0.514  0.2400  0.2676  0.0751
  150SAPE   H9R16527   1.292   2.591  -0.615  2.2909  1.3224 -0.8171
  150SAPE  C21016528   1.230   2.742  -0.458 -0.1309 -0.4755 -0.1984
  150SAPE  H10R16529   1.187   2.792  -0.548 -1.5476 -1.7010 -0.2350
  150SAPE  H10S16530   1.298   2.812  -0.405 -1.3995  2.2806 -1.9139
  150SAPE  C21116531   1.116   2.690  -0.364 -0.0776  0.1320  0.3714
  150SAPE  H11R16532   1.159   2.657  -0.269 -1.2047  1.2774  1.3116
  150SAPE  C21216533   0.980   2.697  -0.387 -0.5828 -0.3703 -0.5374
  150SAPE  H12R16534   0.915   2.681  -0.300 -0.8313  0.7736 -0.4986
  150SAPE  C21316535   0.911   2.743  -0.515 -0.3826 -0.3425  0.1295
  150SAPE  H13R16536   0.987   2.794  -0.578 -1.9756 -0.6118 -2.1165
  150SAPE  H13S16537   0.845   2.828  -0.487  0.9501  0.8444 -0.2434
  150SAPE  C21416538   0.840   2.622  -0.576 -0.0397  0.1372 -0.1535
  150SAPE  H14R16539   0.757   2.584  -0.515  0.0209  1.1411  0.5623
  150SAPE  C21516540   0.874   2.564  -0.696  1.0660  0.3911 -0.2540
  150SAPE  H15R16541   0.823   2.470  -0.718  2.1665 -0.6795  1.4814
  150SAPE  C21616542   0.989   2.601  -0.790 -0.1390 -0.4972  0.5395
  150SAPE  H16R16543   1.086   2.598  -0.737  3.2644  0.5785 -4.8315
  150SAPE  H16S16544   0.980   2.703  -0.834 -0.4610 -0.1822  1.3069
  150SAPE  C21716545   1.006   2.511  -0.914 -0.6906  1.0254  0.3873
  150SAPE  H17R16546   0.915   2.522  -0.978 -0.0588  3.7965 -0.1945
  150SAPE  H17S16547   1.014   2.409  -0.873 -1.1023  0.7420 -0.2213
  150SAPE  C21816548   1.141   2.540  -0.984  0.1162  0.7599  0.1466
  150SAPE  H18R16549   1.215   2.536  -0.901 -1.6522  1.3809  1.8380
  150SAPE  H18S16550   1.146   2.642  -1.028  0.4533  0.1741 -1.2300
  150SAPE  C21916551   1.177   2.428  -1.090  0.0038  0.0384 -0.1767
  150SAPE  H19R16552   1.092   2.436  -1.161 -1.9399 -0.2610  1.9984
  150SAPE  H19S16553   1.167   2.329  -1.041 -1.1787 -0.2533 -0.9538
  150SAPE  C22016554   1.307   2.452  -1.164  0.1862 -0.8716 -0.4281
  150SAPE  H20R16555   1.292   2.555  -1.203 -3.1373 -1.9283 -2.2528
  150SAPE  H20S16556   1.308   2.375  -1.244 -1.7211 -0.9818 -0.3930
  150SAPE  H20T16557   1.391   2.436  -1.092 -1.6836  0.8578  2.3403
  150SAPE   C3316558   1.019   1.372  -0.431  0.0190 -0.1679 -0.5328
  150SAPE   H3X16559   1.096   1.383  -0.510  0.4488 -0.1620 -0.1175
  150SAPE   H3Y16560   0.946   1.455  -0.442 -2.2978 -2.2672 -2.0561
  150SAPE   C3416561   0.947   1.238  -0.443 -0.1281  0.4084  0.3438
  150SAPE   H4X16562   0.860   1.231  -0.374 -0.7598 -1.4560 -0.5547
  150SAPE   H4Y16563   1.017   1.155  -0.420  0.3246  0.7427  0.1919
  150SAPE   C3516564   0.906   1.214  -0.586 -0.0596 -0.4769 -0.6181
  150SAPE   H5X16565   0.860   1.112  -0.591  2.1629 -1.5819  0.2883
  150SAPE   H5Y16566   0.990   1.224  -0.658  0.7153 -0.1865  0.3036
  150SAPE   C3616567   0.808   1.323  -0.647  0.8142  0.1533 -0.4085
  150SAPE   H6X16568   0.861   1.420  -0.650  0.1498  0.5148 -1.1292
  150SAPE   H6Y16569   0.726   1.334  -0.573  1.0758  0.6000 -0.1876
  150SAPE   C3716570   0.759   1.295  -0.786 -0.2028 -0.0356  0.2908
  150SAPE   H7X16571   0.763   1.186  -0.806  1.1747  0.1877 -0.8521
  150SAPE   H7Y16572   0.834   1.331  -0.859 -1.0214  0.6141 -0.2491
  150SAPE   C3816573   0.620   1.350  -0.818  0.1976 -0.1030  0.2599
  150SAPE   H8X16574   0.609   1.461  -0.812  0.8847 -0.0772  1.4033
  150SAPE   H8Y16575   0.553   1.314  -0.736 -0.1397 -0.7077 -0.2748
  150SAPE   C3916576   0.570   1.300  -0.952 -0.5872  0.5151  0.4657
  150SAPE   H9X16577   0.463   1.331  -0.949 -0.3391  1.4213  0.0269
  150SAPE   H9Y16578   0.565   1.189  -0.959 -1.6660  0.4424  1.8542
  150SAPE  C31016579   0.628   1.373  -1.074 -0.2234 -0.4960 -1.0832
  150SAPE  H10X16580   0.739   1.364  -1.073 -0.0660  0.7965 -2.5136
  150SAPE  H10Y16581   0.602   1.480  -1.090  2.6693  0.7965  1.7774
  150SAPE  C31116582   0.579   1.303  -1.205  0.0645 -0.1898 -0.1713
  150SAPE  H11X16583   0.468   1.299  -1.208 -0.0233  0.4622  1.2207
  150SAPE  H11Y16584   0.620   1.200  -1.206  1.7271  0.4030  1.3200
  150SAPE  C31216585   0.614   1.373  -1.342 -0.4015  0.2137  0.0551
  150SAPE  H12X16586   0.579   1.478  -1.335 -1.9256 -0.4008  2.7375
  150SAPE  H12Y16587   0.550   1.313  -1.409 -0.6784 -2.2462  2.3724
  150SAPE  C31316588   0.753   1.362  -1.396 -0.2864  0.3993 -0.1958
  150SAPE  H13X16589   0.780   1.258  -1.422 -1.1598 -1.0847  4.0528
  150SAPE  H13Y16590   0.810   1.386  -1.304 -1.2975 -0.4289  0.6721
  150SAPE  C31416591   0.773   1.462  -1.509 -0.7927 -0.4501 -0.1027
  150SAPE  H14X16592   0.754   1.561  -1.463 -2.4717 -1.4433  1.4640
  150SAPE  H14Y16593   0.702   1.435  -1.590 -2.8005  1.3793  0.9446
  150SAPE  C31516594   0.911   1.471  -1.566 -0.1363  0.9514  0.7432
  150SAPE  H15X16595   0.915   1.561  -1.631  2.3797 -0.0023 -0.5674
  150SAPE  H15Y16596   0.956   1.389  -1.626  1.3033  0.2805  2.6432
  150SAPE  C31616597   1.029   1.500  -1.461  0.2780 -0.6665  0.0280
  150SAPE  H16X16598   1.121   1.497  -1.523 -1.1917 -2.5285 -2.2467
  150SAPE  H16Y16599   1.036   1.414  -1.390  1.4219 -2.0836 -1.6843
  150SAPE  C31716600   1.011   1.631  -1.389 -0.5736 -0.2080 -0.6076
  150SAPE  H17X16601   0.929   1.642  -1.314 -0.4933  1.9490 -0.7643
  150SAPE  H17Y16602   1.000   1.712  -1.464 -1.9125  0.6912  0.4942
  150SAPE  C31816603   1.149   1.659  -1.320 -0.1325 -0.0707 -0.3914
  150SAPE  H18X16604   1.224   1.677  -1.400 -0.4215  0.8348 -0.4675
  150SAPE  H18Y16605   1.179   1.572  -1.257  1.3510 -0.4324 -1.5592
  150SAPE  H18Z16606   1.142   1.755  -1.264 -2.0949 -0.1921 -0.3706
  151SAPE     N16607   1.967   5.360   0.346 -0.5201 -0.2005 -0.3666
  151SAPE   HN116608   1.926   5.414   0.267 -2.7019  0.7114  1.2809
  151SAPE   HN216609   1.983   5.262   0.314 -0.1508  0.0507 -0.9725
  151SAPE   HN316610   1.892   5.353   0.418  0.0350  0.1953  0.2528
  151SAPE   C1216611   2.078   5.447   0.394 -0.5107  0.7327  0.1091
  151SAPE  H12A16612   2.168   5.428   0.332 -0.0859 -0.0444  0.9383
  151SAPE  H12B16613   2.107   5.410   0.495  1.9773 -1.5948 -1.3236
  151SAPE   C1116614   2.042   5.602   0.400  0.1558  0.2423 -0.5498
  151SAPE  H11A16615   2.118   5.644   0.469 -1.3980 -0.0854  1.4557
  151SAPE  H11B16616   1.946   5.608   0.456  1.0145  0.9198  0.8972
  151SAPE     P16617   1.908   5.683   0.196 -0.1435 -0.0987 -0.2324
  151SAPE   O1316618   1.810   5.567   0.209 -0.3635 -0.1271 -0.0884
  151SAPE   O1416619   1.866   5.823   0.214  0.0577 -0.1819  0.2043
  151SAPE   O1216620   2.041   5.657   0.271 -0.3077  0.7290  0.7890
  151SAPE   O1116621   1.953   5.673   0.043 -0.0083  0.0040 -0.3905
  151SAPE    C116622   2.050   5.587  -0.008  0.5337  0.1494 -0.2480
  151SAPE    HA16623   2.151   5.630   0.007  0.0485  0.5991  2.0668
  151SAPE    HB16624   2.045   5.493   0.051 -1.2680  1.6261  2.1333
  151SAPE    C216625   2.018   5.560  -0.157 -0.1365  0.4347 -0.0156
  151SAPE    HS16626   2.094   5.484  -0.181  0.1214  0.6694  0.0547
  151SAPE   O2116627   2.027   5.677  -0.247 -0.3282 -0.2716  0.0667
  151SAPE   C2116628   2.145   5.731  -0.262 -0.1480  0.1074 -0.2177
  151SAPE   O2216629   2.253   5.694  -0.212  0.5185  0.2034 -0.2974
  151SAPE   C2216630   2.137   5.844  -0.364  0.5711  0.1288 -0.8235
  151SAPE   H2R16631   2.044   5.835  -0.425  0.7800 -0.0384 -1.1208
  151SAPE   H2S16632   2.123   5.939  -0.309 -2.3917 -1.1934  0.9593
  151SAPE    C316633   1.882   5.493  -0.183  0.1696  0.0081 -0.0952
  151SAPE    HX16634   1.810   5.561  -0.134  0.2139 -0.7024  0.9906
  151SAPE    HY16635   1.871   5.396  -0.130 -2.2663  1.4365  2.2731
  151SAPE   O3116636   1.851   5.467  -0.321  0.5060 -0.0595  0.4402
  151SAPE   C3116637   1.791   5.562  -0.395 -0.5700  0.5236 -0.1931
  151SAPE   O3216638   1.758   5.672  -0.356  0.0820 -0.3352  0.3769
  151SAPE   C3216639   1.755   5.518  -0.539  0.0202  0.6704 -0.6656
  151SAPE   H2X16640   1.671   5.582  -0.573 -1.5380 -0.9237  0.0085
  151SAPE   H2Y16641   1.700   5.421  -0.529  0.6254  0.5162  1.5639
  151SAPE   C2316642   2.261   5.837  -0.458  0.1889 -0.3598 -0.3882
  151SAPE   H3R16643   2.357   5.796  -0.418  2.0182  0.2663 -3.7441
  151SAPE   H3S16644   2.289   5.944  -0.469  0.7862 -0.3665  0.8872
  151SAPE   C2416645   2.224   5.765  -0.588 -0.5424 -0.0651  0.5385
  151SAPE   H4R16646   2.183   5.664  -0.564  1.2021 -0.3405  2.6952
  151SAPE   H4S16647   2.319   5.730  -0.633  1.1809 -1.4926  4.7779
  151SAPE   C2516648   2.145   5.834  -0.689  0.4328 -0.1479 -0.2016
  151SAPE   H5R16649   2.047   5.864  -0.647  0.0589 -1.3640 -0.1440
  151SAPE   C2616650   2.170   5.857  -0.815 -0.3368 -0.1472 -0.4451
  151SAPE   H6R16651   2.089   5.900  -0.876 -0.1567 -0.6200 -1.0267
  151SAPE   C2716652   2.284   5.829  -0.901 -0.8807 -0.1329 -0.1043
  151SAPE   H7R16653   2.261   5.742  -0.966  0.8731 -0.3689 -0.4693
  151SAPE   H7S16654   2.362   5.787  -0.834 -0.9753 -0.6081 -0.2851
  151SAPE   C2816655   2.332   5.959  -0.968  0.3144  0.1029  0.6200
  151SAPE   H8R16656   2.417   5.998  -0.910  0.2441  0.3794  0.5336
  151SAPE   C2916657   2.280   6.004  -1.084 -0.3510 -1.0170  0.2284
  151SAPE   H9R16658   2.327   6.095  -1.125 -1.2596 -0.0998  1.1769
  151SAPE  C21016659   2.154   5.959  -1.153 -0.7345 -0.4895 -0.2636
  151SAPE  H10R16660   2.104   5.876  -1.099 -0.8915  0.2177  0.7244
  151SAPE  H10S16661   2.187   5.905  -1.244 -1.4785 -0.7852 -0.3608
  151SAPE  C21116662   2.073   6.077  -1.186  0.6341 -0.4377  1.0002
  151SAPE  H11R16663   2.043   6.133  -1.096  1.1561 -0.8876  1.4596
  151SAPE  C21216664   2.013   6.112  -1.307  0.1510  0.3318 -0.0743
  151SAPE  H12R16665   1.955   6.204  -1.325  0.2696  0.4519  0.1537
  151SAPE  C21316666   2.033   6.032  -1.431 -0.0524  0.6515  0.4451
  151SAPE  H13R16667   1.955   6.057  -1.506  1.0268 -0.4471 -1.1096
  151SAPE  H13S16668   2.008   5.927  -1.407  0.8426  0.0956 -0.9459
  151SAPE  C21416669   2.169   6.038  -1.497  0.4242 -0.3050  0.0347
  151SAPE  H14R16670   2.221   6.135  -1.482 -3.4329  1.6694  2.2039
  151SAPE  C21516671   2.230   5.946  -1.573 -0.2971 -0.0440  0.1500
  151SAPE  H15R16672   2.330   5.955  -1.617 -1.3256 -2.2295 -3.0362
  151SAPE  C21616673   2.175   5.805  -1.588  0.0618  0.5681  0.5107
  151SAPE  H16R16674   2.151   5.795  -1.696 -1.5555  0.8904  0.8230
  151SAPE  H16S16675   2.074   5.792  -1.545 -0.4355  1.9058 -0.1787
  151SAPE  C21716676   2.258   5.678  -1.545  0.9169 -0.4701  0.3862
  151SAPE  H17R16677   2.205   5.586  -1.577 -4.0687  1.8991  0.9019
  151SAPE  H17S16678   2.263   5.672  -1.434  1.1492  0.1546  0.4125
  151SAPE  C21816679   2.402   5.684  -1.599  0.0512 -0.3885 -0.3158
  151SAPE  H18R16680   2.443   5.582  -1.579 -0.8765 -0.2499  2.8581
  151SAPE  H18S16681   2.470   5.748  -1.539  1.0438  0.8723 -2.6450
  151SAPE  C21916682   2.411   5.726  -1.746  0.1758 -0.1305 -0.3563
  151SAPE  H19R16683   2.353   5.819  -1.764  1.7357  0.7862 -0.7573
  151SAPE  H19S16684   2.349   5.646  -1.794 -1.5221 -0.1770  1.7619
  151SAPE  C22016685   2.544   5.742  -1.817 -0.3781 -0.3149 -0.1866
  151SAPE  H20R16686   2.576   5.848  -1.808  1.9615 -0.8983 -0.8033
  151SAPE  H20S16687   2.527   5.731  -1.927  0.3658  2.0415 -0.5797
  151SAPE  H20T16688   2.626   5.674  -1.786  0.2839 -1.1041 -3.2877
  151SAPE   C3316689   1.872   5.530  -0.638 -0.2675  0.0506  0.8653
  151SAPE   H3X16690   1.950   5.463  -0.594  0.3678  0.2498  0.0503
  151SAPE   H3Y16691   1.911   5.633  -0.640 -1.4422  0.4997  0.1206
  151SAPE   C3416692   1.838   5.481  -0.781  0.1562  0.3145  0.0468
  151SAPE   H4X16693   1.748   5.535  -0.818 -1.2320  0.8318  3.7872
  151SAPE   H4Y16694   1.814   5.374  -0.763  1.3095  0.0866  0.3560
  151SAPE   C3516695   1.942   5.489  -0.897 -0.7124 -0.2405  0.4243
  151SAPE   H5X16696   2.022   5.417  -0.869  1.0236  0.5757 -2.0837
  151SAPE   H5Y16697   1.992   5.588  -0.904 -1.3737 -0.0323 -2.3683
  151SAPE   C3616698   1.881   5.455  -1.035  1.3240 -0.0419 -0.2210
  151SAPE   H6X16699   1.803   5.531  -1.057 -0.2712 -1.3879  0.6066
  151SAPE   H6Y16700   1.833   5.355  -1.026  2.1803 -0.2764  2.2674
  151SAPE   C3716701   1.994   5.444  -1.134 -0.5703  0.2719  0.4089
  151SAPE   H7X16702   2.076   5.388  -1.085 -0.0755  0.1991 -0.4790
  151SAPE   H7Y16703   2.031   5.547  -1.158  1.8460 -0.5463  0.3206
  151SAPE   C3816704   1.966   5.396  -1.277 -0.0098 -0.2675 -0.2430
  151SAPE   H8X16705   1.908   5.467  -1.339  0.4281 -1.5095 -2.1517
  151SAPE   H8Y16706   1.910   5.300  -1.278  0.4651 -0.7229 -4.7908
  151SAPE   C3916707   2.089   5.375  -1.372  0.0442 -0.9958 -0.2619
  151SAPE   H9X16708   2.166   5.315  -1.318  0.4586  2.4895  3.4853
  151SAPE   H9Y16709   2.139   5.473  -1.390 -0.9035 -0.6196 -0.9360
  151SAPE  C31016710   2.052   5.321  -1.507 -0.2623  0.1106 -0.3721
  151SAPE  H10X16711   1.985   5.397  -1.552  1.3618  1.3785 -0.7220
  151SAPE  H10Y16712   1.983   5.235  -1.494  1.6743 -1.9108 -2.5198
  151SAPE  C31116713   2.174   5.283  -1.587  0.0901  0.3819 -0.9803
  151SAPE  H11X16714   2.245   5.217  -1.533  1.0995  2.0636 -0.1713
  151SAPE  H11Y16715   2.233   5.374  -1.613  2.0701 -1.0529 -1.7987
  151SAPE  C31216716   2.141   5.213  -1.716 -0.3044 -0.2563 -0.5551
  151SAPE  H12X16717   2.237   5.190  -1.767  2.6444  3.4698  2.6674
  151SAPE  H12Y16718   2.085   5.280  -1.783 -0.2824 -0.6872 -1.0145
  151SAPE  C31316719   2.071   5.072  -1.703  0.0421  0.3316  0.4037
  151SAPE  H13X16720   2.047   5.031  -1.803 -2.7090 -1.2324  1.5834
  151SAPE  H13Y16721   1.976   5.091  -1.648  2.0421 -0.5132  4.5609
  151SAPE  C31416722   2.143   4.967  -1.606  0.2031  0.0624  0.0156
  151SAPE  H14X16723   2.096   4.868  -1.625 -2.3974  1.1092  0.6067
  151SAPE  H14Y16724   2.117   4.984  -1.499  1.0828 -2.6818  0.7572
  151SAPE  C31516725   2.301   4.953  -1.612  0.4658  0.0770  0.5300
  151SAPE  H15X16726   2.351   5.012  -1.532  1.8689 -0.6766  0.2433
  151SAPE  H15Y16727   2.327   5.022  -1.696  0.2195  0.1683  0.5261
  151SAPE  C31616728   2.357   4.812  -1.634 -0.4814 -0.1029  0.0487
  151SAPE  H16X16729   2.341   4.741  -1.550 -0.7702  0.3286  0.3604
  151SAPE  H16Y16730   2.469   4.812  -1.635 -0.3751 -0.9632  2.9202
  151SAPE  C31716731   2.305   4.740  -1.750 -0.0882 -0.3424 -0.4850
  151SAPE  H17X16732   2.312   4.810  -1.836 -0.6973 -0.4603 -0.6351
  151SAPE  H17Y16733   2.200   4.717  -1.722  0.4081 -0.9458  0.9852
  151SAPE  C31816734   2.387   4.612  -1.775  0.0228  0.0606 -0.4522
  151SAPE  H18X16735   2.493   4.643  -1.786 -0.1351  0.1703 -1.8524
  151SAPE  H18Y16736   2.355   4.555  -1.865 -0.4140 -1.2979  0.5284
  151SAPE  H18Z16737   2.384   4.537  -1.694 -0.2859 -0.9804 -1.3979
  152SAPE     N16738   2.573   1.049   0.056  0.2571 -0.1654 -0.2780
  152SAPE   HN116739   2.537   0.953   0.044 -1.0173  0.2720 -0.1532
  152SAPE   HN216740   2.673   1.044   0.085  0.5530  0.9469 -1.0342
  152SAPE   HN316741   2.521   1.103   0.128 -0.8004 -0.7396 -0.6029
  152SAPE   C1216742   2.573   1.121  -0.071 -0.0091 -0.6465 -0.7471
  152SAPE  H12A16743   2.631   1.056  -0.141  0.5192 -2.0540  0.9194
  152SAPE  H12B16744   2.624   1.219  -0.058 -0.0803 -0.6771 -0.1994
  152SAPE   C1116745   2.430   1.139  -0.114  0.3620  0.6870  0.4344
  152SAPE  H11A16746   2.381   1.039  -0.112  1.3673  0.1484 -0.9757
  152SAPE  H11B16747   2.421   1.162  -0.222 -0.5794  0.6045  0.4852
  152SAPE     P16748   2.305   1.354  -0.065  0.0208 -0.1665  0.0693
  152SAPE   O1316749   2.189   1.399   0.013  0.3833  0.3227 -0.3881
  152SAPE   O1416750   2.416   1.452  -0.065  0.1141  0.3052  0.9344
  152SAPE   O1216751   2.350   1.217  -0.020 -0.0086  0.3827  0.3767
  152SAPE   O1116752   2.255   1.324  -0.217 -0.4148  0.4452  0.2439
  152SAPE    C116753   2.240   1.429  -0.311 -0.2210 -0.1751  0.8803
  152SAPE    HA16754   2.333   1.484  -0.340  0.7471 -1.9386  0.5340
  152SAPE    HB16755   2.202   1.384  -0.405  0.4715 -0.8511  0.9105
  152SAPE    C216756   2.134   1.534  -0.273  0.4513 -0.7449  0.1262
  152SAPE    HS16757   2.175   1.594  -0.189 -0.9710  1.8195 -0.8629
  152SAPE   O2116758   2.002   1.468  -0.250  0.3305  0.0204 -0.3769
  152SAPE   C2116759   1.918   1.541  -0.179  0.1487  0.0609 -0.5278
  152SAPE   O2216760   1.946   1.656  -0.137  0.1942 -0.3730 -0.0557
  152SAPE   C2216761   1.776   1.474  -0.167  0.3593 -0.2637 -0.6250
  152SAPE   H2R16762   1.780   1.369  -0.202 -2.4565 -0.3185 -0.9966
  152SAPE   H2S16763   1.757   1.471  -0.058  0.6652 -0.5314 -0.5803
  152SAPE    C316764   2.113   1.635  -0.398  0.6343 -0.6407 -0.3188
  152SAPE    HX16765   2.044   1.721  -0.382 -0.4586 -1.8718  2.1426
  152SAPE    HY16766   2.059   1.570  -0.470 -0.5130 -1.5176  1.2673
  152SAPE   O3116767   2.233   1.693  -0.455  0.0823 -0.2648 -0.0458
  152SAPE   C3116768   2.290   1.778  -0.367  0.6467  0.1124  0.2166
  152SAPE   O3216769   2.252   1.796  -0.247  0.0787 -0.0947  0.1985
  152SAPE   C3216770   2.397   1.852  -0.433  0.2504  0.2554  0.2850
  152SAPE   H2X16771   2.419   1.799  -0.528  1.3084 -0.4163  0.8818
  152SAPE   H2Y16772   2.491   1.839  -0.374 -0.8587 -2.5511  1.6156
  152SAPE   C2316773   1.662   1.558  -0.243 -0.9345  0.3201  0.2549
  152SAPE   H3R16774   1.670   1.666  -0.215 -0.9766  0.5879 -0.6961
  152SAPE   H3S16775   1.565   1.529  -0.200  0.3296 -1.7094  1.9189
  152SAPE   C2416776   1.651   1.531  -0.390  0.7967 -0.1303  0.5860
  152SAPE   H4R16777   1.622   1.424  -0.388 -1.6254  0.4468  3.0531
  152SAPE   H4S16778   1.750   1.530  -0.441  1.2336 -0.5737  1.4271
  152SAPE   C2516779   1.554   1.637  -0.464 -0.1158  0.3105 -0.7045
  152SAPE   H5R16780   1.481   1.674  -0.391  1.2117  0.9309  0.3502
  152SAPE   C2616781   1.562   1.694  -0.585 -0.1488  0.5255 -0.4448
  152SAPE   H6R16782   1.481   1.760  -0.619  0.1832 -0.6677 -3.9226
  152SAPE   C2716783   1.661   1.664  -0.698  0.7069 -0.1141 -0.0091
  152SAPE   H7R16784   1.609   1.692  -0.792  1.6807  1.1983 -0.1978
  152SAPE   H7S16785   1.681   1.556  -0.714  0.2157 -0.0278 -1.3201
  152SAPE   C2816786   1.799   1.733  -0.689 -0.5992  0.7388 -0.3055
  152SAPE   H8R16787   1.823   1.763  -0.586 -1.8862 -2.2698  1.0040
  152SAPE   C2916788   1.864   1.781  -0.799 -0.0332  0.1315  1.0228
  152SAPE   H9R16789   1.966   1.819  -0.790  0.0237  0.8698 -1.8229
  152SAPE  C21016790   1.822   1.758  -0.946  0.1835 -0.0909 -0.0935
  152SAPE  H10R16791   1.798   1.856  -0.993  0.7957  1.4145  2.5397
  152SAPE  H10S16792   1.727   1.704  -0.965  0.6057 -0.4502 -1.2676
  152SAPE  C21116793   1.938   1.687  -1.017  0.0185 -0.2804 -0.3876
  152SAPE  H11R16794   2.012   1.644  -0.948  0.4298 -0.6783 -1.0684
  152SAPE  C21216795   1.953   1.673  -1.150 -0.3833 -0.8010  0.0987
  152SAPE  H12R16796   2.034   1.607  -1.184  1.5803  0.9421  1.1415
  152SAPE  C21316797   1.860   1.727  -1.260  0.0976 -0.4453 -0.6150
  152SAPE  H13R16798   1.936   1.781  -1.322  0.4001  1.5557  1.3480
  152SAPE  H13S16799   1.793   1.809  -1.228  1.2383 -0.0150  0.7971
  152SAPE  C21416800   1.791   1.627  -1.349  0.3838 -0.1684 -0.7875
  152SAPE  H14R16801   1.690   1.593  -1.320  0.8025 -2.3755 -1.7619
  152SAPE  C21516802   1.847   1.563  -1.457  0.1195 -0.5182  0.1578
  152SAPE  H15R16803   1.788   1.496  -1.522  1.2896  0.5276 -2.0525
  152SAPE  C21616804   1.978   1.584  -1.520 -0.2911  0.1130  0.0326
  152SAPE  H16R16805   2.062   1.515  -1.498  1.2842  1.2854 -1.8869
  152SAPE  H16S16806   2.013   1.687  -1.496  0.1887 -0.3553  1.4067
  152SAPE  C21716807   1.960   1.563  -1.673 -0.3076  0.4394 -0.2257
  152SAPE  H17R16808   1.914   1.463  -1.689 -1.6494  0.5832  2.1843
  152SAPE  H17S16809   2.058   1.567  -1.724  0.5457  1.6931  1.4082
  152SAPE  C21816810   1.875   1.676  -1.735 -0.4188 -0.1347 -0.3232
  152SAPE  H18R16811   1.904   1.779  -1.708  0.9402 -0.5629 -0.0815
  152SAPE  H18S16812   1.772   1.669  -1.694 -0.2754 -0.4194 -0.0006
  152SAPE  C21916813   1.863   1.672  -1.881 -0.5058  0.5195  0.2168
  152SAPE  H19R16814   1.823   1.576  -1.920 -0.3962  0.5812 -0.0576
  152SAPE  H19S16815   1.964   1.686  -1.928 -0.3737  0.7881  0.5765
  152SAPE  C22016816   1.773   1.788  -1.938 -0.1581  0.3391 -0.0955
  152SAPE  H20R16817   1.789   1.883  -1.882 -1.5112 -0.0753  1.0505
  152SAPE  H20S16818   1.668   1.772  -1.906  0.2856 -0.7596  0.9006
  152SAPE  H20T16819   1.782   1.792  -2.049 -1.1955  0.3870 -0.1888
  152SAPE   C3316820   2.377   1.998  -0.448  0.0757  0.0362 -0.0707
  152SAPE   H3X16821   2.365   2.041  -0.347 -0.7150  2.1461 -0.9962
  152SAPE   H3Y16822   2.286   2.024  -0.506 -0.0916  1.3894  0.7548
  152SAPE   C3416823   2.501   2.077  -0.509  0.8020 -1.2730 -0.3213
  152SAPE   H4X16824   2.594   2.065  -0.449  1.6364  0.0789 -1.2896
  152SAPE   H4Y16825   2.474   2.185  -0.502 -0.1188 -1.4531 -1.0148
  152SAPE   C3516826   2.535   2.044  -0.656  0.2391 -0.4852  0.4959
  152SAPE   H5X16827   2.564   1.937  -0.658 -1.6000 -1.0183 -0.6750
  152SAPE   H5Y16828   2.624   2.109  -0.669  0.0042 -0.2386  0.0528
  152SAPE   C3616829   2.428   2.067  -0.773 -0.0782 -0.4226  0.2856
  152SAPE   H6X16830   2.412   2.173  -0.803  0.3202 -0.4800 -0.1429
  152SAPE   H6Y16831   2.328   2.029  -0.742 -0.5713  0.5928 -0.0252
  152SAPE   C3716832   2.471   1.995  -0.903  0.0696  0.4104 -0.2761
  152SAPE   H7X16833   2.477   1.891  -0.866 -2.9839  0.8169  1.7189
  152SAPE   H7Y16834   2.568   2.030  -0.946 -0.2013 -0.5314 -1.7399
  152SAPE   C3816835   2.358   2.022  -1.021 -0.0436  0.2425  0.0381
  152SAPE   H8X16836   2.340   2.131  -1.032  0.6906  0.7066  2.7292
  152SAPE   H8Y16837   2.261   1.993  -0.977  0.1203 -2.4383 -1.1615
  152SAPE   C3916838   2.369   1.941  -1.146 -0.4139  0.1086 -0.4588
  152SAPE   H9X16839   2.390   1.835  -1.121  1.2299  1.0738  2.7844
  152SAPE   H9Y16840   2.463   1.968  -1.199  1.4549 -0.1950  2.4676
  152SAPE  C31016841   2.245   1.952  -1.229 -0.2088  0.0576 -0.2346
  152SAPE  H10X16842   2.233   2.058  -1.261  2.5939 -0.2192 -2.6057
  152SAPE  H10Y16843   2.161   1.915  -1.166 -1.3843  0.3902 -1.5661
  152SAPE  C31116844   2.239   1.874  -1.361  0.8606  0.0848  0.4508
  152SAPE  H11X16845   2.133   1.842  -1.375  0.8245  0.9855 -1.7451
  152SAPE  H11Y16846   2.303   1.784  -1.354  0.1486 -0.7733 -2.5672
  152SAPE  C31216847   2.280   1.955  -1.478 -0.0273  0.4585  0.9927
  152SAPE  H12X16848   2.390   1.961  -1.473  0.0658  0.3259 -0.5855
  152SAPE  H12Y16849   2.237   2.056  -1.466 -1.8371 -0.2318  0.6497
  152SAPE  C31316850   2.242   1.882  -1.612 -0.1533  0.0770 -0.0713
  152SAPE  H13X16851   2.132   1.885  -1.629 -0.5313  0.9774  2.1270
  152SAPE  H13Y16852   2.271   1.775  -1.609  2.7213  0.7428  3.2314
  152SAPE  C31416853   2.316   1.947  -1.733  0.0470  0.7459 -0.4210
  152SAPE  H14X16854   2.426   1.938  -1.725  0.1610  1.3368 -1.1814
  152SAPE  H14Y16855   2.300   2.057  -1.736 -1.8869  0.4889 -1.3948
  152SAPE  C31516856   2.273   1.899  -1.879 -0.2604  0.1735  0.2375
  152SAPE  H15X16857   2.162   1.907  -1.890 -0.1577 -1.2212 -2.6932
  152SAPE  H15Y16858   2.308   1.793  -1.880  1.7552  0.7984  0.6018
  152SAPE  C31616859   2.349   1.977  -1.989  0.1585  0.2108  0.1154
  152SAPE  H16X16860   2.453   1.939  -1.991 -0.3645 -1.3662 -2.6163
  152SAPE  H16Y16861   2.347   2.087  -1.973  0.2406  0.4216 -1.2012
  152SAPE  C31716862   2.307   1.954  -2.133  0.4792  0.1139 -0.7193
  152SAPE  H17X16863   2.380   2.007  -2.199  1.7158  2.9557  2.6288
  152SAPE  H17Y16864   2.206   1.988  -2.165  0.3294 -0.1782 -0.5645
  152SAPE  C31816865   2.297   1.802  -2.159  0.6693 -0.0222 -0.0650
  152SAPE  H18X16866   2.221   1.747  -2.099 -0.0250  2.0667  1.0681
  152SAPE  H18Y16867   2.396   1.758  -2.136  0.5979 -0.7547 -1.0533
  152SAPE  H18Z16868   2.276   1.777  -2.265  1.9828  0.3604 -0.4370
  153SAPE     N16869   2.871   1.600   0.211  0.0851  0.3667 -0.2203
  153SAPE   HN116870   2.808   1.683   0.215 -0.2154  0.1606 -0.5619
  153SAPE   HN216871   2.954   1.615   0.150 -0.4567  4.2768 -0.2460
  153SAPE   HN316872   2.809   1.521   0.183 -1.4441  0.9536  1.2735
  153SAPE   C1216873   2.913   1.568   0.342 -0.3076 -1.0241 -0.1341
  153SAPE  H12A16874   2.819   1.567   0.402 -0.2195 -1.3635  0.0020
  153SAPE  H12B16875   2.980   1.645   0.386 -1.3617 -1.2904  2.0858
  153SAPE   C1116876   2.970   1.421   0.352  1.0104  0.1918  0.3087
  153SAPE  H11A16877   2.982   1.394   0.459 -0.6162  0.1797  0.5053
  153SAPE  H11B16878   3.067   1.424   0.298 -0.2135 -0.3068 -2.0684
  153SAPE     P16879   2.923   1.229   0.174 -0.3156  0.5473 -0.5064
  153SAPE   O1316880   3.045   1.147   0.225  0.5189 -0.1407  0.2333
  153SAPE   O1416881   2.804   1.155   0.122  0.0337 -0.7333 -0.0900
  153SAPE   O1216882   2.875   1.332   0.286 -0.2873  0.1726  0.2175
  153SAPE   O1116883   2.966   1.328   0.055 -0.0737 -0.6480 -0.4556
  153SAPE    C116884   3.066   1.289  -0.036  0.2793 -0.0387 -0.0258
  153SAPE    HA16885   3.085   1.381  -0.095 -0.3657  0.2802  0.2551
  153SAPE    HB16886   3.157   1.272   0.026  0.0926  1.2014  0.6232
  153SAPE    C216887   3.038   1.183  -0.142  0.4652 -0.6416  0.8422
  153SAPE    HS16888   3.126   1.182  -0.210 -0.7547  1.0180 -0.8658
  153SAPE   O2116889   2.916   1.235  -0.202  0.0189  0.1804 -0.1132
  153SAPE   C2116890   2.907   1.223  -0.334  0.0959  0.4102 -0.0325
  153SAPE   O2216891   2.996   1.191  -0.413  1.0212 -0.2470  0.1542
  153SAPE   C2216892   2.761   1.253  -0.370  0.0758  0.2182 -0.1460
  153SAPE   H2R16893   2.723   1.177  -0.441 -1.0998  0.3878  0.2739
  153SAPE   H2S16894   2.692   1.233  -0.285  0.3383 -0.9420 -0.1945
  153SAPE    C316895   3.023   1.035  -0.097  0.4272  0.0055  0.1829
  153SAPE    HX16896   2.932   1.039  -0.033  0.0743  1.6873 -0.3842
  153SAPE    HY16897   3.109   0.996  -0.038  0.6178 -2.6264 -1.6275
  153SAPE   O3116898   2.997   0.947  -0.205  0.3747 -0.0990 -0.1199
  153SAPE   C3116899   3.008   0.817  -0.181  1.0981  0.2015 -0.0564
  153SAPE   O3216900   3.034   0.762  -0.076  0.7882  0.2726  0.8297
  153SAPE   C3216901   2.955   0.755  -0.310  0.2117 -0.0470 -0.5294
  153SAPE   H2X16902   2.895   0.828  -0.366 -0.2235  0.5179  0.6327
  153SAPE   H2Y16903   2.889   0.678  -0.265 -0.1484  1.6463  2.0880
  153SAPE   C2316904   2.726   1.388  -0.424 -0.6334  0.3744 -0.5421
  153SAPE   H3R16905   2.763   1.411  -0.526 -2.0897  1.3876 -0.8723
  153SAPE   H3S16906   2.776   1.462  -0.358  0.7336 -0.4006 -0.6803
  153SAPE   C2416907   2.577   1.422  -0.418 -0.5581  0.2017 -0.1275
  153SAPE   H4R16908   2.547   1.527  -0.439 -0.2149  0.0900 -1.2384
  153SAPE   H4S16909   2.537   1.405  -0.316  1.2789 -1.8716  0.3270
  153SAPE   C2516910   2.508   1.330  -0.514 -0.1487 -0.3446  1.1086
  153SAPE   H5R16911   2.506   1.222  -0.496  2.0637 -0.4911  0.8672
  153SAPE   C2616912   2.456   1.362  -0.635 -0.7718 -0.5106  0.1439
  153SAPE   H6R16913   2.406   1.281  -0.690 -2.6854  0.2887  0.6271
  153SAPE   C2716914   2.471   1.500  -0.699  0.0442  0.0451  0.4708
  153SAPE   H7R16915   2.569   1.513  -0.749  0.2317  1.2364  1.1076
  153SAPE   H7S16916   2.474   1.584  -0.626 -1.2473 -0.7302  1.4649
  153SAPE   C2816917   2.367   1.523  -0.806 -0.3577  0.1055  0.0088
  153SAPE   H8R16918   2.271   1.563  -0.770  0.5460  1.7476  0.7068
  153SAPE   C2916919   2.374   1.494  -0.937 -0.5878  0.4272 -0.3758
  153SAPE   H9R16920   2.288   1.520  -1.000 -2.5549  1.0697  2.3652
  153SAPE  C21016921   2.488   1.440  -1.020  0.0688  0.3341 -0.0065
  153SAPE  H10R16922   2.587   1.452  -0.971 -0.3240 -0.1791  0.9285
  153SAPE  H10S16923   2.489   1.498  -1.115 -0.8290 -0.1946 -0.3597
  153SAPE  C21116924   2.474   1.291  -1.030 -0.1142 -0.4359 -0.1144
  153SAPE  H11R16925   2.465   1.233  -0.937  0.8023 -1.0425 -0.3995
  153SAPE  C21216926   2.454   1.232  -1.151  0.5141  0.0881 -0.2102
  153SAPE  H12R16927   2.432   1.125  -1.156 -1.9307  0.5540 -0.2362
  153SAPE  C21316928   2.465   1.309  -1.281  0.0703 -0.5782 -0.5044
  153SAPE  H13R16929   2.550   1.376  -1.256  0.0903 -0.2632 -1.4074
  153SAPE  H13S16930   2.373   1.370  -1.290 -0.2828 -0.9059  0.6372
  153SAPE  C21416931   2.504   1.217  -1.389 -0.0661 -0.1710  0.2336
  153SAPE  H14R16932   2.593   1.154  -1.373  1.2646  1.1438 -1.5476
  153SAPE  C21516933   2.459   1.237  -1.515  0.4934  0.5881 -0.6109
  153SAPE  H15R16934   2.493   1.165  -1.591  2.2630  2.6075 -1.8162
  153SAPE  C21616935   2.355   1.330  -1.571 -0.1298 -0.2794  0.2941
  153SAPE  H16R16936   2.387   1.433  -1.544  1.8970 -1.1029  1.2112
  153SAPE  H16S16937   2.251   1.315  -1.535  0.1565 -2.2713  0.3889
  153SAPE  C21716938   2.372   1.323  -1.724 -0.7509 -0.2312 -0.1259
  153SAPE  H17R16939   2.333   1.228  -1.767 -1.1160  0.8106 -2.2718
  153SAPE  H17S16940   2.479   1.341  -1.745 -0.9544  1.7329  0.3573
  153SAPE  C21816941   2.304   1.446  -1.788 -0.1447  0.5085  0.7948
  153SAPE  H18R16942   2.321   1.522  -1.710  0.9546  0.1522  0.9122
  153SAPE  H18S16943   2.196   1.417  -1.787 -0.0027 -0.1468 -0.4991
  153SAPE  C21916944   2.345   1.490  -1.930  0.0728 -0.4095 -0.5899
  153SAPE  H19R16945   2.276   1.573  -1.955  0.4632  0.6109  1.5412
  153SAPE  H19S16946   2.305   1.409  -1.995  0.8993 -2.3168  1.1617
  153SAPE  C22016947   2.483   1.543  -1.954 -0.2384 -0.4331  0.5340
  153SAPE  H20R16948   2.495   1.633  -1.890 -2.3325  0.0136  0.3946
  153SAPE  H20S16949   2.492   1.564  -2.063 -1.3981  0.4140  0.5850
  153SAPE  H20T16950   2.559   1.463  -1.944 -2.3108 -2.7406 -0.8666
  153SAPE   C3316951   3.075   0.690  -0.388  0.4057 -0.2652 -0.2875
  153SAPE   H3X16952   3.026   0.621  -0.461  0.2774 -0.6253  0.1343
  153SAPE   H3Y16953   3.127   0.620  -0.319  1.2459 -0.1081 -0.7486
  153SAPE   C3416954   3.165   0.775  -0.473 -0.4537 -1.0253  0.5801
  153SAPE   H4X16955   3.234   0.704  -0.524  1.5792  0.6270  0.9002
  153SAPE   H4Y16956   3.228   0.845  -0.415 -0.0031  1.8721 -3.0610
  153SAPE   C3516957   3.108   0.869  -0.575 -0.9602 -0.5208  0.4722
  153SAPE   H5X16958   3.191   0.928  -0.621 -1.8653 -0.0039 -0.5387
  153SAPE   H5Y16959   3.029   0.942  -0.548 -0.1129  0.4194  0.4677
  153SAPE   C3616960   3.054   0.795  -0.701  0.9360  0.0414 -0.3842
  153SAPE   H6X16961   2.959   0.742  -0.682 -0.8208  3.1938  0.2229
  153SAPE   H6Y16962   3.127   0.714  -0.725  0.2002 -0.5561 -0.6247
  153SAPE   C3716963   3.045   0.896  -0.808 -0.4260 -0.0731  0.0684
  153SAPE   H7X16964   3.148   0.935  -0.824 -0.1019 -1.4080 -1.3209
  153SAPE   H7Y16965   2.983   0.986  -0.787  1.3882  0.7631  2.1413
  153SAPE   C3816966   2.989   0.825  -0.928  0.3788  0.4918  0.4210
  153SAPE   H8X16967   2.903   0.769  -0.885 -0.2201 -0.9847 -2.4276
  153SAPE   H8Y16968   3.056   0.752  -0.979 -0.8405  0.9584 -2.0051
  153SAPE   C3916969   2.941   0.925  -1.029 -0.1338 -0.0402  0.8305
  153SAPE   H9X16970   3.019   0.996  -1.063 -0.5557  1.3540  2.6246
  153SAPE   H9Y16971   2.854   0.986  -0.995 -1.0417 -0.3976 -0.7650
  153SAPE  C31016972   2.883   0.861  -1.163 -0.0176  0.2071  0.9508
  153SAPE  H10X16973   2.794   0.796  -1.151  0.6538 -0.8653  0.3025
  153SAPE  H10Y16974   2.963   0.801  -1.212 -0.7120 -1.7194  2.0671
  153SAPE  C31116975   2.824   0.976  -1.244 -0.2040 -0.3872 -0.6259
  153SAPE  H11X16976   2.902   1.053  -1.264 -0.8865  0.9757  1.5719
  153SAPE  H11Y16977   2.741   1.021  -1.185  1.1638  1.7295 -0.1871
  153SAPE  C31216978   2.776   0.932  -1.380  0.7478 -0.0265  0.2174
  153SAPE  H12X16979   2.863   0.880  -1.424  0.3705  1.8625 -3.0451
  153SAPE  H12Y16980   2.752   1.020  -1.443  1.2485 -0.7696 -1.0550
  153SAPE  C31316981   2.655   0.841  -1.378 -0.1849 -0.1677  0.0885
  153SAPE  H13X16982   2.568   0.884  -1.324 -0.3393  0.4971 -0.6698
  153SAPE  H13Y16983   2.678   0.750  -1.319 -0.3043 -0.5087 -0.3919
  153SAPE  C31416984   2.620   0.798  -1.516  0.2404 -0.6398 -0.6247
  153SAPE  H14X16985   2.698   0.728  -1.555 -2.1835 -3.5145 -0.7174
  153SAPE  H14Y16986   2.613   0.885  -1.584 -2.3231 -2.5131 -3.0181
  153SAPE  C31516987   2.471   0.743  -1.521 -0.4366 -0.3380 -0.2404
  153SAPE  H15X16988   2.399   0.827  -1.519  2.2000  2.1108 -0.8981
  153SAPE  H15Y16989   2.450   0.672  -1.438 -1.3241  0.7458  0.5022
  153SAPE  C31616990   2.453   0.685  -1.657  1.0947 -0.0882  0.3113
  153SAPE  H16X16991   2.532   0.608  -1.667 -0.3861 -1.5135 -0.8907
  153SAPE  H16Y16992   2.470   0.767  -1.731 -0.1564 -0.2243 -0.1601
  153SAPE  C31716993   2.318   0.601  -1.675  0.0486 -0.1819 -0.3523
  153SAPE  H17X16994   2.239   0.679  -1.663  1.7467  1.7336 -0.9271
  153SAPE  H17Y16995   2.300   0.521  -1.600 -0.4593  0.2087 -0.0488
  153SAPE  C31816996   2.299   0.532  -1.808 -0.6594  0.4485 -0.2152
  153SAPE  H18X16997   2.364   0.444  -1.827  3.3006  2.6050  1.9869
  153SAPE  H18Y16998   2.319   0.598  -1.895  0.8254  0.6396  0.2548
  153SAPE  H18Z16999   2.189   0.521  -1.822 -1.0328  0.8599  2.0404
  154SAPE     N17000   3.220   3.926   8.479 -0.8947  0.4275 -0.0632
  154SAPE   HN117001   3.272   4.009   8.515  1.4880 -1.2531  0.6730
  154SAPE   HN217002   3.164   3.885   8.556 -0.0245 -1.3724 -0.3406
  154SAPE   HN317003   3.294   3.857   8.454 -0.8131 -0.2205  1.8789
  154SAPE   C1217004   3.137   3.968   8.364  0.3633  0.1652  0.1687
  154SAPE  H12A17005   3.062   4.025   8.422  1.3932  1.8664 -0.0891
  154SAPE  H12B17006   3.091   3.874   8.327  2.0102 -0.9287  0.7861
  154SAPE   C1117007   3.213   4.043   8.260  0.4978 -0.4618 -0.2890
  154SAPE  H11A17008   3.146   4.095   8.188 -0.2182  1.5669  1.7397
  154SAPE  H11B17009   3.283   3.972   8.211  1.7230  1.0773 -0.8599
  154SAPE     P17010   3.272   4.297   8.308 -0.1202 -0.2878 -0.1272
  154SAPE   O1317011   3.130   4.320   8.332  0.3694 -0.4883  0.1317
  154SAPE   O1417012   3.362   4.363   8.404 -0.0339  0.3435  0.6941
  154SAPE   O1217013   3.295   4.144   8.327  0.4620  0.0416  0.0107
  154SAPE   O1117014   3.311   4.332   8.158  0.4393  0.3220  0.3086
  154SAPE    C117015   3.361   4.460   8.119  0.1189  0.1358  0.0362
  154SAPE    HA17016   3.444   4.491   8.186 -1.3324  2.8998  0.6815
  154SAPE    HB17017   3.395   4.462   8.013 -1.1740 -2.3228 -0.5028
  154SAPE    C217018   3.257   4.576   8.121 -0.3979 -0.3802 -0.1909
  154SAPE    HS17019   3.199   4.575   8.215 -0.0684 -1.4520  0.0105
  154SAPE   O2117020   3.156   4.537   8.024  0.0884 -0.7535 -0.2586
  154SAPE   C2117021   3.055   4.622   8.007  0.3118  0.7979 -0.0063
  154SAPE   O2217022   3.030   4.722   8.068  0.4204  0.5821 -0.1655
  154SAPE   C2217023   2.980   4.577   7.877 -0.5537 -0.3662 -0.0893
  154SAPE   H2R17024   2.901   4.506   7.909  0.8766 -2.7987 -1.6729
  154SAPE   H2S17025   2.931   4.672   7.846 -0.5625 -0.9499 -1.9589
  154SAPE    C317026   3.326   4.723   8.097  0.2027  0.0737  0.1270
  154SAPE    HX17027   3.388   4.732   8.189  0.3449 -0.3391  0.0760
  154SAPE    HY17028   3.241   4.794   8.094 -0.7414 -1.0733 -1.0448
  154SAPE   O3117029   3.402   4.721   7.980  0.2019  0.5657  0.4732
  154SAPE   C3117030   3.513   4.810   7.980  0.4770 -0.1004  0.1768
  154SAPE   O3217031   3.538   4.883   8.074  0.2434  0.4435 -0.0299
  154SAPE   C3217032   3.595   4.780   7.857 -0.0454 -0.4264  0.3437
  154SAPE   H2X17033   3.526   4.743   7.778  0.3021 -3.6313  1.3702
  154SAPE   H2Y17034   3.663   4.693   7.873 -0.4932 -0.8388  0.0478
  154SAPE   C2317035   3.078   4.540   7.770 -0.0315 -0.7283 -0.1576
  154SAPE   H3R17036   3.119   4.443   7.806 -0.6133 -0.9473 -0.0761
  154SAPE   H3S17037   3.170   4.600   7.751 -1.5308  1.5543 -0.5984
  154SAPE   C2417038   3.010   4.502   7.636  0.3283 -0.1025 -0.5260
  154SAPE   H4R17039   2.917   4.448   7.663  0.3492  0.5773  0.9959
  154SAPE   H4S17040   3.067   4.435   7.569  0.8074  2.7494 -3.2446
  154SAPE   C2517041   2.968   4.627   7.562  0.0438 -0.0099 -0.0886
  154SAPE   H5R17042   2.911   4.706   7.614  1.0812  1.2671 -0.8644
  154SAPE   C2617043   2.982   4.657   7.431  1.4511  0.7454 -0.3915
  154SAPE   H6R17044   2.947   4.755   7.395  0.7391  0.6535  0.0494
  154SAPE   C2717045   3.047   4.572   7.321  0.4283  0.7603 -0.2763
  154SAPE   H7R17046   2.975   4.490   7.301  0.6498  0.6873 -0.8075
  154SAPE   H7S17047   3.134   4.519   7.367 -0.2587  1.1478  1.5639
  154SAPE   C2817048   3.068   4.647   7.197 -0.2992  1.1355  0.1682
  154SAPE   H8R17049   3.049   4.755   7.203 -2.2221  1.0964 -2.8527
  154SAPE   C2917050   3.102   4.593   7.081  0.2712  0.5023  0.1187
  154SAPE   H9R17051   3.111   4.656   6.991 -3.3399  0.4599 -0.4177
  154SAPE  C21017052   3.127   4.450   7.046 -0.0178  0.7673 -0.4011
  154SAPE  H10R17053   3.157   4.388   7.133  0.3565 -0.4704 -1.3682
  154SAPE  H10S17054   3.221   4.436   6.987  0.6718  0.4631  0.7416
  154SAPE  C21117055   3.004   4.382   6.979 -0.6280  0.5586  0.3987
  154SAPE  H11R17056   2.920   4.373   7.049  0.5890 -2.1789  1.6537
  154SAPE  C21217057   2.993   4.345   6.852  0.6796  0.3376 -0.1462
  154SAPE  H12R17058   2.902   4.294   6.815 -1.7403  2.1986  2.7689
  154SAPE  C21317059   3.104   4.346   6.742 -0.2791  0.0136 -0.1345
  154SAPE  H13R17060   3.162   4.252   6.737  0.2391  0.3946 -2.7999
  154SAPE  H13S17061   3.173   4.427   6.773  0.2564 -0.3368 -0.4076
  154SAPE  C21417062   3.055   4.387   6.606  0.0327  0.5596 -0.2259
  154SAPE  H14R17063   3.018   4.491   6.603 -1.3402  0.3003  3.0045
  154SAPE  C21517064   3.066   4.312   6.495  0.4151 -0.2375 -0.2589
  154SAPE  H15R17065   3.026   4.349   6.399  1.6759  0.0826 -0.6782
  154SAPE  C21617066   3.119   4.169   6.489  0.3027 -0.3639 -0.0902
  154SAPE  H16R17067   3.030   4.103   6.479  0.8947 -1.3266  0.7895
  154SAPE  H16S17068   3.173   4.131   6.578  2.4258  2.1576 -0.2029
  154SAPE  C21717069   3.218   4.124   6.372  0.0083 -0.1242  0.0637
  154SAPE  H17R17070   3.314   4.181   6.370  1.8136 -2.8980  1.5087
  154SAPE  H17S17071   3.171   4.128   6.271  1.9187 -1.9648 -0.9739
  154SAPE  C21817072   3.255   3.979   6.376  0.5063  0.2257 -0.0445
  154SAPE  H18R17073   3.161   3.925   6.398 -0.3679  1.7721  0.1627
  154SAPE  H18S17074   3.334   3.953   6.450 -0.6839  0.0190  1.1960
  154SAPE  C21917075   3.311   3.924   6.244 -0.0457  0.1315  0.3063
  154SAPE  H19R17076   3.315   4.002   6.164  2.0815 -1.4281 -1.2275
  154SAPE  H19S17077   3.239   3.852   6.201 -0.1316  0.3099  0.1511
  154SAPE  C22017078   3.446   3.850   6.251  0.1281  0.0298 -0.3780
  154SAPE  H20R17079   3.523   3.922   6.285 -0.1881  0.8355 -1.3504
  154SAPE  H20S17080   3.474   3.820   6.148 -1.1830 -1.9701 -0.2175
  154SAPE  H20T17081   3.434   3.767   6.325 -1.5505  0.6111  0.0463
  154SAPE   C3317082   3.676   4.892   7.798  0.2248 -0.5158 -0.1121
  154SAPE   H3X17083   3.764   4.932   7.851 -0.4712 -0.3122  0.9263
  154SAPE   H3Y17084   3.611   4.980   7.782  2.9494  1.7032  0.3771
  154SAPE   C3417085   3.725   4.863   7.654 -0.5416  0.2676 -0.6694
  154SAPE   H4X17086   3.734   4.961   7.603 -0.7729  0.4924 -0.2852
  154SAPE   H4Y17087   3.644   4.798   7.613  0.3744 -1.1676 -0.2944
  154SAPE   C3517088   3.865   4.797   7.653  0.0239 -0.3395 -0.4211
  154SAPE   H5X17089   3.852   4.688   7.672 -1.1221 -0.2037 -0.3280
  154SAPE   H5Y17090   3.933   4.836   7.732  0.2605  1.7868 -1.5925
  154SAPE   C3617091   3.929   4.808   7.509  0.5776  0.0324  0.6589
  154SAPE   H6X17092   3.979   4.906   7.491 -0.5865  0.3309 -1.2273
  154SAPE   H6Y17093   3.841   4.816   7.442  0.8886  0.0059  0.2442
  154SAPE   C3717094   4.014   4.687   7.471 -0.1689 -0.0408  0.9219
  154SAPE   H7X17095   3.949   4.601   7.446 -1.4012  0.8603  0.9473
  154SAPE   H7Y17096   4.074   4.654   7.559 -0.0824 -3.2080 -0.1869
  154SAPE   C3817097   4.111   4.723   7.358  0.5294  0.5465  0.6555
  154SAPE   H8X17098   4.186   4.642   7.342 -0.2843 -0.4404  1.7311
  154SAPE   H8Y17099   4.157   4.821   7.385 -0.0617  0.1298  3.4333
  154SAPE   C3917100   4.040   4.727   7.219 -0.3576  0.4310  0.5266
  154SAPE   H9X17101   3.949   4.791   7.227 -1.7184 -1.3485 -0.0034
  154SAPE   H9Y17102   4.013   4.622   7.199 -0.5715 -0.0584  3.0591
  154SAPE  C31017103   4.134   4.774   7.105 -0.1583  0.0714  0.1634
  154SAPE  H10X17104   4.206   4.692   7.086  0.3455  0.6511 -0.4603
  154SAPE  H10Y17105   4.191   4.860   7.146  0.9325 -1.2195  1.4644
  154SAPE  C31117106   4.065   4.813   6.977  0.0795 -0.7399  0.1494
  154SAPE  H11X17107   3.983   4.885   6.999  1.6933  0.7901  1.4681
  154SAPE  H11Y17108   4.042   4.713   6.936 -1.7600 -0.8409  1.3271
  154SAPE  C31217109   4.157   4.893   6.880  0.1626 -0.3367 -0.2457
  154SAPE  H12X17110   4.252   4.835   6.886 -0.7574 -1.7600  2.2353
  154SAPE  H12Y17111   4.180   4.991   6.926  0.3155 -0.8478  0.7962
  154SAPE  C31317112   4.097   4.894   6.738 -0.1255 -0.1998 -0.2458
  154SAPE  H13X17113   4.008   4.960   6.736  1.4702  2.0845 -2.4662
  154SAPE  H13Y17114   4.058   4.791   6.720 -0.6979 -0.6925  3.0850
  154SAPE  C31417115   4.203   4.924   6.627 -0.5316  0.4405 -0.5192
  154SAPE  H14X17116   4.129   4.954   6.549 -0.6103  3.1034  0.4902
  154SAPE  H14Y17117   4.281   4.854   6.592  0.9285  2.6474 -1.9132
  154SAPE  C31517118   4.284   5.056   6.650 -0.0370 -0.3884  0.8772
  154SAPE  H15X17119   4.334   5.040   6.748  1.7236 -0.6984 -0.0262
  154SAPE  H15Y17120   4.200   5.127   6.646 -1.6982 -2.2649 -2.5966
  154SAPE  C31617121   4.394   5.095   6.547  0.0636 -0.1308 -0.4621
  154SAPE  H16X17122   4.338   5.117   6.453 -0.4278 -2.3512 -0.7403
  154SAPE  H16Y17123   4.465   5.013   6.523  0.2118 -0.0972 -0.1415
  154SAPE  C31717124   4.472   5.216   6.603 -0.2721 -0.0905  0.1943
  154SAPE  H17X17125   4.540   5.255   6.524 -1.1117 -0.3733 -0.6774
  154SAPE  H17Y17126   4.551   5.190   6.677  0.9241 -0.1116 -1.0452
  154SAPE  C31817127   4.394   5.340   6.658  0.2326  0.0878  0.2723
  154SAPE  H18X17128   4.322   5.316   6.740 -0.7295  1.0628 -0.2627
  154SAPE  H18Y17129   4.330   5.396   6.586  1.9755  0.1033 -1.3501
  154SAPE  H18Z17130   4.472   5.412   6.692  1.4811 -1.8964  1.8388
  155SAPE     N17131   2.604   5.603   0.183  0.1368 -0.0682 -0.4373
  155SAPE   HN117132   2.581   5.686   0.125  0.6399 -0.9356 -1.9269
  155SAPE   HN217133   2.566   5.610   0.280 -2.6703  0.1396 -1.4475
  155SAPE   HN317134   2.707   5.604   0.197  0.0166  0.2773  0.5071
  155SAPE   C1217135   2.559   5.497   0.098  0.3014 -0.5719 -0.6614
  155SAPE  H12A17136   2.629   5.499   0.012 -0.0224 -1.8717 -0.9791
  155SAPE  H12B17137   2.454   5.512   0.064  0.4257 -3.5553 -2.7055
  155SAPE   C1117138   2.577   5.358   0.162 -0.2496 -0.3168 -0.1060
  155SAPE  H11A17139   2.682   5.351   0.199 -0.4406  0.1171  0.5293
  155SAPE  H11B17140   2.576   5.293   0.071 -1.5442  1.0774 -1.1299
  155SAPE     P17141   2.457   5.191   0.320  0.1169 -0.4476  0.4315
  155SAPE   O1317142   2.588   5.127   0.342  0.3885  0.4101 -0.3075
  155SAPE   O1417143   2.364   5.199   0.439 -0.1338  0.1525 -0.2721
  155SAPE   O1217144   2.476   5.336   0.259 -0.3420  0.4556  0.4021
  155SAPE   O1117145   2.387   5.125   0.192 -0.5689  0.2787 -0.1485
  155SAPE    C117146   2.417   4.987   0.161  0.2711 -0.3653 -0.8861
  155SAPE    HA17147   2.527   4.980   0.148  0.7549  0.9309  1.8346
  155SAPE    HB17148   2.389   4.921   0.246 -0.7266  1.4559  0.2536
  155SAPE    C217149   2.345   4.953   0.023 -0.9526  0.1498  0.1045
  155SAPE    HS17150   2.374   4.850  -0.006 -2.3843 -0.0330 -0.7544
  155SAPE   O2117151   2.382   5.053  -0.071 -0.2184  0.1049  0.3216
  155SAPE   C2117152   2.499   5.046  -0.130  0.9434  0.0901  0.9260
  155SAPE   O2217153   2.580   4.956  -0.119 -0.1630  0.2451  0.0377
  155SAPE   C2217154   2.527   5.182  -0.202  0.2460 -0.0206 -0.0754
  155SAPE   H2R17155   2.439   5.247  -0.178  0.7979 -0.0727  2.3600
  155SAPE   H2S17156   2.613   5.220  -0.143 -0.5898 -0.1286  1.2697
  155SAPE    C317157   2.192   4.940   0.025 -0.5795 -0.3058  0.5731
  155SAPE    HX17158   2.161   5.022   0.094  0.4033 -0.2983  1.0263
  155SAPE    HY17159   2.159   4.844   0.070 -3.1670  0.4932  0.5787
  155SAPE   O3117160   2.141   4.939  -0.105  0.3038  0.3320  0.3364
  155SAPE   C3117161   2.067   5.039  -0.153 -0.9181  0.0277  0.0908
  155SAPE   O3217162   2.039   5.139  -0.093  0.2212  0.2197  0.4682
  155SAPE   C3217163   2.025   4.993  -0.292  0.2710 -0.0731  0.0499
  155SAPE   H2X17164   1.950   4.912  -0.278  0.8805 -0.9650 -1.6159
  155SAPE   H2Y17165   2.103   4.945  -0.355  1.1659  0.2527  0.8889
  155SAPE   C2317166   2.566   5.159  -0.350 -0.0244 -0.2521 -0.1709
  155SAPE   H3R17167   2.619   5.065  -0.378  0.5271  0.2348 -0.8024
  155SAPE   H3S17168   2.631   5.247  -0.370  0.9359 -0.1284  3.0279
  155SAPE   C2417169   2.435   5.157  -0.427 -0.5704 -0.2767  0.5204
  155SAPE   H4R17170   2.370   5.086  -0.372  1.7746 -1.8791  1.3743
  155SAPE   H4S17171   2.471   5.123  -0.527  2.8232  0.7638  1.2471
  155SAPE   C2517172   2.359   5.282  -0.444  0.4752  0.1229  0.3069
  155SAPE   H5R17173   2.295   5.305  -0.358  0.3035  1.8021 -0.2302
  155SAPE   C2617174   2.344   5.361  -0.553  0.7573  0.5066  1.0435
  155SAPE   H6R17175   2.269   5.441  -0.551 -0.2099 -0.3498  0.4199
  155SAPE   C2717176   2.415   5.337  -0.682 -0.2605  0.4270 -0.3687
  155SAPE   H7R17177   2.500   5.268  -0.663 -0.2784  0.5677  0.2295
  155SAPE   H7S17178   2.462   5.429  -0.724 -0.7613  0.8319 -0.0385
  155SAPE   C2817179   2.332   5.267  -0.786  0.4899  0.4788 -0.0434
  155SAPE   H8R17180   2.277   5.178  -0.753  1.2026 -0.0744 -0.2928
  155SAPE   C2917181   2.321   5.291  -0.922  0.2234 -0.3702  0.2430
  155SAPE   H9R17182   2.260   5.231  -0.991 -1.1596  1.7436 -0.4584
  155SAPE  C21017183   2.387   5.416  -0.986 -0.0671  1.2079  0.4875
  155SAPE  H10R17184   2.377   5.507  -0.923 -0.5576  1.3872  0.1600
  155SAPE  H10S17185   2.306   5.446  -1.057  0.7308  2.5251  0.0967
  155SAPE  C21117186   2.524   5.396  -1.050 -0.3352  0.0008  0.1332
  155SAPE  H11R17187   2.604   5.399  -0.973  0.3661  0.8309 -0.6046
  155SAPE  C21217188   2.554   5.387  -1.182 -0.2455  0.4933  0.0052
  155SAPE  H12R17189   2.653   5.370  -1.226 -0.5873 -1.3396 -0.1303
  155SAPE  C21317190   2.446   5.363  -1.286  0.0970  0.6251  0.6720
  155SAPE  H13R17191   2.446   5.452  -1.353  3.4956  1.7452  1.9959
  155SAPE  H13S17192   2.348   5.354  -1.234 -1.2894  1.7249 -1.6040
  155SAPE  C21417193   2.459   5.241  -1.365  0.0213 -0.6672  0.3978
  155SAPE  H14R17194   2.388   5.165  -1.332 -2.1279  1.1807  0.2476
  155SAPE  C21517195   2.525   5.216  -1.482 -0.1820 -0.1369 -0.5751
  155SAPE  H15R17196   2.523   5.114  -1.524 -2.4089 -0.8286  1.0340
  155SAPE  C21617197   2.607   5.315  -1.557 -0.2238  0.1771 -0.1911
  155SAPE  H16R17198   2.708   5.312  -1.511 -0.9049  2.6581  1.6400
  155SAPE  H16S17199   2.560   5.416  -1.555  0.2165  0.4193  2.7816
  155SAPE  C21717200   2.622   5.279  -1.710 -0.4561 -0.1108  0.1015
  155SAPE  H17R17201   2.647   5.172  -1.729  0.2400  0.2643 -1.1549
  155SAPE  H17S17202   2.706   5.333  -1.756 -0.1316 -0.4905  0.2412
  155SAPE  C21817203   2.492   5.305  -1.792 -0.2987  1.0670 -0.8649
  155SAPE  H18R17204   2.452   5.406  -1.770 -1.4383  0.2519  1.0667
  155SAPE  H18S17205   2.418   5.234  -1.749  1.6919  0.4430  1.7682
  155SAPE  C21917206   2.513   5.283  -1.936  0.0363  0.3118 -0.2611
  155SAPE  H19R17207   2.417   5.258  -1.986  0.1888  0.9408 -0.8985
  155SAPE  H19S17208   2.563   5.187  -1.958 -0.9056  0.0748 -1.5248
  155SAPE  C22017209   2.590   5.393  -2.008  0.7827  0.4051 -0.1468
  155SAPE  H20R17210   2.698   5.400  -1.983  0.5059 -0.2160  1.3577
  155SAPE  H20S17211   2.533   5.488  -2.007 -1.7028 -1.0033  0.9013
  155SAPE  H20T17212   2.584   5.365  -2.115 -0.0709 -1.7540  0.4147
  155SAPE   C3317213   1.938   5.097  -0.372  0.4097  0.0556 -1.2478
  155SAPE   H3X17214   1.956   5.205  -0.353 -1.3275  0.4181 -1.5060
  155SAPE   H3Y17215   1.836   5.089  -0.329  0.5610  0.2291 -0.8546
  155SAPE   C3417216   1.945   5.068  -0.522 -0.1652 -0.0101  0.5586
  155SAPE   H4X17217   1.954   4.957  -0.528  2.1508  0.1957 -0.9277
  155SAPE   H4Y17218   2.027   5.126  -0.569 -0.4372 -0.3847 -0.3936
  155SAPE   C3517219   1.820   5.109  -0.594 -0.2652 -0.6278 -0.0425
  155SAPE   H5X17220   1.830   5.219  -0.606 -1.7126 -0.5137 -0.2976
  155SAPE   H5Y17221   1.733   5.085  -0.530 -0.5979  1.4394  0.3461
  155SAPE   C3617222   1.808   5.033  -0.732 -0.6194 -0.1710  0.1411
  155SAPE   H6X17223   1.725   5.085  -0.785 -1.3299  0.0062  1.4061
  155SAPE   H6Y17224   1.790   4.924  -0.719  1.1116 -0.6461 -0.9845
  155SAPE   C3717225   1.929   5.035  -0.822 -0.6768  0.6209 -1.1228
  155SAPE   H7X17226   2.000   4.963  -0.777  0.3246  1.7537 -0.8158
  155SAPE   H7Y17227   1.971   5.138  -0.820 -1.7949  1.2071 -3.7812
  155SAPE   C3817228   1.907   4.997  -0.967  0.0587 -0.4574  0.0747
  155SAPE   H8X17229   1.859   5.087  -1.010  0.1900 -0.6613 -0.5161
  155SAPE   H8Y17230   1.831   4.916  -0.979 -3.6607  3.0192 -2.3770
  155SAPE   C3917231   2.041   4.965  -1.030  0.3411  0.1363  0.0026
  155SAPE   H9X17232   2.109   5.052  -1.029  1.6340 -0.8487  0.1815
  155SAPE   H9Y17233   2.010   4.935  -1.133 -2.1198 -1.8104  1.2008
  155SAPE  C31017234   2.109   4.833  -0.980  0.0372 -0.3198  0.9154
  155SAPE  H10X17235   2.028   4.760  -0.960 -0.1206 -0.0096  1.4143
  155SAPE  H10Y17236   2.155   4.865  -0.885  0.9378  0.8031  0.1306
  155SAPE  C31117237   2.212   4.761  -1.069 -0.3758  0.4975  0.5127
  155SAPE  H11X17238   2.152   4.694  -1.133 -1.1227  0.4116  1.2906
  155SAPE  H11Y17239   2.262   4.691  -0.998 -0.0959 -1.1044 -1.1714
  155SAPE  C31217240   2.316   4.851  -1.143 -0.0986  0.9313 -1.5460
  155SAPE  H12X17241   2.375   4.915  -1.074  1.4896 -0.6730 -1.3129
  155SAPE  H12Y17242   2.255   4.913  -1.212  0.6188  0.7387 -2.3720
  155SAPE  C31317243   2.420   4.768  -1.211 -0.4010  0.7142  0.2102
  155SAPE  H13X17244   2.365   4.705  -1.284  2.5035  0.2181 -1.6819
  155SAPE  H13Y17245   2.444   4.692  -1.134 -2.8241 -1.1034 -0.7128
  155SAPE  C31417246   2.528   4.842  -1.288 -0.4688  0.2973  0.1112
  155SAPE  H14X17247   2.600   4.878  -1.210  1.9310  1.5110 -2.4737
  155SAPE  H14Y17248   2.477   4.926  -1.339  2.0589  0.4693 -2.3782
  155SAPE  C31517249   2.595   4.745  -1.396 -0.2700 -0.0588 -0.2784
  155SAPE  H15X17250   2.517   4.682  -1.444 -0.1700 -1.9836  1.9196
  155SAPE  H15Y17251   2.662   4.694  -1.324 -1.4075  1.9396  2.3708
  155SAPE  C31617252   2.685   4.826  -1.488  0.7205 -0.5265 -0.3774
  155SAPE  H16X17253   2.772   4.859  -1.428  0.2095 -0.7540  0.5003
  155SAPE  H16Y17254   2.634   4.911  -1.537  2.5794  0.2439 -1.0786
  155SAPE  C31717255   2.751   4.739  -1.593  0.2756  0.4734  0.3960
  155SAPE  H17X17256   2.681   4.677  -1.654 -1.7758  0.7616  2.3369
  155SAPE  H17Y17257   2.807   4.664  -1.532  0.2427 -1.0128 -1.3077
  155SAPE  C31817258   2.848   4.814  -1.674  0.5911 -0.0854 -0.1026
  155SAPE  H18X17259   2.787   4.890  -1.728 -1.2423 -0.3536  1.4687
  155SAPE  H18Y17260   2.899   4.753  -1.751  0.5278  2.7802 -2.6127
  155SAPE  H18Z17261   2.931   4.856  -1.613 -0.0981  2.3416 -0.6981
  156SAPE     N17262   2.501   6.830   0.445 -0.5816  0.2076 -0.1127
  156SAPE   HN117263   2.518   6.857   0.346  3.1643  0.9583  0.5823
  156SAPE   HN217264   2.577   6.761   0.462 -0.8555 -0.3912 -1.2338
  156SAPE   HN317265   2.411   6.778   0.449  0.1056 -1.1286 -1.2979
  156SAPE   C1217266   2.530   6.944   0.548  0.1323 -0.4357  0.3056
  156SAPE  H12A17267   2.641   6.948   0.556  0.0498  0.2814  1.2131
  156SAPE  H12B17268   2.499   6.918   0.652  2.2039  0.5814  1.2310
  156SAPE   C1117269   2.469   7.070   0.489  0.3619  0.4875 -0.2555
  156SAPE  H11A17270   2.510   7.152   0.552  0.2216  0.8764 -0.6715
  156SAPE  H11B17271   2.359   7.070   0.504 -0.2337 -1.7302 -3.5699
  156SAPE     P17272   2.455   7.235   0.292  0.3437 -0.2837 -0.0010
  156SAPE   O1317273   2.308   7.219   0.265  0.1632  0.5664 -0.5890
  156SAPE   O1417274   2.505   7.356   0.364 -0.0084 -0.3697  0.8306
  156SAPE   O1217275   2.499   7.100   0.356 -0.1271 -0.6436 -0.3803
  156SAPE   O1117276   2.532   7.232   0.147  0.4332  0.1170  0.0903
  156SAPE    C117277   2.575   7.111   0.087  0.0233 -0.6350 -0.3722
  156SAPE    HA17278   2.670   7.080   0.135  1.1294  3.8008  0.6890
  156SAPE    HB17279   2.494   7.035   0.091 -1.7397  1.1623 -0.5717
  156SAPE    C217280   2.604   7.128  -0.074 -0.2475 -0.2778  0.0589
  156SAPE    HS17281   2.676   7.212  -0.084  0.2157 -0.7008 -0.2709
  156SAPE   O2117282   2.480   7.134  -0.147 -0.2557 -0.3793  0.3543
  156SAPE   C2117283   2.495   7.211  -0.257  0.0046 -0.2910 -0.6956
  156SAPE   O2217284   2.602   7.256  -0.298 -0.3632 -0.0798 -0.4051
  156SAPE   C2217285   2.358   7.250  -0.307  0.8548 -0.3747 -0.9049
  156SAPE   H2R17286   2.273   7.182  -0.285 -0.1417  1.4306  1.1575
  156SAPE   H2S17287   2.331   7.355  -0.280  0.4822 -1.2035  2.4167
  156SAPE    C317288   2.681   6.999  -0.129 -0.2921 -0.3460 -0.4279
  156SAPE    HX17289   2.610   6.916  -0.149  0.1036 -1.0724  1.0066
  156SAPE    HY17290   2.754   6.971  -0.049 -0.5227  0.1224 -0.0480
  156SAPE   O3117291   2.746   7.024  -0.254 -0.1735 -0.1292 -0.3342
  156SAPE   C3117292   2.855   7.096  -0.264  0.0417  0.1699  0.2698
  156SAPE   O3217293   2.913   7.145  -0.167 -0.3605 -0.2444  0.1559
  156SAPE   C3217294   2.894   7.124  -0.411  0.0077  0.0978  0.2312
  156SAPE   H2X17295   2.858   7.229  -0.417  0.7178  0.5469  2.6611
  156SAPE   H2Y17296   2.823   7.071  -0.478 -1.5313  2.0437  0.2204
  156SAPE   C2317297   2.366   7.254  -0.460 -0.2068 -0.9291  0.2334
  156SAPE   H3R17298   2.400   7.161  -0.510 -1.0065 -0.7695 -0.6374
  156SAPE   H3S17299   2.429   7.344  -0.479  1.7904 -2.0148  1.4307
  156SAPE   C2417300   2.219   7.275  -0.519  0.3284  0.0292 -0.6532
  156SAPE   H4R17301   2.161   7.183  -0.496  0.2266  0.4347  0.8218
  156SAPE   H4S17302   2.235   7.280  -0.629  1.8230 -0.9779 -0.4995
  156SAPE   C2517303   2.151   7.408  -0.476  0.0774  0.0120  0.5663
  156SAPE   H5R17304   2.193   7.466  -0.392 -2.0087 -1.9277  3.1234
  156SAPE   C2617305   2.026   7.436  -0.509  0.3806  0.4319 -0.6407
  156SAPE   H6R17306   1.979   7.528  -0.471 -1.1510 -0.8578  0.7717
  156SAPE   C2717307   1.938   7.359  -0.603  0.4618 -0.4409  0.0528
  156SAPE   H7R17308   1.830   7.370  -0.579  0.0880 -1.4377 -1.0893
  156SAPE   H7S17309   1.948   7.248  -0.596 -0.6783 -0.5872 -0.3951
  156SAPE   C2817310   1.962   7.390  -0.752 -0.4845 -0.1876  0.3537
  156SAPE   H8R17311   2.056   7.443  -0.774  0.3168 -1.4345  0.6749
  156SAPE   C2917312   1.883   7.335  -0.851 -0.9504 -0.2940  0.4395
  156SAPE   H9R17313   1.913   7.364  -0.953  1.8259 -1.7630  0.7487
  156SAPE  C21017314   1.747   7.261  -0.848  0.0463 -0.6565 -0.5290
  156SAPE  H10R17315   1.668   7.319  -0.898 -0.9813  0.5516  2.2879
  156SAPE  H10S17316   1.710   7.255  -0.743  2.0939  3.3006  0.6192
  156SAPE  C21117317   1.742   7.126  -0.920  0.6344 -0.4222  0.0608
  156SAPE  H11R17318   1.777   7.039  -0.862 -1.6288 -3.3553 -2.6064
  156SAPE  C21217319   1.711   7.111  -1.050 -0.6815 -0.6211  0.8792
  156SAPE  H12R17320   1.693   7.014  -1.099 -0.3240  0.6695 -2.0284
  156SAPE  C21317321   1.680   7.228  -1.143  0.1001 -0.0909  0.7285
  156SAPE  H13R17322   1.768   7.292  -1.160  0.9333 -1.7460 -1.6726
  156SAPE  H13S17323   1.605   7.267  -1.071  0.4636 -2.3150  2.4376
  156SAPE  C21417324   1.619   7.203  -1.278  0.5056  0.0012  0.3818
  156SAPE  H14R17325   1.517   7.243  -1.286  0.3922 -0.5648 -1.8255
  156SAPE  C21517326   1.652   7.134  -1.390  0.4550 -0.1759  0.4540
  156SAPE  H15R17327   1.577   7.125  -1.470  1.2317 -1.3274 -0.1670
  156SAPE  C21617328   1.780   7.064  -1.415  0.4193  0.4730 -0.7149
  156SAPE  H16R17329   1.827   7.063  -1.314 -0.2472 -1.4818 -0.3885
  156SAPE  H16S17330   1.828   7.118  -1.499 -3.1177  1.8798 -2.0390
  156SAPE  C21717331   1.759   6.918  -1.457  0.3626  0.4939  0.0158
  156SAPE  H17R17332   1.706   6.853  -1.384  0.0303  3.1101  2.2792
  156SAPE  H17S17333   1.859   6.871  -1.470  0.1361 -0.3789  1.1855
  156SAPE  C21817334   1.695   6.909  -1.592  0.3708  0.3567  0.6055
  156SAPE  H18R17335   1.742   6.981  -1.662  0.8653  0.3212  0.8897
  156SAPE  H18S17336   1.589   6.939  -1.590  0.9432  2.7595 -1.1289
  156SAPE  C21917337   1.722   6.768  -1.665  0.2039 -0.2458 -0.7719
  156SAPE  H19R17338   1.644   6.704  -1.618  3.1389 -3.1423  0.5163
  156SAPE  H19S17339   1.819   6.726  -1.632  0.7273  1.4816  0.0192
  156SAPE  C22017340   1.708   6.761  -1.818 -0.7106  0.5346 -0.0967
  156SAPE  H20R17341   1.602   6.744  -1.848 -0.5104 -1.4339  0.1793
  156SAPE  H20S17342   1.764   6.677  -1.863 -1.2095  1.1386 -1.9532
  156SAPE  H20T17343   1.755   6.853  -1.859  1.2202 -0.0508  0.6982
  156SAPE   C3317344   3.040   7.107  -0.452 -0.3783  0.0108 -0.7821
  156SAPE   H3X17345   3.069   7.008  -0.410  1.1190  1.5754  2.1971
  156SAPE   H3Y17346   3.106   7.187  -0.412 -1.0121  0.2758 -0.2471
  156SAPE   C3417347   3.065   7.090  -0.603  0.0137  0.3455  0.1995
  156SAPE   H4X17348   2.965   7.056  -0.637 -0.0884 -0.5059  1.3215
  156SAPE   H4Y17349   3.137   7.010  -0.630  0.0741  0.4996 -0.1040
  156SAPE   C3517350   3.086   7.228  -0.677 -0.5212 -0.4492 -0.3163
  156SAPE   H5X17351   3.184   7.279  -0.667 -0.0939 -1.5493  1.5145
  156SAPE   H5Y17352   3.011   7.302  -0.640  1.1534  0.2549  1.9680
  156SAPE   C3617353   3.055   7.233  -0.828  0.3449  0.7547 -0.1405
  156SAPE   H6X17354   2.949   7.207  -0.849  0.8630  0.4599 -2.8058
  156SAPE   H6Y17355   3.128   7.168  -0.881  1.5071  1.3237  0.7359
  156SAPE   C3717356   3.051   7.379  -0.881 -0.6136 -0.8108 -0.5472
  156SAPE   H7X17357   3.147   7.429  -0.859 -0.8739  0.8594 -2.8681
  156SAPE   H7Y17358   2.963   7.424  -0.828  1.6316  0.0469  2.7952
  156SAPE   C3817359   3.024   7.401  -1.027 -0.5041 -0.1711 -0.0415
  156SAPE   H8X17360   3.103   7.349  -1.086 -1.9699 -2.7733  0.1351
  156SAPE   H8Y17361   3.022   7.508  -1.058 -1.1964 -0.1066  0.2193
  156SAPE   C3917362   2.882   7.354  -1.059  0.2165  0.4277 -0.7318
  156SAPE   H9X17363   2.822   7.390  -0.973  1.6538  2.6923 -0.5841
  156SAPE   H9Y17364   2.874   7.243  -1.061 -0.0525  0.3366  2.0726
  156SAPE  C31017365   2.826   7.410  -1.185 -1.1266  0.3209  0.4786
  156SAPE  H10X17366   2.828   7.521  -1.194  0.7881  0.1439 -3.6856
  156SAPE  H10Y17367   2.723   7.373  -1.203 -1.3674  1.9587 -1.9517
  156SAPE  C31117368   2.912   7.363  -1.313  0.5265  0.1957  0.5689
  156SAPE  H11X17369   2.863   7.269  -1.348 -1.6128  1.4829 -0.0498
  156SAPE  H11Y17370   3.020   7.366  -1.286  0.4703  0.8451  0.7390
  156SAPE  C31217371   2.886   7.454  -1.438 -0.2424 -0.2914 -0.2329
  156SAPE  H12X17372   2.911   7.560  -1.416 -0.3473 -0.2488 -0.3148
  156SAPE  H12Y17373   2.780   7.452  -1.473 -0.3323 -0.8027  0.0678
  156SAPE  C31317374   2.974   7.404  -1.558  0.2277  0.2896  0.3273
  156SAPE  H13X17375   2.921   7.316  -1.598  0.0402 -0.7510  2.6829
  156SAPE  H13Y17376   3.077   7.381  -1.522 -0.4232 -0.1767  2.0014
  156SAPE  C31417377   2.983   7.515  -1.666  0.7613  0.6560 -0.4750
  156SAPE  H14X17378   3.024   7.615  -1.636  1.4916  0.4844 -0.8752
  156SAPE  H14Y17379   2.875   7.539  -1.677  0.3763 -0.6353  0.3302
  156SAPE  C31517380   3.056   7.480  -1.798 -0.8167 -0.1669 -0.1911
  156SAPE  H15X17381   3.014   7.549  -1.875 -0.8690  0.3666  0.3131
  156SAPE  H15Y17382   3.036   7.372  -1.814  1.4853 -0.4593 -1.4830
  156SAPE  C31617383   3.205   7.502  -1.790  0.6484 -0.1571 -0.6653
  156SAPE  H16X17384   3.238   7.442  -1.702  0.2973  0.6955  0.0563
  156SAPE  H16Y17385   3.229   7.607  -1.762 -1.4302 -0.0364  0.9059
  156SAPE  C31717386   3.274   7.469  -1.926  0.3737 -0.8620 -0.0551
  156SAPE  H17X17387   3.247   7.551  -1.996  0.2864 -1.9829 -1.3937
  156SAPE  H17Y17388   3.238   7.374  -1.972  0.2754 -1.2613  0.8259
  156SAPE  C31817389   3.420   7.448  -1.906 -0.0074  0.8191 -0.1715
  156SAPE  H18X17390   3.447   7.358  -1.848 -0.4059  0.7639 -0.0735
  156SAPE  H18Y17391   3.470   7.540  -1.868  1.2466  0.3329 -0.5792
  156SAPE  H18Z17392   3.470   7.426  -2.003  0.1848  1.4964 -0.2357
  157SAPE     N17393   5.267   2.451   0.313 -0.2282  0.0754 -0.4648
  157SAPE   HN117394   5.368   2.462   0.293 -0.6147  1.1625 -2.0142
  157SAPE   HN217395   5.240   2.354   0.287  0.3522 -0.6174  1.3455
  157SAPE   HN317396   5.208   2.525   0.270 -1.1830  0.1862  0.9674
  157SAPE   C1217397   5.247   2.475   0.459 -0.1680  0.1219  0.2472
  157SAPE  H12A17398   5.326   2.552   0.475 -0.6198  0.6648 -0.1188
  157SAPE  H12B17399   5.275   2.382   0.513 -0.0403  0.3914  0.6536
  157SAPE   C1117400   5.114   2.541   0.494  0.2650  0.0350  0.7288
  157SAPE  H11A17401   5.100   2.545   0.605  0.3182  1.6527  0.7127
  157SAPE  H11B17402   5.032   2.477   0.456 -0.6679  1.5589  0.0522
  157SAPE     P17403   4.997   2.774   0.508 -0.1094 -0.1465 -0.2761
  157SAPE   O1317404   4.863   2.703   0.515  0.5389 -0.3671 -0.3277
  157SAPE   O1417405   5.047   2.827   0.637  0.0468  0.2284  0.0823
  157SAPE   O1217406   5.102   2.673   0.444  0.4822 -0.1778  0.4604
  157SAPE   O1117407   4.985   2.896   0.415 -0.6518 -0.8169 -0.4348
  157SAPE    C117408   5.092   2.951   0.340  0.2062  0.0139 -0.0722
  157SAPE    HA17409   5.066   3.056   0.312 -1.0628 -0.4379 -0.6938
  157SAPE    HB17410   5.184   2.967   0.399  0.0545  0.7837 -0.0259
  157SAPE    C217411   5.123   2.875   0.211  0.1342 -0.1191  0.6014
  157SAPE    HS17412   5.182   2.787   0.244 -0.7832 -1.5105 -1.3246
  157SAPE   O2117413   5.187   2.964   0.115  0.3524  0.0642 -0.1994
  157SAPE   C2117414   5.271   2.915   0.032  0.5435 -0.0305 -0.1261
  157SAPE   O2217415   5.323   2.804   0.028  0.1840 -0.1024  0.3228
  157SAPE   C2217416   5.282   3.011  -0.089  0.6132  0.0055  0.6607
  157SAPE   H2R17417   5.177   3.017  -0.126 -0.2951  1.4737  3.1944
  157SAPE   H2S17418   5.301   3.113  -0.050 -1.6775  0.9264 -0.4490
  157SAPE    C317419   4.993   2.806   0.161  0.0235 -1.0345  0.0992
  157SAPE    HX17420   4.905   2.874   0.157  0.8285 -0.0162 -1.4823
  157SAPE    HY17421   4.971   2.732   0.240  2.6850 -1.8740  0.1464
  157SAPE   O3117422   5.005   2.748   0.034  0.1408  0.1204 -0.4124
  157SAPE   C3117423   5.071   2.634   0.032  0.0906  0.7989 -0.7010
  157SAPE   O3217424   5.121   2.572   0.126 -0.3806  0.2505 -0.5483
  157SAPE   C3217425   5.064   2.571  -0.112  0.7763  0.4586 -0.2290
  157SAPE   H2X17426   4.956   2.561  -0.138  0.6957 -0.9120  0.5315
  157SAPE   H2Y17427   5.122   2.476  -0.109 -0.5031 -0.3406 -0.2891
  157SAPE   C2317428   5.363   2.964  -0.211 -0.2716  0.0875 -0.1592
  157SAPE   H3R17429   5.304   2.879  -0.252  0.9203  0.2789 -2.4269
  157SAPE   H3S17430   5.467   2.931  -0.190  0.0048 -0.6806 -2.4264
  157SAPE   C2417431   5.381   3.063  -0.336  0.3469 -0.7599 -0.3860
  157SAPE   H4R17432   5.433   3.008  -0.417  0.1503 -1.8056  0.1819
  157SAPE   H4S17433   5.448   3.145  -0.302 -0.4230  0.8506 -2.4897
  157SAPE   C2517434   5.247   3.115  -0.378 -0.5159  0.3057 -0.4170
  157SAPE   H5R17435   5.189   3.169  -0.301 -1.8830  0.1205 -1.2786
  157SAPE   C2617436   5.182   3.108  -0.500 -0.2620 -0.2631 -0.3691
  157SAPE   H6R17437   5.083   3.156  -0.504 -0.4372 -0.4840  0.8549
  157SAPE   C2717438   5.245   3.041  -0.621  0.4602  0.5288  0.1379
  157SAPE   H7R17439   5.180   2.952  -0.640 -0.3072  0.3223  3.1210
  157SAPE   H7S17440   5.344   3.000  -0.593  1.1512  0.0240 -2.7362
  157SAPE   C2817441   5.248   3.131  -0.743 -0.0260  0.5693  0.0129
  157SAPE   H8R17442   5.188   3.224  -0.739 -1.5627 -0.4041  0.3811
  157SAPE   C2917443   5.316   3.096  -0.853 -0.1146 -0.1351 -0.0124
  157SAPE   H9R17444   5.298   3.153  -0.945  2.8057 -0.1529 -0.7002
  157SAPE  C21017445   5.396   2.972  -0.868 -1.1385 -0.5160  0.5068
  157SAPE  H10R17446   5.325   2.894  -0.902 -1.0650 -0.9226  1.2673
  157SAPE  H10S17447   5.440   2.939  -0.771  0.9389  2.0260  0.5326
  157SAPE  C21117448   5.513   2.967  -0.969  0.2661 -0.0714 -0.5348
  157SAPE  H11R17449   5.616   2.955  -0.933  0.5246  0.6736 -0.9925
  157SAPE  C21217450   5.501   2.977  -1.105  0.3672 -0.1112 -0.5096
  157SAPE  H12R17451   5.593   2.991  -1.164  1.9351 -1.7715  1.3977
  157SAPE  C21317452   5.378   2.974  -1.191 -0.8061 -0.1453 -0.1825
  157SAPE  H13R17453   5.401   3.037  -1.279 -1.5637  0.0279 -0.2637
  157SAPE  H13S17454   5.303   3.028  -1.130  0.4472  2.2392 -0.6321
  157SAPE  C21417455   5.309   2.847  -1.227  0.8550  0.1136  0.2681
  157SAPE  H14R17456   5.235   2.803  -1.159  0.4613  0.1346 -0.1463
  157SAPE  C21517457   5.324   2.777  -1.337  0.2498 -0.4896  0.4877
  157SAPE  H15R17458   5.251   2.695  -1.345 -0.7885  0.2269  1.9661
  157SAPE  C21617459   5.406   2.816  -1.463  0.4533  0.2666 -0.6425
  157SAPE  H16R17460   5.462   2.725  -1.494  0.5343 -0.6445  1.9847
  157SAPE  H16S17461   5.486   2.885  -1.430 -0.0280 -0.6239  2.7253
  157SAPE  C21717462   5.337   2.870  -1.584 -0.4200 -0.1665  0.8837
  157SAPE  H17R17463   5.257   2.804  -1.624 -1.0983  1.3266 -0.3472
  157SAPE  H17S17464   5.406   2.886  -1.670 -2.8779  0.4692 -1.0994
  157SAPE  C21817465   5.273   3.011  -1.560 -0.4551  0.1722  0.2653
  157SAPE  H18R17466   5.344   3.064  -1.493  0.3027 -1.7954  1.0825
  157SAPE  H18S17467   5.173   3.000  -1.511 -1.3359  0.9838 -1.2743
  157SAPE  C21917468   5.252   3.085  -1.696  0.7107 -0.3542  0.1401
  157SAPE  H19R17469   5.337   3.061  -1.764  1.0673  0.4405  0.2962
  157SAPE  H19S17470   5.260   3.194  -1.675  1.1981 -0.6257  1.4885
  157SAPE  C22017471   5.128   3.039  -1.773  1.1312  0.2781 -0.1850
  157SAPE  H20R17472   5.138   2.939  -1.821  0.0904 -0.0499  0.2707
  157SAPE  H20S17473   5.087   3.110  -1.848 -1.4039 -1.5444 -0.6494
  157SAPE  H20T17474   5.045   3.030  -1.700  1.2917  0.7747  0.0596
  157SAPE   C3317475   5.135   2.655  -0.219  0.0414  0.3263 -0.1288
  157SAPE   H3X17476   5.245   2.661  -0.199 -0.0581 -0.8308  0.8923
  157SAPE   H3Y17477   5.092   2.756  -0.235 -0.8125 -0.1846 -1.1517
  157SAPE   C3417478   5.133   2.587  -0.361 -0.4799 -0.4743  0.0977
  157SAPE   H4X17479   5.024   2.582  -0.380 -0.6583  1.6846  0.3199
  157SAPE   H4Y17480   5.176   2.484  -0.371  1.3612  0.3425 -0.9483
  157SAPE   C3517481   5.188   2.671  -0.479  0.1390  0.2773 -0.6840
  157SAPE   H5X17482   5.268   2.732  -0.432 -0.9689 -0.0014  1.7210
  157SAPE   H5Y17483   5.111   2.748  -0.500 -1.1726  0.3429  3.4941
  157SAPE   C3617484   5.241   2.575  -0.598 -0.2643 -0.7104  0.2794
  157SAPE   H6X17485   5.154   2.514  -0.631 -1.4058  0.4817  0.9745
  157SAPE   H6Y17486   5.314   2.507  -0.550 -0.2169 -0.5479  0.4414
  157SAPE   C3717487   5.306   2.662  -0.708  0.0226 -0.0773 -0.4800
  157SAPE   H7X17488   5.362   2.738  -0.649  0.4186 -0.3795 -0.4639
  157SAPE   H7Y17489   5.219   2.704  -0.762 -1.3411 -0.7629  1.0837
  157SAPE   C3817490   5.399   2.577  -0.796 -0.3384 -0.5082 -0.0138
  157SAPE   H8X17491   5.490   2.539  -0.747  0.5132  0.5183 -0.7489
  157SAPE   H8Y17492   5.431   2.653  -0.871 -0.1455  2.0865  2.5557
  157SAPE   C3917493   5.324   2.469  -0.875  0.3438  1.0336 -0.4150
  157SAPE   H9X17494   5.214   2.484  -0.872 -0.0782 -1.5215  2.9142
  157SAPE   H9Y17495   5.328   2.366  -0.833 -2.6937  0.4492 -1.3211
  157SAPE  C31017496   5.375   2.467  -1.020  0.4756  0.2707 -0.5902
  157SAPE  H10X17497   5.486   2.464  -1.016  0.4639  0.0096  2.7786
  157SAPE  H10Y17498   5.354   2.561  -1.075 -2.2780 -0.9258 -1.7621
  157SAPE  C31117499   5.314   2.354  -1.108  0.1597 -0.2080  0.2032
  157SAPE  H11X17500   5.213   2.395  -1.131  0.1880 -1.4392 -2.3910
  157SAPE  H11Y17501   5.284   2.265  -1.048 -2.6934  1.2988  1.2083
  157SAPE  C31217502   5.391   2.316  -1.235  0.1710  0.1025 -0.4364
  157SAPE  H12X17503   5.332   2.235  -1.283 -0.1703  0.2398 -0.2526
  157SAPE  H12Y17504   5.487   2.270  -1.202  0.1095  0.1834 -0.1366
  157SAPE  C31317505   5.403   2.429  -1.331  0.8555 -0.1245  0.2033
  157SAPE  H13X17506   5.451   2.522  -1.294  0.6814  0.0358  0.0268
  157SAPE  H13Y17507   5.300   2.459  -1.358  2.2239  3.7627 -1.3332
  157SAPE  C31417508   5.469   2.377  -1.461 -0.1714  0.4712 -0.0714
  157SAPE  H14X17509   5.421   2.446  -1.533  2.5945 -0.6595 -3.2590
  157SAPE  H14Y17510   5.438   2.270  -1.465 -2.1677  1.0112 -0.4377
  157SAPE  C31517511   5.622   2.393  -1.476 -0.5994  0.2353  0.2746
  157SAPE  H15X17512   5.658   2.341  -1.384 -2.1226 -0.7138  0.3784
  157SAPE  H15Y17513   5.642   2.501  -1.459 -0.0973 -0.0430  1.6047
  157SAPE  C31617514   5.679   2.329  -1.605 -0.2474  0.0330 -0.5613
  157SAPE  H16X17515   5.663   2.383  -1.700 -0.2311 -2.2144 -1.9193
  157SAPE  H16Y17516   5.647   2.223  -1.616  0.5595 -0.6593  2.7002
  157SAPE  C31717517   5.830   2.313  -1.586  0.0487 -0.2029 -0.3520
  157SAPE  H17X17518   5.866   2.407  -1.538 -0.3828 -0.4803  0.5330
  157SAPE  H17Y17519   5.877   2.301  -1.685 -0.9247  0.1644 -0.8744
  157SAPE  C31817520   5.884   2.200  -1.487 -0.6506  0.4566  0.0489
  157SAPE  H18X17521   5.862   2.096  -1.521 -1.0031  0.6624 -0.3673
  157SAPE  H18Y17522   5.851   2.215  -1.383 -1.2587 -1.1830  0.1257
  157SAPE  H18Z17523   5.995   2.202  -1.503 -0.3900 -1.6154  1.2953
  158SAPE     N17524   6.887   3.570   0.020  0.0464  0.0595  0.4721
  158SAPE   HN117525   6.982   3.576  -0.022 -0.2851 -2.5993 -0.8775
  158SAPE   HN217526   6.856   3.669   0.023  0.7103  0.3392 -0.8927
  158SAPE   HN317527   6.902   3.549   0.120  1.5356 -0.6087  0.1426
  158SAPE   C1217528   6.767   3.500  -0.051  0.1181 -0.0425  0.4382
  158SAPE  H12A17529   6.821   3.410  -0.088 -1.2502 -1.6472  2.1740
  158SAPE  H12B17530   6.727   3.561  -0.135  0.5151  0.3302  0.5130
  158SAPE   C1117531   6.652   3.464   0.044  0.1137  0.4420  0.2531
  158SAPE  H11A17532   6.558   3.426  -0.001  0.2218  0.2947  0.1498
  158SAPE  H11B17533   6.598   3.553   0.085 -2.9989 -1.1943 -0.0040
  158SAPE     P17534   6.728   3.227   0.134  0.2385 -0.0501  0.3323
  158SAPE   O1317535   6.844   3.215   0.042  0.4473 -0.0100  0.3466
  158SAPE   O1417536   6.730   3.156   0.265  0.3992  0.1674  0.0277
  158SAPE   O1217537   6.702   3.383   0.157  0.3739 -0.3145 -0.3102
  158SAPE   O1117538   6.597   3.192   0.051 -0.6130 -0.0559 -0.1312
  158SAPE    C117539   6.594   3.081  -0.047 -0.0183  0.5272 -0.2892
  158SAPE    HA17540   6.686   3.019  -0.054  0.7398  1.4132  1.3178
  158SAPE    HB17541   6.505   3.021  -0.020 -1.2554  0.6433 -3.6312
  158SAPE    C217542   6.566   3.133  -0.190  0.3589  0.7779 -0.4269
  158SAPE    HS17543   6.661   3.183  -0.216  1.1927 -0.7125 -0.4048
  158SAPE   O2117544   6.445   3.212  -0.180  0.0387 -0.0561  0.1342
  158SAPE   C2117545   6.456   3.336  -0.226  0.3243  0.3142  0.0064
  158SAPE   O2217546   6.549   3.385  -0.282  0.1418  0.0403  0.3695
  158SAPE   C2217547   6.321   3.407  -0.199  0.2215  0.0315 -0.0904
  158SAPE   H2R17548   6.273   3.420  -0.298  1.1227 -0.4167 -0.6062
  158SAPE   H2S17549   6.254   3.351  -0.130  0.4289 -1.2861 -0.9287
  158SAPE    C317550   6.542   3.010  -0.279  0.8011 -0.9854 -0.2075
  158SAPE    HX17551   6.511   3.052  -0.377  0.2316  0.6906  0.6472
  158SAPE    HY17552   6.450   2.965  -0.237 -0.0149 -0.2378 -1.1555
  158SAPE   O3117553   6.652   2.924  -0.307 -0.5490 -0.0762  0.1153
  158SAPE   C3117554   6.624   2.800  -0.305 -0.1928  1.3192 -0.6153
  158SAPE   O3217555   6.515   2.747  -0.305  0.0400  0.2142 -0.0680
  158SAPE   C3217556   6.754   2.708  -0.294  0.5844 -1.0915 -0.0176
  158SAPE   H2X17557   6.721   2.612  -0.248  1.4924  0.4911  4.4487
  158SAPE   H2Y17558   6.823   2.747  -0.216  1.7361 -1.4775 -0.8311
  158SAPE   C2317559   6.322   3.544  -0.137 -0.5421  0.2437  0.9334
  158SAPE   H3R17560   6.420   3.596  -0.142 -0.6857  0.5933  1.5644
  158SAPE   H3S17561   6.308   3.531  -0.027  0.1456  1.7580  1.2270
  158SAPE   C2417562   6.219   3.634  -0.208 -0.1443 -0.3352 -0.1520
  158SAPE   H4R17563   6.123   3.578  -0.212 -0.2924 -0.0564 -0.5731
  158SAPE   H4S17564   6.244   3.634  -0.316 -1.3658  0.2771 -0.4520
  158SAPE   C2517565   6.209   3.770  -0.148  0.0598  0.0796 -0.2587
  158SAPE   H5R17566   6.185   3.782  -0.042  3.8175 -3.3309  1.2492
  158SAPE   C2617567   6.223   3.883  -0.220 -0.1433 -0.1454  0.6035
  158SAPE   H6R17568   6.192   3.974  -0.167 -0.6839  1.1876 -1.8692
  158SAPE   C2717569   6.239   3.894  -0.375  0.3528  0.0674  0.1513
  158SAPE   H7R17570   6.304   3.818  -0.423 -0.1464  0.4727 -1.2191
  158SAPE   H7S17571   6.285   3.994  -0.393  2.3611 -0.6453  1.0535
  158SAPE   C2817572   6.105   3.895  -0.441 -0.1654  0.2161  0.8253
  158SAPE   H8R17573   6.038   3.976  -0.410 -0.6305 -0.7980  2.5907
  158SAPE   C2917574   6.057   3.800  -0.522  0.0499 -0.4527  0.2857
  158SAPE   H9R17575   5.953   3.807  -0.557  1.0667 -0.8603 -3.1990
  158SAPE  C21017576   6.134   3.689  -0.582 -0.4555 -0.0153  0.5173
  158SAPE  H10R17577   6.123   3.607  -0.508  0.4852  0.4429  1.2062
  158SAPE  H10S17578   6.245   3.699  -0.589 -0.0285 -3.5170  0.5421
  158SAPE  C21117579   6.081   3.661  -0.720 -0.4389 -0.7317 -0.0393
  158SAPE  H11R17580   5.989   3.709  -0.759 -0.3261 -0.4413  0.0500
  158SAPE  C21217581   6.139   3.564  -0.794 -0.0239  1.1038 -0.3121
  158SAPE  H12R17582   6.104   3.548  -0.897  1.2330  0.6574 -0.6941
  158SAPE  C21317583   6.251   3.471  -0.747 -0.1038 -0.0168 -0.3839
  158SAPE  H13R17584   6.200   3.372  -0.744 -1.9430  0.7806 -2.2466
  158SAPE  H13S17585   6.279   3.500  -0.644  2.2476 -2.0665 -0.3604
  158SAPE  C21417586   6.372   3.463  -0.828 -0.2352 -0.2464  0.0472
  158SAPE  H14R17587   6.455   3.506  -0.771  0.6691 -2.0679  0.1389
  158SAPE  C21517588   6.398   3.445  -0.962  0.4690 -0.3692  0.1301
  158SAPE  H15R17589   6.504   3.444  -0.991  0.8036  0.4338  1.2534
  158SAPE  C21617590   6.297   3.419  -1.071  0.3970  0.8703  0.9167
  158SAPE  H16R17591   6.192   3.421  -1.037 -0.1459 -2.0157 -0.3307
  158SAPE  H16S17592   6.297   3.313  -1.102 -0.4505  0.2976  2.7519
  158SAPE  C21717593   6.308   3.500  -1.196 -0.2904  0.2250  0.4050
  158SAPE  H17R17594   6.245   3.461  -1.278 -0.7278 -0.3369  0.9912
  158SAPE  H17S17595   6.413   3.509  -1.229  0.3809  0.2814  2.3862
  158SAPE  C21817596   6.261   3.639  -1.179 -1.1610 -0.1916  0.2017
  158SAPE  H18R17597   6.352   3.702  -1.177 -0.4010 -1.2772  1.6661
  158SAPE  H18S17598   6.203   3.650  -1.085  0.4510 -3.1642  1.6723
  158SAPE  C21917599   6.174   3.692  -1.296  0.2101  0.3942  0.8211
  158SAPE  H19R17600   6.124   3.789  -1.274 -0.4947  0.4682 -0.9148
  158SAPE  H19S17601   6.100   3.611  -1.311  0.4244  0.4895 -1.0208
  158SAPE  C22017602   6.254   3.704  -1.424 -0.8033 -0.1612  0.1255
  158SAPE  H20R17603   6.334   3.779  -1.411  1.3767 -2.3792  0.2239
  158SAPE  H20S17604   6.190   3.744  -1.505  0.6609  1.1348 -0.4261
  158SAPE  H20T17605   6.303   3.605  -1.439  0.9661  0.4780  1.3990
  158SAPE   C3317606   6.822   2.684  -0.433  0.4989  0.5890 -0.1906
  158SAPE   H3X17607   6.745   2.660  -0.510 -0.3166 -0.2151  0.8325
  158SAPE   H3Y17608   6.867   2.583  -0.418 -1.4868 -0.0878  1.8349
  158SAPE   C3417609   6.931   2.782  -0.478 -0.6017 -0.5205 -0.0117
  158SAPE   H4X17610   7.011   2.806  -0.405 -2.2186  0.9100  1.4111
  158SAPE   H4Y17611   6.876   2.878  -0.493  0.1709 -0.3137 -1.7798
  158SAPE   C3517612   6.996   2.744  -0.612 -0.0791  0.5263  0.3055
  158SAPE   H5X17613   7.089   2.686  -0.594 -0.0779  0.2255 -0.5851
  158SAPE   H5Y17614   7.026   2.839  -0.661 -0.9041  0.2180 -0.8482
  158SAPE   C3617615   6.913   2.661  -0.709  0.0972  0.4384  0.5951
  158SAPE   H6X17616   6.811   2.699  -0.730 -1.2090 -2.8834  0.2498
  158SAPE   H6Y17617   6.902   2.557  -0.673 -0.7438 -0.4070 -1.9001
  158SAPE   C3717618   6.979   2.649  -0.851 -0.5198 -0.1062 -0.2776
  158SAPE   H7X17619   7.076   2.595  -0.853 -0.2993  0.2608  0.3647
  158SAPE   H7Y17620   7.004   2.748  -0.895 -0.4425  0.5613  1.2060
  158SAPE   C3817621   6.878   2.579  -0.945  0.1993  0.6672  0.2837
  158SAPE   H8X17622   6.806   2.662  -0.963  1.4645  1.6895 -0.2454
  158SAPE   H8Y17623   6.837   2.498  -0.881  1.1073 -0.8859 -1.0603
  158SAPE   C3917624   6.946   2.532  -1.072 -0.5165 -0.3031  0.1382
  158SAPE   H9X17625   7.021   2.455  -1.043 -1.0493 -0.8611  0.0619
  158SAPE   H9Y17626   7.007   2.613  -1.117 -0.0353 -0.6635  0.1335
  158SAPE  C31017627   6.856   2.467  -1.177  0.1584 -0.4266 -0.2550
  158SAPE  H10X17628   6.837   2.548  -1.250  1.7709  0.0865 -0.1369
  158SAPE  H10Y17629   6.766   2.433  -1.121  0.7067  0.2472  1.0821
  158SAPE  C31117630   6.907   2.351  -1.253 -0.0368 -0.5599 -0.4420
  158SAPE  H11X17631   6.915   2.270  -1.177  0.5188 -0.0387  0.0550
  158SAPE  H11Y17632   7.002   2.386  -1.299  1.5098 -0.4812  2.5674
  158SAPE  C31217633   6.822   2.288  -1.365  0.0358  0.3378 -0.0183
  158SAPE  H12X17634   6.815   2.346  -1.459 -3.7438 -1.3490 -1.0037
  158SAPE  H12Y17635   6.720   2.295  -1.321 -0.9827  1.1208 -2.3694
  158SAPE  C31317636   6.862   2.141  -1.398  0.2261  0.2105 -0.4017
  158SAPE  H13X17637   6.772   2.083  -1.426  0.6029 -0.5315 -0.0842
  158SAPE  H13Y17638   6.899   2.087  -1.309  0.1147  0.2770 -0.3159
  158SAPE  C31417639   6.972   2.125  -1.506  0.5309 -0.4141  0.4443
  158SAPE  H14X17640   7.073   2.134  -1.460  0.6615 -2.9167  0.7444
  158SAPE  H14Y17641   6.959   2.210  -1.577  0.6024  0.0462  0.9768
  158SAPE  C31517642   6.962   2.000  -1.591 -0.2999  0.3642  0.7056
  158SAPE  H15X17643   6.859   1.983  -1.628  0.2509  0.8056 -1.1410
  158SAPE  H15Y17644   6.989   1.912  -1.528 -0.8615  1.2550  2.2589
  158SAPE  C31617645   7.049   2.014  -1.722  0.0044  0.0047 -1.0496
  158SAPE  H16X17646   7.001   2.089  -1.789  1.2765  0.7025 -1.2125
  158SAPE  H16Y17647   7.048   1.919  -1.780 -3.0033  0.0610 -1.2617
  158SAPE  C31717648   7.197   2.069  -1.712 -0.4903 -0.6801  0.2511
  158SAPE  H17X17649   7.266   1.985  -1.688 -0.0383 -0.9442 -1.8541
  158SAPE  H17Y17650   7.196   2.141  -1.627  1.8684  0.5230 -0.6739
  158SAPE  C31817651   7.249   2.130  -1.837  0.2326  0.0400 -0.1699
  158SAPE  H18X17652   7.191   2.223  -1.858  0.6668  0.9796  2.4751
  158SAPE  H18Y17653   7.233   2.052  -1.914  1.0487  1.8252 -2.2590
  158SAPE  H18Z17654   7.357   2.152  -1.829 -0.1828  2.3102 -0.0756
  159SAPE     N17655   2.466   6.610   4.020 -0.4259 -0.7262  0.4510
  159SAPE   HN117656   2.405   6.536   3.982  1.1930 -1.2227 -1.3287
  159SAPE   HN217657   2.475   6.683   3.946  1.0801 -1.0574  0.2664
  159SAPE   HN317658   2.561   6.568   4.033 -0.4973 -1.0595 -0.0919
  159SAPE   C1217659   2.415   6.656   4.154 -0.3911  0.3669 -0.6445
  159SAPE  H12A17660   2.305   6.661   4.146 -0.3023  1.7300 -1.2396
  159SAPE  H12B17661   2.450   6.760   4.166  0.3835  0.2347 -1.6038
  159SAPE   C1117662   2.472   6.575   4.279  0.3587  0.3229  0.8968
  159SAPE  H11A17663   2.401   6.491   4.288 -0.0539  0.4898 -0.5002
  159SAPE  H11B17664   2.469   6.626   4.378  0.8215  1.6671  0.2530
  159SAPE     P17665   2.732   6.584   4.283 -0.1298  0.3856  0.3262
  159SAPE   O1317666   2.852   6.507   4.242  0.1010  0.2407 -0.5222
  159SAPE   O1417667   2.738   6.727   4.241  0.0019 -0.6420 -0.0940
  159SAPE   O1217668   2.590   6.511   4.243 -0.0450  0.0335  0.1095
  159SAPE   O1117669   2.718   6.595   4.438  0.2508  0.0367  0.0745
  159SAPE    C117670   2.697   6.483   4.518  0.6715  0.4133 -0.5184
  159SAPE    HA17671   2.611   6.424   4.481 -0.1749  0.8217  0.7277
  159SAPE    HB17672   2.786   6.417   4.518  0.9335  0.7313  0.8623
  159SAPE    C217673   2.666   6.518   4.671  0.7122  0.1128  0.5646
  159SAPE    HS17674   2.566   6.567   4.673  0.4151 -0.4504 -0.0230
  159SAPE   O2117675   2.767   6.601   4.723 -0.3488 -0.0488  0.1183
  159SAPE   C2117676   2.754   6.736   4.699 -0.1894 -0.0700  0.8079
  159SAPE   O2217677   2.651   6.791   4.662 -0.6193 -0.1856 -0.4187
  159SAPE   C2217678   2.880   6.808   4.746 -0.8234 -0.0928 -0.4201
  159SAPE   H2R17679   2.950   6.777   4.666 -0.1650 -2.1197  0.8467
  159SAPE   H2S17680   2.863   6.917   4.742  0.8292  0.5577  4.1206
  159SAPE    C317681   2.651   6.388   4.752 -0.4853 -0.3104  0.1846
  159SAPE    HX17682   2.745   6.333   4.731  0.9894  1.1518  2.5142
  159SAPE    HY17683   2.571   6.327   4.704  0.4264 -1.1163 -0.3341
  159SAPE   O3117684   2.635   6.398   4.891  0.2403  0.2098 -0.3240
  159SAPE   C3117685   2.509   6.438   4.924 -0.1394  0.4230 -0.0177
  159SAPE   O3217686   2.412   6.446   4.853  0.4248  0.1728 -0.0698
  159SAPE   C3217687   2.521   6.501   5.065  0.8292 -0.6260 -0.1297
  159SAPE   H2X17688   2.628   6.530   5.072  1.1439 -1.7795  0.1835
  159SAPE   H2Y17689   2.519   6.425   5.146 -3.3157 -0.4151  0.1731
  159SAPE   C2317690   2.945   6.772   4.885  0.4679 -0.7994 -1.0778
  159SAPE   H3R17691   3.047   6.810   4.903  0.4727 -1.1916 -0.2371
  159SAPE   H3S17692   2.942   6.662   4.870 -0.4844 -1.0052  0.3863
  159SAPE   C2417693   2.859   6.812   4.998 -0.3716 -0.4088 -0.3485
  159SAPE   H4R17694   2.890   6.762   5.092 -3.2405  0.6128  1.2896
  159SAPE   H4S17695   2.752   6.783   4.985 -0.9201  1.5050 -0.4888
  159SAPE   C2517696   2.862   6.966   5.019 -0.0963 -0.3441  0.0061
  159SAPE   H5R17697   2.809   7.027   4.944  2.8263  0.2345 -1.7361
  159SAPE   C2617698   2.931   7.034   5.114 -0.3553 -0.0729  0.2540
  159SAPE   H6R17699   2.918   7.143   5.121 -1.7948 -0.2752  1.1867
  159SAPE   C2717700   3.006   6.980   5.229  0.0924 -0.5197  0.0350
  159SAPE   H7R17701   3.111   6.973   5.194 -0.9415  0.2319 -3.5437
  159SAPE   H7S17702   2.977   6.875   5.253 -0.9011 -0.8198 -2.2511
  159SAPE   C2817703   2.988   7.067   5.346 -0.1356 -0.2034 -0.0570
  159SAPE   H8R17704   2.894   7.123   5.355 -0.9415 -1.6798  1.1960
  159SAPE   C2917705   3.077   7.080   5.440 -0.3380 -0.2756  0.1731
  159SAPE   H9R17706   3.058   7.164   5.508  2.0308 -1.1276  1.9894
  159SAPE  C21017707   3.207   7.004   5.465  0.2305 -0.5746 -0.0266
  159SAPE  H10R17708   3.259   7.023   5.368 -0.9031  1.3558 -0.3176
  159SAPE  H10S17709   3.183   6.897   5.478 -0.4081 -0.4479 -0.1244
  159SAPE  C21117710   3.301   7.047   5.577  0.1969  0.0036  0.3767
  159SAPE  H11R17711   3.401   7.077   5.543  0.0005 -1.4972 -1.6938
  159SAPE  C21217712   3.281   7.025   5.708 -0.1226  0.1735 -0.0631
  159SAPE  H12R17713   3.347   7.062   5.788 -2.5153 -0.5746  2.4451
  159SAPE  C21317714   3.160   6.950   5.765  0.4112  0.4076 -0.9149
  159SAPE  H13R17715   3.191   6.853   5.807  1.0667  2.1270  3.0389
  159SAPE  H13S17716   3.091   6.929   5.681  0.6815  0.6050 -1.1934
  159SAPE  C21417717   3.085   7.031   5.868 -0.7744 -0.0752  0.4057
  159SAPE  H14R17718   3.009   7.100   5.828  2.0011  2.6341 -0.5289
  159SAPE  C21517719   3.112   7.020   5.996  0.6833 -0.0688 -0.0664
  159SAPE  H15R17720   3.059   7.081   6.070  2.3214  1.9139 -0.4650
  159SAPE  C21617721   3.223   6.933   6.058  0.4318 -0.2953 -0.2825
  159SAPE  H16R17722   3.280   7.003   6.124 -0.6138  1.3178 -1.0265
  159SAPE  H16S17723   3.297   6.905   5.980 -0.1363 -0.9210 -0.6030
  159SAPE  C21717724   3.180   6.811   6.139  0.3914 -0.5293  0.4910
  159SAPE  H17R17725   3.123   6.747   6.069  1.1978 -1.1681  0.3933
  159SAPE  H17S17726   3.112   6.835   6.223  0.5808 -0.9659  0.7735
  159SAPE  C21817727   3.305   6.749   6.201  0.4667 -0.0283 -0.4360
  159SAPE  H18R17728   3.330   6.807   6.292 -0.3733 -0.1446 -0.1202
  159SAPE  H18S17729   3.391   6.748   6.130  0.6012 -2.0774 -0.3092
  159SAPE  C21917730   3.286   6.612   6.258  0.1884  0.5613 -0.4384
  159SAPE  H19R17731   3.251   6.556   6.169 -1.8064  0.1475  0.5550
  159SAPE  H19S17732   3.200   6.598   6.326 -0.4527  1.9055 -0.9353
  159SAPE  C22017733   3.407   6.544   6.319 -0.1482 -0.0045  0.7358
  159SAPE  H20R17734   3.392   6.436   6.339  1.3045 -0.3285  0.1993
  159SAPE  H20S17735   3.412   6.598   6.416 -2.9138  0.3266  0.7860
  159SAPE  H20T17736   3.499   6.550   6.258 -0.5053 -0.6305  0.1111
  159SAPE   C3317737   2.424   6.616   5.077  1.1961 -0.2584 -0.4741
  159SAPE   H3X17738   2.325   6.568   5.096 -0.1207  1.5309 -2.3247
  159SAPE   H3Y17739   2.411   6.665   4.978 -0.3136  0.0792 -0.1428
  159SAPE   C3417740   2.456   6.726   5.184 -0.3608  0.0402  0.2202
  159SAPE   H4X17741   2.378   6.804   5.173  1.7958  2.4159  0.6895
  159SAPE   H4Y17742   2.550   6.772   5.145  0.1714 -1.3237 -0.1766
  159SAPE   C3517743   2.470   6.671   5.326  0.1793 -0.5099  0.2559
  159SAPE   H5X17744   2.525   6.736   5.397 -1.1429  0.9693 -0.0189
  159SAPE   H5Y17745   2.517   6.570   5.327 -1.0490 -1.1230 -0.5519
  159SAPE   C3617746   2.334   6.652   5.397  0.0541  0.0070  0.3700
  159SAPE   H6X17747   2.352   6.574   5.475 -1.1817 -1.5677 -0.8521
  159SAPE   H6Y17748   2.263   6.605   5.326 -1.2337 -1.2033  2.3353
  159SAPE   C3717749   2.268   6.778   5.445  0.2724  0.1381  0.1575
  159SAPE   H7X17750   2.251   6.841   5.355  2.3284  1.5681  0.6907
  159SAPE   H7Y17751   2.330   6.828   5.522 -1.9402  0.0182  2.1118
  159SAPE   C3817752   2.136   6.750   5.518 -0.1578  0.5440 -0.1941
  159SAPE   H8X17753   2.075   6.683   5.454 -1.0639  1.2954 -0.1281
  159SAPE   H8Y17754   2.075   6.842   5.527  0.1530  0.6965  0.4412
  159SAPE   C3917755   2.149   6.676   5.657 -0.3385  0.2354 -0.0919
  159SAPE   H9X17756   2.246   6.622   5.647  0.6865  2.1432 -1.1637
  159SAPE   H9Y17757   2.071   6.597   5.666  0.6412 -0.5690  1.7198
  159SAPE  C31017758   2.143   6.756   5.785 -0.1377  0.3922  0.2421
  159SAPE  H10X17759   2.034   6.781   5.787 -0.6876 -1.8198  2.0581
  159SAPE  H10Y17760   2.202   6.850   5.778  1.2443 -0.5396 -1.2318
  159SAPE  C31117761   2.194   6.679   5.908 -0.2844  0.4900  0.5265
  159SAPE  H11X17762   2.303   6.668   5.894 -0.3985  0.3175 -0.2503
  159SAPE  H11Y17763   2.147   6.579   5.914  0.3046  0.0432 -1.5475
  159SAPE  C31217764   2.168   6.769   6.031 -0.3605  0.2710 -0.1165
  159SAPE  H12X17765   2.058   6.775   6.051  0.1543  1.9738  2.7625
  159SAPE  H12Y17766   2.212   6.867   6.006  2.8704 -1.3150 -1.1902
  159SAPE  C31317767   2.228   6.728   6.165 -0.8598  0.7239  0.5386
  159SAPE  H13X17768   2.336   6.746   6.146 -0.6977 -0.7764 -0.1032
  159SAPE  H13Y17769   2.222   6.618   6.178  2.0726  0.3514 -0.5002
  159SAPE  C31417770   2.170   6.800   6.290 -0.4100 -0.7180  0.2396
  159SAPE  H14X17771   2.060   6.814   6.282 -0.1994  0.8703 -0.2404
  159SAPE  H14Y17772   2.202   6.906   6.281 -2.1736 -0.3286 -2.5288
  159SAPE  C31517773   2.228   6.749   6.423 -0.0832 -0.8080  0.1604
  159SAPE  H15X17774   2.202   6.828   6.496  0.8693  0.4342 -0.8090
  159SAPE  H15Y17775   2.337   6.756   6.404 -0.3283  2.2337 -0.5235
  159SAPE  C31617776   2.185   6.606   6.459  0.0206  0.3829 -1.0706
  159SAPE  H16X17777   2.236   6.532   6.393  1.8491  0.7823 -0.1776
  159SAPE  H16Y17778   2.075   6.598   6.450 -0.2093 -0.8784  1.7563
  159SAPE  C31717779   2.229   6.563   6.603  0.0090  0.0573  1.1983
  159SAPE  H17X17780   2.181   6.465   6.625  2.9702 -1.3078  2.0617
  159SAPE  H17Y17781   2.189   6.645   6.667 -0.9672  1.2529 -0.8354
  159SAPE  C31817782   2.379   6.531   6.615 -0.8833  0.4224 -0.0443
  159SAPE  H18X17783   2.438   6.625   6.618 -1.3923  0.9170 -2.6652
  159SAPE  H18Y17784   2.425   6.466   6.538 -1.0306 -0.1872  0.3725
  159SAPE  H18Z17785   2.384   6.480   6.713 -0.6146 -1.1413 -0.8447
  160SAPE     N17786   1.191   1.741   4.332  0.0922 -0.0387  0.0702
  160SAPE   HN117787   1.274   1.683   4.355  1.0546  1.5305  0.8175
  160SAPE   HN217788   1.107   1.681   4.327 -2.0563  2.7964 -0.0559
  160SAPE   HN317789   1.198   1.796   4.244 -0.6978 -1.7772 -1.1278
  160SAPE   C1217790   1.141   1.833   4.445 -0.9260  0.3051  0.3307
  160SAPE  H12A17791   1.228   1.892   4.481  0.0801 -0.8100 -0.2250
  160SAPE  H12B17792   1.109   1.768   4.530  1.4824 -0.1287  0.9692
  160SAPE   C1117793   1.027   1.922   4.395  0.1133  0.3771 -0.4568
  160SAPE  H11A17794   1.067   1.990   4.317 -1.4585  0.7673 -0.9662
  160SAPE  H11B17795   0.999   1.983   4.484 -0.1126 -1.5290  0.8482
  160SAPE     P17796   0.780   1.931   4.310  0.5134 -0.1687 -0.0952
  160SAPE   O1317797   0.810   2.068   4.271 -0.0960  0.1165  0.1395
  160SAPE   O1417798   0.697   1.854   4.214 -0.3343 -0.0666 -0.0486
  160SAPE   O1217799   0.913   1.850   4.337  0.3697 -0.2600  0.1455
  160SAPE   O1117800   0.716   1.934   4.452  0.4072 -0.0215  0.4638
  160SAPE    C117801   0.651   1.825   4.506  0.0636  0.0558 -0.3535
  160SAPE    HA17802   0.542   1.836   4.491 -0.3135 -3.7444 -1.7150
  160SAPE    HB17803   0.674   1.727   4.459  1.3641 -0.5262  1.3959
  160SAPE    C217804   0.695   1.802   4.658 -0.2416 -0.3665 -0.0995
  160SAPE    HS17805   0.665   1.696   4.672 -0.7274 -0.1789  0.2911
  160SAPE   O2117806   0.629   1.888   4.759 -0.0561  0.5883  0.1298
  160SAPE   C2117807   0.499   1.886   4.768  0.7498  0.6030  1.1884
  160SAPE   O2217808   0.424   1.803   4.724 -0.0169 -0.2275 -0.1271
  160SAPE   C2217809   0.454   2.004   4.857  0.1203 -0.3501  0.1889
  160SAPE   H2R17810   0.529   2.085   4.844 -1.1132  1.1379  1.7938
  160SAPE   H2S17811   0.354   2.028   4.815 -0.6187 -2.4542  0.6443
  160SAPE    C317812   0.851   1.802   4.657  0.4861  0.5932 -0.0750
  160SAPE    HX17813   0.885   1.907   4.642 -0.3578  0.4853 -3.4157
  160SAPE    HY17814   0.888   1.735   4.577 -1.0460  0.1868 -0.4807
  160SAPE   O3117815   0.900   1.752   4.784 -0.0249 -0.4792  0.2394
  160SAPE   C3117816   1.009   1.817   4.822  0.0050  0.1108 -0.1115
  160SAPE   O3217817   1.075   1.893   4.753  0.0163  0.5156  0.4196
  160SAPE   C3217818   1.044   1.784   4.967  0.2098 -0.3901 -0.1463
  160SAPE   H2X17819   1.145   1.738   4.966 -0.3870 -1.8622  1.4759
  160SAPE   H2Y17820   0.974   1.707   5.004  0.3879  0.3694  1.8898
  160SAPE   C2317821   0.443   1.961   5.000 -0.0396  0.1095  0.2438
  160SAPE   H3R17822   0.537   1.941   5.055 -1.5033 -0.5756  2.6701
  160SAPE   H3S17823   0.382   1.869   5.011  1.3845 -1.1016 -1.4411
  160SAPE   C2417824   0.396   2.074   5.096 -0.0135  0.6491  0.5027
  160SAPE   H4R17825   0.450   2.167   5.071  2.2625 -0.3925  1.2132
  160SAPE   H4S17826   0.423   2.045   5.200 -0.8437  0.8042  0.7718
  160SAPE   C2517827   0.243   2.085   5.108  0.3467  0.3119  0.0775
  160SAPE   H5R17828   0.185   2.143   5.034 -0.0592 -0.0472  0.1100
  160SAPE   C2617829   0.163   2.038   5.210  0.0759 -1.0759  0.0855
  160SAPE   H6R17830   0.055   2.043   5.190  0.1794  0.9047 -0.1902
  160SAPE   C2717831   0.204   1.971   5.340  0.1718  0.2596 -0.2437
  160SAPE   H7R17832   0.244   2.057   5.398 -1.5903  2.1928 -1.7201
  160SAPE   H7S17833   0.298   1.913   5.333  1.1645  1.8444 -0.6999
  160SAPE   C2817834   0.087   1.896   5.401 -0.3922 -0.7918  0.1648
  160SAPE   H8R17835   0.064   1.803   5.347  0.4553  0.4933 -2.5969
  160SAPE   C2917836   0.032   1.924   5.514  0.2090  0.1267 -0.5810
  160SAPE   H9R17837  -0.051   1.865   5.557  1.6210 -0.5776  1.3201
  160SAPE  C21017838   0.068   2.037   5.605 -0.3242 -0.0884 -0.1432
  160SAPE  H10R17839   0.174   2.067   5.594 -0.2694 -0.2363 -0.0232
  160SAPE  H10S17840   0.056   1.991   5.706 -2.1876  1.4194  0.3787
  160SAPE  C21117841  -0.023   2.161   5.594 -0.1620  0.3468  0.6674
  160SAPE  H11R17842  -0.052   2.202   5.497 -0.4545  2.9226  1.7599
  160SAPE  C21217843  -0.053   2.236   5.699  0.0223 -0.2229 -0.2629
  160SAPE  H12R17844  -0.108   2.329   5.677  1.1520  0.0980 -1.9035
  160SAPE  C21317845  -0.006   2.217   5.840 -0.0165  0.1192  1.0129
  160SAPE  H13R17846   0.073   2.140   5.852  0.5943  0.0309 -2.6434
  160SAPE  H13S17847  -0.087   2.177   5.904  0.4751 -1.0526  0.9265
  160SAPE  C21417848   0.063   2.332   5.894 -0.0352  0.0944  0.5602
  160SAPE  H14R17849   0.092   2.407   5.819  0.7507 -0.7450  0.0200
  160SAPE  C21517850   0.075   2.365   6.023 -0.2407 -0.1343  0.0602
  160SAPE  H15R17851   0.136   2.452   6.052  0.9499 -0.3695 -1.6347
  160SAPE  C21617852   0.020   2.286   6.139  0.1020 -0.7932  0.0060
  160SAPE  H16R17853   0.099   2.218   6.178  0.4936 -1.4150 -1.7654
  160SAPE  H16S17854  -0.067   2.223   6.111  1.4903 -2.8312  0.0799
  160SAPE  C21717855  -0.031   2.386   6.246  1.0923  0.2544 -0.8240
  160SAPE  H17R17856  -0.101   2.461   6.203 -0.5412 -0.4439  0.4866
  160SAPE  H17S17857   0.057   2.424   6.302  1.3818  0.8727 -1.6776
  160SAPE  C21817858  -0.109   2.305   6.351  0.2050 -0.4052 -1.4145
  160SAPE  H18R17859  -0.064   2.207   6.379 -1.4638 -0.6554  0.6675
  160SAPE  H18S17860  -0.204   2.272   6.304 -0.2751 -3.0287  1.0627
  160SAPE  C21917861  -0.147   2.376   6.481  0.0107 -0.2509 -0.1904
  160SAPE  H19R17862  -0.221   2.456   6.460 -2.3505 -2.2379  0.0421
  160SAPE  H19S17863  -0.054   2.416   6.527 -0.0428  0.2741 -0.5334
  160SAPE  C22017864  -0.221   2.294   6.589  0.1335 -0.7422  0.3931
  160SAPE  H20R17865  -0.290   2.226   6.534  0.4326 -2.3338  1.8859
  160SAPE  H20S17866  -0.276   2.357   6.662  0.4736  0.1808 -0.1280
  160SAPE  H20T17867  -0.152   2.231   6.649 -1.1825 -1.2227  1.4712
  160SAPE   C3317868   1.028   1.913   5.043  0.1379  0.0443 -1.0097
  160SAPE   H3X17869   1.085   2.000   5.004 -1.4020  1.3125 -0.4945
  160SAPE   H3Y17870   1.053   1.896   5.150 -2.4945  0.3467 -0.2979
  160SAPE   C3417871   0.878   1.948   5.049  0.4647 -0.3070  0.0416
  160SAPE   H4X17872   0.818   1.878   5.112  0.5393 -1.2760 -0.9348
  160SAPE   H4Y17873   0.837   1.954   4.946  0.4708 -0.1447  0.0495
  160SAPE   C3517874   0.859   2.089   5.103  0.6700  0.3579 -0.2613
  160SAPE   H5X17875   0.754   2.119   5.079 -0.0052  0.2408  2.2681
  160SAPE   H5Y17876   0.934   2.165   5.072  1.1639 -0.3171 -0.7364
  160SAPE   C3617877   0.869   2.082   5.259 -0.2287 -0.1424  0.9053
  160SAPE   H6X17878   0.976   2.079   5.287 -0.2795  2.4221  1.6193
  160SAPE   H6Y17879   0.821   1.988   5.294  1.9185 -1.9033 -0.6183
  160SAPE   C3717880   0.800   2.193   5.332 -0.3714 -0.2324  0.1214
  160SAPE   H7X17881   0.691   2.179   5.347 -0.6937  0.7752 -1.1451
  160SAPE   H7Y17882   0.813   2.289   5.278  2.1301 -0.1705  0.6828
  160SAPE   C3817883   0.853   2.204   5.476 -0.2007 -0.2713  0.0060
  160SAPE   H8X17884   0.964   2.208   5.480 -0.0041 -2.6519 -1.2342
  160SAPE   H8Y17885   0.813   2.109   5.518 -1.1728  0.4182  0.6917
  160SAPE   C3917886   0.788   2.317   5.555  0.0417  0.3977  0.5555
  160SAPE   H9X17887   0.680   2.296   5.548  0.2719 -1.0283  1.0072
  160SAPE   H9Y17888   0.818   2.416   5.513  0.2238 -0.5216 -1.6462
  160SAPE  C31017889   0.820   2.327   5.710  0.3304 -0.6067  0.3532
  160SAPE  H10X17890   0.822   2.225   5.754 -0.2150 -1.3052 -1.1863
  160SAPE  H10Y17891   0.743   2.387   5.762 -1.0061 -1.4161 -0.6354
  160SAPE  C31117892   0.954   2.399   5.725  1.0483 -0.1113  0.0096
  160SAPE  H11X17893   0.943   2.500   5.682 -1.1343 -1.3314 -2.5936
  160SAPE  H11Y17894   1.037   2.345   5.674  1.7440  1.4292 -0.5377
  160SAPE  C31217895   0.994   2.408   5.868  0.1747 -0.3366 -0.0211
  160SAPE  H12X17896   1.001   2.305   5.909  3.5154 -0.5077 -0.7526
  160SAPE  H12Y17897   0.914   2.471   5.913  0.1531  0.3220 -0.9439
  160SAPE  C31317898   1.130   2.481   5.874 -0.1339  0.1119  0.2146
  160SAPE  H13X17899   1.122   2.586   5.837  0.5346  1.0102  2.4665
  160SAPE  H13Y17900   1.200   2.414   5.821  1.0468  0.7323  0.9532
  160SAPE  C31417901   1.164   2.491   6.023 -0.0250 -0.8502  0.3765
  160SAPE  H14X17902   1.181   2.392   6.069  0.4287 -1.6461 -1.4313
  160SAPE  H14Y17903   1.085   2.535   6.087  2.1681  2.5483  1.0611
  160SAPE  C31517904   1.282   2.581   6.053 -0.3708 -0.2212  0.3670
  160SAPE  H15X17905   1.262   2.680   6.007 -3.2123  0.0297  1.9257
  160SAPE  H15Y17906   1.374   2.535   6.010  1.5471  1.5654  2.3286
  160SAPE  C31617907   1.310   2.607   6.193  0.3098  0.3228 -0.4317
  160SAPE  H16X17908   1.216   2.651   6.233 -0.5720  0.7907 -2.8401
  160SAPE  H16Y17909   1.391   2.681   6.206  1.1685 -0.8360  1.2436
  160SAPE  C31717910   1.323   2.479   6.284  0.1484  1.1549  0.0759
  160SAPE  H17X17911   1.405   2.416   6.245 -0.0217 -0.2147  1.8206
  160SAPE  H17Y17912   1.225   2.427   6.295 -0.8838  2.9727  0.0183
  160SAPE  C31817913   1.372   2.521   6.422 -0.1589  0.2102 -0.1479
  160SAPE  H18X17914   1.412   2.424   6.461 -1.5510 -1.8168 -3.3304
  160SAPE  H18Y17915   1.288   2.555   6.487  0.7707 -1.3803  2.0362
  160SAPE  H18Z17916   1.449   2.601   6.426 -2.9837  3.0827  1.0752
  161SAPE     N17917   6.488   1.809   4.400 -0.2225  0.4018 -0.0574
  161SAPE   HN117918   6.490   1.728   4.335  3.0483 -0.7341  1.2774
  161SAPE   HN217919   6.500   1.778   4.498 -0.5775 -1.8278 -0.6605
  161SAPE   HN317920   6.396   1.854   4.384  0.2264  0.7918 -1.7921
  161SAPE   C1217921   6.598   1.903   4.374  0.5049 -0.4456 -0.3254
  161SAPE  H12A17922   6.603   1.926   4.266  1.0385  0.7848 -0.0594
  161SAPE  H12B17923   6.698   1.857   4.384  1.1713  0.9076 -0.5500
  161SAPE   C1117924   6.593   2.042   4.445  0.0898  0.5169  0.0693
  161SAPE  H11A17925   6.691   2.090   4.427 -0.1034  1.1182  0.6041
  161SAPE  H11B17926   6.571   2.030   4.553 -2.0534  1.8218 -0.1578
  161SAPE     P17927   6.465   2.268   4.428  0.4258 -0.1851 -0.0022
  161SAPE   O1317928   6.564   2.346   4.346  0.4699 -0.1321  0.5998
  161SAPE   O1417929   6.322   2.310   4.407  0.6485 -0.4274  0.1717
  161SAPE   O1217930   6.483   2.118   4.396 -0.2785  0.5957 -0.5340
  161SAPE   O1117931   6.499   2.291   4.587  0.2799  0.1640  0.3964
  161SAPE    C117932   6.630   2.356   4.605 -0.4496  0.6965 -0.0272
  161SAPE    HA17933   6.712   2.324   4.537 -1.1645 -0.3901 -0.3916
  161SAPE    HB17934   6.609   2.465   4.594  1.7652  1.3922  1.7271
  161SAPE    C217935   6.675   2.344   4.748  0.1133 -0.5742 -0.3541
  161SAPE    HS17936   6.775   2.388   4.767 -0.2910 -0.2024  1.0052
  161SAPE   O2117937   6.672   2.207   4.789  0.6547  0.2709  0.0885
  161SAPE   C2117938   6.766   2.129   4.735 -0.3046 -0.3510  0.0516
  161SAPE   O2217939   6.855   2.152   4.652  0.6711  0.2165  0.0205
  161SAPE   C2217940   6.749   1.984   4.791  0.5562 -0.3486  0.2020
  161SAPE   H2R17941   6.638   1.978   4.793  0.1304  4.0475  0.0801
  161SAPE   H2S17942   6.803   1.911   4.727  0.0480 -0.0132 -0.6292
  161SAPE    C317943   6.585   2.419   4.846  0.2953 -0.2434  0.2176
  161SAPE    HX17944   6.482   2.377   4.838  0.0799  0.4599 -0.9293
  161SAPE    HY17945   6.589   2.525   4.811 -0.4218  0.2695  1.6149
  161SAPE   O3117946   6.635   2.413   4.979 -0.1172 -0.2602  0.1751
  161SAPE   C3117947   6.564   2.342   5.079 -0.1487 -0.5280  0.1267
  161SAPE   O3217948   6.454   2.299   5.062 -0.2118 -0.0914  0.5346
  161SAPE   C3217949   6.660   2.320   5.197  0.4692  0.4700  0.1496
  161SAPE   H2X17950   6.712   2.417   5.213  2.2676 -0.0643 -1.9785
  161SAPE   H2Y17951   6.737   2.245   5.170  0.7933  0.7169  0.3743
  161SAPE   C2317952   6.809   1.988   4.933  0.3169  0.1572 -0.1429
  161SAPE   H3R17953   6.762   2.064   5.000  0.8513  2.3674 -2.1195
  161SAPE   H3S17954   6.916   2.014   4.927  0.7372 -1.2186  1.0394
  161SAPE   C2417955   6.809   1.845   4.989 -0.0332 -0.3919  0.4348
  161SAPE   H4R17956   6.844   1.844   5.095  0.7811 -2.3839  0.1811
  161SAPE   H4S17957   6.889   1.796   4.930 -1.6841 -2.6346 -0.0759
  161SAPE   C2517958   6.683   1.765   4.964  0.6560 -0.0673 -0.2757
  161SAPE   H5R17959   6.679   1.700   4.876  0.9875 -0.5327  0.0511
  161SAPE   C2617960   6.592   1.731   5.062  0.2846  0.0928  0.7602
  161SAPE   H6R17961   6.502   1.676   5.034 -0.7095  0.9429  2.1305
  161SAPE   C2717962   6.578   1.793   5.200 -0.5162 -0.5758 -0.3444
  161SAPE   H7R17963   6.474   1.764   5.228 -0.7104  0.1548 -0.2902
  161SAPE   H7S17964   6.591   1.903   5.197  0.3733 -0.4946  2.7317
  161SAPE   C2817965   6.676   1.743   5.300 -0.4520  0.4934  0.1791
  161SAPE   H8R17966   6.771   1.704   5.261  0.3239 -0.2837  2.6338
  161SAPE   C2917967   6.659   1.762   5.435 -0.3532 -0.4201  0.0846
  161SAPE   H9R17968   6.736   1.717   5.499 -0.9823 -3.2781 -1.0061
  161SAPE  C21017969   6.540   1.814   5.511  0.2161 -0.8293 -0.7430
  161SAPE  H10R17970   6.505   1.729   5.573 -2.2524  0.4162 -0.2877
  161SAPE  H10S17971   6.457   1.855   5.449 -0.4469  1.8867  1.7076
  161SAPE  C21117972   6.582   1.931   5.609 -1.0714  0.1305  0.5563
  161SAPE  H11R17973   6.567   2.036   5.580  2.5909  0.4500 -0.7536
  161SAPE  C21217974   6.636   1.919   5.730 -0.2422  0.5901  0.3625
  161SAPE  H12R17975   6.648   2.009   5.792  0.7148  1.6735 -1.3173
  161SAPE  C21317976   6.674   1.789   5.801  0.0871  0.5340 -0.1421
  161SAPE  H13R17977   6.767   1.808   5.858  0.6272  0.2312 -0.9022
  161SAPE  H13S17978   6.689   1.707   5.728  0.4901  1.8708 -1.6146
  161SAPE  C21417979   6.570   1.749   5.904 -0.1986  0.9358  0.1489
  161SAPE  H14R17980   6.491   1.692   5.855  0.4386 -0.1582  0.3724
  161SAPE  C21517981   6.560   1.785   6.037 -0.2247  0.3564  0.0165
  161SAPE  H15R17982   6.472   1.757   6.097 -1.1133  0.0736 -1.3720
  161SAPE  C21617983   6.653   1.881   6.105  0.1549 -0.1181 -0.6511
  161SAPE  H16R17984   6.597   1.968   6.146  0.9969  0.4120 -0.6009
  161SAPE  H16S17985   6.722   1.927   6.031  0.5627  0.4373  0.0517
  161SAPE  C21717986   6.758   1.806   6.205  0.3100 -0.4520  0.0527
  161SAPE  H17R17987   6.822   1.731   6.154  0.1799  0.6504 -1.8191
  161SAPE  H17S17988   6.700   1.738   6.270 -0.4138 -0.7604 -0.9085
  161SAPE  C21817989   6.858   1.903   6.266  0.5098  0.2663  0.4367
  161SAPE  H18R17990   6.814   1.996   6.307 -0.4308 -0.3840  0.9499
  161SAPE  H18S17991   6.930   1.933   6.188 -1.0001  1.3324 -0.5975
  161SAPE  C21917992   6.954   1.841   6.370  0.1123 -0.2315 -0.3612
  161SAPE  H19R17993   7.028   1.921   6.395 -0.3490  1.4806 -3.8751
  161SAPE  H19S17994   7.005   1.755   6.322  0.1204 -0.3762 -0.0966
  161SAPE  C22017995   6.885   1.794   6.495  0.3702 -0.1493  0.1151
  161SAPE  H20R17996   6.816   1.710   6.472  0.6398 -0.3919  0.1784
  161SAPE  H20S17997   6.829   1.877   6.543 -2.4917 -2.7107  1.5612
  161SAPE  H20T17998   6.958   1.769   6.575 -2.2457 -0.6592  2.5033
  161SAPE   C3317999   6.583   2.293   5.332 -0.7167  0.3956  0.5346
  161SAPE   H3X18000   6.651   2.261   5.414 -1.8578  0.5076  1.5569
  161SAPE   H3Y18001   6.509   2.210   5.326  0.5100 -0.6263 -1.0739
  161SAPE   C3418002   6.507   2.408   5.396 -1.1307 -0.3516  0.0240
  161SAPE   H4X18003   6.425   2.440   5.328  1.4886  1.2016 -2.6521
  161SAPE   H4Y18004   6.569   2.498   5.414 -1.5238  0.0964 -0.8188
  161SAPE   C3518005   6.436   2.384   5.525 -0.2103 -0.0147  0.6377
  161SAPE   H5X18006   6.358   2.307   5.507  1.1758 -1.3449  0.0853
  161SAPE   H5Y18007   6.394   2.478   5.567 -0.0637  0.1891  0.3348
  161SAPE   C3618008   6.537   2.352   5.634 -0.5642 -0.1667 -0.1143
  161SAPE   H6X18009   6.613   2.432   5.643 -1.5466  0.8604 -0.7017
  161SAPE   H6Y18010   6.587   2.257   5.606 -0.6336  0.3157 -1.9715
  161SAPE   C3718011   6.473   2.325   5.767  0.2912  0.6011  0.1899
  161SAPE   H7X18012   6.448   2.216   5.768  1.9273  0.2065  0.5378
  161SAPE   H7Y18013   6.382   2.387   5.781  0.3057  0.5509  0.5154
  161SAPE   C3818014   6.572   2.330   5.888 -0.7400  0.0113 -0.7780
  161SAPE   H8X18015   6.613   2.434   5.887  0.6116 -0.5071 -1.3884
  161SAPE   H8Y18016   6.651   2.253   5.872 -2.1181 -1.1923 -2.0346
  161SAPE   C3918017   6.508   2.298   6.020  0.0212 -0.4486 -0.0697
  161SAPE   H9X18018   6.587   2.312   6.097  0.0303  0.0084 -0.1550
  161SAPE   H9Y18019   6.478   2.191   6.022  3.3066 -1.4908 -0.1577
  161SAPE  C31018020   6.392   2.389   6.049  0.1662 -0.2753 -1.0242
  161SAPE  H10X18021   6.298   2.337   6.022  0.8254 -1.6477 -0.7519
  161SAPE  H10Y18022   6.411   2.475   5.981  0.6709 -1.0809 -1.9280
  161SAPE  C31118023   6.383   2.446   6.191 -0.4679 -0.2906 -0.4300
  161SAPE  H11X18024   6.370   2.374   6.274  1.6390 -1.5630 -1.1436
  161SAPE  H11Y18025   6.290   2.507   6.189 -0.6387 -0.4863  0.7187
  161SAPE  C31218026   6.499   2.544   6.231  0.1038 -0.8024 -0.1327
  161SAPE  H12X18027   6.529   2.606   6.144  0.5965 -0.4688  0.2672
  161SAPE  H12Y18028   6.581   2.475   6.258 -1.3160 -1.5097  2.8022
  161SAPE  C31318029   6.456   2.623   6.356 -0.0932 -0.2944 -0.0686
  161SAPE  H13X18030   6.442   2.543   6.432 -0.1823 -2.4511 -2.2264
  161SAPE  H13Y18031   6.359   2.671   6.335 -0.0523 -0.4106 -0.5458
  161SAPE  C31418032   6.550   2.724   6.412 -0.9587 -0.4095 -0.2799
  161SAPE  H14X18033   6.588   2.787   6.329 -2.1232  0.8383  0.1095
  161SAPE  H14Y18034   6.640   2.678   6.459  0.7382  1.9770 -0.9657
  161SAPE  C31518035   6.500   2.797   6.533  0.2594  0.1717  0.2264
  161SAPE  H15X18036   6.490   2.723   6.615 -1.0565  0.4542  0.3461
  161SAPE  H15Y18037   6.400   2.843   6.520 -0.2229 -0.1341  2.4013
  161SAPE  C31618038   6.590   2.911   6.586  0.3181  0.8288  1.0514
  161SAPE  H16X18039   6.626   2.973   6.501  0.1975 -1.1238 -0.5048
  161SAPE  H16Y18040   6.679   2.857   6.626  0.3646  0.2657  0.2277
  161SAPE  C31718041   6.541   3.008   6.699  0.9506  0.2053  0.2294
  161SAPE  H17X18042   6.497   2.948   6.781 -2.3175 -1.0819 -2.2196
  161SAPE  H17Y18043   6.457   3.062   6.650  0.7135 -1.3313 -1.1449
  161SAPE  C31818044   6.651   3.089   6.764  0.8226  0.0888 -0.4532
  161SAPE  H18X18045   6.720   3.134   6.690  0.9496 -0.6213 -0.7756
  161SAPE  H18Y18046   6.720   3.031   6.829 -0.1430 -0.9613 -0.3300
  161SAPE  H18Z18047   6.602   3.173   6.819 -2.0115 -0.7335 -1.5273
  162SAPE     N18048   0.023   4.349   4.672 -0.1547  0.5039 -0.0601
  162SAPE   HN118049  -0.015   4.253   4.683 -0.5502  0.7232  0.5223
  162SAPE   HN218050   0.095   4.362   4.746  1.5838  1.6847 -1.8639
  162SAPE   HN318051  -0.058   4.413   4.684 -1.4572 -0.3481 -3.1981
  162SAPE   C1218052   0.103   4.364   4.548  0.3430  0.3003 -0.1406
  162SAPE  H12A18053   0.037   4.336   4.462  1.1788  0.1201 -0.7341
  162SAPE  H12B18054   0.190   4.296   4.558  1.7562  2.1212  0.3931
  162SAPE   C1118055   0.164   4.497   4.529 -0.3554  0.0503 -0.4475
  162SAPE  H11A18056   0.211   4.486   4.429 -1.2393  0.3326 -0.8987
  162SAPE  H11B18057   0.244   4.515   4.605 -0.9756  0.6888  0.0665
  162SAPE     P18058   0.106   4.741   4.522  0.2763 -0.3435 -0.0396
  162SAPE   O1318059   0.236   4.752   4.461 -0.1196  0.3009 -0.5611
  162SAPE   O1418060  -0.006   4.827   4.479  0.1170  0.1154  0.4376
  162SAPE   O1218061   0.062   4.595   4.528 -0.1988  0.2462 -0.7130
  162SAPE   O1118062   0.129   4.764   4.677  0.7988 -0.4369  0.2263
  162SAPE    C118063   0.014   4.722   4.757 -0.5188 -0.4431  0.3821
  162SAPE    HA18064  -0.080   4.700   4.703 -0.0403 -2.1640  0.1710
  162SAPE    HB18065   0.044   4.626   4.804  3.2846 -1.0498 -2.7252
  162SAPE    C218066  -0.017   4.841   4.854  0.3986 -0.6121 -0.5247
  162SAPE    HS18067  -0.025   4.930   4.788 -2.6098 -0.8516 -0.6232
  162SAPE   O2118068   0.096   4.843   4.945 -0.3486 -0.6043 -0.4645
  162SAPE   C2118069   0.111   4.957   5.019  1.0013 -0.4096  0.0046
  162SAPE   O2218070   0.052   5.061   4.976  0.1544  0.3430 -0.0087
  162SAPE   C2218071   0.225   4.934   5.112  1.0629 -0.4588  0.1563
  162SAPE   H2R18072   0.204   4.841   5.169  0.6862 -0.3611  0.1841
  162SAPE   H2S18073   0.305   4.919   5.037 -0.9830  0.6603 -2.4170
  162SAPE    C318074  -0.161   4.821   4.935 -0.7775  0.1413  0.0392
  162SAPE    HX18075  -0.158   4.716   4.970  0.3068  0.0101 -0.4215
  162SAPE    HY18076  -0.249   4.824   4.866 -0.0429 -0.0309 -0.9276
  162SAPE   O3118077  -0.176   4.911   5.047 -0.2475  0.8197  0.0205
  162SAPE   C3118078  -0.262   5.003   5.025  0.1499 -0.4238 -0.7452
  162SAPE   O3218079  -0.345   5.003   4.936  0.2082 -0.2302  0.5048
  162SAPE   C3218080  -0.257   5.102   5.139  0.6858 -0.0119  0.4730
  162SAPE   H2X18081  -0.343   5.173   5.136  0.4106 -0.3683 -0.6684
  162SAPE   H2Y18082  -0.153   5.143   5.144  0.6525  0.0700  0.4940
  162SAPE   C2318083   0.263   5.046   5.211 -0.4954 -0.1927  0.2907
  162SAPE   H3R18084   0.300   5.138   5.160  0.7242  0.2519  1.8892
  162SAPE   H3S18085   0.357   5.027   5.267  0.3003  0.2802 -0.8252
  162SAPE   C2418086   0.151   5.068   5.313  0.0268 -0.3426  0.1004
  162SAPE   H4R18087   0.131   4.985   5.384  1.8889 -1.2897 -0.4085
  162SAPE   H4S18088   0.052   5.088   5.267 -0.3667 -1.9296  0.2129
  162SAPE   C2518089   0.199   5.189   5.384 -0.2208 -0.1977  0.2886
  162SAPE   H5R18090   0.224   5.280   5.328 -0.5619  1.1127  2.1634
  162SAPE   C2618091   0.223   5.208   5.513 -0.6816 -0.2705 -0.0166
  162SAPE   H6R18092   0.267   5.306   5.539  1.2539 -1.4218  1.3123
  162SAPE   C2718093   0.207   5.116   5.622 -0.7539  0.5635  0.4699
  162SAPE   H7R18094   0.284   5.132   5.701  0.5444  1.2093 -0.8877
  162SAPE   H7S18095   0.245   5.018   5.586  5.1225  2.0813  1.5602
  162SAPE   C2818096   0.072   5.113   5.674  0.2962 -0.5156 -0.1792
  162SAPE   H8R18097  -0.005   5.131   5.598  2.2383  1.6213 -1.7915
  162SAPE   C2918098   0.025   5.112   5.801  0.0006  0.0804  0.1765
  162SAPE   H9R18099  -0.083   5.089   5.801  0.2489 -1.2460  1.5318
  162SAPE  C21018100   0.109   5.095   5.928  0.8172  0.0317  0.1838
  162SAPE  H10R18101   0.218   5.091   5.910  0.8800  1.4291  0.1368
  162SAPE  H10S18102   0.062   5.001   5.963 -1.5187  0.7492 -0.7671
  162SAPE  C21118103   0.080   5.205   6.031  0.3256 -0.1450  0.1681
  162SAPE  H11R18104   0.075   5.306   5.987 -0.9533 -0.1468  0.2860
  162SAPE  C21218105   0.057   5.192   6.162  0.1433  0.3629 -0.0645
  162SAPE  H12R18106   0.031   5.281   6.221 -1.2316  0.7502 -1.2005
  162SAPE  C21318107   0.053   5.060   6.231 -0.5373 -0.1469 -0.1818
  162SAPE  H13R18108   0.016   4.976   6.168 -0.6451 -0.6922  0.5870
  162SAPE  H13S18109  -0.031   5.069   6.303 -0.9092  0.5565 -0.7003
  162SAPE  C21418110   0.183   5.029   6.302  0.0379 -0.2557 -0.1588
  162SAPE  H14R18111   0.266   5.039   6.230  1.1001  0.3881  1.1153
  162SAPE  C21518112   0.203   5.006   6.432 -0.4671  0.0477  0.0353
  162SAPE  H15R18113   0.300   5.011   6.481 -1.1836 -0.4445  1.5574
  162SAPE  C21618114   0.098   5.010   6.541 -0.9124  0.1713  0.7928
  162SAPE  H16R18115   0.138   4.945   6.621  1.7955  2.1180  1.1950
  162SAPE  H16S18116   0.000   4.964   6.515  0.0151 -2.4503  1.5928
  162SAPE  C21718117   0.076   5.144   6.621 -0.0545  0.1673 -0.2419
  162SAPE  H17R18118   0.037   5.217   6.546  0.8491  1.8837  0.8857
  162SAPE  H17S18119   0.175   5.182   6.654 -1.1844  2.7167  0.4843
  162SAPE  C21818120  -0.012   5.124   6.748  0.1245  0.1207 -0.1154
  162SAPE  H18R18121  -0.089   5.046   6.733 -0.0937 -0.3843  3.0001
  162SAPE  H18S18122  -0.064   5.218   6.775 -1.3891 -1.0911  1.3648
  162SAPE  C21918123   0.062   5.075   6.882 -0.4096 -0.2530 -0.1427
  162SAPE  H19R18124   0.123   4.984   6.862 -1.5235 -1.1499  0.4089
  162SAPE  H19S18125  -0.019   5.053   6.954 -0.0751  1.3968  0.7898
  162SAPE  C22018126   0.156   5.178   6.944 -0.5026  0.6180  0.0160
  162SAPE  H20R18127   0.106   5.276   6.955 -0.2272  1.0056 -1.9426
  162SAPE  H20S18128   0.244   5.202   6.881 -2.3574 -0.8844 -3.3657
  162SAPE  H20T18129   0.200   5.141   7.040  0.3600  3.3717  0.7910
  162SAPE   C3318130  -0.286   5.021   5.271  0.1874  0.1337  0.7818
  162SAPE   H3X18131  -0.266   5.092   5.355  1.4718 -1.4343  1.8596
  162SAPE   H3Y18132  -0.216   4.936   5.283 -0.4406 -0.5257 -0.1542
  162SAPE   C3418133  -0.431   4.977   5.290  0.7543  0.0932  0.3665
  162SAPE   H4X18134  -0.456   4.911   5.204 -0.0718  0.5840  0.2207
  162SAPE   H4Y18135  -0.504   5.061   5.283  0.1943 -0.3588  0.6382
  162SAPE   C3518136  -0.453   4.913   5.427  0.0835  0.5880  0.5976
  162SAPE   H5X18137  -0.417   4.809   5.408 -0.7764  0.2769  0.6409
  162SAPE   H5Y18138  -0.562   4.898   5.438 -0.1558  1.3221 -0.6315
  162SAPE   C3618139  -0.401   4.981   5.553  0.2317 -0.3176 -0.3329
  162SAPE   H6X18140  -0.291   4.991   5.540  0.2341  1.2152  0.5855
  162SAPE   H6Y18141  -0.416   4.912   5.639 -3.8287  1.6959  0.8450
  162SAPE   C3718142  -0.473   5.124   5.583  0.4849 -0.3394 -0.2426
  162SAPE   H7X18143  -0.553   5.143   5.510  0.2728  0.1373  0.1126
  162SAPE   H7Y18144  -0.399   5.203   5.559  0.8538  0.2785  2.5110
  162SAPE   C3818145  -0.510   5.141   5.726 -0.3026 -0.1226 -0.6913
  162SAPE   H8X18146  -0.578   5.060   5.763  2.2168 -1.8467  0.4590
  162SAPE   H8Y18147  -0.562   5.237   5.748 -1.3747 -0.4436 -1.6604
  162SAPE   C3918148  -0.392   5.137   5.827  0.4371 -0.6693 -0.4534
  162SAPE   H9X18149  -0.311   5.206   5.795 -0.4412 -0.5256 -2.5365
  162SAPE   H9Y18150  -0.342   5.038   5.837  0.7634 -0.2584  4.7939
  162SAPE  C31018151  -0.427   5.162   5.980 -0.3188  0.0483  0.3406
  162SAPE  H10X18152  -0.488   5.072   6.005 -0.9551  0.4116  0.1344
  162SAPE  H10Y18153  -0.493   5.251   5.984 -2.0097 -1.1813  1.1826
  162SAPE  C31118154  -0.300   5.183   6.066  1.2425  0.1883  0.5064
  162SAPE  H11X18155  -0.228   5.236   6.000 -0.6786 -0.4854 -2.3336
  162SAPE  H11Y18156  -0.257   5.085   6.096  1.2799  0.0763  0.0957
  162SAPE  C31218157  -0.330   5.253   6.196 -1.2370  0.0233  0.0023
  162SAPE  H12X18158  -0.393   5.343   6.177 -2.1109 -0.5786 -0.0024
  162SAPE  H12Y18159  -0.240   5.279   6.256 -1.0673  1.5653 -0.8672
  162SAPE  C31318160  -0.407   5.165   6.300  0.4602 -0.3144 -0.1552
  162SAPE  H13X18161  -0.344   5.077   6.322 -0.2283 -0.7362  0.1796
  162SAPE  H13Y18162  -0.501   5.130   6.252  1.6744 -1.2440 -1.9847
  162SAPE  C31418163  -0.430   5.233   6.431 -0.4877 -0.7899 -0.6714
  162SAPE  H14X18164  -0.342   5.294   6.459  0.3094 -2.1871 -0.0410
  162SAPE  H14Y18165  -0.441   5.147   6.502 -0.1947 -1.0723 -0.9647
  162SAPE  C31518166  -0.552   5.324   6.434  0.9668 -0.6158 -0.5528
  162SAPE  H15X18167  -0.645   5.267   6.416  1.3910 -0.6803 -2.8138
  162SAPE  H15Y18168  -0.546   5.395   6.349 -1.2359 -1.0466 -1.1097
  162SAPE  C31618169  -0.559   5.407   6.565 -0.9591 -0.2066 -0.0313
  162SAPE  H16X18170  -0.456   5.438   6.596 -0.5355 -1.9712  0.4027
  162SAPE  H16Y18171  -0.593   5.338   6.645 -0.0292 -1.3018 -0.5572
  162SAPE  C31718172  -0.656   5.526   6.559  0.3264  0.5630  0.0238
  162SAPE  H17X18173  -0.760   5.496   6.536  0.3417 -0.0869  0.7698
  162SAPE  H17Y18174  -0.618   5.604   6.489  1.9868  0.9431  1.2745
  162SAPE  C31818175  -0.653   5.613   6.690  0.1659 -0.2060  0.1209
  162SAPE  H18X18176  -0.696   5.714   6.670 -3.9590 -2.3407 -3.4088
  162SAPE  H18Y18177  -0.548   5.631   6.721  0.5028 -0.0832 -1.0351
  162SAPE  H18Z18178  -0.709   5.557   6.768 -0.0265  3.0320  2.5499
  163SAPE     N18179   4.265   4.490   4.286 -0.2301  0.0280  0.4457
  163SAPE   HN118180   4.201   4.460   4.209  0.0365 -1.4411  0.7583
  163SAPE   HN218181   4.205   4.499   4.370  0.2588  0.8936  0.7119
  163SAPE   HN318182   4.303   4.585   4.270  1.6975 -0.6668  0.6527
  163SAPE   C1218183   4.363   4.388   4.326  0.0135  0.9576  0.7497
  163SAPE  H12A18184   4.395   4.347   4.228  2.7479  1.8595  1.1904
  163SAPE  H12B18185   4.303   4.310   4.378  0.3777  0.1619 -0.0056
  163SAPE   C1118186   4.482   4.433   4.412  0.4247 -0.1614 -0.1385
  163SAPE  H11A18187   4.526   4.515   4.352  0.9389  0.4087  1.0050
  163SAPE  H11B18188   4.556   4.350   4.412  0.0882 -0.5150 -1.8271
  163SAPE     P18189   4.518   4.581   4.628 -0.0432  0.0523 -0.2596
  163SAPE   O1318190   4.480   4.702   4.561  0.1561 -0.4056  0.5334
  163SAPE   O1418191   4.497   4.563   4.776 -0.2615  0.0352 -0.5904
  163SAPE   O1218192   4.451   4.463   4.547  0.5450 -0.2406  0.1086
  163SAPE   O1118193   4.667   4.562   4.590 -0.0002  0.6584 -0.3418
  163SAPE    C118194   4.754   4.484   4.663  0.3334  0.1039  0.4619
  163SAPE    HA18195   4.715   4.456   4.763  0.6512  0.3858  0.6679
  163SAPE    HB18196   4.783   4.394   4.604 -1.0788  0.7694 -1.3123
  163SAPE    C218197   4.887   4.554   4.701 -1.1818  0.5002 -0.3236
  163SAPE    HS18198   4.943   4.585   4.610 -2.1763 -1.7373 -1.7844
  163SAPE   O2118199   4.966   4.467   4.782 -0.4477  0.2680 -0.2257
  163SAPE   C2118200   5.030   4.372   4.719  0.3213  0.0457  0.2654
  163SAPE   O2218201   5.044   4.354   4.600 -0.7472 -0.1649 -0.5745
  163SAPE   C2218202   5.091   4.277   4.824 -0.6311  0.7637  0.4394
  163SAPE   H2R18203   5.015   4.211   4.869  0.6468  1.4929  4.0529
  163SAPE   H2S18204   5.159   4.211   4.767 -2.1575 -1.9845  1.6421
  163SAPE    C318205   4.857   4.679   4.785 -0.2181  0.0682  0.8017
  163SAPE    HX18206   4.766   4.665   4.847 -2.6940  0.9035 -2.3458
  163SAPE    HY18207   4.827   4.751   4.705  1.0285 -0.1686  0.0892
  163SAPE   O3118208   4.969   4.741   4.858 -0.1089  0.0164 -0.4563
  163SAPE   C3118209   4.953   4.768   4.990  0.1651  0.1101 -0.0314
  163SAPE   O3218210   4.847   4.749   5.053 -0.2191 -0.0161  0.6223
  163SAPE   C3218211   5.077   4.840   5.040 -0.0533  0.1978 -0.1052
  163SAPE   H2X18212   5.089   4.929   4.976 -0.9157  0.1303 -0.3738
  163SAPE   H2Y18213   5.163   4.776   5.012 -2.2095 -3.0501  0.1156
  163SAPE   C2318214   5.183   4.346   4.930 -0.1573 -0.1399 -0.4302
  163SAPE   H3R18215   5.250   4.414   4.871  0.3607 -0.4185 -0.1729
  163SAPE   H3S18216   5.258   4.275   4.972 -1.0358 -1.6520 -1.3596
  163SAPE   C2418217   5.117   4.430   5.042  0.5163  0.1210 -0.6865
  163SAPE   H4R18218   5.047   4.505   4.998 -0.0585  0.5976  0.9782
  163SAPE   H4S18219   5.184   4.482   5.113 -3.3352  0.1173  3.3960
  163SAPE   C2518220   5.043   4.339   5.136  0.8351 -0.1105 -0.5431
  163SAPE   H5R18221   4.958   4.284   5.094 -0.2173  0.4674  0.7547
  163SAPE   C2618222   5.064   4.322   5.272  0.3346  0.0668 -0.2363
  163SAPE   H6R18223   5.004   4.246   5.323 -0.3664  1.1045  0.5357
  163SAPE   C2718224   5.175   4.372   5.361 -0.3622 -0.4751  0.4867
  163SAPE   H7R18225   5.126   4.427   5.444  1.0974  1.1754  0.2922
  163SAPE   H7S18226   5.240   4.440   5.302 -1.0287  0.4076  0.7511
  163SAPE   C2818227   5.259   4.262   5.415 -0.6274  0.6662  0.6133
  163SAPE   H8R18228   5.249   4.166   5.361 -2.4893  1.8138 -1.2590
  163SAPE   C2918229   5.334   4.265   5.525  0.7439 -0.2857 -0.1179
  163SAPE   H9R18230   5.394   4.178   5.556  0.6885  0.1980  1.4504
  163SAPE  C21018231   5.343   4.378   5.627  0.5775  0.2244  0.4784
  163SAPE  H10R18232   5.355   4.471   5.568 -0.4797 -0.1869 -0.4359
  163SAPE  H10S18233   5.426   4.374   5.699  1.9008 -1.2623 -1.0403
  163SAPE  C21118234   5.215   4.390   5.709  0.1635  0.3087 -0.0446
  163SAPE  H11R18235   5.136   4.440   5.652 -0.9816 -1.0732  0.2645
  163SAPE  C21218236   5.187   4.363   5.842 -0.0383  1.1992 -0.5399
  163SAPE  H12R18237   5.088   4.385   5.883  0.4117  0.4815  0.9977
  163SAPE  C21318238   5.287   4.294   5.932 -0.3548  0.4552  0.2619
  163SAPE  H13R18239   5.311   4.368   6.011 -0.1056  1.6265 -0.8665
  163SAPE  H13S18240   5.382   4.263   5.883 -0.9905 -1.1598 -0.0146
  163SAPE  C21418241   5.234   4.175   6.003 -0.2099 -0.3929  0.8541
  163SAPE  H14R18242   5.236   4.094   5.928 -0.7294  0.6874 -0.3591
  163SAPE  C21518243   5.179   4.157   6.129  0.7460 -0.8435  0.5308
  163SAPE  H15R18244   5.120   4.065   6.142 -0.7023  0.1261  1.1401
  163SAPE  C21618245   5.154   4.265   6.232  0.2010 -0.2781  0.1118
  163SAPE  H16R18246   5.049   4.301   6.237  0.9842  2.6101 -1.6362
  163SAPE  H16S18247   5.216   4.355   6.214  0.2913 -0.3221  0.2045
  163SAPE  C21718248   5.181   4.235   6.381 -0.3407 -0.0546  0.1643
  163SAPE  H17R18249   5.172   4.327   6.443 -2.6213  0.3129 -0.6372
  163SAPE  H17S18250   5.288   4.208   6.389 -0.1420  0.2078 -1.3424
  163SAPE  C21818251   5.092   4.128   6.448 -0.1190  0.6725 -0.4128
  163SAPE  H18R18252   4.983   4.135   6.428 -0.4782 -1.8652  0.2927
  163SAPE  H18S18253   5.103   4.150   6.557 -1.4795  2.2140 -0.5474
  163SAPE  C21918254   5.135   3.977   6.431  0.0579  0.6269 -0.3403
  163SAPE  H19R18255   5.237   3.965   6.472  0.5628 -1.5412 -2.0191
  163SAPE  H19S18256   5.147   3.942   6.326  1.5787 -1.7123  0.5216
  163SAPE  C22018257   5.045   3.874   6.510 -0.3367 -0.4458 -0.3237
  163SAPE  H20R18258   4.943   3.875   6.467 -1.0794 -0.7370  1.3791
  163SAPE  H20S18259   5.043   3.909   6.615  1.6852 -1.6970  0.1903
  163SAPE  H20T18260   5.096   3.775   6.508 -0.5868 -0.5868  0.1417
  163SAPE   C3318261   5.082   4.865   5.193  0.4314  0.2060 -0.3686
  163SAPE   H3X18262   4.991   4.927   5.211  1.1164  1.2872 -0.5246
  163SAPE   H3Y18263   5.171   4.929   5.212  1.2341  0.3030 -3.7882
  163SAPE   C3418264   5.086   4.744   5.285 -0.0981  0.0354  0.1566
  163SAPE   H4X18265   5.174   4.683   5.256  0.8126  1.4832 -0.1924
  163SAPE   H4Y18266   4.996   4.679   5.273 -1.1964  1.2212  1.5605
  163SAPE   C3518267   5.099   4.772   5.439  0.5788  0.1359  0.4656
  163SAPE   H5X18268   5.083   4.676   5.492 -0.3058 -0.0476 -0.1134
  163SAPE   H5Y18269   5.020   4.845   5.464  0.4571  0.0741  0.2693
  163SAPE   C3618270   5.236   4.832   5.469 -0.4849  0.4217 -0.2411
  163SAPE   H6X18271   5.241   4.942   5.457 -0.6057  0.3098 -1.3791
  163SAPE   H6Y18272   5.313   4.802   5.395  0.1770 -1.1805  1.0401
  163SAPE   C3718273   5.284   4.799   5.609  0.5437 -0.0674  0.2786
  163SAPE   H7X18274   5.389   4.832   5.622  1.2035 -2.0744  0.3980
  163SAPE   H7Y18275   5.293   4.688   5.610 -0.7661 -0.2461 -1.8029
  163SAPE   C3818276   5.194   4.849   5.715  0.4058 -0.1099 -0.0223
  163SAPE   H8X18277   5.106   4.781   5.725 -0.6887  1.3196  0.3317
  163SAPE   H8Y18278   5.155   4.948   5.684 -0.6370 -0.4911  0.0061
  163SAPE   C3918279   5.241   4.877   5.856  0.0553  0.1311  0.4781
  163SAPE   H9X18280   5.166   4.937   5.911  0.7227 -0.3350  1.9588
  163SAPE   H9Y18281   5.332   4.940   5.866 -1.3663  2.3278  0.3596
  163SAPE  C31018282   5.266   4.752   5.940  0.3140 -0.2548 -1.2631
  163SAPE  H10X18283   5.364   4.715   5.903  0.2623  0.4157 -2.1232
  163SAPE  H10Y18284   5.191   4.682   5.899 -0.4848  0.0524 -0.3642
  163SAPE  C31118285   5.253   4.780   6.086  0.3197 -0.2803 -0.3611
  163SAPE  H11X18286   5.170   4.852   6.097 -0.1616 -0.9856  0.8377
  163SAPE  H11Y18287   5.350   4.818   6.125  0.3390 -1.6218  0.9767
  163SAPE  C31218288   5.188   4.655   6.153 -0.3413 -0.2089 -0.6389
  163SAPE  H12X18289   5.243   4.564   6.122  1.3794  0.8451 -0.7703
  163SAPE  H12Y18290   5.081   4.640   6.125 -1.5795  2.5059  2.0512
  163SAPE  C31318291   5.198   4.655   6.311  0.1933 -0.4102 -0.2722
  163SAPE  H13X18292   5.169   4.553   6.345 -2.3163  0.1443 -0.5806
  163SAPE  H13Y18293   5.123   4.722   6.358  0.4861 -0.4825  0.3088
  163SAPE  C31418294   5.333   4.698   6.376 -0.1142  0.2439  0.6789
  163SAPE  H14X18295   5.354   4.806   6.360  1.8934 -0.4351 -2.1569
  163SAPE  H14Y18296   5.417   4.645   6.327 -1.0236 -0.0682 -0.5999
  163SAPE  C31518297   5.362   4.669   6.523 -0.1839 -0.0431 -0.6336
  163SAPE  H15X18298   5.342   4.562   6.539 -1.3459  0.1495 -0.7294
  163SAPE  H15Y18299   5.307   4.733   6.596  0.6693 -0.5598  0.4935
  163SAPE  C31618300   5.506   4.695   6.574 -0.1565 -0.1135 -0.5460
  163SAPE  H16X18301   5.526   4.804   6.570 -0.2528 -0.0512  0.3933
  163SAPE  H16Y18302   5.589   4.647   6.517 -0.8553 -0.0837 -1.6056
  163SAPE  C31718303   5.518   4.655   6.723 -0.2169  0.3453 -0.3035
  163SAPE  H17X18304   5.510   4.545   6.736 -1.1231  0.3777 -0.4676
  163SAPE  H17Y18305   5.428   4.700   6.771 -0.4092 -1.5284  1.1949
  163SAPE  C31818306   5.644   4.701   6.805  0.5047 -0.0492  0.3270
  163SAPE  H18X18307   5.645   4.812   6.810 -2.8832  0.0547  1.5798
  163SAPE  H18Y18308   5.739   4.664   6.761  0.0902 -0.0080 -0.6137
  163SAPE  H18Z18309   5.637   4.677   6.913  0.6371  0.0832  0.3653
  164SAPE     N18310   4.572   5.872   4.751  0.6928 -0.4634 -0.6858
  164SAPE   HN118311   4.662   5.843   4.708  0.0167 -2.7945 -0.6562
  164SAPE   HN218312   4.592   5.928   4.836 -0.9098  0.2491 -0.7424
  164SAPE   HN318313   4.520   5.784   4.772 -1.3783 -0.0382 -3.3839
  164SAPE   C1218314   4.497   5.961   4.658 -0.1931  0.1760 -0.2309
  164SAPE  H12A18315   4.403   5.993   4.709  0.3187 -0.0814  0.9069
  164SAPE  H12B18316   4.469   5.897   4.571  1.9728 -0.6040 -0.4236
  164SAPE   C1118317   4.600   6.066   4.605 -0.5360  0.0364  0.1746
  164SAPE  H11A18318   4.540   6.133   4.540 -1.3565 -2.1475 -1.4184
  164SAPE  H11B18319   4.669   6.012   4.536  0.0326  1.1662 -0.1698
  164SAPE     P18320   4.766   6.258   4.658 -0.1478  0.0837 -0.1776
  164SAPE   O1318321   4.902   6.212   4.661  0.0450 -0.0532  0.4590
  164SAPE   O1418322   4.713   6.305   4.531 -0.3995 -0.3716  0.3629
  164SAPE   O1218323   4.675   6.137   4.703  0.3476  0.2285 -0.4705
  164SAPE   O1118324   4.751   6.371   4.768 -0.1658  0.2559 -0.0902
  164SAPE    C118325   4.678   6.352   4.883  0.1192 -0.7328 -0.4812
  164SAPE    HA18326   4.666   6.453   4.927  0.9242 -1.2918  1.1168
  164SAPE    HB18327   4.576   6.316   4.856 -0.2292  0.9493 -1.5585
  164SAPE    C218328   4.747   6.254   4.985  0.3966 -0.1010 -0.0401
  164SAPE    HS18329   4.772   6.155   4.943  0.3863  0.1148 -0.5545
  164SAPE   O2118330   4.662   6.226   5.097  0.1298 -0.3005 -0.9475
  164SAPE   C2118331   4.559   6.146   5.072 -0.0623  0.5471 -0.0592
  164SAPE   O2218332   4.561   6.068   4.978 -0.0148 -0.2189 -0.5174
  164SAPE   C2218333   4.448   6.151   5.182 -0.4582 -0.3774  0.0603
  164SAPE   H2R18334   4.412   6.046   5.191 -0.2901 -0.5018 -0.6264
  164SAPE   H2S18335   4.487   6.178   5.282 -2.6188  2.4254  0.2574
  164SAPE    C318336   4.879   6.313   5.047 -0.6329 -0.0490 -0.1378
  164SAPE    HX18337   4.854   6.397   5.115  0.0385  0.8107 -0.9142
  164SAPE    HY18338   4.940   6.348   4.960 -0.1604 -0.0155  0.2049
  164SAPE   O3118339   4.955   6.205   5.105 -0.3977 -0.5539 -0.3336
  164SAPE   C3118340   5.066   6.234   5.172 -0.6840  0.5422  0.0397
  164SAPE   O3218341   5.100   6.341   5.212 -0.1165  0.0833 -0.7892
  164SAPE   C3218342   5.135   6.097   5.197  0.6496 -0.3747 -0.1416
  164SAPE   H2X18343   5.123   6.038   5.103  0.3146  0.1679 -0.4456
  164SAPE   H2Y18344   5.084   6.051   5.285  0.5684  0.6488  0.3568
  164SAPE   C2318345   4.322   6.244   5.142 -0.7278 -0.0213 -0.4688
  164SAPE   H3R18346   4.233   6.214   5.203  0.6914 -1.3672  1.0338
  164SAPE   H3S18347   4.292   6.208   5.041 -1.5650 -1.5382  0.2734
  164SAPE   C2418348   4.358   6.390   5.123  0.2014  0.6709 -0.8997
  164SAPE   H4R18349   4.271   6.432   5.068  0.7411 -0.6693 -2.8740
  164SAPE   H4S18350   4.446   6.406   5.057 -0.5862  0.6200 -1.9942
  164SAPE   C2518351   4.379   6.470   5.246 -0.1093 -0.1607 -0.0807
  164SAPE   H5R18352   4.484   6.493   5.269 -0.2459 -1.0305  1.5378
  164SAPE   C2618353   4.298   6.492   5.349 -0.1295  0.4572  0.2571
  164SAPE   H6R18354   4.325   6.564   5.427 -1.6268  1.1879  0.1367
  164SAPE   C2718355   4.149   6.450   5.359 -0.0987 -0.1299 -0.3380
  164SAPE   H7R18356   4.137   6.378   5.442  0.1216 -1.1545 -1.1632
  164SAPE   H7S18357   4.122   6.401   5.262  0.8784 -0.0936 -0.6467
  164SAPE   C2818358   4.057   6.569   5.363  0.6740 -0.4879  0.1065
  164SAPE   H8R18359   3.998   6.596   5.274  1.4765 -1.1849 -0.6579
  164SAPE   C2918360   4.020   6.636   5.478  0.1733 -0.3626 -0.0891
  164SAPE   H9R18361   3.941   6.710   5.461 -1.2200 -2.0712 -1.3695
  164SAPE  C21018362   4.084   6.611   5.611  0.9681  0.1587  0.1453
  164SAPE  H10R18363   4.176   6.549   5.606  0.4238 -0.5553 -3.8142
  164SAPE  H10S18364   4.006   6.562   5.674  0.2207  0.0268 -0.8682
  164SAPE  C21118365   4.133   6.744   5.666 -0.4035 -0.2819  0.4324
  164SAPE  H11R18366   4.156   6.822   5.592  0.2070  1.0126  1.9238
  164SAPE  C21218367   4.176   6.767   5.792 -0.4457 -0.4776 -0.3269
  164SAPE  H12R18368   4.194   6.870   5.826  0.4982 -0.5415 -0.6180
  164SAPE  C21318369   4.140   6.673   5.905 -0.3197 -0.7159 -0.0458
  164SAPE  H13R18370   4.120   6.571   5.866 -2.1466 -1.0411  1.6478
  164SAPE  H13S18371   4.042   6.697   5.950  0.8618 -0.5878  2.6546
  164SAPE  C21418372   4.249   6.678   6.012  1.0005  0.2035  0.1138
  164SAPE  H14R18373   4.336   6.617   5.984  0.4956 -0.6704  0.3838
  164SAPE  C21518374   4.234   6.720   6.141  0.5045 -0.2360  0.0471
  164SAPE  H15R18375   4.316   6.721   6.214 -0.7049  1.6093  1.4880
  164SAPE  C21618376   4.109   6.782   6.198  0.5920 -0.0030 -0.7913
  164SAPE  H16R18377   4.059   6.831   6.112 -3.9529 -1.1406  0.9233
  164SAPE  H16S18378   4.141   6.863   6.266  0.9952  3.4249 -4.6902
  164SAPE  C21718379   4.009   6.675   6.244  0.2898  0.3157 -0.1666
  164SAPE  H17R18380   3.996   6.607   6.157 -0.0977  1.6004 -1.1504
  164SAPE  H17S18381   3.908   6.718   6.261  0.6488  1.3737 -0.6455
  164SAPE  C21818382   4.030   6.602   6.382  0.3968  0.3986 -0.6094
  164SAPE  H18R18383   4.036   6.679   6.462 -1.3491  0.1975 -0.2543
  164SAPE  H18S18384   4.127   6.549   6.374 -0.7321 -1.8478 -0.3279
  164SAPE  C21918385   3.920   6.503   6.430 -0.4322 -0.1671 -1.1595
  164SAPE  H19R18386   3.821   6.551   6.444 -1.2813 -1.8767 -1.0755
  164SAPE  H19S18387   3.945   6.455   6.527 -3.3452  1.3773  0.5014
  164SAPE  C22018388   3.901   6.390   6.332  0.2828 -0.4776  0.1642
  164SAPE  H20R18389   3.869   6.441   6.239 -1.7275  0.7292  1.4362
  164SAPE  H20S18390   3.839   6.306   6.369 -0.1143 -0.1030  0.3710
  164SAPE  H20T18391   3.998   6.353   6.293 -0.3362 -1.8946 -0.0920
  164SAPE   C3318392   5.279   6.106   5.236 -0.2804  0.4436  0.2268
  164SAPE   H3X18393   5.323   6.168   5.156 -0.1970  0.6522  0.4333
  164SAPE   H3Y18394   5.339   6.013   5.249 -0.0945  0.9006  3.3895
  164SAPE   C3418395   5.302   6.175   5.374 -0.1045  0.1482 -0.1253
  164SAPE   H4X18396   5.252   6.274   5.381  1.4602  0.9251  0.4290
  164SAPE   H4Y18397   5.409   6.199   5.390  0.2294 -1.3465 -0.0553
  164SAPE   C3518398   5.259   6.093   5.499 -0.1773  1.2723 -0.1533
  164SAPE   H5X18399   5.297   5.988   5.492 -2.2211  0.5408 -1.1099
  164SAPE   H5Y18400   5.148   6.086   5.497 -0.1020 -2.1570  1.0920
  164SAPE   C3618401   5.288   6.161   5.633 -0.6517 -0.0121  0.2733
  164SAPE   H6X18402   5.252   6.266   5.646  2.1244  0.8640  1.7214
  164SAPE   H6Y18403   5.398   6.179   5.632 -0.6927  0.3687 -1.9498
  164SAPE   C3718404   5.241   6.077   5.748  0.0412 -0.2568  0.1581
  164SAPE   H7X18405   5.267   5.973   5.719  1.0161  0.4175 -1.5495
  164SAPE   H7Y18406   5.130   6.072   5.756  0.0083 -2.0375 -0.8699
  164SAPE   C3818407   5.296   6.119   5.880 -0.1228 -0.0219 -0.4551
  164SAPE   H8X18408   5.405   6.136   5.868 -0.1861 -1.0233 -3.5355
  164SAPE   H8Y18409   5.284   6.036   5.953  3.0762  0.4882  0.8463
  164SAPE   C3918410   5.232   6.248   5.931 -0.6208  0.1589 -0.2289
  164SAPE   H9X18411   5.124   6.227   5.949 -0.2950 -0.5488  1.0798
  164SAPE   H9Y18412   5.237   6.323   5.849  0.8298 -0.2430 -0.5300
  164SAPE  C31018413   5.295   6.317   6.053 -0.0744 -0.2794  0.0923
  164SAPE  H10X18414   5.401   6.345   6.033 -0.4080  1.0945  0.1427
  164SAPE  H10Y18415   5.302   6.250   6.142  1.1055  0.6763  0.7544
  164SAPE  C31118416   5.233   6.442   6.100 -0.1725 -0.6209 -0.0747
  164SAPE  H11X18417   5.131   6.415   6.137  0.2020 -1.5304  0.3182
  164SAPE  H11Y18418   5.230   6.514   6.015 -1.0721  0.2251  0.6486
  164SAPE  C31218419   5.315   6.513   6.207 -0.1410 -0.8353 -0.1397
  164SAPE  H12X18420   5.415   6.536   6.164  0.6036  1.0195  2.3434
  164SAPE  H12Y18421   5.318   6.438   6.288  0.8058 -1.6745 -0.9229
  164SAPE  C31318422   5.245   6.632   6.272 -0.0384  0.0989  0.1744
  164SAPE  H13X18423   5.141   6.594   6.281  0.9976 -2.8069  1.2702
  164SAPE  H13Y18424   5.229   6.727   6.217  1.6133  0.4445  0.2304
  164SAPE  C31418425   5.317   6.658   6.407 -0.0296 -0.2819  0.3049
  164SAPE  H14X18426   5.413   6.711   6.391  1.3856 -3.2875 -2.1265
  164SAPE  H14Y18427   5.341   6.564   6.460 -2.4062 -2.0856 -1.5505
  164SAPE  C31518428   5.233   6.758   6.492 -0.2857 -0.2408  0.4498
  164SAPE  H15X18429   5.260   6.759   6.600 -0.3589 -0.1333  0.4672
  164SAPE  H15Y18430   5.124   6.740   6.484 -0.1816 -1.8112  1.8258
  164SAPE  C31618431   5.246   6.908   6.437  0.2229 -0.0185 -0.0213
  164SAPE  H16X18432   5.181   6.966   6.505 -1.1179 -0.5153 -0.8491
  164SAPE  H16Y18433   5.199   6.911   6.336 -1.3594  2.5607  0.6951
  164SAPE  C31718434   5.385   6.970   6.424 -0.4071  0.1235 -0.8095
  164SAPE  H17X18435   5.389   7.063   6.363  0.2005  0.4794 -0.2453
  164SAPE  H17Y18436   5.445   6.898   6.364  0.2690  0.5004 -0.5945
  164SAPE  C31818437   5.457   6.993   6.559  0.3090  0.0042 -0.7131
  164SAPE  H18X18438   5.387   7.061   6.613 -0.9840 -1.2205 -0.7821
  164SAPE  H18Y18439   5.554   7.046   6.543  0.5677 -0.1602  0.2476
  164SAPE  H18Z18440   5.470   6.898   6.615 -3.5220  0.4147  1.2182
  165SAPE     N18441   2.988   1.152   4.251 -0.1658 -0.5666  0.0866
  165SAPE   HN118442   3.077   1.175   4.202 -0.6420 -1.1416 -1.0769
  165SAPE   HN218443   2.918   1.126   4.179 -1.5959 -1.9088  1.8694
  165SAPE   HN318444   2.953   1.242   4.288 -0.8552 -0.6547 -0.3520
  165SAPE   C1218445   3.025   1.038   4.345  0.6377  0.1079 -0.6572
  165SAPE  H12A18446   2.930   0.998   4.388  1.9166  1.3468  3.8689
  165SAPE  H12B18447   3.079   1.082   4.432 -0.7236  0.9606 -0.2046
  165SAPE   C1118448   3.107   0.929   4.271  0.0866  0.0748 -0.7348
  165SAPE  H11A18449   3.138   0.845   4.336 -0.8644  1.4717  1.6599
  165SAPE  H11B18450   3.203   0.979   4.247 -0.2962 -0.1372 -2.8913
  165SAPE     P18451   2.928   0.800   4.124  0.2677 -0.2760  0.0578
  165SAPE   O1318452   2.816   0.858   4.194 -0.6601  0.0170 -0.0812
  165SAPE   O1418453   2.906   0.776   3.980  0.2051  0.3718  0.1459
  165SAPE   O1218454   3.046   0.895   4.150 -0.5989 -0.1858 -0.3007
  165SAPE   O1118455   2.970   0.659   4.189 -0.4835 -0.2295  0.1643
  165SAPE    C118456   2.891   0.596   4.295 -0.2005  0.2044 -0.2803
  165SAPE    HA18457   2.781   0.593   4.275 -0.0452 -1.3733 -1.0486
  165SAPE    HB18458   2.931   0.492   4.290  2.8566  1.2909 -0.1015
  165SAPE    C218459   2.941   0.630   4.439 -0.3312 -0.2928  0.8352
  165SAPE    HS18460   2.915   0.733   4.472 -0.5460 -0.1090  0.1006
  165SAPE   O2118461   3.085   0.602   4.439  0.8016  0.1208 -0.4293
  165SAPE   C2118462   3.160   0.654   4.538  0.2126  0.2033  0.1331
  165SAPE   O2218463   3.130   0.748   4.610 -0.6029 -0.0067  0.0596
  165SAPE   C2218464   3.292   0.576   4.553  0.0826 -0.2303  0.0243
  165SAPE   H2R18465   3.268   0.468   4.545 -1.8631  0.2909 -2.8546
  165SAPE   H2S18466   3.346   0.595   4.457 -1.8256  2.6589 -0.5918
  165SAPE    C318467   2.865   0.541   4.542  0.4673  0.2017 -0.8161
  165SAPE    HX18468   2.867   0.444   4.487 -0.5630  0.4834 -1.3689
  165SAPE    HY18469   2.761   0.577   4.557  0.8871  0.3549  2.5614
  165SAPE   O3118470   2.935   0.523   4.669  0.1361  0.1713  1.1697
  165SAPE   C3118471   2.891   0.596   4.770  0.5260  0.2275  0.8406
  165SAPE   O3218472   2.817   0.691   4.764  0.4778 -0.4516  0.5380
  165SAPE   C3218473   2.959   0.536   4.894  0.3837 -0.4257  0.4703
  165SAPE   H2X18474   3.069   0.540   4.877 -0.1416  0.5128 -3.8019
  165SAPE   H2Y18475   2.913   0.435   4.903  0.2443 -0.4932 -0.8560
  165SAPE   C2318476   3.378   0.618   4.673 -0.1564  0.7693 -0.1236
  165SAPE   H3R18477   3.341   0.565   4.764 -1.4374  2.7444  0.5685
  165SAPE   H3S18478   3.379   0.727   4.694 -0.3816  0.6784  0.3891
  165SAPE   C2418479   3.527   0.569   4.657  0.2696  0.3470  0.3740
  165SAPE   H4R18480   3.571   0.632   4.577 -1.5403  0.3246 -0.7049
  165SAPE   H4S18481   3.518   0.470   4.606  1.8985 -0.7201  2.0272
  165SAPE   C2518482   3.600   0.549   4.788 -0.5429 -0.0089 -0.5268
  165SAPE   H5R18483   3.561   0.478   4.863  1.4821  0.2954  0.8851
  165SAPE   C2618484   3.703   0.627   4.838 -0.1790  0.5308  0.5760
  165SAPE   H6R18485   3.749   0.609   4.936  2.1050 -0.6900 -0.6400
  165SAPE   C2718486   3.782   0.732   4.767  0.0434 -0.8676 -0.2868
  165SAPE   H7R18487   3.748   0.741   4.661 -1.1447 -0.0582  0.1522
  165SAPE   H7S18488   3.887   0.698   4.779  0.4063 -0.0066 -0.9173
  165SAPE   C2818489   3.776   0.870   4.838 -0.2016  0.2364  0.2827
  165SAPE   H8R18490   3.738   0.955   4.779 -2.9435 -0.4769  0.8941
  165SAPE   C2918491   3.821   0.901   4.964 -0.6322 -0.0438 -0.1678
  165SAPE   H9R18492   3.826   1.009   4.987 -0.7461 -0.4224  1.8750
  165SAPE  C21018493   3.886   0.818   5.065  0.2472 -0.0532  0.1268
  165SAPE  H10R18494   3.987   0.855   5.092  0.4741 -0.8746  0.4472
  165SAPE  H10S18495   3.904   0.712   5.038 -2.2489 -1.0230  1.9306
  165SAPE  C21118496   3.797   0.824   5.182  0.3061  0.0953 -0.1375
  165SAPE  H11R18497   3.703   0.769   5.172 -1.6351  3.1545  0.1087
  165SAPE  C21218498   3.826   0.887   5.298  0.3467  0.2985  0.4127
  165SAPE  H12R18499   3.759   0.878   5.384 -0.1381  0.5358  0.0638
  165SAPE  C21318500   3.950   0.970   5.334 -0.0106 -0.8903 -0.2398
  165SAPE  H13R18501   3.982   1.023   5.241 -2.4013  1.0930 -0.0349
  165SAPE  H13S18502   4.021   0.896   5.377  0.4041  1.3857  3.4069
  165SAPE  C21418503   3.931   1.076   5.442  0.0923 -0.1723 -0.3361
  165SAPE  H14R18504   3.912   1.179   5.409  1.1801 -0.2427 -1.2242
  165SAPE  C21518505   3.935   1.057   5.573 -1.4338  0.0938  0.3475
  165SAPE  H15R18506   3.939   1.139   5.646  0.8209 -1.0539  1.6353
  165SAPE  C21618507   3.971   0.918   5.637  0.3374 -0.1243  0.1341
  165SAPE  H16R18508   4.079   0.915   5.661  0.5841  0.4175 -0.8697
  165SAPE  H16S18509   3.930   0.835   5.575  2.2196  0.2671 -1.7678
  165SAPE  C21718510   3.899   0.915   5.777  0.0957 -0.0908 -0.4189
  165SAPE  H17R18511   3.792   0.941   5.758  0.2797  2.3103  1.4218
  165SAPE  H17S18512   3.929   0.998   5.845 -0.1823 -0.0637 -0.3246
  165SAPE  C21818513   3.931   0.791   5.862  0.0464 -0.1377  0.5746
  165SAPE  H18R18514   4.035   0.755   5.844 -0.4095 -1.3746  0.2753
  165SAPE  H18S18515   3.872   0.707   5.819 -1.2440  0.8387  0.3668
  165SAPE  C21918516   3.903   0.803   6.012  0.6317  0.4612 -0.1062
  165SAPE  H19R18517   3.939   0.901   6.051 -1.1790  0.7027  1.0789
  165SAPE  H19S18518   3.949   0.719   6.069 -0.1521  1.6023  2.3306
  165SAPE  C22018519   3.752   0.804   6.036 -0.1667 -0.0562 -0.6499
  165SAPE  H20R18520   3.716   0.897   5.986  1.8881 -0.3353 -2.8419
  165SAPE  H20S18521   3.727   0.802   6.144 -0.0491 -0.1103 -0.6234
  165SAPE  H20T18522   3.701   0.711   6.002  0.1089 -0.2207 -0.6173
  165SAPE   C3318523   2.930   0.601   5.029 -0.1343  0.3635 -0.2348
  165SAPE   H3X18524   2.821   0.600   5.049 -0.1010 -1.5546  0.0022
  165SAPE   H3Y18525   2.955   0.709   5.037 -0.3418  0.5170 -1.4144
  165SAPE   C3418526   3.003   0.531   5.141  0.1013  0.2127  0.2989
  165SAPE   H4X18527   3.114   0.530   5.148  0.0239 -0.4933  1.8078
  165SAPE   H4Y18528   2.984   0.422   5.129  0.8293  0.1318 -0.2309
  165SAPE   C3518529   2.951   0.565   5.278  0.5044  0.2567  0.3217
  165SAPE   H5X18530   2.860   0.508   5.307 -0.4745  1.2583 -0.6951
  165SAPE   H5Y18531   2.917   0.670   5.278 -1.1764 -0.2597  0.0633
  165SAPE   C3618532   3.051   0.530   5.395  0.6928 -0.1684 -0.6327
  165SAPE   H6X18533   3.144   0.591   5.394 -1.4673  3.3981 -1.1774
  165SAPE   H6Y18534   3.080   0.424   5.379 -1.0598 -1.0788  1.7556
  165SAPE   C3718535   2.974   0.546   5.527 -0.2283 -0.1733  0.8860
  165SAPE   H7X18536   2.879   0.490   5.523 -0.4911  0.3615 -1.9036
  165SAPE   H7Y18537   2.944   0.652   5.544 -1.8889 -0.2061 -1.4283
  165SAPE   C3818538   3.053   0.509   5.653 -0.6952 -0.0939  0.4806
  165SAPE   H8X18539   3.139   0.579   5.641  0.4992 -1.8143 -1.7230
  165SAPE   H8Y18540   3.093   0.406   5.647 -0.5449  0.0414 -3.1487
  165SAPE   C3918541   2.977   0.516   5.788  0.1286 -0.0849  0.4361
  165SAPE   H9X18542   2.893   0.446   5.768  1.0916 -0.9246 -0.8136
  165SAPE   H9Y18543   2.940   0.621   5.788  3.0862  1.0999 -2.0717
  165SAPE  C31018544   3.059   0.484   5.905  0.1352 -0.0740 -0.0219
  165SAPE  H10X18545   3.140   0.559   5.923  0.5249 -0.3667 -0.5334
  165SAPE  H10Y18546   3.117   0.390   5.895 -0.0380 -0.1494 -0.3130
  165SAPE  C31118547   2.960   0.487   6.019 -0.0631  0.2706  0.5346
  165SAPE  H11X18548   2.899   0.395   6.017  1.9638 -1.1261 -0.6972
  165SAPE  H11Y18549   2.895   0.576   6.007 -1.3744 -0.4934  1.7093
  165SAPE  C31218550   3.032   0.514   6.155 -0.6224 -0.9174  0.0211
  165SAPE  H12X18551   3.077   0.615   6.147  0.4966 -1.4740 -1.1408
  165SAPE  H12Y18552   3.117   0.442   6.161  1.8249  1.8043  0.2429
  165SAPE  C31318553   2.938   0.514   6.272  0.2143 -0.6565 -0.1002
  165SAPE  H13X18554   2.849   0.577   6.252 -1.3628 -2.7977 -0.1935
  165SAPE  H13Y18555   2.995   0.553   6.359  0.1595 -0.1772 -0.2726
  165SAPE  C31418556   2.895   0.369   6.299 -0.3032  0.3306 -0.6687
  165SAPE  H14X18557   2.984   0.303   6.298  0.2691  1.0317  1.1143
  165SAPE  H14Y18558   2.824   0.338   6.218 -0.2303 -0.5508 -0.4124
  165SAPE  C31518559   2.815   0.356   6.441 -0.3781 -0.2526 -0.2260
  165SAPE  H15X18560   2.721   0.414   6.433  0.8415  1.6202 -1.9246
  165SAPE  H15Y18561   2.880   0.397   6.521  0.3650 -0.3617 -0.7627
  165SAPE  C31618562   2.790   0.209   6.483 -0.1720  0.3817 -0.6061
  165SAPE  H16X18563   2.881   0.151   6.455  0.4134  0.8372  0.3050
  165SAPE  H16Y18564   2.710   0.167   6.419 -0.7462  1.5906 -0.7086
  165SAPE  C31718565   2.754   0.190   6.632  0.4478 -0.3099 -0.7568
  165SAPE  H17X18566   2.834   0.241   6.690  2.4006 -1.0667 -2.6510
  165SAPE  H17Y18567   2.767   0.084   6.663 -0.0452  0.0940  0.9666
  165SAPE  C31818568   2.611   0.242   6.653 -0.5487  0.4595 -0.5370
  165SAPE  H18X18569   2.608   0.348   6.619 -0.1029  0.5667 -0.2507
  165SAPE  H18Y18570   2.583   0.238   6.760 -0.8853 -1.3326 -0.6532
  165SAPE  H18Z18571   2.541   0.174   6.599  3.0953 -2.5185 -1.9813
  166SAPE     N18572   3.833   2.950   3.566 -0.2357 -0.1611  0.4766
  166SAPE   HN118573   3.851   2.848   3.578 -0.3185 -0.0339  1.7207
  166SAPE   HN218574   3.729   2.958   3.566 -0.3306 -0.8304 -1.1294
  166SAPE   HN318575   3.880   2.983   3.479 -0.5582 -0.0886  0.3240
  166SAPE   C1218576   3.862   3.024   3.694  0.0255  0.5777  0.2886
  166SAPE  H12A18577   3.818   3.126   3.689  2.0184  1.4827  0.3914
  166SAPE  H12B18578   3.971   3.041   3.699  0.0663  0.0830  1.5534
  166SAPE   C1118579   3.808   2.941   3.811 -0.3087 -0.6913  0.4710
  166SAPE  H11A18580   3.837   2.999   3.901 -1.9172  0.1050  0.5158
  166SAPE  H11B18581   3.849   2.837   3.806  0.6235 -0.5324  3.0431
  166SAPE     P18582   3.587   3.075   3.854  0.1326 -0.0845 -0.4064
  166SAPE   O1318583   3.686   3.176   3.882 -0.3962 -0.1426 -0.1265
  166SAPE   O1418584   3.481   3.117   3.761 -0.1803  0.3248 -0.4225
  166SAPE   O1218585   3.665   2.943   3.786  0.3271  0.2706  0.6255
  166SAPE   O1118586   3.522   3.030   3.995  0.0943 -0.5271 -0.4866
  166SAPE    C118587   3.544   2.901   4.053  0.0471 -0.1162 -0.8006
  166SAPE    HA18588   3.453   2.842   4.027 -0.8087  0.4296  0.8329
  166SAPE    HB18589   3.639   2.851   4.023  0.9462  1.0337  0.0457
  166SAPE    C218590   3.556   2.900   4.212 -0.1625  0.3229 -0.7349
  166SAPE    HS18591   3.575   2.799   4.252  2.4507  0.4274 -1.5750
  166SAPE   O2118592   3.428   2.958   4.261 -0.9031 -0.0498  0.0833
  166SAPE   C2118593   3.328   2.876   4.261  0.3687 -0.0439 -0.2854
  166SAPE   O2218594   3.328   2.763   4.206  0.6065 -0.1779  0.6732
  166SAPE   C2218595   3.217   2.945   4.324  0.2248  0.4393  0.1174
  166SAPE   H2R18596   3.268   2.991   4.411 -0.1784  0.6231  0.2608
  166SAPE   H2S18597   3.180   3.027   4.259  1.7087 -0.4110 -1.8661
  166SAPE    C318598   3.677   2.983   4.257  0.1696 -0.4071  0.2154
  166SAPE    HX18599   3.668   3.086   4.216  1.6290  0.1615  1.2159
  166SAPE    HY18600   3.763   2.932   4.209 -1.5189 -2.6843 -0.5444
  166SAPE   O3118601   3.698   2.992   4.398  0.0489  0.5558  0.0201
  166SAPE   C3118602   3.675   3.104   4.460 -0.4627  0.4975 -0.1519
  166SAPE   O3218603   3.618   3.195   4.408 -0.5937 -0.4142 -0.1554
  166SAPE   C3218604   3.736   3.099   4.599 -0.0022  0.3822 -0.4833
  166SAPE   H2X18605   3.840   3.064   4.585 -0.7918 -1.8501 -1.3899
  166SAPE   H2Y18606   3.681   3.026   4.662  0.0951  1.3863  0.8117
  166SAPE   C2318607   3.095   2.864   4.377  0.2746  0.0509 -0.2389
  166SAPE   H3R18608   3.127   2.815   4.471  2.8340  0.6866 -0.7069
  166SAPE   H3S18609   3.066   2.790   4.299  0.6189  0.5601 -0.8688
  166SAPE   C2418610   2.972   2.948   4.421  0.6169  0.3323  0.0127
  166SAPE   H4R18611   2.933   2.995   4.328 -1.9381  1.6510  1.6384
  166SAPE   H4S18612   3.009   3.033   4.483  0.0597  0.5970 -0.0092
  166SAPE   C2518613   2.853   2.867   4.491 -0.3154 -0.3794  0.1264
  166SAPE   H5R18614   2.801   2.794   4.427 -0.4542 -0.8437  0.7580
  166SAPE   C2618615   2.820   2.868   4.621 -0.2254  0.2357  0.0508
  166SAPE   H6R18616   2.733   2.806   4.648 -1.4873  1.1005 -1.7649
  166SAPE   C2718617   2.883   2.951   4.729 -0.0262  0.2301  0.7151
  166SAPE   H7R18618   2.815   2.959   4.817 -1.0134  0.3310 -0.0499
  166SAPE   H7S18619   2.891   3.058   4.701 -0.1113 -0.2980 -1.4948
  166SAPE   C2818620   3.022   2.900   4.766  0.4638  0.5083  0.1177
  166SAPE   H8R18621   3.110   2.946   4.720 -1.0030  1.2431 -2.0726
  166SAPE   C2918622   3.043   2.802   4.859 -0.1642 -0.7772 -0.1678
  166SAPE   H9R18623   3.146   2.767   4.869 -0.7400 -2.2385  1.1103
  166SAPE  C21018624   2.941   2.717   4.930 -0.0060 -0.1947 -0.4599
  166SAPE  H10R18625   2.870   2.792   4.971 -0.6271 -0.2221 -1.4391
  166SAPE  H10S18626   2.990   2.668   5.017  1.2969  0.0262 -1.0416
  166SAPE  C21118627   2.862   2.624   4.846 -0.0825 -0.3365 -0.4049
  166SAPE  H11R18628   2.923   2.582   4.764 -0.5360  0.4370 -1.1535
  166SAPE  C21218629   2.732   2.599   4.864  0.3716 -0.3520 -0.0272
  166SAPE  H12R18630   2.685   2.526   4.796 -3.5697  0.1559  1.9051
  166SAPE  C21318631   2.636   2.659   4.964  0.0145 -0.5121  0.2899
  166SAPE  H13R18632   2.666   2.764   4.983  3.1474 -1.3596  0.5201
  166SAPE  H13S18633   2.662   2.611   5.061 -2.2852  1.6454  2.1250
  166SAPE  C21418634   2.485   2.652   4.957  0.8609 -0.2095  0.1893
  166SAPE  H14R18635   2.446   2.672   4.856 -1.0332 -1.3336  0.6395
  166SAPE  C21518636   2.400   2.606   5.053 -0.0159  0.7520  0.2294
  166SAPE  H15R18637   2.294   2.587   5.030  0.2827 -0.1241 -0.4755
  166SAPE  C21618638   2.434   2.556   5.195  0.4637  0.6778  0.0884
  166SAPE  H16R18639   2.342   2.586   5.249 -0.0378  1.2488 -1.0533
  166SAPE  H16S18640   2.525   2.608   5.232  0.7406  0.8830 -0.8660
  166SAPE  C21718641   2.456   2.403   5.206  0.1520  0.5036 -0.5388
  166SAPE  H17R18642   2.539   2.373   5.138  0.1850  2.3740 -1.3605
  166SAPE  H17S18643   2.370   2.334   5.199  1.0370 -0.6884 -0.1111
  166SAPE  C21818644   2.512   2.378   5.352  0.3805  1.2457  0.0891
  166SAPE  H18R18645   2.420   2.352   5.409  1.1008 -0.2097  0.6396
  166SAPE  H18S18646   2.551   2.473   5.395  2.1303  1.0061 -0.8884
  166SAPE  C21918647   2.617   2.265   5.366  0.1682 -0.7773  0.4264
  166SAPE  H19R18648   2.684   2.287   5.280 -0.4915 -1.0008 -0.1556
  166SAPE  H19S18649   2.559   2.171   5.358 -0.3424 -0.7016  2.5525
  166SAPE  C22018650   2.699   2.263   5.496 -0.2267 -0.4903 -0.1416
  166SAPE  H20R18651   2.630   2.234   5.578 -1.5290  1.3349 -0.5463
  166SAPE  H20S18652   2.732   2.365   5.523 -1.5779 -0.5152  1.8092
  166SAPE  H20T18653   2.784   2.191   5.491  0.7290  0.6077 -0.0132
  166SAPE   C3318654   3.725   3.237   4.675 -0.1158  0.2463  0.5657
  166SAPE   H3X18655   3.619   3.264   4.694 -0.0241 -0.0038  1.4702
  166SAPE   H3Y18656   3.777   3.304   4.603 -2.8853  1.9652  0.0290
  166SAPE   C3418657   3.801   3.242   4.806 -0.0981 -0.1008  0.2687
  166SAPE   H4X18658   3.808   3.349   4.835 -2.4696 -0.1524  1.2480
  166SAPE   H4Y18659   3.900   3.193   4.794 -0.1460 -1.3388  3.7321
  166SAPE   C3518660   3.736   3.182   4.923  0.0269 -0.0858 -0.6481
  166SAPE   H5X18661   3.685   3.091   4.885 -0.7803  0.6342 -1.3238
  166SAPE   H5Y18662   3.668   3.256   4.969  0.9654 -0.2368  1.0767
  166SAPE   C3618663   3.828   3.123   5.034  0.4730  0.4634  0.4656
  166SAPE   H6X18664   3.912   3.192   5.057  1.6028 -0.0044 -1.9028
  166SAPE   H6Y18665   3.880   3.034   4.994 -1.4257 -0.8704  0.8124
  166SAPE   C3718666   3.754   3.089   5.162 -0.1991  0.0425  0.7136
  166SAPE   H7X18667   3.685   3.002   5.157  0.0718 -0.1294 -0.2638
  166SAPE   H7Y18668   3.697   3.182   5.182  0.0323  0.3497  0.0055
  166SAPE   C3818669   3.843   3.073   5.285  0.3765 -0.0734 -0.0498
  166SAPE   H8X18670   3.906   3.165   5.289 -0.4518  0.4830  0.3043
  166SAPE   H8Y18671   3.903   2.981   5.267 -1.5764 -0.7942 -3.7749
  166SAPE   C3918672   3.757   3.059   5.414  0.0307  0.1068  0.6042
  166SAPE   H9X18673   3.680   2.979   5.404 -1.0847  1.0455  1.3864
  166SAPE   H9Y18674   3.713   3.160   5.430  0.2328  0.1575  0.8258
  166SAPE  C31018675   3.852   3.021   5.531 -0.1777 -0.3988 -0.5651
  166SAPE  H10X18676   3.938   3.091   5.534 -1.1621  0.8543  2.2669
  166SAPE  H10Y18677   3.881   2.916   5.509  0.9922 -0.4212  0.9194
  166SAPE  C31118678   3.767   3.039   5.662 -1.0649  0.0533 -0.1585
  166SAPE  H11X18679   3.668   2.991   5.646 -0.8911 -0.1235 -0.7332
  166SAPE  H11Y18680   3.750   3.145   5.689  2.3084  0.3004  1.6102
  166SAPE  C31218681   3.834   2.969   5.779 -0.3411 -0.0097  0.3304
  166SAPE  H12X18682   3.943   2.985   5.784 -0.3039 -0.2858  0.4202
  166SAPE  H12Y18683   3.816   2.860   5.769 -0.7868  0.2199 -1.7978
  166SAPE  C31318684   3.771   3.018   5.917  0.2935 -0.6238 -0.7895
  166SAPE  H13X18685   3.803   2.944   5.993 -0.1070 -0.4282 -0.4280
  166SAPE  H13Y18686   3.660   3.023   5.907  0.4788  2.5012 -2.2896
  166SAPE  C31418687   3.810   3.164   5.948  0.1011  0.2692  0.2369
  166SAPE  H14X18688   3.772   3.228   5.865  0.9244  0.4868  0.0152
  166SAPE  H14Y18689   3.921   3.165   5.947  0.1202  2.2000 -1.1387
  166SAPE  C31518690   3.759   3.211   6.087  0.5059 -0.3777 -0.2541
  166SAPE  H15X18691   3.653   3.178   6.094  0.5989 -0.6035  0.0964
  166SAPE  H15Y18692   3.755   3.322   6.095  0.4913 -0.4023  0.0707
  166SAPE  C31618693   3.843   3.158   6.204 -0.5420 -0.7968 -0.0918
  166SAPE  H16X18694   3.951   3.165   6.179 -0.2345 -3.5207  0.1807
  166SAPE  H16Y18695   3.822   3.050   6.222 -0.6735 -1.0427 -1.5962
  166SAPE  C31718696   3.813   3.233   6.338  0.1176  0.2308  0.2317
  166SAPE  H17X18697   3.709   3.212   6.372 -1.2487 -0.1426 -3.6932
  166SAPE  H17Y18698   3.813   3.342   6.316  1.6343  0.6220  1.8877
  166SAPE  C31818699   3.921   3.197   6.444 -0.3748  0.5473 -0.3529
  166SAPE  H18X18700   4.022   3.218   6.403 -0.1947  1.6429  0.6176
  166SAPE  H18Y18701   3.917   3.095   6.488  0.0394  1.1099  1.0482
  166SAPE  H18Z18702   3.910   3.280   6.517 -2.6354 -0.1851  0.2155
  167SAPE     N18703   1.842   5.910   4.267  0.0556 -0.4887  0.4349
  167SAPE   HN118704   1.756   5.907   4.208 -0.1126 -1.8862  0.7342
  167SAPE   HN218705   1.885   6.000   4.237 -3.6966  0.9696 -1.3537
  167SAPE   HN318706   1.898   5.827   4.240 -0.2847 -0.6559  0.2361
  167SAPE   C1218707   1.813   5.905   4.410 -0.2767  0.7370 -0.2700
  167SAPE  H12A18708   1.764   5.992   4.460 -0.9738 -0.5038  1.2899
  167SAPE  H12B18709   1.908   5.896   4.467 -0.6231  2.4779  0.6560
  167SAPE   C1118710   1.740   5.776   4.437 -0.6183 -0.1898  0.3511
  167SAPE  H11A18711   1.722   5.768   4.546  0.2214 -1.4589  0.4233
  167SAPE  H11B18712   1.810   5.691   4.425 -1.6049 -0.9508 -0.2475
  167SAPE     P18713   1.503   5.678   4.392  0.0913 -0.0271 -0.6302
  167SAPE   O1318714   1.386   5.752   4.334  0.6774  0.5472 -0.2573
  167SAPE   O1418715   1.517   5.534   4.359 -0.3273  0.0338  0.0610
  167SAPE   O1218716   1.630   5.761   4.357  0.0952 -0.3898  1.0019
  167SAPE   O1118717   1.510   5.692   4.552  0.5429  0.1980 -0.6729
  167SAPE    C118718   1.461   5.820   4.606  0.5868  0.4313 -0.6412
  167SAPE    HA18719   1.529   5.907   4.590 -0.7606  1.6568  0.1098
  167SAPE    HB18720   1.364   5.846   4.559  0.0428 -0.7976 -0.2423
  167SAPE    C218721   1.426   5.794   4.749  0.2297 -0.0006  0.8234
  167SAPE    HS18722   1.393   5.891   4.793  0.9065  1.0549 -0.8730
  167SAPE   O2118723   1.536   5.740   4.829  0.8889 -0.1680  0.3446
  167SAPE   C2118724   1.632   5.822   4.858 -0.4870 -0.8478 -0.1191
  167SAPE   O2218725   1.638   5.941   4.823  0.1310 -0.3410  0.3379
  167SAPE   C2218726   1.734   5.757   4.955 -0.0052 -0.1777 -1.0386
  167SAPE   H2R18727   1.771   5.664   4.907  0.5426 -1.8274  2.2540
  167SAPE   H2S18728   1.827   5.815   4.970 -0.7153  0.8941 -0.6971
  167SAPE    C318729   1.305   5.699   4.756  0.3772  0.4647 -0.6369
  167SAPE    HX18730   1.338   5.598   4.721  0.7244 -0.4246  2.0105
  167SAPE    HY18731   1.224   5.740   4.693  1.1390  3.7413  0.3506
  167SAPE   O3118732   1.262   5.699   4.892 -0.2666  0.1230  0.4368
  167SAPE   C3118733   1.140   5.644   4.920 -0.4412  0.0208 -0.0533
  167SAPE   O3218734   1.060   5.604   4.840 -1.2114 -0.3568 -0.1017
  167SAPE   C3218735   1.121   5.673   5.068 -0.4947  0.7850  0.2321
  167SAPE   H2X18736   1.133   5.781   5.088 -3.2675  1.4123 -1.0026
  167SAPE   H2Y18737   1.196   5.623   5.133 -0.6935  1.2785  0.8486
  167SAPE   C2318738   1.680   5.711   5.094 -0.1635  0.4082  0.0640
  167SAPE   H3R18739   1.580   5.666   5.080  0.4250 -1.8845  2.4900
  167SAPE   H3S18740   1.671   5.799   5.161 -1.1659  0.3402  0.0239
  167SAPE   C2418741   1.739   5.581   5.154 -0.0453 -0.2991  0.2158
  167SAPE   H4R18742   1.732   5.496   5.083  2.6540 -0.0505 -0.4907
  167SAPE   H4S18743   1.675   5.562   5.243  1.2667 -0.1696  1.2270
  167SAPE   C2518744   1.878   5.621   5.204 -0.5096  0.7084  0.4951
  167SAPE   H5R18745   1.957   5.627   5.128 -2.2018  0.5071 -1.3581
  167SAPE   C2618746   1.912   5.654   5.332  0.4386 -0.1991 -0.0301
  167SAPE   H6R18747   2.015   5.690   5.348  0.2267  0.4998 -0.1794
  167SAPE   C2718748   1.819   5.649   5.456 -0.2250 -0.4119  0.2933
  167SAPE   H7R18749   1.881   5.633   5.547 -0.1146 -1.1419  0.0935
  167SAPE   H7S18750   1.753   5.559   5.459  1.3561 -1.6198  3.2965
  167SAPE   C2818751   1.731   5.779   5.455  0.1326  0.8968  0.7676
  167SAPE   H8R18752   1.665   5.794   5.368 -0.5560 -0.2308  1.0718
  167SAPE   C2918753   1.711   5.845   5.567  0.7188 -0.7052  0.5303
  167SAPE   H9R18754   1.639   5.927   5.555  1.2261  0.0910  2.4638
  167SAPE  C21018755   1.781   5.829   5.708 -0.3184 -0.6232 -0.3542
  167SAPE  H10R18756   1.787   5.930   5.753 -1.4004 -0.0639 -1.3741
  167SAPE  H10S18757   1.886   5.793   5.706  0.2178  0.7791  0.9434
  167SAPE  C21118758   1.699   5.742   5.793  0.1714  0.7800  0.6651
  167SAPE  H11R18759   1.637   5.664   5.747  1.4570 -1.4006  2.3648
  167SAPE  C21218760   1.712   5.727   5.923 -0.2684 -0.4690 -0.0295
  167SAPE  H12R18761   1.645   5.650   5.963 -1.6120  0.9512  0.5648
  167SAPE  C21318762   1.797   5.808   6.013  0.0121 -0.2802 -0.2588
  167SAPE  H13R18763   1.786   5.917   5.994  2.3799  0.2796  1.1469
  167SAPE  H13S18764   1.903   5.785   5.991  0.2634  1.4844 -1.0902
  167SAPE  C21418765   1.788   5.809   6.165  0.1246 -0.2543 -0.4175
  167SAPE  H14R18766   1.691   5.771   6.202  1.2189 -3.2118 -0.2653
  167SAPE  C21518767   1.885   5.812   6.258 -0.6567 -0.5029 -0.0604
  167SAPE  H15R18768   1.855   5.795   6.362 -2.7918 -3.7333 -1.0606
  167SAPE  C21618769   2.034   5.830   6.227  0.8061  0.0486 -0.2097
  167SAPE  H16R18770   2.046   5.903   6.144  1.5169 -1.0619 -1.1116
  167SAPE  H16S18771   2.076   5.729   6.207  0.4071 -0.5811  1.9058
  167SAPE  C21718772   2.107   5.906   6.342  1.0317  0.2405 -0.7835
  167SAPE  H17R18773   2.212   5.912   6.306  1.6992 -0.9904  0.8245
  167SAPE  H17S18774   2.096   5.852   6.438 -2.8179  1.7450 -0.2047
  167SAPE  C21818775   2.032   6.040   6.376 -0.2180 -0.6025 -0.5255
  167SAPE  H18R18776   1.936   6.019   6.428 -0.7401  0.6964 -0.9488
  167SAPE  H18S18777   2.021   6.087   6.276  0.4482 -1.7052 -1.1430
  167SAPE  C21918778   2.121   6.127   6.472  1.1762 -0.2970 -0.8923
  167SAPE  H19R18779   2.063   6.188   6.544  3.5297  0.7592  0.2275
  167SAPE  H19S18780   2.168   6.208   6.414 -0.5404  0.4057 -1.3497
  167SAPE  C22018781   2.223   6.050   6.574  0.1491 -0.4094  0.1945
  167SAPE  H20R18782   2.172   5.966   6.624 -0.2028 -0.5963 -0.4648
  167SAPE  H20S18783   2.269   6.123   6.644 -1.7392  1.1773 -0.1356
  167SAPE  H20T18784   2.296   5.998   6.509  1.3250  0.8504  0.4473
  167SAPE   C3318785   0.983   5.630   5.125 -0.5467 -0.3394  0.5540
  167SAPE   H3X18786   0.992   5.610   5.234  0.1548  2.2597  1.0572
  167SAPE   H3Y18787   0.951   5.540   5.069 -2.5063  0.9184 -0.4610
  167SAPE   C3418788   0.859   5.721   5.112 -0.0347  0.2432 -0.3634
  167SAPE   H4X18789   0.773   5.658   5.143  0.6925 -1.1953 -1.1808
  167SAPE   H4Y18790   0.838   5.739   5.005 -1.5712  1.4635  0.1019
  167SAPE   C3518791   0.867   5.856   5.185  0.0729  0.6931 -0.0045
  167SAPE   H5X18792   0.771   5.910   5.183 -1.9188 -2.5773 -1.7832
  167SAPE   H5Y18793   0.925   5.922   5.117 -0.2420  0.4771 -0.4870
  167SAPE   C3618794   0.930   5.863   5.326 -0.3944 -0.6704 -0.1140
  167SAPE   H6X18795   0.940   5.973   5.344 -0.3328 -0.5589 -0.8085
  167SAPE   H6Y18796   1.034   5.829   5.305 -0.9138 -1.4430 -1.4983
  167SAPE   C3718797   0.851   5.780   5.434 -0.1545  0.2800  0.1401
  167SAPE   H7X18798   0.858   5.675   5.398  0.2523 -0.0997  1.2800
  167SAPE   H7Y18799   0.747   5.817   5.427  0.6534  2.4010 -2.1786
  167SAPE   C3818800   0.907   5.795   5.582 -0.7232  0.2284  0.1757
  167SAPE   H8X18801   0.928   5.903   5.594  1.8229 -0.3011  1.1875
  167SAPE   H8Y18802   1.008   5.748   5.586 -1.3027 -0.9928  1.1336
  167SAPE   C3918803   0.819   5.734   5.690 -0.1350  0.1576  0.5633
  167SAPE   H9X18804   0.839   5.625   5.686  0.9014  0.3632 -0.2326
  167SAPE   H9Y18805   0.715   5.758   5.658  0.0976  0.7375  0.2225
  167SAPE  C31018806   0.857   5.784   5.830 -0.8638  0.0218  0.2643
  167SAPE  H10X18807   0.840   5.893   5.833  0.2507  0.2143  0.0451
  167SAPE  H10Y18808   0.965   5.763   5.848 -1.4802 -3.6700  0.4563
  167SAPE  C31118809   0.784   5.711   5.948 -0.4260  0.4287  0.5829
  167SAPE  H11X18810   0.830   5.611   5.964 -1.1595 -0.0309 -0.0786
  167SAPE  H11Y18811   0.676   5.695   5.928 -0.0431 -3.4717  0.9330
  167SAPE  C31218812   0.813   5.788   6.078  0.3273  0.2673 -0.5819
  167SAPE  H12X18813   0.787   5.895   6.061  0.3409  0.3145 -0.3085
  167SAPE  H12Y18814   0.922   5.781   6.100 -0.0377  1.9078  2.2477
  167SAPE  C31318815   0.748   5.726   6.204  0.1831 -0.0685 -0.3123
  167SAPE  H13X18816   0.790   5.626   6.226 -1.0969 -0.8173 -1.1567
  167SAPE  H13Y18817   0.643   5.696   6.182 -1.2112  3.0223  1.4245
  167SAPE  C31418818   0.746   5.808   6.334 -0.6986  0.0733  0.0171
  167SAPE  H14X18819   0.665   5.884   6.336  0.0647  0.9005  0.6174
  167SAPE  H14Y18820   0.843   5.863   6.339  0.8552 -2.3978 -1.0202
  167SAPE  C31518821   0.730   5.718   6.454  0.1093  0.0378  0.3094
  167SAPE  H15X18822   0.802   5.635   6.442  0.0608  0.2970 -2.3687
  167SAPE  H15Y18823   0.627   5.677   6.453  0.2395 -0.4474 -2.7207
  167SAPE  C31618824   0.760   5.778   6.597  0.4509  0.8110  0.3255
  167SAPE  H16X18825   0.691   5.862   6.619  0.4626  0.4960  1.6453
  167SAPE  H16Y18826   0.867   5.808   6.598  0.2713  1.5809 -0.8243
  167SAPE  C31718827   0.726   5.682   6.717 -0.2079  0.3283  0.4732
  167SAPE  H17X18828   0.799   5.598   6.716 -1.3705 -0.7051 -0.2279
  167SAPE  H17Y18829   0.630   5.626   6.711  0.9416 -1.6013 -1.4151
  167SAPE  C31818830   0.747   5.748   6.856  0.6001 -0.0499  0.8188
  167SAPE  H18X18831   0.667   5.825   6.863 -0.5128 -0.7574 -2.3248
  167SAPE  H18Y18832   0.846   5.798   6.864  0.1052  0.6846  3.1067
  167SAPE  H18Z18833   0.740   5.685   6.947  0.5358  0.5332  1.2267
  168SAPE     N18834   5.656   4.587   4.563 -0.6656 -0.1594 -0.0396
  168SAPE   HN118835   5.575   4.526   4.587  0.2451 -0.8587  1.3574
  168SAPE   HN218836   5.665   4.645   4.649  0.8891  0.1714 -0.4009
  168SAPE   HN318837   5.651   4.637   4.472  2.3061  1.3900  0.5289
  168SAPE   C1218838   5.773   4.488   4.557 -0.5891  0.3856 -0.0847
  168SAPE  H12A18839   5.865   4.545   4.533 -1.1783  1.6801  0.6403
  168SAPE  H12B18840   5.754   4.416   4.475 -0.6174  0.9520 -0.5808
  168SAPE   C1118841   5.773   4.421   4.696  0.2188  1.1606  0.1568
  168SAPE  H11A18842   5.769   4.496   4.778  5.0493  2.6259 -0.6737
  168SAPE  H11B18843   5.865   4.367   4.728  0.3059  1.7071  0.8650
  168SAPE     P18844   5.682   4.175   4.698  0.0431  0.0773 -0.0033
  168SAPE   O1318845   5.544   4.116   4.725 -0.6393 -0.4944  0.8615
  168SAPE   O1418846   5.747   4.139   4.570  0.6480  0.2977  0.7061
  168SAPE   O1218847   5.661   4.333   4.707  0.1034  0.3855  0.3754
  168SAPE   O1118848   5.776   4.136   4.817 -0.2804  0.3403 -0.0590
  168SAPE    C118849   5.727   4.134   4.954  0.7843 -0.4993  0.9805
  168SAPE    HA18850   5.630   4.082   4.973 -0.3587  1.4965  0.8163
  168SAPE    HB18851   5.804   4.083   5.016 -0.1254 -1.8469  1.0417
  168SAPE    C218852   5.720   4.273   5.015 -0.2597  0.0906 -0.3009
  168SAPE    HS18853   5.685   4.343   4.936  0.0513  1.2342  0.5407
  168SAPE   O2118854   5.850   4.304   5.060 -0.0243 -0.2522  0.3757
  168SAPE   C2118855   5.888   4.431   5.055  0.4578  0.6275  0.3984
  168SAPE   O2218856   5.835   4.515   4.984 -0.0498 -0.4239  0.2563
  168SAPE   C2218857   6.017   4.442   5.141  0.0767  0.3532 -0.7305
  168SAPE   H2R18858   6.036   4.348   5.197  1.4599  1.3191  0.4931
  168SAPE   H2S18859   6.107   4.451   5.077  1.1149  1.1910  0.7908
  168SAPE    C318860   5.622   4.269   5.143 -0.4012 -0.0833  0.6167
  168SAPE    HX18861   5.521   4.243   5.104  0.2604 -0.3579 -0.9850
  168SAPE    HY18862   5.608   4.372   5.180 -2.1290 -0.0235 -0.1196
  168SAPE   O3118863   5.667   4.158   5.232  0.2263 -0.2587  0.7428
  168SAPE   C3118864   5.752   4.213   5.322 -0.1269  0.6556 -0.3112
  168SAPE   O3218865   5.782   4.325   5.336  0.1429 -0.2772 -0.2679
  168SAPE   C3218866   5.811   4.098   5.402  0.4310 -0.1631 -0.5722
  168SAPE   H2X18867   5.902   4.064   5.349  1.0486 -0.5057  0.6749
  168SAPE   H2Y18868   5.739   4.014   5.408 -1.1307  1.1811  0.8347
  168SAPE   C2318869   6.012   4.563   5.232  1.2480 -0.2051  0.1035
  168SAPE   H3R18870   5.914   4.575   5.283  0.7267  0.4956 -1.0309
  168SAPE   H3S18871   6.026   4.655   5.172 -0.5662  0.4550  0.6249
  168SAPE   C2418872   6.119   4.570   5.337 -0.1583  0.5463 -0.2247
  168SAPE   H4R18873   6.119   4.672   5.381  3.7165  0.2432  0.9156
  168SAPE   H4S18874   6.216   4.544   5.290 -1.2908  1.2511 -3.1803
  168SAPE   C2518875   6.090   4.477   5.453  0.9679  0.7692  0.4793
  168SAPE   H5R18876   6.021   4.398   5.420 -0.4444  1.4853  1.5917
  168SAPE   C2618877   6.144   4.482   5.574  0.3352  0.2794  0.2730
  168SAPE   H6R18878   6.116   4.407   5.650 -0.6617 -2.8145 -2.8770
  168SAPE   C2718879   6.245   4.589   5.628 -0.8507  0.1244 -0.0444
  168SAPE   H7R18880   6.310   4.631   5.549 -0.8886 -0.0574 -0.1718
  168SAPE   H7S18881   6.309   4.535   5.701 -0.7788  0.0567 -0.1588
  168SAPE   C2818882   6.173   4.704   5.692  0.5047 -0.4777  0.0446
  168SAPE   H8R18883   6.108   4.751   5.617 -0.9407 -2.1955  0.1604
  168SAPE   C2918884   6.170   4.745   5.820 -0.5078  0.2113  0.7239
  168SAPE   H9R18885   6.090   4.811   5.856 -0.4796  0.8765 -0.4016
  168SAPE  C21018886   6.263   4.680   5.922 -0.3465  0.0524 -0.2685
  168SAPE  H10R18887   6.358   4.675   5.864 -0.4714  1.0282 -0.5651
  168SAPE  H10S18888   6.235   4.573   5.933 -2.3841  0.4253 -1.3479
  168SAPE  C21118889   6.270   4.757   6.053  0.1960 -0.4761 -0.2127
  168SAPE  H11R18890   6.172   4.803   6.075 -0.9702 -2.4984 -0.8270
  168SAPE  C21218891   6.384   4.767   6.130 -0.3121  0.7253  0.1017
  168SAPE  H12R18892   6.390   4.821   6.226  2.2601  1.0598 -0.1745
  168SAPE  C21318893   6.516   4.702   6.096  0.6473  0.2011  0.7993
  168SAPE  H13R18894   6.523   4.671   5.989  0.5325 -1.0474  1.1384
  168SAPE  H13S18895   6.537   4.603   6.142  0.8896 -1.0734 -1.8554
  168SAPE  C21418896   6.629   4.793   6.129 -0.5666 -0.4892 -0.3856
  168SAPE  H14R18897   6.664   4.852   6.044 -0.4403 -0.9761 -0.6727
  168SAPE  C21518898   6.677   4.814   6.255  0.2320 -0.6800 -1.5459
  168SAPE  H15R18899   6.762   4.881   6.268 -0.3305  0.0374 -1.5274
  168SAPE  C21618900   6.636   4.737   6.383  0.5038  0.2561  0.1597
  168SAPE  H16R18901   6.723   4.671   6.402  2.9772  2.4943 -2.2857
  168SAPE  H16S18902   6.537   4.686   6.378  0.1642  0.9004  0.1824
  168SAPE  C21718903   6.615   4.838   6.500  0.1770  0.0859 -0.6520
  168SAPE  H17R18904   6.525   4.897   6.475  1.2937  2.5881  0.8414
  168SAPE  H17S18905   6.701   4.908   6.505  0.9862 -0.9574  1.7623
  168SAPE  C21818906   6.606   4.768   6.632 -0.2180 -0.2023  0.5429
  168SAPE  H18R18907   6.642   4.832   6.717 -0.5490 -0.2032  0.6855
  168SAPE  H18S18908   6.677   4.683   6.629  0.7738  0.6118  0.4676
  168SAPE  C21918909   6.465   4.703   6.653  0.4265  0.5156  0.0968
  168SAPE  H19R18910   6.450   4.650   6.556  0.3208  0.6938  0.0142
  168SAPE  H19S18911   6.389   4.783   6.666 -0.0924 -0.3651  3.1462
  168SAPE  C22018912   6.464   4.613   6.772 -0.6369 -0.0747 -0.0082
  168SAPE  H20R18913   6.366   4.563   6.786  0.0373 -1.5821 -0.3508
  168SAPE  H20S18914   6.500   4.659   6.866  0.9787 -0.5529 -0.3613
  168SAPE  H20T18915   6.536   4.529   6.764 -1.3117 -0.9405  2.2946
  168SAPE   C3318916   5.845   4.131   5.552  0.3860  0.5476 -0.4537
  168SAPE   H3X18917   5.895   4.230   5.554  1.7578 -0.1154 -0.1498
  168SAPE   H3Y18918   5.931   4.061   5.567 -0.1783 -0.1166 -0.2644
  168SAPE   C3418919   5.728   4.128   5.652  0.0543  0.0535  0.1561
  168SAPE   H4X18920   5.717   4.023   5.686  0.5580  0.5587  1.9774
  168SAPE   H4Y18921   5.638   4.161   5.595 -0.8985 -1.1561  0.9239
  168SAPE   C3518922   5.758   4.221   5.769 -0.4487  0.7058  0.5993
  168SAPE   H5X18923   5.724   4.324   5.746  0.7621  1.0058  0.0495
  168SAPE   H5Y18924   5.868   4.223   5.783 -0.4797 -1.3676  1.5672
  168SAPE   C3618925   5.685   4.178   5.900  0.0184 -0.2800  0.5509
  168SAPE   H6X18926   5.718   4.074   5.921 -0.4069 -0.9069 -1.6541
  168SAPE   H6Y18927   5.576   4.177   5.880  0.4475 -0.6531 -2.1785
  168SAPE   C3718928   5.688   4.278   6.010  0.8002 -0.4170  0.5136
  168SAPE   H7X18929   5.651   4.378   5.977  0.3967 -0.3496  1.1422
  168SAPE   H7Y18930   5.790   4.313   6.038 -0.6678  3.1710  2.1054
  168SAPE   C3818931   5.605   4.239   6.128 -0.1737  0.0034 -0.3598
  168SAPE   H8X18932   5.510   4.192   6.092  0.7065 -1.8544 -0.4023
  168SAPE   H8Y18933   5.580   4.327   6.191  0.6543  2.7839 -3.6315
  168SAPE   C3918934   5.674   4.126   6.208  0.6084 -0.1356  0.9292
  168SAPE   H9X18935   5.698   4.045   6.136 -0.9806 -0.6411  0.9330
  168SAPE   H9Y18936   5.597   4.085   6.276 -1.0812  0.2912 -0.6673
  168SAPE  C31018937   5.806   4.168   6.289  0.4463 -1.2219 -0.7037
  168SAPE  H10X18938   5.782   4.248   6.363 -0.7844 -1.3336 -0.9646
  168SAPE  H10Y18939   5.883   4.199   6.216  0.1023 -0.4894 -0.7567
  168SAPE  C31118940   5.866   4.048   6.355 -0.6030  0.6149  0.1949
  168SAPE  H11X18941   5.877   3.957   6.293 -0.0174 -0.1595  1.3826
  168SAPE  H11Y18942   5.798   4.008   6.433 -2.5167  0.8164 -1.2971
  168SAPE  C31218943   6.003   4.083   6.420 -0.5433  0.2230 -0.7886
  168SAPE  H12X18944   5.976   4.165   6.491 -0.9045  1.3912 -2.2244
  168SAPE  H12Y18945   6.087   4.132   6.366 -0.0635 -0.6661 -0.8719
  168SAPE  C31318946   6.060   3.957   6.481  0.5272 -0.1395 -0.6126
  168SAPE  H13X18947   6.096   3.911   6.387 -1.7896  0.6501 -1.9767
  168SAPE  H13Y18948   5.977   3.894   6.517  0.4641 -0.0829 -0.6586
  168SAPE  C31418949   6.166   3.974   6.588  0.3660 -0.4308  0.0229
  168SAPE  H14X18950   6.263   3.999   6.542 -0.8002  1.8090 -1.3904
  168SAPE  H14Y18951   6.171   3.877   6.643  0.2152 -0.4769 -0.0426
  168SAPE  C31518952   6.141   4.075   6.706 -0.2481  0.6367 -0.0225
  168SAPE  H15X18953   6.046   4.041   6.752 -2.2799  1.0250 -3.5819
  168SAPE  H15Y18954   6.128   4.178   6.667 -0.9626  1.5740  2.5137
  168SAPE  C31618955   6.262   4.071   6.806 -0.2314  0.6528  0.1496
  168SAPE  H16X18956   6.345   4.122   6.752  0.1779  0.9676  1.0580
  168SAPE  H16Y18957   6.287   3.964   6.825  0.4027  0.9103  0.7904
  168SAPE  C31718958   6.240   4.134   6.942  0.1285 -0.1701  0.0567
  168SAPE  H17X18959   6.326   4.121   7.011 -1.0954 -0.0790  1.6781
  168SAPE  H17Y18960   6.151   4.089   6.992 -0.5720  0.1403 -0.8748
  168SAPE  C31818961   6.206   4.282   6.932 -0.0745 -0.5035  0.3131
  168SAPE  H18X18962   6.113   4.286   6.872  1.1853 -1.8141 -1.8450
  168SAPE  H18Y18963   6.277   4.348   6.877 -0.9888  0.3491  0.1241
  168SAPE  H18Z18964   6.196   4.325   7.034  0.7068 -2.3907  1.2161
  169SAPE     N18965   3.534   5.362   3.987 -0.4104  0.1560  0.4920
  169SAPE   HN118966   3.570   5.395   3.895  2.5776  0.1148  1.5360
  169SAPE   HN218967   3.593   5.281   4.015 -0.0947  0.6265  1.2008
  169SAPE   HN318968   3.435   5.330   3.984 -0.6854  1.0106  0.2708
  169SAPE   C1218969   3.538   5.482   4.085 -0.3194  0.0029  0.1927
  169SAPE  H12A18970   3.491   5.561   4.022 -0.6575  0.4260  0.9546
  169SAPE  H12B18971   3.643   5.506   4.111  0.7948 -1.5159 -2.5514
  169SAPE   C1118972   3.451   5.442   4.207  0.3285  0.1426 -1.1689
  169SAPE  H11A18973   3.475   5.514   4.289 -0.1498  0.2591 -1.1293
  169SAPE  H11B18974   3.489   5.343   4.243 -0.1076 -0.3619 -2.0753
  169SAPE     P18975   3.198   5.527   4.205 -1.0170 -0.0513 -0.2025
  169SAPE   O1318976   3.093   5.503   4.109  0.8500 -0.6940  0.3852
  169SAPE   O1418977   3.169   5.511   4.346  0.3659 -0.6820  0.0384
  169SAPE   O1218978   3.313   5.433   4.169  0.1048 -0.4120  0.1452
  169SAPE   O1118979   3.247   5.673   4.183 -0.2614 -0.1286 -0.0442
  169SAPE    C118980   3.161   5.790   4.203 -0.7056  0.3017 -0.3165
  169SAPE    HA18981   3.129   5.840   4.110 -2.0121  1.3632  0.6804
  169SAPE    HB18982   3.072   5.765   4.263 -0.7512 -0.8499 -0.8263
  169SAPE    C218983   3.239   5.899   4.287  0.6544 -0.7744 -0.1653
  169SAPE    HS18984   3.336   5.928   4.240  0.9621 -1.6597 -0.1079
  169SAPE   O2118985   3.273   5.855   4.417  0.3129  0.0511 -0.8113
  169SAPE   C2118986   3.390   5.792   4.433  0.1911 -0.3904  0.1495
  169SAPE   O2218987   3.472   5.764   4.348 -0.1074 -0.0442  0.5145
  169SAPE   C2218988   3.404   5.756   4.580  0.3198  0.4998 -0.4284
  169SAPE   H2R18989   3.494   5.691   4.590  0.5849  0.8903 -0.2329
  169SAPE   H2S18990   3.428   5.850   4.634  0.7765  0.3813 -0.4162
  169SAPE    C318991   3.151   6.024   4.301 -0.1364  0.5465  0.0121
  169SAPE    HX18992   3.138   6.070   4.201 -0.3278  1.6409  0.5187
  169SAPE    HY18993   3.206   6.096   4.366 -1.7059 -0.2897  2.4051
  169SAPE   O3118994   3.021   5.990   4.359  0.6511 -0.4794  0.0533
  169SAPE   C3118995   2.993   6.035   4.484 -0.6514 -0.0328  0.4266
  169SAPE   O3218996   3.063   6.117   4.542  0.1214 -0.2565 -0.0615
  169SAPE   C3218997   2.873   5.970   4.535  0.6293  0.8329  0.6234
  169SAPE   H2X18998   2.882   5.859   4.533 -1.3911  0.6414 -0.0735
  169SAPE   H2Y18999   2.792   5.996   4.464 -0.1457  0.9148  1.5244
  169SAPE   C2319000   3.272   5.692   4.642 -0.6307 -0.0344 -0.4425
  169SAPE   H3R19001   3.309   5.612   4.709 -0.7757  0.8558  0.7458
  169SAPE   H3S19002   3.213   5.638   4.565  0.4186 -1.2881 -0.4005
  169SAPE   C2419003   3.189   5.798   4.724 -0.5590  0.3111  0.0192
  169SAPE   H4R19004   3.143   5.873   4.655 -0.6136 -0.2443 -0.5542
  169SAPE   H4S19005   3.254   5.861   4.789 -0.7442  0.5999 -0.0702
  169SAPE   C2519006   3.086   5.733   4.813  0.0179 -0.0445  0.0020
  169SAPE   H5R19007   3.001   5.696   4.754  0.9275  1.3727 -2.3234
  169SAPE   C2619008   3.093   5.716   4.945 -0.3621 -0.2096 -0.2168
  169SAPE   H6R19009   3.018   5.651   4.994  0.4081 -1.0887 -0.1859
  169SAPE   C2719010   3.206   5.754   5.039  0.2960  0.0537 -0.5190
  169SAPE   H7R19011   3.204   5.864   5.056 -0.2369 -0.2364  1.5156
  169SAPE   H7S19012   3.298   5.717   4.988  0.3770  0.3152 -0.5654
  169SAPE   C2819013   3.192   5.674   5.168  0.0519  0.3023 -0.0897
  169SAPE   H8R19014   3.248   5.579   5.169  1.6937  1.2378  0.8653
  169SAPE   C2919015   3.135   5.731   5.276 -0.2892  0.1850 -0.2605
  169SAPE   H9R19016   3.111   5.659   5.356 -0.7012 -0.3840 -0.8816
  169SAPE  C21019017   3.081   5.873   5.293 -0.5668  0.4210 -0.2088
  169SAPE  H10R19018   3.132   5.946   5.227 -0.3456  0.1330 -0.3610
  169SAPE  H10S19019   3.093   5.919   5.393 -0.4995  4.4302 -1.8837
  169SAPE  C21119020   2.936   5.849   5.264  0.5789  0.3890 -0.3284
  169SAPE  H11R19021   2.901   5.821   5.164  2.3947  0.2644 -0.9631
  169SAPE  C21219022   2.841   5.854   5.359  0.6367  0.0778  0.7177
  169SAPE  H12R19023   2.735   5.843   5.331  0.7712  0.2310  0.1393
  169SAPE  C21319024   2.856   5.869   5.509 -0.5287  0.0697  0.5377
  169SAPE  H13R19025   2.962   5.866   5.543  0.5051 -2.5103 -2.4575
  169SAPE  H13S19026   2.806   5.780   5.553  0.8462 -0.3055  1.4349
  169SAPE  C21419027   2.812   5.998   5.566  0.5294 -0.9480 -0.0122
  169SAPE  H14R19028   2.742   6.054   5.501  1.1216 -0.6006 -0.3628
  169SAPE  C21519029   2.842   6.050   5.687 -0.1878 -0.0563 -1.0112
  169SAPE  H15R19030   2.795   6.146   5.715 -1.1943  0.0020 -2.7162
  169SAPE  C21619031   2.930   5.993   5.801  0.5986 -0.2520 -0.6294
  169SAPE  H16R19032   2.987   5.900   5.781  2.2137  0.6131 -0.1424
  169SAPE  H16S19033   2.852   5.979   5.880  2.3481  1.6504  1.5697
  169SAPE  C21719034   3.030   6.096   5.844  0.4728 -0.7169  0.3952
  169SAPE  H17R19035   3.065   6.141   5.749 -3.2824 -0.2908 -0.9819
  169SAPE  H17S19036   3.119   6.042   5.883  0.5705 -1.1173 -0.3734
  169SAPE  C21819037   2.971   6.204   5.939 -0.3515  0.3907 -0.1755
  169SAPE  H18R19038   2.861   6.186   5.945 -0.7182  1.6707 -2.1893
  169SAPE  H18S19039   2.971   6.304   5.890  1.5769  0.9797  0.9264
  169SAPE  C21919040   3.036   6.204   6.074  0.2131  0.1646 -0.0722
  169SAPE  H19R19041   3.007   6.304   6.111  2.0292  0.9697 -0.7195
  169SAPE  H19S19042   3.147   6.212   6.076  0.1202  1.6310  0.0495
  169SAPE  C22019043   2.990   6.097   6.173  0.6865 -0.2383 -0.1790
  169SAPE  H20R19044   3.017   6.125   6.277  0.6805  0.6865 -0.4165
  169SAPE  H20S19045   3.032   5.999   6.144 -0.9851 -0.6853 -1.1710
  169SAPE  H20T19046   2.880   6.096   6.161  0.6894 -1.5314 -0.2454
  169SAPE   C3319047   2.825   6.013   4.679 -0.3140  0.0226  0.4343
  169SAPE   H3X19048   2.793   6.119   4.670 -0.4514 -0.0577 -0.0490
  169SAPE   H3Y19049   2.912   6.007   4.747  0.6132 -2.6787 -0.8392
  169SAPE   C3419050   2.706   5.939   4.734 -0.4536  0.0405  0.4621
  169SAPE   H4X19051   2.731   5.832   4.755 -0.2829 -0.1691 -0.7132
  169SAPE   H4Y19052   2.638   5.920   4.649 -1.3695  2.7935  0.5027
  169SAPE   C3519053   2.622   6.018   4.835 -0.0940  0.1049 -0.2726
  169SAPE   H5X19054   2.618   6.123   4.799 -0.1042  0.2677  0.2042
  169SAPE   H5Y19055   2.690   6.029   4.922 -0.4161 -1.4068  0.1907
  169SAPE   C3619056   2.491   5.964   4.875  0.1983 -0.3155  0.0282
  169SAPE   H6X19057   2.508   5.862   4.915  0.6926 -1.4731 -2.8685
  169SAPE   H6Y19058   2.429   5.964   4.783  0.5887  2.4708 -0.3113
  169SAPE   C3719059   2.419   6.046   4.989  0.0182  0.2876 -0.4046
  169SAPE   H7X19060   2.318   6.001   4.999  0.7791 -1.4663 -0.3205
  169SAPE   H7Y19061   2.417   6.151   4.953  1.5295 -0.6708 -3.6095
  169SAPE   C3819062   2.485   6.023   5.125  0.3046  0.7227 -0.7053
  169SAPE   H8X19063   2.594   6.040   5.119  0.3295  0.3613 -1.3927
  169SAPE   H8Y19064   2.465   5.920   5.162  0.5979 -1.1110 -5.0596
  169SAPE   C3919065   2.429   6.131   5.218  0.2520 -0.5306 -0.2665
  169SAPE   H9X19066   2.320   6.112   5.231  0.4082 -1.1695  0.2132
  169SAPE   H9Y19067   2.437   6.230   5.169  2.0833 -0.1044  0.7930
  169SAPE  C31019068   2.495   6.129   5.360  0.0330 -0.0625  0.6247
  169SAPE  H10X19069   2.601   6.160   5.360 -0.0914  0.3849  1.0370
  169SAPE  H10Y19070   2.494   6.021   5.388  0.5073  0.2691  1.9901
  169SAPE  C31119071   2.418   6.215   5.459  0.6554 -0.9767  0.4308
  169SAPE  H11X19072   2.313   6.182   5.445  0.2321 -0.4177  2.0962
  169SAPE  H11Y19073   2.428   6.321   5.429 -0.2024 -0.5177  1.7140
  169SAPE  C31219074   2.457   6.205   5.606  0.7418  0.3683  0.2777
  169SAPE  H12X19075   2.567   6.204   5.618  0.9846  0.4336 -1.6719
  169SAPE  H12Y19076   2.418   6.107   5.639 -0.2138  0.1457 -1.3716
  169SAPE  C31319077   2.398   6.329   5.677 -0.8286  0.1831 -0.0768
  169SAPE  H13X19078   2.287   6.323   5.673 -0.9298  0.2051  1.7066
  169SAPE  H13Y19079   2.430   6.426   5.632  0.0340 -1.3191 -2.9575
  169SAPE  C31419080   2.422   6.321   5.834 -0.7978 -0.8926  0.5547
  169SAPE  H14X19081   2.413   6.215   5.866 -0.1677 -0.6355  1.6013
  169SAPE  H14Y19082   2.333   6.377   5.870 -0.8423 -1.5940  1.5371
  169SAPE  C31519083   2.556   6.378   5.870  0.2323  0.5220 -0.9005
  169SAPE  H15X19084   2.580   6.476   5.825 -0.8343  1.9970  1.5087
  169SAPE  H15Y19085   2.628   6.297   5.847 -0.4239 -1.0925  2.0994
  169SAPE  C31619086   2.568   6.397   6.024 -0.7404  0.4201 -1.2864
  169SAPE  H16X19087   2.672   6.416   6.058 -1.4027  0.8369  0.6223
  169SAPE  H16Y19088   2.530   6.298   6.058 -0.5385  0.6621 -0.3160
  169SAPE  C31719089   2.494   6.519   6.097  0.9116  0.5619 -0.1154
  169SAPE  H17X19090   2.395   6.517   6.046 -0.2608  1.4449  2.0085
  169SAPE  H17Y19091   2.550   6.612   6.071  0.4930  0.6481 -0.7331
  169SAPE  C31819092   2.487   6.494   6.245  0.6132 -0.0443 -0.2760
  169SAPE  H18X19093   2.401   6.430   6.274  1.0083 -1.5497 -2.2370
  169SAPE  H18Y19094   2.485   6.590   6.302  1.1350 -0.8003  1.0518
  169SAPE  H18Z19095   2.573   6.438   6.287  0.0744  1.3250  3.0386
  170SAPE     N19096   3.785   1.693   3.501 -0.0848  0.4106 -0.2032
  170SAPE   HN119097   3.688   1.672   3.531  0.5893 -1.5100  0.8423
  170SAPE   HN219098   3.803   1.795   3.496  3.7126 -0.1638 -2.6327
  170SAPE   HN319099   3.821   1.669   3.406  1.4808  0.9501  0.2241
  170SAPE   C1219100   3.870   1.636   3.611 -0.0559 -0.0763  1.2619
  170SAPE  H12A19101   3.841   1.689   3.705 -1.3987 -0.2063  0.9403
  170SAPE  H12B19102   3.974   1.660   3.580  0.2690 -0.4701  2.0338
  170SAPE   C1119103   3.851   1.483   3.623 -0.1372 -0.5853 -0.3889
  170SAPE  H11A19104   3.905   1.447   3.713  0.3142 -0.6475 -0.6829
  170SAPE  H11B19105   3.898   1.434   3.535  1.4502  0.4278 -0.1516
  170SAPE     P19106   3.642   1.440   3.772 -0.2176 -0.2090  0.3405
  170SAPE   O1319107   3.523   1.527   3.766  0.1259  0.7391 -0.2377
  170SAPE   O1419108   3.605   1.298   3.799  0.4313  0.0144 -0.0627
  170SAPE   O1219109   3.713   1.442   3.634  0.1462  0.1342 -0.7178
  170SAPE   O1119110   3.751   1.496   3.875 -0.4731 -0.5148 -0.0329
  170SAPE    C119111   3.789   1.415   3.987  0.0874 -0.1526  0.6681
  170SAPE    HA19112   3.814   1.311   3.958  2.9361  0.0158  2.1228
  170SAPE    HB19113   3.886   1.455   4.024  0.5132  0.2742 -0.8134
  170SAPE    C219114   3.684   1.420   4.103  0.3539 -0.1022 -0.1947
  170SAPE    HS19115   3.595   1.365   4.064  0.8445 -0.4258 -0.8915
  170SAPE   O2119116   3.654   1.563   4.126 -0.1724  0.5655  0.0269
  170SAPE   C2119117   3.542   1.589   4.187 -0.4324 -0.2813 -0.2271
  170SAPE   O2219118   3.462   1.503   4.216  0.3871 -0.1462 -0.7136
  170SAPE   C2219119   3.526   1.737   4.233 -0.3840  0.2032 -0.1333
  170SAPE   H2R19120   3.608   1.753   4.306  1.0579  0.9612 -1.8524
  170SAPE   H2S19121   3.557   1.808   4.153  0.1848  2.1754  1.7571
  170SAPE    C319122   3.740   1.347   4.237 -0.3342  0.2026  0.2839
  170SAPE    HX19123   3.836   1.398   4.259 -0.3116  0.8390 -1.1792
  170SAPE    HY19124   3.769   1.243   4.210  2.7682  1.4284 -1.7373
  170SAPE   O3119125   3.650   1.336   4.350  0.1664  0.7010 -0.5343
  170SAPE   C3119126   3.663   1.418   4.452 -0.0926 -0.2570 -0.0409
  170SAPE   O3219127   3.755   1.497   4.465 -0.5627  0.1522  0.1649
  170SAPE   C3219128   3.539   1.402   4.543 -0.4607 -0.0886  1.5888
  170SAPE   H2X19129   3.539   1.292   4.559  1.3378 -0.7625 -2.0649
  170SAPE   H2Y19130   3.454   1.440   4.481  0.9381 -0.3306 -0.5975
  170SAPE   C2319131   3.388   1.787   4.282  0.0443  0.0202 -0.0472
  170SAPE   H3R19132   3.320   1.753   4.202 -1.9079  1.7828  0.7602
  170SAPE   H3S19133   3.382   1.898   4.279 -0.0694  0.0212  0.2002
  170SAPE   C2419134   3.349   1.736   4.420  0.2517  0.6493 -0.5657
  170SAPE   H4R19135   3.345   1.625   4.418  0.2614  0.6604 -1.5212
  170SAPE   H4S19136   3.244   1.765   4.442  0.8370  0.0317  4.0658
  170SAPE   C2519137   3.433   1.795   4.530  0.5100  0.1773  0.1074
  170SAPE   H5R19138   3.539   1.767   4.518  0.7104  0.7349  0.5702
  170SAPE   C2619139   3.387   1.835   4.652  0.6853  0.0178  0.4518
  170SAPE   H6R19140   3.469   1.869   4.718 -0.1056  1.3659  0.7726
  170SAPE   C2719141   3.247   1.853   4.698  0.7716 -0.2749 -0.5999
  170SAPE   H7R19142   3.200   1.753   4.705  0.6036 -0.1331  0.6839
  170SAPE   H7S19143   3.182   1.912   4.630  0.9592 -1.4737 -1.8462
  170SAPE   C2819144   3.226   1.935   4.824 -0.5573 -0.9219  0.0255
  170SAPE   H8R19145   3.246   2.042   4.809 -3.0320 -0.5353 -1.0981
  170SAPE   C2919146   3.146   1.911   4.931 -0.1684 -0.2961  0.2931
  170SAPE   H9R19147   3.127   1.997   4.998  1.4574  1.0049 -0.8366
  170SAPE  C21019148   3.068   1.783   4.967  0.1181  0.0576  0.1982
  170SAPE  H10R19149   3.072   1.766   5.077  0.5597 -1.0907  0.0130
  170SAPE  H10S19150   3.133   1.701   4.930 -0.2191 -1.1108  2.0241
  170SAPE  C21119151   2.927   1.785   4.903 -0.0164  0.1559 -0.2457
  170SAPE  H11R19152   2.926   1.811   4.796 -1.3226 -0.3307 -0.3819
  170SAPE  C21219153   2.823   1.745   4.975  0.4024 -0.5348 -0.0994
  170SAPE  H12R19154   2.727   1.778   4.932 -0.0780 -0.6611  0.8429
  170SAPE  C21319155   2.818   1.705   5.124  0.4139 -0.5421 -0.5911
  170SAPE  H13R19156   2.914   1.654   5.146  0.4350 -0.3242 -0.1715
  170SAPE  H13S19157   2.744   1.625   5.146 -0.3380  0.2570 -0.1310
  170SAPE  C21419158   2.795   1.819   5.218  0.1438 -0.1552 -0.9070
  170SAPE  H14R19159   2.798   1.918   5.171  1.8729  0.2134 -0.0935
  170SAPE  C21519160   2.806   1.816   5.357 -0.0489  0.8070 -0.1679
  170SAPE  H15R19161   2.790   1.911   5.411 -0.3515 -0.2936  1.7583
  170SAPE  C21619162   2.846   1.697   5.445 -0.1863 -0.3063  0.1255
  170SAPE  H16R19163   2.952   1.700   5.477  0.0715 -1.7332 -0.5002
  170SAPE  H16S19164   2.838   1.598   5.394 -0.9699 -1.4257  2.2813
  170SAPE  C21719165   2.761   1.682   5.574  0.7834  0.0485 -1.2527
  170SAPE  H17R19166   2.814   1.601   5.629 -0.9865 -0.7441 -0.6277
  170SAPE  H17S19167   2.655   1.659   5.550  0.8258 -0.7617 -0.7332
  170SAPE  C21819168   2.768   1.801   5.678  0.2609  0.3652 -0.4855
  170SAPE  H18R19169   2.693   1.794   5.760  2.9386  3.0685  2.4803
  170SAPE  H18S19170   2.724   1.885   5.620 -0.4616  2.5232  2.9062
  170SAPE  C21919171   2.899   1.868   5.724  0.4399  0.8760 -0.4771
  170SAPE  H19R19172   2.982   1.794   5.727 -2.3993 -2.5532  2.1391
  170SAPE  H19S19173   2.872   1.889   5.830 -0.8183 -0.2826 -0.5450
  170SAPE  C22019174   2.948   1.987   5.648  0.1606  0.4868  0.4116
  170SAPE  H20R19175   2.983   1.958   5.547  0.9784  2.9275 -0.0735
  170SAPE  H20S19176   3.037   2.032   5.698 -0.2799  0.3001  1.4020
  170SAPE  H20T19177   2.875   2.070   5.637  1.2232  1.1073 -2.7074
  170SAPE   C3319178   3.546   1.467   4.673 -0.1992  0.2333  0.5233
  170SAPE   H3X19179   3.582   1.571   4.674  2.5178 -0.6205  2.3057
  170SAPE   H3Y19180   3.625   1.420   4.737 -0.0997 -2.1178 -1.1880
  170SAPE   C3419181   3.421   1.447   4.769 -0.2044 -0.0681 -0.4344
  170SAPE   H4X19182   3.399   1.338   4.773 -2.8752  0.3955 -0.3330
  170SAPE   H4Y19183   3.326   1.489   4.730 -1.6266 -1.7078  1.0483
  170SAPE   C3519184   3.437   1.508   4.907 -0.8009  0.6527  0.0562
  170SAPE   H5X19185   3.408   1.615   4.898 -3.3305 -0.0798 -1.6449
  170SAPE   H5Y19186   3.536   1.490   4.953 -1.7728  0.3020  2.1459
  170SAPE   C3619187   3.336   1.455   5.012 -0.2348  0.2010 -1.1860
  170SAPE   H6X19188   3.369   1.354   5.042  1.5792  1.2494  0.5714
  170SAPE   H6Y19189   3.237   1.454   4.961  0.6077 -1.9760 -2.9534
  170SAPE   C3719190   3.309   1.545   5.136 -0.0609  0.3486 -0.0465
  170SAPE   H7X19191   3.249   1.634   5.107 -4.1114 -1.0490  3.0104
  170SAPE   H7Y19192   3.399   1.582   5.189 -1.5434  2.5159  1.1142
  170SAPE   C3819193   3.231   1.466   5.244 -0.6948  0.7275 -0.1922
  170SAPE   H8X19194   3.268   1.362   5.253  0.3957  1.0997 -0.1450
  170SAPE   H8Y19195   3.127   1.450   5.209  0.2422  0.2671 -2.9957
  170SAPE   C3919196   3.232   1.546   5.380  0.4784 -0.5914  0.5754
  170SAPE   H9X19197   3.165   1.634   5.374  0.2206 -0.8082  0.2120
  170SAPE   H9Y19198   3.335   1.578   5.406  0.7131 -0.5204 -0.4061
  170SAPE  C31019199   3.187   1.448   5.486  0.9759 -0.5251 -0.4127
  170SAPE  H10X19200   3.251   1.358   5.500  1.3629  0.1044  2.4667
  170SAPE  H10Y19201   3.083   1.422   5.454 -0.0223 -1.0037  2.8393
  170SAPE  C31119202   3.181   1.516   5.625 -0.2273  0.4280  0.9479
  170SAPE  H11X19203   3.145   1.620   5.617  2.0089  1.1812  0.0267
  170SAPE  H11Y19204   3.290   1.513   5.646  0.5024 -2.9134 -2.2863
  170SAPE  C31219205   3.112   1.452   5.743  0.8672  0.1845  0.7535
  170SAPE  H12X19206   3.141   1.345   5.751 -0.4461 -0.2706 -0.1700
  170SAPE  H12Y19207   3.001   1.458   5.746  0.6696 -2.5219  1.5149
  170SAPE  C31319208   3.150   1.521   5.870  1.0497 -0.1359  0.1575
  170SAPE  H13X19209   3.116   1.626   5.856  0.5099 -0.6768 -3.6572
  170SAPE  H13Y19210   3.261   1.525   5.873  1.0963 -1.4830  1.2453
  170SAPE  C31419211   3.109   1.449   5.997  0.3372 -0.7718 -0.1899
  170SAPE  H14X19212   3.106   1.338   5.985 -0.9991 -0.8675  0.7672
  170SAPE  H14Y19213   3.012   1.491   6.031  0.1612 -1.4278  0.1575
  170SAPE  C31519214   3.203   1.483   6.112 -0.0820 -0.1867 -0.3041
  170SAPE  H15X19215   3.205   1.591   6.139  0.4983  0.3889 -2.4654
  170SAPE  H15Y19216   3.306   1.455   6.082 -0.2318 -1.4929  0.2931
  170SAPE  C31619217   3.181   1.412   6.249 -0.4687  0.4221  0.3779
  170SAPE  H16X19218   3.263   1.440   6.319  0.6350 -0.2538 -0.6183
  170SAPE  H16Y19219   3.196   1.304   6.232  0.2226  0.6420 -0.4791
  170SAPE  C31719220   3.041   1.428   6.301  0.4039 -0.9219  0.4227
  170SAPE  H17X19221   3.029   1.373   6.397 -0.5594  0.3180  1.0371
  170SAPE  H17Y19222   2.971   1.385   6.226  2.1735 -0.6216 -1.5069
  170SAPE  C31819223   3.010   1.575   6.330  1.0445  0.4091 -0.5012
  170SAPE  H18X19224   3.007   1.627   6.232 -0.9073  0.4873 -0.4460
  170SAPE  H18Y19225   3.075   1.622   6.406 -2.6230  1.4212  2.3281
  170SAPE  H18Z19226   2.907   1.581   6.372  1.6175 -1.2542  1.3263
  171SAPE     N19227   4.062   1.749   4.000 -0.6377 -0.3482  0.0398
  171SAPE   HN119228   3.963   1.778   3.988 -0.9964 -1.1579  0.9548
  171SAPE   HN219229   4.131   1.820   3.968 -0.2715 -0.0180  1.4931
  171SAPE   HN319230   4.086   1.664   3.945 -1.6650 -0.2248 -0.6304
  171SAPE   C1219231   4.099   1.720   4.144  0.2494 -0.2189 -0.4960
  171SAPE  H12A19232   4.009   1.699   4.205  1.8331 -2.2844  1.2601
  171SAPE  H12B19233   4.142   1.810   4.192  0.9065 -1.2001  0.7981
  171SAPE   C1119234   4.212   1.611   4.143 -0.2694  0.3057  0.0780
  171SAPE  H11A19235   4.252   1.585   4.244  1.7432  1.6262 -0.3436
  171SAPE  H11B19236   4.298   1.655   4.089  1.1901 -1.6524  0.6994
  171SAPE     P19237   4.242   1.359   4.098  0.3198  0.0338  0.2426
  171SAPE   O1319238   4.162   1.246   4.048 -0.4521 -0.4509  0.2002
  171SAPE   O1419239   4.382   1.370   4.046  0.4915  0.1148  0.0842
  171SAPE   O1219240   4.168   1.498   4.078  0.1669  0.1269 -0.1839
  171SAPE   O1119241   4.244   1.350   4.248 -0.5813 -0.2628 -1.0173
  171SAPE    C119242   4.141   1.305   4.340 -0.3612  0.5977 -0.0546
  171SAPE    HA19243   4.038   1.307   4.299 -0.9904 -0.1662  1.4095
  171SAPE    HB19244   4.173   1.201   4.361 -1.5014  0.3843  0.6775
  171SAPE    C219245   4.137   1.372   4.482 -0.1444 -0.6853 -0.0820
  171SAPE    HS19246   4.108   1.479   4.481 -0.6630 -0.8236 -1.0713
  171SAPE   O2119247   4.264   1.350   4.542  0.0288 -0.6065  0.0227
  171SAPE   C2119248   4.321   1.455   4.598  0.5871  0.1809  0.1480
  171SAPE   O2219249   4.278   1.568   4.585  0.2007 -0.4105 -0.0261
  171SAPE   C2219250   4.441   1.412   4.678 -0.2636  0.3936  0.2255
  171SAPE   H2R19251   4.464   1.304   4.667  1.2013  0.7428 -0.4353
  171SAPE   H2S19252   4.527   1.471   4.641 -0.2186  1.4775  1.9713
  171SAPE    C319253   4.027   1.306   4.575 -0.1461 -0.3085 -0.1255
  171SAPE    HX19254   4.038   1.196   4.565 -0.2365 -0.2117 -1.4699
  171SAPE    HY19255   3.928   1.331   4.532  0.2612 -2.0523 -2.2690
  171SAPE   O3119256   4.033   1.349   4.714  0.1644  0.3856 -0.1090
  171SAPE   C3119257   3.966   1.273   4.803  0.0902 -0.4737 -0.0184
  171SAPE   O3219258   3.891   1.185   4.768  0.1835 -0.1122 -0.1665
  171SAPE   C3219259   3.988   1.313   4.947  1.0514  0.0617 -0.1237
  171SAPE   H2X19260   4.038   1.412   4.944 -0.5358  1.1136  3.3293
  171SAPE   H2Y19261   4.052   1.239   4.999  0.6331  0.1032  0.4583
  171SAPE   C2319262   4.434   1.466   4.829 -0.1153  0.1250 -1.0970
  171SAPE   H3R19263   4.420   1.576   4.826  1.0587  0.3116 -0.0945
  171SAPE   H3S19264   4.534   1.441   4.870 -0.6721 -0.1088  0.1370
  171SAPE   C2419265   4.323   1.403   4.900  0.5150  0.1452  0.1016
  171SAPE   H4R19266   4.324   1.300   4.860 -2.9229  0.0669 -0.0321
  171SAPE   H4S19267   4.229   1.445   4.861 -0.0563 -1.5526 -0.4323
  171SAPE   C2519268   4.340   1.392   5.050  0.4455  0.1740  0.2456
  171SAPE   H5R19269   4.417   1.325   5.091  0.8957  0.9743  0.7369
  171SAPE   C2619270   4.290   1.473   5.144 -0.4150 -0.3737 -0.3168
  171SAPE   H6R19271   4.306   1.453   5.251 -1.2395  1.6021  0.2121
  171SAPE   C2719272   4.201   1.597   5.112  0.1644 -1.0445  0.0038
  171SAPE   H7R19273   4.096   1.573   5.136 -0.2835  0.7391 -0.0047
  171SAPE   H7S19274   4.198   1.612   5.002 -0.9557  1.0134  0.2688
  171SAPE   C2819275   4.244   1.736   5.174  0.5953  0.5176  0.1136
  171SAPE   H8R19276   4.350   1.764   5.159  0.7071  1.3747  2.2365
  171SAPE   C2919277   4.164   1.817   5.254  0.5880 -0.2148 -0.2722
  171SAPE   H9R19278   4.199   1.907   5.307 -2.4947 -0.5449  2.6970
  171SAPE  C21019279   4.026   1.788   5.304  0.2088  0.4898 -0.4978
  171SAPE  H10R19280   3.968   1.735   5.226 -3.1827  1.0742  1.4487
  171SAPE  H10S19281   3.966   1.880   5.318 -1.0759 -0.6040  1.6816
  171SAPE  C21119282   4.026   1.712   5.432 -0.0153  0.0318  0.1770
  171SAPE  H11R19283   4.083   1.619   5.431 -2.4886 -1.5761  0.3021
  171SAPE  C21219284   3.961   1.750   5.545 -0.0361 -0.0847  0.6742
  171SAPE  H12R19285   3.954   1.679   5.630 -0.6064  2.7871  3.2020
  171SAPE  C21319286   3.882   1.879   5.579 -0.9411 -0.4100 -0.4804
  171SAPE  H13R19287   3.780   1.842   5.602 -1.6549  1.6299 -0.1307
  171SAPE  H13S19288   3.877   1.954   5.498 -3.0096  2.0644  1.7644
  171SAPE  C21419289   3.950   1.952   5.691 -0.4263 -0.1823  0.1348
  171SAPE  H14R19290   4.041   2.002   5.654  0.6507 -0.8094  1.7973
  171SAPE  C21519291   3.907   1.966   5.820  0.1002 -0.4883 -0.3182
  171SAPE  H15R19292   3.960   2.029   5.893 -0.5544 -0.7102  0.3543
  171SAPE  C21619293   3.786   1.900   5.877  0.3714 -0.8029  0.1814
  171SAPE  H16R19294   3.787   1.883   5.987 -0.8630  1.2015  0.5530
  171SAPE  H16S19295   3.757   1.806   5.826  0.7172 -0.9136  0.1870
  171SAPE  C21719296   3.663   1.993   5.865  0.0159  0.0980  0.7096
  171SAPE  H17R19297   3.672   2.062   5.779 -2.4110  0.2618  0.5232
  171SAPE  H17S19298   3.651   2.060   5.953 -2.6975  0.9391 -0.2112
  171SAPE  C21819299   3.538   1.904   5.835 -1.0382  0.2958 -0.3053
  171SAPE  H18R19300   3.550   1.830   5.918 -0.3965 -0.9312 -1.4597
  171SAPE  H18S19301   3.540   1.866   5.731 -0.1957  1.0512 -0.5822
  171SAPE  C21919302   3.396   1.952   5.850  0.0780  0.1024  0.0018
  171SAPE  H19R19303   3.387   1.982   5.956 -0.2938  1.5439 -0.4174
  171SAPE  H19S19304   3.329   1.864   5.849 -0.4796  0.4706  1.6263
  171SAPE  C22019305   3.355   2.065   5.760 -0.2614  0.0016 -0.7431
  171SAPE  H20R19306   3.429   2.148   5.756 -1.5013  1.2523  0.4873
  171SAPE  H20S19307   3.267   2.128   5.786 -2.2648 -2.3357 -1.5199
  171SAPE  H20T19308   3.317   2.023   5.664 -0.5436  1.6013 -1.3741
  171SAPE   C3319309   3.854   1.335   5.017  0.4902 -0.5675  0.8220
  171SAPE   H3X19310   3.784   1.249   5.010 -1.2215  0.8864 -1.0009
  171SAPE   H3Y19311   3.800   1.415   4.963  1.2694 -0.5166  0.0966
  171SAPE   C3419312   3.855   1.366   5.169  0.1509  0.8087  0.6001
  171SAPE   H4X19313   3.937   1.439   5.184 -1.4070  2.9801 -0.8006
  171SAPE   H4Y19314   3.885   1.276   5.228  0.4493  1.2795  1.1685
  171SAPE   C3519315   3.719   1.425   5.225 -0.5812  0.1065  0.5886
  171SAPE   H5X19316   3.632   1.366   5.189  1.5788 -1.1990 -2.8895
  171SAPE   H5Y19317   3.704   1.525   5.178 -0.3985 -0.2121 -0.1586
  171SAPE   C3619318   3.730   1.444   5.374  0.4422 -0.1250 -0.1112
  171SAPE   H6X19319   3.832   1.476   5.404  0.2469  0.0203  0.4010
  171SAPE   H6Y19320   3.713   1.349   5.429 -0.5816 -0.2613 -0.6423
  171SAPE   C3719321   3.619   1.536   5.416 -0.6228 -0.3299 -0.2302
  171SAPE   H7X19322   3.527   1.485   5.381 -1.2711 -0.6674  1.8469
  171SAPE   H7Y19323   3.625   1.621   5.345 -1.2837 -0.9192 -1.0025
  171SAPE   C3819324   3.625   1.582   5.563  0.0304 -0.1397 -0.3218
  171SAPE   H8X19325   3.535   1.640   5.592 -1.5090 -2.3379 -0.5235
  171SAPE   H8Y19326   3.715   1.646   5.578  0.9979 -1.7845  1.3715
  171SAPE   C3919327   3.633   1.470   5.659  0.6738 -0.3446 -0.8182
  171SAPE   H9X19328   3.733   1.422   5.654  0.8590  0.0378 -0.7935
  171SAPE   H9Y19329   3.557   1.389   5.647  0.2473  0.2227 -2.1704
  171SAPE  C31019330   3.618   1.521   5.806  0.3251  0.2598  0.4231
  171SAPE  H10X19331   3.536   1.596   5.816  0.3777  0.4784 -0.6841
  171SAPE  H10Y19332   3.712   1.574   5.832  0.0120  1.4545 -0.7870
  171SAPE  C31119333   3.586   1.416   5.907 -0.1192 -0.6851 -0.5251
  171SAPE  H11X19334   3.641   1.326   5.874 -1.8483 -1.4404 -1.4528
  171SAPE  H11Y19335   3.479   1.388   5.916 -0.0203 -1.2742 -1.1777
  171SAPE  C31219336   3.640   1.453   6.043  0.3267 -0.3868  0.0097
  171SAPE  H12X19337   3.750   1.458   6.024  0.3330  1.0405  0.3496
  171SAPE  H12Y19338   3.621   1.370   6.114  0.8539 -1.2811 -0.8631
  171SAPE  C31319339   3.597   1.588   6.115  0.4270 -0.2316 -0.2156
  171SAPE  H13X19340   3.487   1.579   6.101  0.4232 -0.2682 -0.1605
  171SAPE  H13Y19341   3.627   1.676   6.055 -3.1225  0.9570 -0.4827
  171SAPE  C31419342   3.630   1.600   6.266 -0.4411 -0.1538  0.0750
  171SAPE  H14X19343   3.618   1.498   6.309 -0.2003 -0.0735  0.3392
  171SAPE  H14Y19344   3.567   1.670   6.325  3.1727  2.4036  1.3160
  171SAPE  C31519345   3.776   1.657   6.296  0.2060  0.1775 -0.1566
  171SAPE  H15X19346   3.771   1.691   6.402 -0.3220  1.6756 -0.6358
  171SAPE  H15Y19347   3.781   1.742   6.225 -0.9310  0.6675  0.3126
  171SAPE  C31619348   3.888   1.552   6.273 -0.6893 -0.4729 -0.0083
  171SAPE  H16X19349   3.897   1.532   6.164  1.5715 -0.6903  0.1610
  171SAPE  H16Y19350   3.859   1.464   6.333 -1.9429  0.4248  0.7387
  171SAPE  C31719351   4.039   1.601   6.303 -0.1319 -0.0673  0.7813
  171SAPE  H17X19352   4.097   1.511   6.273 -0.8409 -0.2892  0.0489
  171SAPE  H17Y19353   4.059   1.606   6.413  2.3715  0.9720  0.3526
  171SAPE  C31819354   4.095   1.722   6.234 -0.1337 -0.1597 -0.3637
  171SAPE  H18X19355   4.198   1.746   6.265 -0.3799  0.6714 -0.1569
  171SAPE  H18Y19356   4.028   1.810   6.252 -0.2411 -0.7815  2.9952
  171SAPE  H18Z19357   4.094   1.704   6.124 -2.8993 -0.5795 -0.3526
  172SAPE     N19358   5.253   6.499   4.451  0.1083 -0.0563 -0.1121
  172SAPE   HN119359   5.352   6.472   4.430  0.1758  1.7632 -2.5850
  172SAPE   HN219360   5.210   6.508   4.356  2.2294  0.5064 -1.0875
  172SAPE   HN319361   5.265   6.596   4.484 -0.1722 -0.0103 -0.1446
  172SAPE   C1219362   5.192   6.396   4.540  0.1019 -0.1432 -0.1231
  172SAPE  H12A19363   5.086   6.428   4.551 -0.0131 -0.2911 -0.7304
  172SAPE  H12B19364   5.234   6.400   4.642  0.5080 -1.0934 -0.2463
  172SAPE   C1119365   5.187   6.256   4.482 -0.1181  0.9360  0.7482
  172SAPE  H11A19366   5.113   6.250   4.400  0.2793  1.5171  0.3442
  172SAPE  H11B19367   5.132   6.194   4.557 -0.5688  0.1139 -0.2431
  172SAPE     P19368   5.379   6.074   4.546 -0.0540 -0.3149 -0.0430
  172SAPE   O1319369   5.271   5.988   4.585  0.4091  0.4009  0.0209
  172SAPE   O1419370   5.492   6.010   4.479  0.1074 -0.3075 -0.0053
  172SAPE   O1219371   5.315   6.188   4.448  0.0922 -0.0167 -0.4337
  172SAPE   O1119372   5.430   6.161   4.671  0.7278  0.4352 -0.0151
  172SAPE    C119373   5.525   6.265   4.652  0.1022  0.0881 -0.3264
  172SAPE    HA19374   5.612   6.236   4.590 -0.3999 -1.2029 -0.4624
  172SAPE    HB19375   5.478   6.350   4.599 -1.7490  0.0967  1.2248
  172SAPE    C219376   5.579   6.317   4.787  0.1742  0.1384 -0.1391
  172SAPE    HS19377   5.682   6.352   4.765  0.0682  1.2821  1.0572
  172SAPE   O2119378   5.589   6.210   4.883  0.0430 -0.8378  0.2125
  172SAPE   C2119379   5.669   6.117   4.847  0.2705  0.3200  0.6890
  172SAPE   O2219380   5.751   6.132   4.756  0.2497  0.4706 -0.1132
  172SAPE   C2219381   5.638   5.993   4.929  0.3974 -0.2318 -0.6515
  172SAPE   H2R19382   5.711   5.985   5.012 -0.8873 -0.6507  0.4792
  172SAPE   H2S19383   5.542   6.010   4.982 -0.4652 -1.2361 -1.8622
  172SAPE    C319384   5.488   6.431   4.834 -0.1920 -0.2253 -0.7280
  172SAPE    HX19385   5.388   6.383   4.844 -1.0234  1.6018  0.2195
  172SAPE    HY19386   5.485   6.507   4.754  1.0783  1.1399  0.4653
  172SAPE   O3119387   5.547   6.481   4.954 -0.6483  0.7357 -1.1084
  172SAPE   C3119388   5.460   6.546   5.039 -0.2169  0.0196  0.5203
  172SAPE   O3219389   5.344   6.562   5.011 -0.2405 -0.1871  0.3281
  172SAPE   C3219390   5.525   6.589   5.168  0.1553 -0.5504  0.2605
  172SAPE   H2X19391   5.616   6.647   5.143 -0.4122  0.9104  1.3575
  172SAPE   H2Y19392   5.548   6.499   5.229  1.5437  0.3880  1.1952
  172SAPE   C2319393   5.638   5.865   4.842  0.6519 -0.5644 -0.1407
  172SAPE   H3R19394   5.736   5.832   4.801  0.2185 -1.0612 -0.7985
  172SAPE   H3S19395   5.580   5.889   4.750  0.7081  1.4140  0.2853
  172SAPE   C2419396   5.569   5.748   4.913  0.1876 -0.3087  0.7482
  172SAPE   H4R19397   5.633   5.719   4.999 -0.2377 -1.3172  0.7419
  172SAPE   H4S19398   5.567   5.652   4.856 -1.2771 -0.3940  0.9055
  172SAPE   C2519399   5.426   5.775   4.938 -0.2075  0.5505  0.7070
  172SAPE   H5R19400   5.375   5.842   4.866 -2.5186 -1.3248  0.4939
  172SAPE   C2619401   5.354   5.743   5.051  0.5737 -0.2237  0.2401
  172SAPE   H6R19402   5.246   5.759   5.043  0.6386  0.0136 -0.1826
  172SAPE   C2719403   5.402   5.647   5.154  0.0748 -0.1709  0.1051
  172SAPE   H7R19404   5.457   5.562   5.107 -1.5822 -2.3319  1.8591
  172SAPE   H7S19405   5.312   5.611   5.208  0.5252  0.7180  1.5081
  172SAPE   C2819406   5.489   5.725   5.251 -0.0667  0.7730  0.2974
  172SAPE   H8R19407   5.539   5.818   5.220  0.8791  0.1984  0.0563
  172SAPE   C2919408   5.502   5.686   5.377 -0.1205 -0.6168  0.0768
  172SAPE   H9R19409   5.552   5.762   5.439 -0.7081  0.2496 -0.4816
  172SAPE  C21019410   5.439   5.568   5.451  0.2470  0.4492 -0.4118
  172SAPE  H10R19411   5.441   5.473   5.394  0.8398  0.5336 -0.5399
  172SAPE  H10S19412   5.334   5.595   5.473  0.2390 -0.1448  0.3255
  172SAPE  C21119413   5.511   5.515   5.578  0.4829  0.0341  0.3892
  172SAPE  H11R19414   5.571   5.426   5.554 -0.8069 -0.5253 -0.9322
  172SAPE  C21219415   5.491   5.535   5.706 -0.1676 -0.2792  0.1271
  172SAPE  H12R19416   5.554   5.476   5.775  1.0961  0.6207 -0.2147
  172SAPE  C21319417   5.400   5.633   5.771  0.0249  0.0369 -0.1691
  172SAPE  H13R19418   5.326   5.582   5.836  1.0284 -0.2515  0.7772
  172SAPE  H13S19419   5.348   5.690   5.692 -0.3058 -0.9831 -0.7013
  172SAPE  C21419420   5.474   5.733   5.851  0.0757 -0.8957  0.7799
  172SAPE  H14R19421   5.551   5.791   5.799  1.0082 -1.7828  1.1507
  172SAPE  C21519422   5.442   5.779   5.969 -0.2247 -0.2436 -0.7299
  172SAPE  H15R19423   5.516   5.844   6.018  0.1023 -0.2835 -1.1761
  172SAPE  C21619424   5.334   5.731   6.064  0.1897  0.4223 -0.7547
  172SAPE  H16R19425   5.299   5.628   6.040  0.2222 -0.2395  1.7321
  172SAPE  H16S19426   5.253   5.807   6.054  1.2260  2.3371  3.3788
  172SAPE  C21719427   5.378   5.721   6.212 -1.1670  0.0106 -0.2588
  172SAPE  H17R19428   5.470   5.660   6.213 -0.4323  1.0453  1.6814
  172SAPE  H17S19429   5.299   5.668   6.270 -1.6495  0.8027 -0.1617
  172SAPE  C21819430   5.401   5.855   6.286  0.2995  0.3454  0.1337
  172SAPE  H18R19431   5.318   5.923   6.256 -0.2880 -0.4691 -0.1127
  172SAPE  H18S19432   5.495   5.895   6.243 -0.3127  0.7441 -0.8876
  172SAPE  C21919433   5.422   5.834   6.436 -0.0044  0.6898  0.4105
  172SAPE  H19R19434   5.334   5.790   6.487 -1.1874  1.6080 -0.7614
  172SAPE  H19S19435   5.439   5.936   6.476 -2.2453  1.6216 -0.8265
  172SAPE  C22019436   5.543   5.750   6.493  0.5963  0.0017 -0.0681
  172SAPE  H20R19437   5.536   5.643   6.464 -0.5513  0.1137 -0.2759
  172SAPE  H20S19438   5.570   5.770   6.599 -0.5103  1.0109  0.0501
  172SAPE  H20T19439   5.637   5.782   6.443  2.2524 -2.5559  1.2021
  172SAPE   C3319440   5.443   6.688   5.251  0.4359  0.0536 -0.3480
  172SAPE   H3X19441   5.499   6.704   5.346  0.4781  0.1901 -0.3971
  172SAPE   H3Y19442   5.337   6.665   5.276  0.2978  2.7443  2.0765
  172SAPE   C3419443   5.451   6.824   5.187  0.3140  0.1161  0.2879
  172SAPE   H4X19444   5.420   6.816   5.080 -0.4659 -0.1945  0.5282
  172SAPE   H4Y19445   5.550   6.875   5.189  0.3387  0.1406 -0.8305
  172SAPE   C3519446   5.340   6.913   5.250  0.3127  0.4415  0.0906
  172SAPE   H5X19447   5.389   6.973   5.329 -1.6468  0.2110  1.5594
  172SAPE   H5Y19448   5.256   6.857   5.297 -0.6074  1.1861 -0.6236
  172SAPE   C3619449   5.270   7.012   5.155  0.4748 -0.6886  0.3895
  172SAPE   H6X19450   5.226   6.959   5.067  2.2331 -1.3966 -0.1043
  172SAPE   H6Y19451   5.350   7.075   5.111 -0.6975  1.1709  0.7910
  172SAPE   C3719452   5.159   7.103   5.218 -0.3324  0.1208  0.5904
  172SAPE   H7X19453   5.080   7.030   5.245 -1.9273  0.2481 -3.1760
  172SAPE   H7Y19454   5.113   7.151   5.129  0.8520 -3.2668 -2.0612
  172SAPE   C3819455   5.208   7.194   5.327  0.1759 -0.1135 -0.7020
  172SAPE   H8X19456   5.232   7.296   5.291  1.1382 -0.0458  0.0939
  172SAPE   H8Y19457   5.300   7.158   5.378 -0.9037 -0.4002  1.1495
  172SAPE   C3919458   5.092   7.219   5.428  0.4243  0.6319  0.4035
  172SAPE   H9X19459   4.999   7.232   5.369  0.5911 -1.0782 -0.2920
  172SAPE   H9Y19460   5.136   7.304   5.484 -0.1874  1.2128  0.0155
  172SAPE  C31019461   5.066   7.100   5.526  0.0601 -0.6137 -0.2354
  172SAPE  H10X19462   5.014   7.022   5.466  1.5300 -0.6367 -1.5669
  172SAPE  H10Y19463   4.988   7.133   5.597 -0.2381  0.2510 -0.9510
  172SAPE  C31119464   5.190   7.049   5.596 -0.2080  0.4515 -0.2760
  172SAPE  H11X19465   5.236   7.139   5.642  0.3126  1.2531 -2.2741
  172SAPE  H11Y19466   5.266   7.003   5.530 -0.8392  0.2589 -0.8848
  172SAPE  C31219467   5.163   6.930   5.691  0.6190 -0.0311  0.1031
  172SAPE  H12X19468   5.260   6.880   5.713  0.6887 -1.4691 -2.9036
  172SAPE  H12Y19469   5.092   6.864   5.638  0.8519  0.2550 -0.5724
  172SAPE  C31319470   5.102   6.969   5.824 -0.6036  0.3427  0.0403
  172SAPE  H13X19471   5.024   7.044   5.800 -1.5227 -0.6489 -0.1474
  172SAPE  H13Y19472   5.178   7.007   5.896  0.2215  0.3559 -0.8078
  172SAPE  C31419473   5.025   6.855   5.894 -0.7519 -0.4257  0.9993
  172SAPE  H14X19474   5.100   6.773   5.903 -2.6740 -2.2840  0.7406
  172SAPE  H14Y19475   4.948   6.820   5.822  1.0380  1.7266 -2.1905
  172SAPE  C31519476   4.979   6.889   6.035  0.5325  0.3603  0.2600
  172SAPE  H15X19477   4.922   6.981   6.010 -0.8791 -0.9168 -1.4228
  172SAPE  H15Y19478   5.060   6.923   6.104 -0.6276  0.7707  1.4621
  172SAPE  C31619479   4.901   6.773   6.097  0.4423 -0.2896 -0.0589
  172SAPE  H16X19480   4.963   6.687   6.131  0.8055  0.0796  0.2277
  172SAPE  H16Y19481   4.833   6.743   6.014  0.3791 -1.7789  0.4962
  172SAPE  C31719482   4.819   6.822   6.218 -0.1889  0.7168 -0.0662
  172SAPE  H17X19483   4.736   6.751   6.235  1.1570 -1.2257 -1.1862
  172SAPE  H17Y19484   4.767   6.917   6.194  0.1696  1.2069  1.0308
  172SAPE  C31819485   4.894   6.831   6.354  0.1167  0.1213  1.0061
  172SAPE  H18X19486   4.827   6.870   6.433 -1.0797  1.1116 -0.4390
  172SAPE  H18Y19487   4.981   6.898   6.339  2.0293 -2.3115  0.4616
  172SAPE  H18Z19488   4.939   6.731   6.373 -0.3479 -0.1667  0.5989
  173SLPC     N19489   0.828   6.146   0.228 -0.0744  0.6463  0.2028
  173SLPC   C1319490   0.703   6.218   0.177 -0.2704  0.6999  0.2862
  173SLPC  H13A19491   0.672   6.181   0.081 -0.5422 -0.2443  0.7150
  173SLPC  H13B19492   0.619   6.192   0.240  0.3702  0.1878  0.9600
  173SLPC  H13C19493   0.720   6.324   0.174  0.9221  0.5392  0.6691
  173SLPC   C1419494   0.941   6.225   0.175  1.0417  0.3315 -0.5688
  173SLPC  H14A19495   0.953   6.323   0.220  1.6024 -0.2935  0.7069
  173SLPC  H14B19496   1.033   6.173   0.198 -0.3600 -2.0469  0.0193
  173SLPC  H14C19497   0.937   6.246   0.070  0.8133  1.1284 -0.4074
  173SLPC   C1519498   0.830   6.011   0.165 -0.3831  0.0861  0.3531
  173SLPC  H15A19499   0.911   5.951   0.206 -0.3016  0.3717  0.6102
  173SLPC  H15B19500   0.735   5.961   0.176 -1.0708  0.6813 -2.3355
  173SLPC  H15C19501   0.840   6.024   0.059 -1.0949 -0.4111  0.2150
  173SLPC   C1219502   0.827   6.135   0.386 -0.6450 -0.5073  0.1402
  173SLPC  H12A19503   0.725   6.110   0.412 -1.1867  1.3373 -0.0600
  173SLPC  H12B19504   0.847   6.236   0.420  1.6226 -0.9183  0.1578
  173SLPC   C1119505   0.940   6.059   0.463 -0.3938 -0.7181 -0.4326
  173SLPC  H11A19506   0.922   5.951   0.447  0.9080 -1.3149  1.7846
  173SLPC  H11B19507   0.930   6.073   0.573 -0.9780 -2.1860 -0.2850
  173SLPC     P19508   1.181   5.993   0.363 -0.1526  0.0493  0.2029
  173SLPC   O1319509   1.288   6.081   0.314  0.0284 -0.1404  0.3367
  173SLPC   O1419510   1.215   5.899   0.475 -0.4979  0.3746  0.8802
  173SLPC   O1219511   1.073   6.092   0.425 -0.1593  0.2878  0.1114
  173SLPC   O1119512   1.107   5.915   0.239 -0.1586 -0.1492  0.3151
  173SLPC    C119513   1.147   5.773   0.230  0.1605 -0.4492  0.1070
  173SLPC    HA19514   1.255   5.750   0.220  0.0736 -0.6619 -0.3684
  173SLPC    HB19515   1.106   5.724   0.321 -1.8330 -0.6617 -0.8519
  173SLPC    C219516   1.071   5.717   0.108 -0.7620  0.5822  0.4141
  173SLPC    HS19517   1.141   5.646   0.059 -0.1860  0.5302  1.2926
  173SLPC   O2119518   1.015   5.814   0.015 -0.5406  0.3750 -0.5070
  173SLPC   C2119519   1.111   5.857  -0.070  0.4949 -0.1777  0.4724
  173SLPC   O2219520   1.222   5.811  -0.082  0.9176 -0.0718  0.4805
  173SLPC   C2219521   1.068   5.974  -0.150 -0.1782 -0.2013 -0.6105
  173SLPC   H2R19522   0.957   5.969  -0.162 -0.3612 -0.8564  1.0460
  173SLPC   H2S19523   1.083   6.072  -0.102 -1.1691  0.6211 -1.8880
  173SLPC    C319524   0.945   5.629   0.149 -0.6195  0.4138 -0.0680
  173SLPC    HX19525   0.862   5.694   0.183 -2.4624 -0.5084 -2.5185
  173SLPC    HY19526   0.969   5.571   0.241 -2.1863  2.0356  1.4456
  173SLPC   O3119527   0.908   5.543   0.040  0.3665  0.4190 -0.2598
  173SLPC   C3119528   0.989   5.443   0.015 -0.4867  0.1520  0.4585
  173SLPC   O3219529   1.087   5.413   0.081  0.1257  0.2709 -0.2352
  173SLPC   C3219530   0.946   5.373  -0.122 -0.3329 -0.1198  0.5016
  173SLPC   H2X19531   0.875   5.291  -0.098 -0.9476 -0.0631 -1.0018
  173SLPC   H2Y19532   1.031   5.326  -0.174  0.7202  1.4018  0.7912
  173SLPC   C2319533   1.146   5.979  -0.284 -0.1861 -0.1250  0.4342
  173SLPC   H3R19534   1.255   5.962  -0.278  0.2352  0.7286 -2.8196
  173SLPC   H3S19535   1.142   6.082  -0.323  0.1766  0.3580  1.6270
  173SLPC   C2419536   1.096   5.893  -0.393  0.1871  0.2785 -0.5256
  173SLPC   H4R19537   0.988   5.914  -0.405  0.0583  1.0724  1.7031
  173SLPC   H4S19538   1.106   5.784  -0.371 -1.0665  0.1398 -0.5488
  173SLPC   C2519539   1.166   5.914  -0.529 -0.1481 -0.5237 -0.5735
  173SLPC   H5R19540   1.261   5.858  -0.528  0.0691 -0.2191 -2.1711
  173SLPC   H5S19541   1.185   6.023  -0.541  2.9932 -0.6626  1.8933
  173SLPC   C2619542   1.076   5.878  -0.643  0.2828 -0.6305 -0.3380
  173SLPC   H6R19543   0.996   5.954  -0.654  1.1533  0.1850 -1.2991
  173SLPC   H6S19544   1.027   5.780  -0.628  0.3026 -0.7987 -1.2826
  173SLPC   C2719545   1.152   5.863  -0.777  0.0020  0.0270 -0.0035
  173SLPC   H7R19546   1.253   5.818  -0.776 -1.0890 -2.6346 -1.1034
  173SLPC   H7S19547   1.166   5.962  -0.826  1.0974 -0.8326 -1.5098
  173SLPC   C2819548   1.082   5.771  -0.871  0.1775 -0.1262  0.4479
  173SLPC   H8R19549   0.981   5.814  -0.888  1.0769  2.0818  0.3530
  173SLPC   H8S19550   1.083   5.667  -0.831 -0.0306 -0.0697  0.6057
  173SLPC   C2919551   1.162   5.765  -1.002 -0.0722 -0.3649 -0.1717
  173SLPC   H9R19552   1.237   5.685  -1.006  1.2149  0.6096  2.2391
  173SLPC  C21019553   1.142   5.841  -1.116  0.0350 -0.2474 -0.2432
  173SLPC  H10R19554   1.201   5.833  -1.208 -0.2481  0.9843 -0.5491
  173SLPC  C21119555   1.041   5.949  -1.132  0.5916 -0.3395 -0.9109
  173SLPC  H11R19556   1.026   5.995  -1.032  1.3503  1.2088 -1.4825
  173SLPC  H11S19557   0.941   5.910  -1.161 -0.6866  0.8742  1.5554
  173SLPC  C21219558   1.084   6.049  -1.235 -0.4597  0.1292 -1.0207
  173SLPC  H12R19559   1.154   6.125  -1.198 -1.4708  0.6907 -0.2234
  173SLPC  C21319560   1.030   6.071  -1.356  0.1901 -0.0703 -0.3927
  173SLPC  H13R19561   1.068   6.162  -1.404 -1.1644 -0.2113 -1.7861
  173SLPC  C21419562   0.919   5.995  -1.419  0.0854 -0.4700 -0.1169
  173SLPC  H14R19563   0.890   5.909  -1.355 -1.6152  0.1416  0.0001
  173SLPC  H14S19564   0.966   5.960  -1.514  2.7143  1.3176  0.4335
  173SLPC  C21519565   0.792   6.081  -1.437 -0.3475  0.5668 -0.5927
  173SLPC  H15R19566   0.711   6.012  -1.470 -1.7364  2.5129 -1.4850
  173SLPC  H15S19567   0.814   6.169  -1.502  1.1729  0.6010 -0.0687
  173SLPC  C21619568   0.746   6.135  -1.302  0.7982  0.6488 -0.0577
  173SLPC  H16R19569   0.800   6.227  -1.269 -0.9745  1.4456  0.7584
  173SLPC  H16S19570   0.738   6.055  -1.225 -0.9403  1.6716  0.9040
  173SLPC  C21719571   0.601   6.181  -1.301  0.8021 -0.0411 -0.9381
  173SLPC  H17R19572   0.538   6.090  -1.297 -0.0683  0.5763  3.2328
  173SLPC  H17S19573   0.593   6.231  -1.400  0.8872 -2.8651 -2.4629
  173SLPC  C21819574   0.568   6.277  -1.177 -0.1265  0.4927  0.5921
  173SLPC  H18R19575   0.646   6.355  -1.188 -1.7100  1.8796 -1.2780
  173SLPC  H18S19576   0.564   6.242  -1.071  2.1609 -0.0499  0.5474
  173SLPC  H18T19577   0.479   6.338  -1.201 -0.4452  0.2534  1.1301
  173SLPC   C3319578   0.857   5.457  -0.214 -0.1938  0.1978 -0.1774
  173SLPC   H3X19579   0.778   5.516  -0.164  0.0038  1.1277 -0.9305
  173SLPC   H3Y19580   0.802   5.394  -0.287 -1.2784  0.9195 -0.0075
  173SLPC   C3419581   0.934   5.555  -0.295  0.8294 -0.0999  0.1941
  173SLPC   H4X19582   1.019   5.507  -0.348  1.2411 -0.3683  1.0736
  173SLPC   H4Y19583   0.989   5.621  -0.225  4.5033 -1.0950 -1.4732
  173SLPC   C3519584   0.851   5.632  -0.404  0.0289  0.1757 -0.7511
  173SLPC   H5X19585   0.909   5.712  -0.454 -0.4431  0.6524 -0.5460
  173SLPC   H5Y19586   0.783   5.702  -0.351 -0.4039  1.6730 -3.1502
  173SLPC   C3619587   0.776   5.548  -0.507 -0.6403  0.4988  0.2598
  173SLPC   H6X19588   0.723   5.620  -0.573 -2.3229  0.1804  1.2023
  173SLPC   H6Y19589   0.693   5.491  -0.460 -1.0431  0.6106 -0.2998
  173SLPC   C3719590   0.861   5.449  -0.592  0.1038  0.1371 -0.2101
  173SLPC   H7X19591   0.902   5.373  -0.521  0.8178  1.6233  1.0316
  173SLPC   H7Y19592   0.948   5.511  -0.624  0.4402 -1.0825 -1.7787
  173SLPC   C3819593   0.794   5.368  -0.710 -0.2811 -0.2385  0.4359
  173SLPC   H8X19594   0.686   5.356  -0.690 -0.8710 -2.2321 -3.1870
  173SLPC   H8Y19595   0.839   5.267  -0.701 -1.8892 -0.8855  1.4914
  173SLPC   C3919596   0.827   5.429  -0.837 -0.3667 -1.1781 -0.2831
  173SLPC   H9X19597   0.938   5.435  -0.843 -0.1738 -2.2329  1.6362
  173SLPC   H9Y19598   0.779   5.529  -0.838 -1.2838 -1.5994  0.7136
  173SLPC  C31019599   0.786   5.351  -0.967 -1.0857  0.0726  0.2398
  173SLPC  H10X19600   0.680   5.354  -0.998 -1.0568 -1.8855 -0.1909
  173SLPC  H10Y19601   0.804   5.244  -0.945 -1.7698 -0.0206  0.3637
  173SLPC  C31119602   0.859   5.396  -1.097  0.9896 -0.8069  0.5302
  173SLPC  H11X19603   0.845   5.323  -1.179  0.0437 -2.1702  1.8680
  173SLPC  H11Y19604   0.967   5.401  -1.069  0.3548  1.8573  3.0325
  173SLPC  C31219605   0.809   5.535  -1.146  0.0242  0.0335  0.4763
  173SLPC  H12X19606   0.801   5.599  -1.055  0.1746 -0.4499  0.8403
  173SLPC  H12Y19607   0.703   5.534  -1.179 -0.3775  1.3179  1.6359
  173SLPC  C31319608   0.893   5.605  -1.258 -0.7732  0.1856 -0.7510
  173SLPC  H13X19609   0.987   5.639  -1.210 -0.6614 -0.9219 -0.1528
  173SLPC  H13Y19610   0.838   5.693  -1.298  0.5962  1.9283  0.9971
  173SLPC  C31419611   0.949   5.516  -1.365  0.0032 -0.0903 -0.0182
  173SLPC  H14X19612   0.869   5.467  -1.425 -1.0396  0.9549  0.4821
  173SLPC  H14Y19613   1.009   5.441  -1.309 -1.2727 -1.4879 -0.4581
  173SLPC  C31519614   1.030   5.585  -1.473 -0.1949 -0.2787  0.6530
  173SLPC  H15X19615   0.980   5.683  -1.492  0.4618 -0.1362 -0.4674
  173SLPC  H15Y19616   1.034   5.530  -1.570 -1.5079  1.1725 -0.2845
  173SLPC  C31619617   1.175   5.612  -1.432 -0.2000  0.6134  0.5575
  173SLPC  H16X19618   1.249   5.529  -1.443 -0.3324  0.4161  1.0878
  173SLPC  H16Y19619   1.175   5.635  -1.323 -1.4966  0.4339  0.6058
  173SLPC  C31719620   1.237   5.742  -1.489  1.5762 -0.2013  0.4987
  173SLPC  H17X19621   1.342   5.746  -1.453  1.4899 -1.4811  0.9351
  173SLPC  H17Y19622   1.191   5.834  -1.448  0.1775  0.7909 -2.9341
  173SLPC  C31819623   1.223   5.757  -1.638 -0.0029 -0.1804  0.2921
  173SLPC  H18X19624   1.302   5.708  -1.699 -0.5183 -0.6653  0.0039
  173SLPC  H18Y19625   1.228   5.867  -1.650  0.4409 -0.4083 -2.0191
  173SLPC  H18Z19626   1.124   5.731  -1.683  0.5479  1.3152 -1.9214
  174SLPC     N19627   5.320   5.403   0.400  0.1378  0.1055  0.4919
  174SLPC   C1319628   5.249   5.273   0.372  0.0490  0.0686  0.1097
  174SLPC  H13A19629   5.304   5.201   0.313 -0.8001 -1.4306  1.0650
  174SLPC  H13B19630   5.231   5.224   0.467  1.3479 -0.3676  0.1526
  174SLPC  H13C19631   5.159   5.298   0.318  1.0705 -0.9848 -2.2076
  174SLPC   C1419632   5.456   5.371   0.444  0.2105  0.5710  0.0532
  174SLPC  H14A19633   5.509   5.313   0.370  0.5579  0.5789  0.2881
  174SLPC  H14B19634   5.516   5.460   0.455 -1.2776  1.7232 -0.9186
  174SLPC  H14C19635   5.459   5.313   0.535 -1.7499  1.4453  0.7310
  174SLPC   C1519636   5.255   5.498   0.492 -0.5558  0.2273 -0.0926
  174SLPC  H15A19637   5.153   5.515   0.461 -0.8539  0.2088  0.8502
  174SLPC  H15B19638   5.245   5.456   0.591  2.5367 -0.4878  0.0264
  174SLPC  H15C19639   5.301   5.596   0.494 -0.5371  0.2146  1.1737
  174SLPC   C1219640   5.334   5.475   0.269  0.4790 -0.1696  0.0804
  174SLPC  H12A19641   5.390   5.415   0.199 -2.4076 -2.6217 -0.3338
  174SLPC  H12B19642   5.389   5.564   0.297  0.7729 -0.2671 -0.1861
  174SLPC   C1119643   5.204   5.503   0.188  0.3760 -0.8319  0.7390
  174SLPC  H11A19644   5.154   5.407   0.165 -1.9795  0.2650  1.0730
  174SLPC  H11B19645   5.233   5.559   0.096  1.2386  0.9619  2.0421
  174SLPC     P19646   4.956   5.584   0.239  0.0142  0.3052  0.0785
  174SLPC   O1319647   4.894   5.461   0.301 -0.5488 -0.0973  0.1442
  174SLPC   O1419648   4.906   5.712   0.293  0.2726  0.0090  0.1494
  174SLPC   O1219649   5.114   5.581   0.262  0.2839  0.0253  0.4179
  174SLPC   O1119650   4.933   5.569   0.086  0.1052  0.1614 -0.2004
  174SLPC    C119651   4.881   5.647  -0.016  0.1329 -0.1627 -0.9982
  174SLPC    HA19652   4.776   5.673   0.009 -0.0052 -2.1490  0.7243
  174SLPC    HB19653   4.948   5.734  -0.034  0.7220 -0.8794 -2.4454
  174SLPC    C219654   4.871   5.563  -0.144 -0.1988  0.5209 -0.2549
  174SLPC    HS19655   4.825   5.463  -0.126  3.6176 -1.4905 -0.4362
  174SLPC   O2119656   5.009   5.549  -0.188  0.0258  0.5926  0.2891
  174SLPC   C2119657   5.071   5.447  -0.139  0.0440  0.3096  0.4076
  174SLPC   O2219658   5.026   5.361  -0.067 -0.1790 -0.6034 -0.4775
  174SLPC   C2219659   5.211   5.449  -0.197 -0.2162 -0.2958  0.4921
  174SLPC   H2R19660   5.223   5.526  -0.277 -2.2080  1.7076  1.9816
  174SLPC   H2S19661   5.278   5.485  -0.116 -1.7517  1.6868  0.9576
  174SLPC    C319662   4.784   5.637  -0.244 -1.1634  0.1398 -0.4178
  174SLPC    HX19663   4.840   5.727  -0.278  0.9352  1.3041  4.9315
  174SLPC    HY19664   4.692   5.670  -0.191 -0.4062 -0.4404  1.3515
  174SLPC   O3119665   4.748   5.535  -0.341  0.6110  0.1215  0.1109
  174SLPC   C3119666   4.731   5.567  -0.469 -0.1609 -0.0518 -0.1660
  174SLPC   O3219667   4.757   5.678  -0.523 -0.5401  0.2723  0.3737
  174SLPC   C3219668   4.683   5.451  -0.545  0.0784  0.9323  0.1811
  174SLPC   H2X19669   4.572   5.461  -0.555  0.0081 -1.0292 -1.8309
  174SLPC   H2Y19670   4.712   5.350  -0.509  0.0267  0.5151 -0.9073
  174SLPC   C2319671   5.248   5.318  -0.269 -0.4724 -0.4745 -0.6584
  174SLPC   H3R19672   5.241   5.237  -0.193 -1.0283  0.2010  0.0239
  174SLPC   H3S19673   5.355   5.329  -0.298  0.0505 -0.0190  1.2766
  174SLPC   C2419674   5.171   5.289  -0.393 -0.1525  0.2807 -0.0289
  174SLPC   H4R19675   5.200   5.354  -0.478  0.9791  1.1508  0.9782
  174SLPC   H4S19676   5.063   5.302  -0.368 -0.8240 -0.0497 -2.4721
  174SLPC   C2519677   5.184   5.143  -0.429  0.1937 -0.5805  0.6574
  174SLPC   H5R19678   5.162   5.074  -0.345 -0.1780 -0.2546  0.8278
  174SLPC   H5S19679   5.288   5.128  -0.465  0.1127 -2.4726  1.0761
  174SLPC   C2619680   5.096   5.109  -0.551 -0.0636 -0.5253  0.4824
  174SLPC   H6R19681   4.998   5.158  -0.534  0.0239  0.7630 -2.1433
  174SLPC   H6S19682   5.072   5.001  -0.564  0.6283 -0.3249 -3.9484
  174SLPC   C2719683   5.144   5.162  -0.686 -0.2544  0.6202  0.5437
  174SLPC   H7R19684   5.139   5.272  -0.688  0.6104  0.6744  1.0891
  174SLPC   H7S19685   5.074   5.127  -0.765  0.8705 -1.6839  0.4715
  174SLPC   C2819686   5.294   5.129  -0.731 -0.5825 -0.5671 -0.7694
  174SLPC   H8R19687   5.321   5.032  -0.685 -2.3115 -1.7831 -2.1688
  174SLPC   H8S19688   5.355   5.205  -0.678 -1.5703  0.0610 -0.5198
  174SLPC   C2919689   5.321   5.121  -0.879  0.1350  0.3518  0.0418
  174SLPC   H9R19690   5.335   5.020  -0.921 -0.7206  0.9104 -1.6671
  174SLPC  C21019691   5.314   5.221  -0.967 -0.2008  0.5528  0.5753
  174SLPC  H10R19692   5.341   5.200  -1.071 -0.9862  0.4459  0.3885
  174SLPC  C21119693   5.286   5.367  -0.939  0.6231  0.6428 -0.5823
  174SLPC  H11R19694   5.257   5.383  -0.833 -1.2355  3.0152 -1.3754
  174SLPC  H11S19695   5.187   5.402  -0.973 -1.4207 -2.4715  1.6358
  174SLPC  C21219696   5.394   5.457  -0.991 -0.0594  0.3454 -0.6172
  174SLPC  H12R19697   5.466   5.485  -0.912  0.3689  0.3832 -1.0137
  174SLPC  C21319698   5.434   5.486  -1.112  0.9548  0.4347 -0.3247
  174SLPC  H13R19699   5.520   5.553  -1.124 -0.2308  1.9300 -0.7887
  174SLPC  C21419700   5.370   5.442  -1.242  0.1541  0.1896 -0.0533
  174SLPC  H14R19701   5.311   5.524  -1.290 -1.6220 -1.5355 -0.9744
  174SLPC  H14S19702   5.290   5.370  -1.215  2.1825 -1.3381  2.3669
  174SLPC  C21519703   5.467   5.390  -1.350  0.5819 -0.2808  0.2353
  174SLPC  H15R19704   5.560   5.451  -1.351  0.5973 -0.2350 -2.1278
  174SLPC  H15S19705   5.410   5.414  -1.443 -0.7169  0.8261  1.2753
  174SLPC  C21619706   5.505   5.242  -1.346  0.1701 -0.0735 -0.0262
  174SLPC  H16R19707   5.551   5.228  -1.246 -2.7160 -1.9341  1.1775
  174SLPC  H16S19708   5.579   5.223  -1.427  0.2193 -0.1211  0.0303
  174SLPC  C21719709   5.390   5.146  -1.382  1.0519 -0.3984 -0.1692
  174SLPC  H17R19710   5.349   5.179  -1.479  2.2091 -0.8609 -0.8357
  174SLPC  H17S19711   5.318   5.163  -1.299 -0.6157 -0.3531 -1.5708
  174SLPC  C21819712   5.421   4.996  -1.386  0.5194  0.1769  0.0709
  174SLPC  H18R19713   5.447   4.965  -1.283  1.9367 -1.1191 -0.6304
  174SLPC  H18S19714   5.507   4.971  -1.452 -0.3756 -1.8921 -0.4157
  174SLPC  H18T19715   5.325   4.949  -1.417 -0.5073  1.4864  1.1574
  174SLPC   C3319716   4.741   5.450  -0.697  0.6097 -0.2910  0.1134
  174SLPC   H3X19717   4.851   5.458  -0.691  0.8648 -3.1231  0.5226
  174SLPC   H3Y19718   4.698   5.544  -0.739 -0.4836  0.2188  2.2510
  174SLPC   C3419719   4.701   5.325  -0.771  0.2844 -0.2959  0.2458
  174SLPC   H4X19720   4.594   5.345  -0.795  0.3953  2.2965  1.5121
  174SLPC   H4Y19721   4.706   5.241  -0.699  0.3177  0.7607  1.5174
  174SLPC   C3519722   4.781   5.294  -0.907  0.0896  0.5497 -0.3333
  174SLPC   H5X19723   4.711   5.223  -0.957 -0.0206 -0.4267  1.1446
  174SLPC   H5Y19724   4.875   5.239  -0.885  0.8948  1.1652 -2.0299
  174SLPC   C3619725   4.810   5.415  -0.992  0.3918 -0.9008 -0.5374
  174SLPC   H6X19726   4.848   5.495  -0.926 -0.6927 -0.1566 -0.7848
  174SLPC   H6Y19727   4.718   5.466  -1.029  0.2356 -0.4431  0.4643
  174SLPC   C3719728   4.914   5.398  -1.103  0.1170 -0.5643  0.2366
  174SLPC   H7X19729   5.009   5.350  -1.069  0.8630  1.0155  0.4453
  174SLPC   H7Y19730   4.938   5.496  -1.149  0.5739 -0.8280 -0.0936
  174SLPC   C3819731   4.852   5.323  -1.226  0.3598 -0.3493 -0.3713
  174SLPC   H8X19732   4.760   5.379  -1.255  0.2193  0.2216  1.0856
  174SLPC   H8Y19733   4.811   5.224  -1.199  0.0746  0.0104  0.5584
  174SLPC   C3919734   4.953   5.321  -1.349 -0.1163 -0.4194  0.3590
  174SLPC   H9X19735   5.045   5.265  -1.322 -0.6691 -0.7964  1.5342
  174SLPC   H9Y19736   4.972   5.430  -1.357 -2.6286  0.3437  2.9325
  174SLPC  C31019737   4.908   5.261  -1.481 -0.8146 -0.2674 -0.4343
  174SLPC  H10X19738   4.885   5.158  -1.446 -3.0268  0.9131  1.8953
  174SLPC  H10Y19739   4.998   5.270  -1.547  0.8700  0.0506  1.7982
  174SLPC  C31119740   4.794   5.340  -1.551  0.2705  0.6160 -1.3304
  174SLPC  H11X19741   4.695   5.309  -1.512 -0.4027  1.9493 -1.9047
  174SLPC  H11Y19742   4.784   5.305  -1.656  0.5716 -1.0855 -0.8235
  174SLPC  C31219743   4.785   5.486  -1.552 -0.1006 -0.4842 -0.3806
  174SLPC  H12X19744   4.871   5.545  -1.592 -0.1890  0.7591  1.1878
  174SLPC  H12Y19745   4.775   5.520  -1.447 -1.2059  1.5841 -1.0950
  174SLPC  C31319746   4.658   5.521  -1.636 -0.7075  0.1291  0.7581
  174SLPC  H13X19747   4.584   5.438  -1.639 -1.7379  1.0002  1.4181
  174SLPC  H13Y19748   4.692   5.532  -1.742 -2.7631  1.9633  0.2083
  174SLPC  C31419749   4.584   5.654  -1.587  0.1768 -0.2815  0.3948
  174SLPC  H14X19750   4.545   5.639  -1.485 -1.2291 -0.3284 -0.1277
  174SLPC  H14Y19751   4.493   5.672  -1.649  0.2337 -0.0831  0.3687
  174SLPC  C31519752   4.672   5.780  -1.580 -0.2940 -0.4637  0.0950
  174SLPC  H15X19753   4.748   5.776  -1.500 -1.8152 -1.4124  1.5648
  174SLPC  H15Y19754   4.605   5.866  -1.556 -0.9492 -1.0688  0.4719
  174SLPC  C31619755   4.728   5.811  -1.717 -0.6536  0.0084 -0.9835
  174SLPC  H16X19756   4.647   5.791  -1.791 -0.4517 -0.3569 -1.1036
  174SLPC  H16Y19757   4.816   5.747  -1.737 -0.9941 -0.2301 -1.7561
  174SLPC  C31719758   4.774   5.954  -1.726 -0.4233  0.0163  0.4662
  174SLPC  H17X19759   4.841   5.971  -1.639  0.6185 -1.5891  0.0237
  174SLPC  H17Y19760   4.681   6.013  -1.720  0.1504  0.9237  0.7128
  174SLPC  C31819761   4.866   5.996  -1.847 -0.0651 -0.2381 -0.7607
  174SLPC  H18X19762   4.814   5.969  -1.942 -0.9477 -0.0797 -0.3329
  174SLPC  H18Y19763   4.963   5.943  -1.848  0.1679  0.1044  1.2347
  174SLPC  H18Z19764   4.902   6.099  -1.830  1.7280 -1.1799  1.6699
  175SLPC     N19765   2.146   3.513   8.250  0.0533  0.3675  0.4075
  175SLPC   C1319766   2.265   3.527   8.336 -0.0088  0.2583  0.9351
  175SLPC  H13A19767   2.315   3.622   8.323  0.8885 -0.2824  0.3044
  175SLPC  H13B19768   2.252   3.517   8.443 -2.4418 -1.2632  0.5714
  175SLPC  H13C19769   2.344   3.457   8.314  1.2059  1.6168  0.8177
  175SLPC   C1419770   2.188   3.523   8.102  0.0206  0.5640  0.8294
  175SLPC  H14A19771   2.100   3.532   8.040  2.3233 -0.6588 -2.8985
  175SLPC  H14B19772   2.238   3.618   8.087 -1.6418  1.0895 -2.2674
  175SLPC  H14C19773   2.240   3.439   8.059 -1.8444  0.3889 -1.2759
  175SLPC   C1519774   2.075   3.644   8.275  0.0617 -0.0052  0.2118
  175SLPC  H15A19775   2.025   3.634   8.371  0.1336  0.2832  0.2781
  175SLPC  H15B19776   2.142   3.728   8.285  2.6170 -2.0033  1.0061
  175SLPC  H15C19777   1.995   3.659   8.204 -0.4145  1.2388  0.9758
  175SLPC   C1219778   2.064   3.396   8.278  0.8401  0.5577 -1.0200
  175SLPC  H12A19779   2.115   3.302   8.263  2.4386  1.4010 -1.0652
  175SLPC  H12B19780   1.980   3.390   8.210  0.4943  0.6301 -0.6044
  175SLPC   C1119781   1.995   3.385   8.422  0.1885 -0.0401 -0.5559
  175SLPC  H11A19782   2.081   3.378   8.492  0.0780  1.4643 -0.2433
  175SLPC  H11B19783   1.935   3.291   8.427  0.0579  0.0876  0.4476
  175SLPC     P19784   1.767   3.501   8.408  0.2919 -0.0956 -0.2916
  175SLPC   O1319785   1.680   3.441   8.514  0.4263  0.1002 -0.1067
  175SLPC   O1419786   1.727   3.638   8.362 -0.2991 -0.2688  0.1881
  175SLPC   O1219787   1.913   3.501   8.452  0.5065 -0.2131  0.1533
  175SLPC   O1119788   1.773   3.406   8.294 -0.0369 -0.1830 -0.5053
  175SLPC    C119789   1.722   3.451   8.163  0.2477  0.0924 -0.8541
  175SLPC    HA19790   1.611   3.456   8.165  0.2083 -0.7894 -0.0872
  175SLPC    HB19791   1.761   3.552   8.139  0.1157  1.1844  2.9066
  175SLPC    C219792   1.776   3.361   8.048  0.5130  1.2756  0.1905
  175SLPC    HS19793   1.886   3.353   8.058  0.4680 -0.5845 -0.4092
  175SLPC   O2119794   1.732   3.409   7.914 -0.5363 -0.2544  0.2083
  175SLPC   C2119795   1.815   3.497   7.861 -0.1481 -0.8651 -0.5338
  175SLPC   O2219796   1.913   3.547   7.910  0.2486 -0.2101  0.6095
  175SLPC   C2219797   1.757   3.536   7.721 -0.2119 -1.0564 -0.9782
  175SLPC   H2R19798   1.650   3.509   7.708 -0.3483 -0.8589 -0.3472
  175SLPC   H2S19799   1.764   3.647   7.727  1.4375 -1.1778  0.4660
  175SLPC    C319800   1.719   3.216   8.073  0.3738  0.2208 -0.0952
  175SLPC    HX19801   1.610   3.235   8.075  0.2375 -0.4492  2.4738
  175SLPC    HY19802   1.737   3.163   8.170  0.0498  0.8473  0.3096
  175SLPC   O3119803   1.748   3.131   7.954 -0.0917  0.1115  0.0189
  175SLPC   C3119804   1.665   3.028   7.931 -0.0099 -0.1989  0.7844
  175SLPC   O3219805   1.570   3.001   8.000 -0.0307 -0.2875 -0.1975
  175SLPC   C3219806   1.716   2.950   7.807 -0.5313 -0.3580  0.3933
  175SLPC   H2X19807   1.816   2.907   7.832  0.9786  0.8240 -2.9500
  175SLPC   H2Y19808   1.732   3.030   7.731 -1.2805 -1.0640 -0.5446
  175SLPC   C2319809   1.846   3.500   7.601  0.2906 -0.1773 -1.4848
  175SLPC   H3R19810   1.868   3.391   7.607 -0.3494 -0.2538 -0.2767
  175SLPC   H3S19811   1.949   3.542   7.603  0.5015 -0.6576  0.7293
  175SLPC   C2419812   1.766   3.529   7.469  0.2004  0.4622 -0.9978
  175SLPC   H4R19813   1.723   3.631   7.474 -2.9434 -0.7284 -1.4823
  175SLPC   H4S19814   1.683   3.456   7.461 -0.4593  0.7573  1.8598
  175SLPC   C2519815   1.863   3.508   7.349 -0.0199 -0.4748  0.7757
  175SLPC   H5R19816   1.901   3.405   7.361 -1.1957 -0.9127  0.8068
  175SLPC   H5S19817   1.947   3.580   7.365 -1.1055  0.2863  3.8094
  175SLPC   C2619818   1.806   3.524   7.210 -0.0186  0.4116 -0.7437
  175SLPC   H6R19819   1.766   3.626   7.191  1.3663  0.9284 -0.9779
  175SLPC   H6S19820   1.721   3.453   7.198 -0.4065  0.7692 -0.1633
  175SLPC   C2719821   1.906   3.496   7.100 -0.3417 -0.0083  0.8616
  175SLPC   H7R19822   1.957   3.403   7.133 -1.4752 -0.0856  2.5406
  175SLPC   H7S19823   1.986   3.572   7.098 -2.6582  2.5860 -0.4912
  175SLPC   C2819824   1.833   3.469   6.968  0.1573  0.3586  0.7611
  175SLPC   H8R19825   1.751   3.395   6.981 -0.6991  1.2401  0.5454
  175SLPC   H8S19826   1.908   3.433   6.895  0.6396  2.0895  0.3663
  175SLPC   C2919827   1.776   3.600   6.913 -0.4543  0.8675  0.8158
  175SLPC   H9R19828   1.811   3.691   6.964  1.6112 -0.0468  1.1313
  175SLPC  C21019829   1.685   3.604   6.812 -0.2277 -0.0435 -1.2039
  175SLPC  H10R19830   1.643   3.700   6.781 -3.1072 -0.8110 -0.0312
  175SLPC  C21119831   1.632   3.493   6.726 -0.3412 -0.3042  0.9993
  175SLPC  H11R19832   1.690   3.399   6.746 -0.8284 -0.5825  1.1142
  175SLPC  H11S19833   1.647   3.512   6.618 -0.5663 -1.1967  0.7987
  175SLPC  C21219834   1.493   3.462   6.749  0.1826 -0.7191 -0.2171
  175SLPC  H12R19835   1.480   3.386   6.827  1.5484  0.3212  1.0768
  175SLPC  C21319836   1.389   3.499   6.682  0.7829 -0.4915  1.0888
  175SLPC  H13R19837   1.287   3.473   6.713 -0.1163 -0.7193 -1.7424
  175SLPC  C21419838   1.376   3.598   6.571  0.4711  0.0412  0.5181
  175SLPC  H14R19839   1.458   3.672   6.571 -1.9475  3.0145  2.7935
  175SLPC  H14S19840   1.285   3.662   6.583 -0.2709 -0.8153 -0.3461
  175SLPC  C21519841   1.361   3.538   6.426 -0.2403  0.0898 -0.2429
  175SLPC  H15R19842   1.257   3.499   6.420  0.0159 -0.9091  1.1684
  175SLPC  H15S19843   1.442   3.464   6.407  1.7154  2.1279 -0.1688
  175SLPC  C21619844   1.357   3.649   6.314 -0.0407 -0.1772  0.5154
  175SLPC  H16R19845   1.460   3.689   6.309  0.3824 -1.3611 -1.1463
  175SLPC  H16S19846   1.285   3.727   6.346  0.8099  0.6676  0.3955
  175SLPC  C21719847   1.302   3.593   6.180 -0.2163 -0.1283  0.4224
  175SLPC  H17R19848   1.191   3.590   6.185 -0.2902  1.7070  0.6754
  175SLPC  H17S19849   1.334   3.490   6.152 -1.1730 -0.1933 -0.5040
  175SLPC  C21819850   1.354   3.673   6.060 -0.7033  0.0726 -0.2476
  175SLPC  H18R19851   1.295   3.658   5.967 -0.2614 -0.0028 -0.5192
  175SLPC  H18S19852   1.458   3.635   6.046 -2.1789 -3.5691 -3.0328
  175SLPC  H18T19853   1.357   3.781   6.085  1.6576  0.3781 -1.5275
  175SLPC   C3319854   1.622   2.835   7.763 -0.6371 -0.0959  0.3094
  175SLPC   H3X19855   1.516   2.866   7.775 -0.8541 -1.2858  1.7997
  175SLPC   H3Y19856   1.641   2.751   7.833  1.1028  1.8527  2.3320
  175SLPC   C3419857   1.653   2.797   7.618 -0.6625 -0.0862  0.1743
  175SLPC   H4X19858   1.684   2.885   7.558 -2.0653  0.1085 -0.2876
  175SLPC   H4Y19859   1.562   2.746   7.579  0.0861 -1.4877  0.1930
  175SLPC   C3519860   1.759   2.692   7.611 -0.2660 -0.6104 -0.6683
  175SLPC   H5X19861   1.727   2.596   7.657 -2.3841  0.3545 -0.0479
  175SLPC   H5Y19862   1.853   2.729   7.657  0.2551 -2.5961 -0.0142
  175SLPC   C3619863   1.805   2.664   7.464  0.6175  0.1360  0.1343
  175SLPC   H6X19864   1.882   2.584   7.477 -0.7494 -1.3416 -0.4951
  175SLPC   H6Y19865   1.854   2.754   7.423  0.8665  0.0314  0.1967
  175SLPC   C3719866   1.693   2.601   7.375 -0.5331  0.6725 -0.8301
  175SLPC   H7X19867   1.609   2.672   7.356  0.0064  1.3793 -0.6550
  175SLPC   H7Y19868   1.649   2.512   7.423 -0.4356  0.3273 -1.3703
  175SLPC   C3819869   1.746   2.559   7.234  0.6698 -0.3511  0.2108
  175SLPC   H8X19870   1.840   2.501   7.239  0.1269 -1.1711  1.0365
  175SLPC   H8Y19871   1.766   2.657   7.184  2.9061  0.7191  2.9376
  175SLPC   C3919872   1.636   2.483   7.149 -0.0479  0.4579  0.4903
  175SLPC   H9X19873   1.545   2.545   7.139 -2.8054 -3.1995  0.7659
  175SLPC   H9Y19874   1.608   2.398   7.216  0.9987 -0.6119 -0.3787
  175SLPC  C31019875   1.690   2.426   7.017  0.2008  0.3218 -0.1024
  175SLPC  H10X19876   1.617   2.356   6.970  1.5131  0.0144 -1.7654
  175SLPC  H10Y19877   1.781   2.364   7.027  0.8618  0.8845 -2.1552
  175SLPC  C31119878   1.716   2.536   6.908  0.0522 -0.7080 -0.3293
  175SLPC  H11X19879   1.798   2.606   6.936 -0.5665 -1.2637  3.4917
  175SLPC  H11Y19880   1.620   2.592   6.905 -0.3017 -1.3604 -1.9386
  175SLPC  C31219881   1.758   2.459   6.775  0.1808 -0.4456  0.4407
  175SLPC  H12X19882   1.689   2.376   6.752  2.6530 -2.2341 -1.0390
  175SLPC  H12Y19883   1.855   2.406   6.783  0.2916 -0.4571 -0.7925
  175SLPC  C31319884   1.766   2.563   6.667  0.0137 -0.0321 -0.0376
  175SLPC  H13X19885   1.866   2.612   6.661  0.0391 -0.2211 -3.6424
  175SLPC  H13Y19886   1.706   2.652   6.694  1.8073  1.2511 -0.0663
  175SLPC  C31419887   1.721   2.516   6.529 -0.3142 -0.2439 -0.6591
  175SLPC  H14X19888   1.618   2.474   6.525  0.4228 -2.0664 -1.5603
  175SLPC  H14Y19889   1.794   2.436   6.506  2.5407  1.9596  0.1487
  175SLPC  C31519890   1.749   2.621   6.425  0.2692  0.2341  0.2108
  175SLPC  H15X19891   1.855   2.652   6.439  0.4336 -0.3261  0.2308
  175SLPC  H15Y19892   1.686   2.707   6.457 -1.0241  0.0651 -1.7160
  175SLPC  C31619893   1.718   2.578   6.285 -0.4058  0.6417 -0.1742
  175SLPC  H16X19894   1.612   2.547   6.287 -0.3789  0.3276 -2.0764
  175SLPC  H16Y19895   1.784   2.499   6.243  0.1022  1.0679 -0.1870
  175SLPC  C31719896   1.721   2.702   6.193 -0.5556 -0.1152 -0.6423
  175SLPC  H17X19897   1.819   2.753   6.196 -1.6545  2.0970 -0.3489
  175SLPC  H17Y19898   1.654   2.781   6.233  1.0797 -0.3907  2.9793
  175SLPC  C31819899   1.680   2.656   6.050  0.8901  0.1295 -0.2138
  175SLPC  H18X19900   1.753   2.585   6.006  0.5220 -0.2321 -0.2529
  175SLPC  H18Y19901   1.665   2.746   5.987  0.7659  0.2084 -0.0722
  175SLPC  H18Z19902   1.583   2.602   6.059  0.5365  0.5805 -1.2200
  176SLPC     N19903   1.826   2.658   0.339  0.0622  0.0835 -0.8607
  176SLPC   C1319904   1.867   2.531   0.403  0.9198  0.4212  0.0356
  176SLPC  H13A19905   1.780   2.477   0.437  1.2242 -0.7397 -0.9549
  176SLPC  H13B19906   1.908   2.463   0.330  1.5987  0.4707  0.3619
  176SLPC  H13C19907   1.935   2.550   0.484  0.0406 -0.5911  1.0455
  176SLPC   C1419908   1.953   2.732   0.309  0.0928  0.3110 -0.4275
  176SLPC  H14A19909   2.009   2.755   0.398 -1.4223  0.9889  0.3782
  176SLPC  H14B19910   2.023   2.671   0.253 -0.0088  2.1105 -2.6435
  176SLPC  H14C19911   1.941   2.818   0.246 -1.2143  1.9056  1.8593
  176SLPC   C1519912   1.748   2.735   0.443  0.1258  0.6619 -0.4673
  176SLPC  H15A19913   1.808   2.739   0.533  1.7154 -1.8367 -1.2950
  176SLPC  H15B19914   1.724   2.833   0.404 -0.0048  1.6513  1.9497
  176SLPC  H15C19915   1.665   2.671   0.470  1.8815 -1.3886  0.4170
  176SLPC   C1219916   1.754   2.627   0.211 -0.1909 -0.8002  0.3720
  176SLPC  H12A19917   1.717   2.724   0.182  0.1745  0.4039  3.4771
  176SLPC  H12B19918   1.661   2.573   0.223 -0.9591  0.4658  0.3404
  176SLPC   C1119919   1.846   2.574   0.092  0.0223 -0.3041  0.5532
  176SLPC  H11A19920   1.902   2.660   0.050  0.1478 -1.2222 -1.2445
  176SLPC  H11B19921   1.790   2.536   0.003  0.3085  1.0934 -0.2489
  176SLPC     P19922   2.079   2.434   0.099  0.1535 -0.6704  0.4196
  176SLPC   O1319923   2.177   2.520   0.165  0.3866  0.1173 -0.7573
  176SLPC   O1419924   2.101   2.291   0.112 -0.0391  0.3938  0.0650
  176SLPC   O1219925   1.931   2.470   0.140  0.2550  0.4641  0.7653
  176SLPC   O1119926   2.084   2.474  -0.053  1.4493  0.1202 -0.0473
  176SLPC    C119927   2.203   2.464  -0.122  1.1158  0.1922  0.4528
  176SLPC    HA19928   2.260   2.558  -0.108  2.4705 -0.4833 -0.3067
  176SLPC    HB19929   2.273   2.386  -0.084 -1.6152 -2.2036  0.9478
  176SLPC    C219930   2.171   2.429  -0.274 -0.4685  0.1646  0.3108
  176SLPC    HS19931   2.094   2.493  -0.322 -0.2813 -0.0721 -0.3074
  176SLPC   O2119932   2.126   2.289  -0.269  0.1194  0.0824 -0.5840
  176SLPC   C2119933   1.992   2.277  -0.245  0.0467  0.0268  0.0247
  176SLPC   O2219934   1.914   2.368  -0.260  0.5732 -0.9315 -0.4952
  176SLPC   C2219935   1.958   2.133  -0.212 -0.4082 -0.3577  0.0948
  176SLPC   H2R19936   2.021   2.109  -0.124  0.0111 -0.2374 -0.1700
  176SLPC   H2S19937   1.850   2.135  -0.187 -0.6831 -1.1502 -0.9526
  176SLPC    C319938   2.297   2.439  -0.367  0.6679 -0.0986 -0.0418
  176SLPC    HX19939   2.380   2.379  -0.324  0.0572 -1.0461 -0.1498
  176SLPC    HY19940   2.337   2.542  -0.363 -0.5922  0.3819  1.9945
  176SLPC   O3119941   2.277   2.399  -0.507  0.5990  0.2641 -0.4465
  176SLPC   C3119942   2.195   2.464  -0.585 -0.6183 -0.0543  0.0419
  176SLPC   O3219943   2.120   2.555  -0.560 -0.0572  0.2964 -0.8231
  176SLPC   C3219944   2.219   2.403  -0.726 -0.2428 -0.4424 -0.7303
  176SLPC   H2X19945   2.229   2.295  -0.698  0.2501  0.0662  1.2504
  176SLPC   H2Y19946   2.316   2.434  -0.769  0.7518 -1.7209  0.4659
  176SLPC   C2319947   1.982   2.043  -0.330 -0.5057 -0.9039 -0.5782
  176SLPC   H3R19948   1.962   1.940  -0.293 -2.2791 -0.4266 -0.0811
  176SLPC   H3S19949   2.088   2.037  -0.361  0.0950 -1.0387  1.3322
  176SLPC   C2419950   1.890   2.054  -0.442 -0.3673 -0.0555  0.1100
  176SLPC   H4R19951   1.792   2.093  -0.405 -0.1758  0.8690 -0.3209
  176SLPC   H4S19952   1.863   1.952  -0.477  0.4559 -0.0436 -0.6033
  176SLPC   C2519953   1.939   2.131  -0.564 -0.6421  0.3372  0.1825
  176SLPC   H5R19954   2.013   2.066  -0.616 -0.1642  1.2057 -0.2488
  176SLPC   H5S19955   2.002   2.215  -0.528 -0.8874  1.1398 -1.1905
  176SLPC   C2619956   1.827   2.171  -0.659 -0.7259  0.9077 -0.0794
  176SLPC   H6R19957   1.761   2.082  -0.667 -0.6180  0.8395 -0.2014
  176SLPC   H6S19958   1.872   2.201  -0.756  0.2945 -1.4682 -0.4101
  176SLPC   C2719959   1.757   2.294  -0.616  0.3747 -0.9526 -0.0135
  176SLPC   H7R19960   1.821   2.379  -0.648 -1.4848  0.6267  0.2353
  176SLPC   H7S19961   1.749   2.288  -0.505  1.5241  0.1401  0.1487
  176SLPC   C2819962   1.616   2.324  -0.680  0.2587 -0.6181 -0.8402
  176SLPC   H8R19963   1.625   2.327  -0.791  0.7682  0.2899 -0.7856
  176SLPC   H8S19964   1.582   2.425  -0.649 -0.7039 -1.0973 -0.3147
  176SLPC   C2919965   1.507   2.224  -0.633  0.1800  0.1172  0.3332
  176SLPC   H9R19966   1.495   2.222  -0.524 -0.9243 -0.5501  0.2054
  176SLPC  C21019967   1.418   2.150  -0.707 -0.0740 -0.1746 -1.3738
  176SLPC  H10R19968   1.356   2.077  -0.653  2.5184 -0.2272  1.9090
  176SLPC  C21119969   1.421   2.145  -0.856 -0.2511 -0.0705  0.7731
  176SLPC  H11R19970   1.453   2.245  -0.890  1.6906 -0.7864  0.3741
  176SLPC  H11S19971   1.316   2.141  -0.892 -0.3101  1.1970  0.7583
  176SLPC  C21219972   1.516   2.045  -0.924  0.5102  0.0485 -0.2911
  176SLPC  H12R19973   1.587   1.995  -0.857 -0.4124 -0.4505  0.3310
  176SLPC  C21319974   1.520   2.015  -1.056 -0.6305  0.0162  0.4341
  176SLPC  H13R19975   1.588   1.937  -1.091 -0.5756  0.3105 -0.1303
  176SLPC  C21419976   1.436   2.080  -1.157 -0.0112  0.1321 -0.6564
  176SLPC  H14R19977   1.482   2.089  -1.257 -0.3633  0.2253 -0.8126
  176SLPC  H14S19978   1.414   2.186  -1.134 -0.7216 -0.4459  1.6013
  176SLPC  C21519979   1.301   2.004  -1.186 -0.2246 -0.3563  0.4607
  176SLPC  H15R19980   1.252   1.977  -1.090 -1.1153 -0.7965 -0.1075
  176SLPC  H15S19981   1.326   1.910  -1.240  1.9759  0.8424 -0.7660
  176SLPC  C21619982   1.196   2.094  -1.257  0.0836  0.3693  0.0147
  176SLPC  H16R19983   1.237   2.149  -1.345  0.3388  2.8994  1.6044
  176SLPC  H16S19984   1.171   2.174  -1.184  1.2352  4.0678 -3.2751
  176SLPC  C21719985   1.058   2.032  -1.292 -0.2812 -0.3237 -0.5575
  176SLPC  H17R19986   1.012   1.965  -1.216 -0.0737 -1.5174 -1.4573
  176SLPC  H17S19987   1.067   1.968  -1.382  1.1167  0.4040 -0.9535
  176SLPC  C21819988   0.948   2.131  -1.325  0.0610 -0.2798 -0.2362
  176SLPC  H18R19989   0.912   2.180  -1.231  0.4050  0.3095 -0.4078
  176SLPC  H18S19990   0.863   2.084  -1.379 -1.2065  2.8500 -1.1796
  176SLPC  H18T19991   0.986   2.209  -1.395 -0.1455 -1.9254 -2.2801
  176SLPC   C3319992   2.100   2.426  -0.824  0.1909 -0.0005  0.4787
  176SLPC   H3X19993   2.090   2.521  -0.881 -2.0542 -0.7765 -0.5396
  176SLPC   H3Y19994   2.009   2.427  -0.760 -0.5438  1.2147 -0.5473
  176SLPC   C3419995   2.094   2.314  -0.929  0.0804 -0.0308  0.1351
  176SLPC   H4X19996   2.095   2.224  -0.864 -0.2173 -0.5391 -0.5539
  176SLPC   H4Y19997   2.192   2.311  -0.980  0.3251 -3.7477  0.5409
  176SLPC   C3519998   1.977   2.309  -1.029  0.5839 -0.4032 -0.5353
  176SLPC   H5X19999   1.974   2.401  -1.091  1.8282 -0.0284 -0.0763
  176SLPC   H5Y20000   1.878   2.299  -0.979  0.3761 -0.1181 -0.8864
  176SLPC   C3620001   1.982   2.185  -1.124  0.2273 -0.7348 -0.3035
  176SLPC   H6X20002   1.954   2.103  -1.055  0.7560  0.8074  1.8527
  176SLPC   H6Y20003   2.092   2.180  -1.141  1.0080  1.9409  2.7859
  176SLPC   C3720004   1.895   2.191  -1.253  0.3196  0.4558 -0.0325
  176SLPC   H7X20005   1.888   2.290  -1.303 -2.6632  0.8850  1.0560
  176SLPC   H7Y20006   1.790   2.174  -1.223  0.5319 -0.6190  0.1517
  176SLPC   C3820007   1.946   2.090  -1.359 -0.8534  0.2281  0.3260
  176SLPC   H8X20008   1.951   1.987  -1.318 -0.5890  0.0801 -0.0703
  176SLPC   H8Y20009   2.041   2.134  -1.394 -0.3019  0.2366  1.7454
  176SLPC   C3920010   1.851   2.086  -1.484  0.3849 -0.2920 -0.3066
  176SLPC   H9X20011   1.897   2.008  -1.548  0.1834 -0.2814 -0.4640
  176SLPC   H9Y20012   1.844   2.180  -1.544  1.5540 -0.7625 -1.2217
  176SLPC  C31020013   1.704   2.036  -1.447 -0.0752 -0.0181  0.3984
  176SLPC  H10X20014   1.640   2.120  -1.412  0.4799  0.4111  0.3938
  176SLPC  H10Y20015   1.698   1.946  -1.383 -0.6627  0.0101  0.3890
  176SLPC  C31120016   1.617   1.991  -1.566 -0.0050  0.0916 -0.6391
  176SLPC  H11X20017   1.654   1.901  -1.619 -3.0343 -0.3300 -2.2718
  176SLPC  H11Y20018   1.618   2.068  -1.646  0.3195 -0.8953 -1.6112
  176SLPC  C31220019   1.473   1.968  -1.538 -0.5614 -0.3226  0.6809
  176SLPC  H12X20020   1.429   2.062  -1.497 -3.0692 -1.1901  0.1586
  176SLPC  H12Y20021   1.459   1.888  -1.462 -0.4066  0.6732  1.7910
  176SLPC  C31320022   1.395   1.919  -1.663 -0.0144  0.3356  0.4883
  176SLPC  H13X20023   1.419   1.813  -1.684  2.3528  0.8132  0.4916
  176SLPC  H13Y20024   1.420   1.979  -1.754  0.5784 -2.1507 -1.0842
  176SLPC  C31420025   1.244   1.920  -1.630  0.3921  0.1181  0.3104
  176SLPC  H14X20026   1.211   2.023  -1.602  0.4463 -0.0589  1.0571
  176SLPC  H14Y20027   1.223   1.850  -1.546  3.4500 -1.2515  0.0741
  176SLPC  C31520028   1.161   1.877  -1.758 -0.2579  0.5661 -1.3274
  176SLPC  H15X20029   1.200   1.776  -1.780 -2.4358 -0.4707 -0.6873
  176SLPC  H15Y20030   1.191   1.949  -1.838  4.9756 -0.4835 -0.6477
  176SLPC  C31620031   1.013   1.862  -1.728  0.0832  0.1523  0.7373
  176SLPC  H16X20032   0.991   1.802  -1.637 -1.2904  0.0876  0.3805
  176SLPC  H16Y20033   0.956   1.815  -1.811  3.1484 -2.2282 -0.2452
  176SLPC  C31720034   0.947   1.996  -1.687  0.0135  0.7311  0.2997
  176SLPC  H17X20035   0.990   2.053  -1.602 -2.6486  2.4757  0.5804
  176SLPC  H17Y20036   0.843   1.975  -1.655 -0.3458 -0.6719 -1.5899
  176SLPC  C31820037   0.925   2.083  -1.807  0.3801  0.2042 -0.1276
  176SLPC  H18X20038   0.897   2.190  -1.794 -0.6501  0.0274 -0.8002
  176SLPC  H18Y20039   0.844   2.040  -1.870 -1.7465  1.2679  1.7543
  176SLPC  H18Z20040   1.017   2.079  -1.869  1.5143 -1.1154  1.5254
  177SLPC     N20041   1.026   1.353   0.551 -0.2435 -0.4890 -0.2267
  177SLPC   C1320042   1.123   1.454   0.607 -0.3780 -0.6546 -0.4893
  177SLPC  H13A20043   1.089   1.556   0.605  3.7288  0.8915 -1.0310
  177SLPC  H13B20044   1.155   1.423   0.705 -2.6892 -1.4731  0.0578
  177SLPC  H13C20045   1.218   1.456   0.554 -0.6183 -0.6690 -0.9287
  177SLPC   C1420046   1.017   1.372   0.404  1.0448 -0.4751 -0.4493
  177SLPC  H14A20047   1.116   1.379   0.361  0.9288  0.5939 -0.5902
  177SLPC  H14B20048   0.970   1.282   0.367 -0.3552 -0.1334  0.4041
  177SLPC  H14C20049   0.956   1.456   0.375  0.5290 -0.2451  1.2143
  177SLPC   C1520050   0.887   1.384   0.604 -0.2857 -0.4084 -0.4585
  177SLPC  H15A20051   0.822   1.317   0.549  0.9048 -2.0078  0.0398
  177SLPC  H15B20052   0.888   1.369   0.711  2.4484 -0.3766 -0.4037
  177SLPC  H15C20053   0.848   1.482   0.580 -1.3945 -0.8970 -0.7499
  177SLPC   C1220054   1.072   1.214   0.586  1.0335 -0.3285  0.1773
  177SLPC  H12A20055   1.097   1.199   0.690 -0.5535 -1.0385  0.4846
  177SLPC  H12B20056   1.162   1.196   0.529  1.4394  1.7473  0.0944
  177SLPC   C1120057   0.970   1.100   0.553  0.4518  0.7104 -0.5598
  177SLPC  H11A20058   0.900   1.084   0.638  0.2081 -0.5854 -0.9849
  177SLPC  H11B20059   1.027   1.004   0.557  0.1913  0.3658 -3.2730
  177SLPC     P20060   0.782   1.029   0.385 -0.2918 -0.0273  0.2828
  177SLPC   O1320061   0.819   0.884   0.398  0.4174  0.3787 -0.0427
  177SLPC   O1420062   0.661   1.074   0.454  0.4911 -0.0579 -0.2110
  177SLPC   O1220063   0.908   1.116   0.430 -0.3346  0.1457  0.4929
  177SLPC   O1120064   0.772   1.060   0.226 -0.2133  0.3397  0.4237
  177SLPC    C120065   0.889   1.057   0.136 -0.2454 -0.2309 -0.2063
  177SLPC    HA20066   0.949   1.149   0.150 -0.0598 -0.4807  0.7151
  177SLPC    HB20067   0.963   0.978   0.160  0.0984  0.4091  0.9296
  177SLPC    C220068   0.843   1.056  -0.008 -0.4674  1.1084  0.2564
  177SLPC    HS20069   0.929   1.072  -0.078  0.2381 -1.2573  0.4801
  177SLPC   O2120070   0.730   1.143  -0.020  0.1436 -0.0253  0.2723
  177SLPC   C2120071   0.752   1.273  -0.003  0.3722 -0.1723  0.4243
  177SLPC   O2220072   0.860   1.327   0.012  0.7968 -0.0155 -0.4983
  177SLPC   C2220073   0.619   1.351   0.008  0.5521 -0.0179  0.4915
  177SLPC   H2R20074   0.555   1.287   0.073  1.8103 -0.6192  1.1653
  177SLPC   H2S20075   0.629   1.452   0.056 -1.2013  1.0427 -1.2180
  177SLPC    C320076   0.796   0.908  -0.036  0.1328  0.0270 -0.1718
  177SLPC    HX20077   0.745   0.870   0.055 -0.6078  0.0748 -0.5577
  177SLPC    HY20078   0.885   0.843  -0.047  1.1640  1.3071  0.3797
  177SLPC   O3120079   0.695   0.895  -0.140  0.1739  0.0377  0.6859
  177SLPC   C3120080   0.747   0.907  -0.257  0.7936  0.4125  0.5000
  177SLPC   O3220081   0.863   0.909  -0.291  0.0541  0.4646 -0.0729
  177SLPC   C3220082   0.621   0.899  -0.349  0.3368 -0.4207 -0.1464
  177SLPC   H2X20083   0.599   1.006  -0.365 -0.6352 -0.4912  0.6631
  177SLPC   H2Y20084   0.539   0.862  -0.284 -0.1356  2.3837  1.0065
  177SLPC   C2320085   0.546   1.379  -0.125 -0.1175  0.2409  0.5272
  177SLPC   H3R20086   0.452   1.436  -0.110 -0.2307  0.3016 -0.3901
  177SLPC   H3S20087   0.523   1.283  -0.176  1.4765  1.3905 -2.5719
  177SLPC   C2420088   0.628   1.452  -0.231 -0.6932 -0.3608  0.0593
  177SLPC   H4R20089   0.578   1.416  -0.323  3.0903 -0.7915 -2.0137
  177SLPC   H4S20090   0.735   1.421  -0.230 -0.5505  0.1144  0.8608
  177SLPC   C2520091   0.623   1.597  -0.206  0.3073 -0.1197 -0.1803
  177SLPC   H5R20092   0.689   1.608  -0.116  0.2287 -3.8695  0.4938
  177SLPC   H5S20093   0.527   1.640  -0.170  0.1345  0.9137 -1.7726
  177SLPC   C2620094   0.667   1.676  -0.328  0.3344 -0.1720 -0.3657
  177SLPC   H6R20095   0.593   1.664  -0.410  0.4435  1.7203 -0.7819
  177SLPC   H6S20096   0.763   1.641  -0.371  0.0503  0.8130 -1.8872
  177SLPC   C2720097   0.691   1.826  -0.308 -0.1520  0.8087  0.0204
  177SLPC   H7R20098   0.772   1.849  -0.235 -1.8811  2.6380  1.4908
  177SLPC   H7S20099   0.602   1.872  -0.259  1.8975  1.1849  3.7326
  177SLPC   C2820100   0.716   1.897  -0.446  0.3458  0.4021  0.5356
  177SLPC   H8R20101   0.777   1.823  -0.502 -0.7724 -0.8480  0.9146
  177SLPC   H8S20102   0.766   1.997  -0.446 -0.4085  0.7899  0.3609
  177SLPC   C2920103   0.583   1.912  -0.514  0.0074 -0.1761  0.3876
  177SLPC   H9R20104   0.502   1.961  -0.458 -0.9370 -2.2400  0.9256
  177SLPC  C21020105   0.551   1.874  -0.639  0.0139  0.0997  0.2582
  177SLPC  H10R20106   0.452   1.900  -0.681 -0.1485 -0.6123  0.1780
  177SLPC  C21120107   0.643   1.803  -0.739  0.8695 -0.5367 -0.6499
  177SLPC  H11R20108   0.600   1.717  -0.795 -0.2123 -0.0039 -0.6573
  177SLPC  H11S20109   0.725   1.750  -0.684  0.4492 -0.6292 -0.1056
  177SLPC  C21220110   0.706   1.890  -0.843 -0.1315  0.3892 -0.5764
  177SLPC  H12R20111   0.767   1.970  -0.797  2.1045 -0.5816 -1.7140
  177SLPC  C21320112   0.690   1.888  -0.979 -0.7465 -0.2937  0.2867
  177SLPC  H13R20113   0.742   1.971  -1.030 -0.8828 -0.0311  0.5637
  177SLPC  C21420114   0.613   1.791  -1.065 -0.5341 -0.3615  0.6062
  177SLPC  H14R20115   0.512   1.767  -1.024  0.1989 -2.8531  1.1725
  177SLPC  H14S20116   0.659   1.690  -1.066  0.9803  0.2996 -0.6841
  177SLPC  C21520117   0.587   1.820  -1.216  0.9587 -0.3880  0.1954
  177SLPC  H15R20118   0.536   1.916  -1.241 -0.4492 -1.6910 -2.2690
  177SLPC  H15S20119   0.521   1.734  -1.239  1.8172 -1.0078  0.0011
  177SLPC  C21620120   0.711   1.792  -1.299  0.1765  0.1567 -0.1869
  177SLPC  H16R20121   0.731   1.683  -1.284  0.3780  0.2924  0.5496
  177SLPC  H16S20122   0.796   1.842  -1.248  2.4063 -2.6546 -0.8731
  177SLPC  C21720123   0.700   1.839  -1.442  0.5481  0.3459  0.5094
  177SLPC  H17R20124   0.793   1.808  -1.495 -0.0094 -1.9369  0.7409
  177SLPC  H17S20125   0.690   1.949  -1.451  1.1706  0.2916 -1.6041
  177SLPC  C21820126   0.580   1.776  -1.518 -0.6230  0.1422 -0.4229
  177SLPC  H18R20127   0.576   1.667  -1.500 -1.1833  0.5724  2.5242
  177SLPC  H18S20128   0.582   1.808  -1.625 -1.0101  1.2060 -0.1281
  177SLPC  H18T20129   0.480   1.814  -1.488 -0.5542 -0.6050  0.8011
  177SLPC   C3320130   0.635   0.811  -0.473  0.1429  0.1927 -0.4638
  177SLPC   H3X20131   0.558   0.731  -0.475  0.9962 -0.6505 -0.3873
  177SLPC   H3Y20132   0.738   0.770  -0.481  0.6981  1.0013  1.8019
  177SLPC   C3420133   0.607   0.883  -0.603 -0.3378  0.4552 -0.0815
  177SLPC   H4X20134   0.686   0.959  -0.624  0.6283 -0.4819  0.1032
  177SLPC   H4Y20135   0.511   0.935  -0.582  0.5779  3.0150 -1.7368
  177SLPC   C3520136   0.608   0.789  -0.724  0.1110  1.4124  0.2647
  177SLPC   H5X20137   0.535   0.708  -0.704  1.8786 -0.0114  1.1769
  177SLPC   H5Y20138   0.703   0.733  -0.721  0.4797  2.0583  2.5656
  177SLPC   C3620139   0.577   0.877  -0.843  0.4670  0.1445  1.3743
  177SLPC   H6X20140   0.629   0.975  -0.839 -2.0985  1.6958 -0.6412
  177SLPC   H6Y20141   0.471   0.904  -0.858  0.4058 -0.9379 -0.5431
  177SLPC   C3720142   0.633   0.804  -0.974  0.5493  0.1636  0.4406
  177SLPC   H7X20143   0.557   0.725  -0.989 -0.5124  0.9678  1.4282
  177SLPC   H7Y20144   0.735   0.761  -0.960  0.5503 -2.0809 -4.3663
  177SLPC   C3820145   0.641   0.894  -1.103  0.0562 -0.0591  0.4045
  177SLPC   H8X20146   0.718   0.974  -1.102  1.5103 -1.4024  2.3531
  177SLPC   H8Y20147   0.537   0.916  -1.136  0.5737 -0.3866 -1.6184
  177SLPC   C3920148   0.678   0.804  -1.228 -0.0282  0.2774 -1.2050
  177SLPC   H9X20149   0.627   0.706  -1.212  2.2244 -0.9200 -0.9722
  177SLPC   H9Y20150   0.788   0.790  -1.234 -0.0909 -0.0959 -1.6289
  177SLPC  C31020151   0.627   0.873  -1.347 -0.2891  0.5494 -0.1220
  177SLPC  H10X20152   0.648   0.981  -1.334 -1.1144  0.3430  4.2647
  177SLPC  H10Y20153   0.517   0.874  -1.337 -0.2066  0.4843  0.8330
  177SLPC  C31120154   0.665   0.804  -1.475  0.8339  0.4607  0.2431
  177SLPC  H11X20155   0.599   0.830  -1.561 -0.6258 -0.5701  0.9915
  177SLPC  H11Y20156   0.653   0.693  -1.467  0.0585  0.3328 -1.9710
  177SLPC  C31220157   0.813   0.828  -1.513  0.5108 -0.2792 -0.0036
  177SLPC  H12X20158   0.869   0.790  -1.424 -1.1622 -0.9742  0.8073
  177SLPC  H12Y20159   0.838   0.936  -1.522 -2.3028  0.5064  0.8318
  177SLPC  C31320160   0.845   0.750  -1.636 -0.6560  0.1272 -0.1009
  177SLPC  H13X20161   0.782   0.780  -1.723  0.7114  1.0035 -0.8376
  177SLPC  H13Y20162   0.805   0.647  -1.624  0.7226 -0.4069  0.0651
  177SLPC  C31420163   0.991   0.750  -1.678 -0.3773  0.3005 -0.3991
  177SLPC  H14X20164   1.032   0.853  -1.682  0.1110  0.2607  2.1599
  177SLPC  H14Y20165   0.996   0.709  -1.781 -2.3254  1.4344 -1.0019
  177SLPC  C31520166   1.081   0.670  -1.581  0.3871  0.2648  0.0780
  177SLPC  H15X20167   1.020   0.582  -1.552 -0.8776  0.5700 -1.5298
  177SLPC  H15Y20168   1.073   0.739  -1.494 -0.8874  1.6645 -1.0862
  177SLPC  C31620169   1.231   0.653  -1.626 -0.0540  0.5279 -0.7687
  177SLPC  H16X20170   1.271   0.605  -1.534  1.5435 -0.6317 -2.0186
  177SLPC  H16Y20171   1.280   0.752  -1.638  0.1720  0.2590 -2.3056
  177SLPC  C31720172   1.248   0.557  -1.742 -0.1162 -0.4138  0.3808
  177SLPC  H17X20173   1.354   0.548  -1.776 -0.4330 -0.9204 -0.5001
  177SLPC  H17Y20174   1.185   0.588  -1.828 -0.4571 -2.1014 -0.0164
  177SLPC  C31820175   1.217   0.412  -1.703 -0.1728 -0.0081  0.1319
  177SLPC  H18X20176   1.211   0.348  -1.794  0.2523 -0.9806  0.7775
  177SLPC  H18Y20177   1.118   0.416  -1.653  0.5737 -1.0311  1.7789
  177SLPC  H18Z20178   1.290   0.375  -1.629  0.5736  0.2358 -0.4751
  178SLPC     N20179   6.898   6.365   0.932  0.2239  0.1179  0.2446
  178SLPC   C1320180   6.844   6.504   0.942 -0.4831  0.3674 -0.4033
  178SLPC  H13A20181   6.817   6.528   1.044 -1.7480 -0.8315 -0.4142
  178SLPC  H13B20182   6.923   6.571   0.913  1.0212 -1.2607 -0.2322
  178SLPC  H13C20183   6.761   6.530   0.877 -1.5629  1.5828  1.3445
  178SLPC   C1420184   6.782   6.276   0.985  0.0200 -0.0879 -0.1600
  178SLPC  H14A20185   6.747   6.307   1.082 -0.9333  0.7027 -0.7424
  178SLPC  H14B20186   6.693   6.277   0.923 -0.4777 -0.5660  0.5274
  178SLPC  H14C20187   6.800   6.169   0.980 -4.3489 -0.9744 -2.2665
  178SLPC   C1520188   7.015   6.342   1.020  0.4356  0.1801  0.2057
  178SLPC  H15A20189   7.090   6.409   0.981 -0.3921  0.0519 -1.7283
  178SLPC  H15B20190   6.988   6.368   1.122 -1.0014 -1.8228  0.3809
  178SLPC  H15C20191   7.055   6.243   1.009  2.1362  0.8675 -0.1079
  178SLPC   C1220192   6.942   6.329   0.790 -0.3468 -0.4109  0.2166
  178SLPC  H12A20193   6.988   6.231   0.783 -1.3163 -0.8151 -1.0908
  178SLPC  H12B20194   7.026   6.394   0.771  0.2687 -1.1950  0.2106
  178SLPC   C1120195   6.847   6.350   0.664  0.2656 -0.9652  0.7845
  178SLPC  H11A20196   6.756   6.288   0.677 -0.2212 -0.9303 -1.8232
  178SLPC  H11B20197   6.899   6.292   0.585 -1.5059 -0.6801 -0.6739
  178SLPC     P20198   6.870   6.567   0.521  0.0827 -0.0590  0.3708
  178SLPC   O1320199   6.794   6.693   0.496  0.4687  0.2192 -0.9288
  178SLPC   O1420200   7.012   6.578   0.563 -0.3329  0.0130 -0.3551
  178SLPC   O1220201   6.809   6.491   0.641  0.4413  0.0968  0.5579
  178SLPC   O1120202   6.857   6.478   0.387  0.5199 -0.0644 -1.3071
  178SLPC    C120203   6.735   6.398   0.372  0.1472 -0.7307 -0.6033
  178SLPC    HA20204   6.745   6.288   0.383 -0.4707 -0.5447  3.3786
  178SLPC    HB20205   6.651   6.431   0.437  0.1002  0.5219 -1.2604
  178SLPC    C220206   6.700   6.415   0.223  0.0913 -0.5828  0.4157
  178SLPC    HS20207   6.593   6.387   0.219 -0.0139 -0.3324  1.2927
  178SLPC   O2120208   6.789   6.338   0.139 -0.1747  0.3907 -0.3153
  178SLPC   C2120209   6.725   6.229   0.095  0.0512  0.8966  0.3272
  178SLPC   O2220210   6.620   6.183   0.131  0.3371  0.8521 -0.0476
  178SLPC   C2220211   6.815   6.150   0.002 -0.5074 -0.3227 -0.3978
  178SLPC   H2R20212   6.901   6.111   0.061 -0.9012 -1.3218 -0.4667
  178SLPC   H2S20213   6.759   6.057  -0.021 -0.5659  0.1246 -2.1584
  178SLPC    C320214   6.693   6.558   0.175 -0.0992 -0.0789 -0.0360
  178SLPC    HX20215   6.784   6.611   0.210  0.2942 -0.4463 -0.4835
  178SLPC    HY20216   6.605   6.596   0.232 -1.3614 -1.3010 -1.0718
  178SLPC   O3120217   6.658   6.577   0.036  0.1149 -0.2015 -0.3479
  178SLPC   C3120218   6.762   6.585  -0.040 -0.7167  0.1338  0.4358
  178SLPC   O3220219   6.877   6.569  -0.004 -0.0800  0.2793 -0.0929
  178SLPC   C3220220   6.716   6.600  -0.189  0.3874  0.3171  0.2732
  178SLPC   H2X20221   6.645   6.686  -0.198 -0.7539 -0.7922 -2.3132
  178SLPC   H2Y20222   6.659   6.509  -0.217  1.5690 -0.1108 -0.8186
  178SLPC   C2320223   6.863   6.235  -0.111 -0.2536 -1.2689 -0.1625
  178SLPC   H3R20224   6.941   6.300  -0.066  1.4861 -1.8934 -2.1440
  178SLPC   H3S20225   6.784   6.292  -0.164 -1.0604  0.0017  2.2443
  178SLPC   C2420226   6.945   6.160  -0.217 -0.2926  0.4757 -0.0810
  178SLPC   H4R20227   6.890   6.066  -0.236 -0.3228  0.5015 -0.1236
  178SLPC   H4S20228   7.037   6.126  -0.164 -1.7407 -1.1546  1.5075
  178SLPC   C2520229   6.972   6.237  -0.350 -0.5073 -0.2891 -0.3004
  178SLPC   H5R20230   7.045   6.316  -0.325 -1.9964  1.0552 -0.0677
  178SLPC   H5S20231   6.879   6.282  -0.388 -0.1903  0.7908  0.1756
  178SLPC   C2620232   7.033   6.135  -0.444 -0.0561 -0.4977 -0.7177
  178SLPC   H6R20233   7.015   6.029  -0.418  1.7114 -0.8395 -0.7189
  178SLPC   H6S20234   7.142   6.150  -0.427 -0.0425  0.6840 -1.6569
  178SLPC   C2720235   7.006   6.171  -0.588  0.2976 -0.2925  0.1645
  178SLPC   H7R20236   7.096   6.145  -0.650  0.0388 -0.7552 -0.0278
  178SLPC   H7S20237   7.003   6.281  -0.597  0.1924 -0.2009  1.2156
  178SLPC   C2820238   6.877   6.113  -0.650 -0.3198 -0.3261 -0.5426
  178SLPC   H8R20239   6.794   6.144  -0.583  0.5693  1.6474 -0.2826
  178SLPC   H8S20240   6.880   6.002  -0.646  0.4133 -0.3340 -1.1177
  178SLPC   C2920241   6.865   6.155  -0.791 -0.1757  0.1807  0.1406
  178SLPC   H9R20242   6.787   6.229  -0.812  0.1977  1.5375  3.1296
  178SLPC  C21020243   6.924   6.094  -0.895 -0.3710 -0.8235  0.1266
  178SLPC  H10R20244   6.907   6.134  -0.996  1.6728 -1.7474 -0.6407
  178SLPC  C21120245   7.025   5.981  -0.907 -0.0850  1.0087  0.4119
  178SLPC  H11R20246   6.972   5.896  -0.954  0.0329  1.1415  0.0394
  178SLPC  H11S20247   7.047   5.952  -0.802  1.8099 -1.1759 -0.5002
  178SLPC  C21220248   7.152   6.015  -0.981  0.7441 -1.0990 -0.5729
  178SLPC  H12R20249   7.227   6.061  -0.915 -2.3321  0.5745  2.0257
  178SLPC  C21320250   7.171   6.014  -1.113 -0.2375 -0.1711  0.0420
  178SLPC  H13R20251   7.271   6.047  -1.146 -0.5681  0.1828 -0.6231
  178SLPC  C21420252   7.080   5.974  -1.219 -0.2092 -0.3399 -0.9276
  178SLPC  H14R20253   6.989   5.937  -1.167  0.5584 -1.5898 -0.4270
  178SLPC  H14S20254   7.121   5.886  -1.273 -0.2405 -0.8702 -0.1073
  178SLPC  C21520255   7.034   6.081  -1.323 -0.4133 -0.0218 -0.1475
  178SLPC  H15R20256   7.135   6.093  -1.367  0.1998 -2.4949  0.4282
  178SLPC  H15S20257   6.996   6.167  -1.264 -1.0105 -0.0324 -0.5109
  178SLPC  C21620258   6.938   6.027  -1.425  0.1156  0.4847 -0.5980
  178SLPC  H16R20259   6.842   5.988  -1.386 -0.5338 -0.1410 -2.6751
  178SLPC  H16S20260   6.986   5.941  -1.477  1.7090  2.2297 -2.1781
  178SLPC  C21720261   6.898   6.132  -1.527  0.1425 -0.9094 -1.0125
  178SLPC  H17R20262   6.987   6.159  -1.586  0.2998  0.5209 -0.1688
  178SLPC  H17S20263   6.861   6.215  -1.463  1.5111 -1.2428  0.2668
  178SLPC  C21820264   6.784   6.085  -1.618 -0.0142 -0.2686 -0.6259
  178SLPC  H18R20265   6.692   6.071  -1.557  1.9305 -2.4396  2.1238
  178SLPC  H18S20266   6.799   5.979  -1.649  0.9593 -0.0639 -0.8760
  178SLPC  H18T20267   6.762   6.145  -1.709 -2.6046 -0.4108 -0.1857
  178SLPC   C3320268   6.822   6.612  -0.295  0.1689 -0.6198 -0.3942
  178SLPC   H3X20269   6.905   6.540  -0.279  1.0808  0.2479 -1.1849
  178SLPC   H3Y20270   6.860   6.715  -0.282 -1.7068 -0.0605  1.2153
  178SLPC   C3420271   6.760   6.600  -0.432 -0.5110  0.1415  0.5470
  178SLPC   H4X20272   6.660   6.649  -0.433 -0.3331  0.4973 -0.0093
  178SLPC   H4Y20273   6.752   6.492  -0.458 -0.2691  0.2455  0.0384
  178SLPC   C3520274   6.853   6.665  -0.536  0.4570  0.6473 -0.0454
  178SLPC   H5X20275   6.953   6.618  -0.536  0.0856 -0.1663  0.7554
  178SLPC   H5Y20276   6.860   6.770  -0.499  0.6680  1.3742 -2.0436
  178SLPC   C3620277   6.786   6.658  -0.673 -0.3061  0.1983 -0.8987
  178SLPC   H6X20278   6.841   6.719  -0.748  0.8071 -0.1846 -0.4102
  178SLPC   H6Y20279   6.680   6.691  -0.679 -0.6342 -0.9583 -1.8480
  178SLPC   C3720280   6.805   6.516  -0.731 -0.2123  0.0224 -0.3044
  178SLPC   H7X20281   6.766   6.449  -0.651  2.1971  1.3062  2.1209
  178SLPC   H7Y20282   6.914   6.498  -0.743 -0.1622  0.4473 -0.4955
  178SLPC   C3820283   6.725   6.513  -0.861  0.0438  0.7245  0.0352
  178SLPC   H8X20284   6.758   6.433  -0.931 -0.6122 -1.8244  2.4556
  178SLPC   H8Y20285   6.736   6.610  -0.914 -0.9454 -0.0936 -1.7579
  178SLPC   C3920286   6.574   6.472  -0.841  0.0675  0.5862  0.1050
  178SLPC   H9X20287   6.522   6.542  -0.772 -1.3597  0.6215 -0.9515
  178SLPC   H9Y20288   6.563   6.373  -0.793 -1.1914  0.6993  0.0935
  178SLPC  C31020289   6.484   6.494  -0.959  0.6866 -0.2484  0.4036
  178SLPC  H10X20290   6.524   6.437  -1.045 -1.3676 -2.3860  0.7439
  178SLPC  H10Y20291   6.479   6.599  -0.993  1.7314  0.2168  1.6050
  178SLPC  C31120292   6.338   6.453  -0.939 -0.7803 -0.0906 -0.3319
  178SLPC  H11X20293   6.291   6.510  -0.856  0.7499  0.5415  0.1523
  178SLPC  H11Y20294   6.336   6.350  -0.898  2.2109 -0.3688 -0.6634
  178SLPC  C31220295   6.241   6.458  -1.053  0.3921 -0.9151 -0.0934
  178SLPC  H12X20296   6.247   6.566  -1.078 -1.1276 -0.9000 -0.4978
  178SLPC  H12Y20297   6.133   6.456  -1.026  0.3615  0.8009 -0.0018
  178SLPC  C31320298   6.271   6.359  -1.171  0.5110 -0.5647 -0.7491
  178SLPC  H13X20299   6.276   6.254  -1.133  1.1001 -1.1716 -2.3941
  178SLPC  H13Y20300   6.369   6.378  -1.219 -0.4041 -0.5911 -2.7117
  178SLPC  C31420301   6.169   6.358  -1.282  0.2306  0.2129  0.2515
  178SLPC  H14X20302   6.139   6.460  -1.312  0.7634 -0.4586 -2.9167
  178SLPC  H14Y20303   6.078   6.298  -1.257 -0.1546  0.8731  0.4438
  178SLPC  C31520304   6.227   6.299  -1.414 -0.0468  0.7939 -0.0489
  178SLPC  H15X20305   6.237   6.189  -1.401 -2.3510  0.3585 -1.3220
  178SLPC  H15Y20306   6.325   6.345  -1.438  0.5068 -1.6861 -3.1304
  178SLPC  C31620307   6.139   6.322  -1.539  0.4062 -0.6592  0.2639
  178SLPC  H16X20308   6.192   6.272  -1.623 -0.9721  1.8516 -2.2881
  178SLPC  H16Y20309   6.142   6.430  -1.565 -1.3780 -0.1558  1.9521
  178SLPC  C31720310   5.996   6.274  -1.524 -0.3155  0.1883  0.1639
  178SLPC  H17X20311   5.956   6.311  -1.428 -2.2868  0.7768 -0.8266
  178SLPC  H17Y20312   5.994   6.163  -1.517  1.2260  0.1256  0.1141
  178SLPC  C31820313   5.893   6.326  -1.622 -0.2158 -0.5214  0.3553
  178SLPC  H18X20314   5.793   6.316  -1.575 -0.1947  1.2515  0.8422
  178SLPC  H18Y20315   5.894   6.273  -1.720 -1.9257  0.7801 -0.4039
  178SLPC  H18Z20316   5.915   6.430  -1.653  1.2697 -1.6427 -2.7681
  179SLPC     N20317   5.522   6.197   4.158 -0.4708 -0.0465  0.2855
  179SLPC   C1320318   5.594   6.147   4.039  0.0223  0.2132 -0.1095
  179SLPC  H13A20319   5.535   6.156   3.949 -1.4542 -0.0950  0.7871
  179SLPC  H13B20320   5.686   6.197   4.015  0.7829 -1.2180 -0.3005
  179SLPC  H13C20321   5.621   6.043   4.048 -0.2326  0.2554  1.4198
  179SLPC   C1420322   5.407   6.111   4.182 -0.1759  0.0928 -1.0617
  179SLPC  H14A20323   5.437   6.007   4.179  0.5652  0.2746 -0.1893
  179SLPC  H14B20324   5.359   6.136   4.275 -0.2892  0.9906 -1.3556
  179SLPC  H14C20325   5.334   6.127   4.104  0.0526  1.4391 -1.0147
  179SLPC   C1520326   5.469   6.331   4.126  0.1400 -0.7738  0.7241
  179SLPC  H15A20327   5.425   6.334   4.028 -0.0283  0.5091  0.8106
  179SLPC  H15B20328   5.387   6.357   4.192 -1.3866 -4.1348  0.3398
  179SLPC  H15C20329   5.549   6.403   4.119  0.5939 -1.3690 -0.3693
  179SLPC   C1220330   5.617   6.190   4.288  0.3462 -0.2820  0.0566
  179SLPC  H12A20331   5.654   6.089   4.295  1.1248 -0.0972 -1.0110
  179SLPC  H12B20332   5.558   6.207   4.377  0.2978  0.1168 -0.0486
  179SLPC   C1120333   5.740   6.282   4.296  0.0446 -0.1137 -0.3644
  179SLPC  H11A20334   5.807   6.235   4.221  1.4028 -1.4907  1.6155
  179SLPC  H11B20335   5.800   6.266   4.388 -0.1212  2.6373  0.3033
  179SLPC     P20336   5.657   6.528   4.367 -0.5512  0.0971 -0.1093
  179SLPC   O1320337   5.689   6.657   4.303 -0.1878 -0.4971  0.3241
  179SLPC   O1420338   5.518   6.512   4.409 -0.0400 -0.2073  0.4167
  179SLPC   O1220339   5.710   6.422   4.263 -0.1837  0.1982 -0.7047
  179SLPC   O1120340   5.742   6.495   4.497  0.2147 -0.2517  0.6468
  179SLPC    C120341   5.882   6.528   4.516  0.0219 -0.1228  0.5521
  179SLPC    HA20342   5.942   6.435   4.521  1.2295  0.6869  1.7962
  179SLPC    HB20343   5.930   6.578   4.429  0.7711 -1.6569  0.0296
  179SLPC    C220344   5.912   6.604   4.650 -0.5249 -0.1479  0.6165
  179SLPC    HS20345   6.020   6.631   4.651  0.1402 -2.5261 -0.0413
  179SLPC   O2120346   5.882   6.528   4.768 -0.2296  0.5167 -0.3357
  179SLPC   C2120347   5.970   6.432   4.798  0.3246  0.3525  0.4964
  179SLPC   O2220348   6.070   6.406   4.733  0.1279 -0.1248  0.1428
  179SLPC   C2220349   5.936   6.366   4.923 -0.4321  0.8270  0.1021
  179SLPC   H2R20350   5.849   6.299   4.908  0.2902  0.0049 -0.4891
  179SLPC   H2S20351   6.018   6.295   4.946 -0.4225 -0.6219 -3.7732
  179SLPC    C320352   5.835   6.739   4.645 -0.9153 -0.6576  0.0338
  179SLPC    HX20353   5.728   6.716   4.666 -1.3833  0.5527 -0.8639
  179SLPC    HY20354   5.841   6.781   4.542 -1.7255 -0.6558 -0.0216
  179SLPC   O3120355   5.889   6.832   4.734 -0.3624 -0.0470  0.0787
  179SLPC   C3120356   5.834   6.856   4.853  0.4608  0.2882 -0.3475
  179SLPC   O3220357   5.739   6.792   4.897  0.0207 -0.3676 -0.1170
  179SLPC   C3220358   5.914   6.949   4.949  0.1078  0.2091  0.5037
  179SLPC   H2X20359   5.877   7.051   4.926  0.7524  0.3281 -0.0469
  179SLPC   H2Y20360   6.017   6.935   4.911  0.8000 -1.5460  2.8470
  179SLPC   C2320361   5.912   6.463   5.041 -0.1308 -0.4182 -0.3569
  179SLPC   H3R20362   5.820   6.521   5.021  0.0575 -0.5701 -1.7538
  179SLPC   H3S20363   5.993   6.539   5.053 -0.9389  0.3433  0.3979
  179SLPC   C2420364   5.888   6.400   5.178  0.5830 -0.0646 -0.4751
  179SLPC   H4R20365   5.977   6.343   5.214  0.1275 -0.6370 -0.2458
  179SLPC   H4S20366   5.797   6.337   5.175 -0.1201  0.9488 -2.7381
  179SLPC   C2520367   5.853   6.506   5.294  0.4914  0.1647 -0.6018
  179SLPC   H5R20368   5.762   6.565   5.268  0.3682  0.7203  0.9768
  179SLPC   H5S20369   5.939   6.574   5.315  0.6996 -0.8427  2.2946
  179SLPC   C2620370   5.817   6.435   5.427  0.0130  0.0482 -0.3710
  179SLPC   H6R20371   5.900   6.365   5.445 -0.1291 -0.1550 -0.4979
  179SLPC   H6S20372   5.722   6.377   5.419 -2.1416  3.0750  0.8601
  179SLPC   C2720373   5.805   6.525   5.544  0.1554  0.2253 -0.2072
  179SLPC   H7R20374   5.720   6.594   5.528  0.4029  0.4505 -0.5752
  179SLPC   H7S20375   5.893   6.594   5.544  1.6562 -1.6248 -0.3940
  179SLPC   C2820376   5.790   6.470   5.687 -0.3293  0.0170 -0.8812
  179SLPC   H8R20377   5.812   6.556   5.754 -0.0113 -1.0842  0.4696
  179SLPC   H8S20378   5.870   6.394   5.699  0.9401  0.7577 -3.8158
  179SLPC   C2920379   5.653   6.415   5.715  0.0996  0.7505  0.4269
  179SLPC   H9R20380   5.627   6.328   5.652  0.9482  0.8751 -0.1071
  179SLPC  C21020381   5.554   6.479   5.779  0.3251 -0.1595  1.4971
  179SLPC  H10R20382   5.452   6.439   5.771 -0.3179  1.7183 -1.1055
  179SLPC  C21120383   5.559   6.617   5.848  0.2316 -0.8280  0.3570
  179SLPC  H11R20384   5.608   6.696   5.787  0.7197  0.9877  2.9273
  179SLPC  H11S20385   5.636   6.615   5.929  1.1902 -0.1378 -0.5100
  179SLPC  C21220386   5.423   6.669   5.906  0.0201  0.1825  0.8653
  179SLPC  H12R20387   5.333   6.613   5.875  2.2092 -3.3492  0.4209
  179SLPC  C21320388   5.409   6.785   5.973 -1.0707 -0.4034 -0.3196
  179SLPC  H13R20389   5.310   6.817   6.009 -0.7615 -0.1226  0.3004
  179SLPC  C21420390   5.527   6.868   6.021 -0.0344 -0.2989  0.5553
  179SLPC  H14R20391   5.613   6.835   5.958 -3.3757 -2.2214 -3.4957
  179SLPC  H14S20392   5.546   6.838   6.126  0.8571  1.3047  0.8850
  179SLPC  C21520393   5.498   7.021   6.014 -0.0496 -0.3541  0.1486
  179SLPC  H15R20394   5.584   7.069   6.064  0.7738  1.5921 -2.8527
  179SLPC  H15S20395   5.407   7.054   6.069 -1.7721 -1.3863 -1.9310
  179SLPC  C21620396   5.502   7.084   5.875 -0.0974 -0.0631  0.1378
  179SLPC  H16R20397   5.508   7.195   5.885  0.6305 -0.2295  1.8958
  179SLPC  H16S20398   5.398   7.071   5.836 -0.2942  1.5779  0.0335
  179SLPC  C21720399   5.606   7.016   5.772  0.6088 -0.4419  0.2802
  179SLPC  H17R20400   5.598   6.906   5.775 -0.4809 -0.3930 -0.1593
  179SLPC  H17S20401   5.701   7.037   5.825 -0.0351 -0.4753  1.4765
  179SLPC  C21820402   5.583   7.081   5.635  0.0102 -0.4278  0.3056
  179SLPC  H18R20403   5.653   7.044   5.558 -1.4897  0.7128 -1.7028
  179SLPC  H18S20404   5.585   7.191   5.626 -1.3046 -0.4279 -0.2150
  179SLPC  H18T20405   5.493   7.044   5.581  0.7130  1.0390 -2.0367
  179SLPC   C3320406   5.880   6.911   5.096 -0.2945 -0.3026 -0.5307
  179SLPC   H3X20407   5.914   6.808   5.116  0.8632  0.3647  1.2337
  179SLPC   H3Y20408   5.772   6.928   5.116 -0.8876 -2.6867 -1.4636
  179SLPC   C3420409   5.976   6.989   5.191 -0.6031 -0.0589  0.4904
  179SLPC   H4X20410   5.940   7.094   5.195  2.4479  1.0768  1.3149
  179SLPC   H4Y20411   6.078   6.980   5.148 -0.5137  2.4157  0.0587
  179SLPC   C3520412   5.961   6.916   5.325  0.2821 -0.6399 -0.0095
  179SLPC   H5X20413   5.856   6.880   5.325  0.8498 -2.4403  1.2051
  179SLPC   H5Y20414   6.028   6.827   5.318 -1.1475 -1.7406 -0.2012
  179SLPC   C3620415   5.978   7.002   5.454 -0.3118 -0.0123 -0.3678
  179SLPC   H6X20416   5.878   7.045   5.478 -1.7224 -2.2958 -1.7964
  179SLPC   H6Y20417   6.046   7.088   5.439  0.8463 -0.1025  3.2637
  179SLPC   C3720418   6.005   6.912   5.573 -0.4958 -0.9966 -0.4087
  179SLPC   H7X20419   6.080   6.837   5.539 -0.2609  0.0833 -2.4243
  179SLPC   H7Y20420   5.916   6.848   5.590 -1.3352 -0.6189 -2.9643
  179SLPC   C3820421   6.044   6.981   5.697  0.4233 -0.1383 -0.6311
  179SLPC   H8X20422   5.957   7.043   5.728 -0.0766  0.8278 -3.6567
  179SLPC   H8Y20423   6.134   7.043   5.673  0.3154 -0.4395 -1.8847
  179SLPC   C3920424   6.067   6.877   5.803  0.3517  0.5160 -0.8020
  179SLPC   H9X20425   6.152   6.815   5.769  1.7653  2.7826 -1.6337
  179SLPC   H9Y20426   5.978   6.811   5.815  0.6432  0.0386 -1.2485
  179SLPC  C31020427   6.096   6.940   5.940 -0.1724  0.2021  0.2856
  179SLPC  H10X20428   6.012   7.009   5.962  0.0239  0.8301 -0.8108
  179SLPC  H10Y20429   6.184   7.008   5.933 -1.9840  2.9917  2.4337
  179SLPC  C31120430   6.083   6.838   6.057 -0.1942 -0.1976 -0.3187
  179SLPC  H11X20431   6.163   6.762   6.047  1.1881  1.1393  0.2783
  179SLPC  H11Y20432   5.984   6.787   6.049  0.9233 -2.2937 -1.7506
  179SLPC  C31220433   6.099   6.923   6.188 -0.5751  0.0439  0.2372
  179SLPC  H12X20434   6.018   6.999   6.197 -1.3297 -0.4245 -1.9661
  179SLPC  H12Y20435   6.192   6.984   6.186  0.2086 -1.0547  1.4144
  179SLPC  C31320436   6.110   6.828   6.310 -0.3229 -0.4712  0.1425
  179SLPC  H13X20437   6.174   6.882   6.382 -0.0021 -0.9787  0.2418
  179SLPC  H13Y20438   6.169   6.740   6.276 -0.4423  0.1304 -1.7030
  179SLPC  C31420439   5.972   6.792   6.372 -1.1758  0.0404 -0.2197
  179SLPC  H14X20440   5.898   6.747   6.302 -0.1608 -1.0270 -0.6368
  179SLPC  H14Y20441   5.935   6.894   6.399 -0.0021 -0.1159  2.1648
  179SLPC  C31520442   6.001   6.707   6.498  0.1990 -0.2195  0.6948
  179SLPC  H15X20443   6.063   6.764   6.571 -1.5259 -0.4379  2.4314
  179SLPC  H15Y20444   6.053   6.615   6.463  0.7013  0.1550  0.4381
  179SLPC  C31620445   5.874   6.668   6.573 -0.5504 -0.1792  0.2617
  179SLPC  H16X20446   5.825   6.759   6.613 -0.8183  0.0239 -0.5123
  179SLPC  H16Y20447   5.906   6.606   6.659  1.4430 -1.5653 -1.3591
  179SLPC  C31720448   5.765   6.585   6.499  0.2073  0.8079 -0.2832
  179SLPC  H17X20449   5.826   6.503   6.455  0.2456  0.0240  1.1758
  179SLPC  H17Y20450   5.716   6.642   6.417  0.9091  0.5951 -0.8655
  179SLPC  C31820451   5.667   6.514   6.591  0.2983 -0.3423 -0.6947
  179SLPC  H18X20452   5.642   6.412   6.553  1.0330 -0.8214  0.0750
  179SLPC  H18Y20453   5.573   6.571   6.605 -1.1464 -2.5559 -0.7709
  179SLPC  H18Z20454   5.702   6.503   6.696  1.5941  1.1821 -0.9257
  180SLPC     N20455   1.912   3.674   4.318  0.1791 -0.3985  0.5253
  180SLPC   C1320456   1.895   3.526   4.315  0.0107 -1.0301 -0.2015
  180SLPC  H13A20457   1.796   3.490   4.339 -0.2049 -0.0299  0.4544
  180SLPC  H13B20458   1.915   3.489   4.216  2.5291  0.8170 -0.4734
  180SLPC  H13C20459   1.963   3.484   4.388  1.4247  0.0068 -0.8819
  180SLPC   C1420460   1.814   3.734   4.221  0.0667  0.1139  0.2207
  180SLPC  H14A20461   1.831   3.701   4.119  1.3449 -1.9269  1.0420
  180SLPC  H14B20462   1.713   3.711   4.250 -0.1799  0.9151  0.0383
  180SLPC  H14C20463   1.825   3.841   4.233 -0.1645  0.1510  0.1193
  180SLPC   C1520464   2.044   3.715   4.267 -0.0312  0.1445  0.2153
  180SLPC  H15A20465   2.025   3.806   4.212 -1.5563 -0.2725 -0.0105
  180SLPC  H15B20466   2.114   3.748   4.343 -1.0907 -0.1018  1.3369
  180SLPC  H15C20467   2.093   3.650   4.197 -0.9349 -0.6207  0.2808
  180SLPC   C1220468   1.880   3.731   4.455  0.2089  0.3398  0.7930
  180SLPC  H12A20469   1.781   3.697   4.477 -0.0171  1.3834  1.4798
  180SLPC  H12B20470   1.874   3.839   4.443 -0.0625  0.2279 -0.1542
  180SLPC   C1120471   1.985   3.703   4.566  0.1797  0.0834  0.3244
  180SLPC  H11A20472   2.012   3.598   4.587 -2.1221 -0.5310  0.3968
  180SLPC  H11B20473   1.946   3.736   4.664 -2.1508 -2.7718  0.4783
  180SLPC     P20474   2.145   3.917   4.578 -0.3960  0.0223  0.1868
  180SLPC   O1320475   2.261   3.964   4.501  0.5111 -0.2485 -0.4333
  180SLPC   O1420476   2.028   3.997   4.566  0.7965 -0.5827  0.7875
  180SLPC   O1220477   2.115   3.763   4.541 -0.2839  0.4669 -0.0432
  180SLPC   O1120478   2.192   3.915   4.726 -0.5376 -0.0821 -0.3095
  180SLPC    C120479   2.318   3.858   4.762  0.2096  0.3101  0.3495
  180SLPC    HA20480   2.325   3.756   4.719 -0.4791  0.3587  0.1206
  180SLPC    HB20481   2.406   3.918   4.730  1.1983 -1.8954 -1.3416
  180SLPC    C220482   2.329   3.840   4.920 -0.3082  0.4999  0.3572
  180SLPC    HS20483   2.419   3.778   4.940 -0.9651 -0.6551 -0.1740
  180SLPC   O2120484   2.209   3.771   4.958  0.0338 -0.1352  0.7394
  180SLPC   C2120485   2.217   3.638   4.940  0.3788 -1.0781 -0.5687
  180SLPC   O2220486   2.317   3.574   4.921 -0.0471  0.0034 -0.0544
  180SLPC   C2220487   2.074   3.580   4.931  0.5483  0.6953 -0.4621
  180SLPC   H2R20488   2.015   3.650   4.994 -0.5438 -0.7096  0.1383
  180SLPC   H2S20489   2.040   3.592   4.825  1.2688 -0.9344 -0.9150
  180SLPC    C320490   2.352   3.969   5.003 -0.4406  0.4635  0.1653
  180SLPC    HX20491   2.277   4.047   4.975  2.0190  3.3972  1.1278
  180SLPC    HY20492   2.445   4.018   4.966  1.0669 -1.5331  1.1658
  180SLPC   O3120493   2.353   3.939   5.143  0.1283 -0.0182  0.3168
  180SLPC   C3120494   2.476   3.908   5.200 -0.1521  0.2730  0.0452
  180SLPC   O3220495   2.584   3.914   5.133  0.2003  0.3835 -0.5877
  180SLPC   C3220496   2.471   3.862   5.350 -0.4323  0.0925 -0.4722
  180SLPC   H2X20497   2.512   3.760   5.337 -0.1701  0.0611  0.5030
  180SLPC   H2Y20498   2.365   3.870   5.384 -0.1795  1.0009  0.1653
  180SLPC   C2320499   2.054   3.430   4.965  0.4654  0.1431  0.5926
  180SLPC   H3R20500   2.127   3.372   4.905 -0.4118  1.2296 -1.6279
  180SLPC   H3S20501   1.951   3.402   4.933  0.9762  0.6960 -1.6918
  180SLPC   C2420502   2.074   3.413   5.118  0.2851 -0.3203  0.2079
  180SLPC   H4R20503   2.177   3.447   5.142  0.1389  1.0432 -0.9496
  180SLPC   H4S20504   2.068   3.308   5.153 -1.3506  0.1004  1.2931
  180SLPC   C2520505   1.972   3.487   5.205  0.1588 -0.0108  0.1406
  180SLPC   H5R20506   1.869   3.449   5.192 -0.0195 -0.0115  1.4100
  180SLPC   H5S20507   1.975   3.597   5.194  2.0424  0.1919  2.0208
  180SLPC   C2620508   2.007   3.458   5.355 -0.6466 -0.0250 -0.1722
  180SLPC   H6R20509   2.097   3.521   5.368 -0.1526 -0.3427 -1.8726
  180SLPC   H6S20510   2.044   3.354   5.364  0.4718  0.3039 -0.8416
  180SLPC   C2720511   1.896   3.483   5.456 -0.3636 -0.1784 -0.1943
  180SLPC   H7R20512   1.814   3.414   5.426 -1.8101  1.6728 -0.6607
  180SLPC   H7S20513   1.857   3.587   5.461 -1.1693 -0.5216  2.1407
  180SLPC   C2820514   1.922   3.432   5.604 -0.6126 -0.4543  0.2856
  180SLPC   H8R20515   2.031   3.445   5.621 -0.7512  1.1391  0.1348
  180SLPC   H8S20516   1.915   3.321   5.601 -0.4654 -0.4439 -1.0483
  180SLPC   C2920517   1.839   3.489   5.718 -0.1676  0.1463  0.8115
  180SLPC   H9R20518   1.735   3.454   5.725  0.2343 -1.2511  0.1858
  180SLPC  C21020519   1.885   3.562   5.816  0.6347 -0.2598  0.8684
  180SLPC  H10R20520   1.815   3.604   5.889 -2.8350 -1.9318 -1.1939
  180SLPC  C21120521   2.031   3.612   5.822  0.3659 -0.2900  0.2517
  180SLPC  H11R20522   2.042   3.695   5.749 -1.4912  0.9994  1.3249
  180SLPC  H11S20523   2.096   3.536   5.775 -0.3007 -0.3486 -0.6135
  180SLPC  C21220524   2.089   3.652   5.957 -0.0141  0.4998 -0.2597
  180SLPC  H12R20525   2.071   3.756   5.987  0.8295  0.0126  2.1390
  180SLPC  C21320526   2.167   3.575   6.033 -0.1527 -0.1215 -0.2206
  180SLPC  H13R20527   2.192   3.610   6.134 -0.3637  0.2432 -0.2958
  180SLPC  C21420528   2.216   3.433   6.013  0.1743  0.3551 -0.0914
  180SLPC  H14R20529   2.204   3.396   5.908 -1.2882 -0.3254  0.2926
  180SLPC  H14S20530   2.147   3.372   6.074  1.2873 -0.3455  0.5063
  180SLPC  C21520531   2.364   3.411   6.049 -0.3888 -0.1025 -0.5496
  180SLPC  H15R20532   2.392   3.461   6.144 -1.2760  0.7670 -0.7300
  180SLPC  H15S20533   2.421   3.478   5.981  0.3444 -2.1429 -2.0278
  180SLPC  C21620534   2.432   3.270   6.040 -0.5704  0.0584  0.1859
  180SLPC  H16R20535   2.373   3.201   6.103  1.7384 -0.8877  1.4571
  180SLPC  H16S20536   2.533   3.273   6.087 -1.2410 -0.8555  1.7290
  180SLPC  C21720537   2.430   3.222   5.892 -0.3769  0.4915  0.3329
  180SLPC  H17R20538   2.479   3.299   5.828  1.3926 -2.0249 -1.5541
  180SLPC  H17S20539   2.325   3.199   5.866  0.5960 -3.3044 -0.8658
  180SLPC  C21820540   2.502   3.079   5.866 -0.7599 -0.3196  0.2451
  180SLPC  H18R20541   2.469   3.006   5.943 -1.6637 -0.4912 -0.2926
  180SLPC  H18S20542   2.611   3.096   5.853 -0.8410 -1.3915 -2.4176
  180SLPC  H18T20543   2.470   3.035   5.770 -1.2991  0.2793  0.1425
  180SLPC   C3320544   2.564   3.933   5.454  0.0566 -0.6002  0.2906
  180SLPC   H3X20545   2.545   3.882   5.551  0.8299  0.0126  0.7749
  180SLPC   H3Y20546   2.542   4.042   5.455 -0.2983 -0.6506 -0.7451
  180SLPC   C3420547   2.710   3.913   5.433  0.1800 -0.0793  0.0793
  180SLPC   H4X20548   2.756   3.974   5.352 -2.3302  1.8317 -0.0210
  180SLPC   H4Y20549   2.723   3.805   5.414 -0.8061 -0.6113  2.1211
  180SLPC   C3520550   2.799   3.918   5.562  0.1134 -0.1907  0.3607
  180SLPC   H5X20551   2.747   3.868   5.647 -0.0915  0.1874  0.4610
  180SLPC   H5Y20552   2.820   4.024   5.588 -0.6381  0.0006  0.2042
  180SLPC   C3620553   2.929   3.836   5.553 -0.3339  0.0165 -0.3173
  180SLPC   H6X20554   2.907   3.728   5.534 -0.6671 -0.6990  3.3219
  180SLPC   H6Y20555   2.981   3.839   5.652  0.9028 -0.3132 -0.9354
  180SLPC   C3720556   3.024   3.894   5.444 -0.2797 -0.1940  0.6320
  180SLPC   H7X20557   3.040   4.003   5.460  1.5754 -0.1206 -1.2779
  180SLPC   H7Y20558   2.978   3.880   5.344  0.9679  1.8594 -0.2970
  180SLPC   C3820559   3.154   3.823   5.445  0.5821  0.4467  0.4288
  180SLPC   H8X20560   3.123   3.720   5.418  1.0201 -0.0298  1.6474
  180SLPC   H8Y20561   3.196   3.821   5.548  2.9972  1.0104 -0.4692
  180SLPC   C3920562   3.255   3.891   5.358 -0.3524  0.4404 -0.3244
  180SLPC   H9X20563   3.260   3.997   5.392 -0.0138  1.2935 -2.7761
  180SLPC   H9Y20564   3.223   3.891   5.252 -1.7190 -0.4487  0.0724
  180SLPC  C31020565   3.397   3.833   5.353 -0.2958 -0.1415  0.8414
  180SLPC  H10X20566   3.409   3.761   5.269  3.2790 -0.7633  1.7177
  180SLPC  H10Y20567   3.429   3.786   5.448  0.5169 -0.7171  0.2926
  180SLPC  C31120568   3.499   3.944   5.325  0.4770  0.4572  0.2782
  180SLPC  H11X20569   3.492   4.021   5.404 -2.0649 -0.4667  1.0354
  180SLPC  H11Y20570   3.471   3.994   5.230  0.1297 -0.3440 -0.0506
  180SLPC  C31220571   3.649   3.896   5.312 -0.3151 -0.0992 -0.7898
  180SLPC  H12X20572   3.644   3.828   5.224  0.7800 -1.0850 -0.1199
  180SLPC  H12Y20573   3.682   3.851   5.408 -0.4495 -2.8883 -1.9739
  180SLPC  C31320574   3.743   4.017   5.291  0.3292  0.4530  0.2570
  180SLPC  H13X20575   3.717   4.070   5.197 -1.0968  0.0861  0.4315
  180SLPC  H13Y20576   3.847   3.978   5.282  0.1000 -0.1740  0.3318
  180SLPC  C31420577   3.751   4.129   5.394 -0.5916  0.1834 -0.0232
  180SLPC  H14X20578   3.667   4.202   5.392 -0.0390  0.8827  1.3610
  180SLPC  H14Y20579   3.851   4.175   5.384 -0.3487 -0.2385  0.4077
  180SLPC  C31520580   3.760   4.073   5.538  0.0286 -0.8653  0.0580
  180SLPC  H15X20581   3.841   3.997   5.540  1.5592  0.6945  0.2770
  180SLPC  H15Y20582   3.659   4.031   5.557 -0.1196 -1.4531 -1.8384
  180SLPC  C31620583   3.795   4.160   5.661  0.5321  0.4493  0.6380
  180SLPC  H16X20584   3.726   4.246   5.658  1.9112  1.5619  0.0179
  180SLPC  H16Y20585   3.897   4.200   5.642  0.6211  1.0658  2.2158
  180SLPC  C31720586   3.802   4.081   5.791  0.6484  0.0180  0.4962
  180SLPC  H17X20587   3.874   3.996   5.793 -0.5425 -1.0124  0.6415
  180SLPC  H17Y20588   3.705   4.026   5.800  1.1458 -1.8142 -3.1907
  180SLPC  C31820589   3.821   4.152   5.928 -0.9722  0.0785  0.5062
  180SLPC  H18X20590   3.922   4.197   5.915 -0.2876 -1.4300  0.4109
  180SLPC  H18Y20591   3.823   4.078   6.010  0.1557 -0.8687 -0.3381
  180SLPC  H18Z20592   3.752   4.239   5.933  0.1476  1.2467 -2.2943
  181SLPC     N20593   3.967   6.163   4.213 -0.1082  0.1163  0.3636
  181SLPC   C1320594   3.892   6.041   4.176  0.6100  0.0984 -0.1434
  181SLPC  H13A20595   3.950   5.965   4.126 -1.7589 -0.9239 -1.5437
  181SLPC  H13B20596   3.839   5.992   4.257 -0.6361 -0.0030 -0.9832
  181SLPC  H13C20597   3.809   6.065   4.110 -0.7737 -2.0500  0.6995
  181SLPC   C1420598   3.867   6.252   4.283 -0.1250 -0.3655 -0.1313
  181SLPC  H14A20599   3.910   6.349   4.302  0.1461 -0.1020 -1.8766
  181SLPC  H14B20600   3.779   6.254   4.220  0.9912 -2.0497 -1.8498
  181SLPC  H14C20601   3.842   6.203   4.376  3.3510 -1.5314  0.3162
  181SLPC   C1520602   4.006   6.234   4.084  0.0428  0.0108  0.2221
  181SLPC  H15A20603   3.918   6.261   4.027  0.3134  0.1449 -0.1343
  181SLPC  H15B20604   4.059   6.327   4.096  1.4234 -0.5715 -1.0834
  181SLPC  H15C20605   4.073   6.173   4.026  1.6821  0.0776  1.9617
  181SLPC   C1220606   4.090   6.134   4.303 -0.3163  0.4286 -0.6688
  181SLPC  H12A20607   4.048   6.070   4.380  1.0281 -2.8923 -2.4972
  181SLPC  H12B20608   4.129   6.229   4.337  0.8251  1.3677 -4.2089
  181SLPC   C1120609   4.208   6.050   4.244 -0.4080  0.3395 -0.5070
  181SLPC  H11A20610   4.304   6.054   4.301 -0.3465  0.8845 -0.6441
  181SLPC  H11B20611   4.244   6.084   4.145  0.6114  0.2833 -0.1711
  181SLPC     P20612   4.159   5.817   4.358 -0.2076  0.0600  0.0787
  181SLPC   O1320613   4.095   5.692   4.311 -0.4616 -0.4538  0.1462
  181SLPC   O1420614   4.298   5.814   4.412  0.1953  0.2724  0.9258
  181SLPC   O1220615   4.170   5.911   4.230  0.0546  0.6161  0.2376
  181SLPC   O1120616   4.062   5.900   4.458 -0.4548 -0.6304 -0.2237
  181SLPC    C120617   4.094   5.935   4.594  0.0371  0.6089  0.1116
  181SLPC    HA20618   4.189   5.993   4.593  0.3828  0.2612 -3.8672
  181SLPC    HB20619   4.014   6.001   4.634 -0.9796 -1.0819  0.9990
  181SLPC    C220620   4.097   5.810   4.685  0.2589 -0.8399  0.2983
  181SLPC    HS20621   4.184   5.748   4.654  0.5799  0.0776 -0.7279
  181SLPC   O2120622   3.978   5.724   4.678 -0.0475 -0.0206 -0.0975
  181SLPC   C2120623   3.989   5.592   4.687  0.2423  0.2697 -0.2454
  181SLPC   O2220624   4.088   5.523   4.673 -0.1617  0.4500 -0.3654
  181SLPC   C2220625   3.846   5.545   4.710 -0.9663  0.4629 -0.0744
  181SLPC   H2R20626   3.775   5.630   4.714 -0.5834  0.7876 -0.1213
  181SLPC   H2S20627   3.830   5.483   4.620  2.9158  0.8724 -1.2071
  181SLPC    C320628   4.127   5.853   4.830  0.0891  0.3378  0.2809
  181SLPC    HX20629   4.044   5.919   4.863 -1.2975 -0.4691 -1.4392
  181SLPC    HY20630   4.213   5.923   4.829  1.5690 -1.4208 -0.5928
  181SLPC   O3120631   4.140   5.744   4.927  0.1813  0.1821  1.2608
  181SLPC   C3120632   4.262   5.683   4.924 -0.2018  0.0902  0.2108
  181SLPC   O3220633   4.356   5.720   4.857  0.0114  0.0063  0.2821
  181SLPC   C3220634   4.251   5.553   5.014 -0.4964 -0.3859  0.4074
  181SLPC   H2X20635   4.200   5.484   4.943 -0.6502  0.8318 -0.7175
  181SLPC   H2Y20636   4.194   5.576   5.106 -1.7125  3.3128 -1.0632
  181SLPC   C2320637   3.844   5.443   4.828  0.7175 -0.9486 -0.4511
  181SLPC   H3R20638   3.934   5.377   4.825  0.8079 -0.8245 -0.4411
  181SLPC   H3S20639   3.755   5.377   4.815  1.3060 -1.3157 -3.1344
  181SLPC   C2420640   3.836   5.502   4.970  0.2113  0.7485 -0.0969
  181SLPC   H4R20641   3.759   5.582   4.976 -0.9692 -0.3279 -0.2693
  181SLPC   H4S20642   3.936   5.549   4.973  0.0923  0.9853  2.7271
  181SLPC   C2520643   3.812   5.395   5.077  0.0033  0.1077 -0.5720
  181SLPC   H5R20644   3.886   5.316   5.052  1.1186  1.3959 -1.4619
  181SLPC   H5S20645   3.708   5.359   5.059  0.5340 -1.5398 -0.4947
  181SLPC   C2620646   3.857   5.455   5.220  0.3644  1.3285 -0.3934
  181SLPC   H6R20647   3.785   5.534   5.249 -1.3405 -0.2309 -0.2185
  181SLPC   H6S20648   3.952   5.511   5.208  0.9533 -0.1464 -3.8957
  181SLPC   C2720649   3.891   5.350   5.326 -0.0261  0.2791  0.5210
  181SLPC   H7R20650   3.955   5.273   5.277 -0.0689 -0.7220  1.9818
  181SLPC   H7S20651   3.795   5.303   5.355 -0.0058 -1.2114 -1.5767
  181SLPC   C2820652   3.957   5.416   5.448 -0.2270 -0.2010  1.0142
  181SLPC   H8R20653   4.050   5.474   5.427 -1.1806  1.8951  2.2771
  181SLPC   H8S20654   3.997   5.349   5.527 -0.7735  0.0662  1.5248
  181SLPC   C2920655   3.851   5.506   5.504  0.2003 -0.0341 -0.7851
  181SLPC   H9R20656   3.755   5.453   5.516  0.9760 -1.5797 -1.2139
  181SLPC  C21020657   3.864   5.638   5.537  0.7103  0.3738  0.6442
  181SLPC  H10R20658   3.784   5.690   5.592 -1.8265 -0.2777 -2.1671
  181SLPC  C21120659   3.986   5.723   5.529  0.2453  0.2170  0.2303
  181SLPC  H11R20660   4.072   5.652   5.525 -2.1156 -2.8284 -2.2468
  181SLPC  H11S20661   3.993   5.775   5.627 -1.0383 -0.3272  0.6281
  181SLPC  C21220662   3.973   5.829   5.427  0.2774  0.9458  0.0378
  181SLPC  H12R20663   3.873   5.856   5.391 -0.0602 -0.9602 -0.5770
  181SLPC  C21320664   4.076   5.890   5.374  0.3694 -0.9618 -0.6046
  181SLPC  H13R20665   4.066   5.965   5.295  1.9530 -0.7104 -0.6086
  181SLPC  C21420666   4.217   5.884   5.422 -0.1241  0.2605 -0.3706
  181SLPC  H14R20667   4.272   5.870   5.327 -0.5625  0.0292 -0.5941
  181SLPC  H14S20668   4.230   5.807   5.501 -1.2742  2.4956  2.1573
  181SLPC  C21520669   4.240   6.021   5.486 -0.1424 -0.3194 -0.3051
  181SLPC  H15R20670   4.161   6.030   5.563 -0.7707  1.2070 -1.0825
  181SLPC  H15S20671   4.224   6.103   5.413  1.1462  0.1570 -0.0693
  181SLPC  C21620672   4.382   6.030   5.542  0.8747  0.1982  0.5201
  181SLPC  H16R20673   4.450   6.013   5.455 -0.6004  0.0237 -0.6282
  181SLPC  H16S20674   4.404   5.945   5.611  0.5619 -0.5112 -0.2454
  181SLPC  C21720675   4.408   6.166   5.608  0.4952 -1.2260  0.7000
  181SLPC  H17R20676   4.374   6.237   5.530  0.3741 -1.2437  0.7372
  181SLPC  H17S20677   4.514   6.183   5.637  0.7576 -0.2039 -0.7702
  181SLPC  C21820678   4.338   6.189   5.743  0.6111  0.3742 -0.3872
  181SLPC  H18R20679   4.228   6.183   5.733  0.5472 -0.0746  0.5044
  181SLPC  H18S20680   4.370   6.280   5.799 -1.7812  0.0572  1.6882
  181SLPC  H18T20681   4.367   6.102   5.806 -0.9551  0.6242  0.7308
  181SLPC   C3320682   4.389   5.497   5.049 -0.2544 -0.1145 -0.1156
  181SLPC   H3X20683   4.461   5.518   4.967  0.8518 -0.3670  0.7640
  181SLPC   H3Y20684   4.371   5.389   5.067  0.4886 -0.1452  0.4679
  181SLPC   C3420685   4.448   5.562   5.182 -0.3663  0.1349  0.3911
  181SLPC   H4X20686   4.409   5.665   5.190  0.4860  0.5501 -0.5826
  181SLPC   H4Y20687   4.558   5.571   5.173 -0.5440  0.9985 -1.4895
  181SLPC   C3520688   4.401   5.484   5.302  0.0458  0.2399  0.8469
  181SLPC   H5X20689   4.434   5.378   5.288  0.0785  0.2471  0.8713
  181SLPC   H5Y20690   4.292   5.478   5.323  0.4845  1.5753  4.0474
  181SLPC   C3620691   4.467   5.515   5.433 -0.5337 -0.0371 -0.0168
  181SLPC   H6X20692   4.471   5.624   5.452 -0.9704 -0.0375  0.0840
  181SLPC   H6Y20693   4.569   5.480   5.407 -0.3228  0.4506  0.1553
  181SLPC   C3720694   4.402   5.446   5.557 -0.5795 -0.4364 -0.0699
  181SLPC   H7X20695   4.405   5.337   5.539  2.4430 -0.7442  1.6629
  181SLPC   H7Y20696   4.294   5.469   5.564 -0.6257 -0.5175 -0.4769
  181SLPC   C3820697   4.482   5.482   5.682  0.3501 -0.2452  0.2641
  181SLPC   H8X20698   4.528   5.579   5.656 -0.9875 -0.2831 -2.5619
  181SLPC   H8Y20699   4.566   5.408   5.687  0.2960 -0.3381 -0.2277
  181SLPC   C3920700   4.409   5.472   5.816  0.4785 -0.3447  0.7125
  181SLPC   H9X20701   4.484   5.458   5.897  2.2921 -0.8711 -0.9629
  181SLPC   H9Y20702   4.355   5.376   5.804  0.9441 -0.3524 -1.8077
  181SLPC  C31020703   4.317   5.589   5.834  0.3858  0.1498  0.4029
  181SLPC  H10X20704   4.226   5.577   5.770 -1.2771  2.1443  2.1970
  181SLPC  H10Y20705   4.370   5.684   5.810 -0.6770  0.5727 -0.4028
  181SLPC  C31120706   4.271   5.596   5.974  1.0000 -0.2380  0.1092
  181SLPC  H11X20707   4.357   5.620   6.041  0.5251  2.7081 -0.2096
  181SLPC  H11Y20708   4.229   5.497   6.004 -0.7505  0.2153 -0.7082
  181SLPC  C31220709   4.165   5.702   6.013  0.1168  0.3389  0.9192
  181SLPC  H12X20710   4.097   5.690   5.926  0.9904 -1.0097  0.3959
  181SLPC  H12Y20711   4.200   5.807   6.022  2.5444 -0.5287  2.4792
  181SLPC  C31320712   4.088   5.664   6.131 -0.0588  0.0176 -0.2634
  181SLPC  H13X20713   4.167   5.633   6.203 -0.1682 -0.3532 -0.3031
  181SLPC  H13Y20714   4.033   5.572   6.102 -1.7192  1.3358 -1.5080
  181SLPC  C31420715   3.985   5.772   6.172 -0.5492 -1.2435  0.3446
  181SLPC  H14X20716   3.905   5.773   6.094 -1.1973 -0.6958  1.0092
  181SLPC  H14Y20717   4.031   5.872   6.183 -4.1737  0.6424 -0.0984
  181SLPC  C31520718   3.932   5.747   6.311 -0.3292  1.1045  0.0589
  181SLPC  H15X20719   3.995   5.798   6.386 -0.4279  0.3451  0.6738
  181SLPC  H15Y20720   3.919   5.640   6.341  0.1419  0.5023 -1.7774
  181SLPC  C31620721   3.809   5.830   6.322  0.5151 -0.6598 -0.7035
  181SLPC  H16X20722   3.765   5.811   6.422  0.6513  0.1400 -0.4857
  181SLPC  H16Y20723   3.728   5.803   6.250  0.3793 -0.8337 -0.4849
  181SLPC  C31720724   3.830   5.984   6.310 -0.6789 -0.6582  0.1019
  181SLPC  H17X20725   3.905   6.014   6.234 -1.1388  2.3884  0.7265
  181SLPC  H17Y20726   3.869   6.012   6.410  1.4531 -2.6374 -0.0998
  181SLPC  C31820727   3.695   6.067   6.280 -0.1312  0.3514  0.0327
  181SLPC  H18X20728   3.626   6.070   6.368  1.7493  0.7883  1.5629
  181SLPC  H18Y20729   3.637   6.005   6.208 -0.3012 -0.8608  1.1704
  181SLPC  H18Z20730   3.721   6.171   6.253 -1.0661  0.5199 -0.2322
  182SLPC     N20731   1.797   1.566   4.490 -0.0909  0.2496 -0.6255
  182SLPC   C1320732   1.774   1.426   4.528 -0.2315 -0.3580 -0.1139
  182SLPC  H13A20733   1.669   1.404   4.536 -0.3744  0.8615  3.5664
  182SLPC  H13B20734   1.812   1.376   4.441  0.3456  0.9808 -0.6651
  182SLPC  H13C20735   1.844   1.402   4.607  0.6608 -0.5747 -0.9602
  182SLPC   C1420736   1.749   1.652   4.611  0.5576 -0.2840 -0.3210
  182SLPC  H14A20737   1.830   1.667   4.681  0.6575  0.6493 -0.6303
  182SLPC  H14B20738   1.718   1.752   4.583  2.4838 -0.1681 -2.2898
  182SLPC  H14C20739   1.666   1.605   4.663 -0.7823  0.7707 -1.4178
  182SLPC   C1520740   1.723   1.598   4.366  0.5784 -0.2140  0.8976
  182SLPC  H15A20741   1.738   1.702   4.342 -2.0296  0.1240  0.4502
  182SLPC  H15B20742   1.762   1.537   4.286 -1.6836 -0.9980  0.3418
  182SLPC  H15C20743   1.619   1.576   4.382 -0.2923  2.7779  0.0460
  182SLPC   C1220744   1.947   1.579   4.476  0.0351 -0.2081  0.1484
  182SLPC  H12A20745   1.998   1.556   4.568 -0.5874  0.7631  0.7571
  182SLPC  H12B20746   1.973   1.683   4.464 -0.9164  0.1231  0.7989
  182SLPC   C1120747   2.017   1.500   4.360 -0.4229 -0.2439  0.4858
  182SLPC  H11A20748   2.126   1.523   4.368 -0.0171 -2.2245  1.1397
  182SLPC  H11B20749   1.981   1.550   4.267  2.5472  1.5236  0.1637
  182SLPC     P20750   2.072   1.263   4.458 -0.0067  0.3085  0.0429
  182SLPC   O1320751   1.975   1.185   4.540  0.7897 -0.0759  0.1974
  182SLPC   O1420752   2.156   1.188   4.366  0.5043  1.1038  0.3843
  182SLPC   O1220753   1.987   1.360   4.365  0.3039 -0.0908 -0.6453
  182SLPC   O1120754   2.160   1.359   4.546 -0.0327 -0.5810 -0.5269
  182SLPC    C120755   2.296   1.357   4.562 -0.3620 -0.4884 -0.1903
  182SLPC    HA20756   2.350   1.321   4.471  2.8915  2.2123  0.4678
  182SLPC    HB20757   2.335   1.461   4.568  1.9548 -1.3439  1.1926
  182SLPC    C220758   2.340   1.275   4.691 -0.2344 -0.3357 -0.3453
  182SLPC    HS20759   2.375   1.177   4.653  1.1651  0.4888 -1.2695
  182SLPC   O2120760   2.237   1.262   4.789  0.7479  0.5012  0.3990
  182SLPC   C2120761   2.243   1.154   4.863  0.3407 -0.4899  0.0616
  182SLPC   O2220762   2.326   1.063   4.857  0.7008  0.2603 -0.3567
  182SLPC   C2220763   2.135   1.169   4.978  0.2519  0.6575  0.3157
  182SLPC   H2R20764   2.189   1.227   5.056 -0.7764 -0.4528  1.9254
  182SLPC   H2S20765   2.051   1.219   4.927 -1.0361 -0.2814  1.4298
  182SLPC    C320766   2.470   1.343   4.750 -0.3180  0.1738 -0.8962
  182SLPC    HX20767   2.441   1.446   4.779 -0.8251 -0.2295  0.0676
  182SLPC    HY20768   2.554   1.350   4.678 -1.0350  0.2695 -1.7507
  182SLPC   O3120769   2.512   1.274   4.867 -0.1978  0.3698  0.1705
  182SLPC   C3120770   2.584   1.152   4.868 -0.8039  0.5828  0.4962
  182SLPC   O3220771   2.634   1.110   4.765 -0.1296  0.1414 -0.4825
  182SLPC   C3220772   2.600   1.085   5.001 -0.2113  0.2729  0.5784
  182SLPC   H2X20773   2.498   1.088   5.046  0.1152 -0.5676  1.3978
  182SLPC   H2Y20774   2.664   1.142   5.071  0.1399 -0.1667  0.6194
  182SLPC   C2320775   2.077   1.033   5.045  0.6212 -0.4476 -0.0516
  182SLPC   H3R20776   2.170   0.980   5.076  0.7415  0.1299  0.6022
  182SLPC   H3S20777   2.014   0.979   4.972 -0.4884  1.2585 -0.4081
  182SLPC   C2420778   1.985   1.065   5.155  0.2345 -0.3194 -0.2540
  182SLPC   H4R20779   1.944   0.971   5.198  1.4220 -0.1357  1.3957
  182SLPC   H4S20780   1.895   1.117   5.116 -0.0030  3.3248  4.2417
  182SLPC   C2520781   2.047   1.135   5.274 -0.2336 -0.2088 -0.1422
  182SLPC   H5R20782   2.073   1.241   5.252  2.7365 -0.4326  1.7030
  182SLPC   H5S20783   2.142   1.089   5.309  0.0461 -0.3395 -1.0513
  182SLPC   C2620784   1.948   1.136   5.394 -0.4566 -0.2406  0.0352
  182SLPC   H6R20785   1.853   1.156   5.340 -1.9834 -3.0850  1.4516
  182SLPC   H6S20786   1.959   1.218   5.467  0.7937 -0.3841  0.0357
  182SLPC   C2720787   1.928   1.015   5.491  0.3485 -0.6369 -0.6579
  182SLPC   H7R20788   1.996   1.032   5.577  0.8323 -0.0399 -1.1451
  182SLPC   H7S20789   1.972   0.924   5.443  1.4053 -1.8075  2.2815
  182SLPC   C2820790   1.778   0.989   5.531  0.4464  0.3190  0.2718
  182SLPC   H8R20791   1.775   0.887   5.574 -1.9809  0.4881  0.6342
  182SLPC   H8S20792   1.709   0.998   5.443  1.2006 -1.4235 -0.5398
  182SLPC   C2920793   1.731   1.100   5.619  0.4041  1.1042 -0.8412
  182SLPC   H9R20794   1.727   1.202   5.576 -0.9622  0.9793 -1.0362
  182SLPC  C21020795   1.681   1.088   5.745  0.5048  0.0010 -0.2722
  182SLPC  H10R20796   1.642   1.179   5.794  0.3767  0.7024 -1.6319
  182SLPC  C21120797   1.680   0.957   5.818  0.6992 -0.3077  0.8326
  182SLPC  H11R20798   1.783   0.938   5.854  0.9748 -1.4950 -0.4921
  182SLPC  H11S20799   1.665   0.867   5.755 -0.0445  0.7802 -0.6087
  182SLPC  C21220800   1.588   0.947   5.936 -0.3054  0.9397  0.0762
  182SLPC  H12R20801   1.511   0.868   5.933 -2.3418  2.8485 -0.9113
  182SLPC  C21320802   1.605   1.013   6.053 -0.5755 -0.9649  0.5449
  182SLPC  H13R20803   1.524   1.008   6.127 -0.2282  3.2308  1.4386
  182SLPC  C21420804   1.707   1.122   6.086 -0.4806  0.2252  0.1853
  182SLPC  H14R20805   1.659   1.222   6.085  1.5934  1.2890 -0.9898
  182SLPC  H14S20806   1.786   1.127   6.007 -0.0921 -2.0774  0.3709
  182SLPC  C21520807   1.773   1.078   6.220  0.0563  0.4761  0.6280
  182SLPC  H15R20808   1.862   1.015   6.204 -0.1944 -0.3539  2.2975
  182SLPC  H15S20809   1.702   1.020   6.283 -3.3319 -0.2716 -3.4764
  182SLPC  C21620810   1.812   1.196   6.305  0.3231 -0.1047 -0.2773
  182SLPC  H16R20811   1.723   1.246   6.349  0.1261  0.2038 -1.0154
  182SLPC  H16S20812   1.869   1.271   6.246 -0.9495 -0.1183 -1.5547
  182SLPC  C21720813   1.894   1.149   6.428 -0.7418  0.7056  0.3408
  182SLPC  H17R20814   1.988   1.104   6.389 -1.2425 -0.5070  0.4660
  182SLPC  H17S20815   1.852   1.061   6.481  0.5694  0.0055  0.2587
  182SLPC  C21820816   1.921   1.253   6.533  0.0172 -0.2553 -0.4520
  182SLPC  H18R20817   1.958   1.348   6.489  2.4890 -0.7168  0.4998
  182SLPC  H18S20818   1.999   1.206   6.597 -1.6822 -2.1507  0.3362
  182SLPC  H18T20819   1.832   1.278   6.594 -2.0720 -0.9079 -3.0250
  182SLPC   C3320820   2.633   0.934   4.985  0.0960 -0.7111  0.1532
  182SLPC   H3X20821   2.741   0.935   4.955 -0.1934  3.1305 -1.4450
  182SLPC   H3Y20822   2.561   0.888   4.914 -0.4123 -1.5666  1.2051
  182SLPC   C3420823   2.621   0.855   5.124  0.0579 -0.5152  1.1325
  182SLPC   H4X20824   2.694   0.907   5.190 -0.1774  3.9324 -1.7104
  182SLPC   H4Y20825   2.653   0.748   5.116 -0.0705 -0.5647  1.2768
  182SLPC   C3520826   2.484   0.866   5.188 -0.4733 -0.4732 -0.1713
  182SLPC   H5X20827   2.401   0.828   5.125  0.2761  0.6160 -1.8963
  182SLPC   H5Y20828   2.465   0.971   5.218  1.1222 -0.2956  0.3232
  182SLPC   C3620829   2.481   0.790   5.326  0.3221  0.3099  0.3640
  182SLPC   H6X20830   2.573   0.815   5.383 -1.0893  0.8738  2.5125
  182SLPC   H6Y20831   2.474   0.680   5.320  0.7711  0.2223  1.3064
  182SLPC   C3720832   2.372   0.846   5.412  0.5105  0.3837  0.1061
  182SLPC   H7X20833   2.277   0.814   5.363 -0.3641  1.4380  1.0685
  182SLPC   H7Y20834   2.362   0.957   5.411 -0.1975  0.3792  2.1225
  182SLPC   C3820835   2.369   0.785   5.553 -0.4061 -0.1167  0.2371
  182SLPC   H8X20836   2.452   0.829   5.613  0.0434 -1.6215  0.7718
  182SLPC   H8Y20837   2.389   0.677   5.540  1.0781 -0.2284  2.7270
  182SLPC   C3920838   2.238   0.810   5.625  0.0243 -0.6259  0.8213
  182SLPC   H9X20839   2.161   0.770   5.556 -0.1584  0.2557  0.4956
  182SLPC   H9Y20840   2.215   0.918   5.633 -0.2787 -0.5485 -0.7103
  182SLPC  C31020841   2.234   0.742   5.760 -0.1146 -0.4719 -0.1745
  182SLPC  H10X20842   2.311   0.794   5.821 -0.2754 -1.2077  0.6821
  182SLPC  H10Y20843   2.262   0.635   5.768 -0.2519 -0.7421 -2.5479
  182SLPC  C31120844   2.099   0.776   5.837 -0.0325  0.2162 -0.3786
  182SLPC  H11X20845   2.008   0.739   5.784  0.9515 -1.5402 -0.8963
  182SLPC  H11Y20846   2.095   0.887   5.833  0.0417  0.1921 -1.4156
  182SLPC  C31220847   2.094   0.710   5.977 -0.0827  0.4337  0.2977
  182SLPC  H12X20848   2.196   0.721   6.020 -1.0705 -1.0991  3.2388
  182SLPC  H12Y20849   2.081   0.603   5.953 -0.5663  0.2301  1.4358
  182SLPC  C31320850   1.975   0.757   6.063 -0.7814 -0.1826  0.5029
  182SLPC  H13X20851   1.884   0.712   6.020 -0.7125 -0.6336  0.8263
  182SLPC  H13Y20852   1.956   0.866   6.051 -0.5888 -0.3013 -1.1843
  182SLPC  C31420853   1.984   0.725   6.217  0.4684  0.3646  0.1881
  182SLPC  H14X20854   2.001   0.615   6.226  0.3483  0.2825 -0.5186
  182SLPC  H14Y20855   1.880   0.742   6.252 -0.0140  0.9131 -1.4328
  182SLPC  C31520856   2.081   0.811   6.293  0.1975  0.1645  0.3027
  182SLPC  H15X20857   2.070   0.919   6.271  1.2426  1.1239  3.8226
  182SLPC  H15Y20858   2.183   0.790   6.255  0.1489 -2.1544  1.2744
  182SLPC  C31620859   2.089   0.772   6.438 -0.1474 -0.2989 -0.7884
  182SLPC  H16X20860   2.139   0.674   6.445 -2.6345 -1.6523 -0.9171
  182SLPC  H16Y20861   1.997   0.749   6.497  0.5270 -1.0851 -0.0181
  182SLPC  C31720862   2.174   0.873   6.515  0.8751  0.5443 -0.8672
  182SLPC  H17X20863   2.167   0.967   6.456  0.4378  0.5925 -0.7414
  182SLPC  H17Y20864   2.280   0.841   6.525  0.0525 -1.8481  1.1227
  182SLPC  C31820865   2.113   0.911   6.646  0.3599  0.1161  0.1379
  182SLPC  H18X20866   2.116   0.824   6.716 -0.4828 -0.2056 -0.2163
  182SLPC  H18Y20867   2.004   0.930   6.635  0.3444 -1.0541 -2.5779
  182SLPC  H18Z20868   2.150   1.003   6.696 -0.8613  1.5503 -1.5144
  183SLPC     N20869   2.783   3.718   4.176  0.3279 -1.0749  0.3438
  183SLPC   C1320870   2.919   3.737   4.139 -0.3382 -0.0735 -0.0665
  183SLPC  H13A20871   2.934   3.796   4.049 -0.0882  0.3114  0.2236
  183SLPC  H13B20872   2.978   3.764   4.226 -2.2290  0.4498  1.1215
  183SLPC  H13C20873   2.958   3.640   4.114  1.5669  1.0104 -1.6601
  183SLPC   C1420874   2.723   3.857   4.195  0.2141 -0.4730 -0.0561
  183SLPC  H14A20875   2.700   3.907   4.102 -0.1089  1.2541  0.9214
  183SLPC  H14B20876   2.628   3.851   4.246  1.5591 -2.0467  2.4839
  183SLPC  H14C20877   2.797   3.915   4.247 -0.3320  1.3267 -1.1769
  183SLPC   C1520878   2.759   3.644   4.305  0.1733  0.5602  0.6318
  183SLPC  H15A20879   2.653   3.631   4.317  0.1067  0.9043  0.4096
  183SLPC  H15B20880   2.808   3.549   4.287 -0.8761  0.2033 -0.4195
  183SLPC  H15C20881   2.800   3.700   4.388 -0.7499  0.4265  1.1902
  183SLPC   C1220882   2.705   3.650   4.058 -0.1225 -0.3560 -0.1391
  183SLPC  H12A20883   2.719   3.713   3.972  0.7044 -0.7291 -0.2915
  183SLPC  H12B20884   2.601   3.648   4.086 -0.3535  0.6349 -0.8727
  183SLPC   C1120885   2.734   3.496   4.019  0.3094  0.3983  0.0842
  183SLPC  H11A20886   2.845   3.490   4.014  0.3933  2.0906 -1.4623
  183SLPC  H11B20887   2.690   3.481   3.918 -0.2107 -0.0277  0.3694
  183SLPC     P20888   2.518   3.374   4.114  0.4801  0.1658 -0.0496
  183SLPC   O1320889   2.444   3.500   4.090  0.1085 -0.2135 -0.6786
  183SLPC   O1420890   2.490   3.271   4.008  0.3820 -0.0298 -0.4135
  183SLPC   O1220891   2.676   3.414   4.120 -0.4269 -0.1517  0.3689
  183SLPC   O1120892   2.490   3.321   4.258 -0.8413  0.0535  0.2395
  183SLPC    C120893   2.543   3.186   4.288 -0.0664 -0.3068  0.1361
  183SLPC    HA20894   2.465   3.111   4.266 -2.8360  2.4112 -0.0316
  183SLPC    HB20895   2.636   3.161   4.232  0.8340  0.0531  1.4164
  183SLPC    C220896   2.583   3.188   4.434  0.1134  0.6547  0.5000
  183SLPC    HS20897   2.641   3.095   4.452 -0.5010 -0.2533 -1.8003
  183SLPC   O2120898   2.467   3.194   4.516  0.0934  0.3677 -0.0245
  183SLPC   C2120899   2.410   3.078   4.548 -0.1905  0.1683  0.1028
  183SLPC   O2220900   2.449   2.969   4.517  0.1747  0.6073 -0.3811
  183SLPC   C2220901   2.303   3.109   4.655  0.4167  0.2406 -0.1312
  183SLPC   H2R20902   2.359   3.134   4.748 -4.1998  2.6520  2.3580
  183SLPC   H2S20903   2.240   3.198   4.637  1.7210  1.4858  1.1981
  183SLPC    C320904   2.678   3.305   4.467  0.8717 -0.7752 -0.0126
  183SLPC    HX20905   2.611   3.395   4.466  0.7538 -0.7859  2.1088
  183SLPC    HY20906   2.744   3.306   4.378 -1.3213 -0.6195 -1.7270
  183SLPC   O3120907   2.748   3.296   4.593  0.7207  0.2113 -0.8022
  183SLPC   C3120908   2.702   3.367   4.697  0.0720  0.3287 -0.1771
  183SLPC   O3220909   2.603   3.444   4.701  0.3548 -0.3049 -0.3088
  183SLPC   C3220910   2.786   3.322   4.812 -0.0866  0.2662 -0.0303
  183SLPC   H2X20911   2.799   3.412   4.876 -0.9232 -0.5296  1.3280
  183SLPC   H2Y20912   2.885   3.290   4.774 -0.6667 -1.0717 -0.4829
  183SLPC   C2320913   2.206   2.997   4.688  0.1472  0.2510  0.5049
  183SLPC   H3R20914   2.264   2.902   4.687 -0.8398 -0.3897 -1.3862
  183SLPC   H3S20915   2.133   2.985   4.605  0.9766 -0.4976 -0.1278
  183SLPC   C2420916   2.129   3.016   4.815  0.4004  0.3519 -0.7231
  183SLPC   H4R20917   2.048   2.941   4.820  1.1281 -0.3692  1.5775
  183SLPC   H4S20918   2.076   3.113   4.812 -0.7127 -0.1893  0.4240
  183SLPC   C2520919   2.223   2.988   4.933  0.1281  0.6910 -0.3153
  183SLPC   H5R20920   2.316   3.049   4.927  1.4781 -0.9958  2.0438
  183SLPC   H5S20921   2.253   2.881   4.926 -2.3010 -0.2070  1.6630
  183SLPC   C2620922   2.154   3.017   5.058  0.0827  0.1476 -0.0717
  183SLPC   H6R20923   2.060   2.959   5.065 -1.0281  2.0775  2.3484
  183SLPC   H6S20924   2.118   3.122   5.050 -0.2542  0.0365  0.0119
  183SLPC   C2720925   2.248   2.990   5.188  0.3108  1.0542  0.2605
  183SLPC   H7R20926   2.331   3.064   5.180  0.7955  0.6606  1.4041
  183SLPC   H7S20927   2.286   2.886   5.178 -0.8206  0.5836  0.7464
  183SLPC   C2820928   2.171   3.023   5.316 -0.4017  0.4528  0.1244
  183SLPC   H8R20929   2.096   2.941   5.322 -1.8943  1.7168 -0.3494
  183SLPC   H8S20930   2.121   3.122   5.304 -0.3111  0.5399  0.4683
  183SLPC   C2920931   2.268   3.012   5.432  0.8961  0.6140  0.3486
  183SLPC   H9R20932   2.298   2.907   5.444  0.3472  0.4957  0.7064
  183SLPC  C21020933   2.340   3.101   5.502 -0.2381  0.1635 -0.3197
  183SLPC  H10R20934   2.400   3.076   5.591 -0.5780  0.5595  0.0276
  183SLPC  C21120935   2.307   3.248   5.498  0.6343 -0.2121 -0.1599
  183SLPC  H11R20936   2.321   3.295   5.598 -2.8441  0.5732  0.1171
  183SLPC  H11S20937   2.198   3.267   5.486  0.5890 -0.5605 -0.3127
  183SLPC  C21220938   2.392   3.316   5.395 -0.4238 -0.7665  0.5625
  183SLPC  H12R20939   2.437   3.254   5.317  0.6318  0.3414  0.2655
  183SLPC  C21320940   2.405   3.450   5.385 -0.9484  0.0003 -0.3112
  183SLPC  H13R20941   2.461   3.496   5.303 -0.5423 -0.2022 -0.1526
  183SLPC  C21420942   2.357   3.547   5.487 -0.3417 -0.2819 -0.2707
  183SLPC  H14R20943   2.305   3.494   5.570  0.3120 -0.6597 -0.0980
  183SLPC  H14S20944   2.280   3.616   5.445 -0.9122  0.0664  1.2857
  183SLPC  C21520945   2.469   3.617   5.563  0.2660  0.2928 -0.3299
  183SLPC  H15R20946   2.437   3.712   5.612  2.8410  0.7297  0.6892
  183SLPC  H15S20947   2.549   3.646   5.492  0.1829  1.8562  0.1682
  183SLPC  C21620948   2.547   3.527   5.668  0.4192  0.3665  0.1350
  183SLPC  H16R20949   2.578   3.436   5.612 -0.2403  0.5122 -0.4801
  183SLPC  H16S20950   2.469   3.492   5.739  0.0768 -1.0316 -0.8873
  183SLPC  C21720951   2.672   3.589   5.736  1.1689 -0.2756  0.7113
  183SLPC  H17R20952   2.656   3.690   5.779 -0.1472  0.2738 -0.9444
  183SLPC  H17S20953   2.748   3.612   5.658  2.4806  2.4992  2.6466
  183SLPC  C21820954   2.736   3.502   5.841  0.4982 -0.5311  0.5284
  183SLPC  H18R20955   2.836   3.529   5.880 -0.4328 -0.8343  3.3227
  183SLPC  H18S20956   2.741   3.401   5.794  2.0451 -0.2336  0.0114
  183SLPC  H18T20957   2.669   3.494   5.929 -1.4466 -0.9453 -0.9281
  183SLPC   C3320958   2.726   3.210   4.911  0.2986  0.2573 -0.5351
  183SLPC   H3X20959   2.796   3.186   4.994 -2.3868 -0.3322  1.6744
  183SLPC   H3Y20960   2.693   3.125   4.846 -0.6159  0.0446  0.1980
  183SLPC   C3420961   2.600   3.256   4.991 -0.0813  0.0210 -0.4580
  183SLPC   H4X20962   2.508   3.278   4.934  0.1014  0.2334 -0.6717
  183SLPC   H4Y20963   2.613   3.348   5.052  1.8050 -0.5539  0.0863
  183SLPC   C3520964   2.553   3.136   5.077  0.1894 -0.5005  0.7126
  183SLPC   H5X20965   2.485   3.067   5.022 -2.0854  1.9227  0.2696
  183SLPC   H5Y20966   2.481   3.188   5.144 -0.9984 -1.6803  0.4014
  183SLPC   C3620967   2.661   3.051   5.142 -0.2338 -0.1612 -0.4679
  183SLPC   H6X20968   2.731   3.124   5.189 -0.7788  0.2396 -0.2556
  183SLPC   H6Y20969   2.717   2.989   5.070 -0.0049 -0.5670  0.0537
  183SLPC   C3720970   2.613   2.956   5.257  0.0611 -0.5382 -0.5392
  183SLPC   H7X20971   2.538   2.886   5.214  0.6238 -0.5197 -1.5849
  183SLPC   H7Y20972   2.556   3.009   5.337  1.5007 -1.4959  1.1824
  183SLPC   C3820973   2.723   2.869   5.333  0.6631  0.0050  0.7330
  183SLPC   H8X20974   2.809   2.935   5.359 -0.1752  1.3090  0.3121
  183SLPC   H8Y20975   2.771   2.795   5.267 -0.2381 -1.0068  1.1765
  183SLPC   C3920976   2.670   2.792   5.457  0.4799  0.0492  0.7312
  183SLPC   H9X20977   2.596   2.718   5.420  0.7335 -0.4437  1.2069
  183SLPC   H9Y20978   2.608   2.853   5.527 -0.2672  0.7298 -0.4723
  183SLPC  C31020979   2.779   2.733   5.541 -0.8137 -0.2082  0.6343
  183SLPC  H10X20980   2.830   2.809   5.604 -1.5273  1.2802 -0.5255
  183SLPC  H10Y20981   2.852   2.699   5.464 -2.2549  1.6250 -1.6985
  183SLPC  C31120982   2.739   2.625   5.639  0.2893 -0.8650 -0.0096
  183SLPC  H11X20983   2.821   2.553   5.662  1.8351  0.1847 -1.9161
  183SLPC  H11Y20984   2.652   2.569   5.600  0.1382 -0.4177 -0.3193
  183SLPC  C31220985   2.684   2.676   5.779  0.1871  0.5352 -0.1652
  183SLPC  H12X20986   2.630   2.593   5.831 -2.2006  2.8098  1.2096
  183SLPC  H12Y20987   2.614   2.760   5.761 -1.3801  0.1837  3.3240
  183SLPC  C31320988   2.795   2.727   5.866  0.2903 -0.1663  0.6203
  183SLPC  H13X20989   2.820   2.824   5.818 -0.5253 -0.3634 -0.2387
  183SLPC  H13Y20990   2.885   2.663   5.857  0.9082  0.5752  1.3495
  183SLPC  C31420991   2.750   2.742   6.013 -0.2114 -0.0948  0.2845
  183SLPC  H14X20992   2.753   2.637   6.048  0.9517  0.0995  0.8275
  183SLPC  H14Y20993   2.646   2.781   6.005 -0.0359  0.0375 -2.0359
  183SLPC  C31520994   2.853   2.832   6.087  0.0850 -0.1001 -0.7606
  183SLPC  H15X20995   2.846   2.930   6.034 -2.6917  1.2475  1.7772
  183SLPC  H15Y20996   2.956   2.795   6.067  0.0828  0.4149 -1.8403
  183SLPC  C31620997   2.831   2.850   6.235  0.5288 -0.0036  0.0582
  183SLPC  H16X20998   2.803   2.744   6.256 -4.7491  1.0824 -0.1074
  183SLPC  H16Y20999   2.742   2.916   6.244  0.3626 -0.0989 -0.8009
  183SLPC  C31721000   2.951   2.905   6.313 -0.1518 -0.6351  0.6632
  183SLPC  H17X21001   3.038   2.848   6.273 -0.4168 -0.8761  0.4254
  183SLPC  H17Y21002   2.952   2.890   6.423  2.7606 -0.2199  0.7784
  183SLPC  C31821003   2.963   3.053   6.288 -0.3824 -1.0472  0.0989
  183SLPC  H18X21004   2.949   3.074   6.180 -0.3956  0.8650  0.4474
  183SLPC  H18Y21005   3.053   3.098   6.335 -1.2539  1.8749 -0.8317
  183SLPC  H18Z21006   2.886   3.107   6.347  0.6894 -0.9531  1.4557
  184SLPC     N21007   1.471   4.665   4.621  0.3063 -0.4711  0.3450
  184SLPC   C1321008   1.536   4.612   4.505 -0.2814 -0.5844 -0.1413
  184SLPC  H13A21009   1.643   4.601   4.508 -0.2336 -0.8917 -1.9235
  184SLPC  H13B21010   1.492   4.519   4.473 -0.6026 -0.2753 -0.6102
  184SLPC  H13C21011   1.513   4.675   4.420  0.2724  1.7912  1.3828
  184SLPC   C1421012   1.329   4.705   4.583 -0.1315 -0.5021 -0.7547
  184SLPC  H14A21013   1.288   4.741   4.676  3.5077  0.1061  0.7913
  184SLPC  H14B21014   1.333   4.790   4.517 -0.9911  1.2510  1.3134
  184SLPC  H14C21015   1.257   4.638   4.537 -1.5473 -0.7919  1.7022
  184SLPC   C1521016   1.545   4.790   4.663  0.1924  0.0521 -1.0983
  184SLPC  H15A21017   1.644   4.759   4.692 -0.2662  1.5077  2.4963
  184SLPC  H15B21018   1.558   4.862   4.583 -0.6728 -0.0348 -1.3234
  184SLPC  H15C21019   1.497   4.833   4.749  2.4125 -1.5615  1.1074
  184SLPC   C1221020   1.447   4.568   4.736  0.5893  0.2928 -0.6565
  184SLPC  H12A21021   1.393   4.481   4.698  0.5432  0.4199 -0.8885
  184SLPC  H12B21022   1.386   4.625   4.805 -0.5113 -1.2521 -0.2880
  184SLPC   C1121023   1.571   4.522   4.817 -0.0988 -0.6531 -0.2311
  184SLPC  H11A21024   1.533   4.461   4.901  0.7179 -0.8117  0.0225
  184SLPC  H11B21025   1.621   4.605   4.871 -0.2842  1.1865 -2.6722
  184SLPC     P21026   1.676   4.306   4.737 -0.2814 -0.1814 -0.6070
  184SLPC   O1321027   1.537   4.262   4.710  0.6275 -0.6916 -0.4389
  184SLPC   O1421028   1.784   4.267   4.647  0.4847 -0.1119 -0.2163
  184SLPC   O1221029   1.673   4.462   4.730  0.1416 -0.0702 -0.9216
  184SLPC   O1121030   1.712   4.275   4.894  0.1552 -0.5997  0.5832
  184SLPC    C121031   1.834   4.207   4.913 -0.5581 -0.2794 -0.4681
  184SLPC    HA21032   1.920   4.257   4.862  2.2496 -3.7908  0.4212
  184SLPC    HB21033   1.879   4.213   5.014  0.3611 -0.8189 -0.8327
  184SLPC    C221034   1.835   4.054   4.879  0.3017  0.0249  0.5472
  184SLPC    HS21035   1.811   4.066   4.771  3.0943  2.4777  0.0436
  184SLPC   O2121036   1.730   3.981   4.951 -0.3584  0.0283 -0.1706
  184SLPC   C2121037   1.708   3.863   4.882 -0.6069  0.0690  0.4966
  184SLPC   O2221038   1.743   3.840   4.770  0.2737  0.1167  0.2374
  184SLPC   C2221039   1.649   3.761   4.977 -0.0932 -0.1582 -0.2348
  184SLPC   H2R21040   1.663   3.663   4.927 -2.3585 -0.9075  0.4733
  184SLPC   H2S21041   1.708   3.773   5.071 -0.2373  3.1108 -0.4530
  184SLPC    C321042   1.977   3.997   4.905  0.0530  0.1390  0.4587
  184SLPC    HX21043   2.036   4.051   4.828 -1.0014  3.1927  1.6244
  184SLPC    HY21044   1.973   3.887   4.894  1.8161 -0.0745  1.6155
  184SLPC   O3121045   2.030   4.015   5.035 -0.2855  0.5516  0.4547
  184SLPC   C3121046   1.988   3.929   5.134  0.8535  0.2917  0.8093
  184SLPC   O3221047   1.920   3.833   5.107 -0.6739 -0.0065 -0.3880
  184SLPC   C3221048   2.023   3.982   5.274 -0.2002 -0.0424 -0.3943
  184SLPC   H2X21049   1.980   4.084   5.282 -0.3092 -0.2021  1.5948
  184SLPC   H2Y21050   2.133   3.999   5.273 -0.3783  1.8225  2.1302
  184SLPC   C2321051   1.506   3.795   5.023 -0.1622 -1.0719 -0.1534
  184SLPC   H3R21052   1.442   3.802   4.933  0.8960 -2.5563 -1.0824
  184SLPC   H3S21053   1.497   3.890   5.080  0.2641 -0.7875 -0.5542
  184SLPC   C2421054   1.447   3.683   5.112  0.0652 -0.9970  0.6559
  184SLPC   H4R21055   1.459   3.588   5.056 -0.7663 -0.1846 -0.9736
  184SLPC   H4S21056   1.338   3.695   5.129 -0.2874 -1.5834 -1.0441
  184SLPC   C2521057   1.513   3.680   5.259  0.1171 -0.1236  0.7404
  184SLPC   H5R21058   1.492   3.774   5.314 -2.3864  0.0082 -0.3228
  184SLPC   H5S21059   1.622   3.669   5.242  0.2811  0.3794  1.4372
  184SLPC   C2621060   1.455   3.565   5.345  0.0196  0.0997  0.5102
  184SLPC   H6R21061   1.473   3.465   5.299  0.9695  0.9222 -0.9585
  184SLPC   H6S21062   1.344   3.572   5.351 -0.0640 -0.9470  0.3576
  184SLPC   C2721063   1.509   3.561   5.489  0.2650  0.2454 -0.4741
  184SLPC   H7R21064   1.620   3.554   5.484  0.1882 -0.4014 -1.7891
  184SLPC   H7S21065   1.472   3.470   5.539 -0.4044  1.8609  2.1407
  184SLPC   C2821066   1.460   3.680   5.571 -0.2286  0.1965 -0.6927
  184SLPC   H8R21067   1.350   3.691   5.562 -0.3504 -0.0984  0.2623
  184SLPC   H8S21068   1.506   3.766   5.519 -0.2404  0.5850 -0.0811
  184SLPC   C2921069   1.500   3.680   5.715  0.8077  0.2503 -0.1140
  184SLPC   H9R21070   1.460   3.600   5.778  0.6470  1.4473  1.3541
  184SLPC  C21021071   1.554   3.785   5.782 -0.1548 -0.1276 -0.4384
  184SLPC  H10R21072   1.576   3.769   5.889 -1.7687 -1.7749 -0.2827
  184SLPC  C21121073   1.613   3.904   5.716 -0.1767  0.2352 -0.1027
  184SLPC  H11R21074   1.634   3.882   5.610  0.9290  4.0928 -0.8228
  184SLPC  H11S21075   1.712   3.924   5.763  0.7154 -1.7849 -1.0367
  184SLPC  C21221076   1.537   4.030   5.712 -0.2159 -0.1402 -1.2299
  184SLPC  H12R21077   1.504   4.070   5.615 -0.7262 -0.5083 -1.2107
  184SLPC  C21321078   1.499   4.105   5.823  0.1881  0.0138  0.3758
  184SLPC  H13R21079   1.474   4.211   5.808  0.6450 -0.0612 -1.1052
  184SLPC  C21421080   1.548   4.078   5.963  0.3661 -0.0277 -0.3464
  184SLPC  H14R21081   1.652   4.117   5.973  0.4419 -0.3939  0.3178
  184SLPC  H14S21082   1.558   3.971   5.988  2.0360  0.0684 -0.4400
  184SLPC  C21521083   1.453   4.165   6.043 -0.5721 -0.4770 -0.4241
  184SLPC  H15R21084   1.346   4.138   6.033 -0.9871 -0.4788  2.9974
  184SLPC  H15S21085   1.461   4.275   6.027 -1.0469 -0.6785 -2.3583
  184SLPC  C21621086   1.486   4.153   6.195 -0.4301  0.2396  0.2431
  184SLPC  H16R21087   1.591   4.186   6.209 -0.8169  1.3739  0.6305
  184SLPC  H16S21088   1.477   4.050   6.237  0.4758  0.8615  2.1155
  184SLPC  C21721089   1.395   4.230   6.291  0.5244 -0.3400 -0.5344
  184SLPC  H17R21090   1.409   4.189   6.394  0.7857 -0.9092 -0.7929
  184SLPC  H17S21091   1.290   4.202   6.272  0.9595 -2.4239 -0.1485
  184SLPC  C21821092   1.413   4.385   6.285 -0.5983 -0.1644  0.2996
  184SLPC  H18R21093   1.513   4.421   6.319 -0.7108  0.8429 -0.4092
  184SLPC  H18S21094   1.338   4.432   6.351  0.4595  0.3615  1.1730
  184SLPC  H18T21095   1.394   4.417   6.181 -0.4378 -0.7529  0.0843
  184SLPC   C3321096   1.989   3.891   5.397  0.6984  0.2165 -0.2447
  184SLPC   H3X21097   2.054   3.801   5.401  0.8985  0.3933  0.8906
  184SLPC   H3Y21098   1.890   3.847   5.371  1.0603  0.7130 -2.6284
  184SLPC   C3421099   1.985   3.965   5.534 -0.5551 -0.0799 -0.7158
  184SLPC   H4X21100   1.942   3.895   5.609  0.4676  0.6155  0.5570
  184SLPC   H4Y21101   1.929   4.061   5.531 -0.6630  0.1168  2.9550
  184SLPC   C3521102   2.122   3.985   5.597  0.4595  0.3665  0.1176
  184SLPC   H5X21103   2.190   4.051   5.539  1.8228  0.2047  1.4509
  184SLPC   H5Y21104   2.171   3.885   5.602 -2.2514 -1.1315 -1.0210
  184SLPC   C3621105   2.114   4.032   5.744  0.6078  0.1434  0.0935
  184SLPC   H6X21106   2.068   3.951   5.805 -0.1570  0.8559  0.4773
  184SLPC   H6Y21107   2.044   4.118   5.747 -0.3278 -0.3798 -3.1309
  184SLPC   C3721108   2.249   4.074   5.795  0.0161 -0.1305 -0.6740
  184SLPC   H7X21109   2.225   4.124   5.892 -3.5391 -3.8534  0.6187
  184SLPC   H7Y21110   2.305   4.142   5.726  0.8699  0.2491  0.3545
  184SLPC   C3821111   2.347   3.955   5.817  0.5589 -0.6708  0.1085
  184SLPC   H8X21112   2.372   3.907   5.720 -0.8641 -1.1188 -0.0532
  184SLPC   H8Y21113   2.291   3.880   5.876  0.1378 -0.6242 -0.2293
  184SLPC   C3921114   2.471   4.003   5.886 -0.4744  0.0135 -0.3927
  184SLPC   H9X21115   2.531   3.912   5.909 -0.9551  0.0062  0.8789
  184SLPC   H9Y21116   2.437   4.047   5.982  0.2529  1.1390 -0.6373
  184SLPC  C31021117   2.571   4.084   5.802  0.9825 -0.0221 -0.3965
  184SLPC  H10X21118   2.519   4.172   5.758 -0.6226 -0.5265  0.4058
  184SLPC  H10Y21119   2.614   4.031   5.715  2.9906 -1.9103  1.5982
  184SLPC  C31121120   2.681   4.130   5.894  0.5598 -0.4543  0.7460
  184SLPC  H11X21121   2.753   4.050   5.923  1.2148  0.1350  0.7632
  184SLPC  H11Y21122   2.638   4.164   5.991 -1.4535  0.5427 -0.4267
  184SLPC  C31221123   2.749   4.250   5.833 -0.9492  0.4945 -0.2416
  184SLPC  H12X21124   2.685   4.339   5.822 -0.9444  0.4589 -0.5549
  184SLPC  H12Y21125   2.780   4.220   5.731 -0.0445  1.1218 -0.1675
  184SLPC  C31321126   2.869   4.297   5.916 -0.5225 -0.0761  0.5433
  184SLPC  H13X21127   2.931   4.207   5.934  0.0466  0.1245 -0.3456
  184SLPC  H13Y21128   2.834   4.317   6.020 -0.0320 -0.3329  0.7628
  184SLPC  C31421129   2.942   4.425   5.864 -0.3238 -0.0145  0.2291
  184SLPC  H14X21130   2.884   4.518   5.882 -1.2372 -0.6115  0.3952
  184SLPC  H14Y21131   2.954   4.417   5.754 -1.3967 -0.5139  0.1350
  184SLPC  C31521132   3.080   4.440   5.926 -0.2931  0.3026 -0.7921
  184SLPC  H15X21133   3.133   4.531   5.892 -0.3028 -0.2524 -2.3685
  184SLPC  H15Y21134   3.141   4.361   5.877  1.2518  1.0343 -0.1340
  184SLPC  C31621135   3.084   4.446   6.084 -0.1920  0.5404  0.0628
  184SLPC  H16X21136   3.192   4.441   6.110 -0.4844  0.3071  1.2930
  184SLPC  H16Y21137   3.038   4.356   6.130  2.8970 -1.4627 -0.4164
  184SLPC  C31721138   3.029   4.580   6.140 -0.4304 -0.4965  0.5489
  184SLPC  H17X21139   3.007   4.568   6.249 -1.3093 -0.9587  0.3337
  184SLPC  H17Y21140   2.929   4.602   6.096  0.1136  0.3115 -0.3180
  184SLPC  C31821141   3.114   4.705   6.122 -0.1221 -0.7063  0.5516
  184SLPC  H18X21142   3.078   4.757   6.031 -0.6344 -1.6344  0.2152
  184SLPC  H18Y21143   3.224   4.690   6.124  0.1451  0.9093 -0.5204
  184SLPC  H18Z21144   3.088   4.779   6.201  2.3625 -1.2102  1.9486
  185POPC     N21145   6.156   2.943   0.739 -0.6918 -0.7681 -0.2171
  185POPC   C1221146   6.081   2.964   0.604  0.0745  0.0473  0.4551
  185POPC  H12A21147   6.154   2.960   0.524 -0.9459 -1.9363 -0.4402
  185POPC  H12B21148   6.028   3.058   0.607  0.2573  0.1576  0.2920
  185POPC   C1321149   6.264   2.838   0.724 -0.0386 -0.7014  0.0025
  185POPC  H13A21150   6.222   2.739   0.714  0.1340 -0.6145 -2.0033
  185POPC  H13B21151   6.328   2.840   0.637 -1.0985  0.1907 -0.7884
  185POPC  H13C21152   6.321   2.826   0.815 -0.3507 -0.6645  0.2044
  185POPC   C1421153   6.216   3.076   0.788 -0.4005  0.1049  0.1556
  185POPC  H14A21154   6.307   3.082   0.731 -0.5575 -0.8392 -0.2085
  185POPC  H14B21155   6.144   3.157   0.794  0.4018  0.7024  2.5631
  185POPC  H14C21156   6.249   3.065   0.890 -3.1790 -1.5411  0.9860
  185POPC   C1521157   6.056   2.905   0.845 -0.0220  0.5446  0.8323
  185POPC  H15A21158   5.975   2.973   0.870 -1.0552 -0.6720  0.8690
  185POPC  H15B21159   6.109   2.901   0.939 -0.4969  0.9179  1.1236
  185POPC  H15C21160   6.014   2.811   0.815  0.4955  0.8577 -0.9814
  185POPC   C1121161   5.981   2.856   0.561  0.2018 -0.1126  0.4136
  185POPC  H11A21162   5.938   2.878   0.461 -2.8791  0.5152  1.7792
  185POPC  H11B21163   5.897   2.863   0.633  1.3344 -0.2776  1.7924
  185POPC     P21164   5.958   2.605   0.563 -0.2900  0.5453  0.3367
  185POPC   O1321165   5.856   2.629   0.663  0.5197 -0.2796  0.2672
  185POPC   O1421166   6.041   2.487   0.574 -0.5898 -0.7342  0.2100
  185POPC   O1221167   6.050   2.726   0.561  0.1936  0.3405  0.3882
  185POPC   O1121168   5.895   2.606   0.419 -0.7657  0.0027  0.3879
  185POPC    C121169   5.989   2.623   0.306 -0.5030 -0.2718  0.2432
  185POPC    HA21170   6.095   2.607   0.332  0.1082 -0.3638 -2.1113
  185POPC    HB21171   5.981   2.730   0.276 -3.4545  0.3158  2.6065
  185POPC    C221172   5.950   2.539   0.186 -0.1784  1.3023  0.5786
  185POPC    HS21173   6.041   2.530   0.122 -0.2121 -1.1069  0.7832
  185POPC   O2121174   5.827   2.597   0.123 -0.3516 -0.3670  0.4496
  185POPC   C2121175   5.862   2.689   0.026 -0.0452  0.1682  0.3660
  185POPC   O2221176   5.979   2.716   0.003  0.2730  0.3979  0.5324
  185POPC   C2221177   5.734   2.759  -0.032 -1.1087  0.5835 -0.4228
  185POPC   H2R21178   5.694   2.821   0.050 -0.9472  0.7198 -0.4455
  185POPC   H2S21179   5.656   2.685  -0.059  0.5362 -1.7151  0.8305
  185POPC    C321180   5.912   2.392   0.233 -0.0955  0.1214  0.4840
  185POPC    HX21181   5.833   2.403   0.310 -1.0929  0.3886 -0.5523
  185POPC    HY21182   6.000   2.348   0.285 -0.2256  1.4452  1.9080
  185POPC   O3121183   5.855   2.306   0.126  0.0529 -0.1706  0.3138
  185POPC   C3121184   5.944   2.266   0.041  0.1760 -0.2314 -0.3434
  185POPC   O3221185   6.065   2.288   0.037 -0.0182 -0.1798 -0.1193
  185POPC   C3221186   5.874   2.175  -0.068  0.3999 -0.0726 -0.0446
  185POPC   H2X21187   5.780   2.231  -0.084 -1.5961 -2.3793  2.6087
  185POPC   H2Y21188   5.853   2.079  -0.017  0.2248  0.1231  0.2535
  185POPC   C2321189   5.784   2.849  -0.141  0.1746  0.3442  0.3702
  185POPC   H3R21190   5.853   2.921  -0.091  0.9190 -1.8568  2.7099
  185POPC   H3S21191   5.699   2.911  -0.178  1.3532  0.8739 -1.5472
  185POPC   C2421192   5.840   2.791  -0.271  0.7862 -0.1293 -0.1419
  185POPC   H4R21193   5.928   2.727  -0.247  0.5873 -0.4856 -0.3574
  185POPC   H4S21194   5.889   2.874  -0.327 -1.7466  1.9191  0.5102
  185POPC   C2521195   5.734   2.732  -0.358  0.5428 -0.1722  0.8468
  185POPC   H5R21196   5.665   2.811  -0.396  2.3121  0.7607 -0.5819
  185POPC   H5S21197   5.684   2.658  -0.292  0.5170  0.8293  1.9992
  185POPC   C2621198   5.791   2.662  -0.490  0.2733 -0.2131 -0.0325
  185POPC   H6R21199   5.698   2.636  -0.544 -0.2798  1.7357 -0.0897
  185POPC   H6S21200   5.869   2.583  -0.480  0.6055  0.3293  2.4434
  185POPC   C2721201   5.857   2.756  -0.586  0.0865  0.4444  0.2523
  185POPC   H7R21202   5.947   2.792  -0.532  0.7352  0.0206 -0.5288
  185POPC   H7S21203   5.787   2.841  -0.599 -0.3371 -0.1376 -1.5491
  185POPC   C2821204   5.898   2.699  -0.722 -0.1979  0.2852 -0.1500
  185POPC   H8R21205   5.963   2.609  -0.711 -1.2590 -0.5051 -0.1467
  185POPC   H8S21206   5.949   2.791  -0.758  0.7736 -0.7572 -1.5774
  185POPC   C2921207   5.773   2.665  -0.806  0.2657  0.0609 -0.4129
  185POPC   H9121208   5.680   2.686  -0.751 -0.2075 -0.5517 -0.9717
  185POPC  C21021209   5.773   2.618  -0.934  0.6875  0.0308 -0.3296
  185POPC  H10121210   5.677   2.615  -0.989  0.0370  2.9139  0.5008
  185POPC  C21121211   5.885   2.599  -1.023  0.1208 -0.5072  0.9741
  185POPC  H11R21212   5.892   2.496  -1.064  1.4424 -0.3895  0.8513
  185POPC  H11S21213   5.982   2.618  -0.971 -0.3397  1.9372  1.0431
  185POPC  C21221214   5.877   2.691  -1.151 -1.3651  0.6390 -0.4728
  185POPC  H12R21215   5.968   2.656  -1.205  0.1160  1.6301  1.2425
  185POPC  H12S21216   5.890   2.796  -1.116  2.0199 -0.2077  1.2195
  185POPC  C21321217   5.752   2.676  -1.237  0.0985 -0.0334  0.3533
  185POPC  H13R21218   5.656   2.691  -1.183  0.1044 -0.6398  0.5370
  185POPC  H13S21219   5.738   2.580  -1.291  1.3160  0.6560 -1.2858
  185POPC  C21421220   5.765   2.774  -1.353 -0.1041  0.4854 -0.2533
  185POPC  H14R21221   5.782   2.874  -1.307  0.3598 -0.2236  1.1640
  185POPC  H14S21222   5.668   2.785  -1.406 -1.9633  0.7489  2.9979
  185POPC  C21521223   5.872   2.739  -1.456 -0.2865  0.0917  0.0756
  185POPC  H15R21224   5.862   2.635  -1.495  0.9949 -0.1509  0.3290
  185POPC  H15S21225   5.969   2.731  -1.402 -0.9199 -0.4559  1.1608
  185POPC  C21621226   5.870   2.833  -1.581 -0.3983 -0.4423  0.2764
  185POPC  H16R21227   5.959   2.830  -1.648 -0.6889  1.6128 -0.2679
  185POPC  H16S21228   5.866   2.939  -1.546  1.7563  0.1374 -1.0218
  185POPC  C21721229   5.746   2.815  -1.673 -0.1624  1.0002 -0.8564
  185POPC  H17R21230   5.761   2.882  -1.760  0.4493  1.3225 -0.5117
  185POPC  H17S21231   5.653   2.839  -1.617  2.3027  1.2420  3.5571
  185POPC  C21821232   5.745   2.674  -1.735  0.2566  0.2385  0.5189
  185POPC  H18R21233   5.839   2.667  -1.794 -0.0086  2.8253 -0.3241
  185POPC  H18S21234   5.662   2.661  -1.808  1.1381 -0.3408 -0.4145
  185POPC  H18T21235   5.738   2.590  -1.662  1.2181 -1.0393 -0.7944
  185POPC   C3321236   5.966   2.158  -0.190 -0.4640 -0.3685 -0.0769
  185POPC   H3X21237   5.926   2.070  -0.246  0.4869 -1.3386  0.7137
  185POPC   H3Y21238   6.070   2.136  -0.158 -0.6969  0.6965  1.5760
  185POPC   C3421239   5.955   2.279  -0.281 -0.5617  0.3566  0.0560
  185POPC   H4X21240   5.977   2.377  -0.234  1.5558 -0.7278  1.4869
  185POPC   H4Y21241   5.855   2.280  -0.329 -0.2041  1.9349 -0.7287
  185POPC   C3521242   6.075   2.275  -0.379  0.9913 -0.4768  0.2958
  185POPC   H5X21243   6.172   2.275  -0.325  1.2449  3.4296  0.0765
  185POPC   H5Y21244   6.073   2.370  -0.436  1.9779 -1.0385 -0.7222
  185POPC   C3621245   6.085   2.159  -0.476  0.2350  0.2429  0.3538
  185POPC   H6X21246   6.106   2.070  -0.413  0.7064  1.1302  1.4888
  185POPC   H6Y21247   6.169   2.195  -0.538 -0.8747  1.8028 -0.3229
  185POPC   C3721248   5.949   2.134  -0.557  0.2538 -0.9095 -0.4479
  185POPC   H7X21249   5.919   2.234  -0.597 -1.4473 -0.1430  2.4245
  185POPC   H7Y21250   5.871   2.097  -0.487 -0.6142  0.4775 -0.6342
  185POPC   C3821251   5.962   2.033  -0.675 -0.2171  0.0567  0.6601
  185POPC   H8X21252   5.865   2.029  -0.728  0.4080 -1.1713 -0.4652
  185POPC   H8Y21253   5.993   1.933  -0.638  1.6503  1.4576  3.1894
  185POPC   C3921254   6.047   2.094  -0.788  0.2036  0.1346 -0.1694
  185POPC   H9X21255   6.152   2.111  -0.754  0.0989  2.8879 -0.9518
  185POPC   H9Y21256   6.013   2.195  -0.820  0.0446  0.6564  1.5792
  185POPC  C31021257   6.053   1.991  -0.906 -0.6710  0.5811  0.2026
  185POPC  H10X21258   5.968   1.998  -0.978 -0.0931 -0.3351 -0.5924
  185POPC  H10Y21259   6.048   1.889  -0.862 -2.2277 -0.4634 -2.1384
  185POPC  C31121260   6.183   1.999  -0.980  0.7510 -0.4829  0.5178
  185POPC  H11X21261   6.262   1.982  -0.904 -0.9534  1.9742  3.0285
  185POPC  H11Y21262   6.196   2.102  -1.018  0.0167 -0.2789  0.8162
  185POPC  C31221263   6.199   1.891  -1.093  0.0358 -0.5700  0.2358
  185POPC  H12X21264   6.158   1.791  -1.069 -0.5436 -0.3472  0.1959
  185POPC  H12Y21265   6.303   1.878  -1.130  0.4551  2.6152  0.0048
  185POPC  C31321266   6.129   1.944  -1.222  0.4295  0.3592  0.2898
  185POPC  H13X21267   6.154   2.052  -1.210 -0.9695  0.7385  0.0165
  185POPC  H13Y21268   6.019   1.928  -1.211  0.5782 -0.8048  0.1394
  185POPC  C31421269   6.182   1.891  -1.353 -0.0218  0.5051 -0.6808
  185POPC  H14X21270   6.152   1.785  -1.366  1.4002  0.0620 -0.4999
  185POPC  H14Y21271   6.292   1.896  -1.342 -0.1741 -0.1035  1.6853
  185POPC  C31521272   6.134   1.966  -1.477 -0.1801 -0.2806 -0.3264
  185POPC  H15X21273   6.184   2.065  -1.477 -2.2840  0.8617 -1.4543
  185POPC  H15Y21274   6.025   1.974  -1.458 -0.4750 -0.2746 -1.8953
  185POPC  C31621275   6.160   1.896  -1.611  0.2800 -0.3908 -0.4956
  185POPC  H16X21276   6.140   1.787  -1.614  0.5323 -0.4935  1.0622
  185POPC  H16Y21277   6.266   1.902  -1.642  0.1878 -1.1186 -0.9766
  185POPC  H16Z21278   6.096   1.954  -1.681  0.1466  1.6111  1.2020
  186POPC     N21279   5.494   4.661   0.582 -0.2629  0.1647 -0.3189
  186POPC   C1221280   5.438   4.565   0.484  0.6933  0.0053  0.1013
  186POPC  H12A21281   5.354   4.609   0.432 -1.1273 -1.7106  1.4279
  186POPC  H12B21282   5.389   4.484   0.536 -1.8297 -0.6746 -3.0329
  186POPC   C1321283   5.602   4.597   0.664  0.1218 -0.6094  0.1374
  186POPC  H13A21284   5.673   4.550   0.597  0.4945 -0.2804  0.3023
  186POPC  H13B21285   5.657   4.666   0.725 -1.0956  0.4761  0.0525
  186POPC  H13C21286   5.558   4.521   0.727 -1.1691  1.7258  2.1905
  186POPC   C1421287   5.543   4.786   0.509 -0.2712  0.1242 -0.6177
  186POPC  H14A21288   5.458   4.818   0.451 -0.4297  0.8492  0.0041
  186POPC  H14B21289   5.568   4.865   0.578  2.4031  0.3845 -1.7304
  186POPC  H14C21290   5.617   4.764   0.433 -1.5550 -2.9571 -1.1018
  186POPC   C1521291   5.388   4.708   0.674  0.0836 -0.2252 -0.7534
  186POPC  H15A21292   5.425   4.781   0.744  0.4695 -0.6320 -0.5340
  186POPC  H15B21293   5.356   4.623   0.733 -0.5898 -0.0882 -0.9114
  186POPC  H15C21294   5.310   4.762   0.622 -2.1646 -2.7166 -0.2440
  186POPC   C1121295   5.534   4.518   0.369  1.0342  0.4158 -0.0898
  186POPC  H11A21296   5.492   4.436   0.306 -2.5540  0.1952  2.3134
  186POPC  H11B21297   5.619   4.473   0.425 -0.2599  1.1832  2.6333
  186POPC     P21298   5.483   4.677   0.169 -0.1218 -0.3931 -0.0245
  186POPC   O1321299   5.563   4.782   0.102 -0.1541  0.1768  0.4655
  186POPC   O1421300   5.356   4.733   0.216  0.0861 -0.4633  0.4203
  186POPC   O1221301   5.583   4.634   0.292 -0.3604  0.3792 -0.2889
  186POPC   O1121302   5.451   4.553   0.075 -0.2097 -0.1483  0.3012
  186POPC    C121303   5.540   4.506  -0.023 -0.4709  0.3096 -0.1204
  186POPC    HA21304   5.542   4.395  -0.025 -0.6013  0.1422  3.3723
  186POPC    HB21305   5.643   4.540  -0.003 -0.5855  0.4208  0.2930
  186POPC    C221306   5.507   4.557  -0.165 -0.2749 -0.3580  0.8529
  186POPC    HS21307   5.476   4.662  -0.145 -1.4623 -0.2252 -1.3597
  186POPC   O2121308   5.401   4.482  -0.227  0.2033  0.0211  0.4921
  186POPC   C2121309   5.319   4.549  -0.299 -0.2092 -0.3668  0.1986
  186POPC   O2221310   5.316   4.671  -0.315 -0.5538 -0.1776 -0.0657
  186POPC   C2221311   5.208   4.448  -0.344 -0.0498 -0.5070 -0.3141
  186POPC   H2R21312   5.109   4.494  -0.324  1.2147  2.3523 -0.2285
  186POPC   H2S21313   5.223   4.351  -0.291  0.4300 -0.5774 -0.5709
  186POPC    C321314   5.629   4.568  -0.259 -0.6260 -0.3694  0.5157
  186POPC    HX21315   5.667   4.465  -0.274  1.8195  0.5776 -0.3193
  186POPC    HY21316   5.707   4.617  -0.197  0.0135 -2.0414  1.0734
  186POPC   O3121317   5.608   4.625  -0.389 -0.0305  0.2506  0.0046
  186POPC   C3121318   5.589   4.756  -0.389 -0.1965 -0.3782  0.6336
  186POPC   O3221319   5.583   4.830  -0.294 -0.1493  0.3884 -0.2413
  186POPC   C3221320   5.569   4.794  -0.538 -0.1669  0.8760  0.0194
  186POPC   H2X21321   5.661   4.763  -0.592 -0.2630  0.6036  0.0147
  186POPC   H2Y21322   5.578   4.905  -0.533  2.4618  0.7272  0.4421
  186POPC   C2321323   5.206   4.425  -0.501  0.1013 -0.2020 -0.0065
  186POPC   H3R21324   5.219   4.516  -0.562  0.5021  1.9324  3.0451
  186POPC   H3S21325   5.106   4.383  -0.525  0.2698 -1.7272  1.7036
  186POPC   C2421326   5.309   4.318  -0.537 -0.3740 -0.0285 -0.8749
  186POPC   H4R21327   5.291   4.236  -0.464  1.7174  1.0425  0.9711
  186POPC   H4S21328   5.414   4.346  -0.514 -0.7368  0.2938  0.5134
  186POPC   C2521329   5.301   4.278  -0.687 -0.2120  0.7068 -0.3851
  186POPC   H5R21330   5.369   4.339  -0.749  1.9347  1.2764  2.3055
  186POPC   H5S21331   5.195   4.282  -0.718  0.1319  1.0866 -1.5362
  186POPC   C2621332   5.342   4.123  -0.699  0.5306 -0.1744 -0.2526
  186POPC   H6R21333   5.296   4.066  -0.616 -0.6746 -0.5995 -1.1800
  186POPC   H6S21334   5.451   4.106  -0.709  0.6277  0.3633 -0.1295
  186POPC   C2721335   5.292   4.081  -0.834  0.1073 -0.9132 -0.0098
  186POPC   H7R21336   5.330   4.148  -0.915  1.1095  0.7914  1.7852
  186POPC   H7S21337   5.182   4.090  -0.823  0.3612  2.8293  0.7643
  186POPC   C2821338   5.339   3.936  -0.858 -0.0275  0.6938 -0.0293
  186POPC   H8R21339   5.310   3.883  -0.764  1.6057  0.1875  0.2381
  186POPC   H8S21340   5.449   3.936  -0.873  0.0826 -2.0442  0.1772
  186POPC   C2921341   5.268   3.877  -0.983 -0.4561  0.5868  0.0403
  186POPC   H9121342   5.159   3.892  -0.987 -0.6709 -1.0633 -2.0410
  186POPC  C21021343   5.328   3.811  -1.083  0.0370 -0.1527  0.6176
  186POPC  H10121344   5.277   3.780  -1.175  2.4589  0.4446 -1.0014
  186POPC  C21121345   5.470   3.765  -1.082 -1.0446 -0.0761  0.6811
  186POPC  H11R21346   5.478   3.655  -1.068 -0.2379  0.0910  1.6555
  186POPC  H11S21347   5.537   3.809  -1.004 -2.4859  1.7778  0.9365
  186POPC  C21221348   5.526   3.804  -1.217 -0.3381  0.2301 -0.0065
  186POPC  H12R21349   5.534   3.914  -1.223 -0.7137  0.2912  0.5876
  186POPC  H12S21350   5.470   3.763  -1.304  0.1778 -0.2517 -0.1177
  186POPC  C21321351   5.666   3.747  -1.243 -0.1077  0.2664  0.8758
  186POPC  H13R21352   5.668   3.636  -1.244  0.9853  0.2729  0.3574
  186POPC  H13S21353   5.743   3.778  -1.168 -0.0329 -1.1070  1.4010
  186POPC  C21421354   5.723   3.786  -1.381  0.1123  0.0441  0.1617
  186POPC  H14R21355   5.822   3.833  -1.364 -1.1277  2.1407  2.0629
  186POPC  H14S21356   5.652   3.862  -1.420 -0.5660  0.2820  1.7710
  186POPC  C21521357   5.737   3.673  -1.487  0.0602  0.0055 -0.6946
  186POPC  H15R21358   5.635   3.630  -1.497  0.1322 -0.0634 -1.1713
  186POPC  H15S21359   5.806   3.600  -1.439  0.8804  1.9627  1.2696
  186POPC  C21621360   5.777   3.726  -1.622  0.6700 -0.3142 -0.1166
  186POPC  H16R21361   5.847   3.812  -1.618  0.4840 -0.0821 -1.2754
  186POPC  H16S21362   5.693   3.773  -1.678 -1.0121  1.1345  3.3522
  186POPC  C21721363   5.863   3.614  -1.695 -0.0070 -0.2914  0.9377
  186POPC  H17R21364   5.796   3.526  -1.707  0.2514 -0.4768  0.8306
  186POPC  H17S21365   5.949   3.585  -1.632  1.6471 -1.4082 -1.6653
  186POPC  C21821366   5.908   3.678  -1.828  0.1211 -0.1313  0.4056
  186POPC  H18R21367   5.987   3.611  -1.868 -0.7342 -1.4419  0.8291
  186POPC  H18S21368   5.946   3.780  -1.808 -1.8156  0.7065  0.0558
  186POPC  H18T21369   5.826   3.687  -1.903 -0.3935 -0.2271  0.9453
  186POPC   C3321370   5.440   4.738  -0.606  0.9408 -0.0240 -0.1488
  186POPC   H3X21371   5.357   4.776  -0.541  0.6828 -3.1431  1.5599
  186POPC   H3Y21372   5.444   4.627  -0.598 -0.8406 -0.1046  0.1556
  186POPC   C3421373   5.431   4.774  -0.757 -0.3617 -0.5525  0.1971
  186POPC   H4X21374   5.519   4.722  -0.801  1.0236  0.4830  1.6259
  186POPC   H4Y21375   5.452   4.883  -0.749 -0.8876 -0.1663 -2.5473
  186POPC   C3521376   5.298   4.740  -0.823 -0.1287  0.1477 -0.2628
  186POPC   H5X21377   5.219   4.815  -0.803  1.2104  1.3668  0.6251
  186POPC   H5Y21378   5.267   4.642  -0.780  0.3289 -1.3426 -3.0835
  186POPC   C3621379   5.310   4.721  -0.979  0.0818  0.4477  0.0668
  186POPC   H6X21380   5.356   4.811  -1.024  1.6014 -1.2693 -1.9903
  186POPC   H6Y21381   5.207   4.704  -1.015 -1.1606  1.5688  2.8132
  186POPC   C3721382   5.409   4.607  -1.015 -0.0414 -0.3331 -1.1037
  186POPC   H7X21383   5.393   4.529  -0.938 -2.1779  0.0491 -1.1168
  186POPC   H7Y21384   5.518   4.628  -1.006  0.8943 -4.4882 -0.5455
  186POPC   C3821385   5.390   4.550  -1.157  0.3782  0.1364 -0.0846
  186POPC   H8X21386   5.384   4.641  -1.221  0.2347  0.0158 -0.2460
  186POPC   H8Y21387   5.288   4.506  -1.163  0.2753 -0.2667  3.0934
  186POPC   C3921388   5.491   4.445  -1.186  0.5560 -0.3810 -0.3602
  186POPC   H9X21389   5.514   4.390  -1.092 -1.3008  0.3181  0.5356
  186POPC   H9Y21390   5.580   4.495  -1.232 -0.8346 -0.3354 -3.2024
  186POPC  C31021391   5.450   4.339  -1.285 -0.3180  0.2914  0.6054
  186POPC  H10X21392   5.364   4.280  -1.245  0.9150 -2.6558 -0.8206
  186POPC  H10Y21393   5.528   4.265  -1.312  0.1202  0.8312  0.3773
  186POPC  C31121394   5.409   4.392  -1.423  0.3558  0.7535  0.1576
  186POPC  H11X21395   5.486   4.458  -1.470 -0.6912  1.3203 -0.8135
  186POPC  H11Y21396   5.323   4.460  -1.405 -0.5098 -0.5769  1.2400
  186POPC  C31221397   5.362   4.283  -1.521  0.2487 -0.7516  0.3226
  186POPC  H12X21398   5.429   4.195  -1.509  0.6020 -0.5080  0.1522
  186POPC  H12Y21399   5.369   4.322  -1.625  0.1080 -0.9640  0.2319
  186POPC  C31321400   5.223   4.218  -1.492 -0.0270  0.7706  0.2457
  186POPC  H13X21401   5.148   4.300  -1.482 -0.2129  0.6772 -0.3807
  186POPC  H13Y21402   5.234   4.165  -1.395 -1.2642  0.4054  0.2084
  186POPC  C31421403   5.176   4.112  -1.598  0.0172 -0.6287 -0.3737
  186POPC  H14X21404   5.182   4.151  -1.702 -0.2061 -0.0094 -0.1576
  186POPC  H14Y21405   5.073   4.089  -1.566  0.7030  0.5349  3.0928
  186POPC  C31521406   5.244   3.971  -1.585 -0.7740 -0.4982 -0.5049
  186POPC  H15X21407   5.353   3.994  -1.582 -0.9210  0.1357  1.1779
  186POPC  H15Y21408   5.215   3.917  -1.678  1.3327  0.7070 -1.9567
  186POPC  C31621409   5.194   3.887  -1.470  0.4316  0.3017 -0.2427
  186POPC  H16X21410   5.086   3.881  -1.447  1.1103  0.8552  3.9539
  186POPC  H16Y21411   5.243   3.898  -1.371 -1.4025  0.3177  0.6924
  186POPC  H16Z21412   5.219   3.781  -1.494 -0.9375 -0.1588  0.2961
  187POPC     N21413   2.013   0.778   4.354  0.1926 -0.3775  0.0594
  187POPC   C1221414   1.948   0.641   4.341 -0.1129  0.6183  0.0406
  187POPC  H12A21415   1.855   0.639   4.287 -1.1917  0.1543  1.8509
  187POPC  H12B21416   1.910   0.615   4.438 -2.8873  0.5090 -0.9799
  187POPC   C1321417   1.906   0.865   4.409  0.3824  0.2928 -0.0480
  187POPC  H13A21418   1.808   0.826   4.383  0.7521 -0.7170  0.0382
  187POPC  H13B21419   1.902   0.864   4.517  0.9505 -0.5081 -0.0281
  187POPC  H13C21420   1.909   0.968   4.375 -2.2175  0.3366 -0.3269
  187POPC   C1421421   2.137   0.780   4.444  0.0125  0.3037 -0.2677
  187POPC  H14A21422   2.204   0.864   4.438  0.0055  0.5966  2.4459
  187POPC  H14B21423   2.109   0.793   4.548 -2.7590 -1.4001 -0.6793
  187POPC  H14C21424   2.196   0.690   4.430 -0.4035 -0.1827  0.9939
  187POPC   C1521425   2.055   0.835   4.224  0.3922  0.4329  0.2539
  187POPC  H15A21426   2.110   0.928   4.225 -0.8664  1.1947  1.9039
  187POPC  H15B21427   1.977   0.842   4.150 -1.8768 -3.2053  1.9794
  187POPC  H15C21428   2.128   0.773   4.173 -1.7338 -1.0528 -1.1551
  187POPC   C1121429   2.031   0.516   4.292  0.1947 -0.0006  0.1976
  187POPC  H11A21430   2.074   0.539   4.192  4.0258 -1.4809  1.3160
  187POPC  H11B21431   1.958   0.433   4.284  0.5793 -0.2464 -1.0291
  187POPC     P21432   2.152   0.352   4.457  0.3335 -0.1147  0.1645
  187POPC   O1321433   2.268   0.342   4.549  0.0442 -0.5645 -0.2280
  187POPC   O1421434   2.153   0.246   4.349 -0.2455  0.2388 -0.3427
  187POPC   O1221435   2.146   0.495   4.381  0.8040 -0.3700  0.3187
  187POPC   O1121436   2.013   0.342   4.529 -0.2375  0.5126  0.1705
  187POPC    C121437   1.971   0.412   4.642  0.0507 -0.1139  0.4995
  187POPC    HA21438   1.860   0.408   4.640  0.0084  0.2950  1.4597
  187POPC    HB21439   1.999   0.519   4.632 -0.5586 -0.0120 -0.1346
  187POPC    C221440   2.007   0.343   4.778  0.4589 -0.5427  0.7633
  187POPC    HS21441   1.943   0.385   4.858 -0.1045  0.2250 -0.0652
  187POPC   O2121442   2.142   0.367   4.808  0.7981 -0.2535 -0.6410
  187POPC   C2121443   2.179   0.485   4.838 -0.4493  0.9361  0.1908
  187POPC   O2221444   2.113   0.588   4.843 -0.1536 -0.1879 -0.3668
  187POPC   C2221445   2.324   0.483   4.861  0.5218  0.4155 -0.1957
  187POPC   H2R21446   2.372   0.557   4.794 -1.6874  1.9504 -0.1796
  187POPC   H2S21447   2.358   0.381   4.835 -0.3391 -0.4278  1.7722
  187POPC    C321448   1.974   0.194   4.777 -0.1953  0.1774  0.2384
  187POPC    HX21449   2.042   0.142   4.705 -1.6507  1.2129 -1.9762
  187POPC    HY21450   1.869   0.196   4.742 -0.2732 -0.6564  0.3884
  187POPC   O3121451   1.992   0.142   4.916 -0.0089  0.0095 -0.4402
  187POPC   C3121452   2.107   0.083   4.940 -0.0937  0.0144  0.7477
  187POPC   O3221453   2.201   0.087   4.862 -0.3960 -0.1438 -0.4342
  187POPC   C3221454   2.102   0.022   5.083  0.2527  0.3812 -0.6619
  187POPC   H2X21455   2.002   0.051   5.124  0.7572  1.9400 -0.4625
  187POPC   H2Y21456   2.180   0.078   5.139  0.0476  0.1035 -0.0855
  187POPC   C2321457   2.358   0.501   5.015  0.7326 -0.5768 -0.2700
  187POPC   H3R21458   2.306   0.419   5.069 -1.4882  1.1969  0.4868
  187POPC   H3S21459   2.307   0.594   5.051  1.6999 -0.8502  2.0315
  187POPC   C2421460   2.507   0.510   5.029 -0.3019  0.4891 -0.4600
  187POPC   H4R21461   2.520   0.580   5.114 -1.7198 -0.0132  0.1993
  187POPC   H4S21462   2.567   0.556   4.948  0.6263 -1.6186 -1.0268
  187POPC   C2521463   2.575   0.375   5.064  0.2685 -0.1393 -0.1436
  187POPC   H5R21464   2.685   0.381   5.052 -0.0901  1.7617 -3.6035
  187POPC   H5S21465   2.551   0.290   4.997 -1.4773 -0.8148  1.2431
  187POPC   C2621466   2.537   0.329   5.208  0.3320  0.3238 -0.1561
  187POPC   H6R21467   2.427   0.328   5.221  0.4559  0.4810  1.0366
  187POPC   H6S21468   2.576   0.407   5.276  0.7759 -0.5078  0.5700
  187POPC   C2721469   2.581   0.185   5.242  0.0406 -0.2182 -0.1616
  187POPC   H7R21470   2.692   0.173   5.241  0.4126  2.3192 -3.0759
  187POPC   H7S21471   2.538   0.119   5.163  3.1805 -0.6863 -1.6617
  187POPC   C2821472   2.518   0.149   5.382  0.1496 -0.2671  1.0031
  187POPC   H8R21473   2.548   0.043   5.396  1.7315 -0.1861 -1.2022
  187POPC   H8S21474   2.410   0.154   5.358 -0.0148  0.0894  1.7979
  187POPC   C2921475   2.557   0.234   5.495 -0.9442  0.4540  0.0098
  187POPC   H9121476   2.649   0.284   5.462  0.3854 -2.2347 -0.5889
  187POPC  C21021477   2.489   0.270   5.601 -0.5372  0.4304 -0.2637
  187POPC  H10121478   2.547   0.326   5.676 -0.9932  1.2977 -0.5437
  187POPC  C21121479   2.351   0.218   5.625  0.0434 -0.7104  0.1483
  187POPC  H11R21480   2.340   0.161   5.719 -0.2970  1.2439  1.3515
  187POPC  H11S21481   2.306   0.156   5.545  1.1975 -4.7083  2.3526
  187POPC  C21221482   2.264   0.344   5.648 -0.1681  0.7073  0.6079
  187POPC  H12R21483   2.314   0.406   5.725  0.6415  0.8628 -0.0179
  187POPC  H12S21484   2.175   0.303   5.699 -0.6940  0.1315 -0.7166
  187POPC  C21321485   2.220   0.431   5.528 -0.9162 -0.1337  0.0471
  187POPC  H13R21486   2.305   0.484   5.480 -1.0913  0.0333 -0.0780
  187POPC  H13S21487   2.173   0.522   5.570  2.7589  2.6691 -1.3101
  187POPC  C21421488   2.129   0.362   5.420 -0.1094  0.2074 -0.3264
  187POPC  H14R21489   2.044   0.302   5.460  0.4075 -0.1929  0.1968
  187POPC  H14S21490   2.193   0.290   5.365  2.5999  2.6687 -0.6599
  187POPC  C21521491   2.098   0.457   5.303  0.3967  0.0607 -0.1409
  187POPC  H15R21492   2.055   0.396   5.221  1.2021  0.6548 -1.0280
  187POPC  H15S21493   2.200   0.497   5.282  0.2116  0.8509  0.4171
  187POPC  C21621494   1.995   0.566   5.338  0.5446 -0.2472 -0.4210
  187POPC  H16R21495   2.024   0.615   5.433  0.8715  0.8668 -1.0707
  187POPC  H16S21496   1.894   0.522   5.354 -0.1785  1.0829 -1.1031
  187POPC  C21721497   1.977   0.662   5.222 -0.2152 -0.3912 -0.1039
  187POPC  H17R21498   2.077   0.698   5.191 -0.9057  1.3027 -0.4617
  187POPC  H17S21499   1.925   0.751   5.264  0.2564 -0.2121  0.1061
  187POPC  C21821500   1.905   0.617   5.088 -0.6742 -0.0721 -0.1858
  187POPC  H18R21501   1.872   0.704   5.027  0.8212 -0.6131 -1.8345
  187POPC  H18S21502   1.819   0.551   5.111 -2.2180  2.2164  1.0442
  187POPC  H18T21503   1.974   0.553   5.029 -1.1683 -1.9307  1.1765
  187POPC   C3321504   2.107  -0.132   5.087 -0.5128 -0.1283  0.5824
  187POPC   H3X21505   2.098  -0.169   5.191 -3.8407  0.5347  0.6415
  187POPC   H3Y21506   2.213  -0.154   5.059 -0.0997  1.3355  0.9003
  187POPC   C3421507   1.999  -0.206   5.006 -0.2348 -0.1296 -0.0981
  187POPC   H4X21508   2.015  -0.198   4.897  0.6970 -0.8457 -0.0186
  187POPC   H4Y21509   1.905  -0.150   5.028  0.2284  0.9077 -0.7067
  187POPC   C3521510   1.988  -0.360   5.039  0.1329 -0.1973  0.2554
  187POPC   H5X21511   1.895  -0.410   5.006 -0.5185  1.1334  0.0200
  187POPC   H5Y21512   1.988  -0.377   5.149 -2.3012 -1.2398  0.1492
  187POPC   C3621513   2.094  -0.451   4.971 -0.3255  0.2659 -0.2046
  187POPC   H6X21514   2.186  -0.389   4.965 -0.2898  0.5882  2.4161
  187POPC   H6Y21515   2.067  -0.481   4.868  0.8989 -0.2689 -0.3986
  187POPC   C3721516   2.126  -0.579   5.057  0.6373  0.3119  0.0812
  187POPC   H7X21517   2.168  -0.553   5.157  0.5274 -0.9913  0.4750
  187POPC   H7Y21518   2.210  -0.626   5.002  0.2751  1.1544 -1.2359
  187POPC   C3821519   2.012  -0.688   5.051 -0.0044 -0.7681 -0.4701
  187POPC   H8X21520   1.991  -0.720   4.946 -1.2342 -1.0829 -0.1431
  187POPC   H8Y21521   1.917  -0.643   5.085 -0.4906 -0.0256 -2.6322
  187POPC   C3921522   2.044  -0.810   5.143 -0.8171  0.5884  0.5817
  187POPC   H9X21523   2.148  -0.839   5.114 -1.4980  0.8716 -2.4859
  187POPC   H9Y21524   1.978  -0.898   5.127 -0.0670 -0.1055  1.2291
  187POPC  C31021525   2.040  -0.779   5.287  0.3649 -0.4280  0.0322
  187POPC  H10X21526   1.943  -0.728   5.305  1.1786  1.0484  0.4360
  187POPC  H10Y21527   2.117  -0.703   5.314  0.1991 -0.3489  0.2857
  187POPC  C31121528   2.056  -0.900   5.377  0.6168 -0.1114  0.6143
  187POPC  H11X21529   2.146  -0.954   5.339 -0.5074 -1.6945  0.1074
  187POPC  H11Y21530   1.962  -0.955   5.357 -0.6994  2.6067 -1.1653
  187POPC  C31221531   2.059  -0.869   5.527  0.8081  0.6050 -0.5448
  187POPC  H12X21532   1.955  -0.854   5.563  0.0487  1.8033 -3.0170
  187POPC  H12Y21533   2.122  -0.779   5.545  0.3695  0.7643  0.2273
  187POPC  C31321534   2.126  -0.974   5.619 -0.9501  0.2112  0.2208
  187POPC  H13X21535   2.236  -0.964   5.603 -1.1528  1.2335 -0.7313
  187POPC  H13Y21536   2.075  -1.068   5.589 -1.0824  0.1560  0.6248
  187POPC  C31421537   2.097  -0.967   5.769  0.1569 -0.0890 -0.1406
  187POPC  H14X21538   2.160  -1.035   5.830 -0.0730  0.8487  1.1668
  187POPC  H14Y21539   1.989  -0.982   5.792 -0.6726  2.9746 -1.5253
  187POPC  C31521540   2.112  -0.823   5.826 -0.1724  0.1522 -0.4830
  187POPC  H15X21541   2.036  -0.746   5.800 -0.5019 -0.3371 -0.9937
  187POPC  H15Y21542   2.205  -0.777   5.785 -0.5929  1.1935 -0.3025
  187POPC  C31621543   2.153  -0.821   5.977  0.5350  0.1745  0.0754
  187POPC  H16X21544   2.236  -0.894   5.985  1.1439  0.3946 -3.0731
  187POPC  H16Y21545   2.072  -0.846   6.049 -0.0742 -0.0155 -0.6694
  187POPC  H16Z21546   2.194  -0.726   6.018  1.1566 -0.2308  0.4030
  188POPC     N21547   3.131   0.448   3.941  0.4286  0.3724 -0.9084
  188POPC   C1221548   3.109   0.410   4.080 -0.3654  0.8448  0.9276
  188POPC  H12A21549   3.060   0.313   4.078 -0.5448  0.9333  1.0221
  188POPC  H12B21550   3.040   0.480   4.126  0.6443  2.8801 -0.5430
  188POPC   C1321551   2.993   0.446   3.885  0.4472  0.5932 -0.4145
  188POPC  H13A21552   2.914   0.498   3.936  0.0214  0.1427 -0.6069
  188POPC  H13B21553   2.991   0.480   3.782  0.2892 -1.6055 -1.1895
  188POPC  H13C21554   2.973   0.341   3.870  1.2695  0.4305 -0.3961
  188POPC   C1421555   3.200   0.583   3.927  0.0245  0.3036  0.5647
  188POPC  H14A21556   3.306   0.570   3.941 -0.1529 -3.1957 -0.4778
  188POPC  H14B21557   3.191   0.614   3.824 -0.2925 -0.8071  0.2424
  188POPC  H14C21558   3.170   0.658   3.999  0.8195  0.2442  0.9764
  188POPC   C1521559   3.213   0.345   3.864  0.5350 -0.1809  0.2492
  188POPC  H15A21560   3.224   0.378   3.762 -1.4574  1.1874  0.4317
  188POPC  H15B21561   3.151   0.257   3.855 -0.5749  0.7389 -1.5617
  188POPC  H15C21562   3.299   0.328   3.928 -0.0642  0.0541  1.1313
  188POPC   C1121563   3.229   0.386   4.171  0.3859 -0.1418  0.2702
  188POPC  H11A21564   3.196   0.380   4.277 -2.7393  1.3310 -0.5044
  188POPC  H11B21565   3.295   0.476   4.169 -1.2210  1.1236  1.4436
  188POPC     P21566   3.272   0.135   4.185 -0.0336 -0.3414 -0.2646
  188POPC   O1321567   3.349   0.028   4.119  0.1521 -0.4426  0.6005
  188POPC   O1421568   3.125   0.117   4.173  0.5634 -0.1874 -0.2416
  188POPC   O1221569   3.310   0.280   4.122 -0.0879  0.0418  0.1522
  188POPC   O1121570   3.319   0.154   4.330  0.0219 -0.5727 -0.4520
  188POPC    C121571   3.454   0.195   4.354  0.0847 -0.1135  0.4482
  188POPC    HA21572   3.458   0.306   4.353 -1.4804 -0.0398 -0.1674
  188POPC    HB21573   3.518   0.173   4.266 -1.0359  2.3427 -1.0941
  188POPC    C221574   3.497   0.148   4.492  0.2740  0.3486 -0.3122
  188POPC    HS21575   3.488   0.038   4.488 -0.1494  0.3430  0.4739
  188POPC   O2121576   3.410   0.209   4.586 -0.3421  0.0095 -0.6535
  188POPC   C2121577   3.337   0.127   4.655 -0.4982  0.3370 -0.2102
  188POPC   O2221578   3.339   0.004   4.656  0.2079  0.6113  0.8118
  188POPC   C2221579   3.223   0.209   4.712 -0.3110 -0.6552  0.0106
  188POPC   H2R21580   3.130   0.164   4.671 -0.0192 -0.8011 -0.4906
  188POPC   H2S21581   3.223   0.313   4.674 -0.6843 -0.5019  0.4200
  188POPC    C321582   3.642   0.190   4.523  0.1609  0.6878 -0.2138
  188POPC    HX21583   3.656   0.298   4.504 -4.5443  1.1568 -2.5425
  188POPC    HY21584   3.707   0.140   4.448 -0.0860 -0.8446  0.5361
  188POPC   O3121585   3.687   0.153   4.653 -0.7697  0.1706  0.3611
  188POPC   C3121586   3.714   0.026   4.670  0.7614 -0.3796  0.0196
  188POPC   O3221587   3.676  -0.059   4.593 -0.0482  0.1331  0.2935
  188POPC   C3221588   3.770  -0.004   4.807  0.2685 -0.4298 -0.4708
  188POPC   H2X21589   3.869   0.045   4.815 -0.5704  1.0635  1.5569
  188POPC   H2Y21590   3.788  -0.113   4.822  1.4462 -0.0157  1.4097
  188POPC   C2321591   3.202   0.205   4.867  0.5590  0.4077  0.7262
  188POPC   H3R21592   3.217   0.099   4.899  1.2326  0.3506  0.2475
  188POPC   H3S21593   3.093   0.223   4.875  0.0296 -2.3931  1.0103
  188POPC   C2421594   3.306   0.297   4.934 -0.5947  0.8608 -0.0149
  188POPC   H4R21595   3.276   0.397   4.897 -0.9906 -0.0356 -2.2811
  188POPC   H4S21596   3.407   0.277   4.891 -1.1395 -2.7290  0.0830
  188POPC   C2521597   3.317   0.281   5.087 -0.3360 -0.3810  0.1709
  188POPC   H5R21598   3.355   0.180   5.115 -2.0892 -0.8991  0.7761
  188POPC   H5S21599   3.220   0.295   5.138 -0.0326  1.8468  0.2098
  188POPC   C2621600   3.413   0.383   5.153 -0.0811  0.1392  0.3557
  188POPC   H6R21601   3.385   0.484   5.116  0.7152  0.9285  1.8146
  188POPC   H6S21602   3.518   0.364   5.123 -0.8937 -2.8382 -0.9453
  188POPC   C2721603   3.410   0.373   5.304  0.1836  0.2304  0.2631
  188POPC   H7R21604   3.450   0.272   5.327  0.5668  0.2178 -0.4166
  188POPC   H7S21605   3.307   0.372   5.345 -0.7144  0.9391 -1.8129
  188POPC   C2821606   3.482   0.484   5.371  0.1024 -0.0969 -0.4146
  188POPC   H8R21607   3.466   0.483   5.481 -3.5668  0.3766 -0.8308
  188POPC   H8S21608   3.439   0.579   5.335 -0.1300  0.1928  0.6137
  188POPC   C2921609   3.631   0.479   5.353 -0.3477  0.5992  0.1414
  188POPC   H9121610   3.665   0.456   5.251  2.5871  1.7889  0.7480
  188POPC  C21021611   3.720   0.490   5.452  0.0253 -0.0937 -0.2248
  188POPC  H10121612   3.823   0.506   5.419  0.3883 -0.9589  0.4520
  188POPC  C21121613   3.701   0.520   5.600 -0.1890  0.0691 -0.1903
  188POPC  H11R21614   3.621   0.595   5.616  1.4001  1.6020  1.0544
  188POPC  H11S21615   3.797   0.561   5.638 -1.5188  2.1774  1.0630
  188POPC  C21221616   3.668   0.389   5.679 -0.2369 -1.3384 -0.2024
  188POPC  H12R21617   3.757   0.323   5.684 -0.9947 -2.2906  1.4193
  188POPC  H12S21618   3.589   0.342   5.616 -1.4178 -0.7092  0.7753
  188POPC  C21321619   3.628   0.401   5.821  0.0664  0.0532  0.1019
  188POPC  H13R21620   3.694   0.474   5.872  0.4938 -1.4776  1.8659
  188POPC  H13S21621   3.645   0.304   5.873 -1.4450 -0.1881  0.1881
  188POPC  C21421622   3.489   0.454   5.852  0.1763 -0.1739 -1.1800
  188POPC  H14R21623   3.403   0.390   5.825 -0.8710  0.9015 -0.5041
  188POPC  H14S21624   3.481   0.549   5.794 -0.4431  0.7637  0.3690
  188POPC  C21521625   3.470   0.486   6.004 -0.1597  0.1280  0.5504
  188POPC  H15R21626   3.377   0.543   6.020 -0.7856 -0.5800 -0.4377
  188POPC  H15S21627   3.554   0.544   6.048  0.2146  0.3312 -0.4012
  188POPC  C21621628   3.458   0.363   6.098  0.6431  0.1380  0.6070
  188POPC  H16R21629   3.548   0.300   6.111  1.0590  0.7318  0.6777
  188POPC  H16S21630   3.379   0.298   6.055  1.5782 -0.7314  0.1515
  188POPC  C21721631   3.409   0.397   6.240  0.1586  0.5984 -0.4953
  188POPC  H17R21632   3.327   0.471   6.241 -0.1858  0.2455 -1.5450
  188POPC  H17S21633   3.491   0.440   6.302  0.4306 -0.8221  0.1794
  188POPC  C21821634   3.354   0.268   6.308  0.3402  0.3884 -0.5157
  188POPC  H18R21635   3.273   0.211   6.258  0.7798 -0.1018 -0.6840
  188POPC  H18S21636   3.336   0.279   6.417 -2.4043  0.3351 -0.9001
  188POPC  H18T21637   3.434   0.191   6.306  1.0546  1.0363  1.1981
  188POPC   C3321638   3.686   0.055   4.926  0.4239 -0.0232  0.3969
  188POPC   H3X21639   3.580   0.022   4.927  1.4990 -3.9709  1.6276
  188POPC   H3Y21640   3.699   0.165   4.911  0.5990 -0.2604 -1.3405
  188POPC   C3421641   3.750   0.026   5.059 -0.0810  0.0610  0.0201
  188POPC   H4X21642   3.848   0.077   5.067 -0.3991  0.9712 -1.5883
  188POPC   H4Y21643   3.784  -0.079   5.067  1.9457  0.6726 -0.1978
  188POPC   C3521644   3.653   0.039   5.179 -0.1350  0.2628  0.3288
  188POPC   H5X21645   3.573  -0.036   5.162 -0.3898  0.7265 -0.5712
  188POPC   H5Y21646   3.606   0.138   5.194 -1.2366 -0.1896 -0.0547
  188POPC   C3621647   3.720   0.004   5.306 -0.1112 -0.2636 -0.7809
  188POPC   H6X21648   3.763  -0.098   5.297  2.6339  0.8183 -1.0865
  188POPC   H6Y21649   3.642   0.008   5.384 -1.2745 -0.5161 -1.9003
  188POPC   C3721650   3.838   0.095   5.341 -0.2702 -0.0323 -1.1743
  188POPC   H7X21651   3.809   0.201   5.327  2.6885  0.6224 -3.0795
  188POPC   H7Y21652   3.929   0.093   5.279 -0.4457  0.6529 -1.4669
  188POPC   C3821653   3.875   0.092   5.489  0.1308 -0.0964 -0.4567
  188POPC   H8X21654   3.926  -0.004   5.509  1.9831  0.8922 -0.1798
  188POPC   H8Y21655   3.780   0.102   5.545  1.2080  1.5618  1.1974
  188POPC   C3921656   3.970   0.206   5.531 -0.6952  0.3697  0.1395
  188POPC   H9X21657   3.913   0.300   5.515  0.7633  1.2889  0.0824
  188POPC   H9Y21658   4.056   0.208   5.460  0.3134 -0.2655  1.3019
  188POPC  C31021659   4.016   0.195   5.682 -0.7052  0.5702  1.1729
  188POPC  H10X21660   4.070   0.098   5.681 -0.9381  0.4106 -1.4387
  188POPC  H10Y21661   3.925   0.186   5.745 -1.2402 -1.0169  0.2189
  188POPC  C31121662   4.092   0.317   5.742  0.3507 -0.4090  0.0512
  188POPC  H11X21663   4.024   0.402   5.720 -0.0087 -1.1127 -1.8223
  188POPC  H11Y21664   4.187   0.318   5.685  0.6469 -0.3490  0.5449
  188POPC  C31221665   4.120   0.331   5.890 -0.5191 -0.7956 -0.4433
  188POPC  H12X21666   4.210   0.394   5.906 -1.9204  1.1547  0.1025
  188POPC  H12Y21667   4.142   0.232   5.935 -0.3135 -1.4568 -1.9578
  188POPC  C31321668   3.999   0.384   5.966  0.2417  0.5104 -0.5856
  188POPC  H13X21669   3.906   0.372   5.906  0.2730  1.4502 -0.8332
  188POPC  H13Y21670   4.018   0.492   5.985 -0.7117  0.6885 -0.5613
  188POPC  C31421671   3.980   0.315   6.100  0.1295  0.4301  0.4315
  188POPC  H14X21672   4.073   0.334   6.158  1.2692 -1.4075 -0.7128
  188POPC  H14Y21673   3.971   0.205   6.086  1.2558  0.4247 -0.4885
  188POPC  C31521674   3.863   0.366   6.184  0.4515 -0.3343 -0.2190
  188POPC  H15X21675   3.786   0.296   6.145  1.9892 -3.6298  2.1253
  188POPC  H15Y21676   3.828   0.468   6.159 -1.4442 -1.3520 -2.0113
  188POPC  C31621677   3.891   0.350   6.336  0.3657 -0.5081 -0.2536
  188POPC  H16X21678   3.927   0.248   6.362  4.0946  0.7243 -0.0050
  188POPC  H16Y21679   3.804   0.384   6.397  1.0378  0.5126  0.1760
  188POPC  H16Z21680   3.981   0.413   6.356 -0.9261  0.9158  1.4482
  189SAPI   C1221681   4.425   5.745   0.181 -0.9015  0.4862 -0.7879
  189SAPI    H221682   4.331   5.771   0.128 -0.4595  1.9368 -0.8855
  189SAPI    O221683   4.519   5.700   0.085  0.0671  0.0158 -0.5218
  189SAPI   HO221684   4.504   5.737  -0.002  0.0112  0.5365 -0.2917
  189SAPI   C1321685   4.461   5.878   0.248 -0.0197 -0.4606 -0.0365
  189SAPI    H321686   4.374   5.904   0.313 -0.3976 -1.5930 -0.0561
  189SAPI    O321687   4.482   5.991   0.168  0.3056 -0.3868  0.3341
  189SAPI   HO321688   4.549   5.982   0.100 -0.7009 -2.4415 -0.4784
  189SAPI   C1421689   4.585   5.859   0.334  0.3527  0.0461  0.0800
  189SAPI    H421690   4.660   5.821   0.260 -1.1280  0.5780 -1.7790
  189SAPI    O421691   4.639   5.980   0.386 -0.2815 -0.2866 -0.2830
  189SAPI   HO421692   4.578   6.045   0.351 -0.1203 -1.3406 -2.7453
  189SAPI   C1521693   4.585   5.736   0.426 -0.3161  0.0433  0.7196
  189SAPI    H521694   4.529   5.771   0.515  1.9284  3.1535  1.0844
  189SAPI    O521695   4.713   5.709   0.488 -0.1571 -0.1213  0.0864
  189SAPI   HO521696   4.775   5.707   0.414 -1.0820 -3.3986 -0.7888
  189SAPI   C1621697   4.521   5.609   0.375 -0.5032 -0.2635 -0.5820
  189SAPI    H621698   4.599   5.563   0.312  0.0005 -1.7907  1.0660
  189SAPI    O621699   4.496   5.523   0.479 -0.6894 -0.0917  0.1353
  189SAPI   HO621700   4.410   5.485   0.461  0.3081 -2.1410 -0.6865
  189SAPI   C1121701   4.397   5.633   0.285  0.4168 -1.1722  0.1319
  189SAPI    H121702   4.325   5.679   0.357  0.9708  1.5658 -0.9283
  189SAPI     P21703   4.183   5.501   0.178 -0.1004  0.1295  0.0852
  189SAPI   O1321704   4.095   5.599   0.246 -0.2009  0.3888  0.0848
  189SAPI   O1421705   4.138   5.359   0.191 -0.1857 -0.0816  0.2020
  189SAPI   O1221706   4.344   5.508   0.239  0.0688 -0.3853 -0.5001
  189SAPI   O1121707   4.203   5.540   0.025 -0.1343 -0.0782 -0.3943
  189SAPI    C121708   4.083   5.560  -0.053  0.1039  1.1779 -1.2342
  189SAPI    HA21709   4.031   5.466  -0.079  0.3794  0.8839 -0.7354
  189SAPI    HB21710   4.004   5.612   0.005 -0.8640 -0.3826 -1.0920
  189SAPI    C221711   4.108   5.644  -0.172  0.7261 -0.5204 -0.8072
  189SAPI    HS21712   4.010   5.658  -0.223  0.1945 -1.7328 -0.1566
  189SAPI   O2121713   4.201   5.588  -0.273  0.1714 -0.4488  0.2019
  189SAPI   C2121714   4.146   5.498  -0.342 -0.7210  0.3194  0.5452
  189SAPI   O2221715   4.029   5.460  -0.341 -0.5229  0.0030  0.1813
  189SAPI   C2221716   4.246   5.441  -0.450  0.2130  0.1746 -0.3954
  189SAPI   H2R21717   4.350   5.467  -0.421  0.2304 -1.4871  1.1715
  189SAPI   H2S21718   4.244   5.331  -0.436  1.9840  0.1844  0.2760
  189SAPI    C321719   4.151   5.792  -0.136 -0.3811 -0.2746 -0.1258
  189SAPI    HX21720   4.208   5.803  -0.041  0.1100  1.5964 -0.5930
  189SAPI    HY21721   4.056   5.849  -0.126 -0.4697 -0.5663  0.8210
  189SAPI   O3121722   4.226   5.858  -0.245  0.1674  0.8803 -0.7058
  189SAPI   C3121723   4.360   5.848  -0.235 -0.2506 -0.6610  0.0592
  189SAPI   O3221724   4.421   5.791  -0.150  0.1542  0.1962 -0.3952
  189SAPI   C3221725   4.434   5.912  -0.352 -0.4087 -0.0420  0.1935
  189SAPI   H2X21726   4.542   5.902  -0.326 -1.0059 -1.6804  2.3059
  189SAPI   H2Y21727   4.399   6.014  -0.377  1.3992  0.1377 -1.8576
  189SAPI   C2321728   4.205   5.486  -0.592 -0.2904  0.2386 -0.3004
  189SAPI   H3R21729   4.219   5.595  -0.603 -0.8365  0.4047  0.5294
  189SAPI   H3S21730   4.100   5.466  -0.623 -0.4157 -0.7227  0.6769
  189SAPI   C2421731   4.284   5.411  -0.702  0.2193 -0.4808 -0.8375
  189SAPI   H4R21732   4.389   5.447  -0.696 -0.1530  0.5781 -0.5030
  189SAPI   H4S21733   4.248   5.459  -0.795  1.2185  1.4011 -0.3110
  189SAPI   C2521734   4.282   5.259  -0.708  0.7762 -0.0154 -0.4701
  189SAPI   H5R21735   4.288   5.226  -0.603 -3.7936  2.1740  0.7148
  189SAPI   C2621736   4.238   5.177  -0.806  0.2155  0.0259 -0.5268
  189SAPI   H6R21737   4.241   5.067  -0.797  2.2538  0.1027  0.4399
  189SAPI   C2721738   4.188   5.229  -0.948  0.7289 -0.0260  0.6259
  189SAPI   H7R21739   4.258   5.299  -0.998 -0.7043  0.4224 -0.8522
  189SAPI   H7S21740   4.092   5.278  -0.922  1.0252  0.3186  1.0996
  189SAPI   C2821741   4.177   5.116  -1.045  0.2785  0.8277  0.6325
  189SAPI   H8R21742   4.270   5.060  -1.067  0.3333  0.4379  1.8045
  189SAPI   C2921743   4.082   5.119  -1.142  0.2433 -0.1812  0.0580
  189SAPI   H9R21744   4.087   5.041  -1.220  1.1593  0.0372 -0.1122
  189SAPI  C21021745   3.968   5.206  -1.150  0.4381 -0.3136  0.6467
  189SAPI  H10R21746   3.994   5.314  -1.162 -1.0897 -0.1140 -1.5918
  189SAPI  H10S21747   3.915   5.199  -1.053  0.8101 -0.1075  0.8642
  189SAPI  C21121748   3.877   5.176  -1.265 -0.3280 -0.3326  0.8740
  189SAPI  H11R21749   3.825   5.079  -1.259 -1.1493  0.0996  0.8315
  189SAPI  C21221750   3.861   5.258  -1.376  0.5303 -0.2693  0.3235
  189SAPI  H12R21751   3.801   5.228  -1.463  1.2929 -2.6957  0.5424
  189SAPI  C21321752   3.918   5.397  -1.396 -0.7647 -0.2442 -0.2688
  189SAPI  H13R21753   4.028   5.400  -1.378 -0.9734 -0.0650  1.1045
  189SAPI  H13S21754   3.881   5.460  -1.313 -2.2240 -0.7339 -0.5217
  189SAPI  C21421755   3.877   5.465  -1.522 -0.2179 -0.1399  0.8402
  189SAPI  H14R21756   3.772   5.497  -1.516 -0.5530 -1.1130  0.4664
  189SAPI  C21521757   3.956   5.516  -1.621  0.1894  0.7075  0.0576
  189SAPI  H15R21758   3.897   5.561  -1.702  0.2716 -2.0041 -1.6634
  189SAPI  C21621759   4.103   5.486  -1.640  0.3960 -0.2232  0.4594
  189SAPI  H16R21760   4.116   5.399  -1.708 -1.4462  0.0423 -0.2841
  189SAPI  H16S21761   4.146   5.450  -1.545 -1.2485  0.3879  1.4778
  189SAPI  C21721762   4.185   5.611  -1.692  0.0230  0.1389  0.1418
  189SAPI  H17R21763   4.153   5.635  -1.796 -0.5027  0.0451  0.2792
  189SAPI  H17S21764   4.291   5.577  -1.694 -0.2905 -0.8752  0.0966
  189SAPI  C21821765   4.157   5.738  -1.614 -0.6801 -0.0500  0.3227
  189SAPI  H18R21766   4.051   5.769  -1.629 -0.7984  0.2436  1.6675
  189SAPI  H18S21767   4.220   5.817  -1.660 -1.2486 -0.3386 -1.0097
  189SAPI  C21921768   4.174   5.732  -1.470  0.4961  0.2650 -0.9882
  189SAPI  H19R21769   4.260   5.675  -1.429 -0.7381  0.2178  1.7619
  189SAPI  H19S21770   4.085   5.685  -1.422  1.0426  0.3935  0.1755
  189SAPI  C22021771   4.185   5.872  -1.417 -0.4488 -0.2135 -0.1759
  189SAPI  H20R21772   4.271   5.919  -1.470 -0.2717  0.9029  1.0351
  189SAPI  H20S21773   4.206   5.866  -1.308  0.4252  2.5432 -0.1096
  189SAPI  H20T21774   4.098   5.941  -1.423  0.1327  0.6836  1.0796
  189SAPI   C3321775   4.394   5.823  -0.476  0.1042  0.9193 -0.3526
  189SAPI   H3X21776   4.286   5.829  -0.504 -0.1193 -1.4656 -0.2261
  189SAPI   H3Y21777   4.420   5.718  -0.452  0.5633  1.5447  2.1759
  189SAPI   C3421778   4.474   5.868  -0.600  0.3941 -0.1076  0.1024
  189SAPI   H4X21779   4.583   5.854  -0.583  0.3442 -1.2440 -0.4726
  189SAPI   H4Y21780   4.450   5.975  -0.616  1.1333 -0.0503 -0.6506
  189SAPI   C3521781   4.423   5.804  -0.725 -0.6419 -0.1512 -0.1115
  189SAPI   H5X21782   4.313   5.790  -0.729 -0.3317 -3.3023 -3.8400
  189SAPI   H5Y21783   4.470   5.704  -0.724  0.4918  0.3498 -0.9916
  189SAPI   C3621784   4.475   5.881  -0.854 -0.2226 -0.3470 -0.2953
  189SAPI   H6X21785   4.579   5.845  -0.865  0.1824  1.2624 -2.3341
  189SAPI   H6Y21786   4.469   5.992  -0.849 -2.2459 -0.2431 -2.7225
  189SAPI   C3721787   4.400   5.829  -0.980  0.4889 -0.8398 -0.3514
  189SAPI   H7X21788   4.438   5.877  -1.073  0.9634 -0.4908  0.0198
  189SAPI   H7Y21789   4.291   5.847  -0.985  0.5451 -0.7088 -3.7006
  189SAPI   C3821790   4.412   5.679  -1.013  0.0532  0.1067  0.1438
  189SAPI   H8X21791   4.361   5.606  -0.946  1.0204  0.6026  1.4704
  189SAPI   H8Y21792   4.513   5.633  -1.014  0.0864  0.1491  0.7040
  189SAPI   C3921793   4.341   5.662  -1.155  0.0021  0.0666  0.3062
  189SAPI   H9X21794   4.410   5.699  -1.233 -2.3182 -1.4010 -2.6857
  189SAPI   H9Y21795   4.241   5.711  -1.150  0.0545  0.2517 -0.3886
  189SAPI  C31021796   4.314   5.518  -1.205 -0.1904 -0.0518 -0.4765
  189SAPI  H10X21797   4.276   5.521  -1.310 -0.8263 -2.6207 -0.3869
  189SAPI  H10Y21798   4.226   5.480  -1.149 -0.1680  1.4623  0.6322
  189SAPI  C31121799   4.429   5.414  -1.192 -0.6917 -0.3958 -0.3664
  189SAPI  H11X21800   4.440   5.395  -1.083  0.1750  0.9058 -0.2147
  189SAPI  H11Y21801   4.523   5.463  -1.227 -0.6929  0.1339  0.3524
  189SAPI  C31221802   4.404   5.291  -1.283  0.5218 -0.1113  0.0982
  189SAPI  H12X21803   4.370   5.314  -1.386  1.3189 -2.2725 -0.7012
  189SAPI  H12Y21804   4.322   5.241  -1.227  1.7280 -3.0378 -0.5387
  189SAPI  C31321805   4.513   5.184  -1.289  0.6734 -0.6326 -0.0416
  189SAPI  H13X21806   4.531   5.129  -1.195  1.5374  0.9423  0.7496
  189SAPI  H13Y21807   4.608   5.235  -1.317  0.0370  0.1374 -0.8714
  189SAPI  C31421808   4.496   5.075  -1.391  0.3307  0.0331  0.2839
  189SAPI  H14X21809   4.455   5.119  -1.484 -0.7037  0.6696  1.0149
  189SAPI  H14Y21810   4.416   5.001  -1.372  0.8693 -0.1961  1.7715
  189SAPI  C31521811   4.629   4.994  -1.399 -0.2923  0.1854 -0.2943
  189SAPI  H15X21812   4.660   4.987  -1.293 -0.0770  0.0809 -0.3625
  189SAPI  H15Y21813   4.710   5.045  -1.457  2.1790  0.9532  3.4941
  189SAPI  C31621814   4.610   4.856  -1.468  0.3391  0.0682 -0.1666
  189SAPI  H16X21815   4.526   4.805  -1.416 -0.4308  0.9448 -0.5189
  189SAPI  H16Y21816   4.698   4.793  -1.442  2.2485  2.2135 -1.0016
  189SAPI  C31721817   4.607   4.869  -1.622 -0.5606 -0.0309  0.2000
  189SAPI  H17X21818   4.696   4.922  -1.662 -0.2519  0.8460  1.9386
  189SAPI  H17Y21819   4.518   4.932  -1.641 -1.0489 -0.7694  0.0007
  189SAPI  C31821820   4.581   4.737  -1.698  0.2454 -0.2220  0.9023
  189SAPI  H18X21821   4.585   4.762  -1.806  1.3379  1.5816  1.3260
  189SAPI  H18Y21822   4.481   4.701  -1.664 -0.5638  1.0730 -0.0111
  189SAPI  H18Z21823   4.647   4.649  -1.684 -2.1500 -2.7884 -2.1791
  190SAPI   C1221824   3.929   0.045   0.518 -0.5304 -1.8840 -0.7781
  190SAPI    H221825   3.895  -0.011   0.608  3.9534 -0.3152  2.1859
  190SAPI    O221826   3.815   0.071   0.434  0.6110 -0.4652 -0.2500
  190SAPI   HO221827   3.739   0.037   0.482  0.4913 -0.3441 -0.3555
  190SAPI   C1321828   3.989   0.170   0.567  0.3742  0.2624 -0.3618
  190SAPI    H321829   4.085   0.139   0.613  1.2209 -0.8573 -2.7855
  190SAPI    O321830   3.902   0.240   0.653  0.2450  0.1383 -0.4705
  190SAPI   HO321831   3.869   0.320   0.612  1.1520  1.2399  0.8450
  190SAPI   C1421832   4.036   0.259   0.457  0.3253  0.2049  0.8076
  190SAPI    H421833   3.943   0.302   0.413  0.2452 -0.1705  0.6023
  190SAPI    O421834   4.119   0.363   0.507 -0.0675  0.0486 -0.2907
  190SAPI   HO421835   4.128   0.439   0.449  2.1711 -1.0692 -1.5557
  190SAPI   C1521836   4.110   0.181   0.346  0.2212  0.9432 -0.0904
  190SAPI    H521837   4.218   0.191   0.371  0.3508  0.6035 -0.5096
  190SAPI    O521838   4.107   0.257   0.227 -0.2774  0.0617 -0.2297
  190SAPI   HO521839   4.196   0.277   0.196  0.7256  0.7921  2.7182
  190SAPI   C1621840   4.086   0.029   0.326  0.1632 -0.3147 -0.1920
  190SAPI    H621841   4.014   0.029   0.241  1.6025  1.9030 -1.4889
  190SAPI    O621842   4.201  -0.034   0.273 -0.0695  0.4373 -0.0864
  190SAPI   HO621843   4.169  -0.112   0.228 -0.5760 -0.2197  1.3697
  190SAPI   C1121844   4.024  -0.046   0.449  0.3701  0.4256  0.6134
  190SAPI    H121845   4.110  -0.050   0.519  0.0204 -1.7869  1.0016
  190SAPI     P21846   4.054  -0.309   0.429 -0.2011  0.1521 -0.2445
  190SAPI   O1321847   3.956  -0.422   0.442  0.2638  0.3003  0.1992
  190SAPI   O1421848   4.164  -0.295   0.525  0.4336  0.0590  0.0426
  190SAPI   O1221849   3.967  -0.171   0.433 -0.5806  0.0754  0.0699
  190SAPI   O1121850   4.104  -0.305   0.282 -0.1330  0.1880  0.2618
  190SAPI    C121851   4.024  -0.344   0.170  0.3381  0.2485 -0.6228
  190SAPI    HA21852   3.960  -0.432   0.193  0.2063  0.5240  0.0795
  190SAPI    HB21853   3.963  -0.254   0.149 -2.8431 -0.9939  2.3576
  190SAPI    C221854   4.114  -0.364   0.043 -0.2595 -0.3049 -0.8640
  190SAPI    HS21855   4.177  -0.448   0.078 -0.0124  0.9913  2.1498
  190SAPI   O2121856   4.186  -0.240   0.013 -0.3214  0.2636 -0.4625
  190SAPI   C2121857   4.284  -0.262  -0.070  0.7246  0.2773  0.4853
  190SAPI   O2221858   4.320  -0.370  -0.107  0.1440 -0.1980  0.5319
  190SAPI   C2221859   4.358  -0.129  -0.096  0.2467  0.3501 -0.1658
  190SAPI   H2R21860   4.287  -0.054  -0.138  0.8585  1.3705  0.5673
  190SAPI   H2S21861   4.387  -0.093   0.005 -0.3536 -0.9739  0.5007
  190SAPI    C321862   4.029  -0.419  -0.072  0.3633  0.5189 -0.0652
  190SAPI    HX21863   3.983  -0.514  -0.036 -1.7659  1.6194  0.3205
  190SAPI    HY21864   4.096  -0.446  -0.156 -0.2804  0.9440 -0.7294
  190SAPI   O3121865   3.924  -0.324  -0.110 -0.3652  0.0129  0.0830
  190SAPI   C3121866   3.810  -0.379  -0.158 -0.0711 -0.5880 -0.5655
  190SAPI   O3221867   3.788  -0.499  -0.161  0.6268  0.4579  0.4303
  190SAPI   C3221868   3.714  -0.267  -0.206 -0.4327 -0.0026 -0.5578
  190SAPI   H2X21869   3.772  -0.172  -0.204  2.8427 -1.8453  0.2772
  190SAPI   H2Y21870   3.633  -0.263  -0.131 -1.6342  0.1854 -1.8235
  190SAPI   C2321871   4.486  -0.131  -0.188  0.1970 -0.5821  0.6422
  190SAPI   H3R21872   4.549  -0.216  -0.156  0.5924  0.0132  1.4916
  190SAPI   H3S21873   4.557  -0.046  -0.171  0.7818 -0.1629 -3.0457
  190SAPI   C2421874   4.460  -0.148  -0.340 -0.1056 -0.2680 -0.6341
  190SAPI   H4R21875   4.403  -0.243  -0.351  0.2046 -0.7721  1.6714
  190SAPI   H4S21876   4.557  -0.170  -0.391  0.2055  1.6395 -0.9145
  190SAPI   C2521877   4.376  -0.031  -0.392  0.6349 -0.6244  0.2574
  190SAPI   H5R21878   4.322   0.036  -0.323  0.2384 -0.1360 -0.5111
  190SAPI   C2621879   4.346  -0.009  -0.519  0.0922  0.7592  0.3296
  190SAPI   H6R21880   4.275   0.073  -0.536  0.2626  1.1690  1.5210
  190SAPI   C2721881   4.388  -0.093  -0.634 -0.4876 -0.4927 -0.0378
  190SAPI   H7R21882   4.414  -0.196  -0.602  1.3128 -0.3263 -0.8420
  190SAPI   H7S21883   4.478  -0.049  -0.683 -1.2433  0.2601 -0.7985
  190SAPI   C2821884   4.281  -0.112  -0.739  0.6501  0.2978 -0.0466
  190SAPI   H8R21885   4.235  -0.212  -0.733  4.1554 -1.4757 -0.3386
  190SAPI   C2921886   4.247  -0.053  -0.850 -0.5732  0.0963  0.1596
  190SAPI   H9R21887   4.172  -0.102  -0.913  0.3261  0.5104 -1.2846
  190SAPI  C21021888   4.316   0.075  -0.902 -0.2021 -0.2164 -0.5287
  190SAPI  H10R21889   4.356   0.131  -0.814  0.5532 -1.4492 -0.0540
  190SAPI  H10S21890   4.239   0.146  -0.937  0.9909  0.5111 -1.7849
  190SAPI  C21121891   4.429   0.051  -0.993 -0.1839 -0.6316  0.3696
  190SAPI  H11R21892   4.525   0.024  -0.948 -0.0142  0.5072  0.7155
  190SAPI  C21221893   4.426   0.068  -1.123 -0.3753 -0.0131 -0.3240
  190SAPI  H12R21894   4.517   0.036  -1.177  0.0546  1.0270 -0.2387
  190SAPI  C21321895   4.315   0.125  -1.200  0.1512 -0.6121  0.5731
  190SAPI  H13R21896   4.369   0.166  -1.288  0.8538 -3.2235 -0.2981
  190SAPI  H13S21897   4.266   0.213  -1.153  1.0908  1.5316 -2.2195
  190SAPI  C21421898   4.201   0.038  -1.243  0.1811  0.4460  0.6290
  190SAPI  H14R21899   4.179  -0.044  -1.173  1.4467  0.1967  0.7516
  190SAPI  C21521900   4.110   0.053  -1.345  0.2013  0.9453  0.2310
  190SAPI  H15R21901   4.034  -0.023  -1.367 -0.3388  1.4882  0.1689
  190SAPI  C21621902   4.108   0.164  -1.447  0.1993 -0.0805  0.0354
  190SAPI  H16R21903   4.175   0.248  -1.417 -1.5149  1.7550 -1.0075
  190SAPI  H16S21904   4.008   0.211  -1.437  1.2388  2.1789  0.5215
  190SAPI  C21721905   4.143   0.122  -1.588  0.0764 -0.2934 -0.2074
  190SAPI  H17R21906   4.228   0.051  -1.582 -0.6900 -1.1937  0.4449
  190SAPI  H17S21907   4.167   0.206  -1.656 -0.0687 -1.3488 -1.6177
  190SAPI  C21821908   4.030   0.045  -1.653  0.2702  0.5546 -0.1445
  190SAPI  H18R21909   3.942   0.112  -1.663 -0.7999 -0.7165  0.4076
  190SAPI  H18S21910   3.989  -0.034  -1.587 -0.4113  1.0481  0.0352
  190SAPI  C21921911   4.061  -0.028  -1.783  0.0199 -0.4695 -0.0600
  190SAPI  H19R21912   4.142   0.033  -1.829  0.8528 -1.9730 -0.6606
  190SAPI  H19S21913   3.976  -0.022  -1.854  1.2246  0.1843 -1.5137
  190SAPI  C22021914   4.112  -0.171  -1.780 -0.3880 -0.1312  0.3968
  190SAPI  H20R21915   4.037  -0.250  -1.760 -1.5121  0.7820 -0.0595
  190SAPI  H20S21916   4.184  -0.194  -1.699  0.5010 -0.5538 -0.4843
  190SAPI  H20T21917   4.159  -0.198  -1.877 -1.0153  0.2394 -0.0159
  190SAPI   C3321918   3.658  -0.279  -0.355 -0.1138  0.1904 -0.0552
  190SAPI   H3X21919   3.565  -0.218  -0.350 -0.6131 -0.6092  0.9940
  190SAPI   H3Y21920   3.641  -0.385  -0.382 -0.9397 -0.4688  2.7013
  190SAPI   C3421921   3.753  -0.219  -0.453 -0.1082 -0.9951  0.6747
  190SAPI   H4X21922   3.850  -0.273  -0.447  0.3249 -0.2939  0.2607
  190SAPI   H4Y21923   3.779  -0.112  -0.433  0.0694 -0.8633 -0.2315
  190SAPI   C3521924   3.705  -0.225  -0.595 -0.1331  0.2697 -0.8712
  190SAPI   H5X21925   3.676  -0.329  -0.622 -0.7885 -0.3033  1.7114
  190SAPI   H5Y21926   3.790  -0.214  -0.666  0.5572 -2.6641 -0.6299
  190SAPI   C3621927   3.597  -0.123  -0.619 -0.1714  0.6176  0.2899
  190SAPI   H6X21928   3.629  -0.020  -0.595 -0.6435  0.4115  1.9320
  190SAPI   H6Y21929   3.524  -0.156  -0.542  2.2273 -0.1895  2.3706
  190SAPI   C3721930   3.538  -0.152  -0.759 -0.8423 -0.2793 -0.4568
  190SAPI   H7X21931   3.515  -0.260  -0.775 -3.2931 -0.1534  1.5913
  190SAPI   H7Y21932   3.621  -0.130  -0.829  0.8545  1.3924  1.9371
  190SAPI   C3821933   3.421  -0.055  -0.795 -0.1824 -0.0442  0.6546
  190SAPI   H8X21934   3.473   0.042  -0.781  0.2541 -0.3183  0.9474
  190SAPI   H8Y21935   3.337  -0.058  -0.723  1.4565 -1.3212  2.6033
  190SAPI   C3921936   3.375  -0.070  -0.942  0.0473  0.3901  0.3165
  190SAPI   H9X21937   3.378  -0.181  -0.950  2.6966  0.4269  0.0003
  190SAPI   H9Y21938   3.460  -0.038  -1.005  0.5697 -0.7253  0.4232
  190SAPI  C31021939   3.244  -0.016  -0.983  0.2943 -0.4880  0.4208
  190SAPI  H10X21940   3.247   0.095  -0.978 -2.1885 -0.3449  0.0046
  190SAPI  H10Y21941   3.162  -0.036  -0.911  0.6288 -3.0546  0.1745
  190SAPI  C31121942   3.208  -0.051  -1.129 -0.2400 -0.0036  0.1249
  190SAPI  H11X21943   3.210  -0.160  -1.149  0.2140 -0.0179  0.2474
  190SAPI  H11Y21944   3.278  -0.004  -1.201 -0.1560 -1.3328 -0.6942
  190SAPI  C31221945   3.071   0.005  -1.165 -0.2735 -0.2939 -0.0441
  190SAPI  H12X21946   3.082   0.115  -1.156 -0.0844 -0.2219 -1.0843
  190SAPI  H12Y21947   2.995  -0.026  -1.090  1.4176 -0.0369  1.8899
  190SAPI  C31321948   3.015  -0.026  -1.308 -0.2944  0.4213  0.3289
  190SAPI  H13X21949   2.909   0.009  -1.305 -0.7580 -0.8153 -0.7627
  190SAPI  H13Y21950   3.028  -0.133  -1.331 -0.1828  0.6559 -0.7587
  190SAPI  C31421951   3.101   0.049  -1.416 -0.3571  0.6194  0.2210
  190SAPI  H14X21952   3.204   0.008  -1.412 -0.0854  1.3753  1.3783
  190SAPI  H14Y21953   3.108   0.158  -1.395  2.1063 -0.0973  4.0241
  190SAPI  C31521954   3.045   0.015  -1.562 -0.1186 -0.5810  0.3602
  190SAPI  H15X21955   2.938   0.041  -1.554 -0.2236 -0.9331  0.1176
  190SAPI  H15Y21956   3.041  -0.094  -1.581  2.1337 -0.5841 -0.4554
  190SAPI  C31621957   3.124   0.093  -1.670 -0.0049  0.1864 -0.0809
  190SAPI  H16X21958   3.229   0.084  -1.635 -0.1474  1.0545  0.6130
  190SAPI  H16Y21959   3.100   0.202  -1.666 -0.9943 -0.0502  0.8045
  190SAPI  C31721960   3.111   0.030  -1.810  0.0215  0.5303 -0.1384
  190SAPI  H17X21961   3.002   0.030  -1.833 -0.1462  2.0287  0.5443
  190SAPI  H17Y21962   3.141  -0.077  -1.811 -1.0020  0.2339 -0.4919
  190SAPI  C31821963   3.191   0.112  -1.913 -0.1535  0.5296  0.0402
  190SAPI  H18X21964   3.294   0.118  -1.872 -0.2641  0.4950  0.3235
  190SAPI  H18Y21965   3.156   0.216  -1.930  1.3724  1.2292  0.9509
  190SAPI  H18Z21966   3.199   0.059  -2.010 -0.1409  0.3805  0.1216
  191SAPI   C1221967   2.070   6.292   4.073  0.1822 -0.0436 -0.5253
  191SAPI    H221968   1.994   6.369   4.053 -0.9696 -1.1726 -0.6098
  191SAPI    O221969   2.051   6.187   3.977  0.2050 -0.5716  0.1051
  191SAPI   HO221970   1.957   6.168   3.981  0.2255 -0.6853  0.0133
  191SAPI   C1321971   2.206   6.354   4.067  0.2879  0.0554  0.3218
  191SAPI    H321972   2.218   6.407   4.164  0.2443 -0.4738  0.6167
  191SAPI    O321973   2.214   6.431   3.944  0.4599  0.1603  0.0594
  191SAPI   HO321974   2.170   6.389   3.870  0.6073  0.7701 -0.3785
  191SAPI   C1421975   2.315   6.248   4.072 -0.0689  0.3234  0.3966
  191SAPI    H421976   2.298   6.172   3.992 -2.2860  0.2806  0.8427
  191SAPI    O421977   2.450   6.300   4.048 -0.1452 -0.4588  0.2611
  191SAPI   HO421978   2.507   6.240   3.998  1.7482  1.2909  0.2201
  191SAPI   C1521979   2.300   6.163   4.199  0.4470 -0.2728  0.9359
  191SAPI    H521980   2.347   6.224   4.279 -1.3926 -0.1217  1.9666
  191SAPI    O521981   2.386   6.043   4.191 -0.0154 -0.2145 -0.5782
  191SAPI   HO521982   2.389   6.015   4.282 -2.4023 -0.5149 -0.5308
  191SAPI   C1621983   2.163   6.131   4.247 -0.4834  0.7697 -0.0253
  191SAPI    H621984   2.131   6.039   4.193  0.8022 -0.4506  1.1942
  191SAPI    O621985   2.161   6.101   4.385  0.4423  0.6663 -0.1283
  191SAPI   HO621986   2.161   6.007   4.402 -1.5422  0.5959 -0.3407
  191SAPI   C1121987   2.054   6.239   4.218  0.4229 -0.3195  0.0752
  191SAPI    H121988   2.074   6.329   4.279 -2.2823  0.5858 -0.2471
  191SAPI     P21989   1.805   6.301   4.296  0.1510 -0.0111  0.1124
  191SAPI   O1321990   1.687   6.236   4.343  0.4177  0.0036  0.1130
  191SAPI   O1421991   1.781   6.407   4.189  0.2009  0.3721  0.3454
  191SAPI   O1221992   1.921   6.186   4.240 -0.4452 -0.0941  0.5148
  191SAPI   O1121993   1.872   6.369   4.419 -0.0088 -0.3128  0.5882
  191SAPI    C121994   1.876   6.310   4.548 -0.4442 -0.0516  0.5321
  191SAPI    HA21995   1.873   6.199   4.543 -1.0541  0.0131 -0.9338
  191SAPI    HB21996   1.967   6.332   4.607  0.2107  0.1507 -0.5370
  191SAPI    C221997   1.763   6.370   4.645  0.9927  0.1312 -0.0199
  191SAPI    HS21998   1.663   6.357   4.596  0.9527  3.5660 -1.1055
  191SAPI   O2121999   1.788   6.507   4.655 -0.4638 -0.7529 -0.7838
  191SAPI   C2122000   1.701   6.599   4.627 -0.4691  0.7095 -0.5107
  191SAPI   O2222001   1.596   6.576   4.570 -0.0872 -0.1060  0.2270
  191SAPI   C2222002   1.766   6.731   4.668  0.1013  0.5109 -0.8262
  191SAPI   H2R22003   1.845   6.713   4.745 -0.3200 -0.1918 -0.5478
  191SAPI   H2S22004   1.808   6.775   4.575 -1.2661  1.2062 -1.1415
  191SAPI    C322005   1.752   6.296   4.784  0.2288  0.1287 -0.6582
  191SAPI    HX22006   1.848   6.325   4.831  0.2945  0.9162 -1.2655
  191SAPI    HY22007   1.757   6.186   4.768  0.6180  0.1946 -0.9984
  191SAPI   O3122008   1.652   6.334   4.876 -0.2629 -0.1749 -0.2914
  191SAPI   C3122009   1.529   6.304   4.842  0.3713 -0.1848 -0.3433
  191SAPI   O3222010   1.493   6.241   4.747 -0.5350 -0.3737 -0.0778
  191SAPI   C3222011   1.437   6.376   4.940 -0.1241  0.2640  1.0922
  191SAPI   H2X22012   1.440   6.486   4.925 -0.2159  0.1752  0.4084
  191SAPI   H2Y22013   1.487   6.354   5.037 -1.4195 -0.7673  1.5459
  191SAPI   C2322014   1.662   6.832   4.725 -0.2989 -0.0722 -0.3331
  191SAPI   H3R22015   1.598   6.857   4.637 -2.5252  2.6885  1.8794
  191SAPI   H3S22016   1.721   6.915   4.768 -1.3652  0.0841  0.9085
  191SAPI   C2422017   1.577   6.763   4.829  0.2882  0.0986 -0.5554
  191SAPI   H4R22018   1.648   6.700   4.887  2.0565  2.0515 -0.4887
  191SAPI   H4S22019   1.491   6.702   4.792 -1.0934  0.1919  2.2469
  191SAPI   C2522020   1.514   6.858   4.924 -0.2456 -0.2563 -0.0730
  191SAPI   H5R22021   1.453   6.934   4.873  2.0884  1.8109  0.0213
  191SAPI   C2622022   1.537   6.871   5.053 -0.0926  0.9149 -0.8222
  191SAPI   H6R22023   1.482   6.946   5.112  1.3633 -0.4096  2.4507
  191SAPI   C2722024   1.619   6.784   5.151 -0.0925 -0.0951 -0.6433
  191SAPI   H7R22025   1.684   6.844   5.218  1.6349 -2.6771  0.1232
  191SAPI   H7S22026   1.691   6.733   5.083  0.7337 -1.1361  0.9734
  191SAPI   C2822027   1.529   6.687   5.222  0.4401  0.7386 -0.3556
  191SAPI   H8R22028   1.426   6.677   5.185  0.9264 -1.8651 -1.1484
  191SAPI   C2922029   1.580   6.596   5.318 -0.2125 -0.0406 -0.2969
  191SAPI   H9R22030   1.504   6.533   5.366 -0.0768  0.8945  1.2086
  191SAPI  C21022031   1.719   6.596   5.370 -0.2882 -0.7531  0.9890
  191SAPI  H10R22032   1.729   6.660   5.461  0.4548 -1.1522  1.1969
  191SAPI  H10S22033   1.780   6.639   5.288 -3.0823  2.7107  0.4947
  191SAPI  C21122034   1.757   6.451   5.393 -0.3793 -0.8888  0.2752
  191SAPI  H11R22035   1.753   6.387   5.304 -1.9106  1.4897 -1.4968
  191SAPI  C21222036   1.781   6.396   5.520  0.0370 -0.0752 -0.0584
  191SAPI  H12R22037   1.795   6.288   5.534 -1.7120  0.0142  3.8877
  191SAPI  C21322038   1.782   6.474   5.651  0.7606  0.2088 -0.0774
  191SAPI  H13R22039   1.744   6.578   5.639 -1.1747 -0.6273 -1.5075
  191SAPI  H13S22040   1.889   6.489   5.679  2.2292  1.0129 -5.1793
  191SAPI  C21422041   1.703   6.408   5.767 -0.0935  0.1443  0.1617
  191SAPI  H14R22042   1.621   6.340   5.740 -1.7617  2.8609 -2.2579
  191SAPI  C21522043   1.744   6.408   5.902  0.4509 -0.4490 -0.3578
  191SAPI  H15R22044   1.687   6.351   5.977  0.7757 -0.4813 -0.1349
  191SAPI  C21622045   1.871   6.477   5.948 -0.0624  0.3106 -0.2279
  191SAPI  H16R22046   1.907   6.561   5.885  1.0155 -0.3752 -0.5478
  191SAPI  H16S22047   1.952   6.402   5.941 -1.1362 -0.9170  0.0531
  191SAPI  C21722048   1.877   6.503   6.103 -0.5419 -0.5906  0.9309
  191SAPI  H17R22049   1.980   6.527   6.134 -0.4181  0.4017 -0.1385
  191SAPI  H17S22050   1.856   6.414   6.166  1.2647 -0.2998  1.9919
  191SAPI  C21822051   1.787   6.624   6.137  0.0903 -0.1528  0.0718
  191SAPI  H18R22052   1.683   6.610   6.101  0.4086 -0.0759 -0.9095
  191SAPI  H18S22053   1.836   6.705   6.078  1.5321 -0.9564  0.1286
  191SAPI  C21922054   1.785   6.675   6.283  0.2481 -0.0779  0.6682
  191SAPI  H19R22055   1.886   6.689   6.328 -0.8525  0.4836  3.0795
  191SAPI  H19S22056   1.730   6.595   6.337  0.7489 -1.8068 -1.2263
  191SAPI  C22022057   1.711   6.813   6.285  0.9129  0.1501 -0.3171
  191SAPI  H20R22058   1.613   6.807   6.233  0.4508  1.5741  0.3448
  191SAPI  H20S22059   1.770   6.884   6.223 -0.4987  0.7058 -1.0572
  191SAPI  H20T22060   1.693   6.841   6.391 -0.0324  0.6459 -0.6042
  191SAPI   C3322061   1.295   6.328   4.908  0.5444 -0.0211 -0.9100
  191SAPI   H3X22062   1.282   6.218   4.907 -0.8810  0.1311 -1.3814
  191SAPI   H3Y22063   1.269   6.365   4.807 -1.0308  0.2159 -0.4414
  191SAPI   C3422064   1.205   6.405   5.017  0.6866 -0.2922  0.0190
  191SAPI   H4X22065   1.103   6.372   4.989 -0.1322  2.5699 -0.7201
  191SAPI   H4Y22066   1.206   6.515   5.000 -1.1314  0.0205  1.5843
  191SAPI   C3522067   1.244   6.373   5.158  0.0169 -0.0458 -0.0657
  191SAPI   H5X22068   1.342   6.420   5.182 -0.0376  0.3030 -0.5131
  191SAPI   H5Y22069   1.247   6.262   5.153  2.8586  0.0026 -2.5595
  191SAPI   C3622070   1.146   6.423   5.267  0.2960 -0.5171 -0.3620
  191SAPI   H6X22071   1.049   6.368   5.257  1.1138 -2.0032 -0.4340
  191SAPI   H6Y22072   1.116   6.528   5.245  0.9221 -0.2957 -0.1812
  191SAPI   C3722073   1.203   6.420   5.404  0.4543 -0.1644 -0.3889
  191SAPI   H7X22074   1.296   6.480   5.400  0.0432  0.4580 -0.7234
  191SAPI   H7Y22075   1.230   6.318   5.438  2.1482 -0.2626 -1.8802
  191SAPI   C3822076   1.105   6.473   5.510  0.0453 -0.6437 -0.4732
  191SAPI   H8X22077   1.012   6.416   5.524 -1.6286  1.7702 -1.0360
  191SAPI   H8Y22078   1.065   6.574   5.484  1.2142  0.0931  0.4510
  191SAPI   C3922079   1.155   6.489   5.659  0.1915 -0.7192  0.7514
  191SAPI   H9X22080   1.088   6.556   5.717  1.8967  0.4825  1.4334
  191SAPI   H9Y22081   1.252   6.543   5.651  1.4015 -2.5623  2.0139
  191SAPI  C31022082   1.185   6.356   5.724 -0.3661  0.0616  0.1621
  191SAPI  H10X22083   1.254   6.290   5.668 -0.2771  0.6714 -0.4651
  191SAPI  H10Y22084   1.091   6.297   5.735  0.6947 -1.5134  1.1053
  191SAPI  C31122085   1.247   6.360   5.862 -0.4721 -0.3031 -0.3521
  191SAPI  H11X22086   1.176   6.408   5.932 -0.5420 -1.3269  0.3046
  191SAPI  H11Y22087   1.327   6.437   5.860  0.3684 -1.1580 -1.6079
  191SAPI  C31222088   1.313   6.233   5.902 -0.8580  0.5936  0.0858
  191SAPI  H12X22089   1.364   6.248   6.000 -1.1894 -0.6866  0.4645
  191SAPI  H12Y22090   1.393   6.213   5.827 -0.0228 -0.9096  1.3273
  191SAPI  C31322091   1.217   6.115   5.914  0.2208 -0.4307  0.3486
  191SAPI  H13X22092   1.153   6.114   5.823  0.8324  2.2718 -0.1946
  191SAPI  H13Y22093   1.156   6.128   6.006  0.7447  0.2204  0.6127
  191SAPI  C31422094   1.294   5.989   5.941  0.7016 -0.0442  0.2070
  191SAPI  H14X22095   1.355   6.016   6.029  0.1905  0.8519  0.2953
  191SAPI  H14Y22096   1.365   5.971   5.858  0.3251 -0.7935  0.0376
  191SAPI  C31522097   1.202   5.871   5.962  0.6289 -0.1436  0.0879
  191SAPI  H15X22098   1.155   5.848   5.863 -0.9725 -1.7411  1.1484
  191SAPI  H15Y22099   1.110   5.897   6.020  1.4088 -0.2729  1.4164
  191SAPI  C31622100   1.278   5.755   6.016  0.2696  0.0410  0.2264
  191SAPI  H16X22101   1.308   5.780   6.121 -2.5453 -0.3352  1.1990
  191SAPI  H16Y22102   1.371   5.736   5.959  0.9698 -1.4112  1.7852
  191SAPI  C31722103   1.187   5.627   6.026 -0.8191 -0.8234  0.4786
  191SAPI  H17X22104   1.168   5.583   5.925 -1.8232 -0.7504  0.6234
  191SAPI  H17Y22105   1.086   5.650   6.066 -0.5169  0.2519  0.6262
  191SAPI  C31822106   1.260   5.526   6.110 -0.2191  0.3646  0.2912
  191SAPI  H18X22107   1.267   5.552   6.218  1.0464 -1.8576  0.8196
  191SAPI  H18Y22108   1.354   5.490   6.062  0.4226 -1.6288  2.8291
  191SAPI  H18Z22109   1.198   5.434   6.105  1.5609 -0.9415  1.2977
  192SAPI   C1222110   2.065   5.735   4.019  0.4387  1.2015  0.6339
  192SAPI    H222111   2.165   5.783   4.029  1.2835 -0.1709 -0.7696
  192SAPI    O222112   1.964   5.824   4.016 -0.5512 -0.5048  0.0227
  192SAPI   HO222113   1.985   5.899   3.960 -2.3855 -0.9020 -1.2672
  192SAPI   C1322114   2.070   5.644   3.893  0.1085  0.0873 -0.3444
  192SAPI    H322115   2.145   5.565   3.916 -0.6154 -0.2879  0.8588
  192SAPI    O322116   2.116   5.721   3.785 -0.1246  0.3073  0.2715
  192SAPI   HO322117   2.042   5.780   3.766 -0.4351  0.0616  0.7042
  192SAPI   C1422118   1.932   5.595   3.862 -0.3797 -0.1426 -0.4006
  192SAPI    H422119   1.875   5.685   3.830  2.3421  1.4326 -1.1651
  192SAPI    O422120   1.934   5.516   3.747  1.4181  0.2981  0.2428
  192SAPI   HO422121   1.861   5.549   3.694 -2.2321 -2.7931  2.7953
  192SAPI   C1522122   1.864   5.532   3.986  0.0679  0.4537 -0.1664
  192SAPI    H522123   1.887   5.423   3.978  0.4758  0.5859 -0.8326
  192SAPI    O522124   1.717   5.522   3.969  0.6717  0.8240  0.0025
  192SAPI   HO522125   1.699   5.442   3.919  0.1375  1.5115 -0.9388
  192SAPI   C1622126   1.906   5.574   4.124  0.2814  0.1257 -0.7225
  192SAPI    H622127   1.828   5.650   4.146  0.0580 -0.5819  1.1265
  192SAPI    O622128   1.895   5.467   4.219  0.3793 -0.3277 -0.8436
  192SAPI   HO622129   1.858   5.499   4.302 -0.3291  0.8419 -1.5839
  192SAPI   C1122130   2.042   5.648   4.136 -0.1379 -0.0948  0.2090
  192SAPI    H122131   2.124   5.572   4.136  0.2743  0.3107 -1.2277
  192SAPI     P22132   2.184   5.710   4.356 -0.1557  0.1880  0.2801
  192SAPI   O1322133   2.204   5.848   4.417 -0.0318  0.7964 -0.3183
  192SAPI   O1422134   2.301   5.652   4.286  0.0976 -0.3026  0.3656
  192SAPI   O1222135   2.047   5.718   4.261 -0.2266  0.9710 -0.4558
  192SAPI   O1122136   2.136   5.607   4.464  0.4127  0.0047  0.0923
  192SAPI    C122137   2.136   5.469   4.473 -0.6538  0.1847  0.0118
  192SAPI    HA22138   2.034   5.425   4.478 -0.2361 -0.7216  1.0035
  192SAPI    HB22139   2.173   5.425   4.378 -2.1883 -0.9379 -0.0956
  192SAPI    C222140   2.226   5.415   4.590 -0.6738 -1.0657  0.1591
  192SAPI    HS22141   2.224   5.304   4.601  0.4081 -0.9316  2.0704
  192SAPI   O2122142   2.175   5.474   4.714  0.0996  0.1654 -0.4094
  192SAPI   C2122143   2.067   5.415   4.762  0.0096 -0.1299 -0.3605
  192SAPI   O2222144   1.996   5.326   4.715 -0.1429  0.1981  0.0604
  192SAPI   C2222145   2.045   5.465   4.904  0.0626  0.0156  0.3359
  192SAPI   H2R22146   2.029   5.575   4.899  0.0729  0.1194  2.2028
  192SAPI   H2S22147   1.949   5.419   4.935  0.7545 -2.3382 -0.7779
  192SAPI    C322148   2.378   5.457   4.554  0.2303  0.2667 -0.3023
  192SAPI    HX22149   2.385   5.563   4.588  0.7763 -0.4424  2.0174
  192SAPI    HY22150   2.386   5.458   4.443 -2.3921  2.0926 -0.5739
  192SAPI   O3122151   2.482   5.379   4.608  0.5927  0.2132 -0.2356
  192SAPI   C3122152   2.597   5.438   4.621 -0.3655  0.5532  0.0135
  192SAPI   O3222153   2.630   5.551   4.602  0.1401 -0.0561  0.1937
  192SAPI   C3222154   2.695   5.337   4.683 -0.0706 -0.4740 -0.4809
  192SAPI   H2X22155   2.799   5.357   4.653 -0.5486  1.5175 -0.9681
  192SAPI   H2Y22156   2.664   5.233   4.659  0.5774 -0.9165  0.5310
  192SAPI   C2322157   2.157   5.417   5.009  0.0373  0.3474  0.9480
  192SAPI   H3R22158   2.171   5.308   4.991 -1.2104  0.4495 -0.9132
  192SAPI   H3S22159   2.117   5.443   5.109 -0.9781 -0.3254  0.7340
  192SAPI   C2422160   2.289   5.494   4.996 -0.9701  0.0066 -0.4675
  192SAPI   H4R22161   2.336   5.470   4.898  2.1277  1.7590  0.4605
  192SAPI   H4S22162   2.355   5.455   5.076 -1.2564 -0.2110 -0.3384
  192SAPI   C2522163   2.279   5.641   5.018  0.7970 -0.3028  0.4640
  192SAPI   H5R22164   2.247   5.698   4.929  1.7671  0.8703  0.8424
  192SAPI   C2622165   2.298   5.705   5.138  0.2466  0.4418 -0.1068
  192SAPI   H6R22166   2.280   5.813   5.145  0.2629  0.3648  1.4917
  192SAPI   C2722167   2.324   5.646   5.272  0.7434  0.2154  0.1305
  192SAPI   H7R22168   2.292   5.540   5.286 -0.6319  0.7296  1.0310
  192SAPI   H7S22169   2.261   5.701   5.345 -1.7218 -2.4562  0.2342
  192SAPI   C2822170   2.471   5.642   5.299  0.6114 -0.1025 -0.0412
  192SAPI   H8R22171   2.527   5.587   5.221 -0.9941  0.2178 -1.4603
  192SAPI   C2922172   2.534   5.681   5.413  0.0476 -0.2460  0.6491
  192SAPI   H9R22173   2.644   5.687   5.415 -0.0434  2.0185  1.2025
  192SAPI  C21022174   2.451   5.741   5.523  0.2799 -0.0902  0.3197
  192SAPI  H10R22175   2.383   5.661   5.559 -1.2572  0.0027 -2.0911
  192SAPI  H10S22176   2.387   5.822   5.481  1.2556  0.5791  0.0989
  192SAPI  C21122177   2.537   5.796   5.636  0.4841  0.4396  0.0419
  192SAPI  H11R22178   2.572   5.899   5.622 -0.0990  0.5641 -0.5389
  192SAPI  C21222179   2.567   5.736   5.758  0.0587 -0.5146  0.5794
  192SAPI  H12R22180   2.633   5.792   5.826  1.6762 -0.4298 -0.9792
  192SAPI  C21322181   2.524   5.602   5.794  0.9925 -0.0279 -0.6826
  192SAPI  H13R22182   2.603   5.543   5.846  0.8216  1.3255  1.2119
  192SAPI  H13S22183   2.499   5.535   5.708  0.4544 -0.0614 -0.5041
  192SAPI  C21422184   2.395   5.602   5.885 -0.1222 -0.4367  0.0170
  192SAPI  H14R22185   2.296   5.592   5.838 -0.4505 -4.0998  1.1179
  192SAPI  C21522186   2.397   5.594   6.020  0.5968 -0.3966  0.4577
  192SAPI  H15R22187   2.297   5.582   6.064 -0.0987  1.6217 -0.4271
  192SAPI  C21622188   2.513   5.589   6.114 -0.0331  0.8186 -0.0528
  192SAPI  H16R22189   2.607   5.618   6.062  1.0836 -0.9854  0.8260
  192SAPI  H16S22190   2.521   5.486   6.156 -0.0548  0.5567 -0.6921
  192SAPI  C21722191   2.484   5.680   6.239  0.3527 -0.1586 -0.2939
  192SAPI  H17R22192   2.576   5.673   6.302 -0.4016 -1.1867  0.7367
  192SAPI  H17S22193   2.390   5.648   6.289  0.5439 -1.1546 -0.5496
  192SAPI  C21822194   2.466   5.828   6.204  0.0081  0.1729  0.1660
  192SAPI  H18R22195   2.440   5.891   6.292 -1.2287 -1.3083  0.8958
  192SAPI  H18S22196   2.387   5.833   6.127  0.9180 -1.2594 -0.8962
  192SAPI  C21922197   2.595   5.907   6.156  0.5073  0.1516 -0.0426
  192SAPI  H19R22198   2.634   5.855   6.066  1.2081 -1.3128  1.0612
  192SAPI  H19S22199   2.670   5.912   6.239  0.8203 -2.4623 -0.0974
  192SAPI  C22022200   2.540   6.040   6.121  0.1247  1.0687 -0.2429
  192SAPI  H20R22201   2.458   6.028   6.046  0.3529 -0.7945 -0.2260
  192SAPI  H20S22202   2.620   6.100   6.073 -0.5746  1.5417 -0.8423
  192SAPI  H20T22203   2.496   6.092   6.209 -0.8896 -2.2177  1.3317
  192SAPI   C3322204   2.673   5.342   4.836 -0.1397  0.8795  0.5154
  192SAPI   H3X22205   2.689   5.237   4.869 -1.2276  1.2546  2.3534
  192SAPI   H3Y22206   2.572   5.378   4.865 -0.6682  1.1407 -1.4779
  192SAPI   C3422207   2.777   5.425   4.912  0.1137  0.3130 -0.5619
  192SAPI   H4X22208   2.775   5.530   4.876 -0.1804  1.8658  3.4434
  192SAPI   H4Y22209   2.878   5.383   4.892  0.7426  0.8412  1.3264
  192SAPI   C3522210   2.743   5.425   5.062 -0.0236 -0.8555  0.5195
  192SAPI   H5X22211   2.634   5.410   5.075 -0.0273 -2.3685 -0.9191
  192SAPI   H5Y22212   2.770   5.521   5.110 -0.3331 -0.9460  0.8846
  192SAPI   C3622213   2.819   5.324   5.145 -0.2075  0.2431 -0.7040
  192SAPI   H6X22214   2.928   5.336   5.123  0.2766  2.0795  2.1816
  192SAPI   H6Y22215   2.787   5.222   5.113 -0.0420  0.0909 -0.3862
  192SAPI   C3722216   2.801   5.336   5.291 -1.2314  0.3879 -0.7637
  192SAPI   H7X22217   2.844   5.243   5.335 -0.2904  1.1343 -0.0471
  192SAPI   H7Y22218   2.692   5.340   5.310 -1.1573  3.4766 -0.4850
  192SAPI   C3822219   2.873   5.461   5.352 -0.3105  0.4473 -0.0062
  192SAPI   H8X22220   2.814   5.555   5.356  0.2187  0.7404  2.4377
  192SAPI   H8Y22221   2.965   5.483   5.293  0.3529 -0.8108  0.5299
  192SAPI   C3922222   2.924   5.433   5.499 -0.1388  0.3059  0.9322
  192SAPI   H9X22223   2.975   5.528   5.527 -0.0630  0.5977 -0.1303
  192SAPI   H9Y22224   2.998   5.351   5.507  2.4296  2.3635 -0.1924
  192SAPI  C31022225   2.812   5.407   5.602  0.0556 -0.3617  0.1795
  192SAPI  H10X22226   2.765   5.313   5.566  0.1188 -0.1460 -0.4665
  192SAPI  H10Y22227   2.741   5.492   5.594  1.3447  0.6569 -0.8969
  192SAPI  C31122228   2.874   5.399   5.743 -0.5742  0.1674  0.2183
  192SAPI  H11X22229   2.962   5.332   5.734 -1.1310 -0.4106 -1.1872
  192SAPI  H11Y22230   2.798   5.360   5.813  1.6661  0.1329  2.7621
  192SAPI  C31222231   2.932   5.534   5.794  0.3310  0.1260  0.8268
  192SAPI  H12X22232   2.860   5.613   5.765  0.2995 -0.2847 -0.2745
  192SAPI  H12Y22233   3.029   5.559   5.745 -1.7523  3.4850 -2.0590
  192SAPI  C31322234   2.952   5.538   5.942 -0.5040  0.4976 -0.7332
  192SAPI  H13X22235   3.017   5.452   5.966  0.6328  2.0709  2.4232
  192SAPI  H13Y22236   2.855   5.524   5.995 -0.1322 -0.6246 -0.3362
  192SAPI  C31422237   3.022   5.670   5.985  0.2597 -0.5147  0.6628
  192SAPI  H14X22238   2.960   5.754   5.948 -0.6106 -1.6306 -0.4960
  192SAPI  H14Y22239   3.125   5.673   5.944  0.7800 -0.1112  1.9664
  192SAPI  C31522240   3.037   5.696   6.132 -0.2220  0.1964  0.2616
  192SAPI  H15X22241   3.106   5.779   6.157  1.9609 -1.1436 -0.9961
  192SAPI  H15Y22242   3.089   5.602   6.161 -1.5134 -0.8022 -0.4968
  192SAPI  C31622243   2.911   5.696   6.221 -0.0881 -0.7171 -0.1020
  192SAPI  H16X22244   2.863   5.597   6.203  0.6466 -1.1244  0.1596
  192SAPI  H16Y22245   2.843   5.780   6.194  1.4909  0.5840 -0.1675
  192SAPI  C31722246   2.954   5.697   6.367  0.0452  0.4859 -0.0812
  192SAPI  H17X22247   2.999   5.794   6.397 -1.7225  1.4944 -0.5641
  192SAPI  H17Y22248   3.027   5.616   6.386 -1.2439 -0.7710 -0.3026
  192SAPI  C31822249   2.826   5.667   6.452 -0.4793 -0.0878  0.1435
  192SAPI  H18X22250   2.869   5.640   6.551  0.6967 -0.9630 -0.5804
  192SAPI  H18Y22251   2.761   5.591   6.405  0.0355 -0.3866 -0.1031
  192SAPI  H18Z22252   2.777   5.766   6.460  0.4486  0.3273  0.8873
  193SOD    SOD22253   5.349   1.192   1.382 -0.3773 -0.0489  0.2172
  194SOD    SOD22254   1.339   3.926   3.948 -0.0034 -0.4140  0.1011
  195SOD    SOD22255   4.855   5.558   1.840  0.3843  0.3290 -0.6076
  196SOD    SOD22256   0.302   1.433   2.523  0.2145  0.0921 -0.2405
  197SOD    SOD22257   6.490   2.476   0.063  0.5647 -0.3224  0.1351
  198SOD    SOD22258   2.373   3.793   1.683 -0.1311  0.0207 -0.0706
  199SOD    SOD22259   5.200   2.885   4.324 -0.0654  0.1870  0.0974
  200SOD    SOD22260   3.182   0.964   0.546  0.1327  0.1531  0.0732
  201SOD    SOD22261   1.764   1.968   0.946 -0.1033 -0.0943  0.1377
  202SOD    SOD22262   3.957   1.938   2.748  0.1394  0.5929  0.2045
  203SOD    SOD22263   6.528   5.162   1.805 -0.1509 -0.4383 -0.0023
  204SOD    SOD22264   0.364   4.668   0.473  0.1237 -0.4313  0.3533
  205SOD    SOD22265   2.921   1.806   2.482  0.4005 -0.2244 -0.0764
  206SOD    SOD22266   1.051   0.577   0.407  0.3565  0.1922  0.4993
  207SOD    SOD22267   6.306   2.159   3.986 -0.4545 -0.3916 -0.5431
  208SOD    SOD22268   4.590   2.229   2.187 -0.2567 -0.4390  0.3324
  209SOD    SOD22269   6.672   0.759   4.015 -0.2067  0.6453  0.3707
  210SOD    SOD22270   4.673   5.525   0.645  0.2455 -0.0457 -0.5346
  211SOD    SOD22271   6.279   5.033   3.149  0.5090  0.0646  0.0312
  212SOD    SOD22272   2.845   1.080   2.131  0.1359  0.1034 -0.2975
  213SOD    SOD22273   0.691   6.328   1.439  0.2374  0.4319 -0.0206
  214SOD    SOD22274   2.305   4.395   3.830  0.4096 -0.2295 -0.4158
  215SOD    SOD22275   5.455   2.653   2.792 -0.1935  0.1688 -0.4194
  216SOD    SOD22276   3.971   3.115   1.817 -0.6620 -0.0270  0.0371
  217SOD    SOD22277   1.936   2.532   3.678 -0.3577 -0.2244  0.0409
  218SOD    SOD22278   6.745   4.691   1.487  0.1859 -0.3158  0.2328
  219SOD    SOD22279   3.244   6.556   4.335 -0.0619  0.4158 -0.1233
  220SOD    SOD22280   3.734   5.405   1.472  0.4460 -0.3306  0.3888
  221SOD    SOD22281   3.683   4.186   4.183 -0.0829 -0.1749  0.3377
  222SOD    SOD22282   1.695   2.031   3.075  0.1973  0.0658  0.0669
  223SOD    SOD22283   1.343   2.509   3.996 -1.0267 -0.5370  0.3686
  224SOD    SOD22284   5.544   1.410   2.506  0.1103 -0.0879 -0.5794
  225SOD    SOD22285   2.290   5.726   3.606  0.3777 -0.3439  0.1291
  226SOD    SOD22286   1.736   0.820   3.963 -0.4531 -0.4086 -0.1739
  227SOD    SOD22287   5.226   6.016   0.388  0.7036  0.3375  0.2130
  228SOD    SOD22288   6.129   5.646   0.479  0.0229 -0.1476  0.0496
  229SOD    SOD22289   2.468   3.710   0.446 -0.3529  0.2303  0.2238
  230SOD    SOD22290   2.734   4.892   1.440 -0.0160  0.0315 -0.4393
  231SOD    SOD22291   2.484   5.075   0.825  0.2024  0.3564 -0.0412
  232SOD    SOD22292   6.414   5.342   0.656  0.1827  0.1545  0.1973
  233SOD    SOD22293   2.990   0.380   0.217 -0.2912  0.5813  0.0947
  234CLA    CLA22294   1.655   2.124   3.861  0.2535  0.3303 -0.0616
  235CLA    CLA22295   0.064   4.624   1.423  0.0229  0.0506 -0.0458
  236CLA    CLA22296   6.652   4.479   0.729 -0.0217  0.2517 -0.1051
  237CLA    CLA22297   4.776   2.105   1.247  0.1851  0.3437  0.0817
  238CLA    CLA22298   1.243   1.756   2.581 -0.5395 -0.2246  0.0331
  239CLA    CLA22299   0.051   5.457   2.902  0.0068 -0.2059 -0.2814
  240CLA    CLA22300   3.437   4.575   2.488  0.2895  0.1138  0.5584
  241CLA    CLA22301   5.501   0.472   0.311 -0.2038  0.2927  0.3921
  242CLA    CLA22302   5.091   1.165   1.442 -0.5122  0.2761 -0.0376
  243CLA    CLA22303   3.254   3.258   1.756 -0.4042 -0.2613  0.0775
  244CLA    CLA22304   0.531   6.147   0.975  0.3360  0.4669 -0.2141
  245CLA    CLA22305   5.010   5.259   2.465 -0.2092 -0.4927 -0.0200
  246CLA    CLA22306   3.150   3.110   2.573  0.1702  0.1064  0.0929
  247CLA    CLA22307   3.493   1.534   2.108  0.0682 -0.1254  0.1907
  248CLA    CLA22308   6.593   3.388   1.512  0.0093  0.1512 -0.0684
  249CLA    CLA22309   1.264   4.661   3.882  0.0638 -0.1112 -0.2333
  250CLA    CLA22310   4.901   1.591   2.873  0.0356  0.3381 -0.6694
  251TIP3   OH222311   6.817   1.958   3.716  0.2064 -0.4444 -0.1894
  251TIP3    H122312   6.735   2.003   3.699  0.6170  0.3711 -0.0853
  251TIP3    H222313   6.884   2.026   3.707  0.6057 -0.2763  2.9405
  252TIP3   OH222314   2.063   1.429   0.517 -0.0266  0.0445  0.0290
  252TIP3    H122315   2.024   1.341   0.519  0.2029 -0.0570  2.0997
  252TIP3    H222316   2.006   1.479   0.459 -1.2818 -0.9744  0.3262
  253TIP3   OH222317   5.325   1.445   3.395 -0.0433 -0.4524  0.1233
  253TIP3    H122318   5.289   1.362   3.363  1.2818 -0.4433 -1.5072
  253TIP3    H222319   5.253   1.508   3.385 -0.6828 -1.1360  0.2798
  254TIP3   OH222320   0.404   1.816   2.408  0.2335 -0.6638 -0.1937
  254TIP3    H122321   0.487   1.846   2.446  0.2819 -0.3910 -0.5211
  254TIP3    H222322   0.401   1.856   2.322  1.2745 -3.1977 -1.5130
  255TIP3   OH222323   0.091   1.209   1.776 -0.1066  1.1638  0.0525
  255TIP3    H122324   0.028   1.267   1.734  0.5722  0.3296 -2.2478
  255TIP3    H222325   0.072   1.122   1.741  0.4122  0.3687  1.6368
  256TIP3   OH222326   1.825   0.581   0.714  0.0745 -0.1765 -0.5245
  256TIP3    H122327   1.769   0.621   0.648  1.9197  0.8095 -1.5938
  256TIP3    H222328   1.888   0.650   0.737 -0.0055 -0.7470  1.7138
  257TIP3   OH222329   4.418   4.322   0.598  0.0177  0.0567  0.3673
  257TIP3    H122330   4.399   4.416   0.596 -1.5156 -0.2379  0.0960
  257TIP3    H222331   4.498   4.313   0.547  0.4093  1.2595  0.7341
  258TIP3   OH222332   5.457   1.120   0.101 -0.5824  0.5054  0.0889
  258TIP3    H122333   5.416   1.037   0.077 -0.3563  0.5678 -0.5447
  258TIP3    H222334   5.547   1.112   0.069 -0.2360  0.5648  1.0147
  259TIP3   OH222335   2.014   4.847   0.273 -0.1399  0.1513  0.0893
  259TIP3    H122336   1.943   4.799   0.317 -1.2722  0.8167 -0.9739
  259TIP3    H222337   1.983   4.859   0.184  1.8744 -0.6450 -0.7617
  260TIP3   OH222338   1.696   1.700   3.351 -0.3773  0.3461  0.1969
  260TIP3    H122339   1.660   1.696   3.440  0.6254  0.0879  0.5979
  260TIP3    H222340   1.761   1.770   3.354  0.7952 -0.7198  0.0953
  261TIP3   OH222341   4.669   6.045   2.902 -0.0418 -0.1210  0.7180
  261TIP3    H122342   4.637   6.109   2.838  1.0977  1.5542  1.7203
  261TIP3    H222343   4.677   5.963   2.853  0.4918  1.0149 -1.2080
  262TIP3   OH222344   4.533   0.881   0.533 -0.8172 -0.1202  0.2173
  262TIP3    H122345   4.536   0.857   0.440 -0.3801 -1.2840  0.5123
  262TIP3    H222346   4.446   0.919   0.545 -0.4023  1.2788 -0.9385
  263TIP3   OH222347   2.593   3.093   2.621 -0.5720  0.0276 -0.2014
  263TIP3    H122348   2.502   3.068   2.637  0.2473 -1.7159  2.3264
  263TIP3    H222349   2.641   3.061   2.697  2.3766 -0.2850 -2.0075
  264TIP3   OH222350   6.255   0.258   3.776 -0.2555 -0.5097 -0.0306
  264TIP3    H122351   6.186   0.280   3.839  1.4623 -0.2544  1.8795
  264TIP3    H222352   6.276   0.166   3.795 -0.3402 -0.7073 -0.8722
  265TIP3   OH222353   0.728   2.256   1.355  0.3528 -0.1609  0.0354
  265TIP3    H122354   0.648   2.290   1.315 -0.4487 -2.5411 -0.5830
  265TIP3    H222355   0.745   2.313   1.429 -0.9668  1.3897 -0.7937
  266TIP3   OH222356   4.549   2.549   3.835 -0.2901 -0.0504 -0.4344
  266TIP3    H122357   4.501   2.534   3.754 -2.8156  1.2470  0.6945
  266TIP3    H222358   4.547   2.465   3.881  0.7798 -0.6714 -1.4586
  267TIP3   OH222359   5.973   5.899   3.652 -0.5410 -0.2930 -0.5182
  267TIP3    H122360   5.926   5.981   3.665  0.6797  0.5111 -1.0748
  267TIP3    H222361   5.972   5.857   3.738  1.4041  1.7283  0.5960
  268TIP3   OH222362   6.806   2.443   1.042  0.0309  0.7278 -0.2073
  268TIP3    H122363   6.895   2.409   1.033 -0.2696 -0.8276  2.0205
  268TIP3    H222364   6.801   2.475   1.132 -1.3009  2.0049 -0.6962
  269TIP3   OH222365   0.545   1.648   0.601  0.0136 -0.1758 -0.3887
  269TIP3    H122366   0.582   1.621   0.685  1.1175  3.6037  0.5026
  269TIP3    H222367   0.609   1.619   0.536  0.5841 -0.6003  0.3489
  270TIP3   OH222368   3.190   6.122   2.946 -0.2818 -0.6955  0.3725
  270TIP3    H122369   3.180   6.197   3.004  0.8479  0.2521 -0.6172
  270TIP3    H222370   3.152   6.049   2.996  0.5007  0.0997  2.2370
  271TIP3   OH222371   3.846   5.889   0.006  0.1688 -0.4716 -0.0438
  271TIP3    H122372   3.834   5.834  -0.072 -1.2417  0.3955 -0.4684
  271TIP3    H222373   3.850   5.978  -0.027  3.6424 -0.2739  0.5176
  272TIP3   OH222374   3.250   4.675   2.260  0.4439  0.5181  0.3657
  272TIP3    H122375   3.274   4.610   2.194 -2.9988  0.1543 -0.7035
  272TIP3    H222376   3.303   4.650   2.337  0.4912 -2.5457 -0.5045
  273TIP3   OH222377   1.426   6.115   2.822  0.8664 -0.5568 -0.0089
  273TIP3    H122378   1.390   6.049   2.763 -0.2919 -0.7903  0.9396
  273TIP3    H222379   1.425   6.074   2.908  0.3595  0.6080  0.5570
  274TIP3   OH222380   5.526   0.731   0.980  0.5372  0.4093  0.4579
  274TIP3    H122381   5.527   0.737   0.884  0.9453  2.9992  0.5398
  274TIP3    H222382   5.592   0.665   1.001  0.4938 -0.1394 -1.0369
  275TIP3   OH222383   1.505   2.752   1.049  0.2663 -0.2781 -0.4760
  275TIP3    H122384   1.478   2.755   1.140 -1.0093 -0.9529 -0.8063
  275TIP3    H222385   1.502   2.843   1.020  0.0496 -0.1396 -0.0254
  276TIP3   OH222386   3.763   5.095   2.185 -0.5195  0.5843  0.2100
  276TIP3    H122387   3.827   5.035   2.223 -0.5368  1.0901  1.0725
  276TIP3    H222388   3.679   5.049   2.194 -0.1899 -0.5373 -1.8884
  277TIP3   OH222389   6.159   3.443   3.677  0.4579  0.2258  0.4723
  277TIP3    H122390   6.188   3.353   3.693 -1.2514 -0.2831  0.9045
  277TIP3    H222391   6.197   3.493   3.749  0.7119 -0.3055  0.7161
  278TIP3   OH222392   3.793   5.071   3.562  0.1037 -0.0535 -0.2977
  278TIP3    H122393   3.740   5.054   3.484 -1.1561  2.3373 -0.0662
  278TIP3    H222394   3.872   5.115   3.528 -0.0790  0.2823 -0.2872
  279TIP3   OH222395   2.952   1.308   2.820 -0.5635 -0.4772  0.0630
  279TIP3    H122396   2.987   1.393   2.849 -1.7208  0.1106 -0.1979
  279TIP3    H222397   3.021   1.245   2.842  1.9313  0.9513 -2.8853
  280TIP3   OH222398   4.521   6.135   3.103  0.2421  0.1757 -0.3856
  280TIP3    H122399   4.560   6.086   3.031 -0.0660 -1.1318  0.3072
  280TIP3    H222400   4.537   6.081   3.181  0.6473  1.5899  0.5552
  281TIP3   OH222401   2.499   0.814   2.290 -0.3012 -0.1582  0.8381
  281TIP3    H122402   2.471   0.797   2.380 -1.3657 -0.5064  0.4530
  281TIP3    H222403   2.418   0.822   2.240  0.2551  1.2746  0.1088
  282TIP3   OH222404   6.806   1.997   2.674 -0.0862  0.6511  0.1848
  282TIP3    H122405   6.793   1.981   2.767 -2.5843 -1.5519 -0.3848
  282TIP3    H222406   6.827   1.910   2.638 -1.3881  0.9975 -1.5469
  283TIP3   OH222407   1.993   4.012   0.788  0.0265  0.5081  0.3185
  283TIP3    H122408   1.995   4.108   0.795  0.3939  0.5761 -0.6362
  283TIP3    H222409   1.996   3.982   0.879  0.4695  1.3931  0.6101
  284TIP3   OH222410   2.779   4.248   2.451  0.3410 -0.4371 -0.0562
  284TIP3    H122411   2.875   4.249   2.446  0.4405  0.2520  1.5012
  284TIP3    H222412   2.760   4.176   2.511 -0.2196 -1.5541 -1.5157
  285TIP3   OH222413   4.557   2.224   3.683 -0.2651  0.5153  0.4701
  285TIP3    H122414   4.479   2.197   3.731 -1.1819  0.2138 -1.1350
  285TIP3    H222415   4.621   2.244   3.751 -1.5226  0.1396  1.8073
  286TIP3   OH222416   4.606   5.328   4.391  0.0407  0.3790 -0.4602
  286TIP3    H122417   4.575   5.361   4.475 -0.2500  1.0579 -0.8254
  286TIP3    H222418   4.639   5.406   4.345  1.6783 -0.2102 -0.3561
  287TIP3   OH222419   4.230   0.270   1.614  0.5037  0.1623 -0.3121
  287TIP3    H122420   4.173   0.343   1.638  0.7761  0.5620 -0.8573
  287TIP3    H222421   4.306   0.312   1.573  1.7292 -0.2705  1.3805
  288TIP3   OH222422   6.113   0.157   1.347 -0.1726 -0.2987 -0.9276
  288TIP3    H122423   6.079   0.237   1.307 -1.0706 -0.7518 -1.1121
  288TIP3    H222424   6.097   0.169   1.441  1.3205  0.4804 -0.7568
  289TIP3   OH222425   4.462   1.146   1.967  0.0476 -0.1554 -0.2545
  289TIP3    H122426   4.382   1.099   1.945  1.7112 -2.4250 -1.7917
  289TIP3    H222427   4.515   1.083   2.016  1.5405  0.7560 -0.6349
  290TIP3   OH222428   6.427   1.942   2.570 -0.7221  0.1485  0.2855
  290TIP3    H122429   6.360   1.997   2.611 -0.4654  0.1209  0.7530
  290TIP3    H222430   6.474   2.002   2.512 -0.7175  0.3260  0.4697
  291TIP3   OH222431   2.531   1.081   1.639 -0.4640 -0.1371 -0.4145
  291TIP3    H122432   2.569   1.013   1.695  0.5715 -0.5726 -1.6174
  291TIP3    H222433   2.443   1.049   1.620 -0.9237  0.1303  1.1320
  292TIP3   OH222434   3.861   1.964   1.883  0.0437  0.0140 -0.2559
  292TIP3    H122435   3.904   2.035   1.930 -0.0223 -0.3822  0.4222
  292TIP3    H222436   3.904   1.884   1.915  1.0976 -0.1891 -2.0411
  293TIP3   OH222437   0.278   4.975   1.827 -0.6711 -0.3152  0.1189
  293TIP3    H122438   0.231   4.941   1.751 -0.7957  2.7437 -1.3395
  293TIP3    H222439   0.354   4.918   1.836 -0.6942 -0.8462 -2.2897
  294TIP3   OH222440   2.215   1.369   4.127  0.0683  0.2061  0.8224
  294TIP3    H122441   2.194   1.282   4.162  0.2198 -0.1063  0.1659
  294TIP3    H222442   2.257   1.415   4.199 -1.0316  0.1293  1.5194
  295TIP3   OH222443   1.985   1.031   1.955  0.1340 -0.7676  0.4425
  295TIP3    H122444   2.042   1.090   2.003  0.1549 -0.5649  0.1712
  295TIP3    H222445   1.900   1.075   1.954  0.2154 -0.6138  0.0098
  296TIP3   OH222446   1.248   6.640   1.137 -0.6409 -0.1644 -0.3860
  296TIP3    H122447   1.247   6.696   1.214 -1.2543  1.0200 -1.2147
  296TIP3    H222448   1.270   6.700   1.065 -0.7441 -1.1086 -1.2202
  297TIP3   OH222449   0.873   6.488   3.312 -0.1384 -0.1144  0.1674
  297TIP3    H122450   0.798   6.457   3.363 -0.6419 -0.4406 -0.7479
  297TIP3    H222451   0.944   6.497   3.376  0.4074 -4.1964  0.3944
  298TIP3   OH222452   5.182   6.473   4.182  0.0635 -0.1707 -0.2927
  298TIP3    H122453   5.190   6.565   4.155 -0.4647  0.2300  0.8357
  298TIP3    H222454   5.123   6.434   4.118  1.8957 -0.2799 -2.0086
  299TIP3   OH222455   6.507   6.175   0.556 -0.4569 -0.8454  0.5527
  299TIP3    H122456   6.587   6.122   0.553  0.5457  0.6242  0.0999
  299TIP3    H222457   6.461   6.153   0.475  0.3282 -0.4916 -0.0011
  300TIP3   OH222458   5.602   4.445   3.126  0.1889  0.2555  0.3229
  300TIP3    H122459   5.546   4.432   3.203 -0.2157 -0.2596 -0.0466
  300TIP3    H222460   5.621   4.356   3.096  0.0561  0.4624 -0.3761
  301TIP3   OH222461   4.979   6.690   1.720  0.0806  0.4670 -0.2028
  301TIP3    H122462   4.891   6.727   1.712  0.2524  0.9033 -0.0834
  301TIP3    H222463   5.029   6.732   1.650  0.6842  1.6561  0.9022
  302TIP3   OH222464   3.467   3.404   2.202  0.0807  0.1382  0.1807
  302TIP3    H122465   3.402   3.373   2.139 -0.7721  0.2562  0.9977
  302TIP3    H222466   3.474   3.333   2.266 -1.2384  1.2243  1.5790
  303TIP3   OH222467   1.213   2.342   0.167 -0.2882 -0.5923 -0.2758
  303TIP3    H122468   1.200   2.331   0.073  0.3740 -0.1262 -0.4302
  303TIP3    H222469   1.145   2.403   0.194 -0.0669 -0.2065 -0.5819
  304TIP3   OH222470   4.714   6.628   1.923 -0.5195  0.2661  0.3740
  304TIP3    H122471   4.638   6.598   1.875 -0.7011 -2.3630  2.0836
  304TIP3    H222472   4.701   6.722   1.933 -2.3503  0.2518 -1.3214
  305TIP3   OH222473   0.392   6.072   1.485  0.2040  0.2939  0.0098
  305TIP3    H122474   0.416   5.980   1.490  2.3840  0.8035  0.0092
  305TIP3    H222475   0.457   6.111   1.425 -0.7670  1.7956 -0.1279
  306TIP3   OH222476   2.715   6.904   0.834 -0.3483  0.5717 -0.5613
  306TIP3    H122477   2.653   6.953   0.888 -1.3987  0.1743 -1.3688
  306TIP3    H222478   2.704   6.813   0.861 -0.4842  0.4372 -1.0639
  307TIP3   OH222479   6.305   5.578   3.789  0.1945 -0.2522 -0.4413
  307TIP3    H122480   6.391   5.548   3.759 -1.2442 -3.9823 -1.3780
  307TIP3    H222481   6.261   5.607   3.709 -0.3344 -1.0116 -0.4344
  308TIP3   OH222482   5.403   4.340   1.323 -0.2618 -0.2687  0.3469
  308TIP3    H122483   5.437   4.331   1.412  0.0319  0.7833  0.3466
  308TIP3    H222484   5.431   4.260   1.278 -0.6771 -0.9524  1.2749
  309TIP3   OH222485   0.623   2.995   0.979  0.3404  0.3587  0.8043
  309TIP3    H122486   0.561   3.006   0.907  1.6088  2.1045 -0.1310
  309TIP3    H222487   0.661   2.908   0.966  2.3777  1.5154 -2.3042
  310TIP3   OH222488   5.003   4.301   4.331 -0.1260 -0.6123 -0.2853
  310TIP3    H122489   5.077   4.249   4.300 -0.2797 -0.7258 -0.4675
  310TIP3    H222490   5.033   4.340   4.413  0.7119  0.6480 -1.1634
  311TIP3   OH222491   3.854   1.766   2.859  0.0659 -0.0130 -0.4753
  311TIP3    H122492   3.880   1.693   2.804 -1.2314 -0.7430 -0.1614
  311TIP3    H222493   3.834   1.726   2.944 -2.8990  0.2684 -0.9177
  312TIP3   OH222494   0.504   2.573   4.376  0.3038  0.2715 -0.9272
  312TIP3    H122495   0.517   2.481   4.398 -1.1860  0.3872  0.6077
  312TIP3    H222496   0.416   2.577   4.337  0.7264  0.9240 -1.8680
  313TIP3   OH222497   6.817   1.856   2.924 -0.4223 -0.3276  0.3106
  313TIP3    H122498   6.876   1.801   2.874  0.3570  1.0494 -0.3407
  313TIP3    H222499   6.849   1.850   3.014  1.3839  1.1405 -0.1618
  314TIP3   OH222500   0.399   6.179   2.101 -0.0251 -0.4592  0.3782
  314TIP3    H122501   0.306   6.188   2.120  0.1609 -0.1783  1.2075
  314TIP3    H222502   0.426   6.265   2.071 -0.1917 -0.7477 -0.6285
  315TIP3   OH222503   3.574   1.068   3.663 -0.2808  0.2605 -0.2684
  315TIP3    H122504   3.659   1.047   3.625  0.0841  0.8325  0.2117
  315TIP3    H222505   3.591   1.143   3.721 -1.2603  0.9065 -0.7823
  316TIP3   OH222506   1.501   3.193   4.143 -0.8527  0.7427  0.6482
  316TIP3    H122507   1.459   3.203   4.228  0.9799  3.1045  1.4025
  316TIP3    H222508   1.440   3.232   4.081 -1.5428  0.4158  1.1172
  317TIP3   OH222509   5.937   6.274   3.265  0.4196 -0.0399 -0.0161
  317TIP3    H122510   6.002   6.210   3.235  0.9392  0.8122 -0.7695
  317TIP3    H222511   5.858   6.223   3.282  1.0084 -0.9623 -0.0132
  318TIP3   OH222512   3.623   2.794   3.212 -0.5412 -0.2076  0.0612
  318TIP3    H122513   3.574   2.768   3.135  0.3665  0.9829 -0.9576
  318TIP3    H222514   3.582   2.746   3.284 -1.4045 -1.3376 -1.1439
  319TIP3   OH222515   2.461   6.580   1.042 -0.2742  0.1231 -0.1260
  319TIP3    H122516   2.396   6.591   0.973  0.5347 -0.7845 -1.0683
  319TIP3    H222517   2.424   6.514   1.100 -0.5215  0.1439 -0.2599
  320TIP3   OH222518   4.992   3.369   4.239  0.0985 -0.8030 -0.3047
  320TIP3    H122519   4.933   3.437   4.209  2.0286  1.0101 -0.2294
  320TIP3    H222520   4.970   3.357   4.332 -0.7105 -0.8182 -0.4908
  321TIP3   OH222521   0.948   0.218   1.171  0.3416  0.5316  0.0454
  321TIP3    H122522   0.898   0.271   1.234 -0.4710  0.7652 -0.7845
  321TIP3    H222523   1.019   0.276   1.143 -1.5660  1.9392 -2.2290
  322TIP3   OH222524   5.010   4.735   0.894 -0.7038 -0.3775  0.0627
  322TIP3    H122525   4.963   4.662   0.853  0.7541 -1.3008 -0.0770
  322TIP3    H222526   5.090   4.694   0.929  1.2317  1.4627 -1.8693
  323TIP3   OH222527   5.858   2.587   0.953 -0.1446  0.0471  0.2372
  323TIP3    H122528   5.857   2.598   0.858 -0.8607  2.1119  0.4510
  323TIP3    H222529   5.840   2.674   0.988  1.8950 -0.2747  2.3231
  324TIP3   OH222530   3.006   6.412   1.863  0.5563 -0.2942 -0.4967
  324TIP3    H122531   3.040   6.352   1.928  1.3349 -0.2794 -0.8734
  324TIP3    H222532   3.041   6.380   1.780 -1.4882 -1.1086 -1.1179
  325TIP3   OH222533   2.744   1.275   2.038  0.5676 -0.3955 -0.9448
  325TIP3    H122534   2.712   1.269   1.948 -0.0422 -1.3345 -0.6878
  325TIP3    H222535   2.723   1.364   2.065 -1.3440 -0.7698 -1.0116
  326TIP3   OH222536   2.712   1.568   0.638 -0.1928  0.1146 -0.4492
  326TIP3    H122537   2.753   1.491   0.675  0.7830  0.4459 -0.8201
  326TIP3    H222538   2.623   1.567   0.673  0.2080 -0.4593  0.5911
  327TIP3   OH222539   1.686   2.007   2.854  0.0859  0.2363 -0.4734
  327TIP3    H122540   1.724   1.951   2.786 -0.4623 -1.3261  0.4653
  327TIP3    H222541   1.603   2.037   2.816  0.0137 -0.2171 -0.6802
  328TIP3   OH222542   2.113   4.729   2.074  0.0267  0.5632  0.1087
  328TIP3    H122543   2.102   4.758   1.983  0.4740 -1.3022 -0.5967
  328TIP3    H222544   2.037   4.672   2.090  0.5778 -0.0827  0.4721
  329TIP3   OH222545   4.972   1.061   4.106 -0.1338 -0.0261  0.2101
  329TIP3    H122546   4.891   1.037   4.062  0.6711 -0.9187 -0.8683
  329TIP3    H222547   5.015   0.977   4.125  2.6923  0.2836 -3.5192
  330TIP3   OH222548   6.699   0.568   1.576 -0.2912 -0.3084 -0.1468
  330TIP3    H122549   6.650   0.649   1.590 -2.5037 -1.6710  0.3860
  330TIP3    H222550   6.705   0.559   1.481 -1.3792 -0.2642 -0.2298
  331TIP3   OH222551   2.744   1.736   1.862 -0.5994 -0.3022 -0.1046
  331TIP3    H122552   2.711   1.825   1.855  2.1671  0.8740  0.7108
  331TIP3    H222553   2.710   1.692   1.784 -0.8643  1.8790 -1.2965
  332TIP3   OH222554   6.039   0.786   3.466 -0.2050  0.4741 -0.0813
  332TIP3    H122555   5.973   0.846   3.433 -0.2339  0.1719 -0.5842
  332TIP3    H222556   5.993   0.702   3.474  0.1303  0.2428 -0.5105
  333TIP3   OH222557   6.516   4.742   3.569  0.4245  0.4346  0.1941
  333TIP3    H122558   6.503   4.812   3.505 -1.5013 -1.2201 -1.3746
  333TIP3    H222559   6.553   4.670   3.518  2.4845  0.2545  1.7927
  334TIP3   OH222560   5.586   1.689   4.613  0.1640 -0.2189 -0.0023
  334TIP3    H122561   5.670   1.692   4.660  0.3114  0.2037 -0.2863
  334TIP3    H222562   5.533   1.627   4.663  0.4777 -0.1190  0.4617
  335TIP3   OH222563   2.102   2.934   3.492  0.3531 -0.1925  0.3840
  335TIP3    H122564   2.036   2.943   3.560 -0.2324  0.4931 -0.2553
  335TIP3    H222565   2.183   2.968   3.531  0.1783 -0.4176  0.9463
  336TIP3   OH222566   4.645   6.247   2.687  0.3359  0.7377 -0.6211
  336TIP3    H122567   4.581   6.307   2.726 -1.2783 -0.7862 -0.7846
  336TIP3    H222568   4.729   6.274   2.724 -0.4649  2.4546  0.0550
  337TIP3   OH222569   2.881   3.686   2.102  0.7163  0.5379  0.2340
  337TIP3    H122570   2.927   3.637   2.034 -0.4737  0.1271 -0.3192
  337TIP3    H222571   2.949   3.715   2.161  1.6303 -0.4423 -0.2936
  338TIP3   OH222572   3.726   2.430   3.287 -0.2089 -0.0326  0.3007
  338TIP3    H122573   3.815   2.417   3.254  0.0938 -2.3886  1.8046
  338TIP3    H222574   3.670   2.416   3.210  0.6572 -0.2337 -0.3150
  339TIP3   OH222575   1.921   0.377   3.928 -0.7959  0.3636 -0.1700
  339TIP3    H122576   1.972   0.337   3.998 -1.3673 -0.0993 -0.0150
  339TIP3    H222577   1.849   0.316   3.912  0.0661 -0.2265 -2.1014
  340TIP3   OH222578   4.306   4.187   2.380 -0.0658  1.2640 -0.0775
  340TIP3    H122579   4.324   4.253   2.446 -0.9315  2.2920 -0.8325
  340TIP3    H222580   4.390   4.142   2.367  0.0289  0.7787  1.9630
  341TIP3   OH222581   2.186   0.319   0.637 -0.1566  0.1191  0.2741
  341TIP3    H122582   2.193   0.407   0.601  1.4835 -0.2481 -0.4166
  341TIP3    H222583   2.105   0.284   0.600  0.4689  0.4599 -1.5512
  342TIP3   OH222584   6.300   1.788   1.238  0.2983 -1.0602  0.8310
  342TIP3    H122585   6.301   1.853   1.167 -2.1126 -0.8927  0.8691
  342TIP3    H222586   6.388   1.793   1.275  0.7081  1.0170 -0.2239
  343TIP3   OH222587   1.525   3.991   3.318  0.3544  0.1334  0.3287
  343TIP3    H122588   1.502   3.975   3.226  0.9532  0.3922  0.1283
  343TIP3    H222589   1.620   4.001   3.317  0.4479 -0.5346  1.0776
  344TIP3   OH222590   3.152   5.614   0.347 -0.1971 -0.0484 -0.5612
  344TIP3    H122591   3.140   5.576   0.260  1.2829 -1.1039 -0.3464
  344TIP3    H222592   3.245   5.633   0.352 -0.2219 -0.2476  0.8955
  345TIP3   OH222593   2.086   4.985   3.412 -0.0990  0.1964 -0.5452
  345TIP3    H122594   2.094   5.070   3.369  0.1741  0.7571  0.5953
  345TIP3    H222595   2.112   5.001   3.503 -2.2089 -0.6089  0.2638
  346TIP3   OH222596   6.148   2.808   2.356 -0.4797  0.2249 -0.0930
  346TIP3    H122597   6.225   2.765   2.392  1.5428  4.4508  1.3181
  346TIP3    H222598   6.153   2.794   2.262  2.5504  0.9944 -0.1307
  347TIP3   OH222599   2.750   0.777   3.763 -0.3047  0.7700  0.1190
  347TIP3    H122600   2.656   0.788   3.779 -0.1771  0.0736  1.4434
  347TIP3    H222601   2.791   0.797   3.847  0.6516  0.0008 -0.1499
  348TIP3   OH222602   3.394   2.189   2.312  0.5506 -0.1374 -0.1617
  348TIP3    H122603   3.370   2.269   2.264  0.9595 -0.0598 -0.2434
  348TIP3    H222604   3.481   2.209   2.349  0.6861 -0.5705 -0.2455
  349TIP3   OH222605   5.178   1.383   1.650  0.4135  0.4982 -0.3382
  349TIP3    H122606   5.263   1.422   1.632 -0.2138  1.8936 -0.4481
  349TIP3    H222607   5.165   1.320   1.580 -0.1399  2.8044 -2.4386
  350TIP3   OH222608   0.516   6.821   3.415  0.3695 -0.0484  0.0864
  350TIP3    H122609   0.428   6.840   3.381  0.1064  0.6362  1.0721
  350TIP3    H222610   0.539   6.900   3.465  0.8963 -0.8321  1.1034
  351TIP3   OH222611   0.311   6.423   0.746  0.2623 -0.3475 -0.5571
  351TIP3    H122612   0.341   6.446   0.658  0.4086  2.3695  0.0962
  351TIP3    H222613   0.262   6.500   0.775 -2.2029 -2.2603  0.7298
  352TIP3   OH222614   3.390   1.327   1.049  0.0543 -0.6289 -0.2539
  352TIP3    H122615   3.341   1.407   1.070 -0.9519 -1.4995  0.8420
  352TIP3    H222616   3.385   1.321   0.953 -0.3330  0.3191 -0.3066
  353TIP3   OH222617   1.445   6.233   3.396 -0.3749 -0.3998  0.0941
  353TIP3    H122618   1.498   6.210   3.472  0.1910  0.1187 -0.1404
  353TIP3    H222619   1.376   6.166   3.394  0.2459 -1.0630  0.4206
  354TIP3   OH222620   5.693   4.983   0.203 -0.1135  0.0014  0.0169
  354TIP3    H122621   5.786   4.960   0.210 -0.1689 -0.1637  0.2235
  354TIP3    H222622   5.649   4.899   0.190 -0.3114 -0.0079  0.6954
  355TIP3   OH222623   1.813   2.261   1.397  0.5044  0.1691  0.4515
  355TIP3    H122624   1.833   2.280   1.306 -0.5605  2.1218  0.5718
  355TIP3    H222625   1.834   2.168   1.408  0.7691 -0.0656 -1.7246
  356TIP3   OH222626   6.839   1.424   1.712  0.4856 -0.1813  0.0258
  356TIP3    H122627   6.749   1.434   1.743  0.1205 -2.7231  0.0364
  356TIP3    H222628   6.838   1.462   1.624 -1.5039 -2.8010 -1.2388
  357TIP3   OH222629   1.356   6.901   2.403 -0.3772 -0.4078 -0.0833
  357TIP3    H122630   1.314   6.979   2.366 -0.5473 -0.8925 -0.9717
  357TIP3    H222631   1.427   6.934   2.457 -0.9935  0.3882  0.2579
  358TIP3   OH222632   5.600   6.453   2.476  0.3272 -0.4843 -0.4345
  358TIP3    H122633   5.662   6.381   2.465 -0.2281 -1.4641  2.1673
  358TIP3    H222634   5.641   6.509   2.542 -0.1185  0.5716 -1.0454
  359TIP3   OH222635   1.750   1.132   1.660 -0.0216 -0.0197 -0.3932
  359TIP3    H122636   1.726   1.123   1.752  0.9981 -0.6413 -0.1720
  359TIP3    H222637   1.686   1.192   1.624 -0.0575  0.7312  0.8797
  360TIP3   OH222638   1.894   0.266   8.172 -0.0768  0.0920  0.0437
  360TIP3    H122639   1.917   0.348   8.128 -2.2387  0.2535 -0.9212
  360TIP3    H222640   1.901   0.286   8.265  1.2084  0.8037 -0.1905
  361TIP3   OH222641   5.698   2.642   3.556 -0.7259 -0.2322 -0.4502
  361TIP3    H122642   5.772   2.604   3.604 -1.1549 -0.5048  0.0026
  361TIP3    H222643   5.705   2.605   3.468  0.2044  0.4548 -0.6829
  362TIP3   OH222644   5.089   0.233   2.755  0.3627  0.2804  0.2518
  362TIP3    H122645   5.098   0.320   2.716 -1.8620  1.3470  1.8831
  362TIP3    H222646   5.052   0.179   2.685  0.5433  0.9838 -0.3972
  363TIP3   OH222647   2.780   3.443   2.910 -0.7918 -0.3548  0.0968
  363TIP3    H122648   2.753   3.495   2.834 -0.4714 -0.6362 -0.2144
  363TIP3    H222649   2.852   3.388   2.877 -0.3826 -0.1941  0.7005
  364TIP3   OH222650   4.780   0.569   3.547 -0.2267  0.4135  0.6601
  364TIP3    H122651   4.848   0.514   3.510  1.6418  2.1190  1.3790
  364TIP3    H222652   4.750   0.623   3.474  1.9578  2.2939  1.0306
  365TIP3   OH222653   2.694   4.243   1.319 -0.2984 -1.1708 -0.5569
  365TIP3    H122654   2.663   4.313   1.377  2.3167 -0.9284  0.6544
  365TIP3    H222655   2.636   4.248   1.243 -0.8028  1.6726 -0.0901
  366TIP3   OH222656   1.088   5.065   1.546 -0.1803 -0.5549 -0.3129
  366TIP3    H122657   1.160   5.037   1.602 -0.3660  0.0139  0.2195
  366TIP3    H222658   1.042   4.984   1.524 -0.0747 -0.7944  0.3182
  367TIP3   OH222659   2.171   5.612   3.441  0.3455 -0.2098  0.0569
  367TIP3    H122660   2.128   5.649   3.364  0.0967 -2.0159 -0.7319
  367TIP3    H222661   2.144   5.520   3.440  2.0332 -0.7393  1.1127
  368TIP3   OH222662   6.507   0.936   1.340  0.0603 -0.2613 -0.7697
  368TIP3    H122663   6.461   0.913   1.259  1.4204 -1.5878 -1.2263
  368TIP3    H222664   6.540   1.024   1.324 -1.3729  0.2737 -0.8516
  369TIP3   OH222665   3.940   1.721   1.134 -0.2564  0.1761 -0.0708
  369TIP3    H122666   3.873   1.654   1.123 -0.6039  0.1595  1.7309
  369TIP3    H222667   3.920   1.761   1.219  2.0417  0.1169  0.5718
  370TIP3   OH222668   4.562   1.680   1.181  0.2666 -0.4883 -0.0162
  370TIP3    H122669   4.516   1.636   1.252 -0.2689  0.4902  0.2601
  370TIP3    H222670   4.505   1.671   1.105  1.1061 -2.0416 -0.4925
  371TIP3   OH222671   3.683   6.560   0.766  0.1054  0.3626  0.1311
  371TIP3    H122672   3.718   6.473   0.747  1.4018  0.2166  2.6665
  371TIP3    H222673   3.761   6.616   0.777 -0.6889  2.3368 -3.0118
  372TIP3   OH222674   6.114   3.026   3.091  0.2144  0.1669 -0.2132
  372TIP3    H122675   6.153   2.942   3.118  0.7533  0.5138  0.1108
  372TIP3    H222676   6.132   3.032   2.998 -1.2808 -0.8412 -0.5970
  373TIP3   OH222677   1.738   2.777   0.774  0.1995  0.2312  0.0261
  373TIP3    H122678   1.814   2.806   0.824 -1.0204  0.0528  2.0636
  373TIP3    H222679   1.692   2.857   0.750 -0.3724  0.2386  1.1096
  374TIP3   OH222680   6.480   6.669   4.110  0.0867 -0.0170 -0.0919
  374TIP3    H122681   6.514   6.712   4.031  1.1412 -0.3739  0.1526
  374TIP3    H222682   6.535   6.702   4.181  0.3650 -1.1312  0.2220
  375TIP3   OH222683   2.117   3.695   0.984 -0.3695  0.0790  0.4023
  375TIP3    H122684   2.205   3.683   0.948  0.0330 -0.1888  1.4302
  375TIP3    H222685   2.123   3.776   1.036 -0.5626 -0.2430  0.9381
  376TIP3   OH222686   5.499   6.148   0.753  0.5243  0.2315  0.3971
  376TIP3    H122687   5.484   6.073   0.810 -0.5820 -0.1280 -0.3504
  376TIP3    H222688   5.508   6.222   0.813 -2.2491  0.1394  1.0351
  377TIP3   OH222689   5.715   1.720   3.898  0.6837  0.1159 -0.1364
  377TIP3    H122690   5.711   1.791   3.834 -0.0560  1.6411  1.5262
  377TIP3    H222691   5.692   1.641   3.848  0.4304  1.1888 -1.7926
  378TIP3   OH222692   0.569   3.479   2.147  0.5584 -0.1149 -0.0517
  378TIP3    H122693   0.592   3.526   2.068  1.3440 -0.1883  0.1214
  378TIP3    H222694   0.546   3.547   2.210 -2.6993 -0.1099 -1.0651
  379TIP3   OH222695   2.004   4.062   3.623 -0.0850 -0.2904 -0.1487
  379TIP3    H122696   2.023   4.070   3.716  0.8101  0.6971 -0.3945
  379TIP3    H222697   1.999   4.152   3.592 -4.1602 -0.4045 -0.3823
  380TIP3   OH222698   0.906   4.136   3.777  0.6401  0.7124 -0.5976
  380TIP3    H122699   0.972   4.099   3.836 -1.1492  0.6182  1.4744
  380TIP3    H222700   0.888   4.223   3.812 -0.7235  0.5246 -0.7682
  381TIP3   OH222701   0.025   2.570   4.401 -0.3222  0.2656  0.1141
  381TIP3    H122702   0.048   2.480   4.423 -2.3532 -0.4133 -0.2673
  381TIP3    H222703  -0.024   2.602   4.478 -2.4639 -0.1509 -0.9899
  382TIP3   OH222704   0.531   0.180   8.185 -0.1874 -0.3121  0.8767
  382TIP3    H122705   0.549   0.264   8.228 -0.4664  0.3937 -0.3468
  382TIP3    H222706   0.454   0.146   8.231 -0.2484  0.2388  1.1918
  383TIP3   OH222707   3.230   5.321   8.164  0.2234  0.5287 -0.7642
  383TIP3    H122708   3.289   5.394   8.145 -1.2563  1.6535 -1.1348
  383TIP3    H222709   3.209   5.330   8.256 -0.8536  1.2492 -1.0740
  384TIP3   OH222710   3.124   1.609   0.669  0.2813  0.5176  0.1655
  384TIP3    H122711   3.043   1.649   0.636 -0.9877 -1.9499  0.0367
  384TIP3    H222712   3.112   1.607   0.764 -0.4923 -1.0762  0.0666
  385TIP3   OH222713   2.311   2.816   0.674 -0.5742 -0.0721  0.4675
  385TIP3    H122714   2.371   2.886   0.700  0.3305 -0.8641  0.5557
  385TIP3    H222715   2.351   2.779   0.595 -0.6804 -0.9354  0.8091
  386TIP3   OH222716   5.273   4.496   3.107  0.4362 -0.0833  0.1261
  386TIP3    H122717   5.347   4.530   3.056 -0.4120 -0.6559 -1.5619
  386TIP3    H222718   5.302   4.410   3.135  0.7791  0.0855  0.2959
  387TIP3   OH222719   1.295   6.606   1.682  0.2784  0.5108  0.5542
  387TIP3    H122720   1.294   6.624   1.775 -0.0909 -0.0570  0.6692
  387TIP3    H222721   1.379   6.562   1.667 -0.9457 -2.3002  1.2336
  388TIP3   OH222722   0.636   3.638   1.926 -0.6181 -0.2943  0.0047
  388TIP3    H122723   0.661   3.727   1.953  0.0643 -0.2523 -0.7328
  388TIP3    H222724   0.582   3.651   1.848 -1.9289 -0.4574  0.8555
  389TIP3   OH222725   3.611   4.280   1.933 -0.2962 -0.4562  0.6363
  389TIP3    H122726   3.686   4.227   1.905 -1.1731 -1.6645  0.5348
  389TIP3    H222727   3.544   4.264   1.867 -0.6745  0.5780  0.7519
  390TIP3   OH222728   6.743   3.637   3.429 -0.0076 -0.3012 -0.0561
  390TIP3    H122729   6.827   3.608   3.393  0.3834  0.7041  0.0285
  390TIP3    H222730   6.759   3.651   3.522  0.6693  3.0290 -0.5404
  391TIP3   OH222731   2.462   3.300   8.200 -0.4883  0.2951  0.4057
  391TIP3    H122732   2.432   3.236   8.264  1.9063 -0.1588  1.1829
  391TIP3    H222733   2.413   3.278   8.120 -1.1879 -1.2030  1.2034
  392TIP3   OH222734   0.420   4.128   1.970 -0.1312 -0.5469  0.2734
  392TIP3    H122735   0.332   4.142   1.936 -0.6359 -1.7270  1.0031
  392TIP3    H222736   0.406   4.106   2.062  0.7376 -2.7770 -0.0697
  393TIP3   OH222737   3.414   1.499   2.919 -0.6773  0.7354 -0.8040
  393TIP3    H122738   3.386   1.476   3.007  0.5481 -1.5960 -0.9617
  393TIP3    H222739   3.336   1.539   2.879 -1.2525  1.8225  1.2809
  394TIP3   OH222740   2.090   5.256   3.901 -0.4007 -0.8812 -0.3471
  394TIP3    H122741   2.123   5.167   3.914 -1.4063 -1.0986  0.9363
  394TIP3    H222742   2.168   5.311   3.904 -0.0237 -1.3936  2.3432
  395TIP3   OH222743   1.766   1.390   2.295 -0.2805 -0.1793 -0.0611
  395TIP3    H122744   1.712   1.430   2.226  0.4493 -0.2057 -0.6574
  395TIP3    H222745   1.799   1.309   2.256 -1.4869 -1.2416  1.0287
  396TIP3   OH222746   3.820   5.108   0.610 -0.5353 -0.1078  0.2354
  396TIP3    H122747   3.819   5.085   0.517 -1.5080  0.0715  0.1935
  396TIP3    H222748   3.911   5.095   0.637 -0.0246  0.7631 -0.9719
  397TIP3   OH222749   5.587   3.104   8.480  0.7054 -0.1369 -0.1871
  397TIP3    H122750   5.544   3.067   8.557 -0.2790  2.3936  0.5446
  397TIP3    H222751   5.644   3.033   8.449 -2.4252 -2.9415 -0.0249
  398TIP3   OH222752   5.256   1.330   0.385  0.1144 -0.2793 -0.4776
  398TIP3    H122753   5.198   1.362   0.454 -0.2593  2.9942 -2.1512
  398TIP3    H222754   5.204   1.334   0.305  1.9441  0.6705 -1.6949
  399TIP3   OH222755   4.976   1.596   1.725 -0.1892  0.2424  0.1842
  399TIP3    H122756   5.028   1.519   1.702  0.4476  0.5053  0.7163
  399TIP3    H222757   4.885   1.568   1.713  0.0462 -0.4610 -0.0182
  400TIP3   OH222758   2.004   5.743   3.262  0.1013  0.3526 -0.4008
  400TIP3    H122759   2.056   5.759   3.184 -0.0363  0.6464 -0.4317
  400TIP3    H222760   1.915   5.731   3.230  0.2313 -0.7062 -0.4036
  401TIP3   OH222761   3.646   2.305   2.396  0.5526 -0.1829  0.2359
  401TIP3    H122762   3.618   2.396   2.389 -2.2710 -0.9120  0.6538
  401TIP3    H222763   3.687   2.285   2.312  0.4315  1.2149 -0.1806
  402TIP3   OH222764   4.214   1.311   3.345  0.1244  0.2881  0.3126
  402TIP3    H122765   4.309   1.312   3.355  0.3179 -0.0683 -1.2355
  402TIP3    H222766   4.194   1.390   3.295 -0.4348  0.4833  0.8281
  403TIP3   OH222767   0.384   0.047   4.025  0.1952 -0.3672  0.2756
  403TIP3    H122768   0.444  -0.015   4.068  1.1711 -0.4486 -1.1449
  403TIP3    H222769   0.441   0.119   3.998 -0.6965  0.4884  0.6345
  404TIP3   OH222770   4.880   1.124   3.832  0.5277 -0.5687 -0.1364
  404TIP3    H122771   4.946   1.055   3.824  0.1229 -0.7072 -3.1403
  404TIP3    H222772   4.806   1.093   3.780 -1.0029  0.6695  1.2036
  405TIP3   OH222773   6.889   5.423   0.031  0.2008  0.2294  0.3642
  405TIP3    H122774   6.934   5.472   0.100  0.4587 -1.5874  1.5837
  405TIP3    H222775   6.958   5.369  -0.008 -0.2653  0.0077 -0.1628
  406TIP3   OH222776   5.456   2.440   2.047 -0.1614  0.8674  0.2456
  406TIP3    H122777   5.539   2.408   2.083  1.0030  2.5999 -0.6951
  406TIP3    H222778   5.437   2.520   2.096 -0.5745  1.1733 -0.3861
  407TIP3   OH222779   5.171   0.983   3.321 -0.0747 -0.4011 -0.2024
  407TIP3    H122780   5.251   0.940   3.351  0.1966 -0.2115 -0.6464
  407TIP3    H222781   5.196   1.074   3.305 -0.8260  0.1601  1.4927
  408TIP3   OH222782   0.348   5.875   0.308  0.6347  0.2651 -0.1800
  408TIP3    H122783   0.362   5.961   0.348 -0.5592  0.0931  0.6529
  408TIP3    H222784   0.268   5.843   0.348  1.0044 -1.1980 -0.5660
  409TIP3   OH222785   1.171   5.659   1.397 -0.0119  0.4568 -0.5390
  409TIP3    H122786   1.096   5.609   1.429 -0.5627 -0.4435 -3.0372
  409TIP3    H222787   1.136   5.747   1.381  0.0035  0.6102  0.2222
  410TIP3   OH222788   2.196   6.701   1.577 -0.0533  0.3552 -0.4901
  410TIP3    H122789   2.137   6.762   1.533 -0.9785  0.1420  0.3895
  410TIP3    H222790   2.160   6.694   1.666  0.5982 -0.7171 -0.2923
  411TIP3   OH222791   2.903   4.494   1.189 -0.4219  0.3018  0.1394
  411TIP3    H122792   2.909   4.561   1.258  0.2366  0.6389 -0.2346
  411TIP3    H222793   2.809   4.490   1.168 -0.8517 -0.8569  2.0609
  412TIP3   OH222794   5.094   0.998   2.177  0.3427 -0.1241  0.3975
  412TIP3    H122795   5.032   1.047   2.231  0.3247  0.1174  0.1593
  412TIP3    H222796   5.097   1.046   2.095  3.2302  1.7061  1.4514
  413TIP3   OH222797   4.654   0.259   1.484 -0.4419 -0.2073  0.0590
  413TIP3    H122798   4.635   0.260   1.390 -1.3969  1.8078  0.2289
  413TIP3    H222799   4.613   0.338   1.518 -1.1349 -1.4629  2.3999
  414TIP3   OH222800   0.866   6.690   1.121  0.1112 -0.1318 -0.0513
  414TIP3    H122801   0.919   6.724   1.193  0.5771 -1.9406  0.5023
  414TIP3    H222802   0.926   6.683   1.047  0.0615  0.0500 -0.1099
  415TIP3   OH222803   2.736   3.320   2.536  0.3506  0.1060 -0.2101
  415TIP3    H122804   2.676   3.247   2.529  0.1560  0.3325 -0.9737
  415TIP3    H222805   2.794   3.297   2.609 -0.3046 -0.3631  0.1690
  416TIP3   OH222806   5.519   5.545   1.973 -0.4344 -0.0756  0.4365
  416TIP3    H122807   5.464   5.514   1.901 -0.3608 -0.9386  0.7333
  416TIP3    H222808   5.599   5.577   1.931  0.3762 -2.2372  0.2025
  417TIP3   OH222809   5.713   2.471   2.208 -0.2545 -0.0053  0.1983
  417TIP3    H122810   5.779   2.402   2.218 -0.9450 -0.3429  3.6860
  417TIP3    H222811   5.744   2.542   2.264 -1.2276  1.2394 -0.7634
  418TIP3   OH222812   5.666   2.769   0.740 -0.3598 -0.5389  0.8632
  418TIP3    H122813   5.739   2.709   0.726  0.4008  0.6215 -0.2987
  418TIP3    H222814   5.588   2.713   0.744  0.4016 -1.6388  0.4498
  419TIP3   OH222815   0.568   1.389   2.773  0.1438  0.0394  0.7414
  419TIP3    H122816   0.540   1.371   2.863 -0.4864 -0.0320  0.5329
  419TIP3    H222817   0.565   1.484   2.766 -2.3149 -0.0309  0.0238
  420TIP3   OH222818   1.008   5.398   1.409  0.3239 -0.1145  1.1706
  420TIP3    H122819   1.023   5.308   1.380 -1.8045 -0.9210  2.3577
  420TIP3    H222820   1.008   5.450   1.329 -0.6122 -1.5174  0.2181
  421TIP3   OH222821   1.211   4.370   4.521 -0.3155  0.9973  0.2259
  421TIP3    H122822   1.139   4.413   4.474 -0.9806 -1.1990 -0.9468
  421TIP3    H222823   1.171   4.290   4.557  1.4826 -0.2844 -0.4559
  422TIP3   OH222824   0.668   3.203   1.154 -0.3601 -0.6244  0.5303
  422TIP3    H122825   0.581   3.242   1.151  0.2685  0.7837 -0.3605
  422TIP3    H222826   0.660   3.123   1.101 -1.2420 -0.8222  0.9492
  423TIP3   OH222827   5.976   4.714   4.050 -0.0070 -0.4084  0.2736
  423TIP3    H122828   5.944   4.804   4.055 -0.4076 -0.5282 -0.1093
  423TIP3    H222829   5.932   4.676   3.974  2.4775 -0.0161 -1.4750
  424TIP3   OH222830   5.757   4.560   1.495 -0.5566 -0.3199 -0.1628
  424TIP3    H122831   5.817   4.569   1.569  2.3273  0.2492 -2.3747
  424TIP3    H222832   5.699   4.635   1.501  1.0878  0.9675  0.3429
  425TIP3   OH222833   0.612   1.887   2.567 -0.2633 -0.2962 -0.6474
  425TIP3    H122834   0.602   1.820   2.634  0.2095 -0.1479 -0.4323
  425TIP3    H222835   0.694   1.931   2.587  0.0958 -0.5279 -1.5680
  426TIP3   OH222836   6.692   1.485   0.196  0.2397  0.0251 -0.1446
  426TIP3    H122837   6.600   1.506   0.178  0.2012 -1.1710 -1.4440
  426TIP3    H222838   6.733   1.571   0.211 -0.6541  0.7691 -1.6707
  427TIP3   OH222839   1.371   5.291   1.376  0.2935 -0.1676 -0.2269
  427TIP3    H122840   1.341   5.206   1.406  0.2046 -0.1518 -0.2722
  427TIP3    H222841   1.454   5.273   1.331  2.2882  0.1948  2.9745
  428TIP3   OH222842   4.505   1.487   2.426 -0.4948  0.0698 -0.3769
  428TIP3    H122843   4.423   1.440   2.443 -1.6102  1.7390 -0.8820
  428TIP3    H222844   4.513   1.487   2.331 -0.8822  1.4229 -0.4389
  429TIP3   OH222845   1.045   3.414   2.358  0.1018  0.1727  0.3650
  429TIP3    H122846   0.962   3.436   2.401 -0.1345  0.7375 -0.3717
  429TIP3    H222847   1.030   3.328   2.318  0.4844 -0.6008  1.8048
  430TIP3   OH222848   0.748   5.234   2.093  0.2389  0.2888 -0.4761
  430TIP3    H122849   0.706   5.215   2.009 -2.3026 -3.1232  1.3033
  430TIP3    H222850   0.842   5.227   2.075 -0.2436 -0.8623 -2.9551
  431TIP3   OH222851   3.519   0.060   3.693 -0.3797  0.5348 -0.0845
  431TIP3    H122852   3.453  -0.010   3.699 -0.5033  0.5176 -1.3063
  431TIP3    H222853   3.548   0.073   3.783  1.6847 -3.0418 -0.0184
  432TIP3   OH222854   0.301   5.765   1.859 -0.0287  0.0733 -0.2761
  432TIP3    H122855   0.365   5.714   1.811 -1.9968 -0.5657 -2.3988
  432TIP3    H222856   0.337   5.772   1.947  2.1893 -1.5313 -0.9682
  433TIP3   OH222857   0.230   3.021   3.387  0.6286  0.5273  0.7006
  433TIP3    H122858   0.320   3.028   3.357  1.7030  0.6516  3.6222
  433TIP3    H222859   0.208   2.929   3.375  1.8565  0.0768  1.6579
  434TIP3   OH222860   5.784   1.028   2.407 -0.2572  0.2919  0.0839
  434TIP3    H122861   5.706   1.031   2.463  0.6365  2.7872  1.3682
  434TIP3    H222862   5.836   0.956   2.443 -1.5366 -0.8440 -0.2488
  435TIP3   OH222863   1.240   6.644   1.931 -1.0385 -0.0230 -0.1302
  435TIP3    H122864   1.240   6.558   1.974  2.7716 -0.4145 -0.5535
  435TIP3    H222865   1.300   6.696   1.983  0.8560  0.6616 -2.8053
  436TIP3   OH222866   6.159   3.483   3.252 -0.0236 -0.4225  0.4330
  436TIP3    H122867   6.108   3.541   3.308 -0.2657  0.0179 -0.2340
  436TIP3    H222868   6.244   3.527   3.241 -0.7638  0.6607 -1.4124
  437TIP3   OH222869   5.171   4.043   3.099  0.0411 -0.0049  0.6634
  437TIP3    H122870   5.115   4.120   3.087 -0.5616 -0.0550  2.7126
  437TIP3    H222871   5.224   4.064   3.177  1.4470 -0.7928 -0.0285
  438TIP3   OH222872   5.588   1.487   3.864  0.2736 -0.2924 -0.1113
  438TIP3    H122873   5.582   1.440   3.781  2.4550 -2.1216  0.6761
  438TIP3    H222874   5.625   1.423   3.925  0.8862  1.6930  1.7078
  439TIP3   OH222875   4.320   2.388   1.616 -0.0945 -0.4244  0.2224
  439TIP3    H122876   4.402   2.411   1.572 -0.5523 -0.5258 -0.7142
  439TIP3    H222877   4.332   2.298   1.644 -0.7341 -1.3107 -2.0808
  440TIP3   OH222878   2.534   1.518   2.437  0.3503  0.2458 -0.4533
  440TIP3    H122879   2.542   1.514   2.532  2.7493 -3.1995 -0.6063
  440TIP3    H222880   2.453   1.566   2.422 -1.0047 -0.4633  3.3825
  441TIP3   OH222881   4.297   3.060   2.441  0.0189  0.1713  0.0356
  441TIP3    H122882   4.311   3.153   2.457 -1.4853  0.3692  0.3675
  441TIP3    H222883   4.383   3.027   2.414  0.9063  1.3494  1.2815
  442TIP3   OH222884   0.711   1.866   0.330  0.1272 -0.5294  0.2165
  442TIP3    H122885   0.724   1.860   0.425 -1.5974 -0.3524  0.4961
  442TIP3    H222886   0.766   1.796   0.294  1.7751  0.2010  1.2185
  443TIP3   OH222887   1.271   2.295   0.839 -0.6436 -0.4023 -0.4899
  443TIP3    H122888   1.191   2.319   0.792 -0.1559  1.7246 -0.3234
  443TIP3    H222889   1.240   2.240   0.911 -1.5664 -2.3860 -2.2852
  444TIP3   OH222890   6.312   4.706   2.303 -0.4909 -0.2769 -0.2017
  444TIP3    H122891   6.278   4.621   2.275  0.9249 -0.3665 -1.8614
  444TIP3    H222892   6.402   4.687   2.332 -0.5753  0.4702  0.5825
  445TIP3   OH222893   1.499   1.464   0.258  0.2090 -0.4849 -0.4430
  445TIP3    H122894   1.587   1.500   0.266 -0.4566  0.8820  1.5019
  445TIP3    H222895   1.469   1.492   0.171  0.8383  1.0997 -0.1705
  446TIP3   OH222896   3.898   3.676   0.717 -0.1243 -0.1553  0.3201
  446TIP3    H122897   3.881   3.769   0.708  0.5841  0.1323  1.7436
  446TIP3    H222898   3.823   3.642   0.764 -1.8169 -0.8985 -2.6743
  447TIP3   OH222899   0.596   6.124   2.534 -0.5459  0.6544 -0.0454
  447TIP3    H122900   0.519   6.158   2.581  0.5159  0.9671  1.5421
  447TIP3    H222901   0.670   6.169   2.574  0.4977  0.2632 -1.4698
  448TIP3   OH222902   2.648   0.256   3.937 -0.7229  0.1975 -0.3155
  448TIP3    H122903   2.623   0.206   4.015  0.9317 -0.7104 -0.3280
  448TIP3    H222904   2.668   0.344   3.969 -0.0842 -0.1620  0.2902
  449TIP3   OH222905   0.995   2.521   4.147 -0.0815 -0.2503 -0.7068
  449TIP3    H122906   0.987   2.432   4.181 -0.2111  0.3065  0.7788
  449TIP3    H222907   1.012   2.575   4.224 -3.0581  1.4642 -1.1087
  450TIP3   OH222908   3.274   0.608   3.271 -0.3580  0.1708 -0.1938
  450TIP3    H122909   3.323   0.557   3.207 -1.2157  0.1436 -0.8434
  450TIP3    H222910   3.302   0.572   3.356 -0.4533 -0.9531 -0.6135
  451TIP3   OH222911   0.299   5.491   1.386 -0.1855 -0.2204  0.4556
  451TIP3    H122912   0.217   5.441   1.389 -0.0828 -0.3478  1.8148
  451TIP3    H222913   0.273   5.578   1.355 -0.3174 -1.1375 -2.2937
  452TIP3   OH222914   6.451   1.695   3.113 -0.1761 -0.3588  0.2336
  452TIP3    H122915   6.462   1.710   3.019 -0.1827 -0.2613  0.2480
  452TIP3    H222916   6.379   1.632   3.119 -1.1013  0.6771  0.2237
  453TIP3   OH222917   4.280   6.294   8.333 -0.1415 -0.5658 -0.2570
  453TIP3    H122918   4.312   6.382   8.350 -0.9854  0.3068 -2.6839
  453TIP3    H222919   4.313   6.241   8.405  2.0999  1.3314  0.2079
  454TIP3   OH222920   4.667   0.559   1.925 -0.3338 -0.5523  0.5610
  454TIP3    H122921   4.686   0.642   1.881  1.1413 -0.8951  0.5167
  454TIP3    H222922   4.585   0.529   1.884 -1.4185  1.3081  1.2344
  455TIP3   OH222923   4.921   2.783   3.134  0.0929  0.4727  0.0012
  455TIP3    H122924   4.851   2.724   3.106 -0.9614  1.5279  0.3175
  455TIP3    H222925   4.965   2.737   3.205 -2.3821  1.0545  2.0438
  456TIP3   OH222926   2.994   1.937   1.145  0.1694 -0.0540 -0.0020
  456TIP3    H122927   2.920   1.984   1.183 -0.6542  0.5459 -2.1659
  456TIP3    H222928   3.071   1.988   1.172 -0.4401  0.7570  0.2380
  457TIP3   OH222929   0.690   4.797   1.802  0.0080 -0.3190  0.7428
  457TIP3    H122930   0.707   4.708   1.833  1.0347 -0.8903 -1.2650
  457TIP3    H222931   0.759   4.850   1.843  1.7997 -1.1835 -0.9426
  458TIP3   OH222932   1.109   0.885   2.382  0.1590 -0.2882  0.0563
  458TIP3    H122933   1.073   0.925   2.303  0.7504  0.9674  0.3958
  458TIP3    H222934   1.169   0.951   2.417  1.6645 -1.7169  0.3085
  459TIP3   OH222935   2.889   2.416   0.847 -0.1953 -0.0283  0.5594
  459TIP3    H122936   2.969   2.365   0.835  0.0398  0.4567  0.0379
  459TIP3    H222937   2.881   2.469   0.768  0.6935  2.2819  1.9132
  460TIP3   OH222938   1.520   3.237   8.351  0.3703 -0.0746  0.6364
  460TIP3    H122939   1.579   3.307   8.379 -2.7382  3.0231  0.0674
  460TIP3    H222940   1.484   3.202   8.433  0.3326  0.5084  0.8730
  461TIP3   OH222941   4.142   6.608   2.686 -0.1940  0.2773 -0.0701
  461TIP3    H122942   4.121   6.696   2.653 -0.5245  0.5881  0.9342
  461TIP3    H222943   4.084   6.550   2.637  1.2739  0.3871 -2.0457
  462TIP3   OH222944   1.047   0.628   8.244 -0.0320  0.2504 -0.1060
  462TIP3    H122945   0.993   0.706   8.250 -2.3615 -1.3504  1.9049
  462TIP3    H222946   1.010   0.579   8.170  1.8127  1.2341 -1.7583
  463TIP3   OH222947   5.262   6.641   2.416 -0.2894 -0.3272 -0.2318
  463TIP3    H122948   5.305   6.656   2.500 -1.3431 -2.5018  0.7729
  463TIP3    H222949   5.333   6.618   2.356  0.3506  0.1196  0.3366
  464TIP3   OH222950   2.406   0.749   1.671 -0.0792 -0.2164  0.2684
  464TIP3    H122951   2.492   0.783   1.697 -1.1279  1.4657  1.7635
  464TIP3    H222952   2.380   0.804   1.597 -0.1187 -0.3522  0.1804
  465TIP3   OH222953   4.496   5.662   1.380 -0.2478  0.2320  0.6414
  465TIP3    H122954   4.532   5.649   1.467  0.3573  2.8727  0.8580
  465TIP3    H222955   4.436   5.588   1.368  0.8622 -1.0747  2.6008
  466TIP3   OH222956   2.756   4.516   0.527  0.8347  0.7394 -0.1824
  466TIP3    H122957   2.745   4.509   0.621 -3.1152 -0.4579 -0.5724
  466TIP3    H222958   2.720   4.602   0.504 -2.5845 -0.6915 -0.8722
  467TIP3   OH222959   4.807   3.534   4.104 -0.0489 -0.3574  0.7250
  467TIP3    H122960   4.869   3.602   4.081  0.4486 -0.1478  2.5266
  467TIP3    H222961   4.777   3.557   4.192 -2.0730 -0.9049  0.2437
  468TIP3   OH222962   2.836   3.988   0.468  0.5403 -0.4417  0.1053
  468TIP3    H122963   2.851   3.975   0.562 -0.3297  0.6643  0.4249
  468TIP3    H222964   2.813   4.081   0.460 -0.7366 -0.8102 -1.0148
  469TIP3   OH222965   4.652   2.553   0.432 -0.0964 -0.7262  0.1145
  469TIP3    H122966   4.625   2.556   0.340  0.2991 -1.8069 -0.0538
  469TIP3    H222967   4.725   2.614   0.437 -1.5645  1.1104  0.2516
  470TIP3   OH222968   4.349   1.127   3.080 -0.0900  0.3916 -0.3009
  470TIP3    H122969   4.269   1.075   3.077  0.3825 -0.4489  0.8144
  470TIP3    H222970   4.323   1.214   3.049 -1.4500  0.1706  0.1606
  471TIP3   OH222971   5.231   1.091   2.577 -0.1569 -0.1581  0.3393
  471TIP3    H122972   5.296   1.141   2.528  0.6339 -0.5671  0.9609
  471TIP3    H222973   5.150   1.101   2.526  0.1057  1.2927  0.1502
  472TIP3   OH222974   5.901   4.825   4.542 -0.5669  1.0760 -1.0669
  472TIP3    H122975   5.872   4.876   4.466 -1.2593  1.9244 -0.2559
  472TIP3    H222976   5.967   4.765   4.506 -1.1777  1.1594 -2.4076
  473TIP3   OH222977   6.817   0.386   2.917 -0.3622 -0.4936  0.5781
  473TIP3    H122978   6.744   0.359   2.972 -0.1582 -1.3399  0.4473
  473TIP3    H222979   6.883   0.317   2.929 -0.0689 -0.3680 -0.2372
  474TIP3   OH222980   0.797   3.727   4.384 -0.0956 -0.1478  0.1989
  474TIP3    H122981   0.765   3.716   4.473  0.6730 -1.7880  0.3018
  474TIP3    H222982   0.746   3.665   4.332 -0.1944  0.4412 -0.4152
  475TIP3   OH222983   3.476   5.257   4.547 -0.1714 -0.3038 -0.0521
  475TIP3    H122984   3.532   5.327   4.514  0.9674 -1.2626 -0.2102
  475TIP3    H222985   3.395   5.301   4.574 -0.3146  0.7986 -2.1074
  476TIP3   OH222986   1.770   1.557   0.266  0.1054  0.0349 -0.6494
  476TIP3    H122987   1.851   1.563   0.214 -0.2114  0.9344 -1.0449
  476TIP3    H222988   1.795   1.588   0.353  0.3822 -0.4742 -0.5438
  477TIP3   OH222989   0.998   4.300   3.588  0.7629  0.3135  0.5423
  477TIP3    H122990   1.089   4.330   3.596  0.7179  0.2910  1.2081
  477TIP3    H222991   0.989   4.234   3.657 -0.3658  1.7842  1.8627
  478TIP3   OH222992   3.575   0.577   3.210 -0.2681  0.1483  0.6425
  478TIP3    H122993   3.536   0.621   3.286  1.4664  0.3243  1.4670
  478TIP3    H222994   3.646   0.635   3.183 -1.4600  0.6032 -1.7938
  479TIP3   OH222995   0.363   3.078   3.793 -0.0188 -0.3166 -1.2097
  479TIP3    H122996   0.336   3.134   3.865 -1.6231  0.7027 -2.5150
  479TIP3    H222997   0.421   3.133   3.740 -1.5826  0.2039 -2.4847
  480TIP3   OH222998   0.073   5.504   3.216 -0.0657  0.3185  0.3450
  480TIP3    H122999   0.081   5.492   3.122  0.4349 -0.1464  0.4436
  480TIP3    H223000  -0.021   5.503   3.233 -0.1118 -1.4578  0.0848
  481TIP3   OH223001   2.424   3.862   4.005  0.2812  0.2567 -0.0101
  481TIP3    H123002   2.384   3.832   4.087  0.3767  0.5326  0.1406
  481TIP3    H223003   2.463   3.947   4.027 -1.7263  1.4727 -0.9087
  482TIP3   OH223004   5.744   3.339   3.807 -0.1308 -0.1709  0.5132
  482TIP3    H123005   5.709   3.426   3.826 -1.8324 -0.7272  0.0542
  482TIP3    H223006   5.823   3.356   3.755  0.5461  1.1206  1.8610
  483TIP3   OH223007   5.718   2.139   0.301 -0.9768 -0.1278  0.4430
  483TIP3    H123008   5.777   2.141   0.377 -0.4423 -1.2155  0.0785
  483TIP3    H223009   5.756   2.203   0.240  1.0625 -2.1937 -0.6251
  484TIP3   OH223010   6.905   5.296   0.892 -0.1124 -0.5004 -0.1812
  484TIP3    H123011   6.922   5.376   0.843 -0.2564 -0.4468 -0.1429
  484TIP3    H223012   6.991   5.255   0.902 -0.0537 -0.4029 -0.2907
  485TIP3   OH223013   3.867   1.018   1.302  0.0188 -0.3554 -0.7363
  485TIP3    H123014   3.936   1.037   1.239  0.1230 -0.3027 -0.6043
  485TIP3    H223015   3.876   0.924   1.319  1.7359  0.1201  1.2821
  486TIP3   OH223016   2.160   0.094   2.658  0.7406  0.6573 -0.7610
  486TIP3    H123017   2.095   0.104   2.588  0.2875 -1.6219 -0.7606
  486TIP3    H223018   2.241   0.129   2.621 -0.2009  2.5154 -1.1814
  487TIP3   OH223019   3.354   1.054   2.820  0.2480  0.4238 -0.0913
  487TIP3    H123020   3.437   1.008   2.831  0.1182 -0.5864 -2.6400
  487TIP3    H223021   3.302   0.998   2.763 -0.3472  3.1298 -2.4761
  488TIP3   OH223022   5.564   1.944   0.616  0.2652  0.4743  0.0938
  488TIP3    H123023   5.476   1.974   0.636  0.3217  0.9773 -0.3677
  488TIP3    H223024   5.616   1.969   0.692  0.2388  1.2473 -0.1372
  489TIP3   OH223025   4.340   5.197   8.323 -0.3144  0.2420  0.4970
  489TIP3    H123026   4.377   5.134   8.262  1.3879  0.5122  1.2151
  489TIP3    H223027   4.245   5.184   8.315 -0.0945 -0.6448 -1.1926
  490TIP3   OH223028   5.215   4.426   0.643 -0.0021  0.2054  0.2345
  490TIP3    H123029   5.133   4.377   0.643  1.2244 -2.0372  2.1222
  490TIP3    H223030   5.274   4.374   0.697  2.4009  2.2266 -0.2686
  491TIP3   OH223031   1.665   4.590   4.176 -0.0126  0.0288  0.2996
  491TIP3    H123032   1.677   4.682   4.199  0.3326 -0.0491  0.4328
  491TIP3    H223033   1.711   4.542   4.245  0.0312 -0.2379  0.0868
  492TIP3   OH223034   6.865   1.135   3.167 -0.3445 -0.4970  0.1388
  492TIP3    H123035   6.782   1.175   3.194 -0.0616 -1.0345  1.9241
  492TIP3    H223036   6.920   1.209   3.142 -0.5852  0.0531  1.2026
  493TIP3   OH223037   6.372   5.357   4.118  0.1197 -0.4799  0.3780
  493TIP3    H123038   6.326   5.373   4.200  1.3327  1.0097  0.8155
  493TIP3    H223039   6.444   5.421   4.118  1.5134 -1.9710 -0.7810
  494TIP3   OH223040   0.449   1.220   2.010 -0.1542  0.3057 -0.1734
  494TIP3    H123041   0.459   1.143   2.066  0.7741 -0.4912 -1.3980
  494TIP3    H223042   0.497   1.199   1.930  0.3472  2.2644 -0.4501
  495TIP3   OH223043   5.422   3.629   3.162  0.6144  0.4666  0.0644
  495TIP3    H123044   5.360   3.687   3.118  1.1539  0.8596 -0.1953
  495TIP3    H223045   5.369   3.558   3.197 -0.4387  2.3821  2.6148
  496TIP3   OH223046   5.637   0.473   2.105  0.0221 -0.2577 -0.4184
  496TIP3    H123047   5.705   0.538   2.087  0.8482 -1.0646 -0.2353
  496TIP3    H223048   5.600   0.454   2.019 -1.5298  1.8123 -0.2966
  497TIP3   OH223049   0.174   1.703   1.523  0.1252  0.3815  0.3008
  497TIP3    H123050   0.165   1.700   1.619  0.5104  0.6095  0.3482
  497TIP3    H223051   0.248   1.644   1.505 -0.0080  0.2668  0.1358
  498TIP3   OH223052   6.272   3.883   2.896 -0.0482 -0.0222  0.1752
  498TIP3    H123053   6.187   3.843   2.875  1.2168 -2.8983  0.1972
  498TIP3    H223054   6.304   3.835   2.972  2.4606 -0.3503 -0.9939
  499TIP3   OH223055   1.213   2.073   2.170 -0.1632 -0.2148  0.2678
  499TIP3    H123056   1.193   2.014   2.098 -0.3805  0.9564 -0.6590
  499TIP3    H223057   1.277   2.135   2.134  0.7036 -0.3729  1.4647
  500TIP3   OH223058   1.450   3.149   0.103 -0.5107  0.0080  0.2004
  500TIP3    H123059   1.382   3.169   0.168  1.0684 -0.2775  2.0207
  500TIP3    H223060   1.442   3.055   0.088 -2.2582  0.3899 -1.7306
  501TIP3   OH223061   3.626   5.447   3.738  0.3296 -0.0188  0.0791
  501TIP3    H123062   3.661   5.519   3.686  0.4618  0.1278  0.3754
  501TIP3    H223063   3.694   5.380   3.734  0.3648  0.0151  0.1135
  502TIP3   OH223064   3.928   0.035   3.243 -0.1128 -0.2175  0.5472
  502TIP3    H123065   3.996  -0.020   3.283 -0.2995 -1.1736 -0.4221
  502TIP3    H223066   3.951   0.037   3.150 -0.8628  0.2752  0.3678
  503TIP3   OH223067   2.203   6.769   2.474 -0.0774  0.0063  0.1420
  503TIP3    H123068   2.248   6.807   2.399  3.6349 -1.5188  1.3759
  503TIP3    H223069   2.145   6.703   2.437 -0.9791  1.6444 -1.5113
  504TIP3   OH223070   3.915   3.787   3.438  0.0845  0.0369  0.6620
  504TIP3    H123071   3.950   3.844   3.506  0.1851 -0.7914  1.3279
  504TIP3    H223072   3.924   3.837   3.357 -0.9220  1.4389  1.3710
  505TIP3   OH223073   2.636   5.289   2.371 -0.2046 -0.3485  0.2003
  505TIP3    H123074   2.546   5.322   2.366  0.1931  0.6422 -0.7401
  505TIP3    H223075   2.657   5.292   2.464 -1.5907 -1.8688  0.6040
  506TIP3   OH223076   5.173   3.135   1.250  0.9861  0.1591 -0.2269
  506TIP3    H123077   5.152   3.078   1.176  2.5497  0.1097 -0.6723
  506TIP3    H223078   5.255   3.177   1.225  1.1581  0.7117  1.1756
  507TIP3   OH223079   0.574   1.650   3.969 -0.2651  0.0345  0.2059
  507TIP3    H123080   0.596   1.557   3.979 -0.8212 -0.1589 -0.3399
  507TIP3    H223081   0.614   1.675   3.885 -0.9328  0.0407 -0.1127
  508TIP3   OH223082   0.261   1.785   2.022 -0.3734  0.1705 -0.0043
  508TIP3    H123083   0.328   1.815   1.961 -1.2317 -0.0232 -1.0685
  508TIP3    H223084   0.256   1.854   2.089  0.4328  0.4808 -0.2576
  509TIP3   OH223085   3.931   0.523   1.141 -0.6398 -0.6445 -0.5364
  509TIP3    H123086   3.953   0.572   1.062 -0.6678 -0.9415 -0.7318
  509TIP3    H223087   3.994   0.451   1.142 -0.2060 -0.2649  0.0726
  510TIP3   OH223088   5.520   2.946   4.048  0.4551  0.4667 -0.9254
  510TIP3    H123089   5.552   2.991   3.970 -0.1073 -0.2504 -1.5854
  510TIP3    H223090   5.598   2.928   4.100  0.7026  2.1663 -0.6459
  511TIP3   OH223091   3.433   3.774   1.381 -0.2830 -0.0784  0.0312
  511TIP3    H123092   3.522   3.750   1.353 -0.7223  1.8126 -3.5851
  511TIP3    H223093   3.389   3.690   1.396  1.6312 -1.0832  0.3771
  512TIP3   OH223094   4.900   3.812   2.964  0.3811  0.3994 -0.0712
  512TIP3    H123095   4.872   3.847   3.049 -0.3430  0.2440 -0.2438
  512TIP3    H223096   4.832   3.839   2.903 -0.1314 -1.2047 -0.2356
  513TIP3   OH223097   3.266   0.849   2.643 -0.1714  0.5005 -0.2210
  513TIP3    H123098   3.283   0.756   2.626  0.5133  0.7959 -1.2097
  513TIP3    H223099   3.180   0.864   2.605 -0.6908  0.0732  0.7441
  514TIP3   OH223100   2.894   3.588   0.613 -0.5228 -0.3092  0.4043
  514TIP3    H123101   2.932   3.660   0.563 -2.1252  0.7452  0.6415
  514TIP3    H223102   2.876   3.520   0.547  0.4462 -0.2826  0.0919
  515TIP3   OH223103   6.255   2.202   3.290  0.2631 -0.5200 -0.0398
  515TIP3    H123104   6.347   2.214   3.265  0.5015  0.7087  1.2796
  515TIP3    H223105   6.211   2.277   3.251 -0.6179 -2.1420 -2.3963
  516TIP3   OH223106   4.945   1.994   3.573 -0.3385  0.0021 -0.3841
  516TIP3    H123107   5.041   2.002   3.576 -0.2716 -0.9032  0.7436
  516TIP3    H223108   4.914   2.082   3.551  0.7276  0.4521 -0.1607
  517TIP3   OH223109   6.521   6.048   4.467 -0.5922  0.4665 -0.3175
  517TIP3    H123110   6.426   6.056   4.475 -0.7223 -0.0727 -1.1620
  517TIP3    H223111   6.549   6.003   4.546 -1.2586 -0.9089 -0.8402
  518TIP3   OH223112   5.573   4.118   4.368  0.3893  0.2696  0.2979
  518TIP3    H123113   5.637   4.114   4.439 -1.5648 -1.7674  2.1263
  518TIP3    H223114   5.515   4.043   4.384 -0.2109 -0.2680 -3.4690
  519TIP3   OH223115   4.817   4.526   2.600 -0.1336 -0.1331  0.1674
  519TIP3    H123116   4.770   4.609   2.586  0.2923  0.5114  2.2152
  519TIP3    H223117   4.752   4.459   2.581 -1.3630  0.7277  1.1224
  520TIP3   OH223118   4.368   0.688   2.751 -0.1431 -0.0374  0.5273
  520TIP3    H123119   4.305   0.706   2.822  0.7300 -0.0564  1.3210
  520TIP3    H223120   4.402   0.601   2.770  0.0888 -0.0493  0.0683
  521TIP3   OH223121   2.728   3.006   3.686 -0.3538  0.4032 -0.0930
  521TIP3    H123122   2.811   3.051   3.702  0.0251 -0.1511 -0.4426
  521TIP3    H223123   2.678   3.016   3.767  0.2974  0.2375  0.3355
  522TIP3   OH223124   6.383   2.627   8.414 -0.4654 -0.3426  0.1423
  522TIP3    H123125   6.310   2.680   8.445 -0.2754 -0.0039  0.0193
  522TIP3    H223126   6.402   2.661   8.326 -1.4281 -1.7300 -0.6504
  523TIP3   OH223127   0.030   4.061   8.317 -0.6075  0.1649 -0.3859
  523TIP3    H123128  -0.055   4.019   8.311 -0.8950  0.8045 -0.8815
  523TIP3    H223129   0.025   4.136   8.258  0.7660 -0.5604 -1.4861
  524TIP3   OH223130   3.349   5.459   2.813  0.3639 -0.1406 -1.1738
  524TIP3    H123131   3.394   5.527   2.762 -0.7589  2.4276  1.0123
  524TIP3    H223132   3.256   5.476   2.798  0.0394 -0.2829  0.5042
  525TIP3   OH223133   2.666   3.809   2.902 -0.3729 -0.0127  0.0989
  525TIP3    H123134   2.702   3.783   2.987 -1.3123 -1.4184  0.0974
  525TIP3    H223135   2.613   3.734   2.874  0.3329  0.1882 -1.9873
  526TIP3   OH223136   4.373   4.635   4.036  0.5385 -0.0994  0.7455
  526TIP3    H123137   4.464   4.644   4.008 -0.1274 -1.6085 -2.3770
  526TIP3    H223138   4.322   4.663   3.960 -1.8060  3.3287  3.2508
  527TIP3   OH223139   2.443   1.888   2.751  0.1515  0.1266 -0.8064
  527TIP3    H123140   2.400   1.968   2.783  0.8242 -0.4246  1.6797
  527TIP3    H223141   2.374   1.843   2.700 -1.4822  0.4480  1.0064
  528TIP3   OH223142   6.075   6.625   0.375  0.1899  0.3171  0.2549
  528TIP3    H123143   6.038   6.704   0.415  0.0266  1.0179 -1.1878
  528TIP3    H223144   6.164   6.650   0.350 -0.1608  0.3780 -1.0291
  529TIP3   OH223145   6.453   0.515   4.425 -0.0079 -0.0058  0.3701
  529TIP3    H123146   6.545   0.516   4.450 -0.0163  0.7341  0.3883
  529TIP3    H223147   6.415   0.442   4.474  0.6810 -0.6597 -0.0572
  530TIP3   OH223148   4.029   0.683   3.406 -0.4162 -0.2065 -0.0079
  530TIP3    H123149   3.942   0.666   3.443 -0.5562 -0.6859 -0.5441
  530TIP3    H223150   4.067   0.596   3.393  1.2902 -0.0207  2.8187
  531TIP3   OH223151   5.931   0.447   2.311  0.1955 -0.0505 -0.3977
  531TIP3    H123152   5.999   0.470   2.247  0.7949  0.0414  0.2567
  531TIP3    H223153   5.852   0.434   2.258  1.0878 -1.8735 -1.4242
  532TIP3   OH223154   4.536   5.478   2.409  0.5626  0.1329  0.0555
  532TIP3    H123155   4.539   5.552   2.349  1.0317 -0.4608 -0.6632
  532TIP3    H223156   4.604   5.497   2.474  0.9648  0.1245 -0.3672
  533TIP3   OH223157   3.976   3.283   3.549  0.0405  0.3711 -0.1981
  533TIP3    H123158   3.993   3.377   3.548  0.4423  0.3337 -2.8221
  533TIP3    H223159   3.884   3.275   3.523 -0.2797  0.0278  0.9472
  534TIP3   OH223160   1.541   0.730   0.572  0.2161  0.0315 -0.2420
  534TIP3    H123161   1.481   0.759   0.504 -1.1712 -1.3582  0.3250
  534TIP3    H223162   1.503   0.763   0.653  0.4373 -0.5215  0.0935
  535TIP3   OH223163   6.591   1.083   1.657 -0.4524 -0.1216  0.1649
  535TIP3    H123164   6.519   1.136   1.625 -2.5862 -2.5644  0.6266
  535TIP3    H223165   6.619   1.127   1.738 -0.4820  1.5438 -0.6781
  536TIP3   OH223166   1.053   0.248   0.739  0.2787 -0.6298 -0.0076
  536TIP3    H123167   1.065   0.154   0.754  0.3561 -0.4726  0.9616
  536TIP3    H223168   1.006   0.279   0.817  1.5389  0.4017  0.3628
  537TIP3   OH223169   1.657   5.069   4.544 -0.0662  0.1607 -0.0982
  537TIP3    H123170   1.642   5.163   4.534  0.6337  0.3585  0.6055
  537TIP3    H223171   1.750   5.062   4.565  0.1312 -0.7691 -1.1593
  538TIP3   OH223172   4.847   0.208   3.403  0.5549 -0.2834  0.4800
  538TIP3    H123173   4.846   0.117   3.373  0.1330 -0.0201 -0.3482
  538TIP3    H223174   4.819   0.259   3.327 -1.2317  0.3605  1.5000
  539TIP3   OH223175   0.844   6.558   2.186 -0.5166 -0.3425 -0.0825
  539TIP3    H123176   0.907   6.552   2.259 -2.0771 -0.4593  1.3173
  539TIP3    H223177   0.866   6.484   2.130  3.4641  2.0669 -2.1375
  540TIP3   OH223178   0.283   1.769   3.041  0.0541  0.0864 -0.7896
  540TIP3    H123179   0.335   1.698   3.079 -1.0706 -0.3663 -0.0346
  540TIP3    H223180   0.344   1.816   2.984  1.2739 -0.4362  0.0467
  541TIP3   OH223181   2.818   3.387   0.203 -0.1819  0.8104 -0.4954
  541TIP3    H123182   2.812   3.348   0.116  0.5365  0.4680 -0.4019
  541TIP3    H223183   2.820   3.481   0.186 -0.3445  0.7586 -0.8263
  542TIP3   OH223184   2.080   0.452   1.972  0.0488 -0.0712 -0.0771
  542TIP3    H123185   2.119   0.524   2.022  2.2516  1.4110 -3.5697
  542TIP3    H223186   2.154   0.395   1.950 -1.0034 -1.2043 -0.8372
  543TIP3   OH223187   0.132   1.741   0.967  0.0997 -0.1410 -0.0479
  543TIP3    H123188   0.169   1.673   1.024  0.9836 -0.1556 -0.6233
  543TIP3    H223189   0.144   1.707   0.879 -0.3614  0.3248 -0.2933
  544TIP3   OH223190   2.123   2.592   0.548 -0.1666  0.1163  0.0727
  544TIP3    H123191   2.154   2.504   0.569 -2.5059 -0.2580  2.4952
  544TIP3    H223192   2.200   2.648   0.560  0.9490 -1.3712  0.1889
  545TIP3   OH223193   2.472   6.535   2.550  0.1690  0.2317 -0.2152
  545TIP3    H123194   2.506   6.452   2.584 -1.8625 -0.0533  1.2911
  545TIP3    H223195   2.453   6.517   2.458 -1.1858 -1.3541  0.3194
  546TIP3   OH223196   0.511   5.964   3.435 -0.0558  0.5208 -0.1616
  546TIP3    H123197   0.443   6.032   3.427 -0.5539  0.0166 -0.2770
  546TIP3    H223198   0.526   5.935   3.345  0.3725  0.6805 -0.1442
  547TIP3   OH223199   5.591   1.244   1.336  0.5418 -0.4365  0.3347
  547TIP3    H123200   5.611   1.334   1.362 -1.0953  0.3904 -1.1083
  547TIP3    H223201   5.635   1.190   1.402  0.8667  1.4252  1.7168
  548TIP3   OH223202   5.273   5.004   4.461 -0.0607 -0.1995 -0.3436
  548TIP3    H123203   5.203   5.013   4.397  0.2204  0.2261 -0.5988
  548TIP3    H223204   5.314   4.920   4.440 -1.5983 -1.3350  0.9306
  549TIP3   OH223205   5.545   2.245   2.841 -0.4019 -0.1285  0.2565
  549TIP3    H123206   5.454   2.267   2.860 -0.0189  0.4012  1.6003
  549TIP3    H223207   5.570   2.184   2.910  0.3899  0.0617  0.1491
  550TIP3   OH223208   0.695   5.015   1.624 -0.1522 -0.8297 -0.4143
  550TIP3    H123209   0.761   4.976   1.566 -2.1020 -1.2958 -2.5125
  550TIP3    H223210   0.662   4.941   1.675  0.4901 -0.7256  0.1484
  551TIP3   OH223211   1.324   0.220   4.161  0.0120 -0.1949  0.1057
  551TIP3    H123212   1.252   0.162   4.186 -0.7920  0.2583 -1.0223
  551TIP3    H223213   1.308   0.239   4.068  0.5668  1.3579  0.2951
  552TIP3   OH223214   6.583   0.687   3.814 -0.0657 -0.7884 -0.3699
  552TIP3    H123215   6.583   0.735   3.732 -0.5361  0.1936  0.1938
  552TIP3    H223216   6.543   0.602   3.792  1.0955 -1.0942 -1.4422
  553TIP3   OH223217   6.090   2.233   3.881  0.6124 -0.7123  0.5189
  553TIP3    H123218   6.018   2.170   3.886  1.1220 -1.4350 -0.7777
  553TIP3    H223219   6.047   2.318   3.875 -0.1857 -1.1650 -0.7156
  554TIP3   OH223220   3.570   1.789   3.005 -0.5536  0.7864  0.1942
  554TIP3    H123221   3.512   1.858   2.972 -0.2855  0.7801 -0.3167
  554TIP3    H223222   3.628   1.770   2.931  0.8264  1.5630  1.0282
  555TIP3   OH223223   4.707   4.197   4.072 -0.7445  0.4228 -0.3284
  555TIP3    H123224   4.678   4.225   3.985 -0.5747 -0.0729 -0.5508
  555TIP3    H223225   4.740   4.276   4.114  2.3712  0.1464 -1.9560
  556TIP3   OH223226   4.798   0.910   3.230 -0.4403  0.2955 -0.4858
  556TIP3    H123227   4.786   0.815   3.228  1.7483 -0.0080 -0.9631
  556TIP3    H223228   4.830   0.931   3.142  2.7494  0.9002  0.7261
  557TIP3   OH223229   5.572   4.326   1.532 -0.2258  0.6756 -0.3787
  557TIP3    H123230   5.564   4.323   1.627  0.3344  1.0766 -0.3106
  557TIP3    H223231   5.644   4.387   1.516  0.3289 -0.1161 -1.0210
  558TIP3   OH223232   1.476   4.988   2.033 -0.7211  0.2494  0.4773
  558TIP3    H123233   1.403   5.025   1.983 -1.3217  0.6473  1.6294
  558TIP3    H223234   1.532   4.947   1.966 -1.4612  0.8270 -0.5258
  559TIP3   OH223235   0.327   2.786   0.710  0.7899  0.1449  0.2167
  559TIP3    H123236   0.322   2.794   0.615  0.4758 -2.4007 -0.0415
  559TIP3    H223237   0.241   2.753   0.736  1.0220  0.3929  1.3439
  560TIP3   OH223238   3.209   4.180   1.011  0.3157 -0.1042 -0.0305
  560TIP3    H123239   3.266   4.152   1.083 -2.1312  0.3615  2.2109
  560TIP3    H223240   3.127   4.205   1.053 -1.4399 -0.3045 -3.0582
  561TIP3   OH223241   3.859   5.684   3.668 -0.1407  0.0542 -0.0702
  561TIP3    H123242   3.897   5.768   3.644  2.4054 -0.4794  1.6934
  561TIP3    H223243   3.829   5.697   3.758 -0.5150 -0.7014 -0.0795
  562TIP3   OH223244   1.679   5.560   0.530  0.9481 -0.4994  0.1912
  562TIP3    H123245   1.654   5.505   0.456  0.9903  0.9835 -0.9719
  562TIP3    H223246   1.661   5.650   0.501  0.4896  0.1082  2.1679
  563TIP3   OH223247   3.364   4.952   2.310  0.1973 -0.7880 -0.1211
  563TIP3    H123248   3.447   4.915   2.280  1.5642  2.0279 -0.2148
  563TIP3    H223249   3.337   5.010   2.239  0.7248  1.9528  1.7502
  564TIP3   OH223250   6.238   6.909   4.423  0.6252  0.2865 -0.5134
  564TIP3    H123251   6.171   6.848   4.391 -0.5066  0.9253  0.5421
  564TIP3    H223252   6.317   6.886   4.374 -0.5305 -0.0478 -2.3091
  565TIP3   OH223253   1.634   1.690   4.000  0.6274  0.0257 -0.3326
  565TIP3    H123254   1.558   1.652   4.043  1.0622 -0.4858 -0.0011
  565TIP3    H223255   1.598   1.760   3.946 -0.4511 -1.9399 -2.3576
  566TIP3   OH223256   0.500   2.060   0.584 -0.1183 -0.2620  0.5755
  566TIP3    H123257   0.493   2.058   0.488 -0.1219  0.0162  0.5702
  566TIP3    H223258   0.531   2.148   0.604 -2.2756  0.4860  0.9529
  567TIP3   OH223259   5.783   5.557   2.246 -0.9031 -0.2456 -0.5533
  567TIP3    H123260   5.788   5.646   2.283 -1.7657  0.6976 -2.5337
  567TIP3    H223261   5.836   5.504   2.305  2.7667  2.2528 -1.2611
  568TIP3   OH223262   6.769   4.176   4.970 -0.0155 -0.2517 -0.3940
  568TIP3    H123263   6.737   4.086   4.970 -0.1130 -0.2211  0.1280
  568TIP3    H223264   6.693   4.228   4.942  0.3373 -0.4177 -1.7475
  569TIP3   OH223265   5.183   0.153   0.911 -0.2859 -0.3172 -0.4028
  569TIP3    H123266   5.146   0.168   0.824  1.3386 -1.8333 -1.4394
  569TIP3    H223267   5.204   0.240   0.944 -1.3096  0.3141 -1.3639
  570TIP3   OH223268   6.881   1.931   1.015  0.5423 -0.7475  0.1864
  570TIP3    H123269   6.885   1.969   1.102  1.7279 -0.0797 -0.1374
  570TIP3    H223270   6.963   1.881   1.007  0.8905 -0.0342 -0.8783
  571TIP3   OH223271   2.672   3.036   3.408 -0.0709  0.1796  0.1117
  571TIP3    H123272   2.705   3.035   3.498 -0.3771 -1.6217  0.2549
  571TIP3    H223273   2.642   2.946   3.393  0.6919  0.2264 -2.0557
  572TIP3   OH223274   0.071   5.844   2.052 -0.0375  0.0692  0.0384
  572TIP3    H123275   0.155   5.823   2.093 -0.3904 -1.0306  0.2115
  572TIP3    H223276   0.094   5.908   1.984  1.2492 -1.7398 -1.3050
  573TIP3   OH223277   0.329   5.147   3.140  0.2930  0.6476  0.4457
  573TIP3    H123278   0.389   5.217   3.114 -1.0957  1.6124 -0.3066
  573TIP3    H223279   0.339   5.141   3.235  1.2490  1.0877  0.3828
  574TIP3   OH223280   6.076   1.651   1.714 -0.2494 -0.1280  0.4421
  574TIP3    H123281   5.993   1.628   1.673 -1.4010  2.9286  0.8515
  574TIP3    H223282   6.119   1.710   1.652  0.0726  0.9191  1.6168
  575TIP3   OH223283   3.811   6.318   3.599  0.1711  0.5722  0.0343
  575TIP3    H123284   3.752   6.243   3.588  0.4480 -0.0159  2.1313
  575TIP3    H223285   3.757   6.394   3.574 -1.5007  0.0426  1.7784
  576TIP3   OH223286   4.194   2.176   0.448  0.1182 -0.0109  0.1953
  576TIP3    H123287   4.206   2.202   0.356  0.9824  1.7498  0.7721
  576TIP3    H223288   4.231   2.248   0.499 -0.1990 -1.0285  1.9478
  577TIP3   OH223289   1.680   2.055   3.314 -0.5352  0.3355 -0.2302
  577TIP3    H123290   1.615   2.098   3.371 -0.2043 -1.4040  1.5682
  577TIP3    H223291   1.763   2.065   3.361  0.0909  0.4210 -1.3257
  578TIP3   OH223292   1.544   4.812   2.459  0.2572 -0.2289 -0.4640
  578TIP3    H123293   1.503   4.859   2.387 -0.3154  0.0225  0.0212
  578TIP3    H223294   1.471   4.771   2.506  0.7336 -1.5867 -0.8599
  579TIP3   OH223295   1.411   0.425   1.729  0.0461 -0.5548 -0.4854
  579TIP3    H123296   1.451   0.383   1.806 -1.7535 -0.2685  0.6683
  579TIP3    H223297   1.424   0.518   1.743  0.1411 -0.5238 -0.7796
  580TIP3   OH223298   4.096   2.920   0.616  0.4412  0.1625 -0.5212
  580TIP3    H123299   4.020   2.863   0.607  0.8048 -0.3677 -0.2917
  580TIP3    H223300   4.064   2.994   0.668  0.1778 -0.2425 -0.0959
  581TIP3   OH223301   6.525   6.588   1.955 -0.0411  0.0182 -0.2778
  581TIP3    H123302   6.530   6.631   1.869 -0.4895 -1.3068 -1.0065
  581TIP3    H223303   6.616   6.566   1.976  0.0223 -0.0944 -0.6565
  582TIP3   OH223304   6.274   0.402   4.109  0.1359  0.6224 -0.1879
  582TIP3    H123305   6.345   0.354   4.067  1.5473  2.3260  0.1417
  582TIP3    H223306   6.266   0.363   4.196 -0.9483 -1.1003 -1.0059
  583TIP3   OH223307   3.714   5.719   1.733  0.2621 -0.0028  0.0021
  583TIP3    H123308   3.697   5.813   1.721  0.7763  0.1028  0.0905
  583TIP3    H223309   3.721   5.685   1.644  0.8089  0.1830 -0.0318
  584TIP3   OH223310   4.051   4.160   8.396  0.6416  0.2642  0.2810
  584TIP3    H123311   4.108   4.189   8.325  0.7172  0.4459  0.4156
  584TIP3    H223312   4.043   4.065   8.383  1.0994  0.2144  0.3512
  585TIP3   OH223313   4.196   1.437   2.464  0.1002  0.5806 -0.7406
  585TIP3    H123314   4.100   1.438   2.465  0.0834  0.8955 -1.6531
  585TIP3    H223315   4.219   1.348   2.438  0.1357 -0.4047  2.3131
  586TIP3   OH223316   1.866   6.228   2.114 -0.3316  0.3239 -0.2551
  586TIP3    H123317   1.954   6.190   2.107 -0.9754 -1.5700  1.1000
  586TIP3    H223318   1.873   6.293   2.183 -0.4095 -1.3921  1.4643
  587TIP3   OH223319   1.514   3.387   2.281 -0.1325  0.1466 -0.1475
  587TIP3    H123320   1.432   3.426   2.311 -0.5040 -0.9338  0.2748
  587TIP3    H223321   1.576   3.403   2.352 -0.7017 -1.3702  0.7454
  588TIP3   OH223322   4.489   0.309   0.396  0.1614 -0.3201 -0.6042
  588TIP3    H123323   4.563   0.249   0.390 -0.6477 -1.4061 -0.0500
  588TIP3    H223324   4.434   0.288   0.320 -0.4403 -0.7329 -0.0625
  589TIP3   OH223325   6.052   4.440   1.893  0.0248  0.3235 -0.6993
  589TIP3    H123326   6.055   4.486   1.976  0.4625  1.4766 -1.3324
  589TIP3    H223327   6.067   4.348   1.916  0.6779  0.6924  0.4344
  590TIP3   OH223328   2.807   2.951   1.037 -0.4768 -0.2759  0.2906
  590TIP3    H123329   2.866   2.929   0.964 -1.3211 -2.7651  0.2518
  590TIP3    H223330   2.862   2.940   1.115  0.2723  1.8336  0.1100
  591TIP3   OH223331   4.756   3.911   1.484 -0.0474  0.4727  0.0418
  591TIP3    H123332   4.782   3.896   1.393 -2.2683  3.0120 -1.1434
  591TIP3    H223333   4.839   3.912   1.533  1.0787 -3.1124 -1.4514
  592TIP3   OH223334   2.974   0.473   2.399 -0.0928  0.4159  0.4425
  592TIP3    H123335   2.962   0.379   2.386 -1.1895  0.8296 -2.2817
  592TIP3    H223336   2.885   0.507   2.410 -0.0469  1.4155 -1.6864
  593TIP3   OH223337   2.547   0.082   4.150  0.1002 -0.2380 -0.3579
  593TIP3    H123338   2.452   0.093   4.159  0.2125  0.3988  0.1257
  593TIP3    H223339   2.576   0.055   4.237  0.7607  2.6224  0.4039
  594TIP3   OH223340   4.319   0.569   3.850 -0.0158  0.4322  0.1259
  594TIP3    H123341   4.399   0.562   3.797 -0.3792 -0.0136 -0.3789
  594TIP3    H223342   4.251   0.590   3.786 -0.5995 -0.8866  0.2910
  595TIP3   OH223343   1.988   1.239   0.021 -0.3115 -0.2667  0.3671
  595TIP3    H123344   2.071   1.285   0.025  0.1695 -0.9455 -0.9580
  595TIP3    H223345   1.963   1.244  -0.072 -0.8067 -1.6717  0.4069
  596TIP3   OH223346   0.767   4.596   4.166 -0.3010 -0.3056 -0.0899
  596TIP3    H123347   0.778   4.657   4.239 -0.1971  2.4316 -2.2234
  596TIP3    H223348   0.856   4.577   4.137 -0.3229 -1.7141  0.6646
  597TIP3   OH223349   1.907   4.585   1.766 -0.3547 -0.4004  0.0290
  597TIP3    H123350   1.876   4.540   1.845 -1.1936 -0.4758 -0.3307
  597TIP3    H223351   1.939   4.670   1.797 -0.6300 -0.4520  0.4620
  598TIP3   OH223352   0.158   2.133   3.858 -0.9521 -0.2384  0.2766
  598TIP3    H123353   0.229   2.195   3.870 -0.8212 -0.4257  0.4847
  598TIP3    H223354   0.168   2.101   3.768 -0.2016 -0.9632  0.6060
  599TIP3   OH223355   3.048   5.869   2.252  0.1358  0.2503  0.2979
  599TIP3    H123356   3.126   5.925   2.250 -0.4532  1.3532  2.8492
  599TIP3    H223357   2.975   5.930   2.237 -0.3738 -0.3087  0.4858
  600TIP3   OH223358   1.144   5.729   4.433  0.1899  0.1694 -0.4668
  600TIP3    H123359   1.119   5.636   4.437 -0.4568  0.2268 -2.3167
  600TIP3    H223360   1.230   5.728   4.390  0.3218  0.4204 -0.2120
  601TIP3   OH223361   0.213   5.606   0.980 -0.1036 -0.2021  0.0800
  601TIP3    H123362   0.276   5.668   1.018 -1.5731  1.5724 -0.2168
  601TIP3    H223363   0.129   5.632   1.018 -1.5134  0.9941 -3.4366
  602TIP3   OH223364   4.953   4.349   0.964 -0.1922 -0.0650  0.1657
  602TIP3    H123365   4.983   4.308   0.883  0.3222  0.9136 -0.1490
  602TIP3    H223366   5.032   4.365   1.014 -0.4692 -0.2556  0.6770
  603TIP3   OH223367   3.115   2.895   3.303  0.0013 -0.4926 -1.1436
  603TIP3    H123368   3.085   2.950   3.230 -0.9125 -0.1817 -0.5582
  603TIP3    H223369   3.081   2.939   3.381  1.7751 -0.2802 -0.4414
  604TIP3   OH223370   2.547   1.965   0.970  0.5528 -0.3875  0.2775
  604TIP3    H123371   2.503   1.939   1.051 -2.7992  0.8659 -0.9393
  604TIP3    H223372   2.555   2.060   0.976  1.3909 -0.4035 -0.3616
  605TIP3   OH223373   4.514   5.481   3.095 -0.0523 -0.0615 -0.0832
  605TIP3    H123374   4.558   5.396   3.098  1.8250  0.7908 -1.1047
  605TIP3    H223375   4.556   5.526   3.021 -1.6680  1.4009 -0.1586
  606TIP3   OH223376   6.433   4.499   1.808  0.7518  0.4570  0.1958
  606TIP3    H123377   6.365   4.568   1.808  0.5585  0.3072  1.7309
  606TIP3    H223378   6.515   4.547   1.819  0.7636  0.5460 -0.2770
  607TIP3   OH223379   4.568   5.433   1.038 -0.2519 -0.1601 -0.1536
  607TIP3    H123380   4.633   5.421   1.107 -0.7151 -1.9537  0.0327
  607TIP3    H223381   4.542   5.525   1.043  2.4889  0.7126 -0.4509
  608TIP3   OH223382   1.657   4.873   4.277 -0.2591 -1.0072 -0.1681
  608TIP3    H123383   1.731   4.866   4.338 -1.6387 -0.1455  1.7247
  608TIP3    H223384   1.661   4.963   4.244 -0.5381 -0.9057  0.0667
  609TIP3   OH223385   2.185   5.089   2.353  0.1350 -0.2134  0.3453
  609TIP3    H123386   2.130   5.050   2.421 -1.5255 -0.1851 -0.9004
  609TIP3    H223387   2.239   5.017   2.321 -0.3871 -0.6652  0.4662
  610TIP3   OH223388   6.475   0.075   3.476  0.2454 -0.0541 -0.1718
  610TIP3    H123389   6.527   0.009   3.523  0.2544 -0.6733 -1.0344
  610TIP3    H223390   6.385   0.040   3.479  0.0492  0.4635  0.3409
  611TIP3   OH223391   5.249   2.607   2.550  0.1750 -0.5690 -0.2228
  611TIP3    H123392   5.284   2.628   2.463 -1.2980  1.9643 -0.2885
  611TIP3    H223393   5.155   2.597   2.536 -0.0455 -0.3836  1.0493
  612TIP3   OH223394   5.420   1.703   1.161 -0.0201 -0.1524 -0.5117
  612TIP3    H123395   5.388   1.794   1.166 -0.2004 -0.1094 -2.1028
  612TIP3    H223396   5.461   1.688   1.246  0.7646  1.7086 -0.5150
  613TIP3   OH223397   0.318   0.106   4.426 -0.0600 -0.3641  0.1443
  613TIP3    H123398   0.271   0.185   4.399 -0.2012 -0.8626 -1.1231
  613TIP3    H223399   0.259   0.065   4.490 -0.2324  0.2615  0.4004
  614TIP3   OH223400   4.596   1.166   4.058  0.0488  0.1941 -0.1245
  614TIP3    H123401   4.525   1.211   4.104  0.6555  0.1228  0.9298
  614TIP3    H223402   4.649   1.236   4.020  0.9159  0.4142  1.3991
  615TIP3   OH223403   3.528   4.185   2.193  0.1957 -0.0889  0.3210
  615TIP3    H123404   3.540   4.229   2.109 -2.0934  1.0114  0.4756
  615TIP3    H223405   3.519   4.092   2.170 -0.4939  0.2063 -0.6897
  616TIP3   OH223406   1.073   4.840   1.071 -0.5342  0.0693  0.1719
  616TIP3    H123407   1.110   4.752   1.071 -2.8922 -1.0043 -1.1748
  616TIP3    H223408   1.133   4.892   1.017  0.7655 -0.7016  0.8147
  617TIP3   OH223409   2.878   2.286   0.525  0.3867 -0.0795 -0.2036
  617TIP3    H123410   2.873   2.379   0.550  0.6055  0.0008 -0.4555
  617TIP3    H223411   2.793   2.250   0.550  0.3154  0.1795 -0.0672
  618TIP3   OH223412   1.115   6.212   1.865 -0.3630 -0.1489  0.0902
  618TIP3    H123413   1.101   6.205   1.960  0.3123 -0.4083  0.1798
  618TIP3    H223414   1.031   6.188   1.826 -1.4768  2.4243  0.6575
  619TIP3   OH223415   4.775   6.917   0.888  0.2998  0.3045 -0.7716
  619TIP3    H123416   4.815   7.003   0.878 -0.4878  0.8898  0.8083
  619TIP3    H223417   4.754   6.889   0.799  2.3198  0.8756 -1.4607
  620TIP3   OH223418   6.481   6.926   4.316  0.1337  0.6317 -0.2362
  620TIP3    H123419   6.549   6.971   4.265  0.2715 -0.3062 -0.8944
  620TIP3    H223420   6.527   6.854   4.358  0.1853  1.7937  1.8593
  621TIP3   OH223421   0.883   0.535   3.792  0.5048 -1.2496  0.3229
  621TIP3    H123422   0.803   0.520   3.743 -0.3351  0.1136  1.2246
  621TIP3    H223423   0.953   0.531   3.726 -0.3628 -1.6934 -0.5885
  622TIP3   OH223424   5.959   1.126   1.491  0.2283 -0.1967 -0.5648
  622TIP3    H123425   6.019   1.077   1.547  0.9263  0.0140 -1.1081
  622TIP3    H223426   5.873   1.087   1.507  0.2906  0.3089  1.1595
  623TIP3   OH223427   6.481   4.666   3.081 -0.3610 -0.3477 -0.2176
  623TIP3    H123428   6.402   4.644   3.032 -0.1186 -2.8478  0.3475
  623TIP3    H223429   6.553   4.635   3.026  0.1783  0.8379 -0.2050
  624TIP3   OH223430   4.104   5.096   2.478  0.0867 -0.4741 -0.4737
  624TIP3    H123431   4.060   5.028   2.426 -0.2518  1.4291 -2.8848
  624TIP3    H223432   4.197   5.084   2.458  0.0611 -0.4548 -0.6078
  625TIP3   OH223433   2.589   0.917   4.348  0.1371 -0.1612  0.1365
  625TIP3    H123434   2.675   0.878   4.333 -0.5008 -1.4002 -0.3855
  625TIP3    H223435   2.534   0.845   4.378 -1.1536  0.2455 -1.1397
  626TIP3   OH223436   1.205   1.225   2.813  0.0693  0.8806  0.3207
  626TIP3    H123437   1.133   1.209   2.752 -1.2737 -0.6430  2.1745
  626TIP3    H223438   1.161   1.243   2.897  1.8513  1.5996  1.1516
  627TIP3   OH223439   6.213   2.884   0.262 -0.0598  0.2537 -0.5403
  627TIP3    H123440   6.235   2.879   0.168 -0.8560 -0.4006 -0.7033
  627TIP3    H223441   6.181   2.974   0.274  0.3186  0.4313 -0.8336
  628TIP3   OH223442   2.929   2.724   3.180  0.1103  0.0450 -0.2171
  628TIP3    H123443   2.951   2.690   3.093 -1.1248  0.4345 -0.7058
  628TIP3    H223444   2.960   2.815   3.179  2.7993 -0.7667  0.8496
  629TIP3   OH223445   4.973   3.331   1.036 -0.0645 -0.3938  0.4058
  629TIP3    H123446   4.987   3.337   1.130  0.0035  0.5400  0.3488
  629TIP3    H223447   5.049   3.374   0.997 -1.6298  2.3203  0.0334
  630TIP3   OH223448   4.039   6.473   2.462  0.0627 -0.0827 -0.7744
  630TIP3    H123449   4.119   6.468   2.409  0.1973 -0.1948 -0.5636
  630TIP3    H223450   3.994   6.552   2.431 -0.3854 -0.7037 -1.7840
  631TIP3   OH223451   5.688   3.009   0.630  0.0279  0.1908 -0.1835
  631TIP3    H123452   5.759   3.049   0.680 -0.1833  0.3599 -0.0173
  631TIP3    H223453   5.690   2.917   0.656  0.1949  0.1922 -0.1907
  632TIP3   OH223454   3.724   4.182   1.267  0.4486  0.1186 -0.2509
  632TIP3    H123455   3.664   4.226   1.208  0.0807  0.7691  0.5852
  632TIP3    H223456   3.749   4.101   1.221 -0.7291  0.0393 -0.7823
  633TIP3   OH223457   0.552   4.911   1.255 -0.6123  0.4534  0.2128
  633TIP3    H123458   0.643   4.941   1.248 -0.7758  0.5892 -1.9406
  633TIP3    H223459   0.528   4.886   1.166 -1.9476 -1.8824  1.1430
  634TIP3   OH223460   6.081   1.130   1.874 -0.5802 -0.0308 -0.5774
  634TIP3    H123461   6.094   1.215   1.832 -0.1353 -0.1491 -0.6884
  634TIP3    H223462   6.164   1.111   1.917  0.2086 -1.5149 -2.5911
  635TIP3   OH223463   4.986   2.288   1.007  0.1062 -0.2792 -0.0299
  635TIP3    H123464   5.003   2.347   0.933  2.2858 -1.5675 -0.6500
  635TIP3    H223465   4.891   2.292   1.019 -0.1057  1.3466 -1.7137
  636TIP3   OH223466   1.288   5.934   2.656  0.3620  0.3685  0.5993
  636TIP3    H123467   1.375   5.916   2.619 -0.1976 -1.3556  0.0486
  636TIP3    H223468   1.227   5.892   2.596 -0.7071 -0.6821  2.3446
  637TIP3   OH223469   5.550   5.240   2.015  0.4191  0.0228 -0.1180
  637TIP3    H123470   5.603   5.319   2.007  0.8509  0.0810  2.4060
  637TIP3    H223471   5.585   5.196   2.092 -1.3226 -1.4479 -0.1071
  638TIP3   OH223472   5.293   2.356   2.657 -0.0819 -0.1177  0.2603
  638TIP3    H123473   5.300   2.359   2.752 -1.9238 -0.3309  0.4398
  638TIP3    H223474   5.299   2.447   2.629 -0.9028  0.0825  0.7154
  639TIP3   OH223475   0.237   4.295   0.369 -0.4115  0.1074  0.1149
  639TIP3    H123476   0.155   4.341   0.354 -0.8392 -1.6222 -4.0063
  639TIP3    H223477   0.302   4.345   0.319 -0.3000 -1.8955 -1.8927
  640TIP3   OH223478   5.546   4.614   3.656  0.2632 -0.1230  0.0850
  640TIP3    H123479   5.540   4.583   3.565  0.6652 -0.8487  0.2966
  640TIP3    H223480   5.639   4.632   3.670  0.1445  0.3972  0.2266
  641TIP3   OH223481   5.901   0.111   8.351  0.1261  0.0466  0.8650
  641TIP3    H123482   5.942   0.044   8.406 -1.4076 -1.0332  0.7404
  641TIP3    H223483   5.879   0.182   8.412 -0.7647 -0.7645  1.5049
  642TIP3   OH223484   6.077   4.814   3.547  0.2321  0.1526  0.4540
  642TIP3    H123485   6.149   4.768   3.506  0.8528  1.2678  0.2332
  642TIP3    H223486   6.119   4.868   3.615 -0.0061  2.6648 -1.2450
  643TIP3   OH223487   4.471   0.818   2.489  0.0299  0.0641  0.3583
  643TIP3    H123488   4.542   0.877   2.464  0.7765 -1.3543 -1.1181
  643TIP3    H223489   4.467   0.824   2.584  2.9099 -0.5568  0.6313
  644TIP3   OH223490   4.557   1.606   3.479  0.0819 -0.7096  0.1309
  644TIP3    H123491   4.468   1.643   3.479 -0.5022 -2.0483 -0.7983
  644TIP3    H223492   4.548   1.523   3.525  1.2263 -0.1216  1.5187
  645TIP3   OH223493   0.270   6.642   1.121 -0.7311  0.4000  0.1666
  645TIP3    H123494   0.319   6.566   1.088  0.2246  0.4389  1.4334
  645TIP3    H223495   0.273   6.705   1.049  0.4471  0.1063 -0.0664
  646TIP3   OH223496   5.099   4.182   2.130  0.4926 -0.0295 -0.3321
  646TIP3    H123497   5.113   4.090   2.109 -0.5838 -0.5358  0.9669
  646TIP3    H223498   5.092   4.226   2.045  1.0672 -1.1310 -0.9662
  647TIP3   OH223499   5.802   1.360   3.477  0.1519  0.3314  0.0764
  647TIP3    H123500   5.736   1.345   3.544 -1.4527 -0.1046 -1.5093
  647TIP3    H223501   5.805   1.455   3.466 -0.9291  0.3238 -0.4651
  648TIP3   OH223502   0.426   4.233   0.909 -0.4298 -0.1893  0.4787
  648TIP3    H123503   0.469   4.227   0.824  0.8309 -0.6520  1.1178
  648TIP3    H223504   0.469   4.308   0.952  0.1290 -0.9664  1.3199
  649TIP3   OH223505   4.069   4.404   0.786  0.3964  0.0181 -0.4944
  649TIP3    H123506   4.037   4.386   0.697 -2.6901 -2.4345  0.8910
  649TIP3    H223507   4.025   4.484   0.812 -1.4874 -1.0647 -0.1161
  650TIP3   OH223508   2.128   5.381   1.708  0.5700  0.3235 -0.1807
  650TIP3    H123509   2.214   5.404   1.744  0.8953 -0.3028 -0.5374
  650TIP3    H223510   2.093   5.316   1.768  0.9162 -0.3864 -0.7357
  651TIP3   OH223511   0.619   0.236   4.627 -0.0187 -0.6405 -0.1854
  651TIP3    H123512   0.544   0.198   4.580 -2.3594  0.8224  2.0711
  651TIP3    H223513   0.611   0.330   4.611  0.3223 -0.3119  1.3815
  652TIP3   OH223514   2.518   6.276   0.781  0.0065 -0.0817 -0.1509
  652TIP3    H123515   2.571   6.205   0.745 -1.0439 -1.6733  1.2587
  652TIP3    H223516   2.513   6.256   0.875 -3.2744 -0.1750 -0.2454
  653TIP3   OH223517   1.448   2.474   2.190 -0.2165  0.0586  0.2810
  653TIP3    H123518   1.511   2.469   2.118 -0.2403 -0.9168  0.3061
  653TIP3    H223519   1.501   2.481   2.269 -0.1640  0.2024  0.2321
  654TIP3   OH223520   6.566   5.271   0.483  0.2865 -0.6637  0.0689
  654TIP3    H123521   6.582   5.181   0.455  1.2974 -0.0785 -1.3049
  654TIP3    H223522   6.560   5.321   0.402  1.5316  0.7996  0.8462
  655TIP3   OH223523   3.740   6.832   1.120  0.1959 -0.6645  0.3612
  655TIP3    H123524   3.684   6.905   1.093 -2.1315 -2.9020 -1.4329
  655TIP3    H223525   3.759   6.849   1.212 -1.8387  1.2539  0.5115
  656TIP3   OH223526   2.733   6.255   1.262  0.6693 -0.6427 -0.0655
  656TIP3    H123527   2.646   6.233   1.296  0.7052 -0.3942  0.1909
  656TIP3    H223528   2.728   6.234   1.169 -0.3232  1.2510 -0.4996
  657TIP3   OH223529   6.393   5.624   1.565  0.3769 -0.4282  0.3183
  657TIP3    H123530   6.353   5.706   1.593  0.9473 -0.1904  0.4495
  657TIP3    H223531   6.333   5.588   1.500  0.3140  0.2745 -0.0111
  658TIP3   OH223532   2.287   4.752   3.260  0.2272 -0.4199  0.0698
  658TIP3    H123533   2.282   4.838   3.217 -0.3302 -0.3649  0.2345
  658TIP3    H223534   2.207   4.747   3.312  0.4848 -0.8501  0.4257
  659TIP3   OH223535   4.592   4.716   0.848 -0.4229 -0.1761 -0.0382
  659TIP3    H123536   4.616   4.802   0.882 -1.8075 -0.2642  1.2689
  659TIP3    H223537   4.535   4.736   0.773  1.4288  0.0088 -1.4722
  660TIP3   OH223538   4.819   3.156   2.586  0.3759  0.0503  0.5454
  660TIP3    H123539   4.905   3.181   2.619  0.1801 -1.3908  2.2826
  660TIP3    H223540   4.834   3.073   2.541  0.2424  0.8886 -1.1041
  661TIP3   OH223541   4.751   6.416   4.082  0.0692 -0.1686 -0.0926
  661TIP3    H123542   4.705   6.398   4.000 -0.6143  1.6352 -0.1607
  661TIP3    H223543   4.808   6.491   4.061 -1.2546  1.3497  1.4087
  662TIP3   OH223544   5.507   1.310   0.945  0.2417  0.2411 -0.5171
  662TIP3    H123545   5.478   1.223   0.971  1.2686  0.0835  0.1464
  662TIP3    H223546   5.602   1.302   0.937  0.1384  0.5964 -3.1464
  663TIP3   OH223547   6.554   4.680   1.116  0.3015 -0.0005 -0.3285
  663TIP3    H123548   6.581   4.753   1.171 -0.3568 -0.3204  0.4318
  663TIP3    H223549   6.539   4.608   1.177  0.4622 -0.6339 -1.0171
  664TIP3   OH223550   3.856   6.779   0.822  0.2520  0.0771  0.2947
  664TIP3    H123551   3.849   6.857   0.877  1.4119 -0.2014  0.8692
  664TIP3    H223552   3.949   6.773   0.800  0.1467 -1.0116  0.0680
  665TIP3   OH223553   5.484   1.797   4.109 -0.3606  0.2225 -0.0695
  665TIP3    H123554   5.565   1.746   4.101 -1.5998 -1.7864 -0.3751
  665TIP3    H223555   5.456   1.784   4.199 -0.5527  0.5962 -0.0735
  666TIP3   OH223556   2.730   4.134   1.006  0.0461  0.3192 -0.1011
  666TIP3    H123557   2.689   4.137   0.920 -1.1979  1.2675  0.4899
  666TIP3    H223558   2.661   4.159   1.067  0.9204 -0.2364  1.1786
  667TIP3   OH223559   5.698   6.842   8.358 -0.0248  0.4582 -0.4182
  667TIP3    H123560   5.682   6.882   8.444 -0.2547  1.3523 -0.8712
  667TIP3    H223561   5.772   6.891   8.323  1.6370 -1.4510  0.2454
  668TIP3   OH223562   1.148   3.656   1.401 -0.7576 -0.4816  0.4196
  668TIP3    H123563   1.223   3.703   1.366  0.3012 -0.4131  2.6394
  668TIP3    H223564   1.081   3.723   1.413 -0.5501 -0.2200  0.1135
  669TIP3   OH223565   4.439   3.280   3.320  0.1483  0.0820  0.0046
  669TIP3    H123566   4.497   3.344   3.361  0.1885  0.0509 -0.0032
  669TIP3    H223567   4.351   3.315   3.333 -0.1304 -1.3748  2.7787
  670TIP3   OH223568   5.482   4.943   8.427 -0.6521 -0.3295  0.0492
  670TIP3    H123569   5.520   4.899   8.350 -3.3401 -1.8269 -0.5366
  670TIP3    H223570   5.518   4.895   8.501 -0.0582 -0.5616 -0.3712
  671TIP3   OH223571   0.657   5.250   3.371 -0.0214 -0.0761 -0.1444
  671TIP3    H123572   0.742   5.291   3.354 -0.6634  1.0992 -0.6653
  671TIP3    H223573   0.601   5.280   3.299 -0.6745 -1.5050 -0.2726
  672TIP3   OH223574   2.233   5.229   3.036  0.3864  0.3053  0.6205
  672TIP3    H123575   2.223   5.148   2.986  0.6174  1.5534 -1.5863
  672TIP3    H223576   2.327   5.247   3.033  0.3661  0.5458  1.2872
  673TIP3   OH223577   0.249   1.164   3.891 -0.4597 -0.5624 -0.3598
  673TIP3    H123578   0.172   1.158   3.948 -1.3544 -0.1654 -1.4915
  673TIP3    H223579   0.296   1.082   3.905  0.1266  0.1164  2.0216
  674TIP3   OH223580   4.620   1.017   8.421 -0.5422 -0.4763 -0.1818
  674TIP3    H123581   4.697   0.979   8.464 -0.3379 -2.3327 -2.0347
  674TIP3    H223582   4.615   1.106   8.455  1.6786 -0.7020  0.9148
  675TIP3   OH223583   3.963   5.955   3.744  0.2420  0.5310 -0.5146
  675TIP3    H123584   3.913   6.036   3.752  0.9474  0.8225  1.2249
  675TIP3    H223585   4.013   5.948   3.825 -0.8656 -2.3710  0.0607
  676TIP3   OH223586   0.594   5.321   1.043  0.2365 -0.0077 -0.1856
  676TIP3    H123587   0.580   5.416   1.040 -1.8370 -0.2459  0.0780
  676TIP3    H223588   0.518   5.288   1.091  0.9737 -1.8050 -0.1862
  677TIP3   OH223589   3.795   4.689   0.404 -0.2118 -0.3253 -0.1944
  677TIP3    H123590   3.717   4.737   0.434  1.0088  1.3511  0.4655
  677TIP3    H223591   3.783   4.683   0.309  0.1673  2.5712 -0.5178
  678TIP3   OH223592   4.295   3.792   2.552  0.0468 -0.0109 -0.3107
  678TIP3    H123593   4.361   3.724   2.562 -0.6807 -0.7649 -0.4821
  678TIP3    H223594   4.220   3.761   2.603  0.4494  1.7304  1.4947
  679TIP3   OH223595   6.537   4.025   4.843 -0.5180  0.3205  0.5327
  679TIP3    H123596   6.451   4.006   4.807 -0.6371  0.8691  0.5263
  679TIP3    H223597   6.596   4.024   4.767 -0.2821 -1.3642  0.6964
  680TIP3   OH223598   6.471   3.317   3.762 -0.0365 -0.0788 -0.2807
  680TIP3    H123599   6.506   3.228   3.755  0.4438  0.1033 -0.2662
  680TIP3    H223600   6.518   3.354   3.837 -1.6297 -0.4412  0.9421
  681TIP3   OH223601   0.843   6.127   1.819 -0.0216 -0.1725 -0.2827
  681TIP3    H123602   0.859   6.039   1.785  1.8579  0.5949 -1.5678
  681TIP3    H223603   0.814   6.177   1.743 -1.0606  0.3324  0.4323
  682TIP3   OH223604   5.955   4.781   1.878 -0.2242  0.6487 -0.1598
  682TIP3    H123605   6.031   4.778   1.937 -0.0773  1.0022 -0.3340
  682TIP3    H223606   5.882   4.807   1.935  0.0061  1.4561 -0.2206
  683TIP3   OH223607   4.569   2.826   2.129  0.0089 -0.1635  0.4708
  683TIP3    H123608   4.544   2.901   2.182  1.2462  0.8086 -0.2577
  683TIP3    H223609   4.564   2.751   2.189 -3.6295  0.0096  0.6120
  684TIP3   OH223610   3.542   3.376   1.750 -0.1807 -0.1788  0.1080
  684TIP3    H123611   3.465   3.356   1.804  0.6186 -0.1828  1.3011
  684TIP3    H223612   3.570   3.462   1.781  0.5874 -0.3983  0.0366
  685TIP3   OH223613   5.804   0.540   0.660 -0.2944 -0.1704  0.6183
  685TIP3    H123614   5.778   0.613   0.602 -1.0525  0.0428  1.2021
  685TIP3    H223615   5.721   0.497   0.682 -0.2094  0.5763  2.6301
  686TIP3   OH223616   5.772   5.622   3.917 -0.5940  0.4438  0.1794
  686TIP3    H123617   5.851   5.664   3.884 -1.1610 -0.5322 -2.6957
  686TIP3    H223618   5.700   5.674   3.881 -1.2830 -1.9865 -2.2390
  687TIP3   OH223619   2.482   1.792   3.258  0.3382 -0.1057 -0.0283
  687TIP3    H123620   2.535   1.870   3.248 -2.1731  1.8690  0.9283
  687TIP3    H223621   2.453   1.770   3.169  3.5869 -2.0205 -0.7678
  688TIP3   OH223622   0.411   0.222   3.731 -0.0338  0.2392  0.0687
  688TIP3    H123623   0.321   0.200   3.753  0.7792 -0.6493  2.9089
  688TIP3    H223624   0.444   0.271   3.807  2.2265 -0.5336 -0.3300
  689TIP3   OH223625   0.159   4.674   2.579  0.0767 -0.1660 -0.2324
  689TIP3    H123626   0.083   4.700   2.528  0.4000  0.7505 -0.2714
  689TIP3    H223627   0.190   4.594   2.538  1.6098  1.6273 -2.8796
  690TIP3   OH223628   2.390   3.109   1.895 -0.1370 -0.2326 -0.0252
  690TIP3    H123629   2.318   3.117   1.957  0.3606  0.6424  0.4538
  690TIP3    H223630   2.434   3.028   1.920 -1.3848 -1.2045 -0.8175
  691TIP3   OH223631   1.658   4.921   2.962 -0.3500 -0.1132 -0.1479
  691TIP3    H123632   1.752   4.940   2.964 -0.2467 -0.6131 -0.0374
  691TIP3    H223633   1.653   4.826   2.972 -0.9092  0.0179  0.9888
  692TIP3   OH223634   6.083   0.935   1.657  0.8334 -0.2149  0.4169
  692TIP3    H123635   6.175   0.938   1.629  0.6391 -1.3992 -0.3910
  692TIP3    H223636   6.083   0.976   1.744  2.0088  0.4102  0.1418
  693TIP3   OH223637   2.225   2.018   1.847  0.5206  0.4507  0.3044
  693TIP3    H123638   2.306   2.001   1.800 -0.2240  0.0857 -0.8804
  693TIP3    H223639   2.223   2.113   1.858  0.2689  0.6534 -1.2626
  694TIP3   OH223640   1.930   3.017   2.530  0.4876 -0.3214  0.4224
  694TIP3    H123641   1.987   2.953   2.573  1.5688  1.2729  1.4412
  694TIP3    H223642   1.863   3.037   2.596 -0.6618 -1.3596 -0.3773
  695TIP3   OH223643   4.420   3.712   2.135  0.0399  0.1030 -0.2203
  695TIP3    H123644   4.402   3.768   2.060  0.2584 -0.1243 -0.4427
  695TIP3    H223645   4.514   3.720   2.149 -0.1134  0.7172  0.4846
  696TIP3   OH223646   5.675   3.271   0.266 -0.1699  0.0547  0.2519
  696TIP3    H123647   5.654   3.184   0.231  0.6254  0.0821 -0.3056
  696TIP3    H223648   5.760   3.292   0.228 -0.7130  1.4163 -0.2378
  697TIP3   OH223649   6.237   4.002   0.918  0.2685 -0.2257 -0.1253
  697TIP3    H123650   6.232   4.097   0.907 -0.8716  0.0270  1.8873
  697TIP3    H223651   6.191   3.967   0.842  0.5308  0.8329 -0.8000
  698TIP3   OH223652   1.395   2.077   1.278  0.1829  0.6715  0.4137
  698TIP3    H123653   1.413   2.133   1.203 -3.4057  2.8992  1.0026
  698TIP3    H223654   1.400   2.135   1.353  0.2385 -0.7215  1.5197
  699TIP3   OH223655   3.028   0.765   0.604 -0.8160 -0.2685  0.0864
  699TIP3    H123656   2.980   0.750   0.686 -1.2418  2.3050  0.3817
  699TIP3    H223657   3.091   0.693   0.600  0.1723  0.2460  3.4325
  700TIP3   OH223658   0.258   3.887   1.253 -0.2340 -0.0571  0.1495
  700TIP3    H123659   0.311   3.962   1.225  2.1295 -1.2507  1.1989
  700TIP3    H223660   0.275   3.820   1.187 -1.6056 -0.0114 -0.2788
  701TIP3   OH223661   1.070   0.611   2.445 -0.8867 -0.1305  0.6678
  701TIP3    H123662   1.067   0.646   2.535  0.7171  0.8685  0.3673
  701TIP3    H223663   1.077   0.689   2.390 -1.2880 -0.7642 -0.3010
  702TIP3   OH223664   1.194   3.308   3.591  0.7518 -0.3936 -0.3816
  702TIP3    H123665   1.102   3.305   3.619  0.1447 -0.1450 -2.2238
  702TIP3    H223666   1.228   3.388   3.630  0.4616 -0.9257  1.0429
  703TIP3   OH223667   1.859   5.385   3.188 -0.1887 -0.4649 -0.4758
  703TIP3    H123668   1.768   5.408   3.170 -0.3282 -0.7939 -0.2027
  703TIP3    H223669   1.911   5.447   3.136 -0.5630  0.0878 -0.1872
  704TIP3   OH223670   1.587   5.650   1.750 -0.2670 -0.7870  0.1275
  704TIP3    H123671   1.586   5.717   1.683  1.1688  0.2638  1.0877
  704TIP3    H223672   1.496   5.623   1.760 -0.8741  1.0339 -0.2657
  705TIP3   OH223673   4.978   4.249   3.048  0.0189  0.0655  0.2686
  705TIP3    H123674   4.981   4.332   3.000 -1.0989 -0.0891 -0.0849
  705TIP3    H223675   4.913   4.196   3.002  0.9532 -1.1517  0.2794
  706TIP3   OH223676   1.624   1.986   1.896 -0.2614  0.1813  0.0638
  706TIP3    H123677   1.648   2.078   1.884 -0.1730  0.2320  0.6279
  706TIP3    H223678   1.548   1.974   1.839 -0.5948  0.7420  0.3823
  707TIP3   OH223679   2.050   6.137   3.533  0.8630  0.0128  0.1486
  707TIP3    H123680   1.958   6.164   3.529  0.9703  0.3136 -0.5191
  707TIP3    H223681   2.080   6.144   3.442  1.5770  0.0273  0.3834
  708TIP3   OH223682   6.133   5.645   4.387  0.2037  0.2196  0.2470
  708TIP3    H123683   6.210   5.665   4.334 -0.1507 -0.4621 -0.5599
  708TIP3    H223684   6.087   5.728   4.395  0.4036  0.3872 -0.2942
  709TIP3   OH223685   3.330   6.508   0.776  0.3454 -0.0899 -0.5848
  709TIP3    H123686   3.263   6.565   0.739  0.3987 -0.9044 -2.0053
  709TIP3    H223687   3.408   6.563   0.784  0.3397  0.1139 -1.7488
  710TIP3   OH223688   1.402   4.934   3.181  0.4598  0.1405  0.4616
  710TIP3    H123689   1.363   4.846   3.179  0.0385  0.2433  2.3195
  710TIP3    H223690   1.476   4.929   3.120 -0.2790 -1.1365 -0.3748
  711TIP3   OH223691   1.494   1.518   3.749 -1.0274 -0.0088  0.3770
  711TIP3    H123692   1.441   1.549   3.675 -0.4888  0.3532  0.1369
  711TIP3    H223693   1.490   1.589   3.813  1.0508  1.0705 -0.5925
  712TIP3   OH223694   5.941   4.408   3.428 -0.2197  0.1862 -0.3070
  712TIP3    H123695   5.950   4.409   3.333  0.1352  0.9966 -0.2746
  712TIP3    H223696   5.914   4.319   3.449 -1.0669  0.2089 -1.2362
  713TIP3   OH223697   3.929   4.664   2.277 -0.1790 -0.0347 -0.4574
  713TIP3    H123698   4.018   4.630   2.290 -0.8793 -2.2294 -1.0753
  713TIP3    H223699   3.879   4.630   2.350 -1.4237 -2.4608 -2.2963
  714TIP3   OH223700   3.018   1.754   2.278 -0.2230 -0.0761  0.2914
  714TIP3    H123701   2.948   1.706   2.234 -1.6992  3.3006 -1.4838
  714TIP3    H223702   3.039   1.826   2.218  3.2133  0.3793  1.8080
  715TIP3   OH223703   5.149   1.758   2.370 -0.2071 -0.0117  0.0387
  715TIP3    H123704   5.128   1.666   2.386 -1.9913  0.4705  0.7880
  715TIP3    H223705   5.159   1.764   2.275 -0.1331 -0.9778 -0.0203
  716TIP3   OH223706   3.404   3.622   0.490  0.2331  0.1024  0.0454
  716TIP3    H123707   3.440   3.708   0.469  2.5434 -1.3092 -2.3714
  716TIP3    H223708   3.354   3.597   0.412  0.5839 -1.1980  0.2159
  717TIP3   OH223709   6.914   3.875   4.066  0.4788  0.4581  0.3933
  717TIP3    H123710   6.966   3.939   4.117  1.3226 -0.4020  0.6534
  717TIP3    H223711   6.957   3.873   3.981  0.4125  0.2976  0.3646
  718TIP3   OH223712   4.570   1.590   1.881  0.3916  0.3621  0.1127
  718TIP3    H123713   4.593   1.572   1.790 -0.7347  3.3286 -0.8721
  718TIP3    H223714   4.479   1.562   1.889  0.4873  0.1129  0.3254
  719TIP3   OH223715   0.600   4.056   1.393  0.3209  0.4027 -0.0531
  719TIP3    H123716   0.619   4.122   1.326  0.2554  0.4386 -0.0366
  719TIP3    H223717   0.615   3.973   1.349 -0.4744  0.4058 -0.3542
  720TIP3   OH223718   5.052   0.651   3.117 -0.0632 -0.2599  0.1948
  720TIP3    H123719   5.061   0.617   3.206 -0.6060  2.1685  1.2568
  720TIP3    H223720   5.130   0.706   3.105  0.1213 -0.7338 -0.9544
  721TIP3   OH223721   3.738   6.544   1.896 -0.6851  0.1279 -0.2713
  721TIP3    H123722   3.661   6.516   1.847 -0.1785 -0.7115 -0.6164
  721TIP3    H223723   3.797   6.469   1.892 -0.7203 -0.0791  1.8465
  722TIP3   OH223724   1.097   1.965   1.279 -0.2199  0.0075  0.1364
  722TIP3    H123725   1.095   1.872   1.255  0.3409  0.7441 -3.4074
  722TIP3    H223726   1.158   1.969   1.353  0.3155 -2.3638 -0.0792
  723TIP3   OH223727   5.871   0.412   1.288  0.1404 -0.1645 -0.2146
  723TIP3    H123728   5.901   0.491   1.243  0.0087  0.3983  0.6636
  723TIP3    H223729   5.815   0.445   1.359 -0.7728 -1.0963 -0.4793
  724TIP3   OH223730   1.965   2.244   2.951  0.6667  0.1184  0.5745
  724TIP3    H123731   1.870   2.249   2.945  0.6253 -0.1698  0.9860
  724TIP3    H223732   1.989   2.314   3.012  0.8953  1.4928 -0.9957
  725TIP3   OH223733   4.414   5.330   2.033  0.4683  0.2663 -0.2362
  725TIP3    H123734   4.328   5.292   2.049  0.2004  1.2331  0.7444
  725TIP3    H223735   4.473   5.281   2.091  0.6920 -0.7538 -1.2963
  726TIP3   OH223736   1.565   2.762   2.375  0.1854 -0.2083 -0.1785
  726TIP3    H123737   1.495   2.706   2.408  1.5247 -1.2894  0.9251
  726TIP3    H223738   1.642   2.739   2.427  1.3989  0.8946 -1.3883
  727TIP3   OH223739   1.345   6.770   1.416 -0.6151  0.9931 -0.1935
  727TIP3    H123740   1.435   6.744   1.435 -0.3497  1.3488 -0.9311
  727TIP3    H223741   1.291   6.706   1.462 -0.0194  1.8815  1.9018
  728TIP3   OH223742   1.435   6.469   3.045  0.0672  1.0422 -0.0622
  728TIP3    H123743   1.502   6.400   3.045  1.0030  1.8790 -1.6500
  728TIP3    H223744   1.355   6.424   3.018  0.7692  0.6236 -1.5531
  729TIP3   OH223745   0.551   3.897   4.802  0.1658 -0.6422  0.1255
  729TIP3    H123746   0.462   3.926   4.785  0.3430 -0.8983 -1.3573
  729TIP3    H223747   0.587   3.963   4.861 -0.4136  0.4961 -0.7575
  730TIP3   OH223748   6.489   5.375   3.661 -0.1176  0.3705  0.7101
  730TIP3    H123749   6.463   5.329   3.741  1.8520  0.4204  1.4240
  730TIP3    H223750   6.572   5.335   3.636  0.2700  1.6854 -0.2109
  731TIP3   OH223751   5.476   5.799   1.538  0.1988  0.5205  0.4591
  731TIP3    H123752   5.505   5.805   1.629  0.8828  1.9114  0.1767
  731TIP3    H223753   5.551   5.831   1.487  0.4163 -1.7024 -0.7199
  732TIP3   OH223754   1.237   3.024   0.762  0.0405  0.9741 -0.4388
  732TIP3    H123755   1.206   3.006   0.851  0.3506  0.4411 -0.4338
  732TIP3    H223756   1.247   2.937   0.723  0.9288  1.1644 -0.6484
  733TIP3   OH223757   3.739   3.579   3.431 -0.7713  0.1129 -0.2553
  733TIP3    H123758   3.747   3.561   3.525  1.5939 -1.6459 -0.7116
  733TIP3    H223759   3.808   3.642   3.413  0.2149 -1.1851 -1.1587
  734TIP3   OH223760   2.797   0.484   2.680  0.2767 -0.1806 -0.0112
  734TIP3    H123761   2.779   0.512   2.770 -0.9500 -0.3697 -0.1737
  734TIP3    H223762   2.892   0.484   2.673  0.3704  0.6691  1.0264
  735TIP3   OH223763   3.336   6.140   3.280 -0.0666 -0.2200  0.7482
  735TIP3    H123764   3.383   6.188   3.211 -1.4890  0.6057  0.3169
  735TIP3    H223765   3.398   6.073   3.309  0.1208 -1.4763 -2.2448
  736TIP3   OH223766   4.718   5.269   3.040 -0.3233 -0.4911  0.0956
  736TIP3    H123767   4.688   5.281   2.950  0.6610 -0.5098 -0.2469
  736TIP3    H223768   4.765   5.350   3.060  0.2889 -0.8842  0.2546
  737TIP3   OH223769   4.198   1.513   1.187  0.3834  0.0674 -0.1974
  737TIP3    H123770   4.148   1.545   1.112 -2.1684 -0.4635  1.1425
  737TIP3    H223771   4.154   1.432   1.212  2.3621 -0.7702  0.7268
  738TIP3   OH223772   5.233   0.452   3.910 -0.0901  0.0788 -0.5487
  738TIP3    H123773   5.254   0.472   4.001 -2.2428 -0.2445  0.0710
  738TIP3    H223774   5.192   0.365   3.914  1.2542 -0.6762 -2.0596
  739TIP3   OH223775   0.410   5.971   3.701  0.4148 -0.2477 -0.0321
  739TIP3    H123776   0.446   6.058   3.685  1.6100 -0.7297 -0.0732
  739TIP3    H223777   0.485   5.912   3.693  0.1882 -1.0221  2.5861
  740TIP3   OH223778   6.184   4.954   0.187  0.0219 -0.5869 -0.1982
  740TIP3    H123779   6.258   4.927   0.242  0.1113  1.0031  0.5255
  740TIP3    H223780   6.208   4.927   0.099  1.5702  0.0899 -0.0058
  741TIP3   OH223781   4.673   0.389   2.792 -0.4500  0.6997 -0.1853
  741TIP3    H123782   4.700   0.461   2.735  0.7278  1.9319  1.7911
  741TIP3    H223783   4.701   0.417   2.880 -1.6914 -1.3270  0.9280
  742TIP3   OH223784   3.745   2.498   1.448 -0.1715 -0.7936  0.3381
  742TIP3    H123785   3.803   2.573   1.450 -0.1583 -0.8031  0.3171
  742TIP3    H223786   3.743   2.465   1.538  1.2079 -1.8352  0.0140
  743TIP3   OH223787   6.809   2.238   0.380  0.4954  0.1261 -0.0122
  743TIP3    H123788   6.860   2.228   0.460  0.2969  0.9459  0.2308
  743TIP3    H223789   6.804   2.150   0.343  0.7791 -0.2207  0.7593
  744TIP3   OH223790   1.270   6.385   1.366 -0.1484 -0.8082 -0.2958
  744TIP3    H123791   1.248   6.377   1.273  1.6584  0.9998 -0.9457
  744TIP3    H223792   1.351   6.437   1.368 -0.6733  0.0865  2.3401
  745TIP3   OH223793   5.960   4.019   4.475  0.0375 -0.0279  0.0180
  745TIP3    H123794   5.870   4.047   4.490  0.1180 -0.4926  1.6419
  745TIP3    H223795   6.010   4.100   4.465 -0.6933  0.2126 -1.9397
  746TIP3   OH223796   3.043   5.202   8.369 -0.5285  0.4568  0.2388
  746TIP3    H123797   2.988   5.231   8.296 -1.0263  0.1247  0.4718
  746TIP3    H223798   3.051   5.279   8.425 -1.7762  0.1973  0.8172
  747TIP3   OH223799   2.975   2.948   2.809 -0.5609 -0.0889  0.4257
  747TIP3    H123800   3.016   2.868   2.842 -2.6337 -1.5344 -0.2517
  747TIP3    H223801   3.021   2.967   2.727 -0.4169 -0.9208  0.3091
  748TIP3   OH223802   6.442   6.460   2.726 -0.2638 -0.2569  0.2697
  748TIP3    H123803   6.497   6.381   2.721  1.9577  1.1839  0.4124
  748TIP3    H223804   6.404   6.467   2.638  3.1466  0.8442 -1.3312
  749TIP3   OH223805   6.851   2.060   4.016  0.6938  0.2570 -0.1398
  749TIP3    H123806   6.930   2.088   3.969  0.4674 -0.0798 -0.7330
  749TIP3    H223807   6.779   2.100   3.967  0.3826 -1.0209 -0.7835
  750TIP3   OH223808   3.099   1.381   3.528 -0.0812  0.1005  0.0089
  750TIP3    H123809   3.182   1.333   3.516  0.7806  1.8114 -1.3211
  750TIP3    H223810   3.113   1.435   3.605 -0.7047 -1.0212  0.9376
  751TIP3   OH223811   6.606   2.410   0.268  0.1201  0.5829 -0.4169
  751TIP3    H123812   6.529   2.416   0.324 -0.5469  0.4822 -1.3208
  751TIP3    H223813   6.671   2.366   0.323 -1.0938 -1.1826 -0.3095
  752TIP3   OH223814   3.005   1.955   2.097 -0.0175 -0.2678  0.4549
  752TIP3    H123815   2.972   1.952   2.008 -1.1124  0.2482  0.8331
  752TIP3    H223816   3.037   2.045   2.109  2.1209 -0.8825 -0.0826
  753TIP3   OH223817   2.995   0.938   1.231  0.6040 -0.1367 -0.1668
  753TIP3    H123818   3.052   0.987   1.291 -2.0495  2.7246  0.2590
  753TIP3    H223819   2.934   0.892   1.288  1.8141 -2.4843 -0.6451
  754TIP3   OH223820   3.699   2.603   1.104 -1.1622  0.3428 -1.3041
  754TIP3    H123821   3.794   2.601   1.092 -1.0180 -0.0179 -0.2192
  754TIP3    H223822   3.669   2.673   1.047  0.0164  2.0167  0.0320
  755TIP3   OH223823   0.707   5.690   4.505  0.0701 -0.5265 -0.2734
  755TIP3    H123824   0.639   5.749   4.474  0.1595 -0.4779 -0.3754
  755TIP3    H223825   0.711   5.705   4.600 -0.0851 -0.5547 -0.2628
  756TIP3   OH223826   6.117   3.571   0.960 -0.2794  0.1693 -0.0417
  756TIP3    H123827   6.047   3.610   0.908 -0.0151 -0.0846 -0.5999
  756TIP3    H223828   6.097   3.477   0.961 -0.2318  0.1598  0.2399
  757TIP3   OH223829   5.934   2.164   1.285  0.3470  0.0201 -0.6730
  757TIP3    H123830   5.936   2.130   1.374  0.6776 -0.5042 -0.8765
  757TIP3    H223831   6.024   2.191   1.267  0.0746  1.1168 -0.4800
  758TIP3   OH223832   1.112   0.035   1.293 -0.0145  0.2470  0.2893
  758TIP3    H123833   1.037   0.094   1.285 -0.1485  0.2487  1.4164
  758TIP3    H223834   1.180   0.088   1.335  0.5097  0.1449 -0.4156
  759TIP3   OH223835   2.985   4.654   1.783  0.4062 -0.0820 -0.4425
  759TIP3    H123836   3.013   4.572   1.742  0.1123 -0.0553 -0.7029
  759TIP3    H223837   2.910   4.630   1.837 -0.6417  0.2441 -1.6795
  760TIP3   OH223838   5.204   3.920   2.111 -0.0198  0.8087 -0.6031
  760TIP3    H123839   5.281   3.879   2.071 -0.8863 -2.1310  0.4810
  760TIP3    H223840   5.239   3.965   2.188  0.6722 -0.4835 -0.1234
  761TIP3   OH223841   0.874   5.913   4.597  0.4374 -0.7170  0.1299
  761TIP3    H123842   0.867   5.818   4.604 -1.0831 -0.6325  0.1071
  761TIP3    H223843   0.850   5.946   4.683 -0.1306 -0.3151 -0.1752
  762TIP3   OH223844   2.118   4.523   2.729 -0.0788  0.0407 -0.1392
  762TIP3    H123845   2.190   4.505   2.669 -0.7013  0.1301 -0.9269
  762TIP3    H223846   2.112   4.444   2.783  0.1742 -0.2336 -0.5071
  763TIP3   OH223847   3.511   4.782   0.147 -0.0812  0.7128  0.0485
  763TIP3    H123848   3.459   4.813   0.073  0.9894  1.8175 -0.2830
  763TIP3    H223849   3.448   4.743   0.207 -1.5037  3.2199  0.3042
  764TIP3   OH223850   6.024   6.621   3.896 -0.2409 -0.1029 -0.4131
  764TIP3    H123851   6.089   6.635   3.964 -0.2551  1.8994 -0.7684
  764TIP3    H223852   5.949   6.582   3.942  0.7636 -1.4080  0.1775
  765TIP3   OH223853   5.333   3.911   2.548  0.3232 -0.3023 -0.9148
  765TIP3    H123854   5.289   3.957   2.619  0.6001 -1.4242  0.0297
  765TIP3    H223855   5.269   3.908   2.477 -0.1655  0.3501 -0.5091
  766TIP3   OH223856   5.339   4.260   3.244 -0.7100  0.5352 -0.2998
  766TIP3    H123857   5.398   4.209   3.300  0.1079  0.6623 -1.0273
  766TIP3    H223858   5.279   4.301   3.305 -0.4609 -0.1232  0.4134
  767TIP3   OH223859   1.760   6.426   0.591  0.0706  0.0844 -0.0668
  767TIP3    H123860   1.823   6.495   0.612  0.7241 -0.9217  1.5091
  767TIP3    H223861   1.807   6.369   0.530  0.7451 -0.6443  1.0780
  768TIP3   OH223862   5.122   1.754   3.993 -0.0358  0.2778 -0.1818
  768TIP3    H123863   5.148   1.787   4.078 -0.6912 -1.5719  0.8093
  768TIP3    H223864   5.200   1.709   3.960 -0.4135 -0.9094  0.4842
  769TIP3   OH223865   5.247   0.906   3.664  0.4877  0.5527  0.1197
  769TIP3    H123866   5.227   0.895   3.757  1.4552 -0.5392  0.2242
  769TIP3    H223867   5.161   0.914   3.622  0.0508  1.3872  1.1333
  770TIP3   OH223868   0.333   5.513   4.048  0.1742 -0.1183 -0.3455
  770TIP3    H123869   0.244   5.505   4.083  0.4714 -0.2376  0.3856
  770TIP3    H223870   0.363   5.599   4.077 -0.3999  0.7799 -2.2306
  771TIP3   OH223871   4.939   6.219   0.822 -0.1308  0.0733  0.0964
  771TIP3    H123872   5.032   6.211   0.845 -0.0291 -3.4192 -0.9867
  771TIP3    H223873   4.940   6.241   0.728 -0.4972  2.1908  0.5325
  772TIP3   OH223874   2.038   4.311   2.456  0.1507  0.7751 -0.1769
  772TIP3    H123875   2.070   4.389   2.411  2.6079 -0.3608 -0.5568
  772TIP3    H223876   2.111   4.249   2.452 -1.1831 -1.0258  1.4093
  773TIP3   OH223877   1.528   3.981   2.863 -0.1754 -0.1757  0.1167
  773TIP3    H123878   1.601   3.976   2.925  0.9902 -0.0885 -1.1872
  773TIP3    H223879   1.518   4.074   2.845 -0.5064 -0.2003  0.1780
  774TIP3   OH223880   3.137   5.021   0.574  0.3789 -0.2542  0.2290
  774TIP3    H123881   3.192   5.093   0.604  0.4105 -0.2855  0.2468
  774TIP3    H223882   3.102   4.982   0.653 -0.2384  0.2059  0.1932
  775TIP3   OH223883   4.040   4.066   1.081  0.3176 -0.6595  0.0389
  775TIP3    H123884   4.010   4.111   1.003 -0.6275  0.1927  0.8652
  775TIP3    H223885   4.014   3.975   1.068 -0.1512 -0.4569 -0.4697
  776TIP3   OH223886   5.828   6.621   3.416  0.2840 -0.7875 -0.1245
  776TIP3    H123887   5.831   6.658   3.328  1.5240  0.0673  0.2452
  776TIP3    H223888   5.900   6.664   3.463 -0.3417 -1.2189  1.3080
  777TIP3   OH223889   5.868   1.942   3.692 -0.4365 -0.2132  0.0710
  777TIP3    H123890   5.862   1.987   3.775  0.5014 -1.3841  0.8087
  777TIP3    H223891   5.951   1.971   3.654  0.0047 -1.0050  0.3920
  778TIP3   OH223892   2.517   3.957   0.758  0.3134 -0.2738 -0.0604
  778TIP3    H123893   2.496   3.916   0.841  0.9870 -0.7230 -0.1043
  778TIP3    H223894   2.544   3.885   0.701  2.0153  0.2490  0.0240
  779TIP3   OH223895   2.172   0.713   3.404 -0.4259  0.1046 -0.0759
  779TIP3    H123896   2.245   0.677   3.455  0.6258  1.0310 -0.8738
  779TIP3    H223897   2.131   0.777   3.463  0.3238  0.6378 -0.1188
  780TIP3   OH223898   2.775   1.751   3.130  0.0423 -0.0056  0.7530
  780TIP3    H123899   2.839   1.684   3.104 -0.1620  0.4388 -1.0342
  780TIP3    H223900   2.707   1.746   3.063  0.4502  2.5721  0.0606
  781TIP3   OH223901   1.470   3.100   2.201 -0.0715  0.1732  0.4255
  781TIP3    H123902   1.456   3.188   2.236 -1.5379  0.8541 -1.7308
  781TIP3    H223903   1.390   3.052   2.223 -1.5877  0.9652 -2.7713
  782TIP3   OH223904   6.930   0.376   1.224  0.0792 -0.1912  0.4884
  782TIP3    H123905   7.005   0.328   1.188  1.0919  0.7320  1.3029
  782TIP3    H223906   6.897   0.427   1.150  0.3110 -0.5281  0.1481
  783TIP3   OH223907   3.062   5.394   0.902  0.3040 -0.9338  0.6603
  783TIP3    H123908   3.007   5.398   0.980  0.8230  0.7952  0.9774
  783TIP3    H223909   3.005   5.359   0.834 -0.8313 -0.3564  1.2822
  784TIP3   OH223910   4.350   2.701   2.632  0.1911  0.3384  0.5146
  784TIP3    H123911   4.289   2.735   2.697 -0.8181 -2.0057  0.9026
  784TIP3    H223912   4.315   2.729   2.548 -0.7537  0.0378  0.8009
  785TIP3   OH223913   2.779   0.468   0.530  0.5914  0.0589  0.3564
  785TIP3    H123914   2.703   0.443   0.477  2.1077 -1.7705 -1.1036
  785TIP3    H223915   2.756   0.441   0.619  0.3043 -2.5733 -0.4143
  786TIP3   OH223916   0.626   6.849   4.120  0.3096  0.2850 -0.5724
  786TIP3    H123917   0.679   6.800   4.183 -1.5445 -1.5550 -0.2895
  786TIP3    H223918   0.668   6.934   4.113  0.5943  0.6505  3.2621
  787TIP3   OH223919   3.557   2.114   2.010  0.2702 -0.2536  0.7567
  787TIP3    H123920   3.466   2.116   2.038 -0.2024 -2.7973 -0.3131
  787TIP3    H223921   3.555   2.067   1.927  2.3760  1.2223 -0.2180
  788TIP3   OH223922   0.180   3.146   2.727  0.2539  0.3678  0.5245
  788TIP3    H123923   0.098   3.111   2.691  1.8915 -2.5675 -0.7713
  788TIP3    H223924   0.179   3.120   2.819 -0.9047  1.7651  0.9416
  789TIP3   OH223925   6.488   0.418   0.638  0.2574 -0.0777 -0.0951
  789TIP3    H123926   6.571   0.378   0.610  0.8241  1.2037 -0.3106
  789TIP3    H223927   6.478   0.494   0.581 -1.0496 -0.1709 -0.0213
  790TIP3   OH223928   3.170   5.349   2.438 -0.0240 -0.0159 -0.0807
  790TIP3    H123929   3.177   5.440   2.467  1.5129 -0.4289  0.9892
  790TIP3    H223930   3.236   5.341   2.369  0.7439 -0.6105  0.7033
  791TIP3   OH223931   1.740   0.574   2.048 -0.6627 -0.3280 -0.1768
  791TIP3    H123932   1.821   0.578   1.997 -0.5972 -0.0077 -0.0505
  791TIP3    H223933   1.703   0.662   2.040 -0.5802 -0.2357  0.4523
  792TIP3   OH223934   5.031   1.432   2.615  0.0722 -0.2872  0.1979
  792TIP3    H123935   5.084   1.512   2.607  0.4968 -0.5383  0.4613
  792TIP3    H223936   4.980   1.445   2.695  1.0158 -0.7754  0.9012
  793TIP3   OH223937   4.546   5.166   3.490 -0.3410  0.5981  0.3315
  793TIP3    H123938   4.500   5.082   3.490  0.8097 -0.0624 -0.1705
  793TIP3    H223939   4.628   5.148   3.444 -0.1680  2.0581  0.0235
  794TIP3   OH223940   6.152   3.692   2.546 -0.1694  0.3156  0.5310
  794TIP3    H123941   6.159   3.769   2.489 -1.2307 -0.3143 -0.5033
  794TIP3    H223942   6.232   3.693   2.597  0.6729  1.1053 -0.7351
  795TIP3   OH223943   4.565   5.637   3.874 -0.1831 -0.1357  0.5471
  795TIP3    H123944   4.573   5.648   3.779  1.6554 -1.1751  0.5279
  795TIP3    H223945   4.492   5.693   3.899  1.0500  2.4077 -1.1065
  796TIP3   OH223946   0.531   4.073   2.249 -0.4361  0.7835 -0.4543
  796TIP3    H123947   0.491   4.029   2.324 -0.5346  1.3866 -0.1431
  796TIP3    H223948   0.582   4.005   2.205 -0.4777  0.3947  0.0897
  797TIP3   OH223949   1.645   2.325   1.668 -0.1148 -0.2025 -0.3783
  797TIP3    H123950   1.701   2.362   1.736  0.3080  1.7562 -1.7155
  797TIP3    H223951   1.686   2.242   1.645  0.0694 -0.6091  1.2827
  798TIP3   OH223952   3.106   5.589   2.810 -0.3120  0.0651 -0.1001
  798TIP3    H123953   3.034   5.581   2.873  1.3445  1.1100  2.0689
  798TIP3    H223954   3.139   5.678   2.823  1.6426 -0.5130 -0.7026
  799TIP3   OH223955   5.678   5.158   3.907 -0.2266 -0.4698 -0.2017
  799TIP3    H123956   5.758   5.112   3.880  1.1368  0.9050  1.3050
  799TIP3    H223957   5.680   5.240   3.857 -0.8093 -0.4952 -0.2767
  800TIP3   OH223958   1.158   2.350   4.671  0.3599 -0.2927  0.8694
  800TIP3    H123959   1.149   2.441   4.699  1.1363 -0.0492  0.3637
  800TIP3    H223960   1.111   2.299   4.737  0.3681  0.4311  1.4402
  801TIP3   OH223961   2.852   2.012   4.180  0.3137  0.0265 -0.4835
  801TIP3    H123962   2.823   2.006   4.271  1.0935  0.3667 -0.2015
  801TIP3    H223963   2.902   1.931   4.166  0.7072  0.2586 -0.4189
  802TIP3   OH223964   0.438   3.015   1.960  0.3814 -0.1297  0.1056
  802TIP3    H123965   0.405   3.095   1.919 -2.0233 -0.2858  1.5828
  802TIP3    H223966   0.380   2.946   1.928  1.5589 -1.0885 -0.0407
  803TIP3   OH223967   3.562   4.540   1.456  0.4184  0.0328  0.1813
  803TIP3    H123968   3.576   4.601   1.528  0.8401 -0.7079  0.7495
  803TIP3    H223969   3.478   4.498   1.477  0.5461 -0.1892  0.2536
  804TIP3   OH223970   2.553   1.824   2.127 -0.6046  0.2338 -0.1005
  804TIP3    H123971   2.513   1.881   2.192  2.2785 -0.4952  2.5959
  804TIP3    H223972   2.598   1.883   2.067 -0.5728  0.8911  0.5568
  805TIP3   OH223973   6.663   0.217   0.519 -0.1427 -0.4627  0.6564
  805TIP3    H123974   6.591   0.157   0.536  0.0905 -1.2586 -0.9647
  805TIP3    H223975   6.716   0.173   0.453  0.2539  1.3651 -0.3194
  806TIP3   OH223976   6.565   3.208   0.662  0.7202  0.4982 -0.6963
  806TIP3    H123977   6.488   3.185   0.610  0.5589  1.3065 -0.8237
  806TIP3    H223978   6.623   3.253   0.600  1.3901 -0.2834 -0.6528
  807TIP3   OH223979   6.276   2.590   0.922  0.4152  0.1110  0.5601
  807TIP3    H123980   6.347   2.651   0.939  0.4950  1.1869 -2.8370
  807TIP3    H223981   6.199   2.630   0.963  1.2138  0.3223  1.8966
  808TIP3   OH223982   6.812   0.013   0.387  0.0002  0.2623 -0.0776
  808TIP3    H123983   6.833  -0.004   0.296 -1.1241 -1.3465 -0.0966
  808TIP3    H223984   6.826  -0.071   0.431  1.6042  1.2793  1.4828
  809TIP3   OH223985   2.993   2.560   2.284  0.0211 -0.2450  0.0723
  809TIP3    H123986   2.951   2.567   2.198 -0.1047  0.4459  0.1890
  809TIP3    H223987   3.030   2.646   2.300 -0.7343 -0.1003  1.1156
  810TIP3   OH223988   5.971   0.734   1.529 -0.1805 -0.0325 -0.1120
  810TIP3    H123989   5.909   0.784   1.475 -0.2893 -0.1521 -0.0977
  810TIP3    H223990   6.003   0.798   1.593 -0.8023 -0.1363  0.3146
  811TIP3   OH223991   6.615   1.802   2.258  0.1044 -0.3040  0.1030
  811TIP3    H123992   6.522   1.800   2.233  0.9522 -0.6602 -3.5773
  811TIP3    H223993   6.632   1.894   2.278 -1.0655 -0.3015  1.2682
  812TIP3   OH223994   3.586   5.986   2.994 -0.5294  0.1819  0.6709
  812TIP3    H123995   3.621   6.008   2.908 -0.1010  1.9021  1.2509
  812TIP3    H223996   3.645   5.917   3.026 -1.5845 -1.5931 -0.9676
  813TIP3   OH223997   3.273   5.617   1.885 -0.2997  0.0211 -0.5418
  813TIP3    H123998   3.339   5.668   1.931  1.0450 -2.1920  0.0797
  813TIP3    H223999   3.198   5.677   1.878  0.7609  1.6608  1.1832
  814TIP3   OH224000   5.320   2.134   2.170  0.2227  0.1943 -0.4058
  814TIP3    H124001   5.365   2.056   2.203 -0.6658  0.8349  2.5923
  814TIP3    H224002   5.370   2.208   2.205 -1.9380  0.9167  1.3234
  815TIP3   OH224003   6.271   3.593   0.257 -0.2223  0.5258  0.6440
  815TIP3    H124004   6.186   3.609   0.218  0.9521  1.5424 -1.7177
  815TIP3    H224005   6.296   3.506   0.225 -0.7551 -0.2406  2.1934
  816TIP3   OH224006   3.187   2.109   2.460 -0.0925 -0.0748 -0.4697
  816TIP3    H124007   3.270   2.140   2.422  0.3529  0.6057  0.9882
  816TIP3    H224008   3.124   2.179   2.441  0.9591  2.0927  3.0097
  817TIP3   OH224009   5.934   4.072   2.899 -0.4967 -0.1912  0.2382
  817TIP3    H124010   6.012   4.126   2.886  0.4444 -1.8178 -1.3074
  817TIP3    H224011   5.869   4.111   2.840  0.0763 -0.5336 -0.6367
  818TIP3   OH224012   3.877   5.718   1.061  0.0787 -0.2627  0.1420
  818TIP3    H124013   3.913   5.655   0.998 -0.2659 -1.0970  0.7561
  818TIP3    H224014   3.924   5.799   1.042  1.7225 -1.0983  0.3876
  819TIP3   OH224015   5.380   3.018   4.435 -0.0825 -0.1042  0.4308
  819TIP3    H124016   5.384   3.109   4.406  0.1024 -0.7604 -1.7596
  819TIP3    H224017   5.469   2.999   4.466 -0.4301  0.7739  2.1069
  820TIP3   OH224018   4.759   5.164   0.941  0.5773 -0.1191 -0.3071
  820TIP3    H124019   4.783   5.255   0.924  0.2530 -0.4743 -3.3187
  820TIP3    H224020   4.843   5.118   0.949  0.7569  0.5732  2.6612
  821TIP3   OH224021   0.820   1.237   3.455 -0.7554  0.0782  0.1937
  821TIP3    H124022   0.827   1.203   3.544 -0.1708  0.5371  0.3312
  821TIP3    H224023   0.893   1.196   3.408  1.1770  2.5362  0.8444
  822TIP3   OH224024   2.299   6.745   0.675 -0.0506  0.5622  0.1803
  822TIP3    H124025   2.230   6.812   0.680 -0.0197  0.5324  1.9084
  822TIP3    H224026   2.266   6.673   0.729  0.7728 -0.0051 -0.0569
  823TIP3   OH224027   5.106   2.734   2.295 -0.2499  0.1305  0.1100
  823TIP3    H124028   5.045   2.720   2.222  1.7341 -1.2691 -1.3860
  823TIP3    H224029   5.060   2.700   2.371 -2.2500  1.2884 -0.4860
  824TIP3   OH224030   4.658   4.993   1.826 -0.0727 -0.0825  0.0243
  824TIP3    H124031   4.579   4.962   1.870 -0.6023 -0.8370 -1.3869
  824TIP3    H224032   4.674   5.080   1.863 -0.8530 -0.4240  1.2017
  825TIP3   OH224033   1.150   4.079   4.592 -0.4244  0.5122  0.3916
  825TIP3    H124034   1.238   4.042   4.590 -0.1118  1.0813  1.9321
  825TIP3    H224035   1.092   4.005   4.575  0.3575  0.2865 -1.4825
  826TIP3   OH224036   0.906   5.577   1.190  0.2862  0.0701  0.7014
  826TIP3    H124037   0.924   5.559   1.098  0.6354  2.3284  0.2767
  826TIP3    H224038   0.860   5.661   1.190 -2.1741 -1.1625  2.4324
  827TIP3   OH224039   0.477   3.034   2.657  0.1223  0.6456 -0.5681
  827TIP3    H124040   0.403   2.975   2.643  1.6992 -0.9912 -2.9822
  827TIP3    H224041   0.451   3.115   2.615  0.0698 -0.3244 -2.5427
  828TIP3   OH224042   2.492   2.115   3.588  0.9717 -0.0635  0.1371
  828TIP3    H124043   2.459   2.030   3.615  0.4402 -0.0514 -0.4756
  828TIP3    H224044   2.587   2.108   3.597  0.8780 -0.4303  0.9102
  829TIP3   OH224045   3.325   2.529   2.572 -0.5819 -0.2645  0.0905
  829TIP3    H124046   3.380   2.559   2.500 -2.2960  1.3040 -0.6757
  829TIP3    H224047   3.365   2.566   2.650 -1.3416  2.2640 -0.6110
  830TIP3   OH224048   1.016   3.745   3.714 -0.6639  0.6309 -0.9232
  830TIP3    H124049   0.990   3.769   3.626 -2.1534 -0.8377 -0.9414
  830TIP3    H224050   0.940   3.768   3.769  0.6161  2.4792  0.1901
  831TIP3   OH224051   2.721   2.286   2.490  0.5814 -0.3490  0.3068
  831TIP3    H124052   2.729   2.197   2.524  2.4025 -0.6070 -0.6893
  831TIP3    H224053   2.808   2.308   2.459 -0.2797  1.0337 -1.3075
  832TIP3   OH224054   5.585   6.817   1.395 -0.3423 -0.0173 -0.5531
  832TIP3    H124055   5.632   6.776   1.323  2.4907  2.0793 -0.0548
  832TIP3    H224056   5.649   6.825   1.465 -2.1127  0.9042  1.0673
  833TIP3   OH224057   5.439   5.796   2.047  0.4887  0.9284  0.3584
  833TIP3    H124058   5.451   5.701   2.056 -0.9147  0.5126 -1.5907
  833TIP3    H224059   5.346   5.811   2.064  0.2064  1.5926 -1.4983
  834TIP3   OH224060   5.272   3.572   1.178  0.5950 -0.5026  0.1480
  834TIP3    H124061   5.244   3.594   1.089 -0.9440 -1.5495  0.3397
  834TIP3    H224062   5.279   3.476   1.178 -0.5924 -0.6132  1.4647
  835TIP3   OH224063   0.401   4.942   4.590  0.3755 -0.1732  0.0847
  835TIP3    H124064   0.430   4.951   4.499 -0.9641  0.2461 -0.3165
  835TIP3    H224065   0.313   4.904   4.584 -0.0484  0.5919  1.1654
  836TIP3   OH224066   1.796   4.486   1.994 -0.0627 -0.2233  0.1412
  836TIP3    H124067   1.790   4.391   2.001 -2.8063 -0.0706  0.8889
  836TIP3    H224068   1.794   4.518   2.084 -3.4693  0.6022 -0.0914
  837TIP3   OH224069   5.590   1.259   0.313 -0.4200 -0.2267 -0.7294
  837TIP3    H124070   5.517   1.225   0.260 -0.0631 -1.0446 -0.7130
  837TIP3    H224071   5.597   1.198   0.386 -1.7607  1.6055  1.0653
  838TIP3   OH224072   0.567   5.950   8.499 -0.3308  0.1683  0.1525
  838TIP3    H124073   0.600   5.870   8.539  0.2072  1.2944  2.1398
  838TIP3    H224074   0.483   5.966   8.542 -0.4617  0.6482 -0.2689
  839TIP3   OH224075   5.442   5.450   2.498 -0.2838 -0.1600  0.1137
  839TIP3    H124076   5.462   5.484   2.411  1.4903  1.1932  0.9777
  839TIP3    H224077   5.394   5.521   2.541 -0.0078 -0.2988  0.6575
  840TIP3   OH224078   5.795   2.184   1.972 -0.1886 -0.4993 -0.5215
  840TIP3    H124079   5.842   2.123   1.915  3.5114  1.0097  0.6150
  840TIP3    H224080   5.787   2.138   2.055 -1.3375 -0.9643 -0.8708
  841TIP3   OH224081   1.298   2.951   3.822  0.1153 -0.0643  0.0659
  841TIP3    H124082   1.257   2.929   3.905 -0.2295  1.5905  0.3598
  841TIP3    H224083   1.329   3.040   3.833 -0.0310  0.2264 -1.6108
  842TIP3   OH224084   1.366   5.796   2.028  0.6613 -0.3124  0.0938
  842TIP3    H124085   1.462   5.797   2.035  0.6699  1.3620  0.0962
  842TIP3    H224086   1.349   5.792   1.934  0.7486  0.6559  0.0339
  843TIP3   OH224087   0.617   4.392   1.649 -0.3121  0.5934 -0.1804
  843TIP3    H124088   0.609   4.382   1.744 -0.6727  0.4270 -0.2284
  843TIP3    H224089   0.531   4.368   1.615  0.4610 -1.6498 -0.7333
  844TIP3   OH224090   5.516   4.025   1.977  0.4311  0.1412 -0.1831
  844TIP3    H124091   5.493   4.036   2.069 -1.4693  1.1601 -0.7380
  844TIP3    H224092   5.611   4.011   1.978  0.7070  1.7051  1.8142
  845TIP3   OH224093   6.915   1.772   2.591  0.1400  0.2063 -0.4819
  845TIP3    H124094   6.976   1.709   2.630  0.1349  0.5207  0.0321
  845TIP3    H224095   6.845   1.717   2.554 -0.2614 -0.0523  0.6395
  846TIP3   OH224096   6.022   0.130   4.068 -0.2781  0.0758 -0.0604
  846TIP3    H124097   5.982   0.044   4.081  0.0365  0.3124  3.0210
  846TIP3    H224098   6.116   0.113   4.065 -0.2426  0.2587 -0.0208
  847TIP3   OH224099   3.167   5.897   3.506  0.5520  0.2149  0.1801
  847TIP3    H124100   3.133   5.898   3.595  0.0092  0.0821 -0.0226
  847TIP3    H224101   3.211   5.812   3.498  1.1527  0.4881  0.5210
  848TIP3   OH224102   0.471   6.444   2.079  0.3417  0.1974  0.1985
  848TIP3    H124103   0.537   6.483   2.137 -0.6404  1.0445  0.7801
  848TIP3    H224104   0.413   6.517   2.057  0.7489 -0.0740 -1.9755
  849TIP3   OH224105   3.541   3.049   1.755  0.0590  0.1397  0.1004
  849TIP3    H124106   3.612   3.110   1.772 -0.1260  0.9450 -1.7744
  849TIP3    H224107   3.461   3.099   1.771 -0.0874  0.2306 -0.8491
  850TIP3   OH224108   2.928   6.539   3.020 -0.2923 -0.3416 -0.7526
  850TIP3    H124109   2.988   6.609   3.047  1.0679 -2.0389  0.8811
  850TIP3    H224110   2.842   6.580   3.023  0.6144  1.8376 -1.9301
  851TIP3   OH224111   3.413   1.523   2.567  0.3009 -0.7559 -0.0978
  851TIP3    H124112   3.462   1.583   2.512  0.5799 -1.3586 -0.5211
  851TIP3    H224113   3.321   1.545   2.551  0.3176 -1.7685 -1.8239
  852TIP3   OH224114   0.956   2.776   0.883  1.0205 -0.5009  0.3457
  852TIP3    H124115   0.978   2.699   0.937  1.8501 -0.7682 -0.3508
  852TIP3    H224116   0.975   2.851   0.940  0.7118 -0.7983  0.8495
  853TIP3   OH224117   4.195   2.908   3.753  0.4946 -0.6579 -0.3988
  853TIP3    H124118   4.167   2.896   3.663  2.5890 -0.1367 -1.1780
  853TIP3    H224119   4.289   2.925   3.747  0.4762  0.5929  1.7875
  854TIP3   OH224120   1.184   5.339   1.638  0.3132  0.5636 -0.7492
  854TIP3    H124121   1.138   5.420   1.615 -2.5561 -0.4506  0.9446
  854TIP3    H224122   1.153   5.275   1.575 -2.4168 -0.6121  1.5584
  855TIP3   OH224123   5.294   4.887   3.320 -0.2244 -0.3930 -0.4209
  855TIP3    H124124   5.327   4.918   3.405 -2.9560 -1.1860  1.0511
  855TIP3    H224125   5.357   4.821   3.292  1.4360  0.8123  0.2896
  856TIP3   OH224126   6.325   4.398   2.379  0.6074  0.3131 -0.2651
  856TIP3    H124127   6.286   4.317   2.413 -0.8985  0.9987 -0.2693
  856TIP3    H224128   6.358   4.375   2.293 -1.6442  0.1412 -1.1438
  857TIP3   OH224129   3.226   2.818   0.987  0.1461 -0.2109  0.6427
  857TIP3    H124130   3.194   2.799   0.899 -0.6112  0.0763  0.8528
  857TIP3    H224131   3.276   2.900   0.977  1.3428 -0.9676  0.2064
  858TIP3   OH224132   4.425   4.360   1.331 -0.1775  0.0988  0.5471
  858TIP3    H124133   4.365   4.393   1.399  0.9656 -1.1348  2.2075
  858TIP3    H224134   4.378   4.286   1.292 -0.7579  0.6910  0.0904
  859TIP3   OH224135   4.177   6.581   3.881 -0.2657 -0.3641  0.3190
  859TIP3    H124136   4.204   6.553   3.968  1.0083  0.5612  0.2640
  859TIP3    H224137   4.212   6.670   3.873 -2.5612  0.5546 -0.1785
  860TIP3   OH224138   0.411   0.711   0.725 -0.3857  0.0477 -0.5385
  860TIP3    H124139   0.413   0.657   0.645  0.4600 -0.3157 -0.2746
  860TIP3    H224140   0.408   0.647   0.796 -1.2966  0.3728 -0.2659
  861TIP3   OH224141   2.970   0.058   1.299 -0.0511 -0.2459 -0.1288
  861TIP3    H124142   3.055   0.051   1.342 -0.1819 -0.8343  0.0447
  861TIP3    H224143   2.989   0.101   1.215  0.4063 -0.3001 -0.0547
  862TIP3   OH224144   2.891   4.289   8.434  0.6648  0.2459 -0.1540
  862TIP3    H124145   2.958   4.311   8.369  0.4640 -0.8737 -0.7671
  862TIP3    H224146   2.938   4.245   8.504  0.8583  1.3117  0.4014
  863TIP3   OH224147   1.080   1.156   3.358  0.0942  0.4376  0.1227
  863TIP3    H124148   1.141   1.227   3.376  0.7608  0.1930 -1.0739
  863TIP3    H224149   1.097   1.092   3.427 -0.9487  1.6577  1.6049
  864TIP3   OH224150   4.711   2.879   2.472 -0.3695 -0.0337 -0.3305
  864TIP3    H124151   4.664   2.806   2.431 -0.2050 -0.5294  0.3494
  864TIP3    H224152   4.726   2.850   2.562 -0.2432  0.8165 -0.0760
  865TIP3   OH224153   0.124   2.320   0.999  0.1349  0.1355  0.3240
  865TIP3    H124154   0.106   2.253   0.933  0.8504 -0.3818  0.6390
  865TIP3    H224155   0.187   2.379   0.958 -0.0401  0.2852  0.2637
  866TIP3   OH224156   1.749   4.048   0.659 -0.5286 -0.3785  0.1145
  866TIP3    H124157   1.843   4.048   0.673 -0.5288  0.3508  0.1563
  866TIP3    H224158   1.712   4.017   0.742 -0.2906 -1.6644 -0.2454
  867TIP3   OH224159   6.754   1.215   2.158 -0.3710 -0.6569  0.1684
  867TIP3    H124160   6.714   1.232   2.243 -0.2530 -2.2908  0.5696
  867TIP3    H224161   6.780   1.302   2.126 -1.1516  0.0572  1.4201
  868TIP3   OH224162   1.528   1.161   0.095 -0.3598  0.1037 -0.4226
  868TIP3    H124163   1.570   1.247   0.090  0.7211 -0.1735  2.3749
  868TIP3    H224164   1.601   1.098   0.091 -0.8254 -0.5336  0.7163
  869TIP3   OH224165   5.686   2.688   4.122 -0.1066  0.0087  0.1119
  869TIP3    H124166   5.771   2.706   4.162  0.0260  0.2993 -0.2965
  869TIP3    H224167   5.650   2.614   4.173 -0.2480  0.8119  1.2133
  870TIP3   OH224168   4.406   6.177   3.975  0.7804  0.0972  0.1908
  870TIP3    H124169   4.407   6.241   4.047 -0.3944 -0.9987  1.2436
  870TIP3    H224170   4.408   6.230   3.896  3.0079  1.3227  0.9885
  871TIP3   OH224171   0.389   4.571   1.998 -0.2947 -0.6414  0.2833
  871TIP3    H124172   0.424   4.626   2.069 -2.4465 -0.3469  1.2057
  871TIP3    H224173   0.394   4.482   2.032 -2.6391 -0.3857  1.5131
  872TIP3   OH224174   2.422   5.953   3.205  0.0282 -0.2491  0.4007
  872TIP3    H124175   2.447   5.987   3.291 -1.9004  1.0073  0.5255
  872TIP3    H224176   2.493   5.980   3.147  1.0193 -0.5061  1.4549
  873TIP3   OH224177   5.476   3.348   3.220  0.0573 -0.0419 -0.0850
  873TIP3    H124178   5.428   3.315   3.144  1.7788  0.6088 -1.5167
  873TIP3    H224179   5.567   3.326   3.202  0.5586  0.5101  1.6182
  874TIP3   OH224180   0.884   1.999   1.450  0.4505  0.2685 -0.3014
  874TIP3    H124181   0.945   1.990   1.377  1.2504  1.3772  0.2011
  874TIP3    H224182   0.805   2.037   1.412  0.1455 -0.9243 -0.9089
  875TIP3   OH224183   0.330   3.111   1.535  0.0043 -0.4044 -0.4451
  875TIP3    H124184   0.284   3.188   1.569  0.3208 -0.1157 -0.6710
  875TIP3    H224185   0.270   3.038   1.552  0.5931 -0.4437  1.7185
  876TIP3   OH224186   3.286   1.829   2.829  0.0939  0.1134  0.1036
  876TIP3    H124187   3.323   1.887   2.762 -0.5186  3.1494  2.2285
  876TIP3    H224188   3.359   1.811   2.888 -0.1672  0.3839  0.5157
  877TIP3   OH224189   1.038   4.886   3.027 -0.5562 -0.3498 -0.0639
  877TIP3    H124190   0.977   4.846   3.088 -2.3455  1.1929 -0.7290
  877TIP3    H224191   1.045   4.824   2.955 -1.0359 -0.7272  0.2093
  878TIP3   OH224192   1.034   4.654   1.536 -0.0268  0.2812 -0.1078
  878TIP3    H124193   1.020   4.634   1.629 -1.5131  0.7218 -0.2236
  878TIP3    H224194   0.995   4.581   1.489 -2.3864  1.6781 -0.4416
  879TIP3   OH224195   6.483   2.804   3.028 -1.5177 -0.0516 -0.2863
  879TIP3    H124196   6.559   2.751   3.003 -1.4065 -0.1438  0.2364
  879TIP3    H224197   6.517   2.893   3.035 -1.1821 -0.2672  1.1039
  880TIP3   OH224198   6.069   4.170   3.874  0.0349 -0.4802 -0.1553
  880TIP3    H124199   5.975   4.187   3.870 -0.5417 -0.8181  5.1739
  880TIP3    H224200   6.076   4.074   3.881  0.8856 -0.4953 -0.8968
  881TIP3   OH224201   3.132   6.337   0.579  0.0384  0.3454  0.0722
  881TIP3    H124202   3.111   6.307   0.667  0.3237  2.0696  0.7691
  881TIP3    H224203   3.061   6.397   0.556  0.8420  1.2554 -0.1453
  882TIP3   OH224204   0.351   0.321   2.982  0.8468  0.0579  0.4082
  882TIP3    H124205   0.294   0.245   2.964  1.0098  0.4256 -1.8979
  882TIP3    H224206   0.299   0.376   3.041 -0.0474 -0.9465  0.5918
  883TIP3   OH224207   1.677   3.648   0.235 -0.1226  0.3267  0.0510
  883TIP3    H124208   1.662   3.704   0.159 -0.8416 -0.1881 -0.1940
  883TIP3    H224209   1.706   3.565   0.199 -0.3228  0.1246  0.3548
  884TIP3   OH224210   1.238   4.393   3.622 -0.0337 -0.2518  0.0221
  884TIP3    H124211   1.303   4.331   3.588 -0.0815 -1.2405  1.6729
  884TIP3    H224212   1.285   4.477   3.624  0.5162 -0.5219 -0.7545
  885TIP3   OH224213   0.630   4.978   4.728 -0.0889 -0.2612  0.1112
  885TIP3    H124214   0.580   4.957   4.649 -0.0345 -1.2888  0.3321
  885TIP3    H224215   0.693   5.044   4.700 -1.8722  1.4518 -0.0584
  886TIP3   OH224216   3.266   0.875   2.160 -0.2388 -0.0654  0.1312
  886TIP3    H124217   3.272   0.954   2.215  1.5586 -0.7967  1.0709
  886TIP3    H224218   3.297   0.904   2.074  1.6556  0.0093  0.7940
  887TIP3   OH224219   1.884   0.625   2.766  0.3115  0.0786 -0.0407
  887TIP3    H124220   1.891   0.539   2.807 -0.6034  0.1849  0.3621
  887TIP3    H224221   1.915   0.612   2.677  1.6549 -0.3146  0.4572
  888TIP3   OH224222   3.218   5.407   2.115 -0.1239 -0.5918  0.2804
  888TIP3    H124223   3.149   5.453   2.163 -0.1542 -0.6959  0.3381
  888TIP3    H224224   3.247   5.469   2.048 -0.1360 -0.4745  0.3838
  889TIP3   OH224225   3.925   6.421   0.969  0.0353 -0.4207  0.4714
  889TIP3    H124226   3.872   6.379   0.901  2.1964 -0.3578 -1.3527
  889TIP3    H224227   3.885   6.507   0.979 -0.6952 -0.6540 -0.2715
  890TIP3   OH224228   5.984   3.182   1.914 -0.0437 -0.0212 -0.0801
  890TIP3    H124229   5.928   3.172   1.836  0.0346  0.2601 -0.1729
  890TIP3    H224230   6.067   3.214   1.879  0.5328 -1.4185 -0.0653
  891TIP3   OH224231   0.720   4.906   3.861 -0.5328 -0.2138 -0.6214
  891TIP3    H124232   0.672   4.858   3.793 -1.3266 -0.5112  0.1351
  891TIP3    H224233   0.809   4.872   3.856 -0.6308 -0.3775 -1.3767
  892TIP3   OH224234   4.142   4.475   1.432 -0.0274  0.5998  0.0728
  892TIP3    H124235   4.106   4.560   1.455  1.2047  0.9964  0.6146
  892TIP3    H224236   4.139   4.425   1.514  5.5737  2.4364  1.8145
  893TIP3   OH224237   1.318   0.316   2.973 -0.0321  0.0762  0.7770
  893TIP3    H124238   1.316   0.295   2.880 -3.2421  0.2484  0.7126
  893TIP3    H224239   1.338   0.233   3.016  0.4138 -0.2368 -0.0138
  894TIP3   OH224240   0.156   0.988   1.150 -0.2862  0.0418 -0.5975
  894TIP3    H124241   0.220   0.970   1.219 -0.6482  0.4079 -0.1505
  894TIP3    H224242   0.208   1.000   1.071  0.3993  2.1420  0.0826
  895TIP3   OH224243   3.908   2.778   1.101 -0.7531  0.1152  0.3144
  895TIP3    H124244   4.000   2.803   1.092 -0.5529 -0.4006  0.8546
  895TIP3    H224245   3.859   2.859   1.083 -0.3376 -0.2002 -2.7655
  896TIP3   OH224246   5.153   3.923   0.388  0.6681  0.1243 -0.0658
  896TIP3    H124247   5.192   3.919   0.300 -2.9173 -2.7389 -1.8310
  896TIP3    H224248   5.089   3.994   0.382  0.2793 -0.2073  0.1452
  897TIP3   OH224249   6.617   5.741   3.021  0.6992 -0.1647  0.0058
  897TIP3    H124250   6.697   5.787   2.998 -0.5949  1.3437 -1.7237
  897TIP3    H224251   6.647   5.658   3.059  3.0762 -0.1289 -1.5882
  898TIP3   OH224252   2.214   4.094   4.279 -0.4141  0.3377 -0.5670
  898TIP3    H124253   2.246   4.053   4.360  0.4739  0.9160 -0.6137
  898TIP3    H224254   2.155   4.028   4.241 -0.2307 -0.2586  0.1470
  899TIP3   OH224255   2.719   6.596   0.932 -0.6995 -0.1105  0.0179
  899TIP3    H124256   2.777   6.540   0.983 -1.4590 -1.8365 -0.9216
  899TIP3    H224257   2.640   6.606   0.987 -0.1862  0.9340  0.6135
  900TIP3   OH224258   1.079   0.935   3.535 -0.3113  0.5518 -0.0649
  900TIP3    H124259   1.093   0.953   3.628 -1.6126  2.3942 -0.1737
  900TIP3    H224260   0.997   0.885   3.532  0.4633 -0.7548 -0.1557
  901TIP3   OH224261   3.887   2.599   2.865 -0.8873  0.7646 -0.3924
  901TIP3    H124262   3.974   2.629   2.841 -0.3659 -1.1329 -1.0411
  901TIP3    H224263   3.855   2.665   2.927  0.4590  2.1763 -1.1206
  902TIP3   OH224264   3.997   3.277   2.726 -0.3605 -0.1143 -0.4506
  902TIP3    H124265   4.076   3.223   2.726  0.0061  0.3743  1.1370
  902TIP3    H224266   3.990   3.308   2.636  0.4781 -1.2706 -0.9455
  903TIP3   OH224267   1.774   3.813   2.322  0.1166  0.3777 -0.1824
  903TIP3    H124268   1.807   3.868   2.252  2.0951 -0.8053 -0.2646
  903TIP3    H224269   1.847   3.755   2.344 -1.1807 -0.8124  1.3062
  904TIP3   OH224270   4.037   5.759   3.389  0.2831 -0.2766  0.3488
  904TIP3    H124271   4.111   5.749   3.328  0.8151 -0.8133  1.0554
  904TIP3    H224272   3.965   5.714   3.346  1.1989 -2.4933  0.9980
  905TIP3   OH224273   2.604   3.224   2.939 -0.8061  0.7768  0.3774
  905TIP3    H124274   2.684   3.276   2.937  0.2611 -0.7530  1.2465
  905TIP3    H224275   2.534   3.289   2.947  0.3556  2.1329  0.0028
  906TIP3   OH224276   0.651   6.018   2.018 -0.0916  0.4901 -0.5143
  906TIP3    H124277   0.592   6.081   2.059 -0.0554  0.5328 -0.5277
  906TIP3    H224278   0.716   6.072   1.974 -1.2547  0.4995 -2.3232
  907TIP3   OH224279   6.321   4.019   4.646  0.4934 -0.0367  0.6567
  907TIP3    H124280   6.248   4.079   4.635  0.0901 -0.4483  1.0555
  907TIP3    H224281   6.377   4.034   4.569 -0.0073  0.2834  0.3557
  908TIP3   OH224282   4.880   0.384   1.659 -0.0252 -0.3332  0.6602
  908TIP3    H124283   4.821   0.311   1.675 -0.0449 -0.8218 -1.4098
  908TIP3    H224284   4.967   0.349   1.677 -0.0969 -0.6516  0.3933
  909TIP3   OH224285   1.757   0.497   2.361  0.1222  0.2791 -0.4596
  909TIP3    H124286   1.786   0.426   2.420 -0.0644  1.6519  1.3746
  909TIP3    H224287   1.792   0.472   2.275  2.7128 -0.5375  0.7131
  910TIP3   OH224288   2.380   2.597   3.727 -0.5467  0.4725  0.0321
  910TIP3    H124289   2.422   2.563   3.648  0.9006 -0.8777  1.3049
  910TIP3    H224290   2.333   2.522   3.764 -0.5206  0.8583  0.8789
  911TIP3   OH224291   6.022   3.804   2.956 -0.1822  0.5428 -0.2108
  911TIP3    H124292   6.001   3.710   2.950  0.1350  0.4781 -0.3338
  911TIP3    H224293   5.944   3.848   2.922 -0.8765  0.3689  1.1069
  912TIP3   OH224294   6.421   0.373   1.693 -0.6113  0.5060 -0.0597
  912TIP3    H124295   6.510   0.359   1.661 -0.7410 -0.3470 -0.0662
  912TIP3    H224296   6.432   0.411   1.780 -0.2102 -1.1779  0.6613
  913TIP3   OH224297   5.365   0.268   0.521 -0.0862 -0.2362 -0.1247
  913TIP3    H124298   5.432   0.314   0.472 -0.0902 -0.1099 -0.0120
  913TIP3    H224299   5.321   0.336   0.571  0.9536 -0.5546  1.2872
  914TIP3   OH224300   1.127   1.436   3.509 -0.0449  0.2724 -0.2442
  914TIP3    H124301   1.110   1.397   3.594 -0.3017  1.2599  0.1731
  914TIP3    H224302   1.219   1.463   3.512  0.2512 -0.6565 -0.6861
  915TIP3   OH224303   5.779   4.337   2.314  0.2184  0.2128  0.4362
  915TIP3    H124304   5.836   4.386   2.373  1.8636 -1.8658  0.6872
  915TIP3    H224305   5.700   4.391   2.307 -0.0408  0.6417  4.3857
  916TIP3   OH224306   4.406   4.406   3.543 -0.0310  0.0368 -0.2626
  916TIP3    H124307   4.499   4.424   3.528 -0.4715  0.8242 -2.3917
  916TIP3    H224308   4.395   4.313   3.521  0.2998 -0.1541  0.3546
  917TIP3   OH224309   4.374   1.982   3.345  0.2372 -0.0912 -0.2689
  917TIP3    H124310   4.313   1.976   3.272  0.5943 -0.1551 -0.5676
  917TIP3    H224311   4.459   1.959   3.307  0.4865  0.2265  0.0870
  918TIP3   OH224312   1.730   4.835   1.347  0.1383 -0.0162  0.1789
  918TIP3    H124313   1.818   4.833   1.384 -0.7298 -0.1692  2.4107
  918TIP3    H224314   1.717   4.927   1.321  0.2496  0.4792  1.7686
  919TIP3   OH224315   4.894   1.329   0.818 -0.4707 -0.5326 -0.1307
  919TIP3    H124316   4.984   1.321   0.788  0.0232  0.0858  1.1312
  919TIP3    H224317   4.852   1.388   0.754  0.2977 -0.0026 -0.1552
  920TIP3   OH224318   6.001   2.600   3.385 -0.0459 -0.0531  0.2183
  920TIP3    H124319   5.929   2.537   3.378 -0.2142  0.1079  0.4490
  920TIP3    H224320   5.974   2.673   3.329 -1.2129  1.0671  2.1074
  921TIP3   OH224321   2.391   5.253   3.548 -0.0606 -0.8307 -0.2551
  921TIP3    H124322   2.301   5.237   3.577  0.9019 -1.0189  2.9252
  921TIP3    H224323   2.403   5.347   3.555  0.9572 -1.0919  2.8158
  922TIP3   OH224324   5.261   2.339   3.749  0.0161  0.3756 -0.5124
  922TIP3    H124325   5.322   2.269   3.772 -0.8328  0.6499  3.2741
  922TIP3    H224326   5.316   2.407   3.710  1.4195 -0.9585 -0.9387
  923TIP3   OH224327   1.927   1.682   1.253 -0.1636  0.6353 -0.2034
  923TIP3    H124328   1.858   1.731   1.296  0.2456 -0.2552  1.5570
  923TIP3    H224329   1.929   1.598   1.298  3.8700  1.5452  1.8633
  924TIP3   OH224330   3.214   2.689   3.639 -0.3615 -0.0376 -0.1924
  924TIP3    H124331   3.279   2.727   3.698  0.6755 -2.3767  0.3109
  924TIP3    H224332   3.168   2.764   3.602  0.9446  1.6151  1.3443
  925TIP3   OH224333   4.616   2.345   1.467 -0.6445  0.5650 -0.8435
  925TIP3    H124334   4.656   2.308   1.388 -0.8516 -1.3214 -0.1023
  925TIP3    H224335   4.575   2.271   1.511  0.2740  1.3884  1.5545
  926TIP3   OH224336   3.395   4.820   2.818 -0.1598  0.4917  0.4596
  926TIP3    H124337   3.363   4.846   2.732  0.6277  2.0115  0.5838
  926TIP3    H224338   3.356   4.884   2.878 -0.9757 -0.7517  1.2972
  927TIP3   OH224339   5.475   1.459   2.215 -0.0147 -0.1574 -0.1279
  927TIP3    H124340   5.465   1.553   2.199  0.3686  0.1915  1.5425
  927TIP3    H224341   5.395   1.420   2.180  0.8338  0.4585 -3.0258
  928TIP3   OH224342   2.322   6.746   3.372 -0.4570  0.6462  0.3569
  928TIP3    H124343   2.350   6.775   3.285 -1.4818  1.3548  0.2514
  928TIP3    H224344   2.404   6.730   3.418  0.1184  1.1768 -0.4397
  929TIP3   OH224345   2.159   0.858   2.578  0.3148 -0.0919  0.5004
  929TIP3    H124346   2.223   0.791   2.603 -0.0417 -1.1886 -1.3174
  929TIP3    H224347   2.171   0.868   2.484 -0.7568  1.2502  0.4819
  930TIP3   OH224348   3.350   3.924   0.395  0.0064  0.0850 -0.2251
  930TIP3    H124349   3.315   3.883   0.474  0.8262 -2.1579 -0.9583
  930TIP3    H224350   3.445   3.917   0.405  0.2036  1.9036 -0.3891
  931TIP3   OH224351   6.305   2.655   2.160  0.1943 -0.0095  0.0193
  931TIP3    H124352   6.249   2.621   2.090 -0.4027 -0.7746  0.8473
  931TIP3    H224353   6.339   2.737   2.125  0.7642 -0.8664 -1.6003
  932TIP3   OH224354   4.260   0.096   3.541 -0.1719 -0.0274  0.1364
  932TIP3    H124355   4.308   0.178   3.546  0.4902 -0.3178 -1.0802
  932TIP3    H224356   4.268   0.057   3.628 -0.3292  1.0915  0.6612
  933TIP3   OH224357   0.191   0.422   0.629 -0.0424 -0.0260 -0.4482
  933TIP3    H124358   0.216   0.397   0.540  0.7202 -0.9690  0.0288
  933TIP3    H224359   0.117   0.365   0.650 -0.0929  0.0593 -0.3923
  934TIP3   OH224360   3.126   4.505   3.243 -1.0001  0.1005  0.3049
  934TIP3    H124361   3.057   4.561   3.279 -1.5539  0.2982 -1.0140
  934TIP3    H224362   3.127   4.525   3.149  0.3466 -0.4537  0.1831
  935TIP3   OH224363   5.705   4.780   2.365 -0.0894 -0.0205 -0.1725
  935TIP3    H124364   5.728   4.837   2.439 -0.0264  0.0200 -0.2237
  935TIP3    H224365   5.622   4.740   2.391 -0.2875  0.3218 -0.2627
  936TIP3   OH224366   1.802   5.957   2.787  0.2191  0.1418  0.2370
  936TIP3    H124367   1.749   5.947   2.866 -0.9577  0.3689 -0.4899
  936TIP3    H224368   1.789   5.875   2.740 -1.5932  1.1420 -1.1412
  937TIP3   OH224369   4.574   2.828   3.220  0.2693 -0.4093  0.1296
  937TIP3    H124370   4.516   2.904   3.224  0.4284 -0.3317  1.0820
  937TIP3    H224371   4.516   2.753   3.232  0.5368 -0.2574  3.1745
  938TIP3   OH224372   4.689   6.632   4.261  0.5110  0.6591 -0.0490
  938TIP3    H124373   4.669   6.554   4.210 -1.2303 -1.4143  3.3845
  938TIP3    H224374   4.776   6.615   4.297 -0.7788 -1.1009  2.6204
  939TIP3   OH224375   2.799   0.943   3.525 -0.4238  0.2120  0.0301
  939TIP3    H124376   2.773   0.894   3.603 -0.9696  0.2326 -0.1303
  939TIP3    H224377   2.717   0.981   3.493 -0.4947 -1.1105 -1.4756
  940TIP3   OH224378   4.944   6.528   3.101  0.6894 -0.1788  0.6270
  940TIP3    H124379   4.949   6.563   3.190  0.0296  1.4313  0.0642
  940TIP3    H224380   4.972   6.600   3.045 -0.1750 -0.7195 -0.5503
  941TIP3   OH224381   1.133   1.484   2.680 -0.1404  0.1900 -0.7391
  941TIP3    H124382   1.180   1.561   2.647 -1.1057  0.6908 -0.9647
  941TIP3    H224383   1.114   1.505   2.772 -0.1109  0.0710 -0.7046
  942TIP3   OH224384   3.406   2.705   0.037  0.0791  0.2072  0.1283
  942TIP3    H124385   3.398   2.621   0.083 -1.5491  0.5483  0.5445
  942TIP3    H224386   3.322   2.716  -0.008  0.5088  1.3137 -0.4424
  943TIP3   OH224387   2.058   0.728   2.950  0.3021 -0.3374 -0.8115
  943TIP3    H124388   1.979   0.731   2.896  0.0391 -2.6060 -0.6447
  943TIP3    H224389   2.026   0.710   3.038  0.9349  0.0647 -0.4909
  944TIP3   OH224390   4.938   6.933   2.518  0.3441 -0.1385  0.6128
  944TIP3    H124391   4.881   6.969   2.450  0.7179  4.3992  2.4286
  944TIP3    H224392   5.025   6.966   2.496  0.6960  0.2989  2.5287
  945TIP3   OH224393   4.955   0.156   3.647 -0.7662 -1.0823  0.7406
  945TIP3    H124394   4.939   0.206   3.568  1.0502 -0.4802  0.7065
  945TIP3    H224395   4.921   0.211   3.718 -1.2303 -1.0467  0.4931
  946TIP3   OH224396   1.849   6.218   2.796 -0.2872  0.4413  0.8102
  946TIP3    H124397   1.868   6.249   2.885  1.2327 -0.6448  0.9060
  946TIP3    H224398   1.850   6.123   2.803 -0.4999  0.3412 -0.3171
  947TIP3   OH224399   4.068   4.405   0.072  0.0897  0.0027 -0.1254
  947TIP3    H124400   4.158   4.406   0.103 -0.3820 -0.3800  1.3207
  947TIP3    H224401   4.060   4.324   0.022 -0.0040 -1.0571  1.5389
  948TIP3   OH224402   0.973   5.519   0.925 -0.1896  0.0538 -0.4056
  948TIP3    H124403   1.044   5.546   0.867  0.3726 -0.4740  0.0230
  948TIP3    H224404   0.946   5.434   0.892 -1.4486  0.7597 -1.2936
  949TIP3   OH224405   6.620   4.876   3.237  0.2409 -0.2786 -0.5709
  949TIP3    H124406   6.696   4.873   3.179  1.6165 -0.8619  1.1998
  949TIP3    H224407   6.557   4.816   3.196  0.2604  0.9878 -2.6025
  950TIP3   OH224408   2.359   2.127   2.909  0.3211  0.2932  0.5134
  950TIP3    H124409   2.318   2.213   2.915  1.3159  0.7589  0.6861
  950TIP3    H224410   2.352   2.092   2.998  0.3709  0.4066  0.5625
  951TIP3   OH224411   5.298   2.728   0.709  0.0209  0.0994  0.2892
  951TIP3    H124412   5.215   2.732   0.662 -0.0083 -1.1256  0.2093
  951TIP3    H224413   5.273   2.735   0.801  0.0456  2.0672  0.2033
  952TIP3   OH224414   1.053   5.760   2.782 -0.4542  0.0476 -0.0735
  952TIP3    H124415   1.032   5.691   2.845 -0.6205 -0.4154 -0.6165
  952TIP3    H224416   1.127   5.806   2.820 -1.5912  0.8696  1.2598
  953TIP3   OH224417   3.364   1.101   8.493 -0.3949  0.5575  0.1380
  953TIP3    H124418   3.456   1.075   8.496 -0.8605 -1.2719 -0.4514
  953TIP3    H224419   3.363   1.181   8.440  1.0078  1.4982  1.4509
  954TIP3   OH224420   1.396   5.622   3.455 -0.0034  0.0668  0.2609
  954TIP3    H124421   1.419   5.563   3.527  1.4942 -0.1306 -0.3368
  954TIP3    H224422   1.375   5.563   3.382  2.6298  0.1859 -0.6847
  955TIP3   OH224423   6.903   3.753   1.182 -0.3158 -0.4502  0.1465
  955TIP3    H124424   6.860   3.829   1.143  0.2344 -0.6535 -0.8913
  955TIP3    H224425   6.996   3.777   1.187 -0.3998 -0.3575  1.5282
  956TIP3   OH224426   4.222   2.990   0.967  0.0429  0.0906  0.0868
  956TIP3    H124427   4.147   3.002   0.909 -1.6265  0.6459  2.2269
  956TIP3    H224428   4.297   3.019   0.915 -1.1474 -0.6038 -2.1813
  957TIP3   OH224429   6.240   4.691   1.698 -0.0567 -0.3177 -0.0242
  957TIP3    H124430   6.156   4.654   1.671  0.0616 -0.9841  0.4852
  957TIP3    H224431   6.221   4.738   1.779 -0.3627  1.4661 -1.0822
  958TIP3   OH224432   5.222   4.915   3.608 -0.4552  0.4808 -0.4052
  958TIP3    H124433   5.304   4.927   3.655  0.0766 -1.5139 -0.7312
  958TIP3    H224434   5.193   4.827   3.631 -1.0501  0.0785 -2.4378
  959TIP3   OH224435   2.970   3.758   0.413  0.7057 -0.4422 -0.3134
  959TIP3    H124436   2.922   3.840   0.425  0.4711 -0.3752 -1.6332
  959TIP3    H224437   2.918   3.708   0.350  1.4814 -1.1004 -0.4543
  960TIP3   OH224438   4.645   2.963   1.222  0.2689  0.5925 -0.4851
  960TIP3    H124439   4.631   2.869   1.224 -1.7141  0.8433  1.9263
  960TIP3    H224440   4.723   2.978   1.275  0.1522  0.3783 -0.2552
  961TIP3   OH224441   2.877   2.925   1.735 -0.1281 -0.2881  0.0984
  961TIP3    H124442   2.814   2.960   1.672  1.0571 -0.2755 -1.1275
  961TIP3    H224443   2.963   2.946   1.698  0.6447  0.4850  2.1579
  962TIP3   OH224444   0.959   1.698   3.471 -0.1867 -0.2930  0.5161
  962TIP3    H124445   0.950   1.714   3.565 -1.4150 -0.6382  0.4650
  962TIP3    H224446   0.999   1.611   3.465  0.6649  0.0682  0.7071
  963TIP3   OH224447   0.816   4.490   2.948  0.0737 -0.3750 -0.4628
  963TIP3    H124448   0.744   4.542   2.911 -0.0351 -1.0835 -1.3011
  963TIP3    H224449   0.777   4.444   3.022 -0.2227 -0.3749 -0.6141
  964TIP3   OH224450   4.701   6.006   0.016 -0.2685  0.0589  0.1213
  964TIP3    H124451   4.783   5.964   0.042 -0.3398 -0.0298  0.1997
  964TIP3    H224452   4.729   6.086  -0.030 -0.1517  0.4772  0.9049
  965TIP3   OH224453   6.553   0.811   1.574 -0.4233  0.0891  0.2935
  965TIP3    H124454   6.554   0.822   1.479 -0.3469 -0.6491  0.2088
  965TIP3    H224455   6.542   0.900   1.608  1.0296  0.5398 -0.3607
  966TIP3   OH224456   6.786   3.943   2.869 -0.7321 -0.4655  0.0011
  966TIP3    H124457   6.800   3.854   2.837  0.7400 -0.6283  1.0096
  966TIP3    H224458   6.729   3.983   2.803 -1.2817 -2.0772 -0.5658
  967TIP3   OH224459   4.367   3.504   2.301 -0.2728  0.3220  0.4256
  967TIP3    H124460   4.382   3.587   2.255 -1.9179 -0.4801 -1.7227
  967TIP3    H224461   4.293   3.523   2.359 -0.5237  0.4173  0.0789
  968TIP3   OH224462   2.676   3.784   3.765  0.0648 -0.0722  0.3132
  968TIP3    H124463   2.770   3.778   3.781 -0.0304 -2.6839  0.3912
  968TIP3    H224464   2.666   3.760   3.673 -0.1951  5.5878 -1.5209
  969TIP3   OH224465   0.408   5.726   3.491 -0.1279  0.4530  0.2903
  969TIP3    H124466   0.456   5.809   3.483  1.0024  0.2199  3.3259
  969TIP3    H224467   0.316   5.752   3.487  0.2030  1.5998 -0.5733
  970TIP3   OH224468   1.711   0.522   0.966  0.2047  0.3725  0.5711
  970TIP3    H124469   1.656   0.600   0.979  0.4137  0.5625  0.3231
  970TIP3    H224470   1.745   0.531   0.877  2.1391  1.2466  1.3315
  971TIP3   OH224471   1.669   3.603   3.966 -0.1971  0.6312 -0.4982
  971TIP3    H124472   1.749   3.602   3.914  0.3005 -0.7535  0.2459
  971TIP3    H224473   1.667   3.518   4.009 -1.9631  0.7202 -0.3163
  972TIP3   OH224474   2.148   3.903   1.143 -0.2543 -0.0122  0.2542
  972TIP3    H124475   2.091   3.957   1.197  0.1991  0.9501 -0.2053
  972TIP3    H224476   2.214   3.963   1.109  0.7160 -0.9904  0.3249
  973TIP3   OH224477   1.944   5.945   3.729  0.0380 -0.1507 -0.3957
  973TIP3    H124478   1.864   5.991   3.751  0.2767 -1.1698  3.1539
  973TIP3    H224479   1.990   6.004   3.669 -2.2147  1.5280 -0.5902
  974TIP3   OH224480   2.189   4.783   1.821 -1.0130 -0.0683 -0.3256
  974TIP3    H124481   2.141   4.861   1.794  1.2383  2.2475  1.7167
  974TIP3    H224482   2.245   4.762   1.746 -0.8076  1.0665 -0.5209
  975TIP3   OH224483   4.293   4.615   3.384  0.3065 -0.1770  0.1010
  975TIP3    H124484   4.325   4.573   3.464 -0.3164  0.7198  0.8485
  975TIP3    H224485   4.211   4.656   3.410  0.3606  0.5814 -0.8644
  976TIP3   OH224486   3.807   4.177   1.759  0.2001 -0.4948 -0.3014
  976TIP3    H124487   3.766   4.229   1.689  0.1777 -0.6491 -0.4037
  976TIP3    H224488   3.879   4.132   1.715 -1.3964 -2.6815 -0.8592
  977TIP3   OH224489   4.434   6.778   1.586  0.8572  0.6225 -0.1016
  977TIP3    H124490   4.526   6.771   1.610  0.4316  1.0462  1.8453
  977TIP3    H224491   4.434   6.821   1.500  2.4994 -1.2029 -1.0952
  978TIP3   OH224492   4.883   2.876   0.841 -0.0446 -0.2826 -0.5522
  978TIP3    H124493   4.940   2.858   0.767  0.8322 -0.5350  0.1744
  978TIP3    H224494   4.808   2.817   0.828 -0.7675  0.8952 -2.1429
  979TIP3   OH224495   5.963   5.851   4.340 -0.0824  0.2704  0.0960
  979TIP3    H124496   5.890   5.892   4.386 -0.4710 -0.3909  0.0797
  979TIP3    H224497   5.989   5.916   4.274 -0.6498  0.5175  0.1106
  980TIP3   OH224498   2.461   5.898   1.408  0.0163  0.5170 -0.2499
  980TIP3    H124499   2.372   5.930   1.418 -0.8570 -1.0538 -2.2401
  980TIP3    H224500   2.466   5.822   1.466  0.0046  0.5046 -0.2650
  981TIP3   OH224501   3.524   0.276   3.554  0.0541 -0.1005 -0.1878
  981TIP3    H124502   3.521   0.197   3.608  1.3554 -0.2876 -0.3564
  981TIP3    H224503   3.500   0.347   3.614 -0.8167 -0.5723  0.0377
  982TIP3   OH224504   3.923   6.534   3.839  0.4856 -0.4672  0.6818
  982TIP3    H124505   3.922   6.469   3.769  1.3079  0.4785 -0.2326
  982TIP3    H224506   4.010   6.574   3.834 -0.4868  1.7480  0.2186
  983TIP3   OH224507   0.967   5.595   1.598 -0.4293  0.0830  0.0984
  983TIP3    H124508   0.942   5.534   1.529 -0.7566  1.5161 -1.0990
  983TIP3    H224509   0.934   5.679   1.569  1.0364  1.0677  1.1207
  984TIP3   OH224510   6.262   4.352   4.808 -0.2926 -0.5338  0.5274
  984TIP3    H124511   6.236   4.427   4.754  0.5146  1.0415  2.2099
  984TIP3    H224512   6.204   4.281   4.781  0.1215  0.1211 -2.4348
  985TIP3   OH224513   4.110   4.328   0.460  1.1380  0.2055  0.1337
  985TIP3    H124514   4.145   4.240   0.472  1.7852  0.3764 -0.4611
  985TIP3    H224515   4.186   4.385   0.462  0.6924  0.7892  0.8109
  986TIP3   OH224516   3.855   5.071   4.729  0.5088 -0.3375 -0.1215
  986TIP3    H124517   3.935   5.090   4.778  1.0249  1.0958 -1.4435
  986TIP3    H224518   3.883   5.067   4.638 -0.6571 -1.5805 -0.4642
  987TIP3   OH224519   4.115   4.133   0.801 -0.7954  0.2148 -0.7864
  987TIP3    H124520   4.109   4.228   0.811 -0.2297  0.2542 -0.8166
  987TIP3    H224521   4.103   4.118   0.707  1.9362  0.5066 -1.2715
  988TIP3   OH224522   0.879   5.242   1.679  0.0777  0.0952  0.1833
  988TIP3    H124523   0.958   5.195   1.652 -0.0355  0.0883 -0.1341
  988TIP3    H224524   0.816   5.172   1.699 -0.0619  0.1115 -0.2024
  989TIP3   OH224525   5.303   0.068   3.137 -1.2976 -0.4257 -0.1053
  989TIP3    H124526   5.346   0.138   3.088  1.6038 -2.5713 -0.9289
  989TIP3    H224527   5.311   0.095   3.229 -0.2622  0.3706 -0.4060
  990TIP3   OH224528   5.065   1.349   0.152 -0.5619  0.3087  0.1392
  990TIP3    H124529   4.975   1.367   0.125  0.4854  1.1570 -3.2253
  990TIP3    H224530   5.117   1.417   0.109  2.0480 -2.1887 -0.9856
  991TIP3   OH224531   1.795   6.475   1.347  0.2386 -0.7533 -0.2644
  991TIP3    H124532   1.875   6.482   1.398 -0.6670  0.1448  1.0881
  991TIP3    H224533   1.740   6.414   1.395 -0.6559  0.1586 -0.0789
  992TIP3   OH224534   6.500   4.219   3.343 -0.2386  0.2632  0.4296
  992TIP3    H124535   6.553   4.231   3.422 -0.0264  0.5919  0.2409
  992TIP3    H224536   6.564   4.197   3.275 -0.5668 -1.6558  0.6769
  993TIP3   OH224537   4.842   3.153   0.192 -0.6860 -0.0460 -0.3909
  993TIP3    H124538   4.931   3.188   0.192  0.3784 -2.5051  0.3028
  993TIP3    H224539   4.829   3.123   0.101  0.3146 -2.0883  0.0734
  994TIP3   OH224540   3.801   3.419   0.261  0.1870 -0.1504  0.2212
  994TIP3    H124541   3.854   3.436   0.183  1.9762  0.0683  1.4202
  994TIP3    H224542   3.806   3.500   0.312 -0.9041 -0.3123  0.6175
  995TIP3   OH224543   4.274   5.347   3.471 -0.0471 -0.5031 -0.7496
  995TIP3    H124544   4.351   5.291   3.464 -1.1958 -2.1542 -0.8867
  995TIP3    H224545   4.284   5.410   3.400  1.9068  0.3127  0.1843
  996TIP3   OH224546   0.693   3.706   0.578  0.4291  0.0791 -0.0583
  996TIP3    H124547   0.613   3.735   0.536  1.4045  0.8424 -1.4634
  996TIP3    H224548   0.753   3.781   0.570  1.7421 -0.9606 -0.2886
  997TIP3   OH224549   3.442   5.143   2.567 -0.1031 -0.0050  0.4057
  997TIP3    H124550   3.415   5.057   2.533 -3.9811  0.0700  2.7947
  997TIP3    H224551   3.390   5.155   2.646  2.4684  3.3662  1.8272
  998TIP3   OH224552   5.760   0.646   1.136  0.4014  0.2358 -0.5155
  998TIP3    H124553   5.780   0.701   1.060 -2.1295 -0.2131 -1.6180
  998TIP3    H224554   5.741   0.560   1.098 -1.5688  0.1680  0.5041
  999TIP3   OH224555   5.508   3.791   3.545 -0.0810  0.1591  0.8474
  999TIP3    H124556   5.467   3.710   3.575 -0.1078 -1.2078 -2.4592
  999TIP3    H224557   5.601   3.769   3.537 -0.0633  0.5019  0.0599
 1000TIP3   OH224558   1.353   3.637   2.024 -0.2923 -0.3558  0.5188
 1000TIP3    H124559   1.279   3.594   2.068 -0.7151  0.3396  0.5129
 1000TIP3    H224560   1.408   3.668   2.096 -0.8330  0.5222  0.5745
 1001TIP3   OH224561   2.585   2.489   4.535  0.2722 -0.0595  0.5347
 1001TIP3    H124562   2.544   2.564   4.492  0.2461 -0.0049  0.6543
 1001TIP3    H224563   2.513   2.442   4.576  0.3766  0.2739  1.1102
 1002TIP3   OH224564   1.194   3.027   2.168 -0.2805 -0.3110 -0.0464
 1002TIP3    H124565   1.212   2.960   2.234 -0.3127 -0.7143 -0.4418
 1002TIP3    H224566   1.110   3.065   2.194 -0.9549 -1.3974 -0.6026
 1003TIP3   OH224567   6.165   2.272   1.601 -0.6134 -0.0948  0.2147
 1003TIP3    H124568   6.117   2.193   1.578  0.2286 -1.3686  2.5584
 1003TIP3    H224569   6.097   2.339   1.612 -1.2961 -0.2696 -2.2681
 1004TIP3   OH224570   4.689   4.327   3.812 -0.2927 -0.4902 -0.2490
 1004TIP3    H124571   4.701   4.262   3.743 -0.7973  1.4931 -2.3011
 1004TIP3    H224572   4.723   4.409   3.775 -1.9906  0.9840  1.2240
 1005TIP3   OH224573   0.796   1.760   1.552  0.0007 -0.3114  0.0219
 1005TIP3    H124574   0.709   1.738   1.585  0.7072 -2.5815  0.5475
 1005TIP3    H224575   0.796   1.855   1.545 -1.9955 -0.1493  1.4771
 1006TIP3   OH224576   6.791   2.203   3.204 -0.3966  0.0761 -0.2051
 1006TIP3    H124577   6.828   2.284   3.240  0.5139 -0.0579 -0.7882
 1006TIP3    H224578   6.746   2.163   3.277  0.6293  0.2664  0.5611
 1007TIP3   OH224579   5.207   4.208   1.856  0.0521 -0.4386 -0.0140
 1007TIP3    H124580   5.250   4.130   1.892 -0.7984 -1.2389 -0.6800
 1007TIP3    H224581   5.208   4.195   1.761  0.0827  0.4656 -0.1490
 1008TIP3   OH224582   1.570   4.560   3.922  0.3596  0.4623  0.2312
 1008TIP3    H124583   1.485   4.602   3.915  1.8233  3.6109 -0.7372
 1008TIP3    H224584   1.596   4.573   4.013 -0.1834 -0.5923  0.5538
 1009TIP3   OH224585   6.564   1.169   1.050 -0.7137  0.7706 -0.4300
 1009TIP3    H124586   6.601   1.204   0.969 -1.2871  0.2948 -0.9086
 1009TIP3    H224587   6.470   1.184   1.041 -0.9038 -0.3375 -0.3798
 1010TIP3   OH224588   4.373   1.647   2.637  0.0830  0.6493 -0.3553
 1010TIP3    H124589   4.443   1.613   2.582 -0.1727 -0.7597  0.1283
 1010TIP3    H224590   4.307   1.577   2.637 -0.6428  1.3115  0.4005
 1011TIP3   OH224591   1.043   2.545   0.219  0.1446  0.3469  0.4420
 1011TIP3    H124592   1.086   2.588   0.293  0.6967 -2.1772  1.6928
 1011TIP3    H224593   0.956   2.583   0.216 -0.0374  0.2040  2.7151
 1012TIP3   OH224594   5.822   6.411   2.152  0.4937  0.2572 -0.3742
 1012TIP3    H124595   5.732   6.388   2.129  0.4515 -0.4716  0.4484
 1012TIP3    H224596   5.814   6.497   2.193 -0.0933 -0.5333  1.2660
 1013TIP3   OH224597   0.797   1.137   2.237 -0.2442  0.2352 -0.2641
 1013TIP3    H124598   0.714   1.093   2.217 -1.2641  1.4368  1.1664
 1013TIP3    H224599   0.851   1.122   2.159 -2.2603  0.5144 -1.8045
 1014TIP3   OH224600   5.509   4.400   3.901 -0.1155  0.0800  0.5894
 1014TIP3    H124601   5.522   4.435   3.813  0.2231 -0.2929  0.4860
 1014TIP3    H224602   5.536   4.470   3.960  0.7189 -0.0545  0.3852
 1015TIP3   OH224603   3.691   4.702   3.049 -0.7486 -0.3897  0.2887
 1015TIP3    H124604   3.652   4.626   3.006 -0.6563 -0.6163  0.5954
 1015TIP3    H224605   3.778   4.672   3.078 -0.4025  0.0622 -0.2541
 1016TIP3   OH224606   2.071   5.084   0.602  0.7003 -0.3419  1.1614
 1016TIP3    H124607   2.010   5.158   0.606  0.6359 -0.4156  1.5670
 1016TIP3    H224608   2.082   5.068   0.508  0.2025 -0.2416  1.0811
 1017TIP3   OH224609   0.038   4.877   1.939 -0.0843  0.1274 -0.2755
 1017TIP3    H124610   0.115   4.933   1.941 -0.5497  0.8146 -1.0425
 1017TIP3    H224611   0.068   4.796   1.898  0.1371  0.5536 -0.9669
 1018TIP3   OH224612   2.353   4.794   2.868  0.1904  0.5449  0.9368
 1018TIP3    H124613   2.408   4.813   2.793  2.7193 -0.7197  2.3272
 1018TIP3    H224614   2.354   4.874   2.920 -0.0674  0.8392  0.4834
 1019TIP3   OH224615   1.508   5.842   3.283 -0.6541 -0.2981  0.3318
 1019TIP3    H124616   1.480   5.759   3.322 -0.4630 -0.0504  1.0205
 1019TIP3    H224617   1.476   5.909   3.344  0.0887  0.0676  0.3309
 1020TIP3   OH224618   0.086   1.111   2.203 -0.4107 -0.0469 -0.4819
 1020TIP3    H124619  -0.002   1.146   2.185 -0.5477  0.2546  0.6965
 1020TIP3    H224620   0.076   1.061   2.284  0.1604 -1.4311 -1.2258
 1021TIP3   OH224621   2.164   3.156   0.989 -0.3530 -0.0941  0.6056
 1021TIP3    H124622   2.174   3.251   0.995 -0.1340 -0.1195  0.6617
 1021TIP3    H224623   2.070   3.141   0.992 -0.4487  0.1994 -0.4371
 1022TIP3   OH224624   6.420   6.673   2.912  0.1832 -0.2882 -0.0449
 1022TIP3    H124625   6.422   6.606   2.843  0.2168  0.4770 -0.7978
 1022TIP3    H224626   6.403   6.755   2.866 -0.4961  0.1467  0.9364
 1023TIP3   OH224627   6.568   4.549   2.658 -0.4329  0.1820 -0.1143
 1023TIP3    H124628   6.502   4.609   2.693  1.2361  2.0101  0.0879
 1023TIP3    H224629   6.588   4.490   2.730 -0.2522  1.0546  0.5618
 1024TIP3   OH224630   5.538   4.501   3.401  0.3172  0.1145  0.2991
 1024TIP3    H124631   5.559   4.413   3.371 -0.3730  0.3916 -1.0771
 1024TIP3    H224632   5.464   4.490   3.461  0.3751 -0.2522  0.3050
 1025TIP3   OH224633   1.232   2.055   2.444 -0.1284  0.0403  0.0546
 1025TIP3    H124634   1.233   1.963   2.471  4.0840 -0.7549 -1.9223
 1025TIP3    H224635   1.214   2.052   2.350  1.9251  0.9465 -0.4242
 1026TIP3   OH224636   0.131   6.441   1.994 -0.1444  0.0955  0.0089
 1026TIP3    H124637   0.120   6.414   1.903  0.0655 -0.8424  0.2512
 1026TIP3    H224638   0.211   6.494   1.994 -0.7325  1.0124 -0.5277
 1027TIP3   OH224639   6.630   2.945   2.066  0.7330  0.3764  0.0245
 1027TIP3    H124640   6.679   3.026   2.055  1.1257  0.1519  0.0961
 1027TIP3    H224641   6.649   2.916   2.155  1.0000 -0.0537 -0.1650
 1028TIP3   OH224642   2.735   6.670   2.676  0.0487  0.0926 -0.3376
 1028TIP3    H124643   2.747   6.698   2.585 -0.6182  0.0568 -0.4411
 1028TIP3    H224644   2.816   6.624   2.698  0.0427 -0.2846 -1.0629
 1029TIP3   OH224645   0.034   5.097   3.324 -0.6151  0.8100  0.2675
 1029TIP3    H124646  -0.035   5.066   3.383 -0.8291 -0.1873 -0.4797
 1029TIP3    H224647  -0.008   5.101   3.238 -0.3067  2.2347  0.1485
 1030TIP3   OH224648   4.529   2.333   0.531  0.4081 -0.4204  0.4206
 1030TIP3    H124649   4.467   2.319   0.460  0.8415  0.4337 -0.1503
 1030TIP3    H224650   4.557   2.424   0.521  1.9992 -0.8783  0.4461
 1031TIP3   OH224651   5.667   0.878   0.199  0.0622  0.0679  0.3268
 1031TIP3    H124652   5.628   0.950   0.149 -1.9321 -0.1815  1.4351
 1031TIP3    H224653   5.618   0.800   0.172  0.7492 -0.5115  0.7166
 1032TIP3   OH224654   3.714   6.743   1.632  0.0368 -0.3265 -0.1987
 1032TIP3    H124655   3.696   6.708   1.719 -1.6593  0.8953 -0.0164
 1032TIP3    H224656   3.810   6.742   1.625  0.1346 -4.0527  0.1163
 1033TIP3   OH224657   4.732   5.074   0.551 -0.3393 -0.3092  0.0859
 1033TIP3    H124658   4.734   4.980   0.533 -0.4068 -0.1195 -1.0442
 1033TIP3    H224659   4.644   5.090   0.585 -0.4536 -0.6007 -0.0683
 1034TIP3   OH224660   2.055   4.305   2.917 -0.1251  0.5332 -0.3085
 1034TIP3    H124661   2.106   4.371   2.964 -0.9683 -0.6940  2.5263
 1034TIP3    H224662   2.075   4.223   2.962 -3.8800 -0.1369  0.4220
 1035TIP3   OH224663   5.478   0.291   3.020 -0.1726 -0.5810 -0.0355
 1035TIP3    H124664   5.491   0.289   2.925 -2.1500  0.2722 -0.3748
 1035TIP3    H224665   5.567   0.284   3.056  0.6697 -0.4537 -1.9344
 1036TIP3   OH224666   1.204   3.255   2.000 -0.0743 -0.2260 -0.0534
 1036TIP3    H124667   1.148   3.321   2.040 -1.5101 -0.6009 -1.3346
 1036TIP3    H224668   1.211   3.185   2.066  0.0456  0.4285  0.6403
 1037TIP3   OH224669   0.062   2.480   8.455 -0.3048 -0.0246 -0.1938
 1037TIP3    H124670  -0.005   2.422   8.491  0.4855  0.3329  2.0080
 1037TIP3    H224671   0.026   2.568   8.468  0.4875  0.1627  0.9007
 1038TIP3   OH224672   4.526   2.137   1.661  0.2510 -0.6700  0.1120
 1038TIP3    H124673   4.609   2.090   1.649  0.7895  0.6068 -1.4747
 1038TIP3    H224674   4.459   2.073   1.635  0.8467 -1.1639 -0.2519
 1039TIP3   OH224675   4.807   0.640   4.100 -0.4189  0.2697  0.6571
 1039TIP3    H124676   4.771   0.613   4.184  1.0580 -1.0583  0.9114
 1039TIP3    H224677   4.731   0.671   4.050 -1.5156 -0.1573  1.9971
 1040TIP3   OH224678   2.203   0.586   2.774 -0.0236 -0.4221  0.0853
 1040TIP3    H124679   2.169   0.497   2.782 -1.5095  0.0919 -0.1704
 1040TIP3    H224680   2.160   0.635   2.843  0.7689  0.1200  0.2156
 1041TIP3   OH224681   4.608   3.088   1.638  0.1160  0.7761  0.2929
 1041TIP3    H124682   4.691   3.040   1.639 -1.1831 -1.6440  1.7858
 1041TIP3    H224683   4.563   3.056   1.560 -1.8794 -2.8007  2.6597
 1042TIP3   OH224684   4.785   2.070   1.554  0.1873 -0.5882 -0.1915
 1042TIP3    H124685   4.812   1.983   1.581  0.1910 -0.4420  0.2848
 1042TIP3    H224686   4.807   2.074   1.461 -0.1113 -1.2065 -0.2922
 1043TIP3   OH224687   3.741   5.149   1.737  0.5597  0.4581  0.2183
 1043TIP3    H124688   3.768   5.096   1.662 -1.0297 -0.4546  0.2397
 1043TIP3    H224689   3.804   5.129   1.806  1.6129  0.7580 -0.6383
 1044TIP3   OH224690   1.194   4.031   3.336 -0.5456  0.2692  0.4730
 1044TIP3    H124691   1.106   4.053   3.307 -0.2920  1.0911  0.2777
 1044TIP3    H224692   1.241   4.008   3.256 -0.3077  0.8640  0.4335
 1045TIP3   OH224693   1.732   0.210   1.706 -0.4244 -0.2327 -0.2865
 1045TIP3    H124694   1.715   0.295   1.666  0.3126 -0.7927 -1.9232
 1045TIP3    H224695   1.660   0.154   1.675 -1.5315  0.0328  1.6924
 1046TIP3   OH224696   2.728   2.657   8.208  0.3619 -0.6205  0.5894
 1046TIP3    H124697   2.641   2.636   8.241 -0.0548  1.6468  1.0865
 1046TIP3    H224698   2.768   2.572   8.190 -2.1260 -1.7181 -0.1620
 1047TIP3   OH224699   3.216   6.105   1.739 -0.0584 -0.5105 -0.3887
 1047TIP3    H124700   3.191   6.180   1.685 -1.0547  0.2480  1.0660
 1047TIP3    H224701   3.309   6.119   1.757 -0.4158  0.9026  0.5787
 1048TIP3   OH224702   1.078   0.820   0.410  0.1770 -0.1631 -0.2257
 1048TIP3    H124703   0.986   0.843   0.421  0.6959  1.5572  0.8913
 1048TIP3    H224704   1.120   0.902   0.380  1.2204 -1.1278 -1.5600
 1049TIP3   OH224705   1.208   1.472   1.508  0.9503  0.1375 -0.5520
 1049TIP3    H124706   1.232   1.546   1.452  1.9419 -0.2461 -0.6413
 1049TIP3    H224707   1.159   1.413   1.450 -0.5256  1.0520 -0.2959
 1050TIP3   OH224708   3.566   4.366   0.351  0.3300  0.1657 -0.1082
 1050TIP3    H124709   3.492   4.350   0.293 -0.8465  2.1737  0.7135
 1050TIP3    H224710   3.639   4.386   0.293 -0.3889  0.4559 -0.9272
 1051TIP3   OH224711   5.741   6.283   0.902 -0.5515 -0.0532 -0.2662
 1051TIP3    H124712   5.660   6.314   0.942 -0.2381  0.4008  0.0290
 1051TIP3    H224713   5.756   6.197   0.940  1.1056  1.3628  2.6820
 1052TIP3   OH224714   0.461   6.677   2.751 -0.3867 -0.2572  0.0813
 1052TIP3    H124715   0.467   6.757   2.698  0.2693  0.5085  1.2607
 1052TIP3    H224716   0.551   6.662   2.782 -0.3831 -1.7978 -0.5726
 1053TIP3   OH224717   2.666   4.593   3.666 -0.1838 -0.3216 -0.4730
 1053TIP3    H124718   2.618   4.564   3.588  0.2017 -1.1086 -0.4286
 1053TIP3    H224719   2.691   4.512   3.710 -0.4172  0.1192  0.4898
 1054TIP3   OH224720   4.187   0.660   1.107  0.3893  0.4527  0.1816
 1054TIP3    H124721   4.225   0.734   1.154 -0.4107 -0.4720  2.4129
 1054TIP3    H224722   4.121   0.699   1.049 -0.0222  1.4981  1.3165
 1055TIP3   OH224723   3.468   3.378   3.643  0.2696  0.4925 -0.0553
 1055TIP3    H124724   3.549   3.423   3.671 -0.8983  1.9361  1.1986
 1055TIP3    H224725   3.464   3.300   3.698 -0.0402  1.3365  1.1837
 1056TIP3   OH224726   6.246   0.977   0.408 -0.1688 -0.1810  0.4143
 1056TIP3    H124727   6.181   0.906   0.404  1.3893 -1.6587 -1.8496
 1056TIP3    H224728   6.317   0.941   0.461 -0.1717  0.4561  0.8533
 1057TIP3   OH224729   0.594   4.778   4.984  0.1962 -0.4342  0.2832
 1057TIP3    H124730   0.647   4.722   4.928  0.3301  0.1219 -0.1589
 1057TIP3    H224731   0.506   4.772   4.948  0.4066  0.4496 -0.4268
 1058TIP3   OH224732   0.438   3.250   4.031 -0.0020  0.0314 -0.6064
 1058TIP3    H124733   0.429   3.298   4.113 -0.4506  1.8417 -1.6465
 1058TIP3    H224734   0.523   3.278   3.996  0.0898 -0.5526 -0.8689
 1059TIP3   OH224735   5.357   1.527   2.540  0.1585 -0.1334  0.0687
 1059TIP3    H124736   5.295   1.493   2.476  0.0742 -1.6735  0.9207
 1059TIP3    H224737   5.308   1.531   2.622  1.3731 -2.3125  0.9847
 1060TIP3   OH224738   1.626   0.796   0.223 -0.1953  0.1828  0.2236
 1060TIP3    H124739   1.682   0.874   0.226 -1.1670  0.9035  2.7662
 1060TIP3    H224740   1.666   0.740   0.157  1.2862  2.2848 -0.7668
 1061TIP3   OH224741   6.499   3.659   0.957  0.0186 -0.0205  0.0004
 1061TIP3    H124742   6.539   3.575   0.978  0.5853  0.6076  1.6420
 1061TIP3    H224743   6.547   3.722   1.011 -0.6617  1.3066 -0.8868
 1062TIP3   OH224744   5.794   6.644   4.066 -0.5099 -0.5528 -0.0761
 1062TIP3    H124745   5.754   6.658   4.152  0.2386  4.3486 -0.2308
 1062TIP3    H224746   5.722   6.656   4.004 -0.1023  1.6815 -0.1818
 1063TIP3   OH224747   3.501   6.669   3.547  0.1331  0.1284 -0.0393
 1063TIP3    H124748   3.518   6.601   3.481  1.1430  0.0015  0.3256
 1063TIP3    H224749   3.582   6.721   3.549  0.3025 -0.1433  1.4072
 1064TIP3   OH224750   5.967   4.810   0.484  0.7215  0.2725  0.7505
 1064TIP3    H124751   6.057   4.780   0.497  0.8222 -0.4937 -1.2231
 1064TIP3    H224752   5.921   4.733   0.449  0.1916  1.5129 -1.4778
 1065TIP3   OH224753   4.704   0.350   0.969 -0.0332  0.0894  0.1933
 1065TIP3    H124754   4.628   0.306   0.931  0.4110  0.1524 -0.7928
 1065TIP3    H224755   4.728   0.416   0.905 -0.5392  1.6445  1.5366
 1066TIP3   OH224756   6.617   3.908   2.064 -0.5837  0.3940  0.0517
 1066TIP3    H124757   6.608   3.949   1.978  0.0805 -0.5386 -0.4922
 1066TIP3    H224758   6.707   3.929   2.092 -1.1228  1.5486  1.0039
 1067TIP3   OH224759   5.357   4.863   2.054  0.1884 -0.1124 -0.0806
 1067TIP3    H124760   5.364   4.781   2.103 -0.0548  0.6451  1.2809
 1067TIP3    H224761   5.431   4.862   1.994 -0.6918 -2.0404 -1.2460
 1068TIP3   OH224762   0.529   5.368   1.449 -0.2574 -0.3114  0.2632
 1068TIP3    H124763   0.496   5.278   1.458 -0.1252 -0.3488  0.3656
 1068TIP3    H224764   0.450   5.420   1.432 -0.3192 -0.4677  0.0533
 1069TIP3   OH224765   3.404   6.349   0.585  0.6805 -0.3081  0.1212
 1069TIP3    H124766   3.404   6.375   0.677  0.6086 -1.3162  0.4168
 1069TIP3    H224767   3.312   6.348   0.560  0.6337 -0.9760  0.3163
 1070TIP3   OH224768   4.746   5.441   3.904 -0.4872  0.4750 -0.3451
 1070TIP3    H124769   4.690   5.518   3.893 -2.7499 -0.5107  2.8060
 1070TIP3    H224770   4.687   5.367   3.896  0.8145 -0.7391  0.7761
 1071TIP3   OH224771   4.266   6.045   2.741 -0.1544 -0.0952  0.7620
 1071TIP3    H124772   4.324   5.969   2.751  0.6583  0.5223  0.8484
 1071TIP3    H224773   4.225   6.055   2.827  0.2330 -0.0409  0.9422
 1072TIP3   OH224774   1.236   4.330   2.577 -0.2391  0.3585 -0.3922
 1072TIP3    H124775   1.251   4.396   2.509  0.5401  0.1399 -0.4463
 1072TIP3    H224776   1.195   4.379   2.649 -3.0234  0.2149 -1.7537
 1073TIP3   OH224777   3.084   3.759   3.095  0.1428  0.1910  0.1515
 1073TIP3    H124778   3.159   3.768   3.153  1.4457  1.0100 -1.5550
 1073TIP3    H224779   3.051   3.671   3.112  0.1577  0.5673  2.4205
 1074TIP3   OH224780   2.819   4.426   1.574 -0.2421  0.1464  0.0636
 1074TIP3    H124781   2.891   4.450   1.516 -0.7202 -2.0592 -1.5478
 1074TIP3    H224782   2.860   4.418   1.661  1.5097 -1.0796 -0.8205
 1075TIP3   OH224783   5.112   2.722   3.572  0.0333 -0.3229  0.0388
 1075TIP3    H124784   5.200   2.740   3.604 -1.1194  2.9769  1.7660
 1075TIP3    H224785   5.057   2.788   3.613 -3.0663 -1.3408 -2.0917
 1076TIP3   OH224786   3.931   1.763   2.257  0.2901 -0.5514 -0.3994
 1076TIP3    H124787   3.853   1.818   2.250  0.5429 -0.0126  0.7884
 1076TIP3    H224788   3.959   1.750   2.166 -0.2067  0.6470 -0.7498
 1077TIP3   OH224789   0.410   0.255   2.589  0.1524  0.3506  0.1113
 1077TIP3    H124790   0.351   0.301   2.648 -0.8115  1.1222 -1.3907
 1077TIP3    H224791   0.352   0.200   2.535  0.8402  0.6597 -0.9792
 1078TIP3   OH224792   6.388   3.411   4.203  0.2939 -0.4292 -0.6641
 1078TIP3    H124793   6.313   3.358   4.232  1.0758 -1.3145 -0.2065
 1078TIP3    H224794   6.403   3.473   4.274 -0.4850  0.2885 -1.1038
 1079TIP3   OH224795   5.360   3.902   3.327 -0.4277 -0.2412 -0.0260
 1079TIP3    H124796   5.385   3.868   3.413 -1.8540  1.1256  0.9819
 1079TIP3    H224797   5.287   3.847   3.300 -0.4422 -0.2167 -0.0369
 1080TIP3   OH224798   6.599   4.315   2.801  0.0631 -0.4823  0.0828
 1080TIP3    H124799   6.565   4.227   2.786  0.4531 -0.8532  1.2124
 1080TIP3    H224800   6.540   4.353   2.866  1.5599 -1.0465  1.8772
 1081TIP3   OH224801   3.197   4.914   4.319  0.2402  0.6727 -0.2089
 1081TIP3    H124802   3.186   5.004   4.288  0.4350  0.9174  0.4221
 1081TIP3    H224803   3.271   4.918   4.379  0.3011  0.0717 -0.2352
 1082TIP3   OH224804   4.778   2.273   3.812  0.2578 -0.1088 -0.2574
 1082TIP3    H124805   4.811   2.361   3.828  0.4918 -0.4880  1.5306
 1082TIP3    H224806   4.845   2.215   3.848 -1.0851 -0.9474  0.9830
 1083TIP3   OH224807   4.217   1.565   3.211 -0.1654  0.4012 -0.2128
 1083TIP3    H124808   4.176   1.554   3.125  0.6770 -0.9279 -0.4767
 1083TIP3    H224809   4.292   1.622   3.195 -0.7775  1.2733 -0.0789
 1084TIP3   OH224810   4.749   2.383   1.167  0.2622  0.8154  1.0408
 1084TIP3    H124811   4.759   2.289   1.157  0.0193  0.8179  0.7363
 1084TIP3    H224812   4.679   2.406   1.105  1.2550  1.3980  0.1011
 1085TIP3   OH224813   0.467   4.827   0.349  0.2850 -0.0146  0.9821
 1085TIP3    H124814   0.540   4.775   0.314 -0.4698 -0.7847  0.5363
 1085TIP3    H224815   0.446   4.889   0.280 -1.5768 -1.9001 -0.2644
 1086TIP3   OH224816   5.107   3.943   2.391  0.9785 -0.4694 -0.1594
 1086TIP3    H124817   5.069   3.873   2.444  0.9894  0.1148  0.6460
 1086TIP3    H224818   5.055   3.944   2.311 -1.5711  1.1224  1.3977
 1087TIP3   OH224819   4.945   0.082   1.401 -0.0782 -0.5490 -0.0124
 1087TIP3    H124820   4.878   0.150   1.404 -0.1246 -0.6150  0.5846
 1087TIP3    H224821   5.027   0.129   1.385 -0.2205 -0.4334 -0.3890
 1088TIP3   OH224822   2.582   0.647   1.938 -0.7709  0.1195  0.6834
 1088TIP3    H124823   2.523   0.616   2.007  0.4163 -1.3877  1.0814
 1088TIP3    H224824   2.655   0.586   1.940  1.3133  2.4821  0.8780
 1089TIP3   OH224825   5.718   0.235   2.212 -0.2031 -0.3161  0.2730
 1089TIP3    H124826   5.712   0.165   2.147  1.2943 -0.0773 -0.1623
 1089TIP3    H224827   5.679   0.311   2.169 -1.6077 -0.7962  0.6546
 1090TIP3   OH224828   2.399   2.642   2.023 -0.3059  0.0728 -0.4170
 1090TIP3    H124829   2.441   2.562   1.990  0.1677 -0.6266  1.7489
 1090TIP3    H224830   2.420   2.708   1.957  2.9582 -0.5891 -0.2249
 1091TIP3   OH224831   0.103   5.501   2.152 -0.9345  0.4173 -0.1010
 1091TIP3    H124832   0.198   5.486   2.150 -1.2466 -2.2406  1.1986
 1091TIP3    H224833   0.094   5.589   2.187  1.0472  0.4742  0.3923
 1092TIP3   OH224834   2.980   0.580   3.178 -0.0673 -0.8182  0.0357
 1092TIP3    H124835   2.988   0.636   3.255 -0.4580 -0.5967 -0.0818
 1092TIP3    H224836   3.065   0.535   3.172 -0.1817 -1.1548  0.8309
 1093TIP3   OH224837   6.125   2.735   1.097 -0.1981  0.2085 -0.1288
 1093TIP3    H124838   6.142   2.819   1.140 -0.3868  0.6909 -0.9812
 1093TIP3    H224839   6.043   2.705   1.135  1.3353 -1.1149  2.4641
 1094TIP3   OH224840   0.107   6.838   1.211  0.5681 -0.1210  0.0951
 1094TIP3    H124841   0.131   6.771   1.146  2.1442 -0.2034  0.7122
 1094TIP3    H224842   0.133   6.800   1.295  2.3223  1.5598  0.3856
 1095TIP3   OH224843   4.146   0.610   2.959 -0.0418 -0.4584  0.3822
 1095TIP3    H124844   4.125   0.703   2.956 -0.5054 -0.5886 -0.8463
 1095TIP3    H224845   4.072   0.571   3.005 -1.0395 -0.5087 -1.2024
 1096TIP3   OH224846   3.506   2.961   0.807  0.7821  0.7115 -0.4876
 1096TIP3    H124847   3.534   2.876   0.773  0.7576  0.7526 -0.6120
 1096TIP3    H224848   3.563   3.024   0.762  0.8387  0.7563 -0.3535
 1097TIP3   OH224849   5.758   3.103   2.742  0.2985 -0.2005 -0.2485
 1097TIP3    H124850   5.674   3.106   2.697  0.5903  0.2831 -0.7918
 1097TIP3    H224851   5.782   3.010   2.743  0.0492 -0.2702 -0.6493
 1098TIP3   OH224852   3.893   5.764   0.604  0.3775  0.5513 -0.2574
 1098TIP3    H124853   3.879   5.669   0.604  2.4242  0.2113 -0.9331
 1098TIP3    H224854   3.805   5.800   0.590 -0.5115 -1.2025  0.4076
 1099TIP3   OH224855   2.717   2.345   3.458  0.2536  0.3218 -0.1604
 1099TIP3    H124856   2.789   2.370   3.400 -0.1824  1.7498 -0.1128
 1099TIP3    H224857   2.760   2.307   3.535  0.8584 -0.9469 -1.0832
 1100TIP3   OH224858   5.965   4.724   3.239  0.0468  0.2272 -0.5861
 1100TIP3    H124859   6.000   4.638   3.262 -1.1360 -0.2200 -0.3922
 1100TIP3    H224860   5.870   4.712   3.239 -0.3239  2.1782  2.1335
 1101TIP3   OH224861   2.993   1.543   3.335  0.3964  0.1681 -0.0481
 1101TIP3    H124862   2.902   1.522   3.355  0.2275  0.1835 -0.7880
 1101TIP3    H224863   3.043   1.503   3.407 -0.0190 -1.6773 -0.7419
 1102TIP3   OH224864   0.191   2.392   2.007 -0.3425 -0.7215  0.2956
 1102TIP3    H124865   0.102   2.400   1.971 -0.1120  0.1587 -0.0873
 1102TIP3    H224866   0.235   2.332   1.947 -0.7622 -1.4138  0.6638
 1103TIP3   OH224867   0.257   5.310   0.992  0.2115 -0.3679  0.6619
 1103TIP3    H124868   0.332   5.282   0.939  0.5159 -1.2291  1.5324
 1103TIP3    H224869   0.247   5.403   0.971  0.3597 -0.6623 -0.8624
 1104TIP3   OH224870   6.709   0.116   1.416 -0.5130  0.0885  0.1278
 1104TIP3    H124871   6.615   0.134   1.414 -0.4550  0.3692 -0.2105
 1104TIP3    H224872   6.747   0.190   1.465 -0.1437  1.5603 -2.2197
 1105TIP3   OH224873   3.694   6.860   2.404  0.0827  0.4143  0.2893
 1105TIP3    H124874   3.643   6.916   2.345  0.1536  0.7841  0.5755
 1105TIP3    H224875   3.639   6.851   2.482  0.2429  0.4122  0.4024
 1106TIP3   OH224876   1.070   5.933   3.816 -0.0101  0.0646 -0.4775
 1106TIP3    H124877   1.157   5.952   3.851 -0.0050 -0.8008  0.0216
 1106TIP3    H224878   1.011   5.944   3.890 -0.6389  2.6041 -1.2603
 1107TIP3   OH224879   4.528   1.428   2.133 -0.5318 -0.4248 -0.7617
 1107TIP3    H124880   4.569   1.512   2.113 -2.0854  0.6577  0.3926
 1107TIP3    H224881   4.494   1.398   2.049 -0.2346  0.2461 -1.1300
 1108TIP3   OH224882   1.473   5.790   0.015  0.6949 -0.4797 -0.9457
 1108TIP3    H124883   1.539   5.796  -0.055 -0.4503  1.7053 -1.9196
 1108TIP3    H224884   1.390   5.803  -0.030 -0.2090 -0.6314  0.6363
 1109TIP3   OH224885   0.817   0.215   2.739 -0.1238 -0.0876  0.2701
 1109TIP3    H124886   0.743   0.217   2.801 -0.0114 -0.0814  0.4036
 1109TIP3    H224887   0.776   0.228   2.654 -0.3306 -0.5174  0.2958
 1110TIP3   OH224888   5.877   1.622   0.824  0.8564 -0.8114  0.5118
 1110TIP3    H124889   5.880   1.635   0.729  0.5034  0.9415  0.7100
 1110TIP3    H224890   5.965   1.593   0.847  1.0738 -0.8092 -0.2876
 1111TIP3   OH224891   3.105   1.175   0.496 -0.2533 -0.6965  0.0949
 1111TIP3    H124892   3.014   1.168   0.526 -0.4509  0.0941 -0.3008
 1111TIP3    H224893   3.098   1.190   0.402  0.1473  2.5250  0.4770
 1112TIP3   OH224894   4.924   4.794   0.068 -0.3664  0.4638  0.6980
 1112TIP3    H124895   4.924   4.729   0.138 -1.3316 -0.0525  0.2208
 1112TIP3    H224896   4.843   4.843   0.080 -0.8776 -0.0794 -0.4804
 1113TIP3   OH224897   3.227   1.659   2.427 -0.3180  0.0415 -0.5828
 1113TIP3    H124898   3.164   1.704   2.371 -0.3378 -0.2517 -0.7963
 1113TIP3    H224899   3.229   1.712   2.507 -0.5512  0.2635 -0.7198
 1114TIP3   OH224900   5.646   6.822   2.322 -0.5453 -0.7377  0.1155
 1114TIP3    H124901   5.669   6.839   2.413 -1.1139  0.6132  0.0275
 1114TIP3    H224902   5.716   6.766   2.290  0.9506  0.6952  0.7362
 1115TIP3   OH224903   1.938   6.504   1.048 -0.0024 -1.1335  0.0719
 1115TIP3    H124904   1.901   6.489   1.135 -0.9341 -1.6328 -0.3994
 1115TIP3    H224905   1.933   6.419   1.005 -0.2824 -0.7081 -0.7453
 1116TIP3   OH224906   0.860   3.720   2.364  0.0871  0.3988 -0.0908
 1116TIP3    H124907   0.928   3.785   2.380  1.3796 -0.9395  0.0929
 1116TIP3    H224908   0.847   3.676   2.448 -0.3184 -0.0032 -0.3509
 1117TIP3   OH224909   4.460   5.144   0.638  0.5875 -0.3957  0.2767
 1117TIP3    H124910   4.415   5.074   0.687  0.7653 -0.6712  0.0504
 1117TIP3    H224911   4.395   5.172   0.573  0.8980 -1.1230 -0.3638
 1118TIP3   OH224912   5.278   0.681   4.444 -0.0407  0.2382 -0.0039
 1118TIP3    H124913   5.231   0.764   4.459 -0.7141 -0.2516  0.6819
 1118TIP3    H224914   5.367   0.708   4.421 -0.6756  1.1955 -1.4783
 1119TIP3   OH224915   2.114   4.525   2.304 -0.0370  0.4175 -0.4704
 1119TIP3    H124916   2.133   4.615   2.277  0.1384  0.0049 -1.7811
 1119TIP3    H224917   2.199   4.487   2.322 -0.0627  0.3187 -0.5584
 1120TIP3   OH224918   6.224   0.664   4.466 -0.2347 -0.5106 -0.2464
 1120TIP3    H124919   6.317   0.645   4.476  0.1016  0.1374 -1.9123
 1120TIP3    H224920   6.184   0.578   4.453  0.1042 -0.7965  0.5195
 1121TIP3   OH224921   5.983   3.892   3.224  0.0475  0.4578 -0.0117
 1121TIP3    H124922   6.020   3.873   3.138 -0.9418 -1.4666 -0.0543
 1121TIP3    H224923   5.889   3.879   3.213 -0.1215  0.4448  1.2888
 1122TIP3   OH224924   3.032   1.860   0.360 -0.4749 -0.5522 -0.4079
 1122TIP3    H124925   2.998   1.909   0.434 -1.9218 -0.2760 -1.2111
 1122TIP3    H224926   3.108   1.911   0.330 -1.1438  0.4742 -0.4036
 1123TIP3   OH224927   5.106   3.778   2.781  0.3652 -0.8583  0.0696
 1123TIP3    H124928   5.077   3.745   2.696 -1.1271  0.0290  0.2013
 1123TIP3    H224929   5.025   3.791   2.831  0.9673  1.6670  0.5064
 1124TIP3   OH224930   6.429   1.298   1.571  0.3741 -0.1007 -0.3170
 1124TIP3    H124931   6.465   1.349   1.498  0.9613 -1.3542 -0.9434
 1124TIP3    H224932   6.468   1.337   1.649 -0.4227  1.3927 -0.6336
 1125TIP3   OH224933   1.317   0.513   2.089 -0.4496  0.2754 -0.5458
 1125TIP3    H124934   1.239   0.506   2.144 -0.2037 -1.0159 -0.3406
 1125TIP3    H224935   1.350   0.601   2.106 -0.6090  0.0564  1.0625
 1126TIP3   OH224936   5.232   2.698   4.496 -0.0986 -0.3922  0.4350
 1126TIP3    H124937   5.316   2.681   4.538  0.6272  0.9823 -0.4007
 1126TIP3    H224938   5.204   2.612   4.463  0.9877 -0.8555  0.6768
 1127TIP3   OH224939   5.330   0.610   4.116 -0.1464  0.1176  0.6641
 1127TIP3    H124940   5.374   0.639   4.196  0.8969 -1.2255  0.6142
 1127TIP3    H224941   5.387   0.638   4.045 -0.2943 -0.0327  0.4831
 1128TIP3   OH224942   1.012   4.671   0.635  0.4497 -0.1680  0.1280
 1128TIP3    H124943   1.083   4.610   0.657  1.0489 -0.3529 -2.0346
 1128TIP3    H224944   1.057   4.748   0.601 -0.3667  0.5376  0.6196
 1129TIP3   OH224945   2.591   0.325   2.563  0.3851 -0.2067  0.5043
 1129TIP3    H124946   2.653   0.377   2.614  1.5475 -2.0149  1.0218
 1129TIP3    H224947   2.619   0.337   2.472  1.2077 -0.5877  0.6927
 1130TIP3   OH224948   1.769   4.981   3.347 -0.5880  0.0010 -0.3111
 1130TIP3    H124949   1.741   4.890   3.344 -1.6063  0.3284 -1.4638
 1130TIP3    H224950   1.804   4.999   3.259  0.5747  0.4395  0.2174
 1131TIP3   OH224951   1.444   4.449   0.961 -0.1317 -0.4001  0.1079
 1131TIP3    H124952   1.412   4.539   0.961 -0.7298 -0.5859 -1.2997
 1131TIP3    H224953   1.388   4.404   0.898  0.5274 -1.6296  0.3675
 1132TIP3   OH224954   5.581   5.338   1.499 -0.0070  0.1810  0.1130
 1132TIP3    H124955   5.625   5.376   1.423  0.6275 -0.0901  0.3345
 1132TIP3    H224956   5.512   5.400   1.521 -0.1217  0.3181 -0.6104
 1133TIP3   OH224957   6.729   3.902   3.457  0.2115 -0.0462  0.0732
 1133TIP3    H124958   6.638   3.870   3.463  0.1358  0.1287 -0.1395
 1133TIP3    H224959   6.782   3.822   3.459  0.0699 -0.1344  0.4949
 1134TIP3   OH224960   5.464   2.950   1.151  0.1417 -0.3090  1.0973
 1134TIP3    H124961   5.375   2.921   1.132 -0.8748  2.4170  1.3017
 1134TIP3    H224962   5.497   2.887   1.215 -2.0064 -0.8432  1.7484
 1135TIP3   OH224963   0.390   3.234   1.204 -0.1361  0.5060  0.3631
 1135TIP3    H124964   0.384   3.150   1.249 -0.3785  0.4093  0.1492
 1135TIP3    H224965   0.300   3.251   1.174 -0.1673  1.0115  0.7250
 1136TIP3   OH224966   2.496   2.197   8.479  0.0388 -0.4514  0.0286
 1136TIP3    H124967   2.563   2.220   8.415 -0.3812  1.2861  0.1671
 1136TIP3    H224968   2.545   2.182   8.560  0.4355 -1.3192 -0.3532
 1137TIP3   OH224969   0.810   1.717   1.250  0.0516  0.1458 -0.4314
 1137TIP3    H124970   0.739   1.780   1.263 -2.2213 -2.4532  0.8144
 1137TIP3    H224971   0.853   1.712   1.336  0.7101  0.5174 -0.7351
 1138TIP3   OH224972   0.317   4.943   2.165  0.0535  0.0328 -0.3524
 1138TIP3    H124973   0.375   4.867   2.155  1.3983  0.8374  0.9355
 1138TIP3    H224974   0.258   4.918   2.236  2.0276  1.0160  1.7371
 1139TIP3   OH224975   5.362   5.172   0.084 -0.7624 -0.0588  0.0517
 1139TIP3    H124976   5.283   5.121   0.099 -1.7037  1.2211 -0.2862
 1139TIP3    H224977   5.427   5.109   0.054 -1.5235 -1.2041  0.7629
 1140TIP3   OH224978   3.484   6.134   1.804  0.2534 -0.0562  0.2820
 1140TIP3    H124979   3.528   6.090   1.730 -0.0466 -2.3818  1.3884
 1140TIP3    H224980   3.508   6.226   1.794 -0.5940 -0.0427 -3.2880
 1141TIP3   OH224981   6.712   6.353   3.150  0.1334  0.0891  0.3178
 1141TIP3    H124982   6.646   6.408   3.191  0.0307 -0.2950  0.6675
 1141TIP3    H224983   6.762   6.315   3.222  1.5084  1.2866  0.0469
 1142TIP3   OH224984   4.581   5.716   3.600 -0.3533 -0.3360  0.4657
 1142TIP3    H124985   4.593   5.811   3.606  0.1497 -0.4510  1.5767
 1142TIP3    H224986   4.487   5.703   3.591 -0.4847  0.2419  0.9942
 1143TIP3   OH224987   4.888   6.005   2.570 -0.2249  0.2601  0.2710
 1143TIP3    H124988   4.835   6.084   2.583 -1.5889 -0.5506 -0.1875
 1143TIP3    H224989   4.837   5.935   2.609 -0.1821 -0.7654 -1.4042
 1144TIP3   OH224990   3.967   1.110   1.638 -0.3685 -0.3527  0.1041
 1144TIP3    H124991   4.041   1.054   1.613 -0.2244 -0.3502  0.5115
 1144TIP3    H224992   3.907   1.051   1.683 -0.0912 -0.1296  0.7766
 1145TIP3   OH224993   2.828   0.842   0.180 -0.2143  0.2112 -1.1158
 1145TIP3    H124994   2.908   0.878   0.219 -1.0322 -0.1669  1.0694
 1145TIP3    H224995   2.858   0.796   0.101  1.7555 -0.0875 -0.2574
 1146TIP3   OH224996   5.101   1.082   2.846 -0.4162 -0.1435 -0.5991
 1146TIP3    H124997   5.153   1.085   2.766 -1.5652  0.3454 -1.3518
 1146TIP3    H224998   5.119   1.165   2.890  0.1635 -0.3838 -0.3732
 1147TIP3   OH224999   5.787   1.012   2.107  0.3470 -0.2319  0.0951
 1147TIP3    H125000   5.808   1.015   2.201  2.4237 -0.1849 -0.3202
 1147TIP3    H225001   5.743   1.095   2.089 -1.8077 -0.9993  1.3373
 1148TIP3   OH225002   4.004   0.767   1.669  0.1098 -0.0877 -0.2982
 1148TIP3    H125003   4.077   0.771   1.607 -1.1130  0.5864 -1.7411
 1148TIP3    H225004   3.946   0.699   1.634  1.0496 -2.3005  2.0633
 1149TIP3   OH225005   4.941   2.484   3.912 -0.4403  0.6344  1.0237
 1149TIP3    H125006   4.965   2.487   3.819 -1.7284 -0.5297  0.6332
 1149TIP3    H225007   4.991   2.556   3.951  1.2877  0.2125 -0.2825
 1150TIP3   OH225008   1.358   1.246   0.332 -0.1788 -0.1917  0.1495
 1150TIP3    H125009   1.414   1.323   0.323  1.7800 -1.3892  1.4667
 1150TIP3    H225010   1.400   1.179   0.278 -0.1917 -1.2019  1.3677
 1151TIP3   OH225011   4.448   2.502   2.928  0.1817 -0.3899 -0.4682
 1151TIP3    H125012   4.447   2.424   2.871 -0.0887 -0.4268 -0.4136
 1151TIP3    H225013   4.477   2.469   3.013  0.0099 -0.4429 -0.4297
 1152TIP3   OH225014   2.628   2.734   2.239  0.4921  0.2642  0.0756
 1152TIP3    H125015   2.668   2.741   2.326 -0.1409  1.4340  0.2967
 1152TIP3    H225016   2.563   2.664   2.247 -0.3594  1.1155  0.8929
 1153TIP3   OH225017   5.011   3.430   1.327 -0.1863 -0.4914 -0.6969
 1153TIP3    H125018   4.982   3.476   1.406 -0.3303 -1.7908  0.0419
 1153TIP3    H225019   5.107   3.428   1.335 -0.0920  0.6368 -1.3095
 1154TIP3   OH225020   1.478   1.990   4.104 -0.1541 -0.5275  0.0436
 1154TIP3    H125021   1.498   2.045   4.179  0.1743 -0.9915  0.2970
 1154TIP3    H225022   1.541   2.018   4.037 -1.3996  0.9252 -0.5890
 1155TIP3   OH225023   4.290   5.745   2.147  0.4189  0.1324 -0.0489
 1155TIP3    H125024   4.314   5.815   2.207  1.3853  0.4290 -0.7693
 1155TIP3    H225025   4.224   5.694   2.195  0.4172  0.9580  0.8505
 1156TIP3   OH225026   4.264   4.285   3.227  0.5456  0.1037 -0.0773
 1156TIP3    H125027   4.311   4.362   3.195 -1.0029  0.7473 -0.9149
 1156TIP3    H225028   4.332   4.217   3.233  1.8322  1.3546  0.1220
 1157TIP3   OH225029   2.005   4.943   4.082  0.2793  0.2311 -0.1892
 1157TIP3    H125030   2.018   5.008   4.152  2.7658  0.2534 -0.6037
 1157TIP3    H225031   2.082   4.952   4.026 -0.1161 -1.9605 -1.1861
 1158TIP3   OH225032   4.277   0.927   1.231 -0.7937 -0.9884 -0.2268
 1158TIP3    H125033   4.336   0.900   1.301  0.3583 -1.2272 -1.2602
 1158TIP3    H225034   4.255   1.018   1.251  1.3256 -0.3200 -0.7233
 1159TIP3   OH225035   5.930   3.992   4.169  0.1181 -0.3816 -0.0165
 1159TIP3    H125036   5.925   4.083   4.196  0.5445 -0.3423 -0.0706
 1159TIP3    H225037   5.986   3.950   4.234  0.3140 -0.5012 -0.2583
 1160TIP3   OH225038   6.161   6.680   1.617  0.5669  0.0763 -0.3852
 1160TIP3    H125039   6.148   6.743   1.688  1.7351 -1.2636  1.0900
 1160TIP3    H225040   6.169   6.596   1.661 -0.1287 -1.0160 -2.2430
 1161TIP3   OH225041   1.540   6.509   1.909  0.2738 -0.1153  0.8277
 1161TIP3    H125042   1.528   6.604   1.911  1.2082  0.0066  1.6184
 1161TIP3    H225043   1.574   6.490   1.821 -2.8671 -0.1592 -0.5038
 1162TIP3   OH225044   4.908   6.459   3.654  0.1859  0.1151  0.0341
 1162TIP3    H125045   5.003   6.447   3.649  0.1182 -0.1152 -0.7315
 1162TIP3    H225046   4.871   6.374   3.630 -0.2237  0.3216 -0.0862
 1163TIP3   OH225047   4.754   5.715   0.995 -0.3062 -0.3217  0.7711
 1163TIP3    H125048   4.737   5.765   0.915  1.5262 -0.0088  0.5310
 1163TIP3    H225049   4.668   5.703   1.035 -1.3146 -0.7719 -1.4097
 1164TIP3   OH225050   2.218   6.447   4.681  0.2750 -0.1244 -0.4636
 1164TIP3    H125051   2.291   6.455   4.743 -0.5937  0.4169  0.5245
 1164TIP3    H225052   2.203   6.353   4.673  1.0437 -0.2394 -0.6467
 1165TIP3   OH225053   3.162   2.402   1.663 -0.2521 -0.1726 -0.2076
 1165TIP3    H125054   3.203   2.439   1.584 -2.1628  0.3321 -1.0187
 1165TIP3    H225055   3.070   2.427   1.656 -0.9349 -2.1783  0.9929
 1166TIP3   OH225056   2.267   6.181   8.169 -0.5390  0.4594 -0.1957
 1166TIP3    H125057   2.310   6.207   8.088 -0.1036  1.7976  0.4399
 1166TIP3    H225058   2.336   6.135   8.218 -1.4829 -2.7066 -1.5976
 1167TIP3   OH225059   5.899   5.606   0.566  0.0086  0.0318  0.3181
 1167TIP3    H125060   5.908   5.518   0.602  2.1152  0.0043 -0.1528
 1167TIP3    H225061   5.809   5.608   0.532  0.3995 -2.5911 -1.2516
 1168TIP3   OH225062   1.047   6.773   1.792 -0.1305  0.2220  0.5494
 1168TIP3    H125063   1.098   6.790   1.712  1.8990  0.9815  1.9207
 1168TIP3    H225064   1.108   6.727   1.850 -0.7816  1.6626  2.4817
 1169TIP3   OH225065   2.088   6.188   1.639  0.1919  0.1641  0.5394
 1169TIP3    H125066   2.156   6.131   1.602  2.3085  1.6147  1.8926
 1169TIP3    H225067   2.018   6.128   1.664  0.9409 -1.4386 -0.9161
 1170TIP3   OH225068   4.262   3.902   0.988 -0.1759 -0.0608  0.0125
 1170TIP3    H125069   4.235   3.847   0.914 -1.2046 -1.3501  1.2764
 1170TIP3    H225070   4.209   3.982   0.979 -1.8044 -1.0309  0.3831
 1171TIP3   OH225071   1.839   1.612   0.522  0.0313 -0.4556  0.1377
 1171TIP3    H125072   1.870   1.702   0.526  0.5878 -0.6395  0.0047
 1171TIP3    H225073   1.869   1.572   0.604 -0.9115 -0.3092  0.5757
 1172TIP3   OH225074   3.375   6.153   2.426 -0.6634  0.2132  0.0338
 1172TIP3    H125075   3.365   6.203   2.507 -1.9507  0.4360 -0.2384
 1172TIP3    H225076   3.469   6.137   2.420 -0.2808  2.0128  0.4802
 1173TIP3   OH225077   1.928   2.993   0.117  0.1328  0.3130 -0.1403
 1173TIP3    H125078   1.965   2.984   0.030  0.7416  1.6193 -0.0435
 1173TIP3    H225079   1.833   2.991   0.103  0.1678 -1.8547 -0.5234
 1174TIP3   OH225080   4.835   4.786   1.450  0.1821  0.4655 -0.5634
 1174TIP3    H125081   4.893   4.763   1.377 -2.0104 -2.2287 -1.6475
 1174TIP3    H225082   4.881   4.756   1.528  2.1338  2.4797 -0.8656
 1175TIP3   OH225083   3.807   5.464   1.248  0.3282 -0.8722 -0.1123
 1175TIP3    H125084   3.854   5.396   1.200  2.2522 -0.5575  1.1897
 1175TIP3    H225085   3.817   5.543   1.195 -0.3560 -1.1945 -0.7409
 1176TIP3   OH225086   0.664   0.205   3.267  0.0229 -0.0463 -0.4216
 1176TIP3    H125087   0.660   0.278   3.329 -0.6773 -0.5208  0.1026
 1176TIP3    H225088   0.608   0.233   3.194 -0.1686 -0.0136 -0.2643
 1177TIP3   OH225089   3.917   1.020   2.515  0.4650  0.1978  0.0228
 1177TIP3    H125090   3.902   1.109   2.483  0.0661  0.2847  0.4405
 1177TIP3    H225091   3.857   1.011   2.589 -0.8647 -1.0723 -1.1517
 1178TIP3   OH225092   5.972   5.109   3.996  0.2595  0.5681  0.1165
 1178TIP3    H125093   5.906   5.124   4.065  0.1837  1.2225 -0.0880
 1178TIP3    H225094   6.025   5.189   3.997 -1.0633  1.5783 -2.0352
 1179TIP3   OH225095   0.614   5.184   3.713  0.2513  0.0431  0.1475
 1179TIP3    H125096   0.672   5.114   3.741  0.9585  0.4386 -0.3098
 1179TIP3    H225097   0.631   5.255   3.775 -0.4007 -0.1456  0.5569
 1180TIP3   OH225098   4.112   3.544   2.391 -0.2403  0.1284  0.1589
 1180TIP3    H125099   4.107   3.586   2.477 -1.2213  0.6677 -0.1483
 1180TIP3    H225100   4.067   3.605   2.332 -0.1289 -0.5319 -0.6241
 1181TIP3   OH225101   3.172   4.246   7.941  0.6895  0.1689 -0.1809
 1181TIP3    H125102   3.086   4.266   7.977 -0.0564 -2.1492 -0.5098
 1181TIP3    H225103   3.233   4.299   7.994 -0.8728  1.8156  0.0950
 1182TIP3   OH225104   1.194   3.874   0.925 -0.3657 -0.1027 -0.0257
 1182TIP3    H125105   1.231   3.793   0.959 -0.8685  0.3234  1.6012
 1182TIP3    H225106   1.227   3.879   0.835  1.2873 -1.1070  0.4717
 1183TIP3   OH225107   5.057   0.206   4.285 -0.0785 -0.6970  0.0499
 1183TIP3    H125108   5.141   0.238   4.253 -0.8382  3.0632  1.3544
 1183TIP3    H225109   5.075   0.175   4.374  0.1083 -1.1502 -0.1386
 1184TIP3   OH225110   4.905   1.288   2.172  0.1858  0.1067 -0.6534
 1184TIP3    H125111   4.988   1.242   2.160 -1.5841 -3.5644 -0.5105
 1184TIP3    H225112   4.892   1.290   2.267  0.7338  2.0303 -0.5929
 1185TIP3   OH225113   6.173   4.440   3.222 -0.2499  0.1833  0.5111
 1185TIP3    H125114   6.188   4.381   3.296  1.6724 -1.5920 -1.1388
 1185TIP3    H225115   6.093   4.407   3.181 -0.7308  0.4935  1.2093
 1186TIP3   OH225116   1.360   1.420   1.711  0.2527  0.2346 -0.1212
 1186TIP3    H125117   1.300   1.431   1.637  1.6469  0.2530 -1.3029
 1186TIP3    H225118   1.303   1.397   1.785 -1.4179  2.3495 -0.6413
 1187TIP3   OH225119   4.198   5.793   1.491  0.4964 -0.7230 -0.2209
 1187TIP3    H125120   4.203   5.709   1.538  0.6149 -0.0918  0.9146
 1187TIP3    H225121   4.194   5.859   1.560 -1.3321  0.1332 -1.0859
 1188TIP3   OH225122   2.643   0.125   4.746  0.0185 -0.0513  0.1856
 1188TIP3    H125123   2.548   0.134   4.738  0.1831  2.4328  0.1164
 1188TIP3    H225124   2.663   0.040   4.706 -2.0494 -0.1592 -0.7513
 1189TIP3   OH225125   2.646   3.623   0.323 -0.2161 -0.4201 -0.5325
 1189TIP3    H125126   2.643   3.527   0.324 -1.8652 -0.4171 -1.3697
 1189TIP3    H225127   2.734   3.644   0.292  0.5064 -1.6225  0.5840
 1190TIP3   OH225128   2.374   6.864   2.853  0.1517  0.1790  0.0100
 1190TIP3    H125129   2.325   6.787   2.824  0.2467 -0.1171  0.6182
 1190TIP3    H225130   2.436   6.882   2.782  0.2988 -0.4583 -0.0279
 1191TIP3   OH225131   5.291   0.675   3.508 -0.2668 -0.3806 -0.0753
 1191TIP3    H125132   5.257   0.758   3.543  1.9646 -0.0500  1.5429
 1191TIP3    H225133   5.375   0.698   3.469 -1.6681 -1.1531 -3.9830
 1192TIP3   OH225134   3.373   2.850   3.388 -0.2304 -0.3656  0.2564
 1192TIP3    H125135   3.356   2.756   3.391 -2.0866 -0.0881 -0.1804
 1192TIP3    H225136   3.287   2.889   3.369  0.6753  1.3465 -0.5205
 1193TIP3   OH225137   1.612   5.221   3.455  0.4482  0.0023  0.0793
 1193TIP3    H125138   1.664   5.142   3.445 -0.1873 -0.6840  1.7492
 1193TIP3    H225139   1.524   5.189   3.477 -0.3040  1.1570 -1.1172
 1194TIP3   OH225140   3.634   1.212   2.944 -0.3178 -0.1620  0.3259
 1194TIP3    H125141   3.562   1.275   2.939 -1.6563 -1.6376  0.3694
 1194TIP3    H225142   3.596   1.134   2.984  1.1221 -1.2561 -0.3334
 1195TIP3   OH225143   3.158   3.742   2.757  0.3204 -0.4015 -0.0344
 1195TIP3    H125144   3.091   3.808   2.742 -1.0777 -1.5823  0.7745
 1195TIP3    H225145   3.234   3.791   2.787 -0.8973  0.7969  1.2426
 1196TIP3   OH225146   4.472   4.363   3.979 -0.1093  0.1179 -0.6035
 1196TIP3    H125147   4.528   4.375   3.902 -0.9638  2.9577 -0.8823
 1196TIP3    H225148   4.393   4.413   3.959 -0.0936  1.5029  2.3745
 1197TIP3   OH225149   4.270   1.920   0.169  0.2286  0.3854 -0.0519
 1197TIP3    H125150   4.199   1.918   0.106  0.4505  0.7643 -0.3149
 1197TIP3    H225151   4.293   2.012   0.178  2.7850  0.1068 -2.3656
 1198TIP3   OH225152   0.361   1.884   3.619  0.6726 -0.1333  0.0900
 1198TIP3    H125153   0.304   1.906   3.545  0.2611 -1.0593  0.1272
 1198TIP3    H225154   0.396   1.969   3.648  0.9437  0.2223 -1.2383
 1199TIP3   OH225155   5.781   3.167   1.355  0.0377  0.1446  0.0365
 1199TIP3    H125156   5.695   3.164   1.397  0.5163  1.5450  1.1839
 1199TIP3    H225157   5.828   3.238   1.399  0.7126  1.5242 -2.6551
 1200TIP3   OH225158   4.592   6.919   1.901 -0.0463  0.0981  0.3697
 1200TIP3    H125159   4.554   6.999   1.939 -0.0140  0.6580 -0.7276
 1200TIP3    H225160   4.591   6.935   1.807 -0.4135 -1.3710  0.0999
 1201TIP3   OH225161   5.164   3.348   4.559 -0.1865 -0.0482 -0.6777
 1201TIP3    H125162   5.099   3.416   4.577 -1.2214 -1.0899 -0.3963
 1201TIP3    H225163   5.248   3.389   4.581 -0.7318  1.3013 -1.0028
 1202TIP3   OH225164   4.121   6.772   0.761  0.3260 -0.0816 -0.0204
 1202TIP3    H125165   4.140   6.738   0.673 -1.8726 -2.0702  0.1949
 1202TIP3    H225166   4.159   6.708   0.821  1.2391  0.9264  0.5100
 1203TIP3   OH225167   6.219   4.638   3.925  0.1661  0.2205 -0.2322
 1203TIP3    H125168   6.154   4.675   3.985 -0.3679 -0.3606 -0.4353
 1203TIP3    H225169   6.167   4.589   3.861  0.7145  1.0473 -1.3297
 1204TIP3   OH225170   5.010   4.498   2.957 -0.2785 -0.4902  0.4200
 1204TIP3    H125171   4.926   4.544   2.966  0.6102  1.7543 -1.5304
 1204TIP3    H225172   5.066   4.538   3.024  0.1895  0.5788 -0.5777
 1205TIP3   OH225173   5.488   4.746   2.527 -0.0674 -0.2771  0.2126
 1205TIP3    H125174   5.460   4.837   2.519  0.4549 -0.1291 -0.0031
 1205TIP3    H225175   5.441   4.713   2.604  0.9181  0.6423  1.2474
 1206TIP3   OH225176   5.789   5.397   3.784 -0.2276  0.1119 -0.3788
 1206TIP3    H125177   5.881   5.397   3.759  0.1257  0.2116  0.8666
 1206TIP3    H225178   5.776   5.480   3.831 -0.2784 -1.0158  1.7153
 1207TIP3   OH225179   2.930   5.045   3.767 -0.1654 -0.5369  0.2753
 1207TIP3    H125180   2.905   5.137   3.766  3.0372  0.4746 -0.7106
 1207TIP3    H225181   3.003   5.040   3.828  0.2385 -2.2623 -0.2758
 1208TIP3   OH225182   2.660   0.877   0.688  0.1043 -0.0998 -0.1847
 1208TIP3    H125183   2.679   0.835   0.604 -1.7875 -0.7509 -0.3348
 1208TIP3    H225184   2.642   0.805   0.747  0.1291  0.4069  0.4511
 1209TIP3   OH225185   5.581   4.211   1.113  0.1117 -0.0987 -0.1482
 1209TIP3    H125186   5.644   4.158   1.163 -1.2726 -0.6816  1.0326
 1209TIP3    H225187   5.508   4.152   1.097 -0.1642  0.5664 -1.5250
 1210TIP3   OH225188   0.949   6.528   2.893 -0.9351  0.4626 -0.1721
 1210TIP3    H125189   0.946   6.437   2.862 -2.9384  0.9144 -1.5582
 1210TIP3    H225190   1.042   6.548   2.899 -0.4405 -1.5763 -0.1292
 1211TIP3   OH225191   1.531   0.714   3.917 -0.5535  0.7339 -0.1432
 1211TIP3    H125192   1.437   0.732   3.915 -0.8252 -0.5279 -2.2374
 1211TIP3    H225193   1.540   0.630   3.871  1.6847  1.3115 -0.8800
 1212TIP3   OH225194   4.731   6.189   2.242  0.2465  0.3425  0.0461
 1212TIP3    H125195   4.650   6.209   2.289  0.2407 -0.0217  0.1902
 1212TIP3    H225196   4.742   6.263   2.181 -0.6684 -0.0297 -0.5923
 1213TIP3   OH225197   2.835   4.750   1.260 -0.4647  0.1410 -0.1276
 1213TIP3    H125198   2.921   4.778   1.230 -0.8151  2.1668  0.5799
 1213TIP3    H225199   2.779   4.758   1.182 -0.5633  1.6231  0.0532
 1214TIP3   OH225200   2.936   4.853   2.831  0.3918 -0.3295  0.0842
 1214TIP3    H125201   2.996   4.800   2.778 -0.0346 -2.8185  1.8910
 1214TIP3    H225202   2.849   4.823   2.805 -0.0052  1.4290 -0.7134
 1215TIP3   OH225203   3.037   4.120   0.182  0.1360  0.0953  0.6337
 1215TIP3    H125204   3.004   4.031   0.183  1.5482 -0.5212 -1.2934
 1215TIP3    H225205   3.073   4.134   0.269 -0.2941 -1.1389  1.0184
 1216TIP3   OH225206   6.609   0.375   4.705  0.2671 -0.5519  0.5111
 1216TIP3    H125207   6.647   0.438   4.643  0.6275 -0.8030  0.4755
 1216TIP3    H225208   6.641   0.402   4.790 -0.5423  0.0282  0.6420
 1217TIP3   OH225209   6.110   1.209   3.343  0.2140  0.1440 -0.2691
 1217TIP3    H125210   6.068   1.281   3.295 -0.0257  0.8742  0.9945
 1217TIP3    H225211   6.038   1.163   3.385  0.6197  1.9437  2.6496
 1218TIP3   OH225212   0.758   0.952   1.096 -1.1051 -0.2095 -0.3082
 1218TIP3    H125213   0.737   1.045   1.103 -0.7656 -0.0677 -1.0978
 1218TIP3    H225214   0.708   0.922   1.020  0.0817 -0.2830 -1.0893
 1219TIP3   OH225215   0.961   1.565   1.688 -0.0693  0.7203 -0.6370
 1219TIP3    H125216   0.921   1.630   1.631  1.3003  0.5918 -1.7890
 1219TIP3    H225217   1.052   1.593   1.695  0.0674  0.0462  0.5252
 1220TIP3   OH225218   6.695   4.200   4.604 -0.2016 -0.2996 -0.0838
 1220TIP3    H125219   6.655   4.282   4.575  2.3880  0.8198 -0.8536
 1220TIP3    H225220   6.659   4.134   4.546 -0.8682  0.6466 -0.7802
 1221TIP3   OH225221   3.883   3.048   1.611  0.4946  0.3002  0.2536
 1221TIP3    H125222   3.943   3.053   1.537 -0.9737 -0.0091 -1.0323
 1221TIP3    H225223   3.815   2.986   1.582 -0.2451  0.3652  1.7656
 1222TIP3   OH225224   2.933   1.077   3.251  0.1330 -0.0428  0.0975
 1222TIP3    H125225   2.918   1.093   3.157  1.2639  3.3163  0.3650
 1222TIP3    H225226   3.010   1.021   3.254 -0.4125 -0.9093 -0.9305
 1223TIP3   OH225227   3.425   6.888   0.798  0.2654  0.4720 -0.4066
 1223TIP3    H125228   3.345   6.870   0.749 -0.4672  0.4330  0.7456
 1223TIP3    H225229   3.398   6.953   0.863  0.2844 -1.8952  2.1611
 1224TIP3   OH225230   5.560   6.648   3.921 -0.2980 -0.4691 -0.3364
 1224TIP3    H125231   5.554   6.704   3.843 -1.4018  0.1422  0.1796
 1224TIP3    H225232   5.501   6.688   3.984  1.1312 -0.5219  1.1078
 1225TIP3   OH225233   5.506   3.359   1.479 -0.3275  0.3921 -0.4517
 1225TIP3    H125234   5.533   3.269   1.494 -2.4830 -0.0797  1.0780
 1225TIP3    H225235   5.538   3.406   1.556 -0.6136  0.5875 -0.4503
 1226TIP3   OH225236   3.737   1.235   2.510 -0.2919 -0.1730  0.3427
 1226TIP3    H125237   3.664   1.240   2.449 -0.1553 -1.9372 -0.0390
 1226TIP3    H225238   3.697   1.225   2.596 -0.5106 -0.7849  0.1731
 1227TIP3   OH225239   0.318   5.225   2.221 -0.0315  0.0298 -0.4157
 1227TIP3    H125240   0.322   5.231   2.125 -0.8530 -0.4106 -0.4805
 1227TIP3    H225241   0.318   5.131   2.240 -1.9439  0.0692 -0.0913
 1228TIP3   OH225242   6.678   5.391   2.618  0.3349  0.2320  0.9949
 1228TIP3    H125243   6.624   5.318   2.648 -1.2707  0.0536 -1.9525
 1228TIP3    H225244   6.651   5.465   2.672 -1.8117 -0.2196  0.6276
 1229TIP3   OH225245   2.263   0.046   8.439 -0.2801  0.1330 -0.1074
 1229TIP3    H125246   2.326   0.112   8.412  0.7584  0.0417  1.8837
 1229TIP3    H225247   2.300  -0.037   8.407 -0.7879  0.3395 -1.2588
 1230TIP3   OH225248   0.063   3.181   3.221  0.6048 -0.1143  0.0183
 1230TIP3    H125249   0.106   3.126   3.287  0.5583 -0.6601 -0.3933
 1230TIP3    H225250  -0.025   3.196   3.256  0.3408 -0.9991 -0.2402
 1231TIP3   OH225251   3.475   3.313   0.680  0.1769  0.6306 -0.1878
 1231TIP3    H125252   3.534   3.386   0.663 -0.3094  0.7527 -1.5367
 1231TIP3    H225253   3.533   3.237   0.690  0.6298  1.0145  0.1366
 1232TIP3   OH225254   3.715   2.309   1.216  0.3526 -0.3075 -0.8128
 1232TIP3    H125255   3.692   2.350   1.133  2.6309  0.6991 -1.0076
 1232TIP3    H225256   3.775   2.370   1.257  0.9909 -1.8097  0.5788
 1233TIP3   OH225257   3.081   4.446   0.937 -0.5537  0.2563 -0.6234
 1233TIP3    H125258   3.028   4.521   0.912  1.4880  1.5236 -1.4448
 1233TIP3    H225259   3.054   4.376   0.878 -0.9500  1.0144 -1.3551
 1234TIP3   OH225260   6.794   3.889   3.755 -0.3552  0.3395  0.0545
 1234TIP3    H125261   6.767   3.892   3.663 -0.5420 -0.1091  0.0923
 1234TIP3    H225262   6.857   3.817   3.759 -0.2572  0.4356  0.2542
 1235TIP3   OH225263   0.767   5.809   1.126 -0.6643 -0.7566 -0.5651
 1235TIP3    H125264   0.707   5.828   1.198 -1.0810 -1.1630 -0.7985
 1235TIP3    H225265   0.726   5.849   1.050 -1.9203 -3.0663 -1.2123
 1236TIP3   OH225266   6.019   3.741   3.449  0.1469 -0.2238 -0.6396
 1236TIP3    H125267   6.010   3.778   3.362 -1.7388  0.6242 -0.1351
 1236TIP3    H225268   6.112   3.750   3.470  0.7018 -0.7946 -2.6809
 1237TIP3   OH225269   5.141   0.732   0.026 -0.3459 -0.6937  0.3381
 1237TIP3    H125270   5.119   0.716   0.118 -1.1932  0.6236  0.4052
 1237TIP3    H225271   5.107   0.656  -0.021 -1.0119 -0.8112  0.9897
 1238TIP3   OH225272   2.064   5.506   3.001  0.2782  0.3832 -0.2515
 1238TIP3    H125273   2.150   5.549   3.005 -0.1979  1.4050 -0.4535
 1238TIP3    H225274   2.066   5.457   2.918  1.0931 -0.5957  0.3278
 1239TIP3   OH225275   4.448   2.847   4.527 -0.2183  0.0247 -0.2414
 1239TIP3    H125276   4.532   2.821   4.565  0.6394  1.6720 -0.9212
 1239TIP3    H225277   4.438   2.791   4.450  0.5099  0.1467 -0.4342
 1240TIP3   OH225278   3.778   1.020   0.852  0.0385  0.0398  0.4703
 1240TIP3    H125279   3.706   0.978   0.898 -1.1322 -0.2529 -1.5187
 1240TIP3    H225280   3.827   0.948   0.812  0.2099  0.3588  0.0991
 1241TIP3   OH225281   4.558   4.077   2.455 -0.7102 -0.1531 -0.0243
 1241TIP3    H125282   4.521   4.019   2.521 -1.8230  1.2422  0.6271
 1241TIP3    H225283   4.595   4.017   2.389 -0.6409 -1.5697  1.2395
 1242TIP3   OH225284   5.309   5.230   2.570 -0.0576 -0.1126 -0.2852
 1242TIP3    H125285   5.218   5.236   2.542  0.6089  2.0335 -2.3279
 1242TIP3    H225286   5.350   5.309   2.535  2.3591 -0.4522  1.5327
 1243TIP3   OH225287   6.122   6.798   1.200 -0.0817 -0.3302 -0.0901
 1243TIP3    H125288   6.139   6.712   1.239 -0.2082 -0.6034 -0.6397
 1243TIP3    H225289   6.152   6.860   1.267 -1.1789 -0.7802  0.8592
 1244TIP3   OH225290   3.190   1.269   1.578  0.0192 -0.4070  0.3685
 1244TIP3    H125291   3.175   1.303   1.667 -0.3635  1.7016 -0.4442
 1244TIP3    H225292   3.231   1.184   1.592 -0.4913 -0.3689  2.5732
 1245TIP3   OH225293   0.588   5.751   0.242  0.0680 -0.0755 -0.5027
 1245TIP3    H125294   0.498   5.774   0.265  0.4355  0.8182  0.1208
 1245TIP3    H225295   0.621   5.707   0.320  0.6235  0.9544 -0.1293
 1246TIP3   OH225296   4.185   4.417   4.606 -0.3003 -0.0421 -0.3084
 1246TIP3    H125297   4.149   4.505   4.602 -1.4601 -0.4717  0.2009
 1246TIP3    H225298   4.279   4.429   4.591 -0.3295  1.3434  0.4461
 1247TIP3   OH225299   0.907   4.389   2.668  0.1232 -0.5806 -0.3063
 1247TIP3    H125300   0.815   4.409   2.653  0.3654  0.1024 -0.9189
 1247TIP3    H225301   0.917   4.298   2.638  0.3225  0.3443 -3.3876
 1248TIP3   OH225302   5.188   3.388   3.684  0.5758 -0.3602 -0.0777
 1248TIP3    H125303   5.191   3.356   3.593 -0.9410  1.2453 -0.7479
 1248TIP3    H225304   5.139   3.319   3.730  1.4533 -1.2482 -0.4302
 1249TIP3   OH225305   6.207   1.887   3.560 -0.4799 -0.1259 -0.6334
 1249TIP3    H125306   6.254   1.897   3.477  2.8965 -4.1346  0.4177
 1249TIP3    H225307   6.160   1.805   3.550 -1.6215  0.3283  0.8044
 1250TIP3   OH225308   5.047   1.657   2.102 -0.8726  0.9486 -0.6186
 1250TIP3    H125309   4.992   1.600   2.047  1.0999 -2.3456  0.5279
 1250TIP3    H225310   4.995   1.672   2.181 -1.3633  0.5645 -0.8626
 1251TIP3   OH225311   0.524   3.472   0.386  1.0876 -0.2822  0.1569
 1251TIP3    H125312   0.482   3.528   0.451  2.1912  0.2119  0.4599
 1251TIP3    H225313   0.615   3.499   0.385  1.2639 -0.8197 -1.0328
 1252TIP3   OH225314   4.310   1.949   0.554  0.5073 -0.0970 -0.5530
 1252TIP3    H125315   4.278   2.029   0.513 -1.9014 -0.0359  1.2625
 1252TIP3    H225316   4.277   1.878   0.498 -0.1395  0.0755 -0.3880
 1253TIP3   OH225317   0.428   1.173   4.588  0.0791  0.0683  0.6549
 1253TIP3    H125318   0.403   1.086   4.618 -0.1951 -0.3688 -0.7752
 1253TIP3    H225319   0.523   1.176   4.601 -0.2712  0.8360  3.8210
 1254TIP3   OH225320   5.705   3.627   3.060 -0.0028  0.2456 -0.2394
 1254TIP3    H125321   5.613   3.647   3.076  0.1334  0.7960 -0.1439
 1254TIP3    H225322   5.742   3.613   3.147 -0.0081 -0.0515 -0.2824
 1255TIP3   OH225323   0.346   6.367   4.115 -0.3187  1.3620 -0.3689
 1255TIP3    H125324   0.266   6.338   4.159 -0.4119  2.2265  0.0480
 1255TIP3    H225325   0.348   6.461   4.128  1.1685  1.2630  0.2853
 1256TIP3   OH225326   2.249   0.067   3.669 -0.0916 -0.2524 -0.3971
 1256TIP3    H125327   2.167   0.070   3.718  0.8305 -1.0504  1.2757
 1256TIP3    H225328   2.245   0.144   3.612 -1.2614  0.6879  0.8728
 1257TIP3   OH225329   5.642   5.926   3.343  0.0313 -0.1664 -0.3049
 1257TIP3    H125330   5.619   6.013   3.375  1.0386 -0.1083  0.3242
 1257TIP3    H225331   5.569   5.870   3.368  0.4135  0.0469  1.3597
 1258TIP3   OH225332   0.357   3.481   3.850  0.1425  0.2708  0.2119
 1258TIP3    H125333   0.348   3.394   3.890 -0.5157  0.1354 -0.2136
 1258TIP3    H225334   0.279   3.529   3.879  1.4467  1.4164  2.0858
 1259TIP3   OH225335   4.913   0.891   1.914  0.0269 -0.3774  0.5036
 1259TIP3    H125336   4.980   0.942   1.869 -1.3722  0.8343 -0.2877
 1259TIP3    H225337   4.944   0.800   1.908  1.6794  0.1624  0.3717
 1260TIP3   OH225338   1.635   3.302   2.523 -0.0444 -0.0976 -0.3489
 1260TIP3    H125339   1.623   3.216   2.564 -2.2737 -0.4705 -1.5826
 1260TIP3    H225340   1.570   3.358   2.567 -0.6078  0.1725 -1.4800
 1261TIP3   OH225341   0.263   2.836   4.350 -0.1928  0.3630 -0.1122
 1261TIP3    H125342   0.270   2.744   4.324  2.9660  0.0630  1.3543
 1261TIP3    H225343   0.288   2.885   4.272  1.9922 -0.2378  0.1563
 1262TIP3   OH225344   1.437   2.691   3.016 -0.8411 -0.7412 -0.4086
 1262TIP3    H125345   1.439   2.596   3.015  0.2719 -0.7329 -1.8442
 1262TIP3    H225346   1.528   2.718   3.005 -0.9125  0.5188  1.6213
 1263TIP3   OH225347   3.738   3.844   3.787  0.3018 -0.3362  0.2554
 1263TIP3    H125348   3.706   3.836   3.876 -0.3890 -2.2380 -0.1131
 1263TIP3    H225349   3.828   3.814   3.790 -0.0926 -1.5786  0.1295
 1264TIP3   OH225350   4.775   0.030   2.948 -0.3680 -0.2789  0.7984
 1264TIP3    H125351   4.870   0.034   2.937 -0.3850  1.9386  0.8572
 1264TIP3    H225352   4.741   0.008   2.862  0.1597  0.6482  0.3359
 1265TIP3   OH225353   5.500   1.014   0.960 -0.0260  0.4341  0.2808
 1265TIP3    H125354   5.427   1.042   0.905  0.6883  1.4458 -0.1747
 1265TIP3    H225355   5.475   0.926   0.989 -1.0974  0.4793 -0.4349
 1266TIP3   OH225356   2.450   1.173   0.259 -0.2292  0.3095  0.2490
 1266TIP3    H125357   2.364   1.214   0.264  0.2542  1.4564 -0.5615
 1266TIP3    H225358   2.498   1.210   0.333 -0.1121  0.4291  0.1120
 1267TIP3   OH225359   6.817   0.693   0.950 -0.0569  0.1252 -0.3960
 1267TIP3    H125360   6.740   0.653   0.910  0.7656 -0.8387 -1.0539
 1267TIP3    H225361   6.787   0.780   0.977 -1.5498 -0.4625 -0.0331
 1268TIP3   OH225362   6.245   2.039   2.128  0.0486  0.3236  0.0216
 1268TIP3    H125363   6.183   2.028   2.057  0.9063 -2.8123 -0.3766
 1268TIP3    H225364   6.317   2.090   2.090 -0.1403 -0.1218 -0.9551
 1269TIP3   OH225365   3.359   1.126   2.208 -0.1549  0.7462 -0.0310
 1269TIP3    H125366   3.430   1.160   2.154 -0.6231  1.7956 -0.0134
 1269TIP3    H225367   3.331   1.200   2.261  0.6842 -0.3964  2.1307
 1270TIP3   OH225368   2.678   2.495   3.150 -0.4522  0.2114 -0.2825
 1270TIP3    H125369   2.664   2.503   3.056 -0.7043  0.3300 -0.2373
 1270TIP3    H225370   2.681   2.585   3.181  3.3623  0.3978 -0.6759
 1271TIP3   OH225371   2.583   2.004   1.371 -0.3977  0.1282  0.0208
 1271TIP3    H125372   2.607   1.912   1.360  0.0245  0.2825 -0.3746
 1271TIP3    H225373   2.490   2.007   1.351 -0.5614 -0.3232  0.6884
 1272TIP3   OH225374   3.495   3.399   2.881  0.0632  0.0048 -0.4625
 1272TIP3    H125375   3.546   3.471   2.844  0.1074  0.1743 -0.0760
 1272TIP3    H225376   3.404   3.419   2.858 -0.0964  0.9657  0.8966
 1273TIP3   OH225377   4.202   1.770   0.377 -0.0178  0.0064 -0.4976
 1273TIP3    H125378   4.239   1.811   0.299  0.5310  0.5083  0.0112
 1273TIP3    H225379   4.108   1.774   0.364  0.0122  1.4763 -0.4553
 1274TIP3   OH225380   3.921   4.906   1.001  0.3508  0.3016 -0.2932
 1274TIP3    H125381   3.890   4.820   0.974  0.3577  0.8949 -2.3888
 1274TIP3    H225382   4.012   4.893   1.027 -0.1385 -0.5836  1.0942
 1275TIP3   OH225383   5.562   3.268   0.921  0.4431 -0.6292 -0.0331
 1275TIP3    H125384   5.529   3.357   0.907  2.2439  0.3822  1.6887
 1275TIP3    H225385   5.493   3.212   0.885 -0.2783  1.4397 -2.1357
 1276TIP3   OH225386   2.724   0.975   2.791 -0.3255  0.2622  0.3772
 1276TIP3    H125387   2.639   0.980   2.748 -0.0737  1.9314  0.0270
 1276TIP3    H225388   2.769   0.903   2.747  0.3055  2.4909 -2.9207
 1277TIP3   OH225389   1.991   0.742   1.376 -1.2466 -0.2434  0.1111
 1277TIP3    H125390   1.919   0.802   1.398 -0.2750  1.8239 -1.9371
 1277TIP3    H225391   2.069   0.797   1.378 -0.1589 -1.6936 -0.8512
 1278TIP3   OH225392   2.473   4.127   4.106  0.2294 -0.1032 -0.1705
 1278TIP3    H125393   2.539   4.189   4.078  0.5657 -0.2479  0.2925
 1278TIP3    H225394   2.400   4.181   4.135 -2.1844  0.2436 -5.5745
 1279TIP3   OH225395   3.169   5.481   3.429 -0.2469  0.0164  0.1512
 1279TIP3    H125396   3.103   5.512   3.491 -0.4736 -0.1709  0.0083
 1279TIP3    H225397   3.244   5.457   3.483  0.6512  2.5132  0.1428
 1280TIP3   OH225398   0.108   4.965   1.356  0.7745 -0.2608 -0.2624
 1280TIP3    H125399   0.138   5.045   1.313  1.7680  0.0075  0.8504
 1280TIP3    H225400   0.173   4.899   1.332  0.9347 -0.2842  0.2123
 1281TIP3   OH225401   3.122   0.461   2.119 -0.0013 -0.6476 -0.2414
 1281TIP3    H125402   3.069   0.474   2.197 -0.1802  0.2562 -0.5054
 1281TIP3    H225403   3.207   0.499   2.140  0.1680 -1.0122 -0.2518
 1282TIP3   OH225404   0.671   1.453   1.342 -0.3444 -0.2687 -0.2578
 1282TIP3    H125405   0.709   1.536   1.313  1.7387 -0.2811  2.1095
 1282TIP3    H225406   0.583   1.475   1.371  0.7121  1.5056  1.8367
 1283TIP3   OH225407   2.510   5.632   2.677  0.3968 -0.0677 -0.2962
 1283TIP3    H125408   2.554   5.690   2.739 -2.3493  1.8198  0.0788
 1283TIP3    H225409   2.508   5.681   2.596 -1.7981  0.3708 -0.0307
 1284TIP3   OH225410   1.783   5.620   1.965 -0.4205 -0.1769 -0.4427
 1284TIP3    H125411   1.718   5.614   1.894 -1.0818 -1.3414  0.2203
 1284TIP3    H225412   1.744   5.681   2.028  0.1607  0.8465 -1.0397
 1285TIP3   OH225413   0.664   4.070   0.769 -0.1865 -0.0937  0.3771
 1285TIP3    H125414   0.721   4.001   0.733  0.7001  0.2546  1.0647
 1285TIP3    H225415   0.576   4.035   0.760  0.1020 -0.4983 -1.0569
 1286TIP3   OH225416   0.636   4.328   3.349 -0.5875 -0.4066 -0.4072
 1286TIP3    H125417   0.613   4.417   3.375  2.2976 -0.1805  1.8418
 1286TIP3    H225418   0.621   4.326   3.254  2.9947  3.8516 -1.3821
 1287TIP3   OH225419   0.402   2.510   1.702 -0.9519  0.1210  0.2485
 1287TIP3    H125420   0.474   2.567   1.675 -0.2181 -0.2121  1.4171
 1287TIP3    H225421   0.425   2.483   1.791 -1.7653 -1.2297  0.0791
 1288TIP3   OH225422   2.518   6.153   1.437  0.0989 -0.8933 -0.3670
 1288TIP3    H125423   2.509   6.059   1.426 -0.2569 -0.8026 -0.8697
 1288TIP3    H225424   2.428   6.185   1.445  0.2006 -0.5593 -0.5343
 1289TIP3   OH225425   6.277   1.081   1.460  0.9295  0.0756  0.1603
 1289TIP3    H125426   6.349   1.052   1.404  0.9463 -1.1304  0.7846
 1289TIP3    H225427   6.310   1.161   1.502  1.9575 -0.5291  0.5408
 1290TIP3   OH225428   4.455   5.516   8.370  0.3367 -0.6092  0.1391
 1290TIP3    H125429   4.451   5.611   8.376  0.3241 -0.5821 -0.2382
 1290TIP3    H225430   4.365   5.487   8.385  0.4659 -0.6064  0.9360
 1291TIP3   OH225431   3.637   6.117   2.476 -0.6210  0.5401 -0.5533
 1291TIP3    H125432   3.653   6.084   2.387 -0.6192  0.0216 -0.3640
 1291TIP3    H225433   3.711   6.176   2.493  0.7464 -1.2684  0.0413
 1292TIP3   OH225434   0.815   5.294   3.040  0.3478  0.1519  0.0136
 1292TIP3    H125435   0.877   5.303   3.112  0.8446  3.0647 -0.6687
 1292TIP3    H225436   0.730   5.318   3.078  0.6676  2.0500 -0.3781
 1293TIP3   OH225437   3.881   6.035   3.138  0.2059  0.2712 -0.2040
 1293TIP3    H125438   3.882   6.000   3.227 -1.7669 -1.4086 -0.7625
 1293TIP3    H225439   3.835   6.119   3.146  2.3742  1.4727  0.6870
 1294TIP3   OH225440   3.806   1.981   3.523 -0.2438  0.0510  0.4030
 1294TIP3    H125441   3.738   2.046   3.504 -0.6299 -0.1103  1.2029
 1294TIP3    H225442   3.803   1.970   3.618 -0.2897 -1.2459  0.2722
 1295TIP3   OH225443   4.438   6.393   0.089  0.0324  0.0362 -0.3978
 1295TIP3    H125444   4.384   6.314   0.084  1.0869 -0.7929  0.6672
 1295TIP3    H225445   4.382   6.463   0.055 -2.2144 -0.5353  1.8082
 1296TIP3   OH225446   4.812   0.889   0.487  0.5669  0.6090 -0.2474
 1296TIP3    H125447   4.836   0.808   0.443  0.8473 -0.5179  1.8457
 1296TIP3    H225448   4.720   0.878   0.511  0.8237  0.5428  0.7535
 1297TIP3   OH225449   4.232   4.410   2.896 -0.6022  0.5347 -0.0433
 1297TIP3    H125450   4.191   4.489   2.862  0.5260  1.3390  0.4103
 1297TIP3    H225451   4.288   4.440   2.968 -0.8071 -0.7806  0.7080
 1298TIP3   OH225452   1.434   1.384   2.148  0.9644 -0.2799 -0.2294
 1298TIP3    H125453   1.475   1.461   2.109  1.2998  0.1945  1.0206
 1298TIP3    H225454   1.390   1.417   2.227 -0.6415 -1.0186 -0.7643
 1299TIP3   OH225455   3.275   0.031   2.046 -0.3034  0.2077  0.2948
 1299TIP3    H125456   3.216   0.105   2.031  0.7799  1.3897  1.5551
 1299TIP3    H225457   3.347   0.045   1.985  0.5254  0.9493  1.3979
 1300TIP3   OH225458   0.386   6.615   4.645  0.0956 -0.3574  0.3788
 1300TIP3    H125459   0.392   6.587   4.736 -1.3820 -0.9911  0.3053
 1300TIP3    H225460   0.416   6.539   4.594 -3.1227 -1.6708  0.2147
 1301TIP3   OH225461   3.920   3.940   0.638 -0.0580  0.5741  0.7739
 1301TIP3    H125462   4.010   3.944   0.606  0.4526  0.4665  2.1356
 1301TIP3    H225463   3.870   3.904   0.565  1.3531 -1.4027  0.6998
 1302TIP3   OH225464   2.810   4.847   2.437 -0.2774  0.7846  0.5256
 1302TIP3    H125465   2.793   4.775   2.498 -1.2064  0.0218 -0.5808
 1302TIP3    H225466   2.906   4.853   2.433  0.0079 -2.3550 -1.4558
 1303TIP3   OH225467   1.674   1.832   2.114 -0.2836  0.2248  0.1228
 1303TIP3    H125468   1.656   1.885   2.036  1.0454 -1.0498 -1.1278
 1303TIP3    H225469   1.597   1.844   2.170 -1.4948  0.8398 -1.5824
 1304TIP3   OH225470   4.729   4.616   1.679  0.0030  0.3278 -0.0917
 1304TIP3    H125471   4.759   4.647   1.594  1.2490  0.8703  0.5112
 1304TIP3    H225472   4.775   4.671   1.742  0.7384 -1.4333  0.9864
 1305TIP3   OH225473   6.922   3.478   1.142  0.0280  0.5206  0.4594
 1305TIP3    H125474   6.835   3.454   1.112  0.8963 -0.8856 -1.0955
 1305TIP3    H225475   6.923   3.574   1.139 -2.0210  0.6857  2.3222
 1306TIP3   OH225476   3.730   1.375   0.282 -0.3410 -0.1941 -0.7575
 1306TIP3    H125477   3.743   1.429   0.360 -3.2494 -1.7776  0.9971
 1306TIP3    H225478   3.654   1.321   0.302  0.9756 -3.3512 -3.2912
 1307TIP3   OH225479   0.462   4.600   4.392  0.4066  0.3193 -0.0766
 1307TIP3    H125480   0.438   4.508   4.385 -0.3672  0.6097 -2.3390
 1307TIP3    H225481   0.391   4.639   4.443 -0.5881  0.0266 -1.1750
 1308TIP3   OH225482   2.468   5.324   2.939  0.3272 -0.0014 -0.0670
 1308TIP3    H125483   2.545   5.290   2.983 -0.6053 -2.2882 -0.0364
 1308TIP3    H225484   2.474   5.289   2.850  0.9442  2.5389 -1.1085
 1309TIP3   OH225485   6.509   1.421   3.673 -0.2355 -0.1524 -0.8268
 1309TIP3    H125486   6.466   1.495   3.630 -1.3530 -0.0741  0.3667
 1309TIP3    H225487   6.457   1.406   3.752 -0.5792 -2.7878 -1.4699
 1310TIP3   OH225488   1.254   3.870   3.566  0.0659 -0.5084  0.4605
 1310TIP3    H125489   1.247   3.943   3.504  0.1468 -1.2305 -0.4239
 1310TIP3    H225490   1.173   3.874   3.617  0.4846  0.7450  1.0588
 1311TIP3   OH225491   6.008   0.379   0.723 -0.8377 -0.2431  0.0520
 1311TIP3    H125492   5.921   0.400   0.688 -1.5064  0.3445  1.9478
 1311TIP3    H225493   6.028   0.451   0.783  0.1936 -1.2410  0.9567
 1312TIP3   OH225494   5.392   5.674   3.878  0.1702 -0.5923 -0.7056
 1312TIP3    H125495   5.381   5.622   3.957 -0.8717 -0.6475 -0.8773
 1312TIP3    H225496   5.337   5.751   3.892  0.1517 -0.4949 -1.2877
 1313TIP3   OH225497   5.910   2.224   0.521 -0.3747 -0.4384 -0.3615
 1313TIP3    H125498   5.990   2.172   0.513 -0.8066 -1.1315 -0.3233
 1313TIP3    H225499   5.939   2.309   0.555  0.3892 -0.5384 -0.7362
 1314TIP3   OH225500   3.409   2.019   8.109  0.1447 -0.1015  0.4347
 1314TIP3    H125501   3.386   1.930   8.083 -0.1792  0.4631 -1.3692
 1314TIP3    H225502   3.441   2.010   8.199 -1.6640 -1.7606  0.9956
 1315TIP3   OH225503   2.173   2.887   1.066  0.1344  0.2812  0.4429
 1315TIP3    H125504   2.113   2.900   0.993 -0.1105 -0.3738  0.5160
 1315TIP3    H225505   2.222   2.969   1.073  0.3787  0.2416 -0.6487
 1316TIP3   OH225506   0.629   4.352   2.226  0.9071  0.5192 -0.2123
 1316TIP3    H125507   0.539   4.349   2.195  1.1493 -0.0504 -0.8871
 1316TIP3    H225508   0.642   4.269   2.271  0.8758  0.9117  0.5425
 1317TIP3   OH225509   0.920   2.927   1.380  0.2837 -0.3711 -0.5787
 1317TIP3    H125510   0.977   2.997   1.351 -0.6352  1.0981  0.9775
 1317TIP3    H225511   0.900   2.948   1.471 -1.2357 -1.8367 -0.5182
 1318TIP3   OH225512   3.351   6.916   2.750  0.0823 -0.2387  0.2319
 1318TIP3    H125513   3.347   7.003   2.710 -3.1881 -0.5841 -0.4705
 1318TIP3    H225514   3.373   6.933   2.842 -1.8984  1.5291  0.4550
 1319TIP3   OH225515   5.738   1.816   1.408 -0.1350  0.1123 -0.1017
 1319TIP3    H125516   5.729   1.906   1.438 -1.2397 -0.7634  2.5218
 1319TIP3    H225517   5.755   1.823   1.314 -0.7071  3.0085 -0.0754
 1320TIP3   OH225518   3.805   3.538   4.057 -0.5167 -0.6580 -0.4068
 1320TIP3    H125519   3.853   3.490   3.990  3.1260 -0.2511  1.7053
 1320TIP3    H225520   3.839   3.628   4.051 -2.4705  0.1745 -0.0255
 1321TIP3   OH225521   0.675   6.385   0.501  0.2321 -0.1585 -0.1718
 1321TIP3    H125522   0.650   6.444   0.430 -0.8838 -0.3998 -0.0090
 1321TIP3    H225523   0.746   6.429   0.546 -1.2058  1.5322  0.5392
 1322TIP3   OH225524   3.912   0.841   0.601 -0.4535  0.2961  0.2180
 1322TIP3    H125525   3.990   0.859   0.654 -0.2223  2.7828 -0.8070
 1322TIP3    H225526   3.944   0.846   0.511 -1.3410 -1.1964 -0.2063
 1323TIP3   OH225527   1.658   5.779   2.143  0.1749 -0.0651 -0.1349
 1323TIP3    H125528   1.705   5.826   2.212 -0.6655 -1.0831  1.1931
 1323TIP3    H225529   1.645   5.691   2.179 -1.2518 -0.2996 -1.1331
 1324TIP3   OH225530   0.084   2.898   8.384  0.2638  0.4827  0.7800
 1324TIP3    H125531   0.165   2.853   8.358 -0.8805 -1.0748 -0.3107
 1324TIP3    H225532   0.108   2.990   8.386  1.5485  0.3101 -1.8296
 1325TIP3   OH225533   6.125   3.807   0.407 -0.0403 -0.3337 -0.1941
 1325TIP3    H125534   6.102   3.838   0.319  0.2963 -1.5924 -0.7371
 1325TIP3    H225535   6.085   3.871   0.466  1.3059  1.6145 -1.2735
 1326TIP3   OH225536   1.895   4.289   3.528  0.5127 -0.7959  0.0608
 1326TIP3    H125537   1.847   4.330   3.457  0.5982  1.5538  1.2737
 1326TIP3    H225538   1.830   4.233   3.572 -0.3930  0.2171  0.0426
 1327TIP3   OH225539   3.425   5.718   0.378  0.6353  0.3670 -0.5402
 1327TIP3    H125540   3.426   5.795   0.320  1.4696  0.3729 -0.5236
 1327TIP3    H225541   3.494   5.735   0.442 -1.0880  0.9475  1.2588
 1328TIP3   OH225542   2.687   3.322   3.403  0.0474 -0.0472 -0.0583
 1328TIP3    H125543   2.691   3.230   3.380 -2.7584 -0.0905 -0.8013
 1328TIP3    H225544   2.630   3.325   3.480  2.5313  0.8690  1.8571
 1329TIP3   OH225545   4.903   1.802   1.560  0.1091 -0.2238 -0.2265
 1329TIP3    H125546   4.893   1.747   1.638  0.7967 -0.8120 -0.5476
 1329TIP3    H225547   4.863   1.752   1.489  2.3567 -1.2050 -0.8978
 1330TIP3   OH225548   6.755   4.029   1.218  0.2058  0.7741 -0.5485
 1330TIP3    H125549   6.763   4.044   1.312  0.6448  0.0937 -0.4726
 1330TIP3    H225550   6.687   4.091   1.189 -1.3983 -0.3997  0.5585
 1331TIP3   OH225551   5.019   4.771   1.222 -0.2174  0.3112  0.2778
 1331TIP3    H125552   4.959   4.698   1.207  0.1987 -0.0071  0.1661
 1331TIP3    H225553   5.092   4.756   1.162 -0.1129  0.8025  0.2735
 1332TIP3   OH225554   4.111   5.136   2.898  0.1059  0.2870 -0.2806
 1332TIP3    H125555   4.112   5.230   2.912  1.6498  0.1024  1.0748
 1332TIP3    H225556   4.062   5.101   2.973  1.4759 -0.1354  0.4360
 1333TIP3   OH225557   5.864   0.561   3.513 -1.1691  0.0467 -0.0294
 1333TIP3    H125558   5.903   0.479   3.484  1.4994  0.0884  2.8449
 1333TIP3    H225559   5.771   0.553   3.494 -0.9499 -3.5094 -0.1512
 1334TIP3   OH225560   2.340   2.123   0.301 -0.3392  0.0909 -0.5950
 1334TIP3    H125561   2.331   2.121   0.206 -0.4133  0.1734 -0.5899
 1334TIP3    H225562   2.343   2.031   0.328 -1.3845  0.0596 -0.5693
 1335TIP3   OH225563   5.068   1.363   1.193 -0.1685  0.0086  0.5859
 1335TIP3    H125564   5.087   1.310   1.270  1.4838 -0.2724  0.0444
 1335TIP3    H225565   5.155   1.381   1.155 -0.8271  1.4684 -0.3226
 1336TIP3   OH225566   2.459   5.774   3.432  0.0723 -0.5651  0.6281
 1336TIP3    H125567   2.400   5.841   3.398 -0.1325  0.3741  2.6891
 1336TIP3    H225568   2.538   5.782   3.378 -0.8791 -0.4339 -0.8023
 1337TIP3   OH225569   2.221   2.949   1.468  0.6064 -0.2530 -0.1720
 1337TIP3    H125570   2.214   3.044   1.475  1.1248 -0.1799 -0.6071
 1337TIP3    H225571   2.275   2.923   1.542  0.7823 -0.1684 -0.2705
 1338TIP3   OH225572   5.830   3.392   2.134 -0.3537  0.3507  0.0910
 1338TIP3    H125573   5.897   3.330   2.163 -0.1096  0.3137 -0.5389
 1338TIP3    H225574   5.877   3.473   2.115 -0.4041  0.1797 -0.8220
 1339TIP3   OH225575   2.358   2.412   2.940  0.1769 -0.0626 -0.3375
 1339TIP3    H125576   2.436   2.436   2.991 -0.4185  1.2313 -0.0199
 1339TIP3    H225577   2.380   2.435   2.850  1.2474 -2.3914 -0.7657
 1340TIP3   OH225578   0.898   1.830   2.133  0.3586 -0.4557 -0.3680
 1340TIP3    H125579   0.878   1.747   2.090  1.5228 -0.3600 -1.1399
 1340TIP3    H225580   0.941   1.804   2.215 -1.1437 -0.6242  0.3984
 1341TIP3   OH225581   4.298   1.063   0.555  0.3967 -0.0880  0.1676
 1341TIP3    H125582   4.274   1.102   0.471 -0.3194 -1.0544 -0.0833
 1341TIP3    H225583   4.324   1.138   0.609  0.1520  0.6138 -0.6696
 1342TIP3   OH225584   5.869   6.882   1.494 -0.0955 -0.0549  0.5484
 1342TIP3    H125585   5.962   6.859   1.485 -0.5052 -1.2068 -1.2201
 1342TIP3    H225586   5.835   6.816   1.555 -0.0437 -0.6018  0.0038
 1343TIP3   OH225587   5.391   0.317   3.426  0.2391 -0.1136  0.4933
 1343TIP3    H125588   5.367   0.347   3.514 -1.4290  0.4250 -0.1033
 1343TIP3    H225589   5.423   0.228   3.439 -1.7201 -0.7242  1.4566
 1344TIP3   OH225590   0.571   0.134   4.302 -0.2908 -0.8720 -1.3103
 1344TIP3    H125591   0.585   0.075   4.376 -2.2849  2.1134  1.7792
 1344TIP3    H225592   0.476   0.133   4.289 -0.3281  1.1963 -1.4872
 1345TIP3   OH225593   4.809   3.630   2.360  0.0743 -0.2728 -0.5915
 1345TIP3    H125594   4.805   3.537   2.382  1.6033 -0.2858 -0.2624
 1345TIP3    H225595   4.862   3.634   2.281 -0.0656  0.3129 -0.6600
 1346TIP3   OH225596   0.783   6.321   2.053  0.2593 -0.3207  0.2790
 1346TIP3    H125597   0.835   6.245   2.029 -0.2411 -0.6172  0.1265
 1346TIP3    H225598   0.769   6.312   2.147 -0.9535 -1.1483  0.0342
 1347TIP3   OH225599   0.545   4.411   0.719 -0.1445 -0.4072 -0.1000
 1347TIP3    H125600   0.491   4.359   0.660 -0.1607  1.0521 -1.4571
 1347TIP3    H225601   0.518   4.502   0.702  0.4044  0.1198  1.6133
 1348TIP3   OH225602   3.810   6.185   3.828 -0.5997  0.0717 -0.0086
 1348TIP3    H125603   3.806   6.252   3.760 -0.5656 -0.8058 -0.8844
 1348TIP3    H225604   3.728   6.194   3.876  0.1196  1.8621  0.9784
 1349TIP3   OH225605   3.899   1.081   4.321 -0.2344 -0.3568 -0.4506
 1349TIP3    H125606   3.909   0.986   4.321  0.8574 -0.2532 -1.0048
 1349TIP3    H225607   3.834   1.098   4.389 -0.9945 -1.5487 -0.8478
 1350TIP3   OH225608   1.568   6.540   0.770  0.4037  0.8226  0.4417
 1350TIP3    H125609   1.654   6.512   0.737  0.2077  0.5854  0.1316
 1350TIP3    H225610   1.540   6.608   0.708 -0.2768 -0.1076 -0.2832
 1351TIP3   OH225611   3.866   5.615   3.160  0.2392  0.4041 -0.5479
 1351TIP3    H125612   3.902   5.652   3.080 -0.6300  1.4307 -0.4863
 1351TIP3    H225613   3.783   5.660   3.173  0.7466  0.9044  1.3817
 1352TIP3   OH225614   2.413   4.244   3.072 -0.4039 -0.1330  0.1839
 1352TIP3    H125615   2.424   4.307   3.001 -1.8791 -0.8973 -0.7836
 1352TIP3    H225616   2.472   4.172   3.050 -1.8475 -1.0018 -1.0945
 1353TIP3   OH225617   0.201   2.722   3.356 -0.1952  0.0892 -0.4806
 1353TIP3    H125618   0.276   2.664   3.344  0.2889 -0.1841  2.8235
 1353TIP3    H225619   0.125   2.668   3.334  0.3529 -1.3182  0.8764
 1354TIP3   OH225620   2.800   3.218   1.233 -0.0884 -0.2125  0.0476
 1354TIP3    H125621   2.731   3.161   1.266  0.8191  0.0421  2.5728
 1354TIP3    H225622   2.881   3.169   1.247  0.6338  1.3057  1.5604
 1355TIP3   OH225623   1.192   1.079   0.879 -0.5497 -0.5099  0.0896
 1355TIP3    H125624   1.266   1.055   0.824 -0.4604  0.9738 -0.4948
 1355TIP3    H225625   1.134   1.004   0.876 -0.3109 -0.6525 -1.6402
 1356TIP3   OH225626   2.115   1.360   2.563 -0.1711  0.3610  0.0778
 1356TIP3    H125627   2.141   1.339   2.473 -0.7876 -0.2244  0.0294
 1356TIP3    H225628   2.020   1.349   2.563 -0.1279 -0.0442  0.9127
 1357TIP3   OH225629   5.035   6.902   3.373 -0.2151 -0.6303 -0.0059
 1357TIP3    H125630   4.957   6.914   3.319  0.3131  0.8042 -0.4894
 1357TIP3    H225631   5.045   6.985   3.419  2.2604  0.1026 -1.6427
 1358TIP3   OH225632   4.431   1.159   4.294  0.3774 -0.0352 -0.2728
 1358TIP3    H125633   4.342   1.189   4.276  0.0813 -1.0700 -0.6306
 1358TIP3    H225634   4.482   1.239   4.305  0.1298  0.7082 -3.6085
 1359TIP3   OH225635   6.739   6.280   2.003  0.0702 -0.4975 -0.3057
 1359TIP3    H125636   6.739   6.196   1.957  0.3387 -0.6492 -0.0274
 1359TIP3    H225637   6.768   6.343   1.937  1.1831 -0.8292 -0.1434
 1360TIP3   OH225638   6.823   4.735   2.158  0.1019  0.4144  0.1779
 1360TIP3    H125639   6.840   4.813   2.105  0.5080  0.7711  0.8224
 1360TIP3    H225640   6.890   4.672   2.129  0.9481  0.9481  0.9455
 1361TIP3   OH225641   3.918   6.696   2.036 -0.2229  0.1480 -0.1631
 1361TIP3    H125642   3.989   6.654   1.989 -0.8424 -3.1560  1.5609
 1361TIP3    H225643   3.839   6.668   1.991 -0.7030 -1.4933  1.5609
 1362TIP3   OH225644   4.984   4.441   3.894  0.1749  0.5751 -0.1399
 1362TIP3    H125645   5.044   4.509   3.923 -0.3116  1.6625 -1.5287
 1362TIP3    H225646   4.902   4.459   3.941  0.4567  0.0236  0.5940
 1363TIP3   OH225647   6.262   2.853   2.791  0.0405 -0.0364 -0.0052
 1363TIP3    H125648   6.250   2.759   2.777 -0.5481 -0.1912  1.4072
 1363TIP3    H225649   6.346   2.859   2.837 -0.2917  0.0611  0.5912
 1364TIP3   OH225650   6.557   1.445   2.261  0.0345  0.1111  0.5855
 1364TIP3    H125651   6.584   1.504   2.190  1.0483 -0.7781  0.2054
 1364TIP3    H225652   6.492   1.388   2.222 -1.3679  1.2888  1.1023
 1365TIP3   OH225653   0.855   4.776   1.203 -0.0223  0.8455 -0.3935
 1365TIP3    H125654   0.884   4.691   1.171  0.7166  0.3920  1.3968
 1365TIP3    H225655   0.920   4.838   1.169 -0.9875  0.8769 -2.3607
 1366TIP3   OH225656   6.929   2.164   0.836 -0.3060  0.1255 -0.2934
 1366TIP3    H125657   6.998   2.150   0.771  0.7519 -1.0278  1.0078
 1366TIP3    H225658   6.924   2.081   0.884 -0.6365  1.1029  1.4481
 1367TIP3   OH225659   0.309   4.325   1.211  0.0691  0.2971 -0.3468
 1367TIP3    H125660   0.359   4.244   1.223 -1.3654 -0.7405 -1.0930
 1367TIP3    H225661   0.225   4.296   1.176 -0.9660  2.0162  0.6160
 1368TIP3   OH225662   2.566   4.411   1.495 -0.5055  0.0653 -0.6645
 1368TIP3    H125663   2.648   4.448   1.528 -1.4604  2.0558 -0.3620
 1368TIP3    H225664   2.514   4.394   1.573 -0.4752 -0.9765 -0.8638
 1369TIP3   OH225665   1.729   5.867   0.642  0.3755  0.3641 -0.8491
 1369TIP3    H125666   1.700   5.850   0.732  1.5708  0.7297 -0.3734
 1369TIP3    H225667   1.658   5.833   0.587 -0.7869  0.9238  0.2396
 1370TIP3   OH225668   4.533   2.870   0.016 -0.0710  0.1200 -0.6048
 1370TIP3    H125669   4.586   2.797   0.048  2.9108  1.4669 -2.1156
 1370TIP3    H225670   4.459   2.874   0.077  1.5405 -1.8688  1.6774
 1371TIP3   OH225671   6.819   6.843   3.686 -0.6388  0.5394  0.0982
 1371TIP3    H125672   6.897   6.872   3.639 -0.9824  0.5638 -0.4706
 1371TIP3    H225673   6.853   6.792   3.760 -0.0904 -0.7960 -1.0217
 1372TIP3   OH225674   4.776   0.076   4.108  0.2964  0.0276 -0.3761
 1372TIP3    H125675   4.799   0.100   4.018 -3.0144  2.2747 -0.8069
 1372TIP3    H225676   4.773   0.159   4.154 -0.0732 -0.8931  1.3187
 1373TIP3   OH225677   5.428   5.538   4.158 -0.5645 -0.0961 -0.1364
 1373TIP3    H125678   5.435   5.600   4.230  1.0275 -2.1310  1.5780
 1373TIP3    H225679   5.345   5.492   4.174 -0.9223  0.4305 -0.4530
 1374TIP3   OH225680   2.312   0.890   3.723  0.0436  0.1153  0.1175
 1374TIP3    H125681   2.232   0.894   3.669 -0.2511 -0.3624  0.5069
 1374TIP3    H225682   2.303   0.962   3.785  0.0075  0.1844  0.0319
 1375TIP3   OH225683   6.524   6.720   1.704 -0.1950 -0.1660  0.4196
 1375TIP3    H125684   6.491   6.810   1.693 -0.1430 -0.0579  1.1116
 1375TIP3    H225685   6.579   6.706   1.627 -1.4916 -0.1934 -0.5388
 1376TIP3   OH225686   3.103   0.665   2.900 -0.7014 -0.3743 -0.6162
 1376TIP3    H125687   3.044   0.658   2.976  1.7655  1.0058  1.5998
 1376TIP3    H225688   3.105   0.578   2.862 -1.9788 -1.1327  0.9457
 1377TIP3   OH225689   5.929   4.216   1.623 -0.5663 -0.7197  0.2776
 1377TIP3    H125690   5.855   4.191   1.677 -1.3491  0.2691 -0.3196
 1377TIP3    H225691   5.964   4.132   1.591  0.2926 -1.4018  2.7091
 1378TIP3   OH225692   6.874   6.671   1.644  1.0061 -0.5261 -0.2225
 1378TIP3    H125693   6.967   6.648   1.635  0.3946 -3.3706 -0.3029
 1378TIP3    H225694   6.852   6.647   1.734  0.4856  0.8307  0.0331
 1379TIP3   OH225695   5.987   0.391   3.849  0.8923 -0.2928  0.5094
 1379TIP3    H125696   6.010   0.473   3.806  2.0000 -0.4962  0.6724
 1379TIP3    H225697   5.932   0.345   3.786 -2.8580  2.0600  1.7946
 1380TIP3   OH225698   2.476   0.984   2.634 -0.0069  0.3680  0.4661
 1380TIP3    H125699   2.450   1.076   2.640  0.3933  0.4653  0.7482
 1380TIP3    H225700   2.426   0.941   2.704 -2.4603 -0.1812 -1.4951
 1381TIP3   OH225701   1.419   2.836   1.726  0.8556  0.1490 -0.1896
 1381TIP3    H125702   1.436   2.926   1.755  2.7893 -0.0180 -0.6853
 1381TIP3    H225703   1.424   2.784   1.807 -0.6993  0.4968  0.1676
 1382TIP3   OH225704   6.765   6.889   2.813  0.2962  0.2956 -0.4622
 1382TIP3    H125705   6.712   6.894   2.734  0.9239  0.9876 -0.8573
 1382TIP3    H225706   6.819   6.810   2.801 -0.9649 -0.6915  0.1674
 1383TIP3   OH225707   1.975   4.781   1.056  0.1522  0.0420 -0.0992
 1383TIP3    H125708   2.069   4.795   1.065  0.3103 -0.8721 -0.2515
 1383TIP3    H225709   1.945   4.853   1.000  0.7768  0.2532 -0.1690
 1384TIP3   OH225710   0.516   5.285   2.848 -0.4185 -0.0776 -0.0905
 1384TIP3    H125711   0.481   5.198   2.829 -2.0282  0.0376  2.0337
 1384TIP3    H225712   0.464   5.344   2.794 -0.4068 -0.3060 -0.3518
 1385TIP3   OH225713   2.926   3.182   3.668  0.2521  0.3530 -0.8971
 1385TIP3    H125714   2.930   3.252   3.603 -1.1614  1.4938  0.1600
 1385TIP3    H225715   2.955   3.223   3.749 -0.3935 -0.3297 -0.2958
 1386TIP3   OH225716   3.180   5.757   1.523  0.1402  0.3877 -0.2505
 1386TIP3    H125717   3.106   5.699   1.537 -0.2233  0.3949 -1.9301
 1386TIP3    H225718   3.142   5.845   1.529 -0.1677  0.3923 -1.7165
 1387TIP3   OH225719   1.733   3.910   3.076  0.0121  0.2897  0.1636
 1387TIP3    H125720   1.777   3.825   3.083 -2.3945 -1.0228  0.6261
 1387TIP3    H225721   1.779   3.967   3.137  1.6709 -0.6555 -0.1468
 1388TIP3   OH225722   6.347   5.498   3.184  0.0487  0.9186  0.1830
 1388TIP3    H125723   6.442   5.494   3.180 -0.0227  0.0371 -1.8785
 1388TIP3    H225724   6.325   5.589   3.168  0.5192  0.7393 -1.6756
 1389TIP3   OH225725   2.748   5.605   3.224  0.0346  0.2127  0.5688
 1389TIP3    H125726   2.760   5.555   3.305 -0.0436 -1.7116 -0.5379
 1389TIP3    H225727   2.749   5.697   3.252  1.2164 -0.3412  2.5792
 1390TIP3   OH225728   0.536   2.555   3.970  0.4559 -0.2845 -0.6035
 1390TIP3    H125729   0.608   2.607   4.005  0.4438 -0.1085 -0.8353
 1390TIP3    H225730   0.518   2.490   4.038 -1.3119  1.6451  0.9255
 1391TIP3   OH225731   1.192   4.556   1.225  0.2651 -0.2808  0.2195
 1391TIP3    H125732   1.237   4.486   1.273  0.1016  0.3718  1.3665
 1391TIP3    H225733   1.189   4.525   1.135  1.5290 -1.0828  0.4271
 1392TIP3   OH225734   3.170   5.635   0.844  0.1656  0.0680  0.0640
 1392TIP3    H125735   3.238   5.604   0.784 -2.5181  0.2685 -3.3931
 1392TIP3    H225736   3.136   5.555   0.885  1.7332 -0.1180  1.0883
 1393TIP3   OH225737   3.897   4.475   3.821  0.3607 -0.0687 -0.1485
 1393TIP3    H125738   3.811   4.489   3.781 -0.2255 -2.1384  0.2836
 1393TIP3    H225739   3.904   4.546   3.885 -0.8769  0.3451 -0.4272
 1394TIP3   OH225740   5.638   3.575   1.312  0.4406  1.0086 -0.0551
 1394TIP3    H125741   5.713   3.592   1.369  1.7311  1.3367 -1.7731
 1394TIP3    H225742   5.587   3.510   1.359  2.2385  0.1589  0.8269
 1395TIP3   OH225743   6.718   2.259   2.589  0.3169  0.5057  0.3485
 1395TIP3    H125744   6.728   2.164   2.593  1.0697  0.5213 -0.5643
 1395TIP3    H225745   6.807   2.293   2.605  0.7841  0.9036 -2.4897
 1396TIP3   OH225746   1.107   0.200   2.717  0.1360  0.2345  0.8665
 1396TIP3    H125747   1.111   0.184   2.811  0.9563 -1.8421  0.5402
 1396TIP3    H225748   1.198   0.202   2.689 -0.1009  0.8304  0.1088
 1397TIP3   OH225749   5.440   0.962   2.946 -0.1927 -0.4209  0.1550
 1397TIP3    H125750   5.425   0.944   2.854  1.4595  0.9363 -0.4362
 1397TIP3    H225751   5.455   1.057   2.950 -0.2644 -0.4389  1.8314
 1398TIP3   OH225752   4.410   1.238   0.753 -0.0233 -0.0060 -0.0085
 1398TIP3    H125753   4.366   1.323   0.750  2.2484  1.3036  0.8251
 1398TIP3    H225754   4.454   1.238   0.838  1.0068 -1.5064 -0.5181
 1399TIP3   OH225755   4.890   0.273   3.097 -0.0999  0.0795  0.3675
 1399TIP3    H125756   4.984   0.257   3.085 -0.0530  0.8771 -0.4868
 1399TIP3    H225757   4.849   0.227   3.023 -0.0084  3.1810 -1.7786
 1400TIP3   OH225758   1.900   1.863   0.022  0.6424  0.4335 -0.0737
 1400TIP3    H125759   1.953   1.803  -0.031  0.6638 -0.7400  1.2257
 1400TIP3    H225760   1.811   1.829   0.014  0.8499 -0.7133  1.8131
 1401TIP3   OH225761   2.854   1.101   2.980 -0.6406 -0.3491  0.5431
 1401TIP3    H125762   2.809   1.029   2.935  1.3351 -1.6554  0.5105
 1401TIP3    H225763   2.868   1.167   2.913 -0.3026 -1.0230 -0.0648
 1402TIP3   OH225764   5.500   0.506   1.262  0.3093 -0.3114  0.2175
 1402TIP3    H125765   5.440   0.579   1.273 -1.0197 -1.1219 -1.3260
 1402TIP3    H225766   5.583   0.547   1.237 -0.6153  0.6533 -1.3877
 1403TIP3   OH225767   6.388   0.007   1.571  0.7030  0.0125  0.3700
 1403TIP3    H125768   6.375  -0.066   1.511  0.9364 -0.4223  0.8371
 1403TIP3    H225769   6.397   0.084   1.515  0.0991 -0.2599 -0.1165
 1404TIP3   OH225770   5.641   1.087   3.873 -0.0012  0.6362  0.0897
 1404TIP3    H125771   5.557   1.127   3.897  0.8050  2.4107  0.1330
 1404TIP3    H225772   5.689   1.082   3.955 -0.7010 -2.2196  0.4510
 1405TIP3   OH225773   1.368   3.437   1.306  0.0696  0.3144 -0.1546
 1405TIP3    H125774   1.294   3.491   1.278  0.4080  0.6701 -0.3731
 1405TIP3    H225775   1.372   3.448   1.401  1.5510  2.5342 -0.4087
 1406TIP3   OH225776   4.086   2.662   1.687 -0.4459 -0.2600 -0.0308
 1406TIP3    H125777   4.177   2.679   1.711 -0.8097 -0.1382  1.3434
 1406TIP3    H225778   4.079   2.692   1.596  0.5044  1.0826  0.3184
 1407TIP3   OH225779   0.291   0.266   0.074  0.3687  0.2021  0.0162
 1407TIP3    H125780   0.331   0.229  -0.005 -1.3860  1.9866 -1.8038
 1407TIP3    H225781   0.338   0.348   0.089  0.0687  0.3266  0.2834
 1408TIP3   OH225782   3.178   5.326   3.196 -0.1083  0.2358 -0.2059
 1408TIP3    H125783   3.169   5.244   3.244 -0.1088  0.6171  0.4430
 1408TIP3    H225784   3.178   5.394   3.263 -0.7176  0.8138 -0.7813
 1409TIP3   OH225785   5.485   5.857   0.851  0.0420  0.1229  0.6158
 1409TIP3    H125786   5.428   5.833   0.924 -1.6871 -1.7731 -1.2299
 1409TIP3    H225787   5.523   5.774   0.823  0.3205  0.7394 -0.8944
 1410TIP3   OH225788   6.533   5.206   4.374  0.9353  0.8546 -0.1093
 1410TIP3    H125789   6.532   5.288   4.325 -0.2966  1.5710  1.0655
 1410TIP3    H225790   6.577   5.227   4.456 -1.8175  1.0977  1.3829
 1411TIP3   OH225791   0.373   5.566   2.111  0.5746 -0.7114  0.3728
 1411TIP3    H125792   0.413   5.485   2.141  1.2381 -0.0403  1.3990
 1411TIP3    H225793   0.444   5.613   2.067 -0.1818 -1.3206 -1.6084
 1412TIP3   OH225794   1.152   1.296   4.200 -0.4846  0.0574 -0.0978
 1412TIP3    H125795   1.106   1.212   4.201  1.1528 -0.8820  0.9099
 1412TIP3    H225796   1.154   1.324   4.291  2.3498 -0.8191  0.2118
 1413TIP3   OH225797   1.798   1.895   4.259  0.2396  0.2999 -0.8165
 1413TIP3    H125798   1.792   1.983   4.220 -1.1722  0.1545 -0.9905
 1413TIP3    H225799   1.748   1.901   4.340  0.1450 -0.3318 -0.8220
 1414TIP3   OH225800   5.137   4.932   1.821 -0.1115  0.4563  0.5500
 1414TIP3    H125801   5.175   4.938   1.733 -1.5226 -1.4599 -0.2466
 1414TIP3    H225802   5.173   4.852   1.858 -1.3416 -0.0287  0.7578
 1415TIP3   OH225803   2.059   5.658   1.931 -0.2947 -0.4624 -0.6091
 1415TIP3    H125804   2.037   5.714   2.005 -1.2146  1.9869 -2.6203
 1415TIP3    H225805   1.976   5.617   1.907 -0.1865 -0.5480 -0.8411
 1416TIP3   OH225806   0.074   3.958   2.362  0.0858 -0.0497  0.6068
 1416TIP3    H125807   0.006   3.943   2.427 -0.1668 -0.0796  0.3333
 1416TIP3    H225808   0.051   3.901   2.289 -0.1152  0.6316  0.1327
 1417TIP3   OH225809   4.141   3.031   2.709 -0.7600  0.5313 -0.3145
 1417TIP3    H125810   4.074   3.024   2.640 -1.9410  0.9577  0.7449
 1417TIP3    H225811   4.218   3.066   2.664 -1.9400  2.1760 -1.1695
 1418TIP3   OH225812   1.001   0.341   0.391  0.2327 -0.1044 -0.2973
 1418TIP3    H125813   1.026   0.299   0.309 -1.2126  0.2554 -0.9575
 1418TIP3    H225814   0.976   0.269   0.449  0.6437 -0.3234 -0.3920
 1419TIP3   OH225815   6.391   4.460   0.890 -0.7376 -0.4674 -0.0340
 1419TIP3    H125816   6.474   4.475   0.845 -1.4696  1.6239 -0.7748
 1419TIP3    H225817   6.376   4.539   0.941 -3.0282 -0.0557 -1.1997
 1420TIP3   OH225818   0.130   1.739   4.637  0.1872  0.1064 -0.2569
 1420TIP3    H125819   0.040   1.731   4.669  1.2275  0.7046  3.2548
 1420TIP3    H225820   0.138   1.830   4.610 -0.3981 -0.1086 -1.2008
 1421TIP3   OH225821   4.286   2.096   1.447  0.0973  0.3927 -0.1500
 1421TIP3    H125822   4.358   2.057   1.397 -0.1330  0.1363 -0.2877
 1421TIP3    H225823   4.242   2.153   1.383 -1.4433 -1.4887 -0.8714
 1422TIP3   OH225824   0.621   0.790   2.451  0.0405 -0.0407  0.5111
 1422TIP3    H125825   0.632   0.785   2.357 -1.4782  1.1094  0.2397
 1422TIP3    H225826   0.630   0.699   2.481 -0.6098 -0.5854 -0.8667
 1423TIP3   OH225827   1.389   2.697   0.054  0.0278  0.3460  0.0782
 1423TIP3    H125828   1.371   2.631   0.121  1.1577 -0.1149 -0.0608
 1423TIP3    H225829   1.307   2.746   0.046 -0.3898 -0.1548  1.1697
 1424TIP3   OH225830   0.455   3.891   3.824  0.1943  0.1176  0.3790
 1424TIP3    H125831   0.440   3.979   3.860  0.3939  2.1526 -3.8398
 1424TIP3    H225832   0.537   3.899   3.775  0.5090 -2.6449  0.3002
 1425TIP3   OH225833   1.973   6.430   1.576  0.2095 -0.2744 -0.5271
 1425TIP3    H125834   1.980   6.495   1.647 -0.5749 -0.6256 -0.1213
 1425TIP3    H225835   1.984   6.346   1.619  1.6744 -0.4199 -1.1201
 1426TIP3   OH225836   6.333   3.571   2.930  0.1335  0.2495 -0.2780
 1426TIP3    H125837   6.342   3.477   2.942 -1.3245 -0.1093 -1.6603
 1426TIP3    H225838   6.303   3.604   3.015 -0.1990 -0.6445 -0.0437
 1427TIP3   OH225839   2.783   6.154   1.614 -0.6305 -0.0074 -0.1711
 1427TIP3    H125840   2.774   6.249   1.605 -2.1593  0.0848  1.5897
 1427TIP3    H225841   2.695   6.124   1.640  0.0977 -1.7351  0.4801
 1428TIP3   OH225842   4.400   3.140   3.960  0.1096 -0.0917 -0.5726
 1428TIP3    H125843   4.309   3.131   3.932 -0.5708 -0.5143  1.6009
 1428TIP3    H225844   4.404   3.094   4.044  2.6143 -1.0840 -1.1427
 1429TIP3   OH225845   5.301   5.225   1.828  0.4381  0.2035  0.1978
 1429TIP3    H125846   5.382   5.226   1.880 -0.1976  2.0702  1.2112
 1429TIP3    H225847   5.231   5.226   1.893 -0.3803  1.8564 -0.6524
 1430TIP3   OH225848   2.439   6.564   2.289 -0.1501 -0.1979  0.6008
 1430TIP3    H125849   2.473   6.522   2.210 -0.3080 -1.3817  1.1472
 1430TIP3    H225850   2.388   6.638   2.256 -0.8730 -1.1320 -0.4542
 1431TIP3   OH225851   3.697   5.772   4.187 -0.7226 -0.3166  0.0112
 1431TIP3    H125852   3.668   5.861   4.164 -1.4380 -0.1398  1.4636
 1431TIP3    H225853   3.639   5.747   4.260  0.7160 -1.2198  0.8779
 1432TIP3   OH225854   1.998   1.535   3.424  0.2215 -0.4101  0.1805
 1432TIP3    H125855   1.915   1.490   3.411  0.9328 -1.7987  0.2076
 1432TIP3    H225856   1.974   1.623   3.453 -1.2313 -0.5142 -0.6308
 1433TIP3   OH225857   4.706   2.639   3.561 -0.5419  0.1861  0.1700
 1433TIP3    H125858   4.617   2.605   3.551 -1.0927  1.5528  0.2222
 1433TIP3    H225859   4.706   2.681   3.647 -0.0445  0.7606 -0.1060
 1434TIP3   OH225860   3.037   1.217   2.124  0.0710 -0.6316 -0.0715
 1434TIP3    H125861   3.115   1.182   2.080  0.0295 -0.4264 -0.3116
 1434TIP3    H225862   3.048   1.312   2.120 -1.4676 -0.4570 -2.5456
 1435TIP3   OH225863   0.469   6.752   2.315  0.2251 -0.0706 -0.2530
 1435TIP3    H125864   0.378   6.750   2.345  0.0698 -0.8672 -0.7505
 1435TIP3    H225865   0.503   6.665   2.335  0.7718  0.1049 -0.3998
 1436TIP3   OH225866   5.766   1.339   1.604 -0.6291 -0.2577 -0.0832
 1436TIP3    H125867   5.805   1.307   1.522  0.3706  0.3599  0.1353
 1436TIP3    H225868   5.789   1.431   1.607 -0.6705 -0.2727  0.8947
 1437TIP3   OH225869   5.376   1.771   3.583  0.1460  0.1533 -0.1702
 1437TIP3    H125870   5.305   1.723   3.625  1.5138 -1.6886  0.1418
 1437TIP3    H225871   5.423   1.813   3.654  0.4752 -0.1772 -0.1924
 1438TIP3   OH225872   5.538   6.104   1.710 -0.2370  0.1780 -0.3183
 1438TIP3    H125873   5.480   6.103   1.787  0.5995  1.0109  0.3459
 1438TIP3    H225874   5.581   6.018   1.712 -0.6199 -0.0122 -0.1657
 1439TIP3   OH225875   3.595   6.868   4.024 -0.2103 -0.1378 -0.2594
 1439TIP3    H125876   3.665   6.899   4.082  1.1479 -0.2352 -1.7855
 1439TIP3    H225877   3.514   6.894   4.069  0.7928  0.3601  1.3512
 1440TIP3   OH225878   4.168   6.534   0.877 -0.0211  0.3813  0.3006
 1440TIP3    H125879   4.088   6.489   0.903  0.4553 -0.0273  1.0731
 1440TIP3    H225880   4.207   6.563   0.959 -0.2602  2.1390 -0.1572
 1441TIP3   OH225881   4.366   4.720   4.932 -0.0448  0.7438 -0.3127
 1441TIP3    H125882   4.435   4.737   4.996  0.3729 -0.1412 -0.5107
 1441TIP3    H225883   4.405   4.659   4.870 -0.8816  0.5224 -0.6410
 1442TIP3   OH225884   0.328   6.240   3.496 -0.2507 -0.5006  0.4834
 1442TIP3    H125885   0.404   6.242   3.437 -0.6677  0.2985 -0.0532
 1442TIP3    H225886   0.364   6.264   3.582  0.0529  0.2525  0.1603
 1443TIP3   OH225887   5.610   4.657   2.013  0.4043 -0.5054 -0.9134
 1443TIP3    H125888   5.692   4.704   2.027 -1.1797  2.0600  0.8300
 1443TIP3    H225889   5.560   4.713   1.953 -0.6679 -1.1728 -0.6718
 1444TIP3   OH225890   0.900   2.084   2.602  0.5843  0.8232  1.1545
 1444TIP3    H125891   0.927   2.084   2.511  0.0346  1.9593  0.9682
 1444TIP3    H225892   0.940   2.006   2.640  2.5719  1.4496  0.4661
 1445TIP3   OH225893   4.249   6.470   2.986  0.0189 -0.1427  0.7300
 1445TIP3    H125894   4.210   6.436   2.906 -1.2021  1.1789  0.7317
 1445TIP3    H225895   4.240   6.565   2.980  2.2583  0.1823  1.2691
 1446TIP3   OH225896   6.424   1.084   3.858  0.2561 -0.2991  0.2442
 1446TIP3    H125897   6.385   0.998   3.874  0.7767 -0.4603  0.6632
 1446TIP3    H225898   6.475   1.103   3.937  0.4331  0.2369  0.0085
 1447TIP3   OH225899   1.813   1.335   4.185 -0.0979 -0.0335 -0.1619
 1447TIP3    H125900   1.885   1.330   4.248 -0.4673 -1.7217  0.1830
 1447TIP3    H225901   1.844   1.396   4.118  0.1868  2.0221  1.7371
 1448TIP3   OH225902   2.518   1.427   3.593  0.5891 -0.2751  0.1752
 1448TIP3    H125903   2.573   1.357   3.628 -1.0709 -2.1661 -0.8135
 1448TIP3    H225904   2.544   1.435   3.502  1.4219  1.1220  0.5066
 1449TIP3   OH225905   2.373   3.571   3.836 -0.1320 -0.8283  0.5032
 1449TIP3    H125906   2.283   3.605   3.839  0.4963  1.4768 -2.2658
 1449TIP3    H225907   2.402   3.573   3.927 -2.7703 -1.4603  1.4624
 1450TIP3   OH225908   6.346   1.337   3.309 -0.5625 -0.1284 -0.7098
 1450TIP3    H125909   6.264   1.302   3.343 -0.7972  0.9942 -0.0746
 1450TIP3    H225910   6.411   1.319   3.377 -0.5630  0.1641 -0.6324
 1451TIP3   OH225911   3.972   5.070   3.108  0.2431  0.0988 -0.1236
 1451TIP3    H125912   3.885   5.031   3.095  0.4048  0.2188 -1.7107
 1451TIP3    H225913   3.999   5.039   3.195 -0.2443 -2.1785 -0.7080
 1452TIP3   OH225914   3.552   4.792   3.879  0.1292 -0.5562 -0.0460
 1452TIP3    H125915   3.536   4.850   3.804 -0.4976 -1.6611 -0.8031
 1452TIP3    H225916   3.635   4.822   3.916  0.7135 -0.3004 -1.4973
 1453TIP3   OH225917   2.455   5.656   1.585  0.2078  0.1428  0.3129
 1453TIP3    H125918   2.545   5.656   1.616  0.7030  1.3161 -1.0031
 1453TIP3    H225919   2.402   5.671   1.663  0.8358 -3.5413  1.6781
 1454TIP3   OH225920   5.029   5.691   3.903 -0.0322  0.1457  0.1462
 1454TIP3    H125921   5.015   5.598   3.884  1.5760 -0.2604  0.7448
 1454TIP3    H225922   5.014   5.735   3.819 -2.6602 -0.3837  0.2586
 1455TIP3   OH225923   4.006   5.091   4.010  0.6555 -0.2434 -0.0791
 1455TIP3    H125924   4.007   5.019   4.072 -0.2526 -0.4650 -0.3068
 1455TIP3    H225925   3.947   5.156   4.049  1.7191  0.5224  0.2797
 1456TIP3   OH225926   1.457   3.841   0.533  0.1423  0.0290  0.3134
 1456TIP3    H125927   1.413   3.757   0.548  1.4148 -0.4810  1.4127
 1456TIP3    H225928   1.550   3.820   0.532  0.4648  1.3504 -0.0394
 1457TIP3   OH225929   1.588   1.466   2.532 -0.4383  0.8608  0.1728
 1457TIP3    H125930   1.562   1.392   2.586  0.2325 -1.4511 -2.4341
 1457TIP3    H225931   1.511   1.484   2.477 -0.0096  0.9272 -0.4155
 1458TIP3   OH225932   2.166   2.750   1.282 -0.0765  0.2288 -0.3221
 1458TIP3    H125933   2.194   2.808   1.353  1.2426 -0.6535 -0.0975
 1458TIP3    H225934   2.184   2.799   1.202 -1.2622  1.0939 -0.0953
 1459TIP3   OH225935   6.457   6.888   2.721  0.2511 -0.2128 -0.4150
 1459TIP3    H125936   6.381   6.848   2.679 -1.1411  0.4819  1.3520
 1459TIP3    H225937   6.512   6.916   2.647 -1.2759 -0.5537 -1.7528
 1460TIP3   OH225938   2.698   5.030   1.248 -0.1913  0.5858  0.2947
 1460TIP3    H125939   2.786   5.044   1.212 -0.0707 -1.1207 -0.1161
 1460TIP3    H225940   2.653   5.113   1.231 -0.1034  0.0216 -3.7171
 1461TIP3   OH225941   5.058   6.034   3.729  0.5403 -0.3831 -0.4319
 1461TIP3    H125942   5.057   6.023   3.634 -2.9465 -0.0741 -0.5905
 1461TIP3    H225943   5.128   6.097   3.745  1.0284 -0.2126 -2.8326
 1462TIP3   OH225944   3.529   5.496   1.392  0.1796 -0.8857 -0.0647
 1462TIP3    H125945   3.502   5.513   1.302 -0.5649 -0.8774  0.1561
 1462TIP3    H225946   3.476   5.422   1.420 -1.4877  0.6947  1.2076
 1463TIP3   OH225947   1.279   1.842   2.005  0.2665  0.2030 -0.0625
 1463TIP3    H125948   1.327   1.785   2.065  0.8146  1.6291  0.9129
 1463TIP3    H225949   1.329   1.840   1.924  0.8036  0.0472  0.2684
 1464TIP3   OH225950   3.433   0.369   3.294 -0.4091 -0.2678 -0.0565
 1464TIP3    H125951   3.443   0.342   3.385 -2.8339  1.3559  0.8084
 1464TIP3    H225952   3.505   0.430   3.279  1.0312 -1.8421  0.1653
 1465TIP3   OH225953   6.100   5.498   2.649 -0.2233  0.3285  0.1889
 1465TIP3    H125954   6.104   5.593   2.637 -0.0893  0.3390  0.3130
 1465TIP3    H225955   6.061   5.487   2.735 -0.5602  0.2654  0.0309
 1466TIP3   OH225956   4.173   0.973   0.795  0.1007  0.3485  0.0745
 1466TIP3    H125957   4.224   0.977   0.714 -0.3593 -0.3764 -0.2583
 1466TIP3    H225958   4.235   1.000   0.863  1.0802 -0.8988 -0.2684
 1467TIP3   OH225959   2.050   0.593   3.198  0.1501  0.2763  0.3489
 1467TIP3    H125960   1.961   0.618   3.221 -0.4383 -0.7227 -0.7386
 1467TIP3    H225961   2.105   0.647   3.255 -1.0785  2.5079 -0.4099
 1468TIP3   OH225962   0.189   1.441   0.739 -0.1134 -0.8576 -0.0875
 1468TIP3    H125963   0.097   1.461   0.724  0.0256 -1.6875 -2.4120
 1468TIP3    H225964   0.194   1.345   0.737  0.8915 -0.8055 -0.7517
 1469TIP3   OH225965   3.835   5.274   3.750 -0.2146  0.3455 -0.2794
 1469TIP3    H125966   3.837   5.206   3.683 -0.5862 -1.7490  1.6885
 1469TIP3    H225967   3.926   5.300   3.761  0.0855 -0.6250 -0.3547
 1470TIP3   OH225968   5.532   2.065   1.885 -0.1832 -0.0321 -0.1834
 1470TIP3    H125969   5.592   2.139   1.878  1.8517 -1.3757  1.6926
 1470TIP3    H225970   5.446   2.105   1.891  0.6601  2.0757 -1.0664
 1471TIP3   OH225971   5.627   3.929   4.186  0.1520 -0.1793 -0.2353
 1471TIP3    H125972   5.584   4.009   4.215  0.9866  0.3026 -0.2919
 1471TIP3    H225973   5.721   3.948   4.193  0.3733 -0.6841 -1.4688
 1472TIP3   OH225974   2.568   3.427   2.039 -0.3846 -0.1540  0.0159
 1472TIP3    H125975   2.598   3.398   1.952  0.3821 -0.4528  0.3695
 1472TIP3    H225976   2.615   3.370   2.100 -0.7244  0.2297  0.6333
 1473TIP3   OH225977   2.022   4.209   1.830  0.1951 -0.0346 -0.1127
 1473TIP3    H125978   1.956   4.143   1.808  0.1821 -0.3429  0.8200
 1473TIP3    H225979   1.974   4.275   1.880  0.3595  0.3210 -0.4228
 1474TIP3   OH225980   5.495   3.055   2.264  0.5692 -0.4347  0.2979
 1474TIP3    H125981   5.529   3.144   2.257 -1.1035  0.2860  0.8013
 1474TIP3    H225982   5.565   2.999   2.230  0.8454  1.2137 -2.0729
 1475TIP3   OH225983   0.248   3.361   3.128 -0.2641  0.3112  0.3095
 1475TIP3    H125984   0.260   3.303   3.053 -0.0949 -1.0256  1.3228
 1475TIP3    H225985   0.191   3.312   3.187  1.4033  0.3459  2.0348
 1476TIP3   OH225986   0.702   3.477   3.728 -0.9119  0.4349 -0.5153
 1476TIP3    H125987   0.650   3.545   3.771  1.1650  2.7487 -1.4523
 1476TIP3    H225988   0.780   3.469   3.782 -1.6381 -2.2690  0.3051
 1477TIP3   OH225989   1.878   3.322   1.200  0.0039 -0.6251 -0.3359
 1477TIP3    H125990   1.783   3.331   1.200  0.0838  0.6500  1.2198
 1477TIP3    H225991   1.894   3.232   1.171 -1.6093 -0.5878 -1.4710
 1478TIP3   OH225992   1.930   1.171   0.542  0.2393  0.1956 -0.0510
 1478TIP3    H125993   1.970   1.122   0.613  0.9348 -0.0257 -0.5872
 1478TIP3    H225994   1.845   1.199   0.577 -0.8464 -2.5884 -0.1631
 1479TIP3   OH225995   1.975   6.051   8.420  0.4186  0.1564  0.2462
 1479TIP3    H125996   1.917   5.977   8.400  0.3737  0.3659 -0.4073
 1479TIP3    H225997   1.917   6.125   8.433  0.4396  0.0211  1.2501
 1480TIP3   OH225998   6.154   5.841   0.617  0.1524 -0.2923 -0.2163
 1480TIP3    H125999   6.134   5.931   0.593 -0.2514 -0.5480 -0.8640
 1480TIP3    H226000   6.119   5.832   0.705 -1.0556 -0.2133 -0.6673
 1481TIP3   OH226001   6.308   3.368   1.392  0.2993 -0.5239 -0.2621
 1481TIP3    H126002   6.391   3.368   1.440 -0.0854 -0.7398  0.4157
 1481TIP3    H226003   6.253   3.307   1.440 -0.7992  0.8442  0.2717
 1482TIP3   OH226004   0.880   3.776   0.924 -0.0818  0.2739 -0.7776
 1482TIP3    H126005   0.910   3.685   0.918 -0.1926  0.0411  1.5405
 1482TIP3    H226006   0.938   3.817   0.987 -1.5749  1.1213  0.1065
 1483TIP3   OH226007   3.789   6.896   1.381 -0.2170 -0.1244  0.7021
 1483TIP3    H126008   3.839   6.955   1.437 -0.5139 -0.1501  0.9978
 1483TIP3    H226009   3.726   6.855   1.440 -0.1280 -0.6079  0.4654
 1484TIP3   OH226010   6.471   4.701   4.032 -0.3949  0.2492 -0.2516
 1484TIP3    H126011   6.393   4.666   3.989 -0.8220  0.9880 -0.1019
 1484TIP3    H226012   6.516   4.752   3.964  0.3655 -0.7762 -0.5420
 1485TIP3   OH226013   2.759   6.175   3.510 -0.3225  0.1210  0.2255
 1485TIP3    H126014   2.840   6.126   3.494  0.2122  1.1399 -0.3038
 1485TIP3    H226015   2.787   6.255   3.553 -1.2204 -0.1616  1.3782
 1486TIP3   OH226016   3.778   4.377   4.090  0.0688  0.1822  0.5697
 1486TIP3    H126017   3.819   4.403   4.008  0.2604  1.1103  0.9537
 1486TIP3    H226018   3.751   4.459   4.131 -2.0934 -0.3742  0.3926
 1487TIP3   OH226019   5.244   2.968   3.347 -0.8390  0.3121  0.1988
 1487TIP3    H126020   5.184   2.964   3.422 -1.1093  2.0173  0.1179
 1487TIP3    H226021   5.331   2.979   3.387 -0.6843 -0.9643  0.2800
 1488TIP3   OH226022   2.885   3.904   0.733  0.1636 -0.6413  0.7482
 1488TIP3    H126023   2.906   3.813   0.751  1.9190 -0.2986  0.7185
 1488TIP3    H226024   2.959   3.953   0.769  0.1438  0.6242 -0.7803
 1489TIP3   OH226025   4.531   5.421   4.621  0.2429  0.4897  0.1812
 1489TIP3    H126026   4.581   5.456   4.695  1.8056 -2.8925  0.9083
 1489TIP3    H226027   4.451   5.386   4.660  0.9889 -1.1372  0.3605
 1490TIP3   OH226028   6.506   5.891   3.451  0.3429  0.0457  0.3143
 1490TIP3    H126029   6.552   5.807   3.456  0.7578  0.0537 -2.0698
 1490TIP3    H226030   6.561   5.945   3.395 -1.2491  0.9907 -0.3949
 1491TIP3   OH226031   0.703   3.829   1.260 -0.2080 -0.1675  0.3504
 1491TIP3    H126032   0.699   3.860   1.169 -2.4667  0.6994  0.6909
 1491TIP3    H226033   0.657   3.745   1.258  0.9581 -0.8323  0.4777
 1492TIP3   OH226034   5.835   3.931   1.752  0.7072  0.3479 -0.0045
 1492TIP3    H126035   5.783   4.011   1.749 -0.7792 -0.5779 -0.6200
 1492TIP3    H226036   5.848   3.907   1.660  1.4243  0.0567  0.1672
 1493TIP3   OH226037   3.518   0.632   4.273 -0.3072  0.2207  0.0407
 1493TIP3    H126038   3.470   0.578   4.210 -0.8773 -1.0430  1.4962
 1493TIP3    H226039   3.610   0.613   4.256 -0.4360  0.1447 -0.6069
 1494TIP3   OH226040   4.697   3.900   2.316  0.2095 -0.3423  0.3748
 1494TIP3    H126041   4.726   3.810   2.300 -0.6285  0.0419 -5.2439
 1494TIP3    H226042   4.767   3.954   2.281 -0.8596  1.0821  0.3531
 1495TIP3   OH226043   4.824   6.694   2.217 -0.9824 -0.1421 -0.5318
 1495TIP3    H126044   4.737   6.670   2.186 -1.1740 -0.1361 -0.0007
 1495TIP3    H226045   4.847   6.626   2.280  0.0668 -1.0403 -1.8310
 1496TIP3   OH226046   5.950   0.183   3.141  0.9986  0.0778 -0.5794
 1496TIP3    H126047   5.982   0.156   3.055 -0.0418  2.2739 -1.7331
 1496TIP3    H226048   5.883   0.249   3.123 -0.9192 -1.0183  1.8676
 1497TIP3   OH226049   1.996   1.566   0.141  0.1623 -0.1675 -0.6707
 1497TIP3    H126050   2.062   1.498   0.124  1.3754  0.6200  0.6247
 1497TIP3    H226051   1.987   1.611   0.057  1.2916 -0.2929 -0.8819
 1498TIP3   OH226052   2.543   0.655   0.263  0.6845  0.4623 -0.0827
 1498TIP3    H126053   2.563   0.571   0.303  3.4690  0.9815 -0.2275
 1498TIP3    H226054   2.558   0.642   0.170 -1.7588  0.3825 -0.5267
 1499TIP3   OH226055   6.562   4.913   4.604 -0.0738 -0.1252 -0.1660
 1499TIP3    H126056   6.507   4.982   4.643  0.7610 -0.2506  1.3250
 1499TIP3    H226057   6.649   4.951   4.601 -0.0974 -0.1523 -1.9481
 1500TIP3   OH226058   5.685   6.484   3.242  0.0374  0.4653  0.5453
 1500TIP3    H126059   5.720   6.509   3.327 -0.9703 -1.1628  1.4928
 1500TIP3    H226060   5.599   6.526   3.238 -1.4102 -2.1111  1.8954
 1501TIP3   OH226061   6.528   4.563   3.368  0.2170 -0.6372 -0.3747
 1501TIP3    H126062   6.604   4.505   3.379  1.0086  0.2718 -0.9338
 1501TIP3    H226063   6.517   4.569   3.274 -1.0389 -1.3565 -0.2920
 1502TIP3   OH226064   6.325   6.466   1.734  0.2063  0.0936  0.0593
 1502TIP3    H126065   6.301   6.397   1.796  0.1986 -0.2882 -0.3613
 1502TIP3    H226066   6.406   6.503   1.770 -0.5466  0.8246  1.0408
 1503TIP3   OH226067   5.674   5.467   1.293 -0.0135 -0.1353 -0.2753
 1503TIP3    H126068   5.714   5.450   1.207  2.1813 -0.4750  0.7482
 1503TIP3    H226069   5.725   5.539   1.329 -0.2708 -0.6442  1.1480
 1504TIP3   OH226070   0.363   6.812   0.918  0.5640 -0.2098 -0.1623
 1504TIP3    H126071   0.414   6.767   0.850  1.1299 -1.4223  1.0138
 1504TIP3    H226072   0.417   6.888   0.942  1.0751 -0.6055 -0.0390
 1505TIP3   OH226073   4.495   5.030   2.074  0.0873 -0.3052  0.0548
 1505TIP3    H126074   4.550   4.953   2.091  0.5437 -0.5776 -2.2841
 1505TIP3    H226075   4.500   5.081   2.154  1.1168 -1.9119  1.0823
 1506TIP3   OH226076   0.333   2.489   3.093  0.6600 -0.3437 -0.5200
 1506TIP3    H126077   0.357   2.473   3.002 -0.4077 -3.9381 -0.3309
 1506TIP3    H226078   0.410   2.463   3.144  0.1938 -1.4168 -0.3300
 1507TIP3   OH226079   5.935   1.372   1.964 -0.3930 -0.2735  0.3431
 1507TIP3    H126080   5.892   1.287   1.963 -2.0952  0.5417 -0.2436
 1507TIP3    H226081   5.885   1.425   1.902  0.0051  1.4447  1.4266
 1508TIP3   OH226082   4.072   2.208   3.366  0.7813  0.7031  0.1674
 1508TIP3    H126083   3.991   2.204   3.315  0.2974  0.0356  0.9548
 1508TIP3    H226084   4.049   2.258   3.445  1.2146  0.7841  0.2450
 1509TIP3   OH226085   2.508   3.974   1.645 -0.5558 -0.2575 -0.6258
 1509TIP3    H126086   2.456   4.050   1.619 -2.5207 -0.8532  1.2466
 1509TIP3    H226087   2.559   4.004   1.719 -0.3597 -0.4235 -0.6922
 1510TIP3   OH226088   1.325   0.926   4.123  0.3235 -0.4035 -0.0331
 1510TIP3    H126089   1.239   0.966   4.131  1.2390  1.5413  0.9619
 1510TIP3    H226090   1.321   0.874   4.043 -1.7281 -0.3188 -0.0239
 1511TIP3   OH226091   5.072   1.201   2.398  0.0436 -0.4179 -0.0563
 1511TIP3    H126092   5.112   1.288   2.397  0.9647 -0.8320 -0.4120
 1511TIP3    H226093   4.986   1.215   2.437 -0.3267  0.8740 -1.2485
 1512TIP3   OH226094   0.035   4.957   1.061  0.1443  0.3639  1.0774
 1512TIP3    H126095   0.122   4.949   1.100  1.2530 -1.8230 -1.5417
 1512TIP3    H226096  -0.016   4.886   1.100  0.0193  0.6276  1.4010
 1513TIP3   OH226097   1.456   3.610   4.317  0.4489  0.3259  0.3509
 1513TIP3    H126098   1.527   3.566   4.363 -0.7984 -0.8513  1.2579
 1513TIP3    H226099   1.376   3.573   4.356 -0.6950 -0.6628 -2.6185
 1514TIP3   OH226100   6.435   6.794   1.372  0.2864 -0.1180  0.2216
 1514TIP3    H126101   6.527   6.773   1.390  0.3807  0.8679  0.9158
 1514TIP3    H226102   6.432   6.809   1.277  1.1222  1.1719  0.3852
 1515TIP3   OH226103   6.507   5.776   0.619 -0.3303 -0.0084  0.1603
 1515TIP3    H126104   6.602   5.774   0.610 -0.1830  0.5719  1.4329
 1515TIP3    H226105   6.475   5.791   0.530  0.8319  1.2923 -0.0745
 1516TIP3   OH226106   4.329   0.620   3.499 -0.0186  0.5868  0.6706
 1516TIP3    H126107   4.404   0.670   3.466 -1.3961  2.0047 -0.4553
 1516TIP3    H226108   4.332   0.538   3.450  1.5073  0.0627  1.5734
 1517TIP3   OH226109   2.090   1.149   2.903  0.6115 -0.1029  0.0244
 1517TIP3    H126110   2.129   1.236   2.894  0.4854 -0.1061 -0.5513
 1517TIP3    H226111   2.144   1.105   2.969  2.1715 -0.4475 -1.4260
 1518TIP3   OH226112   0.381   1.204   0.813 -0.2265  0.3920  0.0775
 1518TIP3    H126113   0.358   1.116   0.784  3.0957 -0.5521 -0.0644
 1518TIP3    H226114   0.354   1.207   0.905  0.5120 -1.2020  0.3888
 1519TIP3   OH226115   4.831   1.506   2.003  0.3452  0.3788 -0.4165
 1519TIP3    H126116   4.823   1.427   2.056  0.3292  0.8530  0.2955
 1519TIP3    H226117   4.764   1.495   1.935 -2.0517  1.3003  1.6541
 1520TIP3   OH226118   6.350   4.218   8.430 -0.1146 -0.0991 -0.0293
 1520TIP3    H126119   6.367   4.311   8.442 -0.2303  0.1309 -1.4221
 1520TIP3    H226120   6.281   4.198   8.494 -0.3698  0.8659  0.0174
 1521TIP3   OH226121   2.394   2.673   3.358 -0.2931  0.4722 -0.0729
 1521TIP3    H126122   2.422   2.592   3.401 -1.4061  0.1339  0.0391
 1521TIP3    H226123   2.421   2.743   3.417 -0.9112  0.0730  0.6940
 1522TIP3   OH226124   4.931   3.965   2.177  0.2331  0.3888  0.2165
 1522TIP3    H126125   4.972   3.895   2.126 -1.2314 -0.9809  0.8166
 1522TIP3    H226126   4.915   4.034   2.113 -1.6220 -1.3075 -1.3375
 1523TIP3   OH226127   4.796   3.121   2.969 -0.9750  0.1777  0.2483
 1523TIP3    H126128   4.880   3.142   3.009 -1.0616  0.0938  0.4717
 1523TIP3    H226129   4.810   3.037   2.926 -1.0185  0.0353  0.5090
 1524TIP3   OH226130   3.304   4.188   2.668  0.2465  0.1813 -0.0723
 1524TIP3    H126131   3.307   4.147   2.582 -1.5310  0.3226 -0.2431
 1524TIP3    H226132   3.256   4.126   2.724 -0.6088  1.0594  0.2058
 1525TIP3   OH226133   3.391   5.458   1.159  0.1881 -0.2049  0.5460
 1525TIP3    H126134   3.356   5.400   1.226 -0.4015  0.8802  1.2069
 1525TIP3    H226135   3.343   5.540   1.171 -1.7659 -0.7082 -2.8275
 1526TIP3   OH226136   1.722   3.709   0.533 -0.7077  0.0750  0.0125
 1526TIP3    H126137   1.800   3.765   0.537 -1.3063  0.8757  0.6787
 1526TIP3    H226138   1.735   3.657   0.453  1.3391 -1.0709  1.0048
 1527TIP3   OH226139   0.189   4.902   3.452  0.2935 -0.9238 -0.4701
 1527TIP3    H126140   0.175   4.977   3.393  2.9377  0.3806  0.3998
 1527TIP3    H226141   0.276   4.870   3.429  1.4762 -0.3289  2.6369
 1528TIP3   OH226142   5.186   2.875   4.707 -0.2878 -0.1211 -0.7086
 1528TIP3    H126143   5.218   2.959   4.673  1.2063 -0.8354 -1.1776
 1528TIP3    H226144   5.221   2.810   4.647  0.4080 -1.2444  0.8306
 1529TIP3   OH226145   0.511   4.300   2.802 -0.1489  0.0832  0.1430
 1529TIP3    H126146   0.552   4.283   2.717  0.3701  0.0232  0.4025
 1529TIP3    H226147   0.436   4.242   2.805  0.0564 -0.1950 -0.1161
 1530TIP3   OH226148   1.728   3.021   1.835 -0.6684  0.4576  0.0702
 1530TIP3    H126149   1.641   3.050   1.806 -0.1406  2.3801  0.2839
 1530TIP3    H226150   1.717   3.004   1.928 -0.3572  2.9094  0.6211
 1531TIP3   OH226151   0.362   5.443   3.557 -0.4275 -0.4170 -0.5965
 1531TIP3    H126152   0.386   5.533   3.534  2.2740 -1.3421 -1.7660
 1531TIP3    H226153   0.323   5.408   3.477 -1.8631 -0.2325 -0.0172
 1532TIP3   OH226154   2.946   4.823   4.028  0.2107  0.3624  0.9860
 1532TIP3    H126155   2.962   4.772   4.108  0.4620 -1.3784 -0.1264
 1532TIP3    H226156   2.960   4.761   3.957  0.8122  2.0886 -0.4686
 1533TIP3   OH226157   2.993   6.908   2.795 -0.6165  0.2372  0.2810
 1533TIP3    H126158   3.074   6.865   2.824  0.4338  1.2559 -0.9853
 1533TIP3    H226159   3.012   6.937   2.706 -1.8648  1.7857  0.4719
 1534TIP3   OH226160   3.556   5.346   2.419  0.4717  0.3370 -0.1742
 1534TIP3    H126161   3.498   5.295   2.476 -2.2153  2.0917 -1.1139
 1534TIP3    H226162   3.545   5.306   2.332  0.8342  0.5786 -0.3337
 1535TIP3   OH226163   4.695   3.931   2.837 -0.4058  0.2672  0.2924
 1535TIP3    H126164   4.628   3.989   2.872 -0.5534 -0.6098  1.5312
 1535TIP3    H226165   4.654   3.889   2.761 -0.1692  2.0082 -0.8454
 1536TIP3   OH226166   3.656   0.982   3.275 -0.6562 -0.3714  0.2024
 1536TIP3    H126167   3.699   0.947   3.353 -1.4970 -1.5021  0.1792
 1536TIP3    H226168   3.562   0.980   3.296 -1.0839 -2.6514 -1.5685
 1537TIP3   OH226169   5.371   2.789   3.661  0.0095  0.3715  0.7300
 1537TIP3    H126170   5.423   2.757   3.735  0.0749  0.8563  0.8921
 1537TIP3    H226171   5.391   2.882   3.656 -1.3586  0.7176  1.2108
 1538TIP3   OH226172   1.485   3.743   3.444  0.0688  1.2913  0.6271
 1538TIP3    H126173   1.570   3.706   3.465 -0.6620 -1.1574 -0.3791
 1538TIP3    H226174   1.500   3.838   3.437  2.4393  1.0263  1.5174
 1539TIP3   OH226175   2.111   2.535   1.958 -0.1149  0.0238 -0.6323
 1539TIP3    H126176   2.167   2.612   1.949  0.6646 -0.1883  1.8453
 1539TIP3    H226177   2.044   2.547   1.890 -0.1542  3.0126 -0.2041
 1540TIP3   OH226178   4.873   4.149   1.937  0.5161  0.0568 -0.1147
 1540TIP3    H126179   4.932   4.129   1.865  1.3992  0.8627  0.3516
 1540TIP3    H226180   4.821   4.223   1.906  1.8758  1.3590  0.5230
 1541TIP3   OH226181   3.764   4.462   2.846 -0.0535 -0.3811 -0.2381
 1541TIP3    H126182   3.812   4.415   2.778  1.4574 -1.1846  1.3037
 1541TIP3    H226183   3.706   4.521   2.798  1.3794 -0.4721 -2.2141
 1542TIP3   OH226184   6.434   4.260   1.238 -0.2001  0.3596 -0.2510
 1542TIP3    H126185   6.346   4.255   1.201 -0.1108  1.2734 -0.6135
 1542TIP3    H226186   6.484   4.193   1.191 -0.7809 -0.4220  0.2205
 1543TIP3   OH226187   5.118   1.872   1.424 -0.2857 -0.0540  0.2073
 1543TIP3    H126188   5.094   1.833   1.340 -1.7573 -0.3775  0.7425
 1543TIP3    H226189   5.050   1.843   1.485 -0.6326  2.1495  0.9696
 1544TIP3   OH226190   0.302   1.494   3.330  1.0271 -0.9221 -0.4971
 1544TIP3    H126191   0.346   1.425   3.280  1.0828 -1.1104 -0.1884
 1544TIP3    H226192   0.372   1.555   3.352  0.7745 -0.1321 -1.8173
 1545TIP3   OH226193   2.392   2.147   3.898 -0.5182 -0.0292 -0.3405
 1545TIP3    H126194   2.432   2.064   3.924 -3.3182 -2.0522 -1.8547
 1545TIP3    H226195   2.330   2.167   3.968 -0.0530  0.6674 -0.1185
 1546TIP3   OH226196   6.274   3.682   1.428  0.3035 -0.2577 -0.4161
 1546TIP3    H126197   6.277   3.586   1.420 -0.4678 -0.3285  0.0499
 1546TIP3    H226198   6.280   3.714   1.338 -2.0118 -0.8308 -0.8412
 1547TIP3   OH226199   4.729   3.454   1.078  0.7314  0.4158 -0.1494
 1547TIP3    H126200   4.716   3.465   0.983 -0.9935 -1.8441 -0.2785
 1547TIP3    H226201   4.824   3.450   1.089  1.0774  2.9767 -1.4037
 1548TIP3   OH226202   1.514   0.914   1.809 -0.3731 -0.0466 -0.0939
 1548TIP3    H126203   1.453   0.987   1.805 -0.0287  0.2445 -0.1294
 1548TIP3    H226204   1.472   0.844   1.759 -0.1310  0.5646 -1.1825
 1549TIP3   OH226205   4.288   2.364   3.351  0.4288 -0.2122  0.0269
 1549TIP3    H126206   4.222   2.300   3.328 -0.1268  0.0989  0.7045
 1549TIP3    H226207   4.368   2.313   3.362  0.5969 -0.4356 -1.9491
 1550TIP3   OH226208   0.903   2.715   4.517 -0.8277  0.2893 -0.3310
 1550TIP3    H126209   0.821   2.700   4.565 -0.4992 -1.2959 -0.1994
 1550TIP3    H226210   0.971   2.699   4.582 -0.3838  1.9618 -0.3401
 1551TIP3   OH226211   3.516   1.337   2.357 -0.6148  0.1960  0.6351
 1551TIP3    H126212   3.500   1.377   2.272 -1.2784  0.2844  0.7911
 1551TIP3    H226213   3.466   1.391   2.418  1.3080  1.2396  1.3622
 1552TIP3   OH226214   3.211   4.629   3.571 -0.8945 -0.6601  0.2799
 1552TIP3    H126215   3.161   4.568   3.517 -2.3291 -0.4183  1.3004
 1552TIP3    H226216   3.281   4.576   3.608  0.0485 -0.8641 -1.6530
 1553TIP3   OH226217   3.196   2.781   2.718 -0.0906 -0.0122 -0.2105
 1553TIP3    H126218   3.231   2.863   2.751  1.3714 -1.1077  1.1607
 1553TIP3    H226219   3.266   2.746   2.663 -0.4340 -0.6150 -0.2713
 1554TIP3   OH226220   1.016   3.561   4.573 -0.4363 -0.2211 -0.2996
 1554TIP3    H126221   0.924   3.587   4.573 -0.9264 -1.8213 -0.4765
 1554TIP3    H226222   1.018   3.482   4.627  1.0106  0.2925  0.4633
 1555TIP3   OH226223   1.348   5.425   2.944  0.1431  0.0385 -0.6168
 1555TIP3    H126224   1.379   5.365   2.876  0.7384 -0.0121 -0.3096
 1555TIP3    H226225   1.259   5.448   2.917  1.0640  1.6542 -2.5335
 1556TIP3   OH226226   4.044   0.097   2.998  0.2852  0.1338  0.4612
 1556TIP3    H126227   4.044   0.091   2.903 -1.3072 -0.7729  0.4888
 1556TIP3    H226228   4.108   0.166   3.018  0.0033  0.9486 -1.2957
 1557TIP3   OH226229   6.686   2.661   1.700 -0.4613  0.6751  0.4680
 1557TIP3    H126230   6.660   2.688   1.612 -0.9025  1.0261  0.7003
 1557TIP3    H226231   6.749   2.591   1.686 -1.3313 -0.0227 -0.1238
 1558TIP3   OH226232   4.637   1.028   4.721 -0.3170 -0.0032 -0.3738
 1558TIP3    H126233   4.581   1.025   4.643 -1.9714 -1.2555  0.8031
 1558TIP3    H226234   4.664   0.937   4.734 -0.0020  0.2066  0.4856
 1559TIP3   OH226235   2.904   2.049   2.388 -0.2505  0.4369 -0.4161
 1559TIP3    H126236   2.963   2.124   2.382 -0.0578  0.2277 -1.2697
 1559TIP3    H226237   2.889   2.023   2.297 -1.6074  0.4464 -0.2234
 1560TIP3   OH226238   2.100   0.401   3.725  0.3634 -0.3576 -0.0118
 1560TIP3    H126239   2.039   0.359   3.785  0.6287 -1.4798 -0.4971
 1560TIP3    H226240   2.175   0.426   3.779 -0.2502  0.4855  0.4740
 1561TIP3   OH226241   1.527   3.037   1.056  0.0450  0.1641  0.0397
 1561TIP3    H126242   1.614   3.003   1.078 -0.9230 -0.9657  2.4300
 1561TIP3    H226243   1.545   3.114   1.001  2.4594 -1.1012 -1.1228
 1562TIP3   OH226244   2.345   1.680   2.355 -0.1232  0.2423 -0.2180
 1562TIP3    H126245   2.309   1.763   2.385  0.2912 -0.5893  3.0469
 1562TIP3    H226246   2.270   1.634   2.316 -1.1236  0.9416  0.8032
 1563TIP3   OH226247   6.594   1.185   0.231  0.1141  0.1400 -0.0505
 1563TIP3    H126248   6.663   1.142   0.182 -0.5680 -0.6068 -0.3755
 1563TIP3    H226249   6.611   1.279   0.220  1.6282 -0.0299  0.6880
 1564TIP3   OH226250   2.621   2.429   0.985 -0.2288  0.2511 -0.1024
 1564TIP3    H126251   2.608   2.521   0.960  1.4971  0.7278  0.6064
 1564TIP3    H226252   2.716   2.418   0.989 -0.4052 -1.2462  0.9802
 1565TIP3   OH226253   1.531   5.060   2.794 -0.2978 -0.0460  0.0074
 1565TIP3    H126254   1.573   5.022   2.871 -0.5953 -1.8659 -0.6594
 1565TIP3    H226255   1.603   5.079   2.734  0.0249  2.3263  1.0772
 1566TIP3   OH226256   5.279   0.652   0.459  0.2948  0.2983 -0.2591
 1566TIP3    H126257   5.367   0.623   0.433  0.4245  0.6366 -0.2066
 1566TIP3    H226258   5.244   0.695   0.382 -0.1650 -0.5855 -0.5549
 1567TIP3   OH226259   0.420   5.113   3.468  0.5990 -0.2016  0.0432
 1567TIP3    H126260   0.397   5.183   3.529 -0.4242 -0.6354  0.1655
 1567TIP3    H226261   0.505   5.140   3.433  0.1458  1.2113 -0.0523
 1568TIP3   OH226262   2.978   6.316   2.322  0.0555  0.8769 -0.4416
 1568TIP3    H126263   3.015   6.377   2.385  1.7753 -1.3488  0.8476
 1568TIP3    H226264   3.040   6.316   2.249  0.8654 -0.3906  0.2273
 1569TIP3   OH226265   5.653   4.895   3.994 -0.4550  0.4987 -0.3432
 1569TIP3    H126266   5.621   4.929   4.077 -0.8739  0.4960 -0.4994
 1569TIP3    H226267   5.675   4.973   3.943 -0.8019  0.5179 -0.4635
 1570TIP3   OH226268   3.274   2.433   2.163  0.0417 -0.1407 -0.2669
 1570TIP3    H126269   3.323   2.474   2.092 -1.5710  0.9025 -0.8367
 1570TIP3    H226270   3.243   2.507   2.216  0.0585 -0.8366  0.7331
 1571TIP3   OH226271   1.322   0.157   3.790 -0.0879  0.1261 -0.1809
 1571TIP3    H126272   1.312   0.130   3.699  1.4962  1.6519 -0.8688
 1571TIP3    H226273   1.416   0.156   3.805 -0.3724 -3.4179  2.5891
 1572TIP3   OH226274   0.132   0.326   4.403  0.6307 -0.0723  0.2247
 1572TIP3    H126275   0.140   0.406   4.351  0.7783 -0.4594 -0.3520
 1572TIP3    H226276   0.079   0.267   4.350  1.3785 -0.7319  0.1920
 1573TIP3   OH226277   5.621   4.469   2.568  0.6053 -0.2216  0.6993
 1573TIP3    H126278   5.557   4.541   2.561  0.9771  0.0795  0.3279
 1573TIP3    H226279   5.584   4.399   2.515  0.6630  0.0178  0.3361
 1574TIP3   OH226280   4.611   1.450   3.123 -0.1402 -0.0499 -0.0053
 1574TIP3    H126281   4.644   1.465   3.212  0.3426  0.1228 -0.2099
 1574TIP3    H226282   4.564   1.530   3.101 -0.4523 -0.1806  0.1765
 1575TIP3   OH226283   4.539   5.003   2.736 -0.7634  0.5176  0.2978
 1575TIP3    H126284   4.485   5.079   2.756  0.0869  1.1392  0.2908
 1575TIP3    H226285   4.628   5.031   2.756 -0.5891 -1.0909  2.1799
 1576TIP3   OH226286   2.604   3.272   1.775  0.2152  0.8746  0.1294
 1576TIP3    H126287   2.584   3.303   1.686  0.1555  0.3618 -0.0351
 1576TIP3    H226288   2.522   3.234   1.806  0.4562  0.3297  0.1023
 1577TIP3   OH226289   5.048   0.515   4.367  0.2599  0.1196  0.1641
 1577TIP3    H126290   5.093   0.591   4.403  2.5955 -1.6150  1.1879
 1577TIP3    H226291   5.119   0.454   4.345 -1.5109 -1.8187 -0.4916
 1578TIP3   OH226292   6.267   3.227   2.334  0.7405  0.0727 -0.1205
 1578TIP3    H126293   6.272   3.314   2.373  0.2709  0.1955 -0.3359
 1578TIP3    H226294   6.338   3.226   2.269 -0.0251  0.7298 -0.9881
 1579TIP3   OH226295   6.481   0.367   3.506 -0.1597  0.3241 -0.8472
 1579TIP3    H126296   6.486   0.380   3.601 -0.0400  0.3513 -0.8570
 1579TIP3    H226297   6.501   0.274   3.494  2.0956  0.7644 -1.0181
 1580TIP3   OH226298   4.562   5.894   0.858  0.0366  0.2650 -0.0579
 1580TIP3    H126299   4.479   5.928   0.823  1.5461  1.8873 -2.4193
 1580TIP3    H226300   4.618   5.971   0.865  1.8794 -0.9964 -0.1646
 1581TIP3   OH226301   5.115   6.551   4.887  0.4869  0.5509 -0.2643
 1581TIP3    H126302   5.069   6.570   4.969  0.5483 -0.3698 -0.0048
 1581TIP3    H226303   5.207   6.547   4.912  0.5245  0.4725 -0.4164
 1582TIP3   OH226304   1.177   3.537   4.375  0.1012 -0.0377  1.3874
 1582TIP3    H126305   1.111   3.562   4.440  1.0398 -0.0602  2.3774
 1582TIP3    H226306   1.177   3.441   4.377 -1.2501 -0.1153 -0.1060
 1583TIP3   OH226307   3.824   0.975   3.537 -0.2616 -0.0280 -0.3930
 1583TIP3    H126308   3.849   0.973   3.629  0.5237  0.0964 -0.6003
 1583TIP3    H226309   3.902   1.005   3.491 -0.7618  0.2815 -1.0633
 1584TIP3   OH226310   4.588   1.683   2.884  0.4547  0.1920 -0.2657
 1584TIP3    H126311   4.553   1.614   2.827  0.7851 -0.2504  0.0490
 1584TIP3    H226312   4.683   1.670   2.880  0.4375 -1.0116  1.7775
 1585TIP3   OH226313   1.846   1.499   3.980 -0.7993  0.5748 -0.6817
 1585TIP3    H126314   1.907   1.526   3.912  0.6893 -0.7723  0.0679
 1585TIP3    H226315   1.774   1.562   3.973  0.8791  2.5520 -1.2656
 1586TIP3   OH226316   6.251   0.980   3.407  0.0856  0.0828 -0.0287
 1586TIP3    H126317   6.214   1.067   3.392 -1.0642 -0.3717  0.0175
 1586TIP3    H226318   6.176   0.927   3.434  0.8871 -0.7721  0.5682
 1587TIP3   OH226319   3.625   1.274   3.406 -0.3020 -0.1984 -0.3335
 1587TIP3    H126320   3.674   1.192   3.413 -1.5102 -0.8719  0.4756
 1587TIP3    H226321   3.645   1.321   3.486 -1.5164 -0.8039  0.3526
 1588TIP3   OH226322   6.074   3.872   4.680 -0.3061  0.0920 -0.0951
 1588TIP3    H126323   6.152   3.911   4.718 -1.0229  0.7078  0.7794
 1588TIP3    H226324   6.062   3.918   4.597  0.6411 -0.5029 -0.5871
 1589TIP3   OH226325   3.169   4.147   3.446  0.7187 -0.5504  0.3058
 1589TIP3    H126326   3.098   4.095   3.410 -1.0864 -0.2282  3.0584
 1589TIP3    H226327   3.238   4.084   3.465  0.5058 -1.1440 -0.8155
 1590TIP3   OH226328   5.561   1.577   3.461  0.2879  0.2116  0.1989
 1590TIP3    H126329   5.510   1.654   3.488  0.2995  0.8981 -1.6466
 1590TIP3    H226330   5.495   1.509   3.449  0.1117  0.3359  0.4324
 1591TIP3   OH226331   2.588   1.963   2.508 -0.1899 -0.4697  0.2428
 1591TIP3    H126332   2.634   1.884   2.481  1.8403  0.1048  1.7026
 1591TIP3    H226333   2.594   1.963   2.604  0.4544  1.7234  0.2733
 1592TIP3   OH226334   6.886   2.614   1.427  0.4134  0.6408 -0.3346
 1592TIP3    H126335   6.926   2.538   1.384 -2.6339 -1.4012  0.1126
 1592TIP3    H226336   6.922   2.612   1.516 -1.5210 -2.0624  0.5301
 1593TIP3   OH226337   2.552   0.747   4.632 -0.3218  0.2644 -0.3238
 1593TIP3    H126338   2.535   0.657   4.602 -0.5188  0.4801 -0.8806
 1593TIP3    H226339   2.618   0.738   4.700 -1.5059 -0.4525  0.7584
 1594TIP3   OH226340   0.586   4.769   0.936  0.5744 -0.3941  0.2211
 1594TIP3    H126341   0.671   4.725   0.934  0.0967 -1.7655  3.3476
 1594TIP3    H226342   0.606   4.862   0.930  2.7020 -0.4453  3.8654
 1595TIP3   OH226343   6.804   1.454   2.052 -0.4689  0.2201  0.0985
 1595TIP3    H126344   6.896   1.470   2.030 -0.6895  0.3961 -0.7438
 1595TIP3    H226345   6.756   1.523   2.006 -1.1843 -1.0259 -1.1033
 1596TIP3   OH226346   2.742   3.805   4.586  0.5310 -0.0412  0.6175
 1596TIP3    H126347   2.668   3.802   4.526  0.6185  0.9691  0.4450
 1596TIP3    H226348   2.792   3.881   4.559  0.0149  1.0623  2.5915
 1597TIP3   OH226349   6.308   1.735   2.214 -0.4995  0.2322  0.0879
 1597TIP3    H126350   6.281   1.772   2.297  0.2214  0.4398  0.2373
 1597TIP3    H226351   6.242   1.668   2.194  0.2442 -1.0462  1.6768
 1598TIP3   OH226352   3.025   1.506   2.019 -0.2244  0.1901  0.6106
 1598TIP3    H126353   3.096   1.569   2.027 -0.0768  0.3578 -1.4626
 1598TIP3    H226354   2.947   1.554   2.047  0.3408  0.2231  2.2082
 1599TIP3   OH226355   3.930   4.158   2.135  0.3813  0.0367  0.5295
 1599TIP3    H126356   3.875   4.085   2.163 -0.8206 -0.4638 -2.6788
 1599TIP3    H226357   4.002   4.116   2.087 -0.6845  0.8635 -1.9394
 1600TIP3   OH226358   3.090   1.975   3.013 -0.2418  0.3221 -0.4398
 1600TIP3    H126359   3.174   1.995   2.972  0.1025  0.8452  0.4936
 1600TIP3    H226360   3.108   1.901   3.070 -0.5314  0.1155 -0.6129
 1601TIP3   OH226361   5.425   2.847   0.418  0.5127 -0.5472  0.7051
 1601TIP3    H126362   5.501   2.792   0.440  2.1812  1.2600 -0.2421
 1601TIP3    H226363   5.409   2.898   0.497 -0.3213 -1.5517  1.2054
 1602TIP3   OH226364   3.137   4.957   3.027  0.0344  0.1778 -0.1868
 1602TIP3    H126365   3.078   4.938   3.100  1.2803  1.6213  1.2730
 1602TIP3    H226366   3.079   4.971   2.952 -1.3976  0.2897  0.9012
 1603TIP3   OH226367   0.617   6.164   8.336  0.1232 -0.1094  0.0322
 1603TIP3    H126368   0.525   6.168   8.308  0.2662 -0.6972 -0.5203
 1603TIP3    H226369   0.623   6.086   8.390  0.2668  0.0149  0.1992
 1604TIP3   OH226370   3.759   0.758   3.751 -0.5281 -0.2229  0.1114
 1604TIP3    H126371   3.823   0.830   3.750 -1.9158  1.0550  0.4385
 1604TIP3    H226372   3.757   0.729   3.842 -2.8205  2.0388  0.8933
 1605TIP3   OH226373   2.923   4.864   1.985 -0.4369  0.4705  0.0628
 1605TIP3    H126374   3.011   4.901   1.973 -0.8883  1.6099  0.1448
 1605TIP3    H226375   2.930   4.775   1.951  0.8383  0.4268  0.3825
 1606TIP3   OH226376   4.468   0.769   3.285 -0.0192 -0.2614  0.3090
 1606TIP3    H126377   4.446   0.765   3.192  2.5879  0.5878 -0.4495
 1606TIP3    H226378   4.409   0.836   3.320 -0.5868 -0.1032 -0.8807
 1607TIP3   OH226379   1.865   2.580   2.992  0.9383 -0.9909  0.0299
 1607TIP3    H126380   1.836   2.624   3.072  0.4714  1.5923 -1.4354
 1607TIP3    H226381   1.960   2.570   3.003  1.0896  0.5891  0.3826
 1608TIP3   OH226382   4.872   5.424   0.993  0.4859  0.1141  0.0340
 1608TIP3    H126383   4.952   5.372   0.987 -0.2634 -1.1341  0.5122
 1608TIP3    H226384   4.869   5.453   1.084 -0.9033 -2.0607  0.7499
 1609TIP3   OH226385   6.345   5.351   1.294 -0.6469 -0.3781  0.5802
 1609TIP3    H126386   6.404   5.343   1.369 -0.9748  1.0524  1.0214
 1609TIP3    H226387   6.400   5.332   1.218  0.5353  1.3090  0.9501
 1610TIP3   OH226388   2.734   6.700   8.363 -0.0941 -0.2922 -0.3711
 1610TIP3    H126389   2.749   6.676   8.455  0.5651 -0.6715 -0.5767
 1610TIP3    H226390   2.655   6.652   8.339 -0.4997  0.1136  0.1064
 1611TIP3   OH226391   1.316   6.782   2.165  0.4968  0.2655 -0.1303
 1611TIP3    H126392   1.352   6.790   2.253 -2.1889 -1.5752  1.3121
 1611TIP3    H226393   1.255   6.856   2.157 -1.3454 -1.0805  0.7756
 1612TIP3   OH226394   4.894   4.741   3.767  0.7081  0.1832  0.4327
 1612TIP3    H126395   4.905   4.810   3.833  0.7569 -0.4135  1.0595
 1612TIP3    H226396   4.800   4.724   3.767  0.5324  1.0725 -0.5841
 1613TIP3   OH226397   3.877   3.330   2.481 -0.3925  0.3313 -0.1462
 1613TIP3    H126398   3.790   3.349   2.515 -0.6146 -0.5525 -0.2085
 1613TIP3    H226399   3.862   3.296   2.393  0.1431  2.0208 -0.9380
 1614TIP3   OH226400   3.761   2.660   2.438  0.4136 -0.0014  0.4600
 1614TIP3    H126401   3.797   2.711   2.366  2.6915 -0.0859  1.4393
 1614TIP3    H226402   3.809   2.691   2.516 -1.8173 -0.0280  1.9311
 1615TIP3   OH226403   1.767   3.720   2.724  0.2576 -0.1489  0.1838
 1615TIP3    H126404   1.783   3.627   2.708 -1.3393 -0.2034 -1.3108
 1615TIP3    H226405   1.675   3.733   2.701  0.5257  1.8561  0.1185
 1616TIP3   OH226406   2.326   4.349   4.294  0.0432 -0.0047 -0.4862
 1616TIP3    H126407   2.301   4.401   4.370  2.7346  1.0369 -0.2036
 1616TIP3    H226408   2.275   4.268   4.302  0.3857 -0.0494  2.5800
 1617TIP3   OH226409   0.423   5.769   2.909 -0.3342  0.0190  0.1724
 1617TIP3    H126410   0.350   5.810   2.956  0.0771  0.2227  0.6490
 1617TIP3    H226411   0.412   5.796   2.818 -1.4441 -0.8038  0.0378
 1618TIP3   OH226412   5.370   2.769   4.218  0.2840  0.0887 -0.0755
 1618TIP3    H126413   5.430   2.819   4.162 -0.0228  1.9743  1.1826
 1618TIP3    H226414   5.405   2.680   4.215  0.1030 -0.0116 -3.4418
 1619TIP3   OH226415   6.509   4.128   0.763  0.3529 -0.7189 -0.5465
 1619TIP3    H126416   6.542   4.214   0.737 -0.0460 -0.9059 -1.7182
 1619TIP3    H226417   6.420   4.124   0.727 -0.3579 -0.8792  1.1314
 1620TIP3   OH226418   1.734   3.209   3.226 -0.0281  0.3947 -0.2596
 1620TIP3    H126419   1.751   3.200   3.320  1.9059 -0.4305 -0.6369
 1620TIP3    H226420   1.746   3.302   3.208 -1.5896  0.7679  0.4828
 1621TIP3   OH226421   4.599   0.291   2.009 -0.2946 -0.1636  0.0028
 1621TIP3    H126422   4.656   0.340   1.949 -0.5115 -0.5125 -0.4837
 1621TIP3    H226423   4.514   0.290   1.966 -1.1094  1.6555  1.3885
 1622TIP3   OH226424   5.675   1.701   3.071  0.2176  0.1895 -0.5837
 1622TIP3    H126425   5.728   1.694   2.991  1.4987 -3.6029  0.4007
 1622TIP3    H226426   5.596   1.747   3.044  1.5593  1.0315 -3.4574
 1623TIP3   OH226427   5.106   5.030   4.256  0.0546  0.1586 -0.1480
 1623TIP3    H126428   5.022   5.024   4.211  0.7972  0.8066 -1.6640
 1623TIP3    H226429   5.124   5.124   4.262  0.5689  0.0347  0.3951
 1624TIP3   OH226430   0.312   1.979   1.598 -0.4471  1.0576  0.4174
 1624TIP3    H126431   0.219   1.958   1.601 -0.4232  0.8951  0.1351
 1624TIP3    H226432   0.316   2.073   1.612 -0.6755  1.1031  0.1943
 1625TIP3   OH226433   6.366   5.136   2.262  0.3997 -0.5602 -0.3962
 1625TIP3    H126434   6.447   5.143   2.312 -0.0306  1.3068  0.1127
 1625TIP3    H226435   6.296   5.137   2.328 -0.1069  0.1365 -0.9228
 1626TIP3   OH226436   5.927   3.693   2.091 -0.1474  0.3481 -0.5555
 1626TIP3    H126437   6.014   3.715   2.059 -0.1087  1.2570  0.1329
 1626TIP3    H226438   5.918   3.744   2.172 -1.0369 -0.2887 -0.2417
 1627TIP3   OH226439   4.111   4.193   3.468 -0.0268 -0.4660  0.3432
 1627TIP3    H126440   4.206   4.207   3.461 -0.2531  0.4335 -1.5597
 1627TIP3    H226441   4.080   4.267   3.520  0.2896 -0.6315  0.7705
 1628TIP3   OH226442   3.998   0.054   1.993 -0.3343 -0.3815 -0.6992
 1628TIP3    H126443   4.083   0.097   2.001 -1.0827  1.4445 -1.7883
 1628TIP3    H226444   4.009  -0.031   2.034  1.7438  0.1917  0.0163
 1629TIP3   OH226445   3.888   2.403   2.568 -0.5794 -0.1780  0.2554
 1629TIP3    H126446   3.815   2.451   2.529 -0.5378 -0.7258 -0.5234
 1629TIP3    H226447   3.953   2.470   2.588 -0.2244  0.0476 -1.4736
 1630TIP3   OH226448   0.855   4.647   0.863  0.0616 -0.2480  0.3062
 1630TIP3    H126449   0.882   4.719   0.921  1.3010 -0.1652 -0.3232
 1630TIP3    H226450   0.909   4.659   0.785 -0.0906 -1.5693 -0.0199
 1631TIP3   OH226451   0.287   3.635   2.634 -0.3091 -0.0669 -0.5778
 1631TIP3    H126452   0.277   3.585   2.715 -2.5196 -0.5443 -1.0721
 1631TIP3    H226453   0.280   3.726   2.662 -0.3231 -0.2009 -0.1328
 1632TIP3   OH226454   6.832   3.358   0.864 -0.1461 -0.3139 -0.5041
 1632TIP3    H126455   6.824   3.264   0.848  0.2329 -0.7849  1.7600
 1632TIP3    H226456   6.921   3.380   0.836  0.7224 -1.2257  1.3872
 1633TIP3   OH226457   0.395   5.802   1.563 -0.1328  0.5239 -0.4945
 1633TIP3    H126458   0.358   5.763   1.484 -1.3520  1.6148 -0.4939
 1633TIP3    H226459   0.407   5.729   1.623  0.3354 -0.2433 -1.4969
 1634TIP3   OH226460   2.872   1.050   1.488 -0.0240  0.0497 -0.3348
 1634TIP3    H126461   2.941   1.028   1.550 -0.1420 -0.0111 -0.2222
 1634TIP3    H226462   2.904   1.127   1.442  0.6495 -0.6877 -1.1351
 1635TIP3   OH226463   0.635   2.617   0.483 -0.5567 -0.2977 -0.0527
 1635TIP3    H126464   0.601   2.706   0.478  0.0555 -0.0901 -0.6540
 1635TIP3    H226465   0.712   2.623   0.539 -3.0836 -1.2941  3.9142
 1636TIP3   OH226466   4.057   1.874   3.433  0.3663  0.1918 -0.5267
 1636TIP3    H126467   3.978   1.927   3.435  0.5524  0.4614 -0.3624
 1636TIP3    H226468   4.067   1.850   3.340  0.0812  0.1364 -0.5436
 1637TIP3   OH226469   0.996   5.630   3.062 -0.4751  0.2758 -0.0061
 1637TIP3    H126470   0.906   5.655   3.041 -0.2394  0.4090 -0.8980
 1637TIP3    H226471   0.988   5.540   3.094 -0.9909  0.4969  0.5075
 1638TIP3   OH226472   6.485   0.221   4.507  0.2360 -0.5269 -0.5428
 1638TIP3    H126473   6.554   0.178   4.455  1.4587  1.6435 -0.8321
 1638TIP3    H226474   6.530   0.249   4.587 -0.2280  1.1216 -0.8350
 1639TIP3   OH226475   5.401   3.040   0.879  0.2276  0.0315  0.3359
 1639TIP3    H126476   5.465   3.005   0.941  1.0992 -0.1645 -0.6444
 1639TIP3    H226477   5.318   3.003   0.908  0.8352 -1.2580  0.5313
 1640TIP3   OH226478   2.685   5.150   0.916  0.0542 -0.0753  0.1397
 1640TIP3    H126479   2.730   5.118   0.994  0.1854 -1.4231 -0.4676
 1640TIP3    H226480   2.738   5.224   0.886  0.7902 -0.4400  0.5148
 1641TIP3   OH226481   3.527   5.509   3.403 -0.3899  0.5124 -0.3125
 1641TIP3    H126482   3.487   5.424   3.386  0.2670 -0.2658  1.7950
 1641TIP3    H226483   3.621   5.494   3.389  0.1819 -0.1376  3.3844
 1642TIP3   OH226484   0.208   6.436   2.816 -0.2703  0.0641 -0.7508
 1642TIP3    H126485   0.264   6.458   2.890  1.0965 -2.1183 -1.0302
 1642TIP3    H226486   0.260   6.457   2.738 -0.5477 -0.2985 -1.0432
 1643TIP3   OH226487   5.008   6.345   2.186  0.4001 -0.0432  0.0668
 1643TIP3    H126488   4.989   6.387   2.270 -1.0753 -1.2892  0.4009
 1643TIP3    H226489   4.926   6.352   2.137  0.5320 -1.3622 -0.3677
 1644TIP3   OH226490   4.966   5.941   1.616 -0.4434  0.2136 -0.3775
 1644TIP3    H126491   5.058   5.938   1.592 -0.0761  1.4476  0.7773
 1644TIP3    H226492   4.920   5.901   1.542  1.2461 -3.9610  0.5103
 1645TIP3   OH226493   5.463   4.123   3.845  0.2163  0.2755  0.6424
 1645TIP3    H126494   5.489   4.207   3.884  0.6746 -0.7289  2.6706
 1645TIP3    H226495   5.377   4.105   3.882  0.1625 -0.1942  0.2942
 1646TIP3   OH226496   1.768   5.095   2.324 -0.2951  0.6287  0.0502
 1646TIP3    H126497   1.749   5.147   2.246 -0.2229  1.2080  0.4127
 1646TIP3    H226498   1.754   5.005   2.296 -0.0041  0.8062 -0.7101
 1647TIP3   OH226499   6.708   3.900   4.641 -0.3988  0.5381  0.4050
 1647TIP3    H126500   6.776   3.851   4.596 -0.1038  0.9050  0.4420
 1647TIP3    H226501   6.647   3.927   4.572 -0.5227  0.1854  0.3756
 1648TIP3   OH226502   0.177   6.816   4.569  0.1026  0.2207  0.3378
 1648TIP3    H126503   0.251   6.763   4.600 -0.4523  0.1598  1.6301
 1648TIP3    H226504   0.109   6.752   4.549  0.4351  0.2669 -0.9872
 1649TIP3   OH226505   2.179   5.940   1.495 -0.2469  0.1667 -0.2984
 1649TIP3    H126506   2.141   5.946   1.407 -0.7182 -1.1999 -0.2095
 1649TIP3    H226507   2.117   5.887   1.544  0.7346 -0.3095  0.4585
 1650TIP3   OH226508   5.027   5.353   0.708 -0.2208 -0.2758  0.8925
 1650TIP3    H126509   5.004   5.267   0.673 -2.7509  0.4299  0.6703
 1650TIP3    H226510   4.947   5.405   0.701  1.3051  2.2478  0.6831
 1651TIP3   OH226511   6.738   5.654   0.677  0.0439  0.5191 -0.2284
 1651TIP3    H126512   6.789   5.719   0.726 -0.6538  0.0211  1.2246
 1651TIP3    H226513   6.804   5.602   0.632  0.8415  0.1244  1.3074
 1652TIP3   OH226514   3.896   1.164   2.879  0.0176 -0.0792  0.4593
 1652TIP3    H126515   3.814   1.192   2.920 -0.1573 -0.7017  0.5559
 1652TIP3    H226516   3.884   1.070   2.864  0.7215 -0.1856  0.5010
 1653TIP3   OH226517   3.210   5.658   3.223  0.3017 -0.8461  0.6870
 1653TIP3    H126518   3.276   5.608   3.177 -0.2436 -0.2815 -0.7944
 1653TIP3    H226519   3.196   5.611   3.305  4.6493  0.5968  2.5455
 1654TIP3   OH226520   1.696   6.534   1.680 -0.1461 -0.1863 -0.7635
 1654TIP3    H126521   1.749   6.459   1.651 -0.0782  0.2268 -1.7250
 1654TIP3    H226522   1.754   6.582   1.739 -0.5511 -1.4512  0.7225
 1655TIP3   OH226523   1.180   5.848   1.033  0.0295 -0.2549  0.3962
 1655TIP3    H126524   1.138   5.856   0.948  2.0859  1.8296 -0.5456
 1655TIP3    H226525   1.127   5.902   1.092  0.6044  1.2744 -0.4551
 1656TIP3   OH226526   5.612   6.369   1.678  0.1280 -0.1583  0.1635
 1656TIP3    H126527   5.558   6.290   1.673 -0.0359 -0.0302 -0.0976
 1656TIP3    H226528   5.562   6.428   1.735 -0.1223  0.0485 -0.2661
 1657TIP3   OH226529   0.304   0.936   3.019  0.4984 -0.4504  0.0373
 1657TIP3    H126530   0.306   0.998   2.946  0.3479 -0.0605  0.3625
 1657TIP3    H226531   0.394   0.905   3.027  0.9051  0.8639  0.8350
 1658TIP3   OH226532   5.955   2.011   1.546  0.2949  0.2659 -0.0544
 1658TIP3    H126533   5.957   1.976   1.635 -0.5861 -0.3157 -0.2543
 1658TIP3    H226534   5.862   2.019   1.525  0.4947  0.5906 -0.8514
 1659TIP3   OH226535   6.362   3.487   1.690  0.0650  0.6826 -0.0250
 1659TIP3    H126536   6.420   3.478   1.614 -1.0008 -1.5715 -0.6683
 1659TIP3    H226537   6.349   3.581   1.699  1.9542  1.1269 -1.2739
 1660TIP3   OH226538   3.435   2.019   2.987 -0.1118 -0.2019  0.4618
 1660TIP3    H126539   3.423   2.107   2.951 -0.2553 -0.7473 -0.8606
 1660TIP3    H226540   3.421   2.030   3.081 -1.1233  1.0029  0.1970
 1661TIP3   OH226541   3.536   6.364   1.420  0.3968 -0.2265 -0.2290
 1661TIP3    H126542   3.495   6.279   1.408 -0.3346 -0.2724  2.1440
 1661TIP3    H226543   3.629   6.348   1.403  0.1785 -1.3205 -0.4801
 1662TIP3   OH226544   4.909   3.679   2.104  0.4504  0.0857  0.7410
 1662TIP3    H126545   4.844   3.621   2.064 -0.2124 -0.0650  1.9737
 1662TIP3    H226546   4.913   3.754   2.045  0.8538 -0.9065 -0.5523
 1663TIP3   OH226547   4.629   1.859   1.829 -0.3102 -0.5710 -0.2747
 1663TIP3    H126548   4.541   1.865   1.792 -0.0023  0.4380 -0.8648
 1663TIP3    H226549   4.644   1.765   1.839 -1.9573 -0.7381  1.0900
 1664TIP3   OH226550   5.204   6.389   0.773  0.0567  0.5357  0.3255
 1664TIP3    H126551   5.161   6.462   0.728  0.3713  0.3586 -0.2700
 1664TIP3    H226552   5.278   6.366   0.717  0.7183  0.5988  1.1626
 1665TIP3   OH226553   5.213   6.821   1.150  0.2546 -0.2224 -0.1543
 1665TIP3    H126554   5.150   6.751   1.135  0.5409 -1.1596  2.5082
 1665TIP3    H226555   5.288   6.797   1.095 -0.9295 -0.0634 -1.9475
 1666TIP3   OH226556   3.423   1.931   0.781  0.5467 -0.2841 -0.1335
 1666TIP3    H126557   3.517   1.925   0.766  1.6208  3.2930  3.3142
 1666TIP3    H226558   3.389   1.978   0.705  0.8622 -3.6693 -2.6036
 1667TIP3   OH226559   2.177   0.257   1.746 -0.1037 -0.2308 -0.1578
 1667TIP3    H126560   2.183   0.302   1.662 -0.2989 -0.9373 -0.5651
 1667TIP3    H226561   2.209   0.169   1.728  0.9308 -0.0617  0.7866
 1668TIP3   OH226562   5.039   2.914   2.924  0.2444  0.1842 -0.2603
 1668TIP3    H126563   5.006   2.876   3.005 -0.1048  1.8384  0.4145
 1668TIP3    H226564   5.122   2.956   2.949 -0.0400  1.0107 -0.6571
 1669TIP3   OH226565   6.524   2.459   0.756  0.1605  0.7753  0.2549
 1669TIP3    H126566   6.584   2.385   0.751 -3.3143 -2.2556 -1.1813
 1669TIP3    H226567   6.478   2.447   0.839 -1.4788  0.3493 -0.6729
 1670TIP3   OH226568   3.792   0.597   3.530  0.3286  0.8010 -0.0702
 1670TIP3    H126569   3.805   0.654   3.606  1.0435  3.4721 -2.0352
 1670TIP3    H226570   3.744   0.522   3.564  1.5802  1.3142  3.1990
 1671TIP3   OH226571   1.532   1.129   2.171  0.6539 -0.0103 -0.3070
 1671TIP3    H126572   1.510   1.103   2.260 -1.7534  0.1229 -0.8058
 1671TIP3    H226573   1.499   1.218   2.162  0.5930 -0.1283 -1.4291
 1672TIP3   OH226574   1.978   5.108   1.481  0.4022  0.4154  0.2034
 1672TIP3    H126575   1.899   5.137   1.527  0.0489 -1.8197  1.1223
 1672TIP3    H226576   1.952   5.106   1.389 -0.8494 -0.8930  0.5543
 1673TIP3   OH226577   4.678   2.112   1.983  0.8322 -0.4006  0.4728
 1673TIP3    H126578   4.649   2.030   1.945 -0.3418  0.0997  0.2589
 1673TIP3    H226579   4.695   2.169   1.908 -0.8094  0.3589  0.6379
 1674TIP3   OH226580   3.654   4.444   3.689 -0.4918  0.3661  0.1808
 1674TIP3    H126581   3.694   4.358   3.677 -1.8568 -0.2746  0.1063
 1674TIP3    H226582   3.621   4.468   3.602  0.3443  1.2190  0.0797
 1675TIP3   OH226583   2.598   5.952   1.987 -0.4077 -0.1624 -0.0351
 1675TIP3    H126584   2.660   6.025   1.987 -0.1809 -0.3530  0.3576
 1675TIP3    H226585   2.627   5.896   1.914  1.4246 -1.5283  1.6350
 1676TIP3   OH226586   4.007   6.522   3.415  0.2316 -0.0898  0.1840
 1676TIP3    H126587   4.085   6.573   3.435  0.4541 -1.2818  2.6269
 1676TIP3    H226588   4.040   6.443   3.373  0.1624  0.2433 -0.5094
 1677TIP3   OH226589   3.178   4.372   2.416  0.4669  0.1467  0.2329
 1677TIP3    H126590   3.145   4.434   2.351  0.8626 -2.0065 -2.1885
 1677TIP3    H226591   3.259   4.412   2.447  0.5099  1.0554 -0.9466
 1678TIP3   OH226592   1.123   1.341   0.926  0.2062 -0.0708  0.6961
 1678TIP3    H126593   1.170   1.260   0.906  1.5794  0.4442  1.7063
 1678TIP3    H226594   1.033   1.323   0.901  0.3514 -2.1475  1.4740
 1679TIP3   OH226595   5.257   4.890   1.298 -0.2056  0.2123 -0.0432
 1679TIP3    H126596   5.262   4.982   1.274  0.6830  0.2605  0.2631
 1679TIP3    H226597   5.167   4.864   1.279 -0.5084  1.1849  0.0259
 1680TIP3   OH226598   1.191   2.656   2.796 -0.0522  0.4495 -0.0775
 1680TIP3    H126599   1.165   2.566   2.817 -1.1752  1.2300  2.2726
 1680TIP3    H226600   1.121   2.689   2.741  0.6489 -0.2421 -1.4374
 1681TIP3   OH226601   1.757   2.436   2.324 -0.7777  0.6548 -0.3666
 1681TIP3    H126602   1.851   2.444   2.306 -0.6981  0.1030 -0.1874
 1681TIP3    H226603   1.721   2.520   2.294  0.0878  1.8084  1.5980
 1682TIP3   OH226604   4.879   3.192   0.786 -0.2382  0.6216  0.3068
 1682TIP3    H126605   4.947   3.128   0.764 -1.4124 -0.1452 -1.3490
 1682TIP3    H226606   4.912   3.236   0.864  0.3861 -2.4444  1.9674
 1683TIP3   OH226607   1.499   5.081   1.255  0.0334 -0.6899  0.1510
 1683TIP3    H126608   1.410   5.065   1.225  0.2198 -0.9625 -0.2619
 1683TIP3    H226609   1.540   4.994   1.256  0.5338 -0.4719 -0.4419
 1684TIP3   OH226610   0.762   0.324   1.848  0.2763 -0.7613  0.2267
 1684TIP3    H126611   0.813   0.242   1.847 -0.6102 -1.3487  1.1609
 1684TIP3    H226612   0.706   0.316   1.925  0.7789  1.1200  0.8314
 1685TIP3   OH226613   4.315   6.688   1.066 -0.5102 -0.4339 -0.0366
 1685TIP3    H126614   4.234   6.738   1.069  0.5864  1.4763 -0.4596
 1685TIP3    H226615   4.372   6.739   1.008  1.6986 -0.5696  1.8818
 1686TIP3   OH226616   1.039   2.322   1.996 -0.2866 -0.1351  0.0363
 1686TIP3    H126617   1.118   2.315   2.050  0.4170 -1.3424 -1.0891
 1686TIP3    H226618   0.971   2.277   2.046  0.4973 -1.7454 -0.2741
 1687TIP3   OH226619   4.302   5.389   1.623 -0.5331  0.6146 -0.1608
 1687TIP3    H126620   4.349   5.337   1.688 -0.7633 -0.0990 -0.5524
 1687TIP3    H226621   4.369   5.443   1.583 -0.5952  2.0800  1.5893
 1688TIP3   OH226622   1.878   2.866   8.173 -0.1723 -0.3983 -0.2109
 1688TIP3    H126623   1.790   2.863   8.212 -0.4236 -0.1457 -0.7563
 1688TIP3    H226624   1.922   2.788   8.208 -2.0374 -3.0868 -3.2740
 1689TIP3   OH226625   5.814   1.335   0.691  0.5913 -0.2569  0.7171
 1689TIP3    H126626   5.876   1.262   0.692  1.2834  0.3024 -0.1790
 1689TIP3    H226627   5.802   1.358   0.783  1.2301 -0.7834  0.9310
 1690TIP3   OH226628   3.818   1.309   0.869 -0.5982 -0.4961  0.3489
 1690TIP3    H126629   3.812   1.218   0.897  0.2630 -1.5042 -2.4527
 1690TIP3    H226630   3.739   1.324   0.818  0.1299 -0.2907 -0.7498
 1691TIP3   OH226631   4.311   0.386   0.118  0.1932  0.4141 -0.2867
 1691TIP3    H126632   4.342   0.463   0.166 -3.2525  1.9337 -0.1950
 1691TIP3    H226633   4.274   0.422   0.037 -1.1397 -1.1748 -0.4455
 1692TIP3   OH226634   5.859   1.168   2.987  0.1170  0.8645 -0.5724
 1692TIP3    H126635   5.863   1.106   3.060  4.6711 -0.2121 -1.3853
 1692TIP3    H226636   5.830   1.250   3.026  0.1562 -0.2300  1.9544
 1693TIP3   OH226637   5.994   4.404   1.335  0.1823  0.2352 -0.2303
 1693TIP3    H126638   6.028   4.471   1.275  1.5498  0.8315  1.1371
 1693TIP3    H226639   5.954   4.453   1.406 -1.6421 -0.4696 -0.7094
 1694TIP3   OH226640   6.363   4.937   1.383  0.3171 -0.1877 -0.4816
 1694TIP3    H126641   6.395   5.002   1.321 -2.0082 -2.0308 -3.9444
 1694TIP3    H226642   6.270   4.958   1.394 -0.0005 -1.6727 -0.0291
 1695TIP3   OH226643   4.673   5.909   1.203 -0.4599 -0.3008 -0.4656
 1695TIP3    H126644   4.754   5.939   1.164  0.5759  0.7341  2.2476
 1695TIP3    H226645   4.625   5.867   1.131  2.5309 -1.1371 -2.1127
 1696TIP3   OH226646   3.503   5.714   2.054  0.5454  0.1360 -0.2830
 1696TIP3    H126647   3.518   5.729   2.147  0.3503 -0.5444 -0.1383
 1696TIP3    H226648   3.497   5.802   2.016 -0.8497  0.4475  0.5829
 1697TIP3   OH226649   0.010   1.508   3.118  0.1960 -0.8786 -0.0169
 1697TIP3    H126650  -0.018   1.552   3.198 -1.4154 -2.1253  0.1482
 1697TIP3    H226651   0.084   1.453   3.146 -0.5005 -1.4787  0.6802
 1698TIP3   OH226652   6.733   6.418   2.847  0.0611  0.3822  0.0347
 1698TIP3    H126653   6.798   6.348   2.840  1.4604  1.5634  0.6591
 1698TIP3    H226654   6.705   6.416   2.938 -0.0367  0.5084  0.0071
 1699TIP3   OH226655   5.454   3.036   3.531  0.2117  0.4503 -0.2174
 1699TIP3    H126656   5.486   3.126   3.534  1.5041 -0.0076  0.6915
 1699TIP3    H226657   5.534   2.983   3.532 -0.5367 -0.7126 -0.5845
 1700TIP3   OH226658   6.482   2.308   3.217  0.2673  0.4054 -0.0190
 1700TIP3    H126659   6.539   2.271   3.284 -1.3773 -0.4608  0.9698
 1700TIP3    H226660   6.499   2.402   3.220  1.8381  0.1490  0.0072
 1701TIP3   OH226661   3.378   4.418   0.911 -0.1376 -0.2748  0.3458
 1701TIP3    H126662   3.285   4.406   0.930  0.0822 -1.0304  1.0138
 1701TIP3    H226663   3.380   4.463   0.827 -1.0966 -2.1997 -0.7640
 1702TIP3   OH226664   3.760   2.590   0.553 -0.7227 -0.4616  0.1418
 1702TIP3    H126665   3.677   2.577   0.507 -0.6166 -0.3368 -0.0874
 1702TIP3    H226666   3.826   2.586   0.484 -0.1957 -3.7810  0.6443
 1703TIP3   OH226667   4.326   4.526   2.562  0.6066  0.4785 -0.0323
 1703TIP3    H126668   4.342   4.596   2.627  0.8976  0.9433 -0.5924
 1703TIP3    H226669   4.318   4.446   2.614 -0.6160  1.0468  0.7016
 1704TIP3   OH226670   0.361   5.897   2.672 -0.2980 -0.1191  0.0648
 1704TIP3    H126671   0.330   5.898   2.581  2.1953  1.7221 -0.9116
 1704TIP3    H226672   0.346   5.987   2.703 -1.0761 -0.7180  1.4810
 1705TIP3   OH226673   4.773   1.165   1.356 -0.3319  0.2793  0.0995
 1705TIP3    H126674   4.865   1.151   1.381 -0.9202 -2.4459  1.0341
 1705TIP3    H226675   4.767   1.128   1.268 -0.2665  1.7361 -0.5423
 1706TIP3   OH226676   2.977   3.176   0.669  0.8695 -0.1078 -0.2409
 1706TIP3    H126677   2.959   3.264   0.703  0.6434 -1.1570  2.6710
 1706TIP3    H226678   3.061   3.183   0.625  0.8815  1.5432  0.0015
 1707TIP3   OH226679   5.516   0.297   1.459  0.3866 -0.1293 -0.3095
 1707TIP3    H126680   5.423   0.293   1.482  0.1839  0.3012 -1.0046
 1707TIP3    H226681   5.521   0.367   1.394  1.4308  0.8143  0.7546
 1708TIP3   OH226682   5.582   1.275   2.731  0.4717 -0.1989 -0.5351
 1708TIP3    H126683   5.554   1.240   2.816 -0.7902  0.6115 -0.5878
 1708TIP3    H226684   5.653   1.336   2.753  2.5481 -2.5222 -0.4275
 1709TIP3   OH226685   4.947   2.385   1.419 -0.1576 -0.4952  0.3138
 1709TIP3    H126686   4.954   2.292   1.440  2.2417 -0.5980 -0.6745
 1709TIP3    H226687   4.879   2.390   1.353 -0.2378 -1.5598  0.2999
 1710TIP3   OH226688   2.966   0.277   0.425 -0.1844 -0.2332 -0.1310
 1710TIP3    H126689   2.912   0.199   0.413 -0.7999 -0.0933  1.4847
 1710TIP3    H226690   2.910   0.339   0.472  0.5925  0.8539 -0.5756
 1711TIP3   OH226691   5.556   5.257   2.844  0.3218  0.4191 -0.5375
 1711TIP3    H126692   5.471   5.291   2.874  0.5892 -0.1249  0.9245
 1711TIP3    H226693   5.544   5.162   2.845  0.4203  0.3672 -2.0223
 1712TIP3   OH226694   0.506   5.117   4.373  0.0244  0.5422 -0.3822
 1712TIP3    H126695   0.535   5.208   4.377 -0.3656  0.6590 -0.0510
 1712TIP3    H226696   0.458   5.110   4.291  0.9607  0.3544 -0.9178
 1713TIP3   OH226697   6.766   5.354   3.649 -0.2565  0.1916  0.0745
 1713TIP3    H126698   6.831   5.294   3.686  0.1075 -0.5755 -1.7101
 1713TIP3    H226699   6.813   5.437   3.639 -0.2659  0.3150  0.9935
 1714TIP3   OH226700   0.377   6.194   2.700  0.1029 -0.2837 -0.0704
 1714TIP3    H126701   0.317   6.264   2.673 -0.4992 -0.7560  0.0227
 1714TIP3    H226702   0.404   6.218   2.788 -1.1210 -0.8224  0.4700
 1715TIP3   OH226703   4.749   5.085   8.148  0.3031  0.4395  0.3995
 1715TIP3    H126704   4.725   5.171   8.184  1.1714  0.1032  1.8672
 1715TIP3    H226705   4.828   5.060   8.196  0.4675 -0.8805 -0.5042
 1716TIP3   OH226706   6.802   1.000   2.755 -0.1605 -0.0284 -0.4001
 1716TIP3    H126707   6.823   1.022   2.665  1.2731 -0.2425 -0.1438
 1716TIP3    H226708   6.708   0.981   2.754 -0.0096 -0.9010 -2.0208
 1717TIP3   OH226709   1.374   5.462   3.232  0.1615  0.6459 -0.1302
 1717TIP3    H126710   1.332   5.415   3.160  1.8451 -1.0474 -0.0865
 1717TIP3    H226711   1.448   5.406   3.256  2.3733  3.3854 -0.1434
 1718TIP3   OH226712   4.678   6.461   1.476 -0.5398  0.4648  0.5255
 1718TIP3    H126713   4.592   6.426   1.500 -0.6702  1.1985  1.2026
 1718TIP3    H226714   4.710   6.403   1.407 -0.9474 -0.6799  1.2717
 1719TIP3   OH226715   1.863   4.634   4.747  0.2305  0.3581  0.4015
 1719TIP3    H126716   1.888   4.631   4.654 -1.5940  1.2376 -0.1650
 1719TIP3    H226717   1.774   4.600   4.748 -0.5879  2.3951  1.5128
 1720TIP3   OH226718   1.704   0.957   3.756 -0.2864  0.1132  0.4756
 1720TIP3    H126719   1.612   0.951   3.730  0.0881 -1.0544 -0.7551
 1720TIP3    H226720   1.739   1.028   3.703  0.1329 -1.3016 -1.2433
 1721TIP3   OH226721   0.276   5.679   4.324  0.0916 -0.6143 -0.3757
 1721TIP3    H126722   0.212   5.728   4.375 -1.1174 -1.7260 -0.7872
 1721TIP3    H226723   0.361   5.709   4.358 -0.6531 -0.4967  1.5261
 1722TIP3   OH226724   1.202   4.126   2.846  0.2655 -0.1916 -0.5640
 1722TIP3    H126725   1.277   4.186   2.842  0.3444 -0.1858  0.6272
 1722TIP3    H226726   1.132   4.178   2.887  0.3651 -0.9047  0.5725
 1723TIP3   OH226727   6.318   3.306   3.000 -0.8036 -0.0227 -0.6899
 1723TIP3    H126728   6.292   3.240   3.065 -2.6103  1.3374  0.0707
 1723TIP3    H226729   6.385   3.263   2.947 -0.6903 -1.8636  0.8378
 1724TIP3   OH226730   0.909   6.884   3.607 -0.1850 -0.2132 -0.7207
 1724TIP3    H126731   0.853   6.868   3.531 -2.2247  0.0554  0.6326
 1724TIP3    H226732   0.921   6.979   3.608 -2.2578  0.1044  0.5915
 1725TIP3   OH226733   1.339   3.032   3.574 -0.1043 -0.1095  0.1358
 1725TIP3    H126734   1.346   2.954   3.630  0.3573  0.2012  0.5115
 1725TIP3    H226735   1.279   3.090   3.621 -0.1115 -0.0579  0.0631
 1726TIP3   OH226736   5.585   1.002   2.606 -0.3025 -0.2286  0.4022
 1726TIP3    H126737   5.514   0.959   2.654  0.4455  0.2824  2.0400
 1726TIP3    H226738   5.660   0.998   2.665  0.5126  0.9558 -0.4960
 1727TIP3   OH226739   5.979   3.944   1.509 -0.7733  0.4855 -0.7994
 1727TIP3    H126740   5.941   3.907   1.430 -1.9418  0.7624 -0.4047
 1727TIP3    H226741   6.069   3.913   1.511 -0.7505  0.4129 -2.1839
 1728TIP3   OH226742   4.113   0.615   0.695  0.0466  0.3168 -0.6359
 1728TIP3    H126743   4.106   0.539   0.637 -1.4387  0.2336 -0.3925
 1728TIP3    H226744   4.165   0.678   0.645  1.8705 -1.0688 -0.5788
 1729TIP3   OH226745   2.521   5.770   0.395 -0.6542  0.7803 -0.0268
 1729TIP3    H126746   2.440   5.789   0.349 -0.2698  1.5914 -0.3969
 1729TIP3    H226747   2.582   5.837   0.365  1.0217 -1.4439 -1.9174
 1730TIP3   OH226748   6.393   6.901   0.711  0.4966 -0.1410  0.0050
 1730TIP3    H126749   6.461   6.853   0.664  1.2295  1.2632 -0.4304
 1730TIP3    H226750   6.335   6.833   0.745  2.3035 -1.4229  0.7084
 1731TIP3   OH226751   3.122   2.207   0.485 -0.0689  0.2909  0.1230
 1731TIP3    H126752   3.028   2.220   0.499  0.0338  0.8321  0.3663
 1731TIP3    H226753   3.140   2.249   0.401  0.0530  0.7095  0.3518
 1732TIP3   OH226754   6.201   1.157   3.722  0.1488 -0.7951 -0.0252
 1732TIP3    H126755   6.150   1.094   3.773  0.1255  0.0440  1.0146
 1732TIP3    H226756   6.290   1.150   3.756  0.4380 -1.2086 -0.8340
 1733TIP3   OH226757   2.255   0.395   1.498  0.1633  0.0150 -0.4391
 1733TIP3    H126758   2.191   0.433   1.438 -1.8803 -0.9343  1.0191
 1733TIP3    H226759   2.293   0.322   1.450  1.7308  1.7970 -2.0652
 1734TIP3   OH226760   6.540   1.756   2.832 -0.1143 -0.1178 -0.4011
 1734TIP3    H126761   6.516   1.769   2.740  0.7598  1.7987 -0.4128
 1734TIP3    H226762   6.616   1.813   2.845 -0.7958  0.3910  1.7335
 1735TIP3   OH226763   2.778   3.070   0.517 -0.2480  0.1628 -0.3517
 1735TIP3    H126764   2.826   3.022   0.449  0.3789 -0.9964  0.8575
 1735TIP3    H226765   2.828   3.054   0.597 -1.8404  0.1400  0.6819
 1736TIP3   OH226766   0.076   6.933   0.615 -0.0119 -0.2894  0.3534
 1736TIP3    H126767   0.125   6.972   0.688  2.4221 -1.4558 -0.5389
 1736TIP3    H226768  -0.001   6.895   0.655  1.0970 -0.6068  2.2982
 1737TIP3   OH226769   0.779   2.577   1.313 -0.1843  0.0938 -0.5372
 1737TIP3    H126770   0.863   2.562   1.270  0.8876  3.6925  0.0135
 1737TIP3    H226771   0.786   2.532   1.397  1.0214 -0.0091 -0.6794
 1738TIP3   OH226772   1.965   1.819   0.302 -0.6841 -0.2554  0.3913
 1738TIP3    H126773   1.889   1.859   0.259 -2.1508  0.1602  3.1116
 1738TIP3    H226774   2.006   1.765   0.235 -3.0090  0.0213 -1.3656
 1739TIP3   OH226775   5.815   3.123   0.906  0.0821 -0.3009 -0.0912
 1739TIP3    H126776   5.873   3.173   0.848  1.3705 -0.8223  0.6945
 1739TIP3    H226777   5.734   3.173   0.909  1.5501  2.1425  1.2522
 1740TIP3   OH226778   2.147   0.088   0.184  0.1985  0.2650 -0.0040
 1740TIP3    H126779   2.171   0.065   0.094 -0.1167 -2.5683  0.5555
 1740TIP3    H226780   2.212   0.154   0.209  1.9410 -0.7754 -1.4839
 1741TIP3   OH226781   3.413   5.980   3.762 -0.2676  0.4464  1.1023
 1741TIP3    H126782   3.448   5.916   3.824  0.2716  0.0237  0.3818
 1741TIP3    H226783   3.353   5.929   3.707  1.7430  0.0189 -0.8445
 1742TIP3   OH226784   2.161   1.279   1.699  0.1681 -0.1466  0.1827
 1742TIP3    H126785   2.167   1.297   1.793  0.4791 -1.7343  0.4916
 1742TIP3    H226786   2.077   1.316   1.673 -0.3223 -0.4388  1.2866
 1743TIP3   OH226787   2.135   5.930   0.829 -0.5731 -0.4252 -0.2184
 1743TIP3    H126788   2.135   5.844   0.788 -0.3622 -0.3659 -0.3428
 1743TIP3    H226789   2.079   5.919   0.906  0.6856 -1.0914  0.6349
 1744TIP3   OH226790   4.378   1.241   2.648 -0.0419  0.1475 -0.3677
 1744TIP3    H126791   4.365   1.205   2.561 -0.8820  2.0128 -1.0625
 1744TIP3    H226792   4.296   1.224   2.694  0.3059 -0.6031 -0.0075
 1745TIP3   OH226793   5.782   1.035   4.450  0.4701 -0.1218  0.3091
 1745TIP3    H126794   5.873   1.018   4.426  0.1545 -1.6471  0.0565
 1745TIP3    H226795   5.739   0.950   4.442 -0.5482  0.1231  2.4335
 1746TIP3   OH226796   2.320   3.808   0.291  1.2044 -0.0909  0.0284
 1746TIP3    H126797   2.254   3.877   0.297  3.1402  1.7992  1.2270
 1746TIP3    H226798   2.292   3.755   0.216 -1.8602  0.2964  0.7506
 1747TIP3   OH226799   0.612   3.783   2.248  0.1070  0.2707  0.2062
 1747TIP3    H126800   0.695   3.736   2.251  0.1116  0.3211  1.5821
 1747TIP3    H226801   0.564   3.753   2.325 -2.0554 -1.3152 -1.6241
 1748TIP3   OH226802   1.023   3.807   3.162  0.6075  0.2855 -0.1576
 1748TIP3    H126803   0.940   3.768   3.133  0.5671  0.7922 -0.7386
 1748TIP3    H226804   1.008   3.901   3.157  1.6380  0.4088 -1.5266
 1749TIP3   OH226805   0.588   0.330   2.167  0.1765  0.5878  0.5183
 1749TIP3    H126806   0.595   0.240   2.199  0.6050  0.2203 -0.5684
 1749TIP3    H226807   0.548   0.378   2.239  0.8364 -0.2709  1.4852
 1750TIP3   OH226808   5.708   3.933   1.088  0.6825 -0.0249  0.0201
 1750TIP3    H126809   5.705   3.837   1.085 -1.3146 -0.2268  3.5474
 1750TIP3    H226810   5.801   3.954   1.080  1.3873 -2.3819  1.0984
 1751TIP3   OH226811   4.653   0.036   1.643  0.7100 -0.1088  0.1437
 1751TIP3    H126812   4.653  -0.045   1.593 -0.1298  0.8169 -1.4399
 1751TIP3    H226813   4.647   0.105   1.577 -3.6751  1.1152  1.4925
 1752TIP3   OH226814   0.163   6.369   1.714  0.7401  0.1244 -0.3950
 1752TIP3    H126815   0.191   6.444   1.661  1.0889  0.6766  0.5484
 1752TIP3    H226816   0.232   6.304   1.702  2.0861  1.1620  1.2623
 1753TIP3   OH226817   3.116   3.997   0.838  0.2246 -0.0819  0.3331
 1753TIP3    H126818   3.157   4.064   0.894  2.7485 -0.3275 -1.0944
 1753TIP3    H226819   3.116   3.918   0.892  1.7608 -0.0853  0.3756
 1754TIP3   OH226820   4.966   6.639   3.360  0.1062 -0.5160 -0.3684
 1754TIP3    H126821   4.881   6.640   3.404  0.5472 -2.4395  0.6326
 1754TIP3    H226822   4.995   6.730   3.364 -1.4724  0.0127  0.1195
 1755TIP3   OH226823   0.882   0.351   4.021 -0.0978 -0.4303 -0.5960
 1755TIP3    H126824   0.841   0.392   3.945 -0.5535 -0.0525 -0.1554
 1755TIP3    H226825   0.965   0.318   3.989 -1.2803 -2.4096 -1.8577
 1756TIP3   OH226826   3.438   1.358   3.195  0.5989  0.8085 -0.2369
 1756TIP3    H126827   3.435   1.441   3.243  1.6952  0.4496  0.4956
 1756TIP3    H226828   3.521   1.317   3.222  0.0289 -0.5799 -0.4714
 1757TIP3   OH226829   3.454   1.261   1.987 -0.3314  0.7426 -0.2695
 1757TIP3    H126830   3.539   1.246   1.946 -0.7603 -0.6619 -0.7037
 1757TIP3    H226831   3.461   1.348   2.026  0.9634  1.0518 -1.1305
 1758TIP3   OH226832   1.251   5.114   1.852  0.4849 -0.0326 -0.1342
 1758TIP3    H126833   1.228   5.031   1.811  0.7603 -0.5055  0.6443
 1758TIP3    H226834   1.236   5.179   1.783 -0.7847 -0.5863 -0.4304
 1759TIP3   OH226835   1.644   1.934   1.157  0.1894  0.7653  0.2917
 1759TIP3    H126836   1.550   1.948   1.165 -0.0926 -0.0513 -1.2456
 1759TIP3    H226837   1.677   1.941   1.247 -1.2373  1.6206  0.7843
 1760TIP3   OH226838   2.168   3.101   2.065  0.9109  0.6517 -0.4346
 1760TIP3    H126839   2.167   3.190   2.101  1.0164 -0.0996  1.5366
 1760TIP3    H226840   2.083   3.064   2.089  0.5633  0.4527 -1.9145
 1761TIP3   OH226841   2.703   2.767   0.665  0.4477 -0.9817  0.2728
 1761TIP3    H126842   2.749   2.837   0.711 -2.8774  0.6506  1.4445
 1761TIP3    H226843   2.714   2.789   0.572  0.0712  0.7262  0.5947
 1762TIP3   OH226844   4.396   3.066   4.215  0.3386  0.1235 -0.8237
 1762TIP3    H126845   4.451   3.121   4.272  4.2326  0.0831 -4.1417
 1762TIP3    H226846   4.383   2.986   4.266  3.2190  0.2447  0.2924
 1763TIP3   OH226847   4.009   4.916   3.390  0.1336  0.3975 -0.2402
 1763TIP3    H126848   4.004   4.978   3.463  1.0933  0.1074  0.0904
 1763TIP3    H226849   3.924   4.871   3.392  0.1841  0.3096  0.7881
 1764TIP3   OH226850   5.589   4.851   1.812  0.4185  0.4861  0.0815
 1764TIP3    H126851   5.548   4.931   1.778  0.5075  0.1308 -0.8980
 1764TIP3    H226852   5.614   4.802   1.733  0.4558 -0.4567  0.6677
 1765TIP3   OH226853   6.650   0.879   3.290  0.2049  0.7357 -0.0239
 1765TIP3    H126854   6.700   0.936   3.232 -0.6682  1.0922 -0.4416
 1765TIP3    H226855   6.573   0.854   3.239 -1.3181  2.1979  1.4240
 1766TIP3   OH226856   2.678   0.895   2.082  0.8360  0.3875  0.2115
 1766TIP3    H126857   2.606   0.937   2.035  1.8388  2.2695  0.2467
 1766TIP3    H226858   2.642   0.872   2.167 -0.2507 -0.5648 -0.4794
 1767TIP3   OH226859   0.274   0.489   3.193 -0.6332  0.2817  0.3300
 1767TIP3    H126860   0.260   0.575   3.231  1.5426  1.1842 -0.7097
 1767TIP3    H226861   0.259   0.428   3.265 -1.5816  1.5506  1.2539
 1768TIP3   OH226862   2.244   2.668   4.279 -0.1613 -0.2992 -0.0753
 1768TIP3    H126863   2.228   2.574   4.290  1.1160 -0.4490  0.6552
 1768TIP3    H226864   2.194   2.691   4.200 -0.1432 -1.6800 -0.5270
 1769TIP3   OH226865   2.240   0.473   2.299  0.0111  0.1643 -0.1932
 1769TIP3    H126866   2.282   0.519   2.373 -0.8747 -2.1721  1.8849
 1769TIP3    H226867   2.149   0.502   2.302 -0.5381 -1.5532  1.0925
 1770TIP3   OH226868   5.223   5.697   2.635  0.2465  0.1221  0.4358
 1770TIP3    H126869   5.183   5.656   2.711  1.5297 -1.6111  0.2416
 1770TIP3    H226870   5.165   5.674   2.562  0.0206  0.1728  0.5992
 1771TIP3   OH226871   2.850   4.368   3.676 -0.9040  0.3670 -0.3345
 1771TIP3    H126872   2.869   4.276   3.657 -0.3349  0.6358 -1.1290
 1771TIP3    H226873   2.799   4.399   3.602 -2.3995  0.3116  0.6407
 1772TIP3   OH226874   0.222   0.707   3.338 -0.1162 -0.3616  0.2607
 1772TIP3    H126875   0.293   0.735   3.396 -0.5225 -0.2041  0.6893
 1772TIP3    H226876   0.189   0.788   3.299  0.7770 -0.5452 -0.9444
 1773TIP3   OH226877   5.563   1.871   2.703  0.2159 -0.0339  0.0686
 1773TIP3    H126878   5.581   1.953   2.658 -0.4060  0.5336  0.8224
 1773TIP3    H226879   5.474   1.848   2.677  0.3524 -0.4189 -0.0631
 1774TIP3   OH226880   4.092   5.078   0.631 -0.7672 -0.2687 -0.3697
 1774TIP3    H126881   4.102   4.999   0.578  0.6493 -0.6370  0.3882
 1774TIP3    H226882   4.149   5.063   0.707 -2.6871  0.2558  1.2635
 1775TIP3   OH226883   2.346   6.862   3.135  0.3084 -0.5678  0.1180
 1775TIP3    H126884   2.353   6.955   3.154  0.2018 -0.5346 -0.0074
 1775TIP3    H226885   2.346   6.856   3.040  0.6228 -0.7201  0.1250
 1776TIP3   OH226886   2.316   3.979   1.875  0.2299  0.0730  0.7428
 1776TIP3    H126887   2.346   3.931   1.952  0.2256 -0.2986  0.5125
 1776TIP3    H226888   2.243   4.032   1.907  0.0409 -0.3015  0.9304
 1777TIP3   OH226889   1.194   6.932   1.039  0.6584  0.1856 -0.2204
 1777TIP3    H126890   1.148   6.966   1.116 -1.1157 -1.4746 -0.4602
 1777TIP3    H226891   1.287   6.941   1.061  0.2165 -0.0681  2.0720
 1778TIP3   OH226892   4.603   6.045   1.985 -0.9807  0.4238  0.1922
 1778TIP3    H126893   4.593   5.970   1.926  0.0963 -0.0187  0.5396
 1778TIP3    H226894   4.663   6.104   1.939 -0.1255  0.0712  0.8203
 1779TIP3   OH226895   1.237   5.178   0.792  0.1092 -0.7167  1.2575
 1779TIP3    H126896   1.303   5.240   0.821  0.4182 -0.8009  0.7488
 1779TIP3    H226897   1.243   5.179   0.697  0.7071 -2.1387  1.2559
 1780TIP3   OH226898   2.980   6.781   8.269 -0.0192  0.0985  0.1366
 1780TIP3    H126899   2.962   6.737   8.186  0.5060 -2.4222  1.2558
 1780TIP3    H226900   2.896   6.779   8.315 -0.7919  3.0892 -0.8986
 1781TIP3   OH226901   4.061   3.012   1.409  0.9296 -0.7134  0.4458
 1781TIP3    H126902   4.141   3.031   1.459  1.2726  0.5360 -0.5392
 1781TIP3    H226903   4.089   2.949   1.342  0.9151 -0.8317  0.5493
 1782TIP3   OH226904   3.587   0.389   1.122  0.2488  0.7693  0.2492
 1782TIP3    H126905   3.650   0.322   1.150  0.3698  0.1554 -1.4103
 1782TIP3    H226906   3.641   0.467   1.107  0.2747  0.9101  1.0289
 1783TIP3   OH226907   4.480   3.339   3.051  0.1882 -0.3793 -0.0565
 1783TIP3    H126908   4.492   3.294   3.135 -1.4869 -0.0755  0.3934
 1783TIP3    H226909   4.406   3.294   3.011 -0.3706  0.8189 -0.4123
 1784TIP3   OH226910   6.588   0.699   0.796  0.2862 -0.3204  0.0193
 1784TIP3    H126911   6.634   0.723   0.716  2.1322  0.0932  1.1505
 1784TIP3    H226912   6.533   0.775   0.816  0.7129  0.0663 -0.2466
 1785TIP3   OH226913   5.857   4.631   3.613  0.0061 -0.2715  0.3132
 1785TIP3    H126914   5.896   4.568   3.553 -1.8854  1.2339 -2.7686
 1785TIP3    H226915   5.910   4.710   3.604 -1.1172  0.4139 -0.5545
 1786TIP3   OH226916   2.573   0.515   3.329  0.4340  0.3261 -0.0655
 1786TIP3    H126917   2.658   0.471   3.324  0.8877  0.9893  1.2528
 1786TIP3    H226918   2.562   0.557   3.244  1.2930  0.0017 -0.3464
 1787TIP3   OH226919   3.556   4.808   0.532  0.6196 -0.6503  0.0967
 1787TIP3    H126920   3.491   4.751   0.493  1.0068 -0.4860 -0.8068
 1787TIP3    H226921   3.511   4.892   0.542  0.2376 -0.9376  0.8712
 1788TIP3   OH226922   4.743   2.152   4.445 -0.8599 -0.7456 -0.1320
 1788TIP3    H126923   4.779   2.081   4.498 -0.6452  0.7525  1.8257
 1788TIP3    H226924   4.812   2.218   4.442 -0.7977 -0.8105 -2.5001
 1789TIP3   OH226925   1.187   0.600   0.212  0.4067  0.1746 -0.1850
 1789TIP3    H126926   1.155   0.619   0.124 -1.5090  1.1615  0.6766
 1789TIP3    H226927   1.248   0.671   0.232  0.3076  0.3282 -0.4355
 1790TIP3   OH226928   0.186   1.146   4.302 -0.0532  0.3593  0.4977
 1790TIP3    H126929   0.192   1.072   4.363  2.0145 -2.5972 -2.8997
 1790TIP3    H226930   0.277   1.170   4.285 -0.6661  3.4914  1.1046
 1791TIP3   OH226931   5.194   0.014   1.828 -0.4900  0.4661 -0.0808
 1791TIP3    H126932   5.169  -0.014   1.740  3.1446 -2.2960 -0.5229
 1791TIP3    H226933   5.152  -0.050   1.887  0.5098 -0.4268 -0.2919
 1792TIP3   OH226934   4.022   4.422   1.155  0.2900 -0.0657 -0.5491
 1792TIP3    H126935   4.011   4.515   1.133  0.8445 -0.3468 -2.1376
 1792TIP3    H226936   4.060   4.423   1.243 -4.6197  1.0787  1.9383
 1793TIP3   OH226937   1.296   5.579   2.305  0.3732  0.7124 -0.2391
 1793TIP3    H126938   1.269   5.661   2.264 -0.7895  1.3403  1.6506
 1793TIP3    H226939   1.218   5.549   2.351  1.2501 -0.6091  0.4390
 1794TIP3   OH226940   5.722   1.501   0.320 -0.1641  0.4583 -0.5180
 1794TIP3    H126941   5.681   1.415   0.317  0.4249  0.1838 -0.8142
 1794TIP3    H226942   5.702   1.541   0.236 -0.6481  0.7116 -0.2844
 1795TIP3   OH226943   5.759   0.989   0.732 -0.1812 -0.1321  0.0986
 1795TIP3    H126944   5.731   0.899   0.743  0.2268 -0.0265  2.6370
 1795TIP3    H226945   5.704   1.039   0.793  1.3411  0.9142  0.6951
 1796TIP3   OH226946   5.731   6.213   1.304 -0.3177  0.2226 -0.2007
 1796TIP3    H126947   5.647   6.221   1.348 -0.6304 -0.3199 -0.6828
 1796TIP3    H226948   5.745   6.297   1.261  0.6775  1.3067  2.0857
 1797TIP3   OH226949   6.198   5.509   2.016 -0.3306 -0.1327  0.7304
 1797TIP3    H126950   6.121   5.475   1.972  1.1644 -1.8024 -0.7739
 1797TIP3    H226951   6.187   5.604   2.014 -1.4224 -0.2450 -1.2277
 1798TIP3   OH226952   5.774   6.379   3.953  0.0729 -0.1214 -0.1498
 1798TIP3    H126953   5.768   6.447   4.020 -1.6544 -0.0396 -0.3223
 1798TIP3    H226954   5.848   6.324   3.980 -0.2023  0.2620  1.4898
 1799TIP3   OH226955   1.300   2.406   4.201 -0.1032 -0.0376  0.2936
 1799TIP3    H126956   1.381   2.388   4.250  1.2153 -0.8058 -1.9923
 1799TIP3    H226957   1.237   2.434   4.268  2.1644  1.0807  2.1215
 1800TIP3   OH226958   4.384   5.209   3.808 -0.4393 -0.2558 -0.2685
 1800TIP3    H126959   4.419   5.259   3.734 -1.2826 -1.2646 -1.3739
 1800TIP3    H226960   4.448   5.224   3.879 -0.2911  1.7994 -0.7532
 1801TIP3   OH226961   2.281   0.465   3.119  0.0644 -0.6904  0.1497
 1801TIP3    H126962   2.331   0.531   3.167 -0.3290 -0.2341 -0.0613
 1801TIP3    H226963   2.200   0.509   3.094  0.1492 -1.0040 -0.7092
 1802TIP3   OH226964   3.384   6.294   3.525  0.4909 -0.0183  0.4057
 1802TIP3    H126965   3.409   6.319   3.436  0.7426 -0.4053  0.3677
 1802TIP3    H226966   3.441   6.221   3.547  0.5002  0.1393  0.9263
 1803TIP3   OH226967   1.379   5.839   0.676  0.7648 -0.2767  0.0495
 1803TIP3    H126968   1.310   5.866   0.616  1.8473 -1.4136 -1.8113
 1803TIP3    H226969   1.389   5.912   0.737 -2.4178 -0.3120  0.7653
 1804TIP3   OH226970   5.698   2.063   1.487  0.2650  0.3627  0.3510
 1804TIP3    H126971   5.611   2.074   1.448 -0.1048 -0.6294  0.8356
 1804TIP3    H226972   5.739   2.149   1.481 -0.9619  0.9924  0.6063
 1805TIP3   OH226973   0.149   6.836   2.166 -0.0503  0.1660  0.2909
 1805TIP3    H126974   0.088   6.865   2.234 -2.4735  1.0305 -2.0532
 1805TIP3    H226975   0.211   6.908   2.156 -3.2338  2.8840 -2.2645
 1806TIP3   OH226976   3.886   2.818   3.090 -0.0575  0.0670 -0.8912
 1806TIP3    H126977   3.797   2.799   3.120  0.2517 -2.5092 -1.3572
 1806TIP3    H226978   3.880   2.904   3.050 -1.4892  1.6022  2.3015
 1807TIP3   OH226979   3.681   3.184   0.161  0.4162 -0.5018  0.7784
 1807TIP3    H126980   3.707   3.160   0.072  0.7397 -0.2912  0.8120
 1807TIP3    H226981   3.719   3.271   0.174 -1.9569  0.7181  0.1125
 1808TIP3   OH226982   3.098   1.328   2.443  0.5799  0.4920 -0.2225
 1808TIP3    H126983   3.175   1.283   2.477  1.3361  1.9867  0.0888
 1808TIP3    H226984   3.130   1.378   2.368 -0.8502 -1.9173 -2.6448
 1809TIP3   OH226985   0.642   2.003   1.264 -0.3579  0.7434  0.0308
 1809TIP3    H126986   0.677   2.092   1.275  1.7779 -0.0229 -0.1146
 1809TIP3    H226987   0.609   1.979   1.351 -2.2420  2.1355 -0.2341
 1810TIP3   OH226988   1.013   2.133   4.784  0.0435 -0.3092 -0.2014
 1810TIP3    H126989   1.026   2.039   4.775 -0.3373 -0.5635  1.5981
 1810TIP3    H226990   0.918   2.144   4.791  0.1969 -0.1773  2.7681
 1811TIP3   OH226991   2.803   2.704   4.081 -0.6603  0.3097  0.2173
 1811TIP3    H126992   2.817   2.798   4.095  0.4019  0.2578 -0.4035
 1811TIP3    H226993   2.785   2.696   3.987 -0.0797 -0.1785  0.1432
 1812TIP3   OH226994   2.267   4.221   3.666  0.3218 -0.3765  0.0575
 1812TIP3    H126995   2.295   4.216   3.575 -1.3827 -1.6148 -0.4546
 1812TIP3    H226996   2.307   4.145   3.708 -0.6254 -1.0471 -0.2132
 1813TIP3   OH226997   0.257   2.290   0.326 -0.3803  0.4601  0.2618
 1813TIP3    H126998   0.272   2.330   0.240 -1.1420  1.2132  0.4612
 1813TIP3    H226999   0.323   2.329   0.383 -0.8801  1.1724  0.3690
 1814TIP3   OH227000   5.519   3.095   1.424  0.1254  0.5033  0.2356
 1814TIP3    H127001   5.430   3.087   1.460 -0.3768  0.3375 -0.9936
 1814TIP3    H227002   5.516   3.046   1.342  0.7217  2.3155 -0.9221
 1815TIP3   OH227003   6.302   1.998   2.991 -0.2788 -0.0555  0.0761
 1815TIP3    H127004   6.397   1.997   3.003 -0.2080  0.5297 -0.4200
 1815TIP3    H227005   6.287   1.940   2.917 -0.2795  0.1116 -0.0540
 1816TIP3   OH227006   5.752   6.893   3.554  0.0942  0.9769  0.0638
 1816TIP3    H127007   5.758   6.917   3.647 -3.3717 -1.5999  1.1667
 1816TIP3    H227008   5.826   6.834   3.541  0.9111  1.7427  1.0244
 1817TIP3   OH227009   5.026   4.709   1.647 -0.1675 -0.5219  0.0473
 1817TIP3    H127010   5.028   4.620   1.612  1.7196 -1.1774  1.6439
 1817TIP3    H227011   5.117   4.739   1.641 -0.4167  0.5598  1.3232
 1818TIP3   OH227012   5.183   5.162   1.572  0.0588  0.6760  0.0720
 1818TIP3    H127013   5.261   5.124   1.531  0.0986  1.7304 -0.8777
 1818TIP3    H227014   5.212   5.184   1.661  0.1768 -0.9743  0.4813
 1819TIP3   OH227015   4.309   0.929   0.220  0.2342 -0.1688  0.6938
 1819TIP3    H127016   4.241   0.992   0.246  2.0404  1.7279  1.1190
 1819TIP3    H227017   4.305   0.928   0.125 -0.8823 -0.6903  0.7279
 1820TIP3   OH227018   2.789   5.272   1.679  0.0229 -0.2644 -0.0947
 1820TIP3    H127019   2.875   5.251   1.714 -0.1113 -0.3162  0.2055
 1820TIP3    H227020   2.735   5.288   1.756 -0.7037 -2.0190 -0.2004
 1821TIP3   OH227021   0.029   3.535   0.280 -0.2825  0.1701  0.4701
 1821TIP3    H127022   0.119   3.568   0.290  0.0461 -0.4527 -0.3444
 1821TIP3    H227023   0.006   3.503   0.367 -0.1195  1.3071  0.9530
 1822TIP3   OH227024   3.223   1.531   1.474  0.3779 -0.4458  0.2193
 1822TIP3    H127025   3.218   1.457   1.534  1.2516 -1.0964 -0.4873
 1822TIP3    H227026   3.317   1.551   1.468  0.2173  0.2357 -0.1782
 1823TIP3   OH227027   5.849   4.559   3.873 -0.4024 -0.0774 -0.1217
 1823TIP3    H127028   5.850   4.604   3.789 -1.1574  0.1742 -0.0109
 1823TIP3    H227029   5.870   4.468   3.853 -1.3216 -0.1793 -0.6918
 1824TIP3   OH227030   1.545   2.572   3.632 -0.0464  0.3135 -0.3418
 1824TIP3    H127031   1.489   2.569   3.709  0.4636  0.3398  0.0395
 1824TIP3    H227032   1.595   2.490   3.635 -1.7723 -0.8740 -2.0123
 1825TIP3   OH227033   0.229   1.596   3.831  0.0725  0.3949 -0.4483
 1825TIP3    H127034   0.146   1.642   3.819 -0.2046  0.7686  2.2162
 1825TIP3    H227035   0.296   1.661   3.815 -0.1933  0.4926 -1.1638
 1826TIP3   OH227036   4.734   5.526   3.391 -0.5480 -0.4088  0.6878
 1826TIP3    H127037   4.642   5.535   3.415 -0.4217 -0.3699  1.1592
 1826TIP3    H227038   4.774   5.481   3.465 -0.1522 -0.2744  0.5583
 1827TIP3   OH227039   4.147   3.482   3.957  0.2721  0.9366 -0.2792
 1827TIP3    H127040   4.084   3.417   3.989  0.5189  1.9632  2.6631
 1827TIP3    H227041   4.096   3.537   3.897 -0.6501 -0.3329 -0.7044
 1828TIP3   OH227042   4.146   5.669   3.840  0.9060 -0.4893 -0.4536
 1828TIP3    H127043   4.199   5.655   3.762  0.2858 -0.9110 -0.8084
 1828TIP3    H227044   4.062   5.629   3.819  0.5633 -0.1458  0.2356
 1829TIP3   OH227045   3.011   6.609   3.712  0.1405 -0.1358 -0.1662
 1829TIP3    H127046   2.925   6.648   3.695  0.7188  1.5431  0.5354
 1829TIP3    H227047   3.036   6.643   3.798  1.5910 -0.4664 -0.4409
 1830TIP3   OH227048   6.658   2.086   2.172  0.1355 -0.0363 -0.2450
 1830TIP3    H127049   6.741   2.134   2.165 -0.2733  0.5956 -0.7675
 1830TIP3    H227050   6.625   2.081   2.082 -0.7888  0.4177  0.0601
 1831TIP3   OH227051   3.993   4.699   3.126 -0.1826 -0.1733 -0.2927
 1831TIP3    H127052   4.048   4.748   3.188 -0.0521 -0.8239  0.1163
 1831TIP3    H227053   3.975   4.616   3.171 -0.3482 -0.5265 -1.0022
 1832TIP3   OH227054   4.333   2.358   3.852 -0.3353  0.3831 -0.2449
 1832TIP3    H127055   4.284   2.399   3.923 -1.0552 -0.4794 -0.2234
 1832TIP3    H227056   4.364   2.276   3.889 -0.5769  0.0039 -0.8761
 1833TIP3   OH227057   0.178   1.339   2.682  0.2052 -0.3214 -0.3345
 1833TIP3    H127058   0.103   1.359   2.738  1.8044  3.7720  0.7350
 1833TIP3    H227059   0.235   1.284   2.736 -1.3780 -2.4773 -0.7430
 1834TIP3   OH227060   5.655   5.304   2.605  0.1257 -0.4083 -0.0106
 1834TIP3    H127061   5.623   5.282   2.693 -1.9279  1.2200 -0.2629
 1834TIP3    H227062   5.581   5.348   2.563  1.9534  1.3387 -1.5993
 1835TIP3   OH227063   6.872   0.416   0.953 -0.1580 -0.1165 -0.0576
 1835TIP3    H127064   6.857   0.510   0.945  2.5673  0.4116  0.0191
 1835TIP3    H227065   6.890   0.387   0.863  1.0872 -0.0980  0.1634
 1836TIP3   OH227066   2.200   1.327   2.306 -0.2492  0.2732 -0.0949
 1836TIP3    H127067   2.264   1.284   2.249  0.6576  1.6402 -0.1555
 1836TIP3    H227068   2.190   1.414   2.269 -0.2993  0.8907  1.3236
 1837TIP3   OH227069   5.389   6.286   2.162  0.2112 -0.4842 -0.1923
 1837TIP3    H127070   5.319   6.245   2.111  0.8341 -1.0059 -0.6381
 1837TIP3    H227071   5.391   6.236   2.244  0.1693 -0.5777 -0.2478
 1838TIP3   OH227072   5.801   0.889   1.788 -0.0607  0.6453 -0.1804
 1838TIP3    H127073   5.763   0.976   1.805 -1.0489  0.6127 -1.9546
 1838TIP3    H227074   5.895   0.905   1.780  0.0674  1.1405  1.8707
 1839TIP3   OH227075   4.350   4.998   2.457 -0.4206  0.0062  0.4700
 1839TIP3    H127076   4.400   4.971   2.534 -2.1725 -1.9262  1.0215
 1839TIP3    H227077   4.401   4.966   2.383  0.4036  0.3334  0.8746
 1840TIP3   OH227078   2.723   6.201   4.323 -0.4830 -0.1387 -0.0163
 1840TIP3    H127079   2.702   6.282   4.275 -0.3638 -0.1042 -0.0110
 1840TIP3    H227080   2.638   6.164   4.346 -0.5584 -0.6257 -1.0441
 1841TIP3   OH227081   1.062   6.314   3.732  0.6431  0.2343 -0.6066
 1841TIP3    H127082   1.143   6.323   3.783 -1.0219  0.1724  2.2050
 1841TIP3    H227083   1.058   6.395   3.681  1.7128  0.9624  0.3938
 1842TIP3   OH227084   1.372   1.628   0.464 -0.5313  0.1500 -0.8531
 1842TIP3    H127085   1.376   1.553   0.404  0.7379 -0.4008 -0.1201
 1842TIP3    H227086   1.333   1.698   0.411 -1.4035 -0.9084 -1.6640
 1843TIP3   OH227087   0.548   1.321   0.412  0.6352  0.2159 -0.1727
 1843TIP3    H127088   0.463   1.282   0.390  0.0546  0.7773  0.9983
 1843TIP3    H227089   0.606   1.246   0.422  0.2050 -0.1936 -0.6527
 1844TIP3   OH227090   0.955   3.866   4.001  0.0928 -0.1517 -0.2801
 1844TIP3    H127091   0.963   3.896   4.092 -3.2470 -1.6443  0.6514
 1844TIP3    H227092   0.908   3.783   4.007  0.7072 -0.8579 -3.3605
 1845TIP3   OH227093   5.689   6.779   0.389 -0.6535  0.3942  0.2128
 1845TIP3    H127094   5.620   6.713   0.381 -1.0792  0.9478 -1.0079
 1845TIP3    H227095   5.754   6.755   0.323  0.3228 -0.0802  1.3072
 1846TIP3   OH227096   4.598   5.994   2.547 -0.3762  0.0720 -0.2446
 1846TIP3    H127097   4.587   6.089   2.558  1.6429  0.4952 -1.2581
 1846TIP3    H227098   4.620   5.983   2.454  1.1343 -1.1718  0.2213
 1847TIP3   OH227099   3.709   4.488   0.841 -0.1641  0.4813 -0.4694
 1847TIP3    H127100   3.672   4.475   0.753 -0.8342  0.2909 -0.1713
 1847TIP3    H227101   3.742   4.401   0.866 -0.6735  0.3503 -0.2312
 1848TIP3   OH227102   1.055   4.160   4.038 -0.0501  0.1853  0.0793
 1848TIP3    H127103   1.125   4.105   4.073  0.0911 -0.6568 -1.4193
 1848TIP3    H227104   1.100   4.223   3.982 -0.4832 -0.6346 -1.2424
 1849TIP3   OH227105   1.627   5.446   3.073  0.4248  0.4571  0.0131
 1849TIP3    H127106   1.577   5.365   3.078  0.5955  0.2056 -1.7114
 1849TIP3    H227107   1.578   5.501   3.012  0.2475  1.7129  1.2435
 1850TIP3   OH227108   3.192   2.117   1.241 -0.3944 -0.7439  0.0366
 1850TIP3    H127109   3.161   2.193   1.191  0.3223  0.3878  1.2363
 1850TIP3    H227110   3.197   2.149   1.331  2.4638 -1.3923  0.2070
 1851TIP3   OH227111   5.874   2.277   3.367  0.2509  0.1370  0.0945
 1851TIP3    H127112   5.910   2.264   3.279  0.7885  1.5578  0.0829
 1851TIP3    H227113   5.817   2.201   3.380  3.1593 -2.2736  0.1089
 1852TIP3   OH227114   3.802   6.059   1.710  0.3491  0.4106  1.1555
 1852TIP3    H127115   3.886   6.014   1.706  1.0365  1.7268 -0.0203
 1852TIP3    H227116   3.775   6.067   1.619 -1.0552  0.0324  1.5168
 1853TIP3   OH227117   0.249   6.569   3.555  0.2772 -0.1603 -0.1815
 1853TIP3    H127118   0.268   6.529   3.470  0.0357  0.0824 -0.3504
 1853TIP3    H227119   0.334   6.570   3.600  0.4964  0.1264 -0.5959
 1854TIP3   OH227120   6.337   2.513   4.645  0.2941  1.0549  0.4603
 1854TIP3    H127121   6.392   2.441   4.615  0.1880  0.2170  2.1426
 1854TIP3    H227122   6.327   2.570   4.569 -0.3968 -1.1742 -1.2222
 1855TIP3   OH227123   2.876   3.679   1.392  0.3877  0.4500 -0.0503
 1855TIP3    H127124   2.837   3.726   1.466  1.1094 -0.5402  0.9845
 1855TIP3    H227125   2.877   3.587   1.419  1.9650  0.2422 -0.6802
 1856TIP3   OH227126   6.766   5.651   3.748  0.0157  0.2084  0.5514
 1856TIP3    H127127   6.737   5.737   3.776  0.9680  0.0565  2.0958
 1856TIP3    H227128   6.755   5.652   3.653 -3.3981  0.7171  0.8379
 1857TIP3   OH227129   2.363   6.533   0.534 -0.1979 -0.0085  0.4625
 1857TIP3    H127130   2.360   6.613   0.587 -0.3469 -0.4046  1.0606
 1857TIP3    H227131   2.337   6.463   0.594 -3.4018 -0.1208 -0.8565
 1858TIP3   OH227132   2.487   0.721   3.824 -0.4373 -0.4736  0.2653
 1858TIP3    H127133   2.415   0.756   3.771 -0.9965 -1.9652 -0.0278
 1858TIP3    H227134   2.465   0.745   3.914 -0.9599 -0.3381  0.1040
 1859TIP3   OH227135   6.424   4.323   3.016 -0.2236  0.6835 -0.0475
 1859TIP3    H127136   6.508   4.297   3.054  0.3372  2.2051 -0.1639
 1859TIP3    H227137   6.360   4.264   3.056  1.1033 -2.0024 -1.5968
 1860TIP3   OH227138   1.859   6.207   0.455 -0.1813 -0.3445  0.0554
 1860TIP3    H127139   1.908   6.194   0.536 -1.0881  0.5454  0.7709
 1860TIP3    H227140   1.840   6.118   0.424  1.8825 -0.7115 -0.2875
 1861TIP3   OH227141   5.586   2.440   0.412 -0.6882 -0.5379  0.4848
 1861TIP3    H127142   5.593   2.441   0.508 -0.6097 -0.8693  0.4848
 1861TIP3    H227143   5.559   2.351   0.391 -1.0192 -0.3779  0.2161
 1862TIP3   OH227144   6.695   5.695   3.464  0.6143  0.1134 -0.2814
 1862TIP3    H127145   6.668   5.617   3.415 -0.1603  0.8079 -0.9951
 1862TIP3    H227146   6.754   5.742   3.405  0.5082  0.4243 -0.1452
 1863TIP3   OH227147   4.870   5.818   1.853 -0.0268 -0.2890 -0.4598
 1863TIP3    H127148   4.917   5.840   1.773  0.2435 -0.1297 -0.2611
 1863TIP3    H227149   4.886   5.892   1.912  0.1821 -0.6205 -0.0907
 1864TIP3   OH227150   5.112   3.089   0.702  0.1129 -0.0128 -0.2117
 1864TIP3    H127151   5.123   3.003   0.742  0.6903 -0.3535 -1.0758
 1864TIP3    H227152   5.160   3.084   0.619  1.3820  1.5786  0.3532
 1865TIP3   OH227153   2.340   2.620   2.669  0.3231 -0.0242  0.4588
 1865TIP3    H127154   2.358   2.556   2.600  2.5839  0.1482  0.8214
 1865TIP3    H227155   2.424   2.663   2.685 -0.4157  0.8018  2.4836
 1866TIP3   OH227156   2.355   1.039   1.930  0.0866  0.2888 -0.9723
 1866TIP3    H127157   2.379   0.955   1.891  1.0065  0.4579 -0.8008
 1866TIP3    H227158   2.309   1.016   2.011 -1.0910 -0.0531 -1.7131
 1867TIP3   OH227159   4.835   4.579   2.228  0.8184 -0.6222  0.5532
 1867TIP3    H127160   4.780   4.550   2.155  0.8425 -2.0823  1.0806
 1867TIP3    H227161   4.887   4.502   2.250  2.2043  0.3717  0.8704
 1868TIP3   OH227162   2.004   1.461   1.411 -0.3345  0.3545 -0.1537
 1868TIP3    H127163   1.969   1.420   1.490  0.4752  0.7836  0.4457
 1868TIP3    H227164   2.030   1.387   1.355  0.0793  0.0389  0.4404
 1869TIP3   OH227165   5.701   0.426   0.994  0.2328 -0.3622  0.0118
 1869TIP3    H127166   5.667   0.449   0.907  1.5878 -2.5412 -1.1858
 1869TIP3    H227167   5.638   0.363   1.029  0.1983 -0.2269  0.1946
 1870TIP3   OH227168   1.619   2.678   1.589 -0.2784  0.0065  0.3140
 1870TIP3    H127169   1.540   2.730   1.601 -0.0636  0.3662  0.1600
 1870TIP3    H227170   1.691   2.740   1.595  0.1439 -0.6034  2.6207
 1871TIP3   OH227171   6.491   3.582   8.036 -0.4206 -0.0343  0.0368
 1871TIP3    H127172   6.509   3.511   8.098 -0.4463  2.8484  3.6714
 1871TIP3    H227173   6.568   3.638   8.041  0.0245 -0.1438 -3.4960
 1872TIP3   OH227174   2.537   4.431   2.681 -0.1313  0.0809  0.4289
 1872TIP3    H127175   2.497   4.457   2.764 -2.2438 -0.6131 -0.2991
 1872TIP3    H227176   2.592   4.356   2.703  0.4454  0.7644  1.3983
 1873TIP3   OH227177   3.880   6.679   2.325  0.3835  0.0117  0.0787
 1873TIP3    H127178   3.827   6.755   2.350  0.3408  0.1535 -0.4410
 1873TIP3    H227179   3.904   6.694   2.234 -1.0303 -1.3820 -0.5770
 1874TIP3   OH227180   4.412   5.378   1.288 -0.3288  0.0452 -0.0978
 1874TIP3    H127181   4.464   5.301   1.264  0.2905  0.4232  0.0230
 1874TIP3    H227182   4.378   5.410   1.205 -2.3085 -1.5522  0.0360
 1875TIP3   OH227183   1.927   6.761   0.943 -0.6316  0.3554 -0.5578
 1875TIP3    H127184   1.913   6.675   0.981  1.7953  0.1250 -0.0084
 1875TIP3    H227185   1.919   6.822   1.017 -0.4484  0.4044 -0.5784
 1876TIP3   OH227186   1.360   4.117   0.972 -0.4234 -0.0178  0.3650
 1876TIP3    H127187   1.313   4.154   0.898 -0.7332 -0.9216  0.0967
 1876TIP3    H227188   1.306   4.044   1.001  0.3162 -0.4587  0.6758
 1877TIP3   OH227189   6.224   2.136   0.857  0.1755 -0.1983 -0.5060
 1877TIP3    H127190   6.235   2.166   0.947  0.2478  0.8229 -0.8440
 1877TIP3    H227191   6.201   2.215   0.807  1.3133 -0.5190 -1.5985
 1878TIP3   OH227192   2.098   1.283   2.010  0.0909 -0.5860 -0.1922
 1878TIP3    H127193   2.191   1.300   2.028 -0.2542 -0.0019  1.1233
 1878TIP3    H227194   2.054   1.365   2.031 -0.7951 -1.0342 -0.2693
 1879TIP3   OH227195   1.245   6.686   0.695  0.4418  0.0724  0.8363
 1879TIP3    H127196   1.330   6.699   0.654 -0.4004  0.8388 -0.7586
 1879TIP3    H227197   1.202   6.620   0.642 -0.9969  1.6853 -0.1043
 1880TIP3   OH227198   6.165   5.051   1.840 -0.1303  0.2459 -0.3808
 1880TIP3    H127199   6.146   5.022   1.929  0.8548 -0.1425 -0.2871
 1880TIP3    H227200   6.085   5.032   1.791  0.2069 -1.9943 -0.1646
 1881TIP3   OH227201   2.244   3.365   3.602 -0.0945 -0.3581 -0.4998
 1881TIP3    H127202   2.299   3.422   3.656 -0.3661 -0.7399  0.1875
 1881TIP3    H227203   2.273   3.383   3.512  0.3795  0.2651 -0.2332
 1882TIP3   OH227204   2.846   4.894   8.149 -0.1640 -0.0882 -0.4956
 1882TIP3    H127205   2.916   4.834   8.120  0.9134 -0.7108  2.8910
 1882TIP3    H227206   2.892   4.975   8.171 -0.8063  0.1938 -0.1832
 1883TIP3   OH227207   2.570   3.927   0.392 -0.4281  0.2191  0.1472
 1883TIP3    H127208   2.651   3.975   0.409 -0.6192  1.4373 -1.9082
 1883TIP3    H227209   2.500   3.988   0.416 -0.7956 -0.8898  2.0845
 1884TIP3   OH227210   1.070   6.542   2.346 -0.1220  0.3004 -0.3647
 1884TIP3    H127211   1.123   6.605   2.394 -0.7983  0.7426 -0.1786
 1884TIP3    H227212   1.108   6.457   2.368  0.2895  0.5868  0.0435
 1885TIP3   OH227213   6.626   6.271   4.236  0.0106 -0.3300  0.2443
 1885TIP3    H127214   6.620   6.202   4.302 -0.2157  0.5974  1.2331
 1885TIP3    H227215   6.684   6.337   4.276  0.9101 -0.3148 -1.0226
 1886TIP3   OH227216   2.979   6.689   1.538  0.0597 -0.2661 -0.1307
 1886TIP3    H127217   2.912   6.749   1.507 -0.4505 -0.8970 -0.2793
 1886TIP3    H227218   2.935   6.604   1.542  0.5809 -0.5098  0.7254
 1887TIP3   OH227219   6.336   3.612   2.212 -0.3288  0.3507  0.3007
 1887TIP3    H127220   6.367   3.528   2.246  0.3044  0.1083 -0.8113
 1887TIP3    H227221   6.362   3.612   2.120  0.3719  2.0994  0.4530
 1888TIP3   OH227222   3.119   2.958   2.143  0.5567  0.0139 -0.0670
 1888TIP3    H127223   3.146   2.968   2.052 -1.6134  1.1038 -0.6391
 1888TIP3    H227224   3.121   3.047   2.179 -0.2872 -0.1533  0.4271
 1889TIP3   OH227225   4.146   1.178   3.795 -0.4431  0.2876 -0.3906
 1889TIP3    H127226   4.196   1.248   3.753 -1.3106  0.8756 -0.4745
 1889TIP3    H227227   4.146   1.202   3.888 -2.6731  1.6958 -0.6853
 1890TIP3   OH227228   6.397   0.466   0.893  0.2211  0.0361 -0.3727
 1890TIP3    H127229   6.434   0.478   0.806 -2.3891 -0.0665 -1.5740
 1890TIP3    H227230   6.397   0.371   0.906 -0.6573 -0.0460 -0.8875
 1891TIP3   OH227231   2.136   5.353   1.068 -0.0066  0.0523  0.3955
 1891TIP3    H127232   2.071   5.390   1.127 -0.8121 -1.7826  0.7108
 1891TIP3    H227233   2.085   5.304   1.003  1.0132 -0.8499  0.2397
 1892TIP3   OH227234   5.432   0.244   1.962  0.0484 -0.0796 -0.3735
 1892TIP3    H127235   5.451   0.160   2.002  0.2246  0.2462  0.2413
 1892TIP3    H227236   5.354   0.276   2.009  0.2382  0.2909 -0.3063
 1893TIP3   OH227237   1.894   4.580   3.206  0.7345  0.3006  0.1569
 1893TIP3    H127238   1.970   4.564   3.262  0.6077 -0.1638  0.1966
 1893TIP3    H227239   1.929   4.580   3.117  0.5969 -1.1535  0.0806
 1894TIP3   OH227240   1.240   6.075   4.084 -0.9309 -0.9646  0.8024
 1894TIP3    H127241   1.314   6.061   4.142  1.6087  1.5515 -1.5597
 1894TIP3    H227242   1.267   6.035   4.001 -4.3193 -4.2056  0.9878
 1895TIP3   OH227243   1.147   5.654   3.807 -0.2891  0.0845  0.4423
 1895TIP3    H127244   1.127   5.590   3.876 -2.4573 -1.5537 -1.5271
 1895TIP3    H227245   1.087   5.727   3.825  0.0741  0.2495  1.0062
 1896TIP3   OH227246   6.565   3.097   3.525 -0.4729  0.5882  0.9029
 1896TIP3    H127247   6.481   3.059   3.552 -0.5424  0.1893  0.1723
 1896TIP3    H227248   6.631   3.044   3.569 -0.5665 -0.5511 -0.2624
 1897TIP3   OH227249   4.391   1.067   8.280  0.2848  0.1130 -0.7735
 1897TIP3    H127250   4.479   1.038   8.304  0.4983  1.0849 -0.3559
 1897TIP3    H227251   4.373   1.140   8.339 -0.2719  0.7936 -1.7693
 1898TIP3   OH227252   3.121   2.293   3.063  0.0728  0.1312  0.5345
 1898TIP3    H127253   3.124   2.287   2.967 -1.7507 -1.1207  0.5177
 1898TIP3    H227254   3.177   2.221   3.093  0.4469  0.3711  0.4191
 1899TIP3   OH227255   3.290   6.449   2.513 -0.9413 -0.3089  0.0576
 1899TIP3    H127256   3.349   6.468   2.586 -1.0291 -1.7731  0.5356
 1899TIP3    H227257   3.349   6.440   2.437 -0.8164  0.8398  0.0014
 1900TIP3   OH227258   5.569   0.678   1.749 -0.2464  0.3903  0.7895
 1900TIP3    H127259   5.533   0.589   1.752  0.2379  0.1731  0.2423
 1900TIP3    H227260   5.644   0.676   1.808  0.0147  0.3232  0.4548
 1901TIP3   OH227261   5.121   1.020   1.784  0.7452  0.6204 -0.7944
 1901TIP3    H127262   5.074   1.091   1.739  2.0429  2.6269  0.7898
 1901TIP3    H227263   5.152   0.963   1.713 -0.4886  1.5353 -2.1324
 1902TIP3   OH227264   2.994   0.916   2.183  0.0919  0.3855  0.4409
 1902TIP3    H127265   2.961   0.836   2.141  0.3318  1.0083 -1.0147
 1902TIP3    H227266   3.089   0.904   2.187  0.0884  0.4157  0.6329
 1903TIP3   OH227267   4.948   2.969   2.292  0.6675 -0.0042  0.2378
 1903TIP3    H127268   5.028   2.920   2.278  0.7005  0.0110  0.3732
 1903TIP3    H227269   4.886   2.905   2.326  0.4684 -0.1270 -0.3456
 1904TIP3   OH227270   3.960   3.657   3.802  0.0240  0.2081  0.4600
 1904TIP3    H127271   4.014   3.735   3.813  1.4753 -0.8400  1.0758
 1904TIP3    H227272   3.986   3.622   3.716  1.2908 -0.9752  1.2889
 1905TIP3   OH227273   5.178   3.700   0.939  0.0349  0.4168  0.7689
 1905TIP3    H127274   5.201   3.793   0.942 -0.1097  0.5457 -0.9862
 1905TIP3    H227275   5.127   3.691   0.858 -1.8287 -0.7928  2.0233
 1906TIP3   OH227276   4.261   3.245   3.594 -0.0054  0.1512 -0.3739
 1906TIP3    H127277   4.300   3.182   3.533  0.9567  2.6039 -2.5191
 1906TIP3    H227278   4.181   3.274   3.551  0.8338  2.1378 -0.6899
 1907TIP3   OH227279   2.283   3.594   4.464 -0.2227  0.1618 -0.2176
 1907TIP3    H127280   2.200   3.638   4.481 -1.8624 -2.5878 -0.4709
 1907TIP3    H227281   2.302   3.546   4.545  0.6350  0.0489 -0.4748
 1908TIP3   OH227282   1.515   4.410   3.336 -0.3603  0.1655  0.0783
 1908TIP3    H127283   1.436   4.400   3.283 -0.6616 -0.9990  0.7177
 1908TIP3    H227284   1.543   4.500   3.320 -2.2329  0.8486  0.4276
 1909TIP3   OH227285   4.910   5.707   3.625 -0.4195  0.6040  0.6131
 1909TIP3    H127286   4.819   5.681   3.612 -0.4366  0.3097  1.2807
 1909TIP3    H227287   4.958   5.658   3.558 -0.4329 -1.3314  1.9588
 1910TIP3   OH227288   3.137   1.164   2.943  0.2059  0.3966 -0.0818
 1910TIP3    H127289   3.150   1.158   3.037 -0.5645  0.7019  0.0516
 1910TIP3    H227290   3.216   1.125   2.905  1.9221  2.9272  0.6459
 1911TIP3   OH227291   6.793   3.271   3.024  0.1253 -0.0157 -0.0359
 1911TIP3    H127292   6.760   3.346   3.075 -1.1735 -1.6084  1.5813
 1911TIP3    H227293   6.805   3.306   2.936 -4.8503  1.1407 -0.5723
 1912TIP3   OH227294   2.101   5.109   0.326 -0.3645  0.1809  0.1227
 1912TIP3    H127295   2.188   5.148   0.325 -0.4025  0.2612 -0.0317
 1912TIP3    H227296   2.111   5.026   0.278 -0.1601 -0.2655  0.9189
 1913TIP3   OH227297   1.780   6.496   3.400 -0.5644  0.0505  0.0234
 1913TIP3    H127298   1.801   6.566   3.461 -1.8189  2.0846 -1.6980
 1913TIP3    H227299   1.697   6.524   3.360 -0.0646 -1.3966 -2.2059
 1914TIP3   OH227300   3.202   1.590   1.191 -0.8200 -0.2579  0.1743
 1914TIP3    H127301   3.217   1.685   1.189  1.9829 -0.6337  0.1282
 1914TIP3    H227302   3.214   1.566   1.283  2.6220 -1.0352 -0.3438
 1915TIP3   OH227303   3.075   4.922   1.683  0.2069  0.3752 -0.1907
 1915TIP3    H127304   3.018   4.856   1.723 -0.7115  1.0758 -0.3093
 1915TIP3    H227305   3.155   4.875   1.662 -0.5132 -0.7545 -0.4770
 1916TIP3   OH227306   2.535   1.532   1.886  0.3491 -0.2631  0.1067
 1916TIP3    H127307   2.574   1.489   1.810 -0.3390 -1.0223  0.1655
 1916TIP3    H227308   2.598   1.600   1.910  0.7821 -0.2931 -0.8737
 1917TIP3   OH227309   4.499   4.809   2.298  0.0774  0.2204 -0.3259
 1917TIP3    H127310   4.568   4.794   2.234  0.4462 -0.3188  0.1863
 1917TIP3    H227311   4.430   4.747   2.275 -0.0547  0.4588 -0.5749
 1918TIP3   OH227312   0.951   6.740   2.558  0.2684 -0.7450 -0.2491
 1918TIP3    H127313   0.944   6.805   2.628  0.3984 -1.4033  0.3887
 1918TIP3    H227314   1.045   6.719   2.555  0.5169  0.4496 -1.7214
 1919TIP3   OH227315   0.437   0.116   1.282  0.2415  0.5659 -0.6890
 1919TIP3    H127316   0.430   0.204   1.245  0.4497  0.2877 -1.4095
 1919TIP3    H227317   0.508   0.075   1.233  1.5419  0.6551  1.0029
 1920TIP3   OH227318   0.587   0.909   0.861  0.1946 -0.3272 -0.5660
 1920TIP3    H127319   0.514   0.866   0.815  0.5914 -0.2730 -1.2702
 1920TIP3    H227320   0.619   0.974   0.798  1.5490 -1.0937 -0.7009
 1921TIP3   OH227321   1.012   5.018   3.357 -0.3572 -0.0345 -0.1716
 1921TIP3    H127322   0.936   4.971   3.324 -0.4967  0.2827 -0.3078
 1921TIP3    H227323   0.986   5.048   3.444 -0.0814 -0.6499  0.1296
 1922TIP3   OH227324   0.222   0.835   8.382 -0.2363 -0.0745  0.1666
 1922TIP3    H127325   0.283   0.793   8.321  0.7755 -0.2578  1.2655
 1922TIP3    H227326   0.198   0.766   8.444 -0.4365  0.3511  0.5741
 1923TIP3   OH227327   1.287   3.919   3.093 -0.6096  0.4813  0.6357
 1923TIP3    H127328   1.201   3.875   3.098 -0.4532  0.2826  1.9334
 1923TIP3    H227329   1.296   3.943   3.001 -2.1867  0.7476  0.5233
 1924TIP3   OH227330   0.884   3.073   2.520 -0.4785 -0.2749  0.0432
 1924TIP3    H127331   0.904   3.032   2.604 -1.4752 -1.4337 -0.2631
 1924TIP3    H227332   0.845   3.004   2.468 -1.4871  0.8712 -0.7758
 1925TIP3   OH227333   6.298   5.025   2.916  0.7184 -0.3821 -0.1825
 1925TIP3    H127334   6.208   5.047   2.893  0.8992  1.5116  0.6966
 1925TIP3    H227335   6.326   4.963   2.849 -0.9770 -0.3835 -0.9273
 1926TIP3   OH227336   5.909   2.935   3.702 -0.2592  0.4566 -0.1525
 1926TIP3    H127337   5.974   2.866   3.691 -1.9863 -1.5771  1.5801
 1926TIP3    H227338   5.910   2.955   3.795 -1.0443  1.5363 -0.3492
 1927TIP3   OH227339   4.859   5.897   0.790  0.1525  0.0525 -0.1684
 1927TIP3    H127340   4.805   5.848   0.728 -2.4437  0.7778  1.3515
 1927TIP3    H227341   4.868   5.984   0.752 -1.4582  0.5058  0.4385
 1928TIP3   OH227342   3.962   4.252   4.656 -0.5089 -0.1030  0.1373
 1928TIP3    H127343   3.987   4.189   4.587 -1.2414  0.5310 -0.7280
 1928TIP3    H227344   4.035   4.314   4.658 -1.0101  0.5623 -0.9403
 1929TIP3   OH227345   1.506   3.466   0.366  0.0471 -0.1624  0.4520
 1929TIP3    H127346   1.447   3.479   0.292  1.6734  0.6454 -0.7697
 1929TIP3    H227347   1.567   3.539   0.361  0.9264 -0.7517  1.8999
 1930TIP3   OH227348   1.315   3.159   2.457 -0.1729 -0.1331 -0.4128
 1930TIP3    H127349   1.265   3.082   2.430 -0.4867 -0.2618  0.4978
 1930TIP3    H227350   1.400   3.123   2.483 -0.0429 -0.0725 -0.7567
 1931TIP3   OH227351   1.427   2.340   3.856 -0.4960  0.0383 -0.3343
 1931TIP3    H127352   1.389   2.280   3.792 -0.3696 -1.0450  0.5749
 1931TIP3    H227353   1.497   2.290   3.897  1.1183  1.5731 -1.0922
 1932TIP3   OH227354   0.135   2.003   4.596 -0.1013 -0.2777  0.0924
 1932TIP3    H127355   0.195   2.071   4.626  1.3668 -1.3754 -0.2937
 1932TIP3    H227356   0.066   2.052   4.551  1.2268  0.9430 -0.7117
 1933TIP3   OH227357   4.356   2.197   3.015  0.4529  0.1940 -0.1353
 1933TIP3    H127358   4.334   2.121   3.068  2.2875  0.0038  0.4220
 1933TIP3    H227359   4.282   2.257   3.027 -0.2619 -0.8290  0.7184
 1934TIP3   OH227360   5.235   6.900   4.751 -0.1629 -0.5790 -0.0151
 1934TIP3    H127361   5.271   6.971   4.803  0.4016 -0.6148 -0.3512
 1934TIP3    H227362   5.310   6.864   4.704 -0.8095  0.0562 -1.5881
 1935TIP3   OH227363   0.210   1.429   1.321  0.1293 -0.2872 -0.7187
 1935TIP3    H127364   0.127   1.477   1.318  0.8378  1.0633  0.1693
 1935TIP3    H227365   0.214   1.383   1.237 -1.8014 -0.9277 -0.5105
 1936TIP3   OH227366   1.962   2.494   3.462  0.2335 -0.0379 -0.6738
 1936TIP3    H127367   1.936   2.582   3.434  0.5074 -0.1949 -1.4624
 1936TIP3    H227368   2.038   2.474   3.408  0.1842 -0.7516 -0.4836
 1937TIP3   OH227369   5.243   4.412   0.025  0.0255  0.3589  0.6347
 1937TIP3    H127370   5.330   4.450   0.012 -0.1104 -0.0123 -1.6237
 1937TIP3    H227371   5.185   4.464  -0.030 -0.5258 -1.6838 -0.8319
 1938TIP3   OH227372   1.155   0.337   3.926 -0.4059  0.1061  0.1640
 1938TIP3    H127373   1.173   0.262   3.869  0.5898  0.4429  0.0325
 1938TIP3    H227374   1.186   0.413   3.877 -1.5574  0.6444  0.2264
 1939TIP3   OH227375   4.128   0.715   1.933 -0.0745 -0.2130  0.2448
 1939TIP3    H127376   4.057   0.723   1.869 -0.1370  2.6229  0.5428
 1939TIP3    H227377   4.194   0.777   1.902  0.2676  0.6042  2.4363
 1940TIP3   OH227378   5.379   4.308   2.350  0.6926 -0.1715  0.4494
 1940TIP3    H127379   5.397   4.373   2.282 -0.5791 -1.2651 -1.0113
 1940TIP3    H227380   5.288   4.325   2.375 -0.0134 -2.0022 -0.7208
 1941TIP3   OH227381   1.755   1.352   2.812 -0.6668 -0.2279 -0.3238
 1941TIP3    H127382   1.675   1.305   2.836 -0.1915 -0.8398  0.1148
 1941TIP3    H227383   1.826   1.291   2.834  0.0538  1.1908  1.5249
 1942TIP3   OH227384   1.246   6.145   1.553  0.4615 -0.2500 -0.1005
 1942TIP3    H127385   1.267   6.156   1.460 -2.1457 -2.3130 -1.0534
 1942TIP3    H227386   1.180   6.213   1.571 -1.3805 -1.7881 -0.7155
 1943TIP3   OH227387   2.862   6.351   0.487  0.1600  0.3660  0.5514
 1943TIP3    H127388   2.832   6.405   0.560  1.3816  1.7227  0.0904
 1943TIP3    H227389   2.816   6.268   0.498  0.1071  0.6340  2.6861
 1944TIP3   OH227390   3.771   4.276   4.371  0.3265 -0.4656 -0.0696
 1944TIP3    H127391   3.778   4.298   4.464 -0.1641  0.8257 -0.3180
 1944TIP3    H227392   3.845   4.321   4.330  1.1013 -1.8123 -0.1915
 1945TIP3   OH227393   2.981   5.671   3.874 -0.0681 -0.8817 -0.2108
 1945TIP3    H127394   2.890   5.665   3.903 -0.9328  2.2199 -1.7962
 1945TIP3    H227395   3.033   5.648   3.951 -2.1772 -1.0722  1.2260
 1946TIP3   OH227396   3.071   5.583   2.546  0.1499 -0.5534  0.3860
 1946TIP3    H127397   2.977   5.580   2.530  0.3231 -2.8873 -0.5050
 1946TIP3    H227398   3.079   5.597   2.640 -1.1105 -1.4538  0.6465
 1947TIP3   OH227399   6.935   4.089   4.766 -0.0817 -0.4648 -0.2916
 1947TIP3    H127400   6.865   4.059   4.707  0.1342  1.5347 -1.6361
 1947TIP3    H227401   6.889   4.119   4.845 -0.6199 -0.4080 -0.6263
 1948TIP3   OH227402   2.828   3.420   1.444  0.4853 -0.0266 -0.3734
 1948TIP3    H127403   2.853   3.347   1.388  1.4618  1.6237 -2.1971
 1948TIP3    H227404   2.869   3.402   1.528  1.1429 -1.3027 -0.9546
 1949TIP3   OH227405   6.766   5.852   1.331  0.1417 -0.1136  0.1528
 1949TIP3    H127406   6.824   5.894   1.394  0.1757  1.6942 -1.0197
 1949TIP3    H227407   6.692   5.913   1.323 -2.2739 -2.5400  1.9758
 1950TIP3   OH227408   6.879   3.815   2.162 -0.0312  0.3876  0.0288
 1950TIP3    H127409   6.811   3.767   2.210  0.9706 -0.5511  0.5467
 1950TIP3    H227410   6.889   3.767   2.080  1.1616 -0.4684  0.6618
 1951TIP3   OH227411   3.655   3.394   3.201 -0.1378 -0.2351  0.6353
 1951TIP3    H127412   3.692   3.475   3.238 -0.9399  0.3003  0.2808
 1951TIP3    H227413   3.681   3.395   3.109 -1.3846  0.3652  0.2770
 1952TIP3   OH227414   1.176   2.309   1.451  0.0902 -0.0943  0.1773
 1952TIP3    H127415   1.116   2.310   1.376 -0.5204  1.4486  0.6358
 1952TIP3    H227416   1.259   2.342   1.416 -0.0164  0.0435  0.0527
 1953TIP3   OH227417   2.393   5.512   3.650 -0.0251  0.0654  0.4343
 1953TIP3    H127418   2.359   5.476   3.732 -1.1809  0.1904  0.0397
 1953TIP3    H227419   2.482   5.539   3.671  0.0326 -0.7782  1.3883
 1954TIP3   OH227420   3.875   3.668   1.571  0.1423  0.2671  0.0399
 1954TIP3    H127421   3.886   3.738   1.506 -3.5387 -0.0307 -1.1372
 1954TIP3    H227422   3.941   3.603   1.548  1.9066  2.1548 -0.4863
 1955TIP3   OH227423   6.676   3.468   1.807 -0.6080  0.1456 -0.5123
 1955TIP3    H127424   6.665   3.439   1.717 -2.2433  0.9518 -0.6127
 1955TIP3    H227425   6.677   3.563   1.802 -1.9013  0.2402  0.4022
 1956TIP3   OH227426   6.333   4.204   3.730  0.4210 -0.3893  0.0542
 1956TIP3    H127427   6.263   4.139   3.728  0.5976 -0.7362  2.3557
 1956TIP3    H227428   6.410   4.155   3.761  1.6485  0.0625 -2.0764
 1957TIP3   OH227429   6.099   4.421   3.726  0.1152  0.0586  0.0697
 1957TIP3    H127430   6.114   4.411   3.632  0.1606 -1.6186  0.2289
 1957TIP3    H227431   6.113   4.333   3.762  1.0297  0.8643  1.7786
 1958TIP3   OH227432   4.762   1.261   2.704  0.5148 -0.0616  0.2436
 1958TIP3    H127433   4.779   1.279   2.797  2.1664 -0.5014  0.0517
 1958TIP3    H227434   4.733   1.169   2.703 -0.5635  0.2635  0.4198
 1959TIP3   OH227435   5.322   3.375   2.041 -0.6069  0.1859 -0.6945
 1959TIP3    H127436   5.255   3.438   2.067 -0.7313  0.3596 -1.4092
 1959TIP3    H227437   5.323   3.379   1.945  0.5588  0.3306 -0.6954
 1960TIP3   OH227438   6.428   0.467   3.152 -0.0997  0.2016 -0.0601
 1960TIP3    H127439   6.433   0.554   3.192 -1.8244  0.4904 -0.3792
 1960TIP3    H227440   6.408   0.408   3.225 -2.3324  0.6036 -0.2482
 1961TIP3   OH227441   6.802   5.118   1.206  0.0152 -0.1691 -0.0326
 1961TIP3    H127442   6.871   5.062   1.170 -0.5916 -1.2022  0.3844
 1961TIP3    H227443   6.849   5.184   1.257  0.6828 -1.8329  1.6279
 1962TIP3   OH227444   6.890   2.725   0.044  0.6304 -0.4112 -0.1725
 1962TIP3    H127445   6.933   2.750   0.126 -0.0410  0.1176  0.0337
 1962TIP3    H227446   6.895   2.804  -0.011  0.2156 -0.4433 -0.2625
 1963TIP3   OH227447   0.126   0.652   0.043 -0.2298  0.0245 -0.5697
 1963TIP3    H127448   0.203   0.595   0.049  0.8671  1.5976  2.2359
 1963TIP3    H227449   0.053   0.597   0.071  0.2568 -0.8398 -0.9539
 1964TIP3   OH227450   4.321   4.968   3.763 -0.3462  0.2242 -0.3751
 1964TIP3    H127451   4.351   4.943   3.851 -0.1801  0.6144 -0.3192
 1964TIP3    H227452   4.353   5.057   3.751 -1.7384  0.7724 -0.1973
 1965TIP3   OH227453   2.870   6.006   3.179  0.1411 -1.1985  0.3570
 1965TIP3    H127454   2.950   5.955   3.164  0.9132  0.3966 -1.5137
 1965TIP3    H227455   2.889   6.060   3.255  0.7593 -1.0427  0.0970
 1966TIP3   OH227456   4.781   5.733   2.943  0.2380  0.5771 -0.1936
 1966TIP3    H127457   4.732   5.756   2.864 -0.1203  0.6159  0.0370
 1966TIP3    H227458   4.773   5.809   3.000 -1.0797 -0.1393  0.6325
 1967TIP3   OH227459   1.041   2.747   3.079  0.1831  0.3681  0.0953
 1967TIP3    H127460   1.060   2.826   3.130 -1.0492  0.3645  0.6014
 1967TIP3    H227461   1.110   2.744   3.013  0.7399  1.4033  0.6011
 1968TIP3   OH227462   2.824   3.259   1.918  0.4717 -0.8048  0.5102
 1968TIP3    H127463   2.800   3.177   1.961  0.3520 -0.4577  1.1108
 1968TIP3    H227464   2.749   3.279   1.861 -0.5444  0.0635  2.0713
 1969TIP3   OH227465   3.678   2.040   8.476  0.4680 -0.0025 -0.1136
 1969TIP3    H127466   3.590   2.008   8.453  1.6389 -3.8307 -0.0061
 1969TIP3    H227467   3.718   2.062   8.392  0.9546 -3.0370 -0.7786
 1970TIP3   OH227468   0.025   4.178   3.174  0.0976  0.2531 -0.1478
 1970TIP3    H127469  -0.005   4.127   3.249  4.2799 -1.3066  0.7559
 1970TIP3    H227470   0.056   4.260   3.211  0.1029  0.4312 -0.5354
 1971TIP3   OH227471   3.986   1.953   1.520 -0.4870  0.0355 -0.0077
 1971TIP3    H127472   4.073   1.960   1.482 -0.9704  0.3091 -1.0822
 1971TIP3    H227473   3.964   2.042   1.548  0.2285 -0.3015  1.8085
 1972TIP3   OH227474   2.874   0.146   0.706  0.3821  0.3818 -0.7342
 1972TIP3    H127475   2.967   0.125   0.705  0.3549  0.2577 -0.6753
 1972TIP3    H227476   2.834   0.076   0.758  0.6998  2.2271  2.2326
 1973TIP3   OH227477   3.337   5.274   0.564  0.1869 -0.5879 -0.1300
 1973TIP3    H127478   3.298   5.285   0.477  0.4286 -0.3690 -0.2123
 1973TIP3    H227479   3.431   5.284   0.549  0.2764 -1.1296  0.0634
 1974TIP3   OH227480   4.583   1.224   0.996  0.1855  0.1925 -0.4051
 1974TIP3    H127481   4.649   1.263   1.053 -0.1191 -1.9354  1.5622
 1974TIP3    H227482   4.633   1.178   0.929  0.5546  2.2129 -1.6048
 1975TIP3   OH227483   2.576   3.753   3.503  0.5858 -0.1141  0.3848
 1975TIP3    H127484   2.559   3.842   3.473  2.3249  0.4060  0.8166
 1975TIP3    H227485   2.598   3.704   3.424 -0.4631 -0.2027  0.1356
 1976TIP3   OH227486   5.740   4.950   1.216  0.3111  0.7368  0.2974
 1976TIP3    H127487   5.673   4.889   1.247  0.8503  0.8294  1.7357
 1976TIP3    H227488   5.823   4.913   1.249  0.7870  1.4865 -0.0358
 1977TIP3   OH227489   5.614   4.169   3.070  0.4869 -0.4454 -0.2959
 1977TIP3    H127490   5.656   4.193   2.987 -0.5172  1.0403 -0.3964
 1977TIP3    H227491   5.556   4.097   3.047 -0.5316  0.6015 -1.1226
 1978TIP3   OH227492   3.828   3.437   2.022 -0.4592  0.1544 -0.1708
 1978TIP3    H127493   3.905   3.435   2.080 -0.5330 -0.6423 -0.0877
 1978TIP3    H227494   3.764   3.490   2.070 -0.4140 -0.2538  0.3442
 1979TIP3   OH227495   6.398   6.838   1.099 -0.7509  0.0581 -0.4664
 1979TIP3    H127496   6.402   6.846   1.003 -2.0266  0.6964 -0.4849
 1979TIP3    H227497   6.305   6.828   1.118 -0.9641  3.5334  0.9394
 1980TIP3   OH227498   2.516   0.476   0.631  0.4548 -0.2233 -0.4493
 1980TIP3    H127499   2.429   0.512   0.646 -0.5859 -2.7715  0.3234
 1980TIP3    H227500   2.522   0.466   0.536 -0.9727 -1.8398 -0.4140
 1981TIP3   OH227501   1.560   3.241   2.892  0.4564  0.5007 -0.3444
 1981TIP3    H127502   1.532   3.314   2.837  1.3038  0.9591 -0.1919
 1981TIP3    H227503   1.526   3.262   2.979 -0.4970  0.0012 -0.5849
 1982TIP3   OH227504   6.664   3.446   1.039 -0.3526 -0.4335 -1.0045
 1982TIP3    H127505   6.653   3.367   1.092  0.0977 -0.1141 -0.4264
 1982TIP3    H227506   6.707   3.416   0.960 -0.5603 -0.8350 -0.9671
 1983TIP3   OH227507   0.781   5.081   1.239 -0.3643 -0.0230 -0.4257
 1983TIP3    H127508   0.743   5.167   1.254 -0.9040  0.1375 -2.3887
 1983TIP3    H227509   0.863   5.098   1.192  1.1571 -0.4730  1.9068
 1984TIP3   OH227510   0.648   4.790   4.430  0.1208 -0.5331  0.1760
 1984TIP3    H127511   0.705   4.731   4.480  1.5305 -1.1193 -1.9711
 1984TIP3    H227512   0.593   4.731   4.378  0.5320  0.0298 -0.9194
 1985TIP3   OH227513   5.873   6.651   2.314  0.3648  0.6449  0.2557
 1985TIP3    H127514   5.934   6.603   2.257  1.2416 -0.2097  1.8363
 1985TIP3    H227515   5.893   6.619   2.402 -1.6871  1.1155  0.9397
 1986TIP3   OH227516   1.495   2.885   4.505  0.3216  0.1458  0.4385
 1986TIP3    H127517   1.417   2.836   4.480  0.1893  0.7446 -0.3637
 1986TIP3    H227518   1.550   2.821   4.551  0.0677 -0.6900 -0.4005
 1987TIP3   OH227519   2.347   0.909   4.645  0.1206 -0.7082  0.3006
 1987TIP3    H127520   2.421   0.848   4.646  1.3611  0.7434  0.1901
 1987TIP3    H227521   2.364   0.968   4.718 -1.6343 -1.0979  1.0772
 1988TIP3   OH227522   1.570   0.125   2.486  0.1740  0.0547  0.5160
 1988TIP3    H127523   1.547   0.178   2.410 -0.0048  0.8192  1.0841
 1988TIP3    H227524   1.606   0.188   2.549  1.2233 -0.7101  0.7044
 1989TIP3   OH227525   6.796   3.620   4.005 -0.6000  0.0833  0.1370
 1989TIP3    H127526   6.842   3.683   4.060  0.1981  0.0262 -0.4470
 1989TIP3    H227527   6.705   3.647   4.008 -0.4616  0.5004  0.9151
 1990TIP3   OH227528   5.555   0.400   3.801 -0.5823  0.1982 -0.1592
 1990TIP3    H127529   5.484   0.361   3.750 -0.3003  0.5632 -0.8473
 1990TIP3    H227530   5.539   0.370   3.891 -0.5360 -1.2644 -0.6095
 1991TIP3   OH227531   3.601   2.948   2.283 -0.7354  0.1104 -0.1132
 1991TIP3    H127532   3.513   2.948   2.320 -0.4632  0.5417  0.5738
 1991TIP3    H227533   3.600   2.880   2.217 -1.5985  0.1452 -0.1458
 1992TIP3   OH227534   5.044   5.362   1.469  0.4703  0.0929 -0.2645
 1992TIP3    H127535   4.954   5.345   1.497  0.7046 -1.9570 -0.6091
 1992TIP3    H227536   5.091   5.281   1.488  2.4239  1.3267  0.4970
 1993TIP3   OH227537   5.327   2.838   2.741 -0.3595 -0.0328 -0.0226
 1993TIP3    H127538   5.381   2.912   2.769  1.1053  0.4114 -3.4466
 1993TIP3    H227539   5.240   2.876   2.728 -0.3047  0.4145  0.8177
 1994TIP3   OH227540   4.082   6.303   3.595  0.7875 -0.0038  0.4474
 1994TIP3    H127541   4.111   6.299   3.504  1.7759  0.7714  0.7033
 1994TIP3    H227542   3.993   6.338   3.590 -0.1179 -2.2338 -0.3502
 1995TIP3   OH227543   5.435   3.979   2.923 -0.0571 -0.3699  0.0340
 1995TIP3    H127544   5.366   3.962   2.988 -1.2042  1.7465 -0.5197
 1995TIP3    H227545   5.387   4.010   2.846  1.5169  1.3810 -0.2967
 1996TIP3   OH227546   2.564   2.794   2.729  0.0356  0.0374 -0.0624
 1996TIP3    H127547   2.495   2.856   2.706  0.2574  0.7578  1.0977
 1996TIP3    H227548   2.622   2.844   2.787  1.2327 -0.7157 -0.5819
 1997TIP3   OH227549   2.482   3.254   1.111 -0.4447 -0.0731 -0.2459
 1997TIP3    H127550   2.556   3.247   1.051 -0.5960  3.2032 -0.9877
 1997TIP3    H227551   2.405   3.250   1.055 -0.5834  3.3226 -0.4732
 1998TIP3   OH227552   0.795   0.970   3.190 -0.5286  0.0040 -0.7614
 1998TIP3    H127553   0.796   0.885   3.234 -0.3871 -0.9959 -2.6360
 1998TIP3    H227554   0.888   0.994   3.183 -0.4577 -0.5202 -1.7544
 1999TIP3   OH227555   3.961   3.959   3.232 -0.0125 -0.2768 -0.7884
 1999TIP3    H127556   3.932   4.028   3.172 -0.6332 -1.4433 -1.8863
 1999TIP3    H227557   4.008   4.005   3.302 -1.0841  1.3114 -1.0755
 2000TIP3   OH227558   6.308   2.768   3.544  0.2968 -0.5052 -0.6858
 2000TIP3    H127559   6.215   2.749   3.558 -0.1627  0.7844 -1.7577
 2000TIP3    H227560   6.321   2.853   3.585  0.9569 -0.5938 -0.7076
 2001TIP3   OH227561   0.080   2.132   2.552 -0.2987  0.0170  0.7487
 2001TIP3    H127562   0.020   2.101   2.620  0.9805  0.8538  2.3497
 2001TIP3    H227563   0.165   2.095   2.576  0.4483  1.4331  0.4150
 2002TIP3   OH227564   6.462   3.257   2.115 -0.0041  0.1229 -0.1132
 2002TIP3    H127565   6.451   3.325   2.048 -2.4435  0.7191  0.8028
 2002TIP3    H227566   6.465   3.175   2.066 -2.3559  0.4900 -0.9958
 2003TIP3   OH227567   5.833   5.181   1.414 -0.1393 -0.8050 -0.6177
 2003TIP3    H127568   5.791   5.267   1.421  0.2817 -0.6866  0.8097
 2003TIP3    H227569   5.784   5.125   1.474  1.3432 -0.7928  0.6957
 2004TIP3   OH227570   2.433   2.499   0.161  0.7925 -1.0747  0.2674
 2004TIP3    H127571   2.460   2.453   0.240 -1.3527  0.2363  1.8870
 2004TIP3    H227572   2.337   2.505   0.168  0.6448  0.1040 -1.8595
 2005TIP3   OH227573   0.650   0.218   2.962  0.0266  0.2201 -0.0943
 2005TIP3    H127574   0.569   0.270   2.963 -0.6474 -0.7402  2.1302
 2005TIP3    H227575   0.624   0.132   2.995  1.4227 -1.1103 -2.2008
 2006TIP3   OH227576   6.340   3.014   3.650 -0.2143  0.4114 -0.2197
 2006TIP3    H127577   6.273   3.069   3.691 -1.4944 -1.2368  0.0094
 2006TIP3    H227578   6.412   3.014   3.714 -0.0617  1.9656 -0.3379
 2007TIP3   OH227579   6.163   6.299   2.987 -0.4664 -0.1468 -0.2348
 2007TIP3    H127580   6.200   6.373   3.034 -0.4296 -1.7415  2.4360
 2007TIP3    H227581   6.226   6.279   2.918  0.4719  1.0777  0.2539
 2008TIP3   OH227582   3.309   6.925   2.402 -0.1082 -0.8642  0.1148
 2008TIP3    H127583   3.336   6.953   2.489 -3.2221  1.4203  0.5361
 2008TIP3    H227584   3.363   6.976   2.342  2.2281 -2.6302  0.5929
 2009TIP3   OH227585   5.388   1.554   4.370  0.1876  0.1640  0.0241
 2009TIP3    H127586   5.310   1.524   4.417  0.1594  0.1275 -0.0462
 2009TIP3    H227587   5.386   1.649   4.379 -0.9244  0.3208 -1.6310
 2010TIP3   OH227588   0.758   5.385   4.166 -0.4170  0.6891  0.0251
 2010TIP3    H127589   0.810   5.458   4.200 -1.1372  1.1720  0.1044
 2010TIP3    H227590   0.821   5.313   4.156  0.0557  0.9134  1.1937
 2011TIP3   OH227591   6.557   4.047   2.734 -0.6788 -0.0107  0.0445
 2011TIP3    H127592   6.563   4.050   2.638  2.3569 -0.9656  0.0940
 2011TIP3    H227593   6.486   3.986   2.751 -0.9789 -0.1895 -1.6123
 2012TIP3   OH227594   4.300   5.309   4.726  0.5531  0.0739 -0.6354
 2012TIP3    H127595   4.234   5.375   4.711  0.5568  0.3653  0.5645
 2012TIP3    H227596   4.254   5.225   4.717  0.4292  0.2333 -1.5821
 2013TIP3   OH227597   1.290   6.381   1.982  0.2556 -0.4970 -0.1069
 2013TIP3    H127598   1.243   6.312   1.935  0.0893 -0.7688  0.4455
 2013TIP3    H227599   1.363   6.404   1.925 -0.2225 -0.4677 -0.7195
 2014TIP3   OH227600   1.526   2.121   4.326 -0.2369  0.3147 -0.2512
 2014TIP3    H127601   1.452   2.141   4.383 -0.5376 -1.4351  0.0441
 2014TIP3    H227602   1.601   2.162   4.369 -0.2234 -1.9958  2.1946
 2015TIP3   OH227603   3.531   2.249   0.643 -0.2585 -0.2763  0.1597
 2015TIP3    H127604   3.607   2.296   0.676  0.4162 -2.3563  1.7804
 2015TIP3    H227605   3.459   2.274   0.700 -0.1879 -0.2687  0.2444
 2016TIP3   OH227606   4.066   1.697   2.040  0.1610  0.6838 -0.4140
 2016TIP3    H127607   4.110   1.782   2.034 -1.1760  1.5201  1.1369
 2016TIP3    H227608   4.120   1.646   2.100  0.9233  0.4169 -1.2893
 2017TIP3   OH227609   1.139   5.536   3.480  0.4336  0.5163  0.3749
 2017TIP3    H127610   1.160   5.443   3.468 -0.0913  0.5312 -0.8155
 2017TIP3    H227611   1.199   5.565   3.549  0.4526 -0.7548  0.9320
 2018TIP3   OH227612   6.790   0.217   3.480 -0.1361  0.3988  0.2209
 2018TIP3    H127613   6.803   0.272   3.403 -0.5167  1.8366  1.1487
 2018TIP3    H227614   6.789   0.278   3.553 -0.8931 -0.8118  1.2618
 2019TIP3   OH227615   5.355   0.853   0.659 -0.2606 -0.3377 -0.7125
 2019TIP3    H127616   5.300   0.928   0.635 -0.4879 -0.8914 -1.9957
 2019TIP3    H227617   5.333   0.786   0.595  0.8310 -1.0919 -0.3219
 2020TIP3   OH227618   4.885   6.736   1.366 -0.1895  0.1578  0.1669
 2020TIP3    H127619   4.952   6.804   1.367 -1.9194  2.0119 -1.5323
 2020TIP3    H227620   4.846   6.742   1.279 -1.0488 -2.4210  0.2799
 2021TIP3   OH227621   0.603   0.009   1.102 -0.3877  0.0752 -0.1365
 2021TIP3    H127622   0.682   0.019   1.155  1.0588 -0.6271 -2.0678
 2021TIP3    H227623   0.579  -0.083   1.111 -0.6027  0.1353 -0.0861
 2022TIP3   OH227624   6.290   4.836   0.707 -0.4101 -0.2912 -0.2524
 2022TIP3    H127625   6.213   4.872   0.752 -0.0345  1.2277 -0.7752
 2022TIP3    H227626   6.308   4.754   0.753 -1.4404  0.0696  0.8504
 2023TIP3   OH227627   0.144   4.420   4.181  0.0651  0.0959 -0.1570
 2023TIP3    H127628   0.133   4.489   4.115  1.1387 -1.3183 -1.9058
 2023TIP3    H227629   0.060   4.374   4.181 -0.0335  0.2717 -0.3247
 2024TIP3   OH227630   6.233   3.096   1.502 -0.4187 -1.0885  0.7207
 2024TIP3    H127631   6.162   3.048   1.458 -1.3693  0.0414  0.9777
 2024TIP3    H227632   6.289   3.027   1.538 -1.0108 -2.0157 -0.0762
 2025TIP3   OH227633   4.379   6.362   3.208  0.2629 -0.0863  0.0284
 2025TIP3    H127634   4.323   6.386   3.134  1.6655  0.0384 -1.0269
 2025TIP3    H227635   4.447   6.306   3.170 -0.1945 -1.8135  1.6247
 2026TIP3   OH227636   1.653   4.729   3.515  0.5588 -0.0024  0.5464
 2026TIP3    H127637   1.634   4.688   3.431 -0.9293  2.2831 -0.3264
 2026TIP3    H227638   1.638   4.660   3.580  1.3204 -1.6897 -0.9853
 2027TIP3   OH227639   1.610   4.164   4.218 -0.7047  0.1575 -0.2410
 2027TIP3    H127640   1.557   4.188   4.294 -0.2528 -0.9762  0.4705
 2027TIP3    H227641   1.698   4.152   4.254 -0.8207 -2.1263 -0.5593
 2028TIP3   OH227642   2.961   1.907   4.477 -0.8294  0.5496 -0.2506
 2028TIP3    H127643   2.901   1.976   4.448 -1.3025  1.0421  1.7296
 2028TIP3    H227644   2.905   1.844   4.523 -0.1036 -0.0145 -0.1158
 2029TIP3   OH227645   4.644   4.409   0.440 -0.5180  0.4286  0.1924
 2029TIP3    H127646   4.574   4.358   0.399  0.1084  0.3668 -0.8512
 2029TIP3    H227647   4.724   4.379   0.395  0.1318  0.7288  1.1330
 2030TIP3   OH227648   2.306   1.739   2.001 -0.3604  0.6158  0.6440
 2030TIP3    H127649   2.274   1.825   2.026  1.8964  1.3197  1.3106
 2030TIP3    H227650   2.392   1.732   2.041 -0.2174 -1.7233  0.0983
 2031TIP3   OH227651   3.666   6.226   2.117  0.4850  0.3128  0.2923
 2031TIP3    H127652   3.754   6.237   2.153  0.2277 -0.1077  1.0785
 2031TIP3    H227653   3.632   6.315   2.108  0.6343  0.4343  0.9129
 2032TIP3   OH227654   4.725   6.192   1.333  0.2078  0.4847  0.1869
 2032TIP3    H127655   4.811   6.218   1.301  0.5839 -1.0774 -0.1588
 2032TIP3    H227656   4.700   6.118   1.277 -0.5528 -0.2214  1.4143
 2033TIP3   OH227657   0.025   0.679   1.292  0.5557  0.0689  0.2744
 2033TIP3    H127658  -0.063   0.691   1.327  0.8463  1.5004  0.5763
 2033TIP3    H227659   0.023   0.592   1.251 -0.2519 -0.9699  2.4012
 2034TIP3   OH227660   5.329   5.099   2.991  0.3436 -0.9910  0.1603
 2034TIP3    H127661   5.389   5.087   3.064  0.6908 -0.3919 -0.0227
 2034TIP3    H227662   5.249   5.132   3.031 -0.0836 -2.3635  0.4764
 2035TIP3   OH227663   5.077   6.495   2.732  0.0280 -0.3058  0.0963
 2035TIP3    H127664   5.158   6.448   2.715  1.5169  1.2571  2.2481
 2035TIP3    H227665   5.105   6.586   2.747 -1.8273 -0.0486  2.6837
 2036TIP3   OH227666   0.615   6.751   1.442  0.4153  0.7494  0.4891
 2036TIP3    H127667   0.632   6.841   1.413 -0.7878  0.8273 -0.0098
 2036TIP3    H227668   0.655   6.747   1.529  1.3291  1.4646  0.1362
 2037TIP3   OH227669   4.880   2.811   1.885  0.0737  0.3365 -0.2888
 2037TIP3    H127670   4.899   2.742   1.821 -1.2294  0.9387 -1.3575
 2037TIP3    H227671   4.852   2.886   1.833 -1.9611  0.5466  0.9932
 2038TIP3   OH227672   6.302   6.769   2.018  0.2227 -0.5729 -0.1037
 2038TIP3    H127673   6.377   6.711   2.023  0.3349 -0.4219 -0.0091
 2038TIP3    H227674   6.260   6.762   2.103  0.5655 -0.0817  0.1140
 2039TIP3   OH227675   2.777   1.884   0.761  0.3860 -0.6234 -0.3367
 2039TIP3    H127676   2.763   1.833   0.841  0.9242 -0.6413 -0.2499
 2039TIP3    H227677   2.699   1.939   0.753  0.6113 -0.1550  0.5555
 2040TIP3   OH227678   2.644   1.326   1.212 -0.4907  0.0993 -0.0392
 2040TIP3    H127679   2.581   1.268   1.257 -1.9099  1.9347  0.4613
 2040TIP3    H227680   2.676   1.384   1.281 -0.8978  1.4234 -0.9223
 2041TIP3   OH227681   1.018   0.929   2.115 -0.6042 -0.1617 -0.0134
 2041TIP3    H127682   0.956   0.868   2.074 -0.5459  0.9216 -1.8574
 2041TIP3    H227683   0.996   1.014   2.077  0.5308  0.6503  1.0609
 2042TIP3   OH227684   0.960   4.026   1.195  0.5683  0.3260 -0.0171
 2042TIP3    H127685   0.871   4.033   1.160  0.3355  1.0433  0.7116
 2042TIP3    H227686   0.984   4.116   1.219  0.9540 -0.0608  1.1039
 2043TIP3   OH227687   3.352   0.929   1.873 -0.8309 -1.1995 -0.4384
 2043TIP3    H127688   3.392   0.912   1.788 -0.7190  1.1746 -0.9374
 2043TIP3    H227689   3.425   0.958   1.928 -1.4841  1.8013 -0.9507
 2044TIP3   OH227690   1.331   5.515   1.798  0.1902  0.8844 -0.3540
 2044TIP3    H127691   1.334   5.462   1.877 -1.4585 -0.3069 -1.0128
 2044TIP3    H227692   1.312   5.452   1.728  0.6919  2.0223 -1.5486
 2045TIP3   OH227693   0.921   3.653   1.179  0.1110 -0.3689 -0.2821
 2045TIP3    H127694   0.860   3.699   1.237 -0.8026 -0.7818 -0.8992
 2045TIP3    H227695   1.004   3.651   1.228 -0.7412 -1.0559  1.1833
 2046TIP3   OH227696   6.091   0.985   2.923 -0.6777  0.0441 -0.4246
 2046TIP3    H127697   6.036   0.987   3.001 -0.3340 -0.5449 -0.1607
 2046TIP3    H227698   6.121   0.895   2.916  2.4743  0.8257  1.0501
 2047TIP3   OH227699   4.829   2.927   3.540 -0.1773 -0.0970  0.0744
 2047TIP3    H127700   4.840   2.948   3.448 -0.5688 -0.8202 -0.1509
 2047TIP3    H227701   4.796   2.837   3.540  0.4310 -0.3390  0.9386
 2048TIP3   OH227702   5.935   4.616   2.347 -0.4710  0.2027  0.5395
 2048TIP3    H127703   5.932   4.561   2.425  0.4529  0.9175  1.0964
 2048TIP3    H227704   5.850   4.661   2.346 -0.4366  0.2811  1.1901
 2049TIP3   OH227705   4.003   3.115   1.161  0.0035  0.0543 -0.2811
 2049TIP3    H127706   3.992   3.094   1.253 -0.1771 -1.3206 -0.5913
 2049TIP3    H227707   3.919   3.091   1.121 -0.4856  2.0929 -0.5803
 2050TIP3   OH227708   3.353   0.351   1.722 -0.5163  0.0790 -0.2460
 2050TIP3    H127709   3.353   0.433   1.673 -2.0281 -1.2495 -2.7013
 2050TIP3    H227710   3.434   0.307   1.696 -1.2603 -0.5718 -1.5813
 2051TIP3   OH227711   6.399   1.838   1.984  0.2381  0.1243  0.2424
 2051TIP3    H127712   6.474   1.780   1.973 -0.8136 -1.1174 -0.7163
 2051TIP3    H227713   6.368   1.820   2.073 -0.5572 -1.4464 -0.3073
 2052TIP3   OH227714   0.305   3.896   2.810 -0.3190  0.6044  0.4896
 2052TIP3    H127715   0.251   3.919   2.886  0.6933  0.8174  1.1669
 2052TIP3    H227716   0.379   3.957   2.814 -0.0710  0.3870 -0.4775
 2053TIP3   OH227717   6.067   6.099   0.605  0.1767  0.3622 -0.4212
 2053TIP3    H127718   6.100   6.154   0.534  1.5338 -0.3282 -0.3652
 2053TIP3    H227719   6.088   6.147   0.685 -1.7554  1.3522 -0.4598
 2054TIP3   OH227720   3.808   2.948   0.354  0.0798  0.4702 -0.8732
 2054TIP3    H127721   3.734   3.003   0.382 -0.1866 -0.3034 -0.0401
 2054TIP3    H227722   3.885   2.998   0.378 -0.1603  0.9795 -1.1339
 2055TIP3   OH227723   3.418   2.266   2.866 -0.1348 -0.0697 -0.2267
 2055TIP3    H127724   3.496   2.264   2.811  0.6644  0.8057  0.8445
 2055TIP3    H227725   3.349   2.297   2.808  0.8123  1.3991 -0.6156
 2056TIP3   OH227726   4.903   3.385   0.540  0.1698 -0.2652  0.2828
 2056TIP3    H127727   4.809   3.388   0.527  0.0581 -2.7092  0.2419
 2056TIP3    H227728   4.919   3.302   0.584  2.4494 -0.5356 -0.9232
 2057TIP3   OH227729   4.620   2.616   0.145  0.6575 -0.0438  0.3984
 2057TIP3    H127730   4.534   2.594   0.111  1.3066 -0.7512 -0.8632
 2057TIP3    H227731   4.667   2.533   0.150  0.9571  0.1766  2.0712
 2058TIP3   OH227732   6.063   3.506   1.236  0.0381  0.7702  1.1605
 2058TIP3    H127733   6.132   3.541   1.179 -0.5356  2.1161  1.2332
 2058TIP3    H227734   6.009   3.452   1.178 -0.2769  1.7572  0.5029
 2059TIP3   OH227735   2.776   0.435   1.988  0.1464 -0.4036  0.7830
 2059TIP3    H127736   2.779   0.341   2.007  0.5319 -0.1802  1.9100
 2059TIP3    H227737   2.810   0.442   1.899  1.0160 -1.2446  1.0318
 2060TIP3   OH227738   1.604   2.934   8.285 -0.1908 -0.6207 -0.7742
 2060TIP3    H127739   1.603   3.024   8.315 -2.5724 -1.0558  0.7452
 2060TIP3    H227740   1.576   2.939   8.193 -2.5977  0.0953 -0.0715
 2061TIP3   OH227741   2.518   6.118   8.294 -0.1311 -0.0886 -0.4074
 2061TIP3    H127742   2.572   6.043   8.318 -0.5729 -0.4460 -0.5111
 2061TIP3    H227743   2.552   6.190   8.347  0.2344 -0.3868 -0.2337
 2062TIP3   OH227744   3.679   1.705   3.242 -0.0393 -0.8010 -0.0068
 2062TIP3    H127745   3.717   1.628   3.199 -0.0165 -0.8777  0.1524
 2062TIP3    H227746   3.663   1.767   3.170  2.1852  0.0087  0.1104
 2063TIP3   OH227747   3.677   3.719   1.276 -0.3885  0.2429  0.4025
 2063TIP3    H127748   3.661   3.772   1.198  1.9311 -1.1635 -1.1466
 2063TIP3    H227749   3.755   3.758   1.315  0.5812 -1.1777 -0.0435
 2064TIP3   OH227750   0.856   0.485   0.989 -0.3453 -0.0759 -0.2543
 2064TIP3    H127751   0.864   0.392   0.967 -3.3607 -0.4633 -0.0712
 2064TIP3    H227752   0.776   0.491   1.040 -0.3235  2.6625 -0.4004
 2065TIP3   OH227753   0.269   1.990   2.202  0.7923  0.3281  0.5402
 2065TIP3    H127754   0.183   1.983   2.243  0.9088 -1.1522  0.5953
 2065TIP3    H227755   0.305   2.072   2.236 -0.7695  1.2280  0.1265
 2066TIP3   OH227756   2.337   3.048   2.949  0.5104  0.1190 -0.2563
 2066TIP3    H127757   2.387   3.129   2.955 -0.3025  0.6095  0.1025
 2066TIP3    H227758   2.370   2.993   3.020  0.5204  0.4550 -0.0002
 2067TIP3   OH227759   3.882   5.692   2.053 -0.1246  0.3688 -0.2190
 2067TIP3    H127760   3.800   5.658   2.017  0.8895 -0.9899 -1.3635
 2067TIP3    H227761   3.881   5.785   2.031  0.3037 -0.2992 -3.6914
 2068TIP3   OH227762   1.147   2.938   1.013  0.4093  0.0514 -0.5854
 2068TIP3    H127763   1.176   3.007   1.072 -1.3001  1.1820 -1.0064
 2068TIP3    H227764   1.181   2.857   1.052 -0.7921  0.7319  2.0810
 2069TIP3   OH227765   0.194   2.053   3.113  0.4821 -0.7639 -0.3398
 2069TIP3    H127766   0.191   2.094   3.026  2.2204  0.0789 -0.0409
 2069TIP3    H227767   0.165   1.963   3.098 -0.2775 -0.3385 -1.5970
 2070TIP3   OH227768   2.690   3.287   2.239  0.5391  0.2097  0.1781
 2070TIP3    H127769   2.689   3.191   2.247  0.4248  0.2233  0.3215
 2070TIP3    H227770   2.751   3.316   2.308 -1.1148  0.3863  1.6500
 2071TIP3   OH227771   3.259   1.717   2.036 -0.2872  0.8090  0.1994
 2071TIP3    H127772   3.241   1.789   2.097 -3.8220 -0.0873  0.4539
 2071TIP3    H227773   3.341   1.679   2.066 -0.3783  2.2779  2.5351
 2072TIP3   OH227774   2.210   3.301   0.689  0.0506  0.2600  0.2244
 2072TIP3    H127775   2.270   3.228   0.702  0.0116  0.1665 -0.0979
 2072TIP3    H227776   2.207   3.347   0.773  2.3130  1.5980 -0.3374
 2073TIP3   OH227777   3.703   0.428   0.276  0.1138  0.4069  0.0402
 2073TIP3    H127778   3.758   0.409   0.201 -0.2289 -0.2306 -0.0591
 2073TIP3    H227779   3.760   0.475   0.337  0.7868 -0.3095 -0.0260
 2074TIP3   OH227780   5.580   5.817   1.768 -0.3925 -1.0095 -0.5517
 2074TIP3    H127781   5.643   5.745   1.767  3.6494  2.1708 -0.0415
 2074TIP3    H227782   5.537   5.810   1.854  0.9195 -1.9967  0.0525
 2075TIP3   OH227783   4.178   1.598   3.776 -0.6275  0.5091  0.0082
 2075TIP3    H127784   4.198   1.530   3.712 -1.7624 -1.0875  1.2961
 2075TIP3    H227785   4.264   1.626   3.808  0.0349 -4.0359  3.1938
 2076TIP3   OH227786   4.555   3.320   3.691 -0.1069 -0.4627  0.3045
 2076TIP3    H127787   4.604   3.279   3.620  2.7087 -1.4715  2.6295
 2076TIP3    H227788   4.484   3.260   3.710  1.2584 -2.0297  0.6503
 2077TIP3   OH227789   4.066   3.829   2.872  0.4986 -0.4285 -0.3490
 2077TIP3    H127790   4.000   3.896   2.851  1.6171  0.6301 -0.6350
 2077TIP3    H227791   4.021   3.746   2.861 -0.4582  0.2375 -1.7047
 2078TIP3   OH227792   1.390   2.390   3.030 -0.2388 -0.1387 -0.6638
 2078TIP3    H127793   1.402   2.309   3.079 -0.3482  0.9529  1.2765
 2078TIP3    H227794   1.464   2.393   2.969  0.4741 -1.0576  0.1256
 2079TIP3   OH227795   6.281   4.652   3.447 -0.0061 -0.5085  0.4195
 2079TIP3    H127796   6.367   4.638   3.406 -0.7562  0.2413 -1.5591
 2079TIP3    H227797   6.243   4.565   3.453  0.4265 -0.7198  0.1928
 2080TIP3   OH227798   3.152   6.344   3.098 -0.2855  0.0974  0.1914
 2080TIP3    H127799   3.162   6.341   3.193 -0.7380  2.4950  0.3668
 2080TIP3    H227800   3.081   6.407   3.083 -0.6123 -0.6606 -1.7273
 2081TIP3   OH227801   2.376   6.011   0.894  0.3328 -0.3381 -0.1568
 2081TIP3    H127802   2.420   5.963   0.823 -0.0699 -1.2356  0.1868
 2081TIP3    H227803   2.283   5.999   0.876  0.1823  1.9231 -1.1343
 2082TIP3   OH227804   3.255   6.215   3.888 -0.2462 -0.0528  0.0627
 2082TIP3    H127805   3.294   6.205   3.976 -1.4194 -1.7240  0.4446
 2082TIP3    H227806   3.250   6.126   3.854 -1.5276  0.3745 -0.9469
 2083TIP3   OH227807   0.941   2.071   0.122  0.1740  0.1385 -0.0844
 2083TIP3    H127808   0.973   1.985   0.095 -0.6211 -0.3192  0.4010
 2083TIP3    H227809   0.847   2.067   0.107 -0.0401  0.4937  1.0564
 2084TIP3   OH227810   5.414   0.841   0.064  0.1775 -0.2488 -0.3921
 2084TIP3    H127811   5.345   0.882   0.013 -0.9631 -0.5347  0.8566
 2084TIP3    H227812   5.393   0.747   0.062 -0.1418 -0.2240  0.9162
 2085TIP3   OH227813   6.882   3.403   4.348 -0.7286 -0.2101 -0.6990
 2085TIP3    H127814   6.897   3.494   4.374  0.2888 -0.5853  0.0710
 2085TIP3    H227815   6.969   3.363   4.348 -1.1312 -1.1268 -1.2882
 2086TIP3   OH227816   1.778   4.198   1.987 -0.2166 -0.0616 -0.1602
 2086TIP3    H127817   1.855   4.180   2.041  0.3817 -1.4556 -1.4122
 2086TIP3    H227818   1.703   4.177   2.045  0.3048  1.3021  1.0594
 2087TIP3   OH227819   5.203   0.082   2.483  0.5438 -0.3274  0.2255
 2087TIP3    H127820   5.219   0.175   2.502 -2.5363  0.2231  0.6586
 2087TIP3    H227821   5.219   0.075   2.388  2.0722  0.2719  0.3982
 2088TIP3   OH227822   5.311   6.377   0.515 -0.3191 -0.1141  0.1732
 2088TIP3    H127823   5.346   6.463   0.537 -2.5238  0.9924 -0.3264
 2088TIP3    H227824   5.357   6.351   0.435  1.3576 -0.0892  1.0838
 2089TIP3   OH227825   4.199   6.885   2.185  0.2011 -0.3355 -0.2297
 2089TIP3    H127826   4.229   6.907   2.273 -0.4288  0.4399 -0.2014
 2089TIP3    H227827   4.278   6.853   2.141  0.3852 -1.3595  0.7965
 2090TIP3   OH227828   6.715   5.983   0.821  0.0315 -0.4043 -0.0111
 2090TIP3    H127829   6.794   5.937   0.848 -0.7056 -2.8403 -1.6371
 2090TIP3    H227830   6.658   5.979   0.898  1.5136  1.7110  1.3082
 2091TIP3   OH227831   5.365   4.241   0.789 -0.8337  0.2868 -0.4494
 2091TIP3    H127832   5.451   4.217   0.823 -1.1915  0.8020  0.8423
 2091TIP3    H227833   5.337   4.164   0.739  0.2070 -0.0292 -0.5632
 2092TIP3   OH227834   4.226   6.605   1.480  0.7374 -0.3368  0.3764
 2092TIP3    H127835   4.318   6.623   1.502  1.4308 -0.5747 -2.0569
 2092TIP3    H227836   4.230   6.536   1.413 -1.2217 -0.2425  0.1015
 2093TIP3   OH227837   2.074   2.789   1.834 -0.2578  0.3515 -0.4694
 2093TIP3    H127838   1.992   2.756   1.796 -1.1297  0.5578  1.1078
 2093TIP3    H227839   2.047   2.826   1.918  1.3965  0.9237 -0.1625
 2094TIP3   OH227840   3.394   6.427   2.953  0.3755 -0.1022  0.3407
 2094TIP3    H127841   3.328   6.375   2.999  1.5281 -2.5484 -0.6043
 2094TIP3    H227842   3.418   6.496   3.016 -2.4264  0.4190  0.9972
 2095TIP3   OH227843   1.292   4.586   2.786 -0.4404 -0.4603 -0.2968
 2095TIP3    H127844   1.209   4.589   2.738 -0.4168 -1.5031 -0.4235
 2095TIP3    H227845   1.332   4.671   2.769 -1.0170 -0.3324 -1.0793
 2096TIP3   OH227846   4.812   3.090   0.456 -0.5502  0.1200  0.3661
 2096TIP3    H127847   4.818   3.124   0.367 -0.3897  0.7625  0.6095
 2096TIP3    H227848   4.888   3.032   0.464 -1.3252 -1.0091 -0.3428
 2097TIP3   OH227849   6.581   5.732   2.483 -0.2181 -0.7252  0.3248
 2097TIP3    H127850   6.525   5.770   2.551 -0.8253 -0.3094 -0.3843
 2097TIP3    H227851   6.525   5.669   2.438 -0.3158  0.1177 -0.7730
 2098TIP3   OH227852   5.554   0.905   2.029  0.2247 -0.0045  0.9867
 2098TIP3    H127853   5.649   0.902   2.038  0.3913  1.0599 -0.1350
 2098TIP3    H227854   5.525   0.815   2.046  1.6179 -0.7892 -0.4845
 2099TIP3   OH227855   6.777   6.055   0.549  0.5221  0.0867 -0.0913
 2099TIP3    H127856   6.869   6.037   0.532  1.2777  1.6872  1.9411
 2099TIP3    H227857   6.763   6.029   0.640 -0.2349  2.4995  0.5537
 2100TIP3   OH227858   1.032   1.390   2.435 -1.0482 -0.4296  0.2720
 2100TIP3    H127859   1.029   1.394   2.531 -3.3064  0.5338  0.2116
 2100TIP3    H227860   0.983   1.311   2.413  1.8482 -2.2927 -0.1051
 2101TIP3   OH227861   0.424   1.233   2.592  0.6398 -0.0655 -0.3243
 2101TIP3    H127862   0.445   1.214   2.684 -1.1858 -0.5483  0.0227
 2101TIP3    H227863   0.445   1.153   2.545 -0.1043 -0.4310 -0.0388
 2102TIP3   OH227864   0.129   5.750   3.448  0.2205  0.7137  0.3622
 2102TIP3    H127865   0.090   5.811   3.511  0.3452  0.9346  0.2257
 2102TIP3    H227866   0.110   5.663   3.484 -0.3533  0.8176  0.3236
 2103TIP3   OH227867   1.096   1.604   2.935  0.3895 -0.4443 -0.3190
 2103TIP3    H127868   1.014   1.648   2.957  1.8313  1.1900  2.4613
 2103TIP3    H227869   1.124   1.563   3.017  2.3145 -0.9595 -1.1722
 2104TIP3   OH227870   6.419   2.776   1.282  0.9275  1.0365 -0.0719
 2104TIP3    H127871   6.327   2.769   1.309  1.0392  0.2895  0.1423
 2104TIP3    H227872   6.415   2.804   1.191  0.4000 -0.9551 -0.7214
 2105TIP3   OH227873   4.850   5.402   3.594 -0.0724 -0.1248  0.4435
 2105TIP3    H127874   4.832   5.407   3.688  3.0842  1.0738  1.0813
 2105TIP3    H227875   4.945   5.404   3.587 -0.1938 -0.3469 -2.8112
 2106TIP3   OH227876   3.590   1.648   2.399  0.6392  0.0180 -0.2926
 2106TIP3    H127877   3.664   1.592   2.426  0.4241  0.1328  0.5441
 2106TIP3    H227878   3.572   1.621   2.309  0.8839 -0.9031 -0.0765
 2107TIP3   OH227879   1.579   1.132   3.521  0.6030  0.0443 -0.1088
 2107TIP3    H127880   1.557   1.046   3.485  0.2627  0.0529  0.0789
 2107TIP3    H227881   1.520   1.193   3.477  0.4160  0.1005  0.2171
 2108TIP3   OH227882   0.155   6.618   0.828 -0.3438 -0.3223  0.4950
 2108TIP3    H127883   0.102   6.591   0.753  1.9318 -0.4122 -1.1838
 2108TIP3    H227884   0.178   6.709   0.811  0.5899 -0.4822  0.8016
 2109TIP3   OH227885   2.790   6.445   1.615  0.3953  0.0416  0.6701
 2109TIP3    H127886   2.757   6.503   1.684 -2.0346  0.1821 -0.4853
 2109TIP3    H227887   2.734   6.465   1.539  1.1835 -2.0235 -0.5265
 2110TIP3   OH227888   3.091   1.882   2.604  0.0153 -0.3703  0.6322
 2110TIP3    H127889   3.134   1.881   2.689 -0.0284 -2.2611  0.6739
 2110TIP3    H227890   3.125   1.960   2.561  1.8067 -0.6102  1.5052
 2111TIP3   OH227891   0.230   0.960   1.953  0.0688  0.3325 -0.4867
 2111TIP3    H127892   0.212   0.894   2.020  0.9264 -0.5652 -1.1227
 2111TIP3    H227893   0.217   1.043   1.998  0.2933 -0.2586  0.7110
 2112TIP3   OH227894   5.228   4.078   2.738  0.0941 -0.4450 -0.1656
 2112TIP3    H127895   5.193   4.165   2.724  0.4645 -0.3198 -0.3234
 2112TIP3    H227896   5.169   4.038   2.803  0.2689  0.1287  0.3482
 2113TIP3   OH227897   1.048   1.450   4.008 -0.2929 -0.0215  0.2284
 2113TIP3    H127898   0.995   1.509   4.061  0.3085  1.2994 -0.5898
 2113TIP3    H227899   1.092   1.393   4.071 -1.1815  0.1438  1.0078
 2114TIP3   OH227900   1.085   5.944   2.432  0.9887  0.0424  0.3906
 2114TIP3    H127901   1.133   5.913   2.356  0.2408  1.8637 -0.8928
 2114TIP3    H227902   1.021   5.875   2.450  1.1636 -0.4106 -0.6457
 2115TIP3   OH227903   3.965   5.011   0.312  0.7617  0.2065 -0.0739
 2115TIP3    H127904   3.895   4.951   0.286 -0.1730  0.1037  2.3973
 2115TIP3    H227905   4.021   4.959   0.370  0.0836  1.5275  1.9109
 2116TIP3   OH227906   0.592   6.797   3.829  0.2606 -0.1007 -0.6293
 2116TIP3    H127907   0.589   6.879   3.779 -1.8487 -0.0570 -0.5268
 2116TIP3    H227908   0.588   6.825   3.921 -2.7987 -0.2896 -0.6199
 2117TIP3   OH227909   4.706   2.626   3.027 -0.1732 -0.1238 -0.5178
 2117TIP3    H127910   4.632   2.686   3.032  0.5239  1.0854 -3.0371
 2117TIP3    H227911   4.699   2.572   3.106 -3.4250  0.2616 -0.4010
 2118TIP3   OH227912   2.725   0.491   1.581 -0.3162 -0.1467 -0.3528
 2118TIP3    H127913   2.748   0.496   1.674  1.0970 -0.9242 -0.6411
 2118TIP3    H227914   2.808   0.497   1.534 -1.0552  0.7847 -1.6132
 2119TIP3   OH227915   3.427   1.829   1.561 -0.4136 -0.2488  0.1419
 2119TIP3    H127916   3.381   1.836   1.478 -0.8510 -0.8671  0.3238
 2119TIP3    H227917   3.363   1.790   1.621  0.3497 -1.1750  0.3808
 2120TIP3   OH227918   1.294   6.641   4.343  0.2023  0.7017 -0.4256
 2120TIP3    H127919   1.228   6.579   4.314  0.0863  1.0514 -0.9111
 2120TIP3    H227920   1.376   6.592   4.340  0.1430  0.6303 -1.0241
 2121TIP3   OH227921   1.577   6.823   1.227 -0.2405 -0.7199 -0.7390
 2121TIP3    H127922   1.598   6.772   1.305 -1.0686 -1.1679 -0.8041
 2121TIP3    H227923   1.519   6.767   1.175  0.6413 -0.6035 -1.8967
 2122TIP3   OH227924   1.580   5.708   2.793 -0.3063  0.3017 -0.1749
 2122TIP3    H127925   1.662   5.659   2.804 -1.6514 -2.3268 -0.9676
 2122TIP3    H227926   1.538   5.701   2.879  0.4933  2.2135  0.4346
 2123TIP3   OH227927   3.214   0.388   1.437 -0.1526 -0.1113  0.7445
 2123TIP3    H127928   3.250   0.453   1.496 -0.5122  0.6784  0.1065
 2123TIP3    H227929   3.122   0.413   1.426 -0.4710 -1.1000  1.0022
 2124TIP3   OH227930   5.965   0.187   4.637  0.2811  0.0209  0.1726
 2124TIP3    H127931   6.054   0.174   4.669  0.3313 -2.0185 -0.6057
 2124TIP3    H227932   5.937   0.099   4.609 -2.3124  0.4235  1.2387
 2125TIP3   OH227933   4.851   2.056   4.217  0.0689  0.1625  0.5826
 2125TIP3    H127934   4.796   2.106   4.278 -0.1364  1.2861 -0.4769
 2125TIP3    H227935   4.916   2.120   4.187  0.2094 -0.3948 -0.3144
 2126TIP3   OH227936   0.173   3.579   4.312  0.1483 -0.3335  0.0548
 2126TIP3    H127937   0.159   3.517   4.241 -0.7390  0.1302 -0.1845
 2126TIP3    H227938   0.269   3.585   4.320  0.2513 -1.1651 -0.3974
 2127TIP3   OH227939   1.415   2.862   1.304  0.4230  0.4935 -0.0954
 2127TIP3    H127940   1.477   2.924   1.343 -1.3799  1.1577  1.9324
 2127TIP3    H227941   1.350   2.847   1.372  0.1032 -2.7724 -0.9457
 2128TIP3   OH227942   3.681   5.415   1.703  0.1632  0.7025 -0.4933
 2128TIP3    H127943   3.657   5.460   1.784  0.0103 -1.4672  0.7461
 2128TIP3    H227944   3.706   5.327   1.731 -0.6380 -0.3618 -2.8817
 2129TIP3   OH227945   3.944   0.559   3.134  0.2500  0.2574 -1.0681
 2129TIP3    H127946   3.991   0.601   3.205  2.1293 -0.8827 -1.5773
 2129TIP3    H227947   3.897   0.487   3.175  0.9273 -0.0868 -0.8802
 2130TIP3   OH227948   3.888   1.389   1.950  0.1969 -0.0666 -0.8595
 2130TIP3    H127949   3.827   1.327   1.910  2.3237 -1.8729 -1.5843
 2130TIP3    H227950   3.945   1.416   1.877 -0.3324  2.4113 -0.4474
 2131TIP3   OH227951   5.940   6.688   2.022  0.0421 -0.0105 -0.1613
 2131TIP3    H127952   5.845   6.700   2.024 -0.0740 -0.6708 -1.1033
 2131TIP3    H227953   5.974   6.768   1.984 -0.1826 -0.0071 -0.3526
 2132TIP3   OH227954   4.040   2.077   4.173  0.2362  0.5901  0.0581
 2132TIP3    H127955   4.125   2.072   4.127  1.1113 -0.5495  1.6930
 2132TIP3    H227956   4.044   2.159   4.221  0.6429  0.3178  0.5061
 2133TIP3   OH227957   6.680   1.939   1.663 -0.0005  0.2928 -0.4403
 2133TIP3    H127958   6.681   2.010   1.599  0.2940  0.5178 -0.1882
 2133TIP3    H227959   6.641   1.865   1.616 -2.1561  1.1451 -0.1381
 2134TIP3   OH227960   2.029   3.768   0.682 -0.8101  0.0056  0.4356
 2134TIP3    H127961   2.003   3.848   0.727 -1.1392 -1.7273  3.6704
 2134TIP3    H227962   2.021   3.788   0.589 -0.4043  3.8199  1.0757
 2135TIP3   OH227963   2.469   6.396   3.536  0.2186  0.5341 -0.3538
 2135TIP3    H127964   2.506   6.476   3.575  2.4075 -0.1524 -0.8776
 2135TIP3    H227965   2.379   6.420   3.514  0.5461  2.5841  0.2827
 2136TIP3   OH227966   2.092   1.478   3.087  0.1182 -0.1193  0.3193
 2136TIP3    H127967   2.004   1.473   3.125  0.6189  0.2116  1.5732
 2136TIP3    H227968   2.077   1.472   2.992 -1.0724 -2.3602  0.5672
 2137TIP3   OH227969   6.689   1.608   3.199  0.4340  0.3094 -0.6266
 2137TIP3    H127970   6.595   1.627   3.188  0.3167 -0.6576 -1.4356
 2137TIP3    H227971   6.732   1.669   3.140  0.1922 -0.4069 -1.5689
 2138TIP3   OH227972   4.823   1.287   2.439  0.9053 -0.2888  0.3291
 2138TIP3    H127973   4.735   1.258   2.414  0.6148 -1.0302  2.0301
 2138TIP3    H227974   4.812   1.319   2.529  1.6278  3.2587 -0.6975
 2139TIP3   OH227975   5.333   1.454   1.119 -0.1539  0.1461  0.6088
 2139TIP3    H127976   5.383   1.534   1.104  3.0714 -1.3039  2.4100
 2139TIP3    H227977   5.383   1.386   1.075 -2.4257 -1.0628 -0.2757
 2140TIP3   OH227978   6.352   6.426   1.137  0.1041  0.4818 -0.3349
 2140TIP3    H127979   6.290   6.482   1.184  0.7916  1.6807 -0.8004
 2140TIP3    H227980   6.432   6.427   1.191 -0.7126 -2.4559  1.1810
 2141TIP3   OH227981   6.766   4.282   4.224  0.2066  0.0214 -0.4350
 2141TIP3    H127982   6.747   4.362   4.272  0.8696 -0.3029  0.4015
 2141TIP3    H227983   6.697   4.221   4.251 -0.3117  0.3004 -1.0900
 2142TIP3   OH227984   6.641   2.989   1.306 -0.2828 -0.0404  0.2141
 2142TIP3    H127985   6.563   2.946   1.340  0.6094 -0.8226  1.4068
 2142TIP3    H227986   6.710   2.922   1.314  0.4000  0.4541 -1.2883
 2143TIP3   OH227987   2.508   4.635   3.397 -0.0583  0.2994  0.5051
 2143TIP3    H127988   2.452   4.694   3.346  1.2083  1.3402  0.2697
 2143TIP3    H227989   2.557   4.586   3.332 -0.0206  0.0505  0.7189
 2144TIP3   OH227990   1.997   4.760   1.463 -0.2888  0.0697 -0.1259
 2144TIP3    H127991   1.959   4.778   1.549  0.0309 -1.0740  0.2792
 2144TIP3    H227992   2.013   4.665   1.464 -1.4918 -0.2099 -1.9320
 2145TIP3   OH227993   4.663   4.669   0.512  0.0181 -0.5706  0.4560
 2145TIP3    H127994   4.660   4.586   0.464  0.5192  0.0813 -0.7289
 2145TIP3    H227995   4.731   4.657   0.578 -1.7365 -2.0295  2.1416
 2146TIP3   OH227996   0.215   4.604   0.250  0.5267 -0.3563 -0.3617
 2146TIP3    H127997   0.139   4.550   0.271  0.0299 -0.0047 -1.1937
 2146TIP3    H227998   0.203   4.626   0.157  2.7333 -2.0772 -1.1558
 2147TIP3   OH227999   0.499   2.597   0.166 -0.2099  0.4432  0.2912
 2147TIP3    H128000   0.488   2.552   0.249 -1.2247  0.7165  0.3191
 2147TIP3    H228001   0.432   2.665   0.166  0.1800  0.8460 -0.4859
 2148TIP3   OH228002   6.763   0.251   2.243 -0.0658  0.3476 -0.0078
 2148TIP3    H128003   6.699   0.206   2.187  1.8223  0.4232 -2.3793
 2148TIP3    H228004   6.712   0.320   2.286 -1.5210  0.7178 -2.1570
 2149TIP3   OH228005   6.223   2.335   1.047 -0.0860  0.1837 -0.6284
 2149TIP3    H128006   6.137   2.309   1.014 -0.5057 -0.1098  0.6356
 2149TIP3    H228007   6.233   2.426   1.020 -0.9573  0.3363 -0.4598
 2150TIP3   OH228008   0.263   0.017   3.332  0.2711  0.1666  0.1618
 2150TIP3    H128009   0.232   0.099   3.294  0.9597 -1.0226 -3.2876
 2150TIP3    H228010   0.185  -0.020   3.374 -1.0753  0.8321 -1.5983
 2151TIP3   OH228011   1.190   6.615   3.206  0.2173 -0.3491 -0.1166
 2151TIP3    H128012   1.151   6.529   3.189  0.7693 -0.6729  0.2264
 2151TIP3    H228013   1.161   6.669   3.133 -0.1916 -0.8080 -0.3030
 2152TIP3   OH228014   5.908   2.414   1.890  0.0310  0.2251 -0.0807
 2152TIP3    H128015   5.855   2.337   1.910  1.1674 -0.3066  1.0342
 2152TIP3    H228016   5.860   2.487   1.929 -1.6564  0.3128 -2.1584
 2153TIP3   OH228017   2.700   4.726   8.306  0.0618 -0.1790 -0.2389
 2153TIP3    H128018   2.631   4.785   8.338  1.6130  1.3469  0.4185
 2153TIP3    H228019   2.758   4.782   8.255  1.8404 -1.0153  0.7869
 2154TIP3   OH228020   2.381   4.457   2.273 -0.1764  0.4932 -0.2739
 2154TIP3    H128021   2.469   4.467   2.310 -0.2148  0.0412 -0.0493
 2154TIP3    H228022   2.391   4.477   2.180  0.5173 -1.2524 -0.6063
 2155TIP3   OH228023   2.172   6.839   0.402 -0.3468  0.4847  0.0578
 2155TIP3    H128024   2.164   6.904   0.332  1.9073  1.2396  0.4235
 2155TIP3    H228025   2.094   6.785   0.393 -1.7996  2.5794 -0.9304
 2156TIP3   OH228026   6.044   2.012   3.325 -0.1088  0.5992  0.1853
 2156TIP3    H128027   6.019   2.091   3.372 -0.5164  2.2224 -2.5231
 2156TIP3    H228028   6.132   2.030   3.292 -0.2598 -0.0038 -0.5821
 2157TIP3   OH228029   4.883   6.344   2.851 -0.0393 -0.1210 -0.4823
 2157TIP3    H128030   4.951   6.394   2.807  0.9427 -2.1308 -1.3909
 2157TIP3    H228031   4.899   6.359   2.944  0.1475  1.2842 -0.7124
 2158TIP3   OH228032   1.038   2.515   1.817 -0.3125 -0.6570 -0.5383
 2158TIP3    H128033   1.033   2.447   1.885 -0.6914 -0.1882 -0.0837
 2158TIP3    H228034   0.946   2.534   1.796 -0.2201  0.1211 -0.2471
 2159TIP3   OH228035   0.538   0.917   1.897 -0.3803 -0.4214 -0.3900
 2159TIP3    H128036   0.517   0.963   1.979 -0.9681 -1.0479 -0.1776
 2159TIP3    H228037   0.473   0.847   1.892  0.3481 -1.0726 -0.8387
 2160TIP3   OH228038   3.845   5.223   1.104 -0.1137 -0.4184 -0.0716
 2160TIP3    H128039   3.795   5.182   1.033  1.1007  1.3099 -2.0237
 2160TIP3    H228040   3.936   5.205   1.081  0.3113  0.6703  0.7367
 2161TIP3   OH228041   4.422   6.787   2.104 -0.4616  0.4169  0.1829
 2161TIP3    H128042   4.469   6.849   2.048 -0.0806  0.6012  0.6941
 2161TIP3    H228043   4.487   6.719   2.124  0.0061  1.3120  1.9178
 2162TIP3   OH228044   0.837   4.846   0.292 -0.6508  0.5739  0.3675
 2162TIP3    H128045   0.822   4.904   0.217  0.0603  1.5543  0.9576
 2162TIP3    H228046   0.895   4.778   0.259  2.1430  2.6252  0.6895
 2163TIP3   OH228047   6.123   0.158   0.843  0.0334  0.6557  0.1093
 2163TIP3    H128048   6.098   0.222   0.777 -0.3406  0.0872 -0.3127
 2163TIP3    H228049   6.067   0.177   0.918 -1.3883 -0.3024 -0.6554
 2164TIP3   OH228050   6.823   3.112   2.658 -0.2209  0.2875  0.1491
 2164TIP3    H128051   6.765   3.103   2.582  1.0790  1.9014 -1.1189
 2164TIP3    H228052   6.808   3.201   2.689 -0.4028 -0.2118  1.5184
 2165TIP3   OH228053   3.245   5.729   2.398  0.0916 -0.4936 -0.3858
 2165TIP3    H128054   3.176   5.769   2.346 -0.3934 -0.7571  0.0470
 2165TIP3    H228055   3.199   5.673   2.460  0.7974 -2.5703 -1.6685
 2166TIP3   OH228056   0.630   0.814   3.797 -0.3776  0.5897  0.2886
 2166TIP3    H128057   0.595   0.801   3.885  0.3965  0.1553  0.5421
 2166TIP3    H228058   0.599   0.738   3.747  1.1156 -0.4347  0.8203
 2167TIP3   OH228059   4.065   3.860   8.440  0.5587 -0.3128  0.1409
 2167TIP3    H128060   3.978   3.883   8.409  0.6089  1.4017  1.1535
 2167TIP3    H228061   4.057   3.770   8.471 -1.4230  0.4941  2.1820
 2168TIP3   OH228062   0.754   0.091   1.391  0.2320 -0.5075  0.5712
 2168TIP3    H128063   0.708   0.174   1.406 -0.4379 -0.9639  1.1763
 2168TIP3    H228064   0.831   0.096   1.448  1.0664  0.3511 -0.6065
 2169TIP3   OH228065   5.145   5.947   2.495 -0.1041  0.3916  0.6507
 2169TIP3    H128066   5.058   5.978   2.522 -1.5024 -1.9315 -0.7838
 2169TIP3    H228067   5.167   5.879   2.559 -0.4618 -0.6149 -0.2538
 2170TIP3   OH228068   4.369   3.647   1.046 -0.1580 -0.0678  0.0107
 2170TIP3    H128069   4.334   3.735   1.031  3.4677  1.2374 -2.0813
 2170TIP3    H228070   4.389   3.645   1.139 -1.2340  0.9335  0.2866
 2171TIP3   OH228071   2.275   1.586   0.244 -0.0484 -0.6819 -0.3108
 2171TIP3    H128072   2.276   1.557   0.153 -0.7619 -2.6603  0.2571
 2171TIP3    H228073   2.271   1.681   0.239 -1.1013 -0.7753 -2.3513
 2172TIP3   OH228074   1.480   5.458   3.665 -0.0096  0.2901 -0.5662
 2172TIP3    H128075   1.551   5.396   3.678 -0.0464  0.3345 -0.1539
 2172TIP3    H228076   1.411   5.429   3.724 -0.4591  0.0601 -1.1904
 2173TIP3   OH228077   1.635   3.486   4.484  0.6298 -0.0623 -0.0590
 2173TIP3    H128078   1.600   3.538   4.556  1.0516 -0.4000  0.4006
 2173TIP3    H228079   1.656   3.401   4.524  0.7026 -0.3156 -0.6202
 2174TIP3   OH228080   2.608   1.380   0.410  0.0796  0.3239 -0.2724
 2174TIP3    H128081   2.701   1.360   0.400  0.2397  0.3312  1.0127
 2174TIP3    H228082   2.605   1.446   0.479 -1.0178 -1.6519  1.7374
 2175TIP3   OH228083   6.837   5.726   1.881  0.1093  0.0823  0.1174
 2175TIP3    H128084   6.899   5.763   1.943  1.5946 -0.3563 -1.0497
 2175TIP3    H228085   6.864   5.635   1.871 -0.2277  0.0885 -0.9992
 2176TIP3   OH228086   1.976   2.041   2.500  0.1062  0.5333 -0.0847
 2176TIP3    H128087   2.023   2.109   2.548  0.2710 -0.5362  1.3251
 2176TIP3    H228088   1.900   2.086   2.463  0.4201  1.5602  0.4727
 2177TIP3   OH228089   4.602   2.126   1.007  0.4465  0.4380 -0.4075
 2177TIP3    H128090   4.656   2.089   1.077  1.6144  0.5954 -1.2018
 2177TIP3    H228091   4.664   2.144   0.936  0.0832  4.1733 -0.0040
 2178TIP3   OH228092   1.463   2.755   2.716  0.4565 -0.3192  0.4892
 2178TIP3    H128093   1.371   2.739   2.733  0.8247 -2.2743  0.9173
 2178TIP3    H228094   1.498   2.789   2.799  0.4633 -1.3293  0.9150
 2179TIP3   OH228095   1.871   5.541   0.728 -0.5251  0.6881  0.0147
 2179TIP3    H128096   1.828   5.520   0.645 -0.0802  1.1294 -0.3316
 2179TIP3    H228097   1.800   5.541   0.793 -0.7474 -0.5703 -0.1862
 2180TIP3   OH228098   2.032   2.381   3.840  0.1285 -0.1039  0.2793
 2180TIP3    H128099   2.033   2.286   3.836 -0.2544 -0.1801  1.5088
 2180TIP3    H228100   2.019   2.401   3.932 -1.1699  1.1277 -0.1291
 2181TIP3   OH228101   4.671   3.368   0.807  0.8875  0.0592 -0.4612
 2181TIP3    H128102   4.731   3.293   0.811 -0.6455 -1.2141 -0.1094
 2181TIP3    H228103   4.648   3.375   0.715  1.1720  0.2102 -0.5207
 2182TIP3   OH228104   4.622   5.535   4.215  0.5590 -0.3606 -0.1347
 2182TIP3    H128105   4.609   5.614   4.268  3.8029  1.2635 -1.4734
 2182TIP3    H228106   4.603   5.563   4.126  1.4540 -1.1701 -0.5921
 2183TIP3   OH228107   6.361   6.641   3.736  0.3793 -0.1887 -0.1810
 2183TIP3    H128108   6.327   6.568   3.684  0.1470 -1.2778  1.4616
 2183TIP3    H228109   6.338   6.620   3.826  0.9931  1.5469  0.4135
 2184TIP3   OH228110   2.798   6.879   4.011  0.5688 -0.5570 -0.0712
 2184TIP3    H128111   2.737   6.953   4.012  2.0944  0.7817 -1.2039
 2184TIP3    H228112   2.781   6.833   4.094  0.1206  1.5254  1.0695
 2185TIP3   OH228113   1.084   1.175   3.068 -0.3150 -0.3355  0.3423
 2185TIP3    H128114   1.113   1.091   3.033  1.4880  0.3689 -0.0250
 2185TIP3    H228115   1.101   1.170   3.162  1.4658  0.1749  0.0927
 2186TIP3   OH228116   6.546   1.404   1.801  0.0372 -0.0220  0.3417
 2186TIP3    H128117   6.486   1.440   1.866  0.0476  0.2120  0.2214
 2186TIP3    H228118   6.601   1.344   1.851  2.3405  2.6705  1.2897
 2187TIP3   OH228119   4.936   3.561   1.570  0.5488  0.3600  0.7511
 2187TIP3    H128120   4.946   3.591   1.660 -0.7987  2.4221  0.2939
 2187TIP3    H228121   4.963   3.636   1.517 -1.2080  0.1801 -0.5068
 2188TIP3   OH228122   6.586   2.701   3.683  0.0317 -0.4555 -0.4204
 2188TIP3    H128123   6.649   2.748   3.629 -0.7621  1.6631  0.4058
 2188TIP3    H228124   6.640   2.656   3.748  0.9165 -2.1447 -2.2186
 2189TIP3   OH228125   0.376   4.557   1.083 -1.0312 -0.5896  0.4418
 2189TIP3    H128126   0.471   4.569   1.081 -1.0070 -0.7814 -1.0320
 2189TIP3    H228127   0.360   4.501   1.159 -0.1723  0.8704  1.7541
 2190TIP3   OH228128   6.693   0.551   1.302 -0.7389  0.1102 -0.4509
 2190TIP3    H128129   6.708   0.461   1.272 -0.5504 -0.7069  1.9085
 2190TIP3    H228130   6.629   0.586   1.241 -1.9378 -2.1280 -0.5774
 2191TIP3   OH228131   5.362   2.748   2.070 -0.0519 -0.0139 -0.2938
 2191TIP3    H128132   5.400   2.798   1.997  0.2218  1.2161  0.6506
 2191TIP3    H228133   5.277   2.718   2.037 -0.3135  1.2496 -0.8328
 2192TIP3   OH228134   0.201   5.312   3.379 -0.2256 -0.4499 -0.0412
 2192TIP3    H128135   0.147   5.237   3.354 -2.7219  0.7570  1.3247
 2192TIP3    H228136   0.180   5.379   3.313  0.9853 -0.4864 -0.4952
 2193TIP3   OH228137   2.576   2.502   1.269 -0.0566 -0.3032 -0.3146
 2193TIP3    H128138   2.658   2.483   1.224 -0.4514 -0.8961 -0.7975
 2193TIP3    H228139   2.510   2.502   1.200 -0.6907 -1.3170  0.2674
 2194TIP3   OH228140   5.629   3.516   1.676  0.1767 -0.0438  0.4475
 2194TIP3    H128141   5.658   3.434   1.714 -0.8592 -0.7485 -0.2290
 2194TIP3    H228142   5.578   3.558   1.745  0.8886  0.1395  0.8656
 2195TIP3   OH228143   1.609   2.890   3.803 -0.1825 -0.2008  0.0429
 2195TIP3    H128144   1.582   2.869   3.713  2.1446 -4.0710 -0.0033
 2195TIP3    H228145   1.697   2.926   3.793 -0.3119  0.3008  0.7205
 2196TIP3   OH228146   0.736   5.676   3.073  0.6443  0.0677 -0.0167
 2196TIP3    H128147   0.711   5.636   3.156 -2.1941 -1.0700 -1.2814
 2196TIP3    H228148   0.691   5.761   3.073  1.8902  0.7550  0.1959
 2197TIP3   OH228149   0.127   3.243   1.087 -0.0330  0.1178  0.2710
 2197TIP3    H128150   0.085   3.327   1.104 -1.3014 -0.5669  0.6768
 2197TIP3    H228151   0.058   3.178   1.105  0.6562 -0.9632 -0.8585
 2198TIP3   OH228152   5.952   3.834   2.309 -0.1842 -0.0556  0.5270
 2198TIP3    H128153   6.034   3.834   2.359 -0.5197  0.6481  1.1007
 2198TIP3    H228154   5.884   3.854   2.374 -0.5113  2.0894 -0.3602
 2199TIP3   OH228155   3.100   2.864   3.986  0.2285  0.5592 -0.0038
 2199TIP3    H128156   3.016   2.893   4.023  1.0273  2.6453  0.3245
 2199TIP3    H228157   3.158   2.939   3.997  2.3447 -1.0289  0.3415
 2200TIP3   OH228158   6.540   4.760   1.550 -0.4621  0.2323 -0.0150
 2200TIP3    H128159   6.486   4.797   1.621  0.3138  1.5608 -0.0889
 2200TIP3    H228160   6.509   4.803   1.471 -0.4108 -0.2467 -0.2998
 2201TIP3   OH228161   5.798   0.519   1.528  0.1545 -0.1699 -0.1457
 2201TIP3    H128162   5.738   0.490   1.598 -1.3188  1.5787 -0.5940
 2201TIP3    H228163   5.837   0.600   1.562  0.6855 -0.1870 -0.7036
 2202TIP3   OH228164   6.272   2.195   3.584  0.8340  0.1392  0.3919
 2202TIP3    H128165   6.239   2.285   3.582  0.2384 -0.0198  1.6147
 2202TIP3    H228166   6.297   2.175   3.494 -3.4189 -0.0837 -0.9131
 2203TIP3   OH228167   5.217   3.018   4.113 -0.4197  0.4945 -1.1829
 2203TIP3    H128168   5.275   2.977   4.048  0.5659 -0.5555  0.2853
 2203TIP3    H228169   5.223   3.112   4.094  1.1717  0.3485 -1.5799
 2204TIP3   OH228170   0.611   4.280   0.014  0.3772  0.0717 -0.3331
 2204TIP3    H128171   0.580   4.192  -0.005 -0.2191 -0.1429  1.4599
 2204TIP3    H228172   0.550   4.314   0.079  1.4232  1.2611  0.0845
 2205TIP3   OH228173   3.378   2.998   2.746  0.2673 -0.2357  0.3290
 2205TIP3    H128174   3.418   3.085   2.753  1.8387 -0.8178 -0.7437
 2205TIP3    H228175   3.308   3.009   2.683  1.1161  0.0678 -0.5935
 2206TIP3   OH228176   6.777   4.610   3.717 -0.2705  0.4389 -0.2867
 2206TIP3    H128177   6.840   4.658   3.663  1.0200 -1.6067 -0.6984
 2206TIP3    H228178   6.710   4.580   3.656  0.5120 -0.7764 -0.5881
 2207TIP3   OH228179   2.765   5.731   4.364 -0.6044  0.2863 -0.7408
 2207TIP3    H128180   2.717   5.681   4.430  1.2336  0.7255  1.0411
 2207TIP3    H228181   2.819   5.665   4.320  0.6042  0.3898  0.4989
 2208TIP3   OH228182   6.608   0.789   3.556  0.3041 -0.0041  0.1259
 2208TIP3    H128183   6.593   0.880   3.529 -2.0932 -0.1928  0.5592
 2208TIP3    H228184   6.606   0.739   3.474 -1.5841  0.0286  0.1064
 2209TIP3   OH228185   0.238   4.487   0.571 -0.0372  0.0344  0.3014
 2209TIP3    H128186   0.263   4.409   0.521  1.2574  0.1617  0.7240
 2209TIP3    H228187   0.170   4.456   0.630 -0.3317 -0.5160 -0.3060
 2210TIP3   OH228188   0.254   5.259   3.771 -0.3682  0.0555 -0.6756
 2210TIP3    H128189   0.286   5.324   3.708  0.1977 -2.1506 -2.8349
 2210TIP3    H228190   0.299   5.281   3.853  2.6261  0.2988 -2.2398
 2211TIP3   OH228191   0.346   3.236   2.500 -0.6679 -0.5770 -0.2254
 2211TIP3    H128192   0.322   3.219   2.409 -0.7707  1.1173 -0.5386
 2211TIP3    H228193   0.276   3.194   2.551  0.6978 -3.8010 -0.7506
 2212TIP3   OH228194   6.286   5.953   1.025  0.4836  0.1412 -0.4491
 2212TIP3    H128195   6.340   6.031   1.017  2.6486 -1.1277  0.8563
 2212TIP3    H228196   6.327   5.890   0.966 -1.3892 -0.0181 -1.6963
 2213TIP3   OH228197   6.367   1.909   3.332 -0.2920 -0.1004 -0.0724
 2213TIP3    H128198   6.411   1.834   3.293 -1.8003 -1.6006  0.9528
 2213TIP3    H228199   6.314   1.946   3.261  0.5009  0.0408 -0.5946
 2214TIP3   OH228200   5.109   5.772   0.837 -0.1457  0.0008 -0.0450
 2214TIP3    H128201   5.122   5.723   0.919  1.2950  1.3447  0.5774
 2214TIP3    H228202   5.024   5.814   0.848 -1.0308 -1.6447 -0.2456
 2215TIP3   OH228203   2.613   1.245   2.443 -0.5330 -0.3127 -0.1881
 2215TIP3    H128204   2.555   1.200   2.505 -0.2125 -0.9710 -0.3545
 2215TIP3    H228205   2.589   1.337   2.451 -0.4975 -0.3832  0.9227
 2216TIP3   OH228206   4.847   4.191   1.190 -0.0055 -0.0281 -0.1563
 2216TIP3    H128207   4.908   4.206   1.117  0.3183  0.0306  0.1235
 2216TIP3    H228208   4.765   4.230   1.161  0.0805 -0.1348 -0.5521
 2217TIP3   OH228209   0.528   6.252   1.272  0.1300  0.2110  0.4607
 2217TIP3    H128210   0.520   6.216   1.184 -1.6417 -2.6670  1.6578
 2217TIP3    H228211   0.438   6.261   1.303  0.7196 -0.4279  2.5203
 2218TIP3   OH228212   0.120   3.099   3.605  0.1560 -0.3027 -0.4038
 2218TIP3    H128213   0.149   3.092   3.514  0.4317  1.2758 -0.4662
 2218TIP3    H228214   0.196   3.073   3.657 -0.2106 -1.8665 -0.6027
 2219TIP3   OH228215   5.611   5.336   0.137 -0.0667  0.7022  0.5209
 2219TIP3    H128216   5.534   5.281   0.155  0.4230  0.6410  2.6120
 2219TIP3    H228217   5.672   5.278   0.091 -0.2728  0.0108  1.1087
 2220TIP3   OH228218   1.537   6.604   3.252 -0.6736 -0.1470  0.2468
 2220TIP3    H128219   1.484   6.565   3.321 -1.2492 -1.5661 -0.9535
 2220TIP3    H228220   1.499   6.571   3.170  0.4531  0.8836 -0.7367
 2221TIP3   OH228221   0.271   3.806   1.518 -0.2186  0.0033 -0.0668
 2221TIP3    H128222   0.265   3.819   1.423 -0.5951  0.8641  0.0625
 2221TIP3    H228223   0.322   3.882   1.549  0.6350 -0.7085  0.3275
 2222TIP3   OH228224   3.857   2.770   2.207  0.3247 -0.3035  0.0696
 2222TIP3    H128225   3.770   2.800   2.179  1.0188  2.8662  0.9340
 2222TIP3    H228226   3.918   2.817   2.150  1.5202 -1.3210  0.4762
 2223TIP3   OH228227   0.418   4.219   0.545  0.6153  0.5352  0.2516
 2223TIP3    H128228   0.354   4.236   0.476 -0.3215 -0.2322  0.9003
 2223TIP3    H228229   0.463   4.139   0.517  0.6249  0.5414  0.2493
 2224TIP3   OH228230   3.182   6.714   2.822 -0.0774 -0.2962  0.0155
 2224TIP3    H128231   3.165   6.659   2.746 -1.8485  1.7772 -1.2200
 2224TIP3    H228232   3.256   6.769   2.796 -0.8960  0.6430 -0.3672
 2225TIP3   OH228233   1.645   1.541   1.704  0.0932  0.1986  0.8176
 2225TIP3    H128234   1.561   1.494   1.708 -0.5366  0.9719 -1.7085
 2225TIP3    H228235   1.622   1.630   1.677  1.7657  0.1541 -0.9808
 2226TIP3   OH228236   6.053   0.555   4.102  0.2569  0.7105  0.0636
 2226TIP3    H128237   6.128   0.496   4.111  0.0299  0.4338  0.1204
 2226TIP3    H228238   6.043   0.567   4.007 -0.7338 -0.6654 -0.0330
 2227TIP3   OH228239   3.443   4.056   3.066 -0.0978 -0.4373  0.1946
 2227TIP3    H128240   3.351   4.057   3.091 -0.4586 -0.9614 -1.0074
 2227TIP3    H228241   3.473   3.967   3.086  0.7105  0.2594  2.3608
 2228TIP3   OH228242   2.348   1.899   1.254  0.1276  0.0571 -0.3807
 2228TIP3    H128243   2.333   1.852   1.336 -0.2332 -0.2105 -0.5931
 2228TIP3    H228244   2.287   1.858   1.192  1.0287 -0.3458 -1.0108
 2229TIP3   OH228245   4.133   1.674   1.770 -0.1227 -0.4083  0.0563
 2229TIP3    H128246   4.056   1.683   1.713 -0.5435  1.5711  0.8652
 2229TIP3    H228247   4.097   1.671   1.859  0.7138  0.3216  0.4315
 2230TIP3   OH228248   3.906   3.279   4.311  0.2661 -0.5086  0.3558
 2230TIP3    H128249   3.986   3.292   4.260  1.9148 -1.4975  2.5565
 2230TIP3    H228250   3.927   3.208   4.372 -1.8190  0.1431  1.9654
 2231TIP3   OH228251   0.971   3.894   4.589 -0.3392  0.1112  0.3869
 2231TIP3    H128252   0.969   3.805   4.553  1.7125  0.0151  0.3876
 2231TIP3    H228253   0.937   3.885   4.678 -1.3555 -0.4259 -0.0432
 2232TIP3   OH228254   1.408   3.213   4.395  0.0003 -0.0747  0.1262
 2232TIP3    H128255   1.429   3.208   4.489 -2.0795 -0.6041  0.6105
 2232TIP3    H228256   1.316   3.240   4.393 -1.6743 -4.9155 -1.5586
 2233TIP3   OH228257   2.843   4.739   1.563 -0.4314 -0.1150  0.3569
 2233TIP3    H128258   2.890   4.676   1.507  0.3742  0.7183  0.0742
 2233TIP3    H228259   2.875   4.721   1.651  1.1875  1.0774  0.0506
 2234TIP3   OH228260   6.249   3.848   2.323 -0.4915  0.4040 -0.0492
 2234TIP3    H128261   6.276   3.919   2.266  0.0472 -0.1545 -0.5010
 2234TIP3    H228262   6.286   3.769   2.283 -2.6336 -0.3921 -0.6141
 2235TIP3   OH228263   4.763   5.131   3.293 -0.1979 -0.0208  0.1904
 2235TIP3    H128264   4.839   5.177   3.330  0.3441  0.7061 -1.7046
 2235TIP3    H228265   4.735   5.186   3.220 -2.2239 -0.5696  0.5007
 2236TIP3   OH228266   5.946   0.307   1.776 -0.2871  0.2752 -0.1614
 2236TIP3    H128267   6.015   0.307   1.710 -0.7555 -1.5493 -0.7055
 2236TIP3    H228268   5.866   0.290   1.726 -0.5632 -1.8739  0.9024
 2237TIP3   OH228269   5.205   3.407   0.911 -0.0516 -0.1775  0.2501
 2237TIP3    H128270   5.232   3.360   0.833 -1.7772 -0.6857 -0.0783
 2237TIP3    H228271   5.246   3.493   0.902 -0.5379 -0.0828 -1.4402
 2238TIP3   OH228272   1.575   6.678   2.920 -0.3814  0.3752  0.0603
 2238TIP3    H128273   1.665   6.647   2.923  0.1562  1.9401  1.3985
 2238TIP3    H228274   1.527   6.617   2.975 -0.0009 -0.0259 -0.0469
 2239TIP3   OH228275   4.373   4.546   3.116  0.5735 -0.4980  0.1363
 2239TIP3    H128276   4.448   4.602   3.097 -0.0740  0.2137 -0.3958
 2239TIP3    H228277   4.350   4.566   3.207 -0.0193  0.5692 -0.2287
 2240TIP3   OH228278   5.497   2.707   3.882 -0.4350 -0.1142 -0.8040
 2240TIP3    H128279   5.520   2.746   3.966 -0.7678  0.3212 -0.9121
 2240TIP3    H228280   5.448   2.628   3.905  0.9294 -0.9145 -0.5780
 2241TIP3   OH228281   0.269   0.141   2.393  0.2118  0.4665  0.0662
 2241TIP3    H128282   0.262   0.147   2.298  0.6089  0.3484  0.0248
 2241TIP3    H228283   0.179   0.145   2.425  0.1609  2.2032 -0.2022
 2242TIP3   OH228284   1.811   1.901   0.541  0.1357 -0.0819 -0.2882
 2242TIP3    H128285   1.719   1.882   0.521  0.2063  0.2150 -0.9386
 2242TIP3    H228286   1.853   1.905   0.455  0.3669  1.7297 -0.1168
 2243TIP3   OH228287   2.968   1.641   1.407  0.0849 -0.4353 -0.3261
 2243TIP3    H128288   2.959   1.668   1.499  1.2207 -0.9082 -0.0567
 2243TIP3    H228289   3.060   1.617   1.398  0.5514  1.7166 -2.1719
 2244TIP3   OH228290   5.228   3.447   2.897 -0.1325 -0.3504 -0.0823
 2244TIP3    H128291   5.238   3.496   2.816  0.0992 -0.6321 -0.2252
 2244TIP3    H228292   5.172   3.503   2.952  0.0664  0.0385 -0.2682
 2245TIP3   OH228293   2.817   1.418   1.467 -0.1262 -0.3553  0.0061
 2245TIP3    H128294   2.867   1.337   1.456  1.4748  0.8191 -1.9886
 2245TIP3    H228295   2.878   1.488   1.442 -1.5233  1.4772  1.4347
 2246TIP3   OH228296   3.481   5.287   3.233 -0.4028  0.4901 -0.5309
 2246TIP3    H128297   3.462   5.229   3.158 -1.6758 -0.6446  0.5978
 2246TIP3    H228298   3.575   5.281   3.245 -0.5638 -2.0545  0.0174
 2247TIP3   OH228299   4.302   5.676   3.585 -0.2367  0.7428 -0.2427
 2247TIP3    H128300   4.254   5.754   3.555  1.8318  1.8797 -0.7996
 2247TIP3    H228301   4.310   5.622   3.507  1.7700  1.9030 -0.9323
 2248TIP3   OH228302   0.555   6.141   0.592  0.0102 -0.5696  0.2616
 2248TIP3    H128303   0.603   6.224   0.590  0.3519 -0.7742 -0.4640
 2248TIP3    H228304   0.519   6.136   0.680 -0.8032  0.8087  0.0411
 2249TIP3   OH228305   3.846   2.922   1.884  0.4578 -0.0748 -0.5620
 2249TIP3    H128306   3.774   2.877   1.839 -1.6065 -0.7414  3.0711
 2249TIP3    H228307   3.910   2.853   1.901 -1.2046 -1.1041  2.0651
 2250TIP3   OH228308   4.038   2.699   1.979  0.6356 -0.1910 -0.5114
 2250TIP3    H128309   3.989   2.634   2.030 -1.9917  1.5382 -0.6626
 2250TIP3    H228310   4.054   2.655   1.895  1.5663 -1.6444  0.3643
 2251TIP3   OH228311   6.547   4.928   2.450  0.1736  0.4913 -0.2445
 2251TIP3    H128312   6.546   4.840   2.412  2.1196 -0.9320  2.5821
 2251TIP3    H228313   6.578   4.985   2.380  1.2708 -1.5220 -1.4881
 2252TIP3   OH228314   2.951   6.931   1.802 -0.3543  0.1417  0.2968
 2252TIP3    H128315   2.940   6.844   1.842 -0.8168  0.4849  0.9171
 2252TIP3    H228316   3.023   6.919   1.740 -1.5812 -1.1477 -0.9582
 2253TIP3   OH228317   2.030   6.572   2.395 -0.2946 -0.0538 -0.2362
 2253TIP3    H128318   2.033   6.522   2.476 -1.8215 -1.6918 -1.1035
 2253TIP3    H228319   1.945   6.616   2.397 -1.8547 -2.6631 -2.2438
 2254TIP3   OH228320   4.806   2.469   3.359 -0.4849 -0.8594  0.1251
 2254TIP3    H128321   4.758   2.386   3.360  0.0157 -1.1515 -0.1246
 2254TIP3    H228322   4.768   2.519   3.431 -0.8314 -1.2764  0.2377
 2255TIP3   OH228323   4.184   0.092   1.282 -0.4856 -0.2185  0.3194
 2255TIP3    H128324   4.249   0.075   1.350  0.2511 -2.1588 -0.7924
 2255TIP3    H228325   4.152   0.005   1.257 -0.2392  0.3443 -2.2602
 2256TIP3   OH228326   0.562   1.816   2.868  0.6658 -0.5679 -0.6558
 2256TIP3    H128327   0.588   1.860   2.950  1.5133  0.5144 -1.4727
 2256TIP3    H228328   0.613   1.735   2.868 -0.4778 -1.3300  0.5975
 2257TIP3   OH228329   5.280   0.592   1.896 -0.2309 -0.1267  0.5191
 2257TIP3    H128330   5.307   0.650   1.966  0.4856  0.0625  0.0997
 2257TIP3    H228331   5.357   0.539   1.877  0.2454  1.1367 -1.4204
 2258TIP3   OH228332   6.890   1.276   1.351  0.2556  0.7923 -0.2210
 2258TIP3    H128333   6.808   1.227   1.349  0.3275  0.5058  1.6900
 2258TIP3    H228334   6.865   1.365   1.378  0.5941  0.5564  0.9452
 2259TIP3   OH228335   1.695   1.102   2.525  0.1235 -0.0032 -0.0741
 2259TIP3    H128336   1.742   1.058   2.596  1.4009  0.5195 -0.5628
 2259TIP3    H228337   1.749   1.180   2.506 -1.7640  1.4842  0.3904
 2260TIP3   OH228338   2.089   6.022   2.501  0.5094 -0.1632 -0.1671
 2260TIP3    H128339   2.142   6.090   2.543  0.6146 -0.4984  0.2422
 2260TIP3    H228340   2.022   6.071   2.453 -0.2799  0.2145  1.2547
 2261TIP3   OH228341   2.784   6.283   3.903 -0.6152  0.1009  0.0274
 2261TIP3    H128342   2.742   6.197   3.895 -1.4654  0.4343  0.6832
 2261TIP3    H228343   2.714   6.340   3.935  0.2116  0.8093  0.5999
 2262TIP3   OH228344   5.691   2.063   3.492  0.2429  0.6133 -0.2146
 2262TIP3    H128345   5.764   2.047   3.552  0.1156  0.6802 -0.0389
 2262TIP3    H228346   5.624   2.104   3.547  0.4794  1.5508 -0.5953
 2263TIP3   OH228347   6.072   1.579   2.133  0.2004 -0.5454  0.6379
 2263TIP3    H128348   6.057   1.511   2.067 -1.2148  0.2494  0.0850
 2263TIP3    H228349   5.984   1.602   2.164  0.7567 -0.0374  1.9270
 2264TIP3   OH228350   5.441   5.630   2.835 -0.1903  0.5339  0.4575
 2264TIP3    H128351   5.394   5.547   2.842 -1.9181  1.3909 -0.5101
 2264TIP3    H228352   5.514   5.620   2.896 -0.1869 -1.7872  0.1724
 2265TIP3   OH228353   0.325   4.961   2.564 -0.0228  0.2992  0.0795
 2265TIP3    H128354   0.369   4.878   2.580 -1.7857 -0.4041  1.7377
 2265TIP3    H228355   0.250   4.939   2.510  1.3362  1.4279 -2.4395
 2266TIP3   OH228356   0.821   5.469   3.891 -0.1192 -0.5377 -0.3082
 2266TIP3    H128357   0.761   5.432   3.956 -1.1937  2.5363  0.5878
 2266TIP3    H228358   0.867   5.538   3.937  1.0516 -0.0193 -2.1448
 2267TIP3   OH228359   6.028   2.732   1.682 -0.4976  0.5959 -0.0516
 2267TIP3    H128360   6.060   2.642   1.691 -0.2141  0.7011 -0.0141
 2267TIP3    H228361   6.015   2.761   1.772 -0.8883  0.4867 -0.0705
 2268TIP3   OH228362   5.787   0.209   3.715  0.0467  0.7919 -0.2942
 2268TIP3    H128363   5.724   0.253   3.771  1.4241  1.4475  0.8122
 2268TIP3    H228364   5.803   0.125   3.758  0.7042  1.0694  0.0109
 2269TIP3   OH228365   4.789   1.774   1.285 -0.2465 -0.2034 -0.2113
 2269TIP3    H128366   4.787   1.864   1.253  0.6669 -0.8095 -2.0968
 2269TIP3    H228367   4.711   1.734   1.248 -0.9875 -0.0780  1.1269
 2270TIP3   OH228368   6.862   5.621   2.499  0.4827 -0.0628  0.0700
 2270TIP3    H128369   6.873   5.595   2.590 -0.0545  1.2914  0.5421
 2270TIP3    H228370   6.779   5.667   2.497  0.5877  0.1139 -1.0755
 2271TIP3   OH228371   1.573   2.022   0.786  0.3462  0.1907  0.1872
 2271TIP3    H128372   1.608   2.093   0.732  2.1352 -1.6104 -1.1924
 2271TIP3    H228373   1.515   1.974   0.727 -0.5767  0.2793  1.0015
 2272TIP3   OH228374   2.425   1.274   3.876 -0.4287  0.2479  0.2897
 2272TIP3    H128375   2.345   1.230   3.903 -0.1937 -0.3649  0.0002
 2272TIP3    H228376   2.488   1.203   3.861 -0.3624  0.6014 -1.2457
 2273TIP3   OH228377   2.100   3.993   2.374  0.1628 -0.0193 -0.3159
 2273TIP3    H128378   2.127   3.908   2.339  1.4784 -0.8857  2.5140
 2273TIP3    H228379   2.056   3.973   2.456  1.1961  2.0292  0.8222
 2274TIP3   OH228380   3.691   0.602   2.801  0.2005  0.0558 -0.1856
 2274TIP3    H128381   3.700   0.667   2.871  1.2881  1.0068 -1.1721
 2274TIP3    H228382   3.742   0.527   2.832  0.7229  0.4937  0.0349
 2275TIP3   OH228383   2.207   4.339   1.647  0.1449  0.2332 -0.5613
 2275TIP3    H128384   2.262   4.398   1.698  0.4425  0.7438 -1.4704
 2275TIP3    H228385   2.158   4.290   1.714  1.0800  0.3515  0.2340
 2276TIP3   OH228386   5.522   2.533   1.106 -0.3251 -0.3281  0.4255
 2276TIP3    H128387   5.564   2.448   1.121 -0.0514 -0.2445  0.1415
 2276TIP3    H228388   5.526   2.546   1.011 -0.1653  0.1045  0.4881
 2277TIP3   OH228389   1.972   3.659   2.075 -0.3922 -0.0957 -0.2155
 2277TIP3    H128390   1.880   3.632   2.077 -0.0546 -1.2542  0.8133
 2277TIP3    H228391   2.012   3.603   2.009 -0.1479 -0.6295  0.3666
 2278TIP3   OH228392   3.233   4.276   1.923 -0.0720 -0.4539  0.0990
 2278TIP3    H128393   3.238   4.197   1.869 -1.0420 -1.2122  1.0862
 2278TIP3    H228394   3.259   4.347   1.864 -1.0084 -1.2708 -1.3432
 2279TIP3   OH228395   5.448   2.016   1.601 -0.3810 -0.4663  0.0465
 2279TIP3    H128396   5.510   1.993   1.670  1.0184 -0.6414 -1.2237
 2279TIP3    H228397   5.387   1.942   1.598  1.3875 -1.9625 -0.9391
 2280TIP3   OH228398   6.207   3.949   1.262  0.1360 -0.3592  0.7650
 2280TIP3    H128399   6.239   3.883   1.201 -0.9272 -2.4228  2.3122
 2280TIP3    H228400   6.234   3.918   1.348 -2.0600  0.1601  1.7222
 2281TIP3   OH228401   1.552   0.473   3.752 -0.0407 -0.0554 -0.3408
 2281TIP3    H128402   1.482   0.417   3.717  1.2390 -0.0754 -3.1379
 2281TIP3    H228403   1.596   0.418   3.818 -2.5991 -0.0002  1.5708
 2282TIP3   OH228404   1.402   3.799   1.792 -0.0624 -0.2796 -0.4924
 2282TIP3    H128405   1.367   3.764   1.874 -1.7446  0.2690 -0.9342
 2282TIP3    H228406   1.345   3.763   1.724  0.5574  0.2431 -1.3084
 2283TIP3   OH228407   4.602   1.126   3.224 -0.4633  0.5045  0.4581
 2283TIP3    H128408   4.540   1.085   3.164 -0.3409  1.1982 -0.1479
 2283TIP3    H228409   4.682   1.074   3.215 -0.0147  1.3657 -0.9846
 2284TIP3   OH228410   4.722   1.011   4.227 -0.0188  0.5222  0.2059
 2284TIP3    H128411   4.681   0.943   4.279 -1.0002  1.1927  0.3479
 2284TIP3    H228412   4.649   1.053   4.181  0.4627  1.9633  0.7029
 2285TIP3   OH228413   3.206   4.524   1.188 -0.1505  0.1155 -0.2556
 2285TIP3    H128414   3.156   4.500   1.110  2.5214 -2.1860 -1.4361
 2285TIP3    H228415   3.265   4.594   1.158 -0.8424  1.0308  0.4474
 2286TIP3   OH228416   6.841   4.023   1.872  0.1017 -0.4372 -0.3244
 2286TIP3    H128417   6.785   4.026   1.795  0.2195  0.6393 -0.3859
 2286TIP3    H228418   6.930   4.037   1.837  0.0721  0.8786  0.0662
 2287TIP3   OH228419   2.182   3.935   3.470 -1.1186 -0.0764 -0.7429
 2287TIP3    H128420   2.237   3.894   3.536 -0.0172  2.5598  0.1188
 2287TIP3    H228421   2.111   3.976   3.520 -0.0947  2.2380 -1.0743
 2288TIP3   OH228422   5.988   1.984   0.873  0.4597 -0.3772 -0.0338
 2288TIP3    H128423   6.027   1.921   0.933  1.7482 -0.1032 -0.5352
 2288TIP3    H228424   6.051   2.056   0.870 -0.3877  0.3692 -0.4228
 2289TIP3   OH228425   2.709   1.695   1.283 -0.0448  0.0414 -0.8541
 2289TIP3    H128426   2.722   1.678   1.190  2.1005 -0.5092 -0.5084
 2289TIP3    H228427   2.789   1.664   1.324 -1.6834 -1.5115  1.4320
 2290TIP3   OH228428   0.842   2.896   0.038 -0.0076  0.0580  0.2380
 2290TIP3    H128429   0.788   2.940  -0.028 -0.2516 -0.0105  0.3893
 2290TIP3    H228430   0.859   2.963   0.104  0.7897  0.3123 -0.2123
 2291TIP3   OH228431   1.666   4.568   2.490 -0.7887  0.2313 -0.0629
 2291TIP3    H128432   1.752   4.555   2.532 -0.4547 -0.8085 -1.0121
 2291TIP3    H228433   1.648   4.661   2.500  0.1086  0.3246  0.8109
 2292TIP3   OH228434   1.170   0.445   0.916  0.3754 -0.5498 -0.1244
 2292TIP3    H128435   1.242   0.508   0.917  0.2067 -0.3217 -1.2305
 2292TIP3    H228436   1.101   0.486   0.969  0.1565  0.3477 -1.0755
 2293TIP3   OH228437   0.532   5.333   3.131  0.2523 -0.3586 -0.6401
 2293TIP3    H128438   0.470   5.405   3.139 -0.4516 -0.9871 -0.4192
 2293TIP3    H228439   0.552   5.328   3.037  0.5067  0.2785 -0.6275
 2294TIP3   OH228440   6.429   5.063   3.537 -0.3594  0.2106 -0.2266
 2294TIP3    H128441   6.474   5.057   3.453  1.7699  2.3720  0.6714
 2294TIP3    H228442   6.496   5.089   3.599 -2.7050  3.2751  1.3021
 2295TIP3   OH228443   6.917   1.399   3.434  0.4461  0.1179 -0.2140
 2295TIP3    H128444   6.828   1.372   3.460 -0.0009  1.7350  0.0031
 2295TIP3    H228445   6.973   1.328   3.465 -0.5393  0.0327  1.4928
 2296TIP3   OH228446   5.920   1.715   2.467 -0.0244 -0.2560  0.2310
 2296TIP3    H128447   5.954   1.779   2.404 -1.0468 -0.7551 -0.8686
 2296TIP3    H228448   5.995   1.658   2.487 -0.0898 -1.1609 -1.9107
 2297TIP3   OH228449   3.402   5.275   1.821 -0.3301 -0.3662 -0.1896
 2297TIP3    H128450   3.455   5.351   1.848  2.7532 -1.9087 -1.3446
 2297TIP3    H228451   3.340   5.311   1.758  0.8666  1.2718 -0.5194
 2298TIP3   OH228452   4.864   5.976   3.524 -0.1180 -0.3832  0.4265
 2298TIP3    H128453   4.863   5.892   3.571 -2.5332 -0.7577 -0.1509
 2298TIP3    H228454   4.785   6.021   3.555 -0.0572  0.7104 -0.9185
 2299TIP3   OH228455   1.722   6.076   3.367  0.3360  0.4966  0.3085
 2299TIP3    H128456   1.629   6.099   3.361  0.6544  1.5204 -1.3171
 2299TIP3    H228457   1.756   6.135   3.436 -0.2380 -0.0281  1.0569
 2300TIP3   OH228458   3.972   1.335   0.540  0.2889 -0.2831 -0.0312
 2300TIP3    H128459   4.009   1.261   0.588  0.7445  1.1368  1.9373
 2300TIP3    H228460   4.047   1.388   0.516 -0.0650 -0.2424 -1.1151
 2301TIP3   OH228461   1.051   2.289   0.686 -0.2844  0.0213 -0.2544
 2301TIP3    H128462   1.010   2.203   0.699  0.3153 -0.3662 -0.8781
 2301TIP3    H228463   0.985   2.352   0.717 -0.9572 -0.6317 -0.3384
 2302TIP3   OH228464   1.351   6.836   3.311 -0.5752 -0.2229  0.1909
 2302TIP3    H128465   1.323   6.752   3.274  0.4118 -0.0727 -0.9589
 2302TIP3    H228466   1.406   6.811   3.386 -0.2876 -0.6101 -0.1406
 2303TIP3   OH228467   1.793   6.694   2.366  0.0192 -1.4421 -0.1846
 2303TIP3    H128468   1.716   6.638   2.370 -0.3886 -0.8908 -0.1864
 2303TIP3    H228469   1.783   6.755   2.439 -0.8149  0.2008 -1.5734
 2304TIP3   OH228470   4.374   1.864   2.969  0.0138  0.3062 -0.0894
 2304TIP3    H128471   4.414   1.907   3.045  0.0183 -1.0534  0.7276
 2304TIP3    H228472   4.447   1.819   2.926 -0.2848 -0.5448  0.2596
 2305TIP3   OH228473   0.670   4.344   1.327 -0.1100  0.1267  0.3819
 2305TIP3    H128474   0.698   4.418   1.272  0.4687 -1.2554 -1.2758
 2305TIP3    H228475   0.619   4.385   1.397 -0.3288  2.0600 -0.8086
 2306TIP3   OH228476   6.623   0.014   0.933  0.2692  0.1661  0.2852
 2306TIP3    H128477   6.559   0.080   0.907 -0.4623 -0.4655  0.4446
 2306TIP3    H228478   6.644   0.036   1.024 -2.2304 -1.4969  1.3889
 2307TIP3   OH228479   0.214   0.839   1.412  0.0548  0.2074  0.2201
 2307TIP3    H128480   0.152   0.784   1.364  0.9443 -2.1917  1.6294
 2307TIP3    H228481   0.159   0.904   1.456 -1.2901 -0.8049  0.1158
 2308TIP3   OH228482   0.869   4.900   1.452 -0.0758  0.1211  0.0562
 2308TIP3    H128483   0.845   4.971   1.392 -4.3144 -0.3116  0.9020
 2308TIP3    H228484   0.840   4.820   1.408  1.1055 -0.6946  0.7095
 2309TIP3   OH228485   2.832   3.351   0.471  0.1975 -0.0012  1.0057
 2309TIP3    H128486   2.862   3.335   0.381  2.2997  0.0788  1.6374
 2309TIP3    H228487   2.822   3.263   0.508  0.7641 -0.0189  1.1228
 2310TIP3   OH228488   4.497   5.845   4.075  0.4098 -0.1098 -0.4056
 2310TIP3    H128489   4.542   5.916   4.029 -0.4547 -1.8413 -4.3337
 2310TIP3    H228490   4.415   5.884   4.105  0.6210  0.8954 -1.0730
 2311TIP3   OH228491   1.434   2.460   1.775  0.1312  0.3643 -0.0076
 2311TIP3    H128492   1.483   2.402   1.717 -0.1590 -1.4344  1.4338
 2311TIP3    H228493   1.360   2.491   1.722 -0.7793 -2.1237 -0.3567
 2312TIP3   OH228494   0.141   3.044   2.077 -0.2864  0.5067  0.1705
 2312TIP3    H128495   0.048   3.049   2.053 -0.4234  2.3872  0.9209
 2312TIP3    H228496   0.187   3.076   2.000 -0.3693  1.1653  0.3934
 2313TIP3   OH228497   2.739   1.422   2.641 -0.0631 -0.4291  0.0166
 2313TIP3    H128498   2.803   1.355   2.664  0.8051 -0.2714 -1.7746
 2313TIP3    H228499   2.672   1.415   2.709  0.5561 -2.3514  0.5052
 2314TIP3   OH228500   5.959   4.972   4.767  0.1397 -0.1565 -0.0090
 2314TIP3    H128501   5.912   4.930   4.839  1.0976 -3.3443 -1.0668
 2314TIP3    H228502   5.945   4.914   4.693  0.2052  2.3869 -2.1405
 2315TIP3   OH228503   1.026   3.024   3.665  0.3694  0.5151  0.5008
 2315TIP3    H128504   0.985   2.952   3.617  0.9833  1.2820 -1.2948
 2315TIP3    H228505   1.105   2.985   3.703 -0.1419 -0.1216  0.9320
 2316TIP3   OH228506   0.581   3.840   1.000 -0.2140  0.4801  0.4191
 2316TIP3    H128507   0.669   3.812   0.972 -0.8344 -0.9319 -0.2443
 2316TIP3    H228508   0.538   3.866   0.919 -1.8456 -3.1190 -0.0835
 2317TIP3   OH228509   3.548   0.627   1.790  0.0621  0.1323  0.4884
 2317TIP3    H128510   3.570   0.538   1.817  0.7576  0.0130 -0.4376
 2317TIP3    H228511   3.585   0.682   1.859 -0.9667 -0.3028  1.4283
 2318TIP3   OH228512   0.725   6.105   1.506 -0.0017  0.3104  0.0913
 2318TIP3    H128513   0.814   6.093   1.472 -0.6556 -0.9368 -1.2602
 2318TIP3    H228514   0.711   6.031   1.564 -0.5241 -0.0684 -0.5112
 2319TIP3   OH228515   3.673   5.210   1.373  0.0421 -0.1386  0.5172
 2319TIP3    H128516   3.596   5.156   1.354 -0.7166  1.0343  0.1853
 2319TIP3    H228517   3.727   5.204   1.295 -0.0311 -0.4071  0.4850
 2320TIP3   OH228518   2.302   4.204   2.090 -0.9893  0.5783 -0.0399
 2320TIP3    H128519   2.392   4.179   2.110 -0.5346  0.8718 -1.6002
 2320TIP3    H228520   2.292   4.289   2.132 -0.2407  0.9404 -0.5658
 2321TIP3   OH228521   1.754   2.376   2.604  0.0934 -0.3115  0.1602
 2321TIP3    H128522   1.830   2.425   2.635  0.1366 -0.5555  0.4511
 2321TIP3    H228523   1.725   2.423   2.526 -0.1398  0.4557  0.6838
 2322TIP3   OH228524   3.190   1.262   4.084 -0.6016 -0.3502  0.1683
 2322TIP3    H128525   3.284   1.255   4.101 -0.7393 -0.3733  0.9539
 2322TIP3    H228526   3.180   1.236   3.992  0.1977 -0.0087 -0.0236
 2323TIP3   OH228527   5.275   0.782   2.104  0.5330  0.0831  0.4126
 2323TIP3    H128528   5.204   0.836   2.138  1.8429  0.8265  2.1676
 2323TIP3    H228529   5.282   0.710   2.167  2.3753  0.9307  1.2473
 2324TIP3   OH228530   4.386   1.803   1.692 -0.2682 -0.0702  0.1121
 2324TIP3    H128531   4.370   1.792   1.598 -1.2679  1.2102  0.1036
 2324TIP3    H228532   4.310   1.765   1.734 -1.0355  1.5498  0.2763
 2325TIP3   OH228533   5.337   3.274   4.307 -0.0396  1.4632 -0.7088
 2325TIP3    H128534   5.284   3.282   4.386  1.3208  0.7989  0.3076
 2325TIP3    H228535   5.273   3.268   4.236 -1.4384 -1.2592  0.6218
 2326TIP3   OH228536   0.413   5.186   0.815 -0.0433 -0.5994 -0.1261
 2326TIP3    H128537   0.436   5.181   0.722  1.2857 -1.4764  0.2204
 2326TIP3    H228538   0.334   5.132   0.823  0.1951 -1.0369 -0.6480
 2327TIP3   OH228539   3.452   5.005   1.789 -0.1291  0.0185  0.0043
 2327TIP3    H128540   3.452   5.100   1.783 -1.0552 -0.0808 -2.8961
 2327TIP3    H228541   3.523   4.977   1.731  0.4391 -1.0919  1.1751
 2328TIP3   OH228542   2.900   3.046   3.185  0.0407  0.1830  0.1213
 2328TIP3    H128543   2.894   3.119   3.123 -0.2586  0.3173  0.3086
 2328TIP3    H228544   2.827   3.059   3.246  0.4685  0.1759  0.6393
 2329TIP3   OH228545   5.337   5.558   3.636 -0.0227 -0.0695  0.0316
 2329TIP3    H128546   5.375   5.589   3.719  1.3908 -0.4417 -0.4475
 2329TIP3    H228547   5.386   5.478   3.616  0.0528  0.3193 -1.4511
 2330TIP3   OH228548   4.661   4.879   4.414  0.1406  0.3213  0.0485
 2330TIP3    H128549   4.599   4.922   4.354 -0.4928  0.4722  0.7974
 2330TIP3    H228550   4.607   4.819   4.466  0.9862 -1.3170 -0.8720
 2331TIP3   OH228551   3.063   6.325   1.597  0.3929 -0.2685 -0.1831
 2331TIP3    H128552   2.991   6.385   1.615  1.8870  1.1223  1.3534
 2331TIP3    H228553   3.049   6.299   1.505 -0.1574  2.6284 -1.0159
 2332TIP3   OH228554   2.203   1.341   0.996  0.3612 -0.2535  0.2643
 2332TIP3    H128555   2.275   1.284   1.023  0.4087  0.1695  1.0650
 2332TIP3    H228556   2.237   1.391   0.922  0.6467 -0.5615  0.1885
 2333TIP3   OH228557   5.007   3.632   0.666 -0.5071  0.0629  0.0267
 2333TIP3    H128558   4.943   3.684   0.617  1.2173  0.0206 -2.4415
 2333TIP3    H228559   4.978   3.542   0.654  0.5352 -0.0592 -2.0987
 2334TIP3   OH228560   5.156   1.351   0.769  0.4615  0.0880  0.3579
 2334TIP3    H128561   5.230   1.410   0.786  0.6773 -0.1139  0.1219
 2334TIP3    H228562   5.117   1.385   0.688 -1.0628  1.5522  1.6260
 2335TIP3   OH228563   3.113   4.205   1.410  0.1876  0.4470  0.3596
 2335TIP3    H128564   3.141   4.124   1.369 -1.2975 -0.1122  0.4130
 2335TIP3    H228565   3.044   4.239   1.353  0.8652  1.7436  0.2707
 2336TIP3   OH228566   6.238   2.368   0.717 -0.3710  0.5225  0.3318
 2336TIP3    H128567   6.280   2.441   0.763 -1.3523  1.3093  0.0319
 2336TIP3    H228568   6.161   2.408   0.675 -0.1191 -0.4030 -1.0629
 2337TIP3   OH228569   1.134   3.278   4.066  0.7930  0.1815  0.2161
 2337TIP3    H128570   1.065   3.251   4.005  0.2377 -2.7829  1.9573
 2337TIP3    H228571   1.088   3.327   4.134  0.9234  0.8022 -0.1331
 2338TIP3   OH228572   5.102   4.578   2.077  0.0516 -0.1790 -0.3503
 2338TIP3    H128573   5.020   4.620   2.102  1.1172  1.9415 -0.1560
 2338TIP3    H228574   5.127   4.525   2.153 -0.4033  0.3485  0.1714
 2339TIP3   OH228575   5.414   5.763   2.338  0.3363  0.6851  0.2969
 2339TIP3    H128576   5.468   5.691   2.308  1.2757  0.9666  1.2682
 2339TIP3    H228577   5.429   5.768   2.433 -2.9841 -0.5573  1.0351
 2340TIP3   OH228578   1.106   6.386   1.574 -0.2698  0.3906 -0.7058
 2340TIP3    H128579   1.174   6.389   1.507  0.6017  0.2061  0.1478
 2340TIP3    H228580   1.150   6.414   1.655 -1.0875 -0.1940 -0.0381
 2341TIP3   OH228581   2.525   3.722   1.851 -0.2479 -0.9933  0.5429
 2341TIP3    H128582   2.582   3.757   1.920  2.1487 -0.7307 -1.4149
 2341TIP3    H228583   2.544   3.628   1.850  1.6788 -0.6762 -1.2645
 2342TIP3   OH228584   3.984   4.496   4.355 -0.2622  0.1707  0.4318
 2342TIP3    H128585   3.995   4.576   4.304 -0.6320 -0.0204  0.0399
 2342TIP3    H228586   3.923   4.520   4.425  0.7360  0.5992  1.1703
 2343TIP3   OH228587   4.521   5.639   0.781  0.1418 -0.2338  0.1966
 2343TIP3    H128588   4.436   5.609   0.814  0.8369  0.7297  3.1814
 2343TIP3    H228589   4.532   5.726   0.819  2.3877 -0.2724 -0.2405
 2344TIP3   OH228590   0.991   6.744   1.387  0.1318  0.0393 -0.2449
 2344TIP3    H128591   1.014   6.836   1.381 -1.9015  0.5371 -1.2896
 2344TIP3    H228592   0.969   6.731   1.479  0.7540  0.4997 -0.0249
 2345TIP3   OH228593   3.981   1.298   0.206 -0.3323  0.4015 -0.0613
 2345TIP3    H128594   3.902   1.332   0.248 -1.4189 -0.9591 -0.8866
 2345TIP3    H228595   3.973   1.325   0.114 -0.0306 -0.0511 -0.2287
 2346TIP3   OH228596   6.112   6.571   2.197 -0.3466 -0.1199  0.0362
 2346TIP3    H128597   6.158   6.509   2.140  0.6998  0.7311 -0.0740
 2346TIP3    H228598   6.059   6.623   2.137  0.2312  0.3282 -0.0913
 2347TIP3   OH228599   4.247   4.409   3.767 -0.1394 -0.4975 -0.3392
 2347TIP3    H128600   4.302   4.393   3.689 -0.4450 -0.3580 -0.5846
 2347TIP3    H228601   4.176   4.346   3.759 -1.5378  1.1307 -1.4874
 2348TIP3   OH228602   0.416   0.611   1.787  0.4321  0.1597  0.3713
 2348TIP3    H128603   0.447   0.532   1.744  0.0075 -0.7391  1.6499
 2348TIP3    H228604   0.323   0.616   1.764 -0.1229 -1.0401  2.1247
 2349TIP3   OH228605   1.043   0.711   2.684  0.2066 -0.3845 -0.0568
 2349TIP3    H128606   0.973   0.775   2.699  0.2507  0.4256 -2.7431
 2349TIP3    H228607   1.013   0.632   2.729 -1.9895  0.2521 -0.2820
 2350TIP3   OH228608   4.747   4.770   2.811 -0.2010 -0.3024  0.1235
 2350TIP3    H128609   4.713   4.765   2.722  0.3112  2.2189 -0.2835
 2350TIP3    H228610   4.842   4.775   2.800 -0.0498 -1.2756  0.8978
 2351TIP3   OH228611   6.426   4.950   1.777 -0.3926  0.2549 -0.1907
 2351TIP3    H128612   6.336   4.982   1.781 -0.8080 -0.6050 -1.6923
 2351TIP3    H228613   6.430   4.883   1.845 -0.9040  0.2372 -0.1699
 2352TIP3   OH228614   1.475   2.296   1.458  0.4005  0.2804 -0.2901
 2352TIP3    H128615   1.502   2.385   1.433 -0.3278  0.7870  0.6618
 2352TIP3    H228616   1.544   2.266   1.517  0.3324  0.4566 -0.1197
 2353TIP3   OH228617   1.311   2.735   4.120 -0.0009  0.1720  0.2422
 2353TIP3    H128618   1.383   2.791   4.092 -0.6065  0.1395 -1.4524
 2353TIP3    H228619   1.234   2.770   4.076 -0.5209 -1.5477 -0.2932
 2354TIP3   OH228620   2.019   1.200   3.899  0.3175 -0.8014 -0.1393
 2354TIP3    H128621   2.016   1.275   3.958 -3.1540 -0.8772  0.0004
 2354TIP3    H228622   2.029   1.239   3.812  1.0339 -0.3809  0.1211
 2355TIP3   OH228623   6.104   5.023   1.405 -0.4308 -0.1483 -0.1872
 2355TIP3    H128624   6.050   5.101   1.406  0.6853  0.6499  0.2023
 2355TIP3    H228625   6.071   4.969   1.477 -1.7682 -0.4568 -1.0099
 2356TIP3   OH228626   6.128   0.137   2.205 -0.2600  0.3822 -0.1733
 2356TIP3    H128627   6.067   0.106   2.138 -0.3929 -2.3185  1.0834
 2356TIP3    H228628   6.143   0.061   2.262  2.4282  1.6221  0.9594
 2357TIP3   OH228629   1.038   0.592   1.210  0.3935  0.2798  0.0215
 2357TIP3    H128630   1.103   0.522   1.207 -0.2286 -0.3013 -0.3381
 2357TIP3    H228631   1.044   0.627   1.299 -0.1797 -1.1218  0.6405
 2358TIP3   OH228632   0.947   1.190   2.004  1.0016  0.0775 -0.2669
 2358TIP3    H128633   0.966   1.280   2.029  0.5169  0.6966 -2.0085
 2358TIP3    H228634   0.962   1.187   1.909  1.3161 -1.7593 -0.2053
 2359TIP3   OH228635   4.608   4.921   3.970 -0.4356 -0.2410  0.5477
 2359TIP3    H128636   4.538   4.903   4.034 -0.5592 -3.7761 -0.3387
 2359TIP3    H228637   4.671   4.849   3.983  0.4461 -0.0529 -2.0630
 2360TIP3   OH228638   2.913   0.669   0.836  0.4839 -0.4062  0.3628
 2360TIP3    H128639   2.915   0.574   0.829  0.9356 -0.3105 -1.3876
 2360TIP3    H228640   2.951   0.688   0.922  1.1769 -1.7655  0.3847
 2361TIP3   OH228641   4.498   3.561   0.248  0.2695 -0.0666 -0.1195
 2361TIP3    H128642   4.416   3.609   0.237  1.4366  2.5782  1.6367
 2361TIP3    H228643   4.530   3.588   0.334  2.4113 -1.9466 -0.2346
 2362TIP3   OH228644   2.440   4.564   0.667 -0.0031  0.2467 -0.6355
 2362TIP3    H128645   2.476   4.591   0.583  0.0899  0.8360 -0.4103
 2362TIP3    H228646   2.369   4.626   0.683 -0.4434 -0.2634 -0.5847
 2363TIP3   OH228647   6.029   0.661   2.901 -0.5146  0.3423 -0.5423
 2363TIP3    H128648   6.045   0.589   2.839  0.7631 -0.3233  0.5135
 2363TIP3    H228649   5.960   0.713   2.859  0.1017 -0.2278 -2.3962
 2364TIP3   OH228650   1.721   1.688   2.423  0.4049 -0.2396  0.6800
 2364TIP3    H128651   1.698   1.598   2.446  0.9115 -0.8464 -1.0037
 2364TIP3    H228652   1.641   1.738   2.440 -1.0012 -1.6093 -1.3674
 2365TIP3   OH228653   5.459   2.508   4.282  0.1690 -0.6434  0.1835
 2365TIP3    H128654   5.365   2.487   4.279 -0.4692  1.6700  1.1433
 2365TIP3    H228655   5.500   2.434   4.326 -0.9070 -2.4583 -1.6683
 2366TIP3   OH228656   6.694   4.461   1.538 -0.7905  0.3227 -0.0843
 2366TIP3    H128657   6.765   4.409   1.500 -1.9044  0.5820 -2.7851
 2366TIP3    H228658   6.636   4.396   1.579 -1.6798 -0.5809 -2.5771
 2367TIP3   OH228659   1.451   0.885   3.682  0.0942 -0.1359  0.2474
 2367TIP3    H128660   1.370   0.897   3.730  1.0480 -0.2493  1.9671
 2367TIP3    H228661   1.425   0.841   3.601 -1.4616 -0.8298  1.0832
 2368TIP3   OH228662   0.265   6.300   1.311  0.0227 -0.0851 -0.0628
 2368TIP3    H128663   0.184   6.317   1.360  1.1298 -0.5972  2.0605
 2368TIP3    H228664   0.279   6.379   1.259 -2.1224 -0.2143 -0.9503
 2369TIP3   OH228665   3.095   0.945   1.654 -0.5622 -0.0029  0.0216
 2369TIP3    H128666   3.109   0.864   1.702 -1.6866 -0.0768  0.2436
 2369TIP3    H228667   3.182   0.967   1.619  0.5033  0.4224  2.6268
 2370TIP3   OH228668   5.148   5.968   4.837 -0.0916 -0.2340  0.0689
 2370TIP3    H128669   5.159   6.055   4.873 -2.3013  1.0373 -1.9827
 2370TIP3    H228670   5.199   5.968   4.756  0.9293 -1.3442  0.6738
 2371TIP3   OH228671   2.208   3.763   2.593 -0.4019 -0.2271 -0.1290
 2371TIP3    H128672   2.184   3.671   2.586  1.3627 -0.7714  0.5078
 2371TIP3    H228673   2.304   3.763   2.591 -0.3640  1.5823  0.0765
 2372TIP3   OH228674   1.710   6.239   1.473  0.3846 -0.2407  0.3147
 2372TIP3    H128675   1.799   6.220   1.502  0.2074  0.6865  1.5459
 2372TIP3    H228676   1.654   6.198   1.538 -0.0638  0.2419  0.2450
 2373TIP3   OH228677   5.127   2.589   1.400 -0.1194 -0.6307  0.0366
 2373TIP3    H128678   5.061   2.519   1.397 -0.6022 -0.1572 -0.6761
 2373TIP3    H228679   5.207   2.548   1.369 -0.4487 -0.8178 -0.5825
 2374TIP3   OH228680   5.697   4.232   4.133 -0.1404 -0.1199 -0.0255
 2374TIP3    H128681   5.619   4.239   4.189 -0.0912  1.7279 -0.1466
 2374TIP3    H228682   5.771   4.248   4.192 -0.0891  1.8586 -0.5594
 2375TIP3   OH228683   3.881   6.713   3.021 -0.1661 -0.2788  0.0552
 2375TIP3    H128684   3.973   6.691   3.036  0.1033  0.1820 -0.8526
 2375TIP3    H228685   3.841   6.709   3.108  0.4696 -1.5386  0.3239
 2376TIP3   OH228686   3.765   5.823   4.496  0.2594 -0.3061 -0.5625
 2376TIP3    H128687   3.845   5.792   4.539  0.3875  1.5595  0.6873
 2376TIP3    H228688   3.768   5.918   4.507 -1.1365 -0.0155 -2.2989
 2377TIP3   OH228689   6.056   6.536   2.815 -0.4989  0.4376  0.0701
 2377TIP3    H128690   5.982   6.566   2.868 -0.5664  0.0936  0.1743
 2377TIP3    H228691   6.099   6.470   2.869 -0.1922  0.5454 -0.0443
 2378TIP3   OH228692   0.661   6.060   2.955  0.2669 -0.3279 -0.3269
 2378TIP3    H128693   0.600   6.134   2.956  0.7306  0.2057 -3.0661
 2378TIP3    H228694   0.737   6.090   3.005 -1.0332 -0.4406  1.8320
 2379TIP3   OH228695   1.791   6.145   3.948  0.2249  0.1064  0.2472
 2379TIP3    H128696   1.744   6.061   3.953 -2.2304  1.4139  3.8654
 2379TIP3    H228697   1.728   6.205   3.908  1.1631  0.6620 -0.4178
 2380TIP3   OH228698   2.018   4.483   1.522 -0.3246 -0.1417  0.0863
 2380TIP3    H128699   2.079   4.414   1.549  1.0258  0.8188 -0.4195
 2380TIP3    H228700   1.973   4.507   1.603 -0.0676 -0.8798  0.4641
 2381TIP3   OH228701   3.310   4.771   1.775  0.1521 -0.0451 -0.0536
 2381TIP3    H128702   3.358   4.854   1.778 -2.7091  1.7677 -0.9070
 2381TIP3    H228703   3.265   4.767   1.859  0.3388 -0.8099  0.0143
 2382TIP3   OH228704   4.299   6.367   3.759 -0.3446  0.1368 -0.5300
 2382TIP3    H128705   4.227   6.342   3.701 -0.8770  0.2808  0.0532
 2382TIP3    H228706   4.261   6.432   3.818  0.1065 -0.1908  0.1416
 2383TIP3   OH228707   0.876   5.557   4.349 -0.0801  0.0516  0.2297
 2383TIP3    H128708   0.825   5.585   4.424  0.2663  1.1926  0.0511
 2383TIP3    H228709   0.957   5.522   4.387  0.2987  1.0586  0.3909
 2384TIP3   OH228710   1.641   6.288   3.048  0.2735 -0.1803 -0.4422
 2384TIP3    H128711   1.736   6.276   3.044  0.3307 -0.3120  0.8740
 2384TIP3    H228712   1.607   6.201   3.069 -0.1778 -0.2025 -1.2197
 2385TIP3   OH228713   2.248   5.999   1.815 -0.2921 -0.1326  0.9431
 2385TIP3    H128714   2.261   5.906   1.796  0.7739 -0.2249  1.9719
 2385TIP3    H228715   2.154   6.008   1.832 -0.5798 -0.7979 -0.2504
 2386TIP3   OH228716   1.711   2.586   2.069  0.2004  0.0806  0.0187
 2386TIP3    H128717   1.745   2.552   1.986 -1.2429 -1.0527 -0.1514
 2386TIP3    H228718   1.785   2.634   2.107  1.1241 -0.0089 -1.5570
 2387TIP3   OH228719   2.701   2.734   3.557 -0.0659 -0.3778 -0.4780
 2387TIP3    H128720   2.755   2.682   3.617 -0.9880 -0.6291  0.1706
 2387TIP3    H228721   2.710   2.824   3.589 -0.1429 -0.4417 -0.2694
 2388TIP3   OH228722   4.972   4.043   1.687  0.2049 -0.6347 -0.5365
 2388TIP3    H128723   5.047   3.990   1.660  1.5544  1.5129 -1.2725
 2388TIP3    H228724   4.952   4.097   1.610 -0.2214  0.8582  0.5618
 2389TIP3   OH228725   0.972   1.062   1.249  0.5076  0.0748  0.0652
 2389TIP3    H128726   0.914   1.048   1.173  0.7338  1.1865 -0.3231
 2389TIP3    H228727   0.925   1.022   1.322 -0.2728  0.0407 -0.4368
 2390TIP3   OH228728   3.325   1.121   1.278  0.6087 -0.5236  0.1830
 2390TIP3    H128729   3.303   1.210   1.252 -0.4951 -0.8273  0.0341
 2390TIP3    H228730   3.407   1.102   1.233  1.4329  0.7889  1.0612
 2391TIP3   OH228731   4.498   5.691   1.093 -0.1106  0.3576 -0.1709
 2391TIP3    H128732   4.479   5.682   1.187 -0.0328  0.3545 -0.1555
 2391TIP3    H228733   4.443   5.764   1.065  0.0268  0.4972 -0.0771
 2392TIP3   OH228734   1.367   0.020   1.803  0.4694  0.4228  0.4899
 2392TIP3    H128735   1.424  -0.049   1.838  1.2655  1.1996  0.7885
 2392TIP3    H228736   1.329   0.061   1.881 -0.1718  0.1816  0.3053
 2393TIP3   OH228737   5.741   2.308   3.767  0.9131 -0.4196 -0.1533
 2393TIP3    H128738   5.711   2.233   3.819 -0.9154  0.1569 -0.2978
 2393TIP3    H228739   5.787   2.364   3.829  1.2506 -1.0847  0.2085
 2394TIP3   OH228740   6.836   2.252   0.083 -0.3042 -0.0058 -0.1143
 2394TIP3    H128741   6.865   2.161   0.073  0.9648  0.3589  0.1438
 2394TIP3    H228742   6.822   2.262   0.177  0.0004  0.1974 -0.0901
 2395TIP3   OH228743   3.486   1.571   1.493  0.5327  0.2397  0.1350
 2395TIP3    H128744   3.555   1.595   1.431  1.7700  1.9578  2.0631
 2395TIP3    H228745   3.461   1.653   1.536  0.3594 -0.9390  2.4843
 2396TIP3   OH228746   6.871   2.231   2.942 -0.4765 -0.1781  0.5223
 2396TIP3    H128747   6.844   2.225   3.033  0.4337 -1.2668  0.7465
 2396TIP3    H228748   6.930   2.157   2.929 -0.9842 -0.3511 -1.0989
 2397TIP3   OH228749   0.073   4.050   4.460 -0.2788 -0.3551 -0.2048
 2397TIP3    H128750   0.064   3.955   4.473 -1.2417  0.0592  2.9962
 2397TIP3    H228751   0.157   4.072   4.501 -0.7121  0.3496  0.3175
 2398TIP3   OH228752   1.002   0.523   1.540  0.9810  0.8514  0.1382
 2398TIP3    H128753   1.070   0.481   1.487  0.7007  2.2240 -1.3987
 2398TIP3    H228754   1.047   0.550   1.620  2.0050  0.8938 -0.4409
 2399TIP3   OH228755   6.602   5.971   1.639  0.0571 -0.5965 -0.4398
 2399TIP3    H128756   6.510   5.968   1.667  0.0058  0.5537 -0.4375
 2399TIP3    H228757   6.610   6.054   1.593  1.0190 -0.8638 -0.7730
 2400TIP3   OH228758   6.213   3.742   4.277  0.2559  0.0998 -0.2138
 2400TIP3    H128759   6.297   3.785   4.294  0.8656 -0.5761 -1.4442
 2400TIP3    H228760   6.225   3.652   4.308 -0.3972  0.2772  0.6098
 2401TIP3   OH228761   4.346   4.749   4.353 -0.5969  0.1090  0.6171
 2401TIP3    H128762   4.424   4.742   4.408  0.5314  1.4066 -0.7147
 2401TIP3    H228763   4.289   4.809   4.400 -0.2196  0.1784  0.9999
 2402TIP3   OH228764   2.346   0.856   2.854 -0.0292 -0.1485 -0.6895
 2402TIP3    H128765   2.347   0.896   2.941  0.9225 -0.9684 -0.3118
 2402TIP3    H228766   2.266   0.803   2.852 -0.2484  0.1726 -0.4599
 2403TIP3   OH228767   3.035   4.571   1.426  0.3115 -0.0214  0.0655
 2403TIP3    H128768   3.060   4.576   1.333 -0.6930 -0.5656 -0.2508
 2403TIP3    H228769   3.101   4.623   1.471  0.3154  0.9941 -1.0582
 2404TIP3   OH228770   0.015   4.824   0.697 -0.5341 -0.6181  0.5164
 2404TIP3    H128771  -0.060   4.780   0.737  0.0574 -2.1605  0.0126
 2404TIP3    H228772  -0.017   4.851   0.610 -0.4472 -1.5393  0.1844
 2405TIP3   OH228773   4.325   6.050   0.806 -0.5596  0.3306  0.1010
 2405TIP3    H128774   4.235   6.081   0.812  0.1466  2.2190  2.0474
 2405TIP3    H228775   4.370   6.118   0.756  0.6301  1.7306  2.8595
 2406TIP3   OH228776   3.882   5.487   0.594  0.1624  0.1586 -0.2918
 2406TIP3    H128777   3.937   5.427   0.545 -0.9377 -1.0401 -0.1253
 2406TIP3    H228778   3.811   5.432   0.629  0.5294  1.0582  2.0838
 2407TIP3   OH228779   1.405   5.559   1.513 -0.0480  0.0598  0.4452
 2407TIP3    H128780   1.324   5.589   1.471  0.0309 -0.8789 -0.4253
 2407TIP3    H228781   1.389   5.467   1.533  0.4643  0.1151  1.1596
 2408TIP3   OH228782   4.576   1.403   4.217 -0.2052  0.3589 -0.3205
 2408TIP3    H128783   4.579   1.482   4.270  1.2011  0.8321 -1.0526
 2408TIP3    H228784   4.512   1.422   4.148 -1.5717 -0.0267  0.7885
 2409TIP3   OH228785   3.339   5.382   3.621 -0.6381  0.3467 -0.2197
 2409TIP3    H128786   3.322   5.453   3.683  0.3732  0.7445 -0.3837
 2409TIP3    H228787   3.422   5.345   3.650 -1.2478 -0.9189 -0.0103
 2410TIP3   OH228788   5.160   3.269   4.065 -0.3830  0.4661 -0.3841
 2410TIP3    H128789   5.116   3.274   4.151  3.0436  1.2069  1.5042
 2410TIP3    H228790   5.115   3.335   4.012 -3.1352 -0.5771  0.4828
 2411TIP3   OH228791   2.004   2.527   0.818 -0.0155 -0.0792 -0.6063
 2411TIP3    H128792   1.998   2.580   0.897 -3.5856 -1.5816  0.3685
 2411TIP3    H228793   2.024   2.590   0.748  0.1364  1.8068  1.0440
 2412TIP3   OH228794   3.884   2.472   1.688  0.2315 -0.6405  0.1334
 2412TIP3    H128795   3.960   2.530   1.695  0.7897 -1.1403 -1.3399
 2412TIP3    H228796   3.921   2.385   1.672 -0.6326 -0.8256 -1.0128
 2413TIP3   OH228797   4.392   4.791   1.451  0.2686  0.2152 -0.4754
 2413TIP3    H128798   4.460   4.830   1.397  0.2599  0.4638 -0.3116
 2413TIP3    H228799   4.356   4.865   1.501  1.1793 -0.1985  0.8575
 2414TIP3   OH228800   0.431   2.847   4.581  0.5398 -0.2084 -0.5192
 2414TIP3    H128801   0.401   2.905   4.650 -1.8911 -1.5123 -0.3454
 2414TIP3    H228802   0.362   2.850   4.515  0.9830 -1.8375 -1.1207
 2415TIP3   OH228803   6.359   5.299   2.802  0.1783 -0.0904  0.6768
 2415TIP3    H128804   6.346   5.394   2.808 -1.2572 -0.1482 -0.9210
 2415TIP3    H228805   6.272   5.262   2.818  0.4265 -1.0632 -0.1453
 2416TIP3   OH228806   3.624   4.529   1.210 -0.1834  0.5159  0.2889
 2416TIP3    H128807   3.584   4.450   1.174 -0.2301  0.7543 -0.1866
 2416TIP3    H228808   3.598   4.529   1.302  0.3187 -0.3425  0.4480
 2417TIP3   OH228809   2.235   3.523   0.207  0.2043  0.4048 -0.0125
 2417TIP3    H128810   2.166   3.575   0.165 -0.4802 -1.5844 -1.4667
 2417TIP3    H228811   2.200   3.501   0.293 -0.9229 -0.3980 -0.6541
 2418TIP3   OH228812   2.906   2.358   3.255 -0.2799 -0.2856 -0.3885
 2418TIP3    H128813   2.975   2.357   3.188  1.1499 -0.2015  1.0171
 2418TIP3    H228814   2.837   2.411   3.217  2.1311  3.2952 -0.2925
 2419TIP3   OH228815   6.395   3.088   1.873  0.1216 -0.2515 -0.2595
 2419TIP3    H128816   6.459   3.086   1.801  0.6718  0.7915  0.1754
 2419TIP3    H228817   6.321   3.138   1.838  0.8720  1.2916  0.2337
 2420TIP3   OH228818   4.917   6.638   3.978 -0.5650 -0.8732  0.1808
 2420TIP3    H128819   4.999   6.685   3.961 -0.8390 -1.4871 -4.0028
 2420TIP3    H228820   4.849   6.696   3.943 -1.7466 -1.3264  1.6302
 2421TIP3   OH228821   1.310   4.313   4.896 -0.3514  0.1188 -0.5353
 2421TIP3    H128822   1.379   4.336   4.834  0.7552  0.5852  0.8192
 2421TIP3    H228823   1.353   4.256   4.960 -1.5424 -0.6094 -0.3474
 2422TIP3   OH228824   6.006   5.791   3.902 -0.4594 -0.3907 -0.4810
 2422TIP3    H128825   6.058   5.736   3.960  1.1898 -0.6888 -2.1406
 2422TIP3    H228826   6.029   5.881   3.927 -1.4907 -0.4537  0.7807
 2423TIP3   OH228827   1.614   0.470   2.925  0.3338  0.2925 -0.2580
 2423TIP3    H128828   1.628   0.495   2.834 -1.9038  0.6010 -0.5711
 2423TIP3    H228829   1.559   0.539   2.962 -0.5840 -0.9049  0.7044
 2424TIP3   OH228830   4.128   4.369   1.716  0.1924  0.0736  0.4654
 2424TIP3    H128831   4.187   4.438   1.747 -0.8020  1.0909  0.1937
 2424TIP3    H228832   4.075   4.347   1.793  0.6410 -0.5194  0.5998
 2425TIP3   OH228833   0.488   2.414   2.817 -0.0225 -0.1250 -0.0844
 2425TIP3    H128834   0.567   2.459   2.786 -0.6291  0.7421 -0.4242
 2425TIP3    H228835   0.497   2.325   2.784  0.5701  0.1001 -0.5568
 2426TIP3   OH228836   2.263   6.719   3.822  0.7406  0.0765 -0.3522
 2426TIP3    H128837   2.189   6.746   3.877  2.5781  1.0120  1.7922
 2426TIP3    H228838   2.280   6.795   3.766  0.1347 -0.1300 -0.8303
 2427TIP3   OH228839   0.421   3.729   3.070  0.2407  0.2315  0.2539
 2427TIP3    H128840   0.483   3.734   2.997  1.4995 -0.7996  1.1993
 2427TIP3    H228841   0.390   3.819   3.081  0.8709  0.6040 -0.8372
 2428TIP3   OH228842   0.154   4.249   0.967  0.1210 -0.5031 -0.1936
 2428TIP3    H128843   0.241   4.241   0.929  0.7243  1.4604  0.6363
 2428TIP3    H228844   0.106   4.306   0.907 -0.1861 -0.5663 -0.0122
 2429TIP3   OH228845   0.517   1.540   1.915  0.1136  0.3241  0.4735
 2429TIP3    H128846   0.559   1.458   1.889 -0.7369  0.0147  0.0272
 2429TIP3    H228847   0.484   1.523   2.003 -0.9569 -0.1789 -0.0059
 2430TIP3   OH228848   5.907   3.602   2.583  0.6376 -0.5579 -0.2043
 2430TIP3    H128849   5.997   3.629   2.564 -0.1063  2.6925  0.3359
 2430TIP3    H228850   5.864   3.682   2.612 -2.3121 -2.1436  0.1190
 2431TIP3   OH228851   1.754   1.316   0.144 -0.2169  0.2429  0.3506
 2431TIP3    H128852   1.753   1.406   0.174 -0.7885  0.8965 -1.4803
 2431TIP3    H228853   1.840   1.305   0.103  0.0501 -0.2233  1.0119
 2432TIP3   OH228854   5.243   4.695   1.066 -0.3491  0.1207 -0.3388
 2432TIP3    H128855   5.296   4.775   1.064 -1.8631  1.3474  2.2884
 2432TIP3    H228856   5.295   4.630   1.020  1.5350  2.2844 -1.4533
 2433TIP3   OH228857   4.553   1.100   2.868  0.1043 -0.2397 -0.1072
 2433TIP3    H128858   4.481   1.127   2.811 -0.4229  0.3104  0.7802
 2433TIP3    H228859   4.519   1.113   2.957  1.2452 -0.1027  0.3331
 2434TIP3   OH228860   1.324   1.728   4.677 -0.3429 -0.2593 -0.1117
 2434TIP3    H128861   1.342   1.634   4.670 -0.3129 -0.1737 -1.4928
 2434TIP3    H228862   1.406   1.766   4.708 -0.7444 -0.8181  1.7306
 2435TIP3   OH228863   1.672   4.517   3.685 -0.1362 -0.1027 -0.6971
 2435TIP3    H128864   1.765   4.498   3.701 -0.8652 -3.0102  0.8806
 2435TIP3    H228865   1.637   4.538   3.772 -1.6083 -2.7299 -0.5704
 2436TIP3   OH228866   5.160   4.427   1.183  0.1884 -0.5622 -0.0563
 2436TIP3    H128867   5.203   4.509   1.205 -2.5983  0.4906  2.1073
 2436TIP3    H228868   5.223   4.359   1.210  1.7642  0.8270 -0.0898
 2437TIP3   OH228869   1.710   4.821   2.217 -0.0288 -0.2351  0.1586
 2437TIP3    H128870   1.634   4.803   2.161  0.8002 -0.3034 -0.9927
 2437TIP3    H228871   1.749   4.735   2.234 -0.1092 -0.1869  0.5972
 2438TIP3   OH228872   5.642   5.374   3.362 -0.0277 -0.6034  0.1697
 2438TIP3    H128873   5.660   5.335   3.447 -2.8997 -0.6702  0.8498
 2438TIP3    H228874   5.624   5.299   3.305 -0.4505 -0.4905  0.1474
 2439TIP3   OH228875   0.140   6.751   0.128  0.0422 -0.4646  0.9605
 2439TIP3    H128876   0.097   6.666   0.121  0.0013 -0.3185 -0.9252
 2439TIP3    H228877   0.233   6.732   0.121  0.1228 -0.4682  1.9083
 2440TIP3   OH228878   4.373   6.452   2.695 -0.1894  0.2564  0.1717
 2440TIP3    H128879   4.333   6.370   2.666  0.3079  0.0104  0.1652
 2440TIP3    H228880   4.311   6.520   2.669 -0.9608 -0.1754  0.8465
 2441TIP3   OH228881   3.215   3.491   1.974 -0.1047  0.3553 -0.0475
 2441TIP3    H128882   3.144   3.536   1.929  0.9623 -0.1468 -2.3875
 2441TIP3    H228883   3.236   3.416   1.917  2.8091  0.9509  0.0791
 2442TIP3   OH228884   3.586   6.777   2.070  0.4208  0.1963  0.2424
 2442TIP3    H128885   3.582   6.750   2.162 -0.1560 -0.3411  0.0634
 2442TIP3    H228886   3.513   6.732   2.028 -0.2775  1.6487 -0.1802
 2443TIP3   OH228887   3.215   2.016   0.228  0.0041 -0.0252  0.0478
 2443TIP3    H128888   3.247   1.946   0.171  0.9830 -0.6825  1.3402
 2443TIP3    H228889   3.270   2.091   0.207  1.4929 -0.7293  1.2151
 2444TIP3   OH228890   4.537   3.737   4.107 -0.1897 -0.0006 -0.1518
 2444TIP3    H128891   4.616   3.776   4.070 -1.3203  1.4671 -1.1253
 2444TIP3    H228892   4.504   3.678   4.039 -0.2240 -0.2052  0.0393
 2445TIP3   OH228893   3.297   5.194   2.792 -0.0644 -0.0384 -0.0761
 2445TIP3    H128894   3.338   5.280   2.802 -0.2192  0.0251  0.0119
 2445TIP3    H228895   3.209   5.205   2.828  0.1166 -0.3940  0.4701
 2446TIP3   OH228896   0.787   5.017   2.257 -0.2952 -0.1626  0.2786
 2446TIP3    H128897   0.862   5.049   2.308 -1.9588 -0.0514  2.8209
 2446TIP3    H228898   0.746   5.095   2.222 -0.2789 -0.0767  0.4504
 2447TIP3   OH228899   4.358   3.270   2.630 -0.2794 -0.3985  0.3926
 2447TIP3    H128900   4.381   3.361   2.613 -2.8810  0.4347  0.9789
 2447TIP3    H228901   4.426   3.239   2.690  0.7091  1.1039  0.0951
 2448TIP3   OH228902   6.592   6.871   3.963  0.0138 -0.4750  0.4171
 2448TIP3    H128903   6.663   6.817   3.997  0.2997 -1.3841 -1.4827
 2448TIP3    H228904   6.635   6.939   3.912 -0.4328  0.1395  0.8401
 2449TIP3   OH228905   0.027   3.198   8.303 -0.1910 -0.1242 -0.0012
 2449TIP3    H128906  -0.019   3.218   8.384 -0.3727  0.0654 -0.1495
 2449TIP3    H228907  -0.021   3.246   8.235  2.4507  3.2913  0.3051
 2450TIP3   OH228908   5.053   4.949   2.518 -0.3325 -0.2573 -0.0444
 2450TIP3    H128909   5.035   5.038   2.488  1.7087  0.6722  1.2485
 2450TIP3    H228910   5.133   4.957   2.571  2.4581 -3.4548 -3.2063
 2451TIP3   OH228911   0.907   1.657   2.594  0.7397 -0.1092 -0.0279
 2451TIP3    H128912   0.944   1.569   2.592  1.3366  0.0201  2.2577
 2451TIP3    H228913   0.968   1.708   2.647 -0.5853  1.1791  0.3338
 2452TIP3   OH228914   0.586   2.877   3.461  0.3420  0.4397  0.5347
 2452TIP3    H128915   0.584   2.813   3.390  0.6578 -0.3655  1.2288
 2452TIP3    H228916   0.555   2.958   3.421  2.7468  0.6399 -1.1361
 2453TIP3   OH228917   0.157   3.259   0.155  0.3762  0.3468 -0.5247
 2453TIP3    H128918   0.202   3.222   0.080  0.3459 -1.4280  0.2852
 2453TIP3    H228919   0.065   3.258   0.131  0.3594 -0.2898 -0.4519
 2454TIP3   OH228920   6.101   5.648   3.318 -0.1578  0.2158 -0.0385
 2454TIP3    H128921   6.156   5.712   3.273  1.7597 -0.7452  0.8012
 2454TIP3    H228922   6.030   5.700   3.357  1.0577  1.7731  0.1983
 2455TIP3   OH228923   2.363   1.300   1.969 -0.1623 -0.8617  0.0335
 2455TIP3    H128924   2.369   1.215   1.926 -0.7801 -1.3526  0.8993
 2455TIP3    H228925   2.440   1.348   1.937  1.6782 -2.6307  1.5038
 2456TIP3   OH228926   3.232   3.088   3.702 -0.0344  0.0775 -0.0674
 2456TIP3    H128927   3.327   3.102   3.705 -0.2444  2.1683 -1.4288
 2456TIP3    H228928   3.202   3.103   3.792  0.8553 -0.0772  0.2615
 2457TIP3   OH228929   5.740   0.181   1.614  0.0160  0.2552  0.0407
 2457TIP3    H128930   5.671   0.202   1.552  1.3502 -0.8191 -1.9429
 2457TIP3    H228931   5.793   0.115   1.569  1.9063  0.4980  1.7465
 2458TIP3   OH228932   6.349   0.159   2.884  0.0745 -0.0455  0.0907
 2458TIP3    H128933   6.392   0.169   2.969  2.3794 -0.0404 -1.0177
 2458TIP3    H228934   6.402   0.094   2.838 -1.5866 -0.6325 -1.0951
 2459TIP3   OH228935   6.520   5.899   4.223  0.0761 -0.4622 -0.0519
 2459TIP3    H128936   6.489   5.959   4.291  0.4915 -0.1780 -0.1090
 2459TIP3    H228937   6.582   5.842   4.268  0.6123 -0.0503 -0.2672
 2460TIP3   OH228938   0.243   6.709   2.456 -0.1053 -0.1354  0.1195
 2460TIP3    H128939   0.242   6.616   2.479 -1.5132 -0.2716 -0.4245
 2460TIP3    H228940   0.151   6.732   2.444  0.3440  0.0427 -4.8544
 2461TIP3   OH228941   2.342   6.520   0.265 -0.1207 -0.1080 -0.8350
 2461TIP3    H128942   2.415   6.486   0.214  1.2880  1.5719 -0.0370
 2461TIP3    H228943   2.376   6.526   0.354 -1.5618 -0.2027 -0.2592
 2462TIP3   OH228944   4.738   0.510   1.235  0.0253 -0.2597 -0.0917
 2462TIP3    H128945   4.696   0.500   1.320  0.0539 -0.7082 -0.1283
 2462TIP3    H228946   4.714   0.431   1.187  2.7107 -1.6292  0.6622
 2463TIP3   OH228947   5.430   4.326   4.167  0.1645  0.2935  0.3646
 2463TIP3    H128948   5.394   4.411   4.143  1.1672  0.4790 -0.6087
 2463TIP3    H228949   5.488   4.304   4.094  1.9379 -0.0113  1.7901
 2464TIP3   OH228950   2.024   1.751   2.820 -0.1867  0.3539  0.1854
 2464TIP3    H128951   1.935   1.728   2.848 -0.0772 -0.3050  0.0128
 2464TIP3    H228952   2.069   1.774   2.902  0.4651 -2.7089  0.8123
 2465TIP3   OH228953   3.799   3.310   2.906 -0.0516  0.7041  0.7634
 2465TIP3    H128954   3.865   3.306   2.837 -0.0103  1.6631  0.7315
 2465TIP3    H228955   3.720   3.272   2.867  0.5005 -0.5497  0.8372
 2466TIP3   OH228956   5.259   0.085   2.213  0.6413 -0.0867  0.3846
 2466TIP3    H128957   5.232   0.166   2.168 -2.2102 -0.5708  1.0290
 2466TIP3    H228958   5.344   0.063   2.173  0.5163  2.0757 -1.2951
 2467TIP3   OH228959   2.050   4.272   4.591 -0.3120  0.1407  0.3133
 2467TIP3    H128960   1.955   4.287   4.593 -0.2213  0.6406  1.2577
 2467TIP3    H228961   2.059   4.182   4.559 -1.1266 -0.0880  0.6994
 2468TIP3   OH228962   3.322   1.180   0.244 -0.2902 -0.5080  0.6649
 2468TIP3    H128963   3.228   1.202   0.243 -0.4591 -1.1825 -0.0315
 2468TIP3    H228964   3.340   1.152   0.154  0.6152 -0.2791  0.7657
 2469TIP3   OH228965   4.032   0.901   2.788 -0.2478  0.1009 -0.1247
 2469TIP3    H128966   4.009   0.973   2.729  0.7739  0.2992 -0.2984
 2469TIP3    H228967   4.000   0.823   2.744 -1.7907  0.4601  0.2825
 2470TIP3   OH228968   5.314   2.636   2.978 -0.1593  0.0735  0.0952
 2470TIP3    H128969   5.267   2.719   2.990 -0.9780 -0.6856  2.8073
 2470TIP3    H228970   5.268   2.574   3.034  0.7553 -2.1488 -1.4573
 2471TIP3   OH228971   0.253   2.101   0.696 -0.1419  1.0276 -0.5006
 2471TIP3    H128972   0.336   2.086   0.651  0.7629  1.3381  1.0089
 2471TIP3    H228973   0.265   2.063   0.783 -2.8217 -2.1656 -1.2911
 2472TIP3   OH228974   5.703   0.558   2.816  0.4332 -0.0400  0.4247
 2472TIP3    H128975   5.609   0.563   2.796  0.5969  2.1182 -0.0415
 2472TIP3    H228976   5.744   0.533   2.733  0.3333 -0.1500  0.4091
 2473TIP3   OH228977   0.959   2.277   4.276  0.3708 -0.2534  0.3834
 2473TIP3    H128978   0.880   2.223   4.273  1.1773 -1.9195  3.6284
 2473TIP3    H228979   1.031   2.213   4.274  1.5570  1.0573 -0.2236
 2474TIP3   OH228980   6.092   1.717   2.990 -0.8213  0.0881  0.4677
 2474TIP3    H128981   6.145   1.707   2.911 -1.3492 -3.0888  0.3640
 2474TIP3    H228982   6.140   1.669   3.057 -2.8453 -1.7832  0.6944
 2475TIP3   OH228983   2.590   0.233   1.559  0.2332  0.2125  0.3621
 2475TIP3    H128984   2.656   0.302   1.552 -0.0965  0.3619 -3.0432
 2475TIP3    H228985   2.514   0.276   1.596  0.5723  1.2716 -0.1426
 2476TIP3   OH228986   6.135   1.463   1.332 -0.2353  0.1809  0.3788
 2476TIP3    H128987   6.101   1.463   1.243  0.7326 -1.1901 -0.0373
 2476TIP3    H228988   6.117   1.374   1.364  1.5354 -0.1209  0.6523
 2477TIP3   OH228989   0.937   0.487   2.780  0.5374  0.1665  0.1716
 2477TIP3    H128990   0.934   0.397   2.748  2.1167  0.2276 -0.2075
 2477TIP3    H228991   0.933   0.479   2.875  0.4730 -0.2854  0.1317
 2478TIP3   OH228992   4.494   0.001   4.450 -0.5294 -0.6308 -0.7239
 2478TIP3    H128993   4.405   0.004   4.483  0.0455 -0.7619  0.8953
 2478TIP3    H228994   4.549  -0.012   4.527  1.2011  2.8536 -1.1385
 2479TIP3   OH228995   3.750   5.442   2.764 -0.5181 -0.4476 -0.5738
 2479TIP3    H128996   3.697   5.364   2.745  0.5564 -1.4954  0.5327
 2479TIP3    H228997   3.686   5.509   2.786 -1.5290 -0.6872 -2.5320
 2480TIP3   OH228998   3.445   2.864   0.289  0.4666 -0.0565 -0.0084
 2480TIP3    H128999   3.462   2.836   0.199  0.7301  1.1729 -0.3632
 2480TIP3    H229000   3.352   2.849   0.302 -0.2703  2.4828 -1.5578
 2481TIP3   OH229001   0.986   0.691   0.844  0.3041 -0.0962  0.4120
 2481TIP3    H129002   0.927   0.652   0.908  1.3607 -0.3173  1.2618
 2481TIP3    H229003   0.936   0.764   0.806 -0.4335 -0.1514  1.2639
 2482TIP3   OH229004   1.508   2.616   0.699  0.2206  0.2757  0.0984
 2482TIP3    H129005   1.590   2.665   0.712  0.6629 -0.5380  0.5052
 2482TIP3    H229006   1.523   2.534   0.745  0.5392 -1.4058 -2.8079
 2483TIP3   OH229007   6.232   0.908   4.009  0.6091 -0.4967  0.1235
 2483TIP3    H129008   6.186   0.886   4.089  0.1354  0.0509  0.0114
 2483TIP3    H229009   6.165   0.949   3.953  0.5714 -2.1232 -1.1090
 2484TIP3   OH229010   0.943   0.511   0.629 -0.1819  0.2360  0.2759
 2484TIP3    H129011   0.964   0.583   0.688 -0.4748  1.7318 -1.3518
 2484TIP3    H229012   0.977   0.433   0.673 -1.0919  1.1357  2.7614
 2485TIP3   OH229013   5.025   5.606   2.459 -0.0645  0.0856 -0.2255
 2485TIP3    H129014   4.965   5.532   2.448 -0.9084  0.4237  1.6232
 2485TIP3    H229015   5.058   5.624   2.371 -0.4531 -1.9623 -0.8417
 2486TIP3   OH229016   4.292   4.968   2.983 -0.2159 -0.3928  0.1088
 2486TIP3    H129017   4.233   5.039   2.959 -1.7244 -0.9329  2.0389
 2486TIP3    H229018   4.239   4.889   2.978  1.1004 -1.2703 -0.7651
 2487TIP3   OH229019   0.864   6.157   3.150  0.2633  0.2621  0.2269
 2487TIP3    H129020   0.778   6.198   3.162  0.0645  0.4678 -1.6217
 2487TIP3    H229021   0.869   6.093   3.220 -1.3819  0.2839  0.4169
 2488TIP3   OH229022   1.596   6.666   1.474  0.6790 -0.3896 -0.4735
 2488TIP3    H129023   1.643   6.594   1.433 -0.1539 -1.2465  0.0351
 2488TIP3    H229024   1.643   6.681   1.556  2.1923  1.1579 -1.5487
 2489TIP3   OH229025   5.052   4.822   2.805 -0.6369 -0.3443 -0.5516
 2489TIP3    H129026   5.068   4.825   2.900 -2.1273 -1.6494 -0.2209
 2489TIP3    H229027   5.121   4.876   2.768  1.3053 -1.4989  1.1352
 2490TIP3   OH229028   0.335   6.812   4.287 -0.6720  0.1763  0.3471
 2490TIP3    H129029   0.336   6.741   4.351 -2.5936  1.0398  1.4001
 2490TIP3    H229030   0.333   6.892   4.339 -2.4192  0.9051 -0.7327
 2491TIP3   OH229031   2.991   6.196   1.337  0.2989 -0.0662 -0.3030
 2491TIP3    H129032   2.896   6.206   1.342  0.6178  4.3297  1.3102
 2491TIP3    H229033   3.015   6.241   1.256  1.0403 -1.0389 -0.6367
 2492TIP3   OH229034   4.704   5.435   1.281  0.6686  0.5569  0.2047
 2492TIP3    H129035   4.621   5.440   1.328  1.0587  0.7722  0.9002
 2492TIP3    H229036   4.744   5.354   1.313 -0.4022 -1.0043 -2.1013
 2493TIP3   OH229037   6.387   4.040   2.140 -0.1179  0.6082 -0.2449
 2493TIP3    H129038   6.442   3.973   2.099 -1.1143 -0.5988  0.3238
 2493TIP3    H229039   6.449   4.100   2.181  0.7916 -0.5449  0.1356
 2494TIP3   OH229040   4.583   3.344   1.737  0.6353  0.2996 -0.2841
 2494TIP3    H129041   4.603   3.258   1.699  0.1574 -0.4597  1.0799
 2494TIP3    H229042   4.583   3.404   1.663  1.6860 -0.7563 -1.1769
 2495TIP3   OH229043   0.280   5.540   4.930 -0.7626 -0.1517  0.6067
 2495TIP3    H129044   0.200   5.591   4.915 -1.7184 -1.3160  1.5466
 2495TIP3    H229045   0.258   5.452   4.900  0.2749 -0.4260  0.6255
 2496TIP3   OH229046   0.554   1.686   3.684 -0.6740 -0.0255 -0.4132
 2496TIP3    H129047   0.500   1.757   3.650  1.2379  0.8514 -1.7712
 2496TIP3    H229048   0.588   1.642   3.606  2.2287  0.7730  0.2947
 2497TIP3   OH229049   5.355   3.346   0.625 -0.7289 -0.0231 -0.0874
 2497TIP3    H129050   5.436   3.338   0.576 -0.5863  0.9303 -0.0312
 2497TIP3    H229051   5.320   3.257   0.630  0.9126 -0.6574  0.9316
 2498TIP3   OH229052   5.041   0.069   2.963  0.6633 -0.0272 -0.3035
 2498TIP3    H129053   5.126   0.054   3.005  1.7310 -1.2100 -2.6782
 2498TIP3    H229054   5.061   0.127   2.890 -0.6456 -0.0093 -0.6721
 2499TIP3   OH229055   5.024   6.139   4.106  0.0266  0.5208 -0.1708
 2499TIP3    H129056   5.072   6.218   4.083 -1.0058  0.8282 -1.3872
 2499TIP3    H229057   4.932   6.165   4.099 -0.3447 -0.2027  1.5218
 2500TIP3   OH229058   1.785   6.258   3.565  0.0710 -0.7224 -0.1866
 2500TIP3    H129059   1.777   6.335   3.509 -2.7537 -1.4218 -0.9365
 2500TIP3    H229060   1.729   6.277   3.640  1.6789 -0.8969  1.1119
 2501TIP3   OH229061   0.199   0.276   1.723 -0.3857  0.1181  0.1421
 2501TIP3    H129062   0.112   0.304   1.694  0.9170  0.5224 -4.0208
 2501TIP3    H229063   0.211   0.189   1.685  0.9727  0.0370  0.6912
 2502TIP3   OH229064   3.312   2.129   3.216 -0.6773 -0.1800  0.4673
 2502TIP3    H129065   3.330   2.213   3.258  0.0272  0.2382 -0.6118
 2502TIP3    H229066   3.317   2.065   3.287  0.5326  0.4876  1.0194
 2503TIP3   OH229067   6.338   1.407   2.026 -0.4059 -0.1190  0.0147
 2503TIP3    H129068   6.330   1.328   2.079  1.7200 -0.9874 -0.8358
 2503TIP3    H229069   6.292   1.475   2.075  1.6209 -0.7989  3.1152
 2504TIP3   OH229070   3.701   2.561   1.895  0.4268 -0.2354  0.1262
 2504TIP3    H129071   3.682   2.642   1.846  0.7224 -0.0644  0.2910
 2504TIP3    H229072   3.752   2.508   1.834  0.1406 -0.3474 -0.0210
 2505TIP3   OH229073   4.458   6.875   0.919 -0.1383 -0.9200 -0.2782
 2505TIP3    H129074   4.543   6.858   0.877 -0.4006  1.0355 -1.7314
 2505TIP3    H229075   4.456   6.970   0.931 -1.8344 -1.0065  0.3898
 2506TIP3   OH229076   6.603   6.627   0.764 -0.3594  0.7776 -0.7833
 2506TIP3    H129077   6.537   6.569   0.801  0.1828  0.4949 -0.2584
 2506TIP3    H229078   6.653   6.571   0.705  0.4784  0.5815  0.0967
 2507TIP3   OH229079   6.840   2.613   3.492  0.2677 -0.5944 -0.7367
 2507TIP3    H129080   6.831   2.554   3.418  0.1126  0.6730 -1.7618
 2507TIP3    H229081   6.836   2.701   3.454  3.1038  0.1315  0.3910
 2508TIP3   OH229082   6.205   2.743   1.436 -0.0663  0.4639  0.1163
 2508TIP3    H129083   6.161   2.756   1.520  0.3161  0.9632  0.2341
 2508TIP3    H229084   6.133   2.737   1.372 -0.2843  2.5524  0.1265
 2509TIP3   OH229085   6.583   4.326   3.569 -0.3338  0.5609 -0.3287
 2509TIP3    H129086   6.634   4.284   3.639 -1.4626 -1.7113 -0.7810
 2509TIP3    H229087   6.521   4.383   3.615  0.3239  0.7311  0.3782
 2510TIP3   OH229088   6.315   0.904   1.897  0.2386 -0.0677  0.2573
 2510TIP3    H129089   6.347   0.847   1.827  2.7203  1.4902 -0.0036
 2510TIP3    H229090   6.260   0.846   1.951 -0.0329 -1.8299 -1.7695
 2511TIP3   OH229091   3.759   3.212   0.456  0.9701  0.3141 -0.6415
 2511TIP3    H129092   3.816   3.272   0.505  1.1300 -0.0666 -0.3550
 2511TIP3    H229093   3.715   3.267   0.392  0.0923  0.9750  0.5062
 2512TIP3   OH229094   2.252   6.200   2.957  0.2566 -0.7444 -0.3488
 2512TIP3    H129095   2.299   6.144   2.895  1.3371 -0.7243  0.4234
 2512TIP3    H229096   2.170   6.153   2.974  1.7597 -2.9257  1.4170
 2513TIP3   OH229097   2.528   2.419   1.900 -0.0337  0.4693  0.1698
 2513TIP3    H129098   2.580   2.400   1.978 -0.1209  2.5942  0.8143
 2513TIP3    H229099   2.491   2.334   1.874  3.4483 -1.1207 -0.1635
 2514TIP3   OH229100   5.370   3.621   2.650 -0.0339 -0.0242  0.2242
 2514TIP3    H129101   5.349   3.713   2.634  0.2987  0.0781  0.3612
 2514TIP3    H229102   5.405   3.589   2.567  1.6472  0.4919  0.6945
 2515TIP3   OH229103   4.389   4.934   3.461  0.5839  0.1990  0.5045
 2515TIP3    H129104   4.405   4.848   3.500  0.2020 -0.3723 -0.5365
 2515TIP3    H229105   4.294   4.947   3.469  0.6367  0.5090  0.6374
 2516TIP3   OH229106   2.442   2.339   3.220  0.7396 -0.1851 -0.0232
 2516TIP3    H129107   2.479   2.427   3.211 -0.9682  0.4516 -1.7853
 2516TIP3    H229108   2.517   2.280   3.212  1.9705  1.0757  1.5148
 2517TIP3   OH229109   4.560   3.901   1.790 -0.0483  0.5530  0.7256
 2517TIP3    H129110   4.537   3.992   1.810 -0.9260  0.6423 -0.5419
 2517TIP3    H229111   4.477   3.854   1.794  0.1406  0.1151 -0.1174
 2518TIP3   OH229112   6.041   6.443   0.771 -0.0534 -0.0028 -0.3590
 2518TIP3    H129113   6.056   6.492   0.852  2.1399 -1.6533  0.3267
 2518TIP3    H229114   6.047   6.351   0.796 -0.1585 -0.5836 -2.2591
 2519TIP3   OH229115   6.418   2.212   0.601  0.0860 -0.4006  0.4637
 2519TIP3    H129116   6.371   2.286   0.640  0.9040 -0.5399  1.7651
 2519TIP3    H229117   6.438   2.154   0.674  2.4536 -0.2401  0.0297
 2520TIP3   OH229118   1.339   5.928   3.874  0.8716 -0.2961  0.1311
 2520TIP3    H129119   1.398   5.855   3.894  4.3900  1.9358 -1.2716
 2520TIP3    H229120   1.338   5.933   3.778 -0.5214  0.6136  0.1595
 2521TIP3   OH229121   0.708   3.737   1.530 -0.6278  0.0253  0.5235
 2521TIP3    H129122   0.756   3.811   1.568  0.6830 -0.2753 -0.4705
 2521TIP3    H229123   0.706   3.756   1.436 -1.8593 -0.3361  0.4630
 2522TIP3   OH229124   0.142   4.887   1.618  0.1041  0.1761 -0.1517
 2522TIP3    H129125   0.119   4.961   1.562 -1.0856 -0.4036 -0.4779
 2522TIP3    H229126   0.136   4.810   1.560  1.4170 -0.1824  0.1506
 2523TIP3   OH229127   4.830   5.848   4.318  0.6258  0.1571  0.4091
 2523TIP3    H129128   4.847   5.909   4.390 -1.5268  0.5941  0.6368
 2523TIP3    H229129   4.743   5.812   4.338 -0.0107  0.2611 -1.9178
 2524TIP3   OH229130   4.589   5.696   2.231 -0.7703  0.7884  0.2601
 2524TIP3    H129131   4.631   5.782   2.233  1.0719 -0.0311 -0.6603
 2524TIP3    H229132   4.496   5.715   2.224 -0.3857  2.7140 -0.2415
 2525TIP3   OH229133   2.206   1.732   1.482  0.1580  0.2534  0.7650
 2525TIP3    H129134   2.214   1.718   1.576  1.4543  0.6030  0.7232
 2525TIP3    H229135   2.238   1.651   1.443  0.4870  0.4506  0.6202
 2526TIP3   OH229136   0.079   1.181   0.730 -0.2282  0.6927  0.3916
 2526TIP3    H129137   0.126   1.097   0.730 -1.4892 -0.0843 -1.5483
 2526TIP3    H229138   0.072   1.205   0.637 -0.9554  2.3506  0.8310
 2527TIP3   OH229139   6.213   2.488   3.478 -0.3856  0.3665  0.0516
 2527TIP3    H129140   6.253   2.522   3.397  1.3472  2.5490  1.6921
 2527TIP3    H229141   6.120   2.508   3.468 -0.0566  1.5357 -1.0038
 2528TIP3   OH229142   1.969   0.309   1.471 -0.3152 -0.0372 -0.1979
 2528TIP3    H129143   2.016   0.348   1.397  0.0611 -0.1679 -0.0337
 2528TIP3    H229144   1.934   0.383   1.519  0.0196  0.0831 -0.1341
 2529TIP3   OH229145   2.989   6.365   4.076 -0.4079  0.2574 -0.2054
 2529TIP3    H129146   2.930   6.395   4.144  0.5369 -1.8230  1.6386
 2529TIP3    H229147   2.934   6.354   3.999 -1.8598  0.9466  0.6948
 2530TIP3   OH229148   0.180   2.248   3.315  0.0778 -0.4953 -0.5696
 2530TIP3    H129149   0.179   2.175   3.253 -0.9180  0.0139 -1.1814
 2530TIP3    H229150   0.167   2.326   3.260  2.3131  0.2884 -0.0752
 2531TIP3   OH229151   2.308   3.319   2.737  1.0339 -0.1939 -0.3570
 2531TIP3    H129152   2.261   3.240   2.708  1.2098 -1.3333  2.2289
 2531TIP3    H229153   2.364   3.341   2.662  1.0999 -2.6249 -1.1201
 2532TIP3   OH229154   2.349   3.368   3.001  0.3208 -0.4502  0.2104
 2532TIP3    H129155   2.325   3.362   2.909  0.6549 -0.7162  0.1371
 2532TIP3    H229156   2.278   3.325   3.048  1.2465 -2.4294 -0.0943
 2533TIP3   OH229157   5.092   0.420   2.478  1.0627 -0.0626 -0.2009
 2533TIP3    H129158   5.031   0.478   2.523  0.9167  0.0209 -0.5047
 2533TIP3    H229159   5.176   0.433   2.523  1.3576  1.3743 -1.1066
 2534TIP3   OH229160   3.387   1.243   4.302 -0.1945  0.6068  0.8430
 2534TIP3    H129161   3.448   1.208   4.366 -0.9576  1.7132  2.2237
 2534TIP3    H229162   3.407   1.337   4.298 -0.4270  0.6273 -0.2628
 2535TIP3   OH229163   5.407   3.480   2.395 -0.2848 -0.0892  0.0545
 2535TIP3    H129164   5.438   3.395   2.425 -0.9833  0.3802  2.2505
 2535TIP3    H229165   5.488   3.529   2.375  0.3461  0.0606  2.6681
 2536TIP3   OH229166   2.685   2.692   1.695 -0.5185 -0.5022 -0.3825
 2536TIP3    H129167   2.615   2.731   1.642  0.3891  1.6083 -0.1139
 2536TIP3    H229168   2.740   2.766   1.721  0.3237 -1.7666  1.6521
 2537TIP3   OH229169   4.858   1.944   2.117 -0.4162 -0.3375 -0.1849
 2537TIP3    H129170   4.811   2.004   2.060  1.2122  1.0785 -0.1108
 2537TIP3    H229171   4.800   1.933   2.193 -0.2870  2.1382  0.3546
 2538TIP3   OH229172   4.039   1.286   1.206 -0.4624 -0.2101  0.4015
 2538TIP3    H129173   4.069   1.261   1.294  1.2946 -0.0373 -0.1244
 2538TIP3    H229174   4.034   1.203   1.159  2.8724 -0.0106 -0.5747
 2539TIP3   OH229175   5.260   5.121   1.147 -0.4414  0.6367 -0.0948
 2539TIP3    H129176   5.350   5.136   1.120 -0.4340  0.9449  0.1049
 2539TIP3    H229177   5.220   5.208   1.149 -0.5091  0.5921  0.6464
 2540TIP3   OH229178   2.290   4.723   1.570 -0.4485  0.0109  0.5482
 2540TIP3    H129179   2.237   4.653   1.533 -0.7083  0.8580 -0.7544
 2540TIP3    H229180   2.269   4.800   1.516 -1.2712  1.4750  2.7962
 2541TIP3   OH229181   6.065   2.673   3.647 -0.2965  0.3077 -0.3901
 2541TIP3    H129182   6.080   2.582   3.670  0.1298  0.2411 -0.9133
 2541TIP3    H229183   5.997   2.670   3.579  0.2621  0.3148 -0.9636
 2542TIP3   OH229184   5.240   2.069   4.542 -0.3509 -0.3044  0.0477
 2542TIP3    H129185   5.283   2.034   4.620  0.1071  0.8196  0.3155
 2542TIP3    H229186   5.307   2.062   4.474  1.0104  3.0581  0.8504
 2543TIP3   OH229187   4.146   2.397   1.875  0.6753  0.1809 -0.4778
 2543TIP3    H129188   4.200   2.390   1.796  0.8123  1.9566 -0.5694
 2543TIP3    H229189   4.190   2.461   1.929 -0.6014  0.6357  0.0664
 2544TIP3   OH229190   6.616   3.589   3.705  0.2794 -0.2601 -0.3467
 2544TIP3    H129191   6.682   3.540   3.755  0.2505 -0.2257 -0.2754
 2544TIP3    H229192   6.555   3.521   3.674 -0.1608 -0.1946  0.3526
 2545TIP3   OH229193   5.866   2.822   2.847  0.4589  0.0999 -0.0464
 2545TIP3    H129194   5.884   2.770   2.769 -1.0358  0.6338 -0.7879
 2545TIP3    H229195   5.890   2.765   2.920 -1.6828 -1.9539 -0.7875
 2546TIP3   OH229196   0.765   0.544   2.171  0.3094 -0.0077  0.3526
 2546TIP3    H129197   0.728   0.458   2.152 -0.2196  0.1757  0.5294
 2546TIP3    H229198   0.852   0.526   2.205  1.8324 -0.3310 -3.2885
 2547TIP3   OH229199   1.192   4.309   1.101 -0.5937 -0.3254 -0.0995
 2547TIP3    H129200   1.147   4.284   1.020  1.0503 -1.3552 -0.7262
 2547TIP3    H229201   1.285   4.301   1.081 -0.0801  1.6152  1.2032
 2548TIP3   OH229202   6.624   3.783   1.226 -0.1523  0.2922  0.1036
 2548TIP3    H129203   6.663   3.870   1.220  0.2432  0.1762  0.8625
 2548TIP3    H229204   6.695   3.726   1.255  0.0700 -0.6615 -2.0792
 2549TIP3   OH229205   2.305   2.462   0.848 -0.0959 -0.5168 -0.0788
 2549TIP3    H129206   2.265   2.393   0.902 -0.6056  0.4945  0.8781
 2549TIP3    H229207   2.316   2.536   0.908 -0.3120  0.5166 -1.2744
 2550TIP3   OH229208   5.814   1.883   2.211 -0.2039 -0.2469 -0.3207
 2550TIP3    H129209   5.718   1.892   2.210 -0.1764  0.9031 -2.8488
 2550TIP3    H229210   5.830   1.796   2.174 -0.2626 -0.7588  0.8381
 2551TIP3   OH229211   2.255   5.256   2.131  0.1128 -0.2466 -0.0808
 2551TIP3    H129212   2.344   5.226   2.116 -0.1310 -0.5439 -1.0373
 2551TIP3    H229213   2.217   5.192   2.191  0.5997  0.0065  0.5067
 2552TIP3   OH229214   0.432   4.401   0.196  0.3483 -0.1724 -0.3684
 2552TIP3    H129215   0.404   4.493   0.196  0.5282 -0.1159 -0.5612
 2552TIP3    H229216   0.507   4.399   0.256  0.3081 -0.2064 -0.3185
 2553TIP3   OH229217   5.250   3.635   2.017  0.4831  0.3400 -0.3800
 2553TIP3    H129218   5.182   3.690   2.055  0.8940 -0.1598  1.1540
 2553TIP3    H229219   5.330   3.661   2.061  0.5455 -2.1104  1.1472
 2554TIP3   OH229220   2.048   1.106   3.416  0.1778 -0.1251  0.6112
 2554TIP3    H129221   2.011   1.151   3.340 -0.5098 -0.5058  0.7131
 2554TIP3    H229222   1.988   1.128   3.488  0.4567 -0.3005  0.8989
 2555TIP3   OH229223   0.279   6.231   3.078  0.0083 -0.2451 -0.1593
 2555TIP3    H129224   0.251   6.291   3.148  0.6844 -0.8061  0.6008
 2555TIP3    H229225   0.201   6.179   3.058  0.2485 -1.2345  1.3705
 2556TIP3   OH229226   6.673   5.251   3.416 -0.1419  0.4865 -0.0128
 2556TIP3    H129227   6.704   5.295   3.495  0.5347 -0.3772  0.2207
 2556TIP3    H229228   6.713   5.164   3.420 -2.1559 -0.4859 -0.0004
 2557TIP3   OH229229   3.416   5.706   2.636  0.2383  0.1439 -0.3459
 2557TIP3    H129230   3.420   5.798   2.662  2.3649  1.4291 -4.4539
 2557TIP3    H229231   3.347   5.702   2.570 -0.2438 -1.3747  0.2036
 2558TIP3   OH229232   0.176   0.174   1.211  0.2467 -0.3483 -0.1392
 2558TIP3    H129233   0.256   0.139   1.248  0.8753 -1.2092 -2.1882
 2558TIP3    H229234   0.116   0.099   1.207 -0.4373  0.1325  0.7320
 2559TIP3   OH229235   2.128   1.913   4.132  0.4451  0.4737  0.2134
 2559TIP3    H129236   2.120   1.997   4.177  0.4293 -0.1444  1.4026
 2559TIP3    H229237   2.163   1.854   4.199  1.0704 -0.3150 -0.7850
 2560TIP3   OH229238   4.211   4.665   2.369  0.0028 -0.6291  0.0153
 2560TIP3    H129239   4.175   4.745   2.409  2.6761  0.5031  0.4228
 2560TIP3    H229240   4.250   4.618   2.443 -1.3898 -2.2892 -0.2581
 2561TIP3   OH229241   3.923   2.663   0.351  0.0400 -0.0157  0.2689
 2561TIP3    H129242   4.008   2.656   0.309 -0.5760  1.7075 -1.3848
 2561TIP3    H229243   3.896   2.753   0.336 -1.3806 -0.0688  2.1682
 2562TIP3   OH229244   0.244   3.172   0.843 -0.1135  0.5690  0.6786
 2562TIP3    H129245   0.208   3.179   0.931 -1.5143 -1.3683  0.3202
 2562TIP3    H229246   0.167   3.162   0.786  0.8320 -0.1148 -0.5374
 2563TIP3   OH229247   0.794   0.803   1.924 -0.3887  0.1841 -0.4912
 2563TIP3    H129248   0.700   0.812   1.907 -0.3325  2.9158  0.2188
 2563TIP3    H229249   0.833   0.798   1.836 -1.0438  1.6877 -0.9086
 2564TIP3   OH229250   4.422   6.365   1.517  0.3428 -0.3549 -0.1360
 2564TIP3    H129251   4.342   6.317   1.539  1.3083 -2.3473 -0.7426
 2564TIP3    H229252   4.417   6.377   1.422 -0.1148  1.2685  0.0587
 2565TIP3   OH229253   0.595   1.352   3.738 -0.0688  0.1288 -0.3406
 2565TIP3    H129254   0.518   1.389   3.695  0.5055  1.2417 -0.4456
 2565TIP3    H229255   0.577   1.259   3.745 -2.4571  0.6425  1.6997
 2566TIP3   OH229256   1.051   0.140   0.227 -0.1615  0.3732  0.0936
 2566TIP3    H129257   0.957   0.126   0.220  0.0739 -1.5656  0.2949
 2566TIP3    H229258   1.088   0.052   0.236  1.6666  1.0959  0.0876
 2567TIP3   OH229259   4.185   2.443   4.049  0.1498  0.4396  0.4069
 2567TIP3    H129260   4.155   2.422   4.137  0.4695 -2.1246  0.0005
 2567TIP3    H229261   4.108   2.475   4.004 -0.5831 -0.4707  0.9839
 2568TIP3   OH229262   3.349   0.223   2.622 -0.3507  0.2647  0.7824
 2568TIP3    H129263   3.316   0.299   2.575  0.9181 -1.8607 -4.2566
 2568TIP3    H229264   3.444   0.233   2.621 -0.0224 -1.8839 -1.5041
 2569TIP3   OH229265   0.483   2.965   2.234  0.0333 -0.9003  0.3283
 2569TIP3    H129266   0.433   2.977   2.153 -2.3753  0.1809  1.8569
 2569TIP3    H229267   0.528   3.048   2.247 -0.1456 -0.8157  0.4228
 2570TIP3   OH229268   3.625   4.558   2.041  0.4399  0.6982  0.1905
 2570TIP3    H129269   3.675   4.484   2.077  0.1578  0.7537  0.7048
 2570TIP3    H229270   3.542   4.556   2.089 -0.1288  0.5011 -0.7745
 2571TIP3   OH229271   4.551   2.379   3.172  0.1345 -0.2000  1.0376
 2571TIP3    H129272   4.541   2.311   3.237 -0.5773  0.0993  1.2518
 2571TIP3    H229273   4.637   2.363   3.133  0.1753 -0.9221  1.4142
 2572TIP3   OH229274   1.513   0.094   1.577 -0.0081  0.4347  0.1114
 2572TIP3    H129275   1.444   0.069   1.638  0.7311  0.0546  0.8029
 2572TIP3    H229276   1.469   0.097   1.492 -1.2888  2.0507  0.7807
 2573TIP3   OH229277   5.077   5.737   4.705 -0.3439 -0.3956  0.0774
 2573TIP3    H129278   5.083   5.831   4.725 -2.1519  0.0475 -1.2638
 2573TIP3    H229279   5.168   5.708   4.704  0.4012  1.7371 -1.2631
 2574TIP3   OH229280   0.812   0.004   2.340  0.7874 -0.2695 -0.4170
 2574TIP3    H129281   0.853  -0.060   2.399  0.4588 -0.4857 -0.4203
 2574TIP3    H229282   0.731   0.028   2.385  1.8696  1.7176  0.6030
 2575TIP3   OH229283   4.881   2.262   3.538 -0.2277 -0.0911 -0.3553
 2575TIP3    H129284   4.945   2.334   3.540  1.0167 -1.1518 -0.2144
 2575TIP3    H229285   4.834   2.269   3.621  0.8114 -0.2188  0.2634
 2576TIP3   OH229286   2.946   1.558   3.695 -0.1099 -0.2524 -0.1571
 2576TIP3    H129287   2.882   1.509   3.644 -2.5326  0.8632  1.6000
 2576TIP3    H229288   2.939   1.523   3.784  1.5254  0.1249  0.1602
 2577TIP3   OH229289   1.502   6.714   0.573  0.6494  0.1439  0.0676
 2577TIP3    H129290   1.563   6.761   0.516  1.4075 -0.0256  0.7352
 2577TIP3    H229291   1.431   6.687   0.515  0.9839  0.7358 -0.6283
 2578TIP3   OH229292   4.164   0.905   3.031 -0.8911  0.3642  0.3853
 2578TIP3    H129293   4.088   0.907   3.090 -0.9184 -0.1702  0.3785
 2578TIP3    H229294   4.127   0.905   2.943 -0.8684  0.5953  0.3761
 2579TIP3   OH229295   1.419   1.572   8.501 -0.3479  0.5373  0.3673
 2579TIP3    H129296   1.340   1.573   8.556 -0.8089 -1.4595 -0.1758
 2579TIP3    H229297   1.387   1.552   8.413  0.7203  0.1143  0.0583
 2580TIP3   OH229298   0.968   5.966   4.072 -0.0234  0.3674  0.3983
 2580TIP3    H129299   0.944   5.925   4.155  0.5680 -1.1865 -0.1596
 2580TIP3    H229300   1.054   6.005   4.089 -0.4851  1.2301  0.8630
 2581TIP3   OH229301   1.108   6.342   3.209  0.0740  0.5314  0.7510
 2581TIP3    H129302   1.012   6.344   3.200  0.0626  0.3673  0.8338
 2581TIP3    H229303   1.128   6.250   3.227  0.2726  0.5163  0.4585
 2582TIP3   OH229304   6.034   1.759   0.359 -0.0429 -0.4982  0.4588
 2582TIP3    H129305   6.038   1.664   0.373 -3.3815 -1.0242 -1.2086
 2582TIP3    H229306   5.989   1.793   0.437  1.6367 -0.1383  1.3134
 2583TIP3   OH229307   5.577   4.231   3.396  0.3835 -0.0922 -0.0083
 2583TIP3    H129308   5.620   4.189   3.321  2.0227 -0.3185  1.0148
 2583TIP3    H229309   5.549   4.158   3.451 -1.2460  0.0589 -0.5879
 2584TIP3   OH229310   4.726   2.385   0.137 -1.0660 -0.6674 -0.5839
 2584TIP3    H129311   4.738   2.331   0.215 -0.8650 -1.2695 -1.0250
 2584TIP3    H229312   4.648   2.350   0.095 -1.5045  0.0266 -0.3520
 2585TIP3   OH229313   1.576   0.697   1.139 -0.0599 -0.2958 -0.2694
 2585TIP3    H129314   1.589   0.786   1.171 -0.9932 -0.7162  1.3806
 2585TIP3    H229315   1.633   0.643   1.193 -0.4012 -0.8404 -0.4458
 2586TIP3   OH229316   1.869   2.960   3.719  0.3179  0.4029  0.1695
 2586TIP3    H129317   1.896   2.879   3.762  2.2118  0.0422 -1.5298
 2586TIP3    H229318   1.939   3.022   3.740 -0.5223  1.2530  0.4847
 2587TIP3   OH229319   5.513   6.371   2.985  0.0315 -0.4174 -0.2959
 2587TIP3    H129320   5.575   6.402   3.051  0.2825  1.2272 -1.2551
 2587TIP3    H229321   5.516   6.276   2.992 -0.7010 -0.3044  2.7212
 2588TIP3   OH229322   1.391   0.219   3.357 -0.1632  0.2241 -0.0600
 2588TIP3    H129323   1.462   0.282   3.347  0.6969 -0.3230  1.9926
 2588TIP3    H229324   1.411   0.150   3.294  2.1064 -0.7104  1.5697
 2589TIP3   OH229325   2.800   2.110   1.187 -0.3930 -0.6752  0.3808
 2589TIP3    H129326   2.723   2.079   1.235 -0.5934 -0.6276  0.0868
 2589TIP3    H229327   2.772   2.116   1.096  0.0198 -0.8637  0.2353
 2590TIP3   OH229328   6.565   6.452   3.802 -0.0721 -0.7266 -0.3424
 2590TIP3    H129329   6.513   6.523   3.765  0.8550  1.0167  1.5343
 2590TIP3    H229330   6.521   6.432   3.886  0.3545 -1.5747 -0.3077
 2591TIP3   OH229331   5.044   5.715   3.167  0.2145  0.3172 -0.0861
 2591TIP3    H129332   5.075   5.716   3.076 -0.7831 -1.4349 -0.4751
 2591TIP3    H229333   5.048   5.807   3.194  0.6350  0.8556 -1.8566
 2592TIP3   OH229334   1.691   3.358   4.064  0.5268 -0.3154  0.3795
 2592TIP3    H129335   1.753   3.286   4.078 -0.3610 -1.0984  0.3627
 2592TIP3    H229336   1.613   3.333   4.114  0.0487  0.4250  0.0174
 2593TIP3   OH229337   2.365   5.156   1.039  0.2492  0.3654 -0.1455
 2593TIP3    H129338   2.448   5.168   1.086 -0.1572  0.2157  0.6430
 2593TIP3    H229339   2.303   5.215   1.084 -0.2818 -0.1858 -0.1338
 2594TIP3   OH229340   1.068   3.295   2.711  0.8430 -0.0357  0.2746
 2594TIP3    H129341   1.133   3.262   2.650  0.3915 -1.0761  0.3432
 2594TIP3    H229342   1.039   3.218   2.760  0.0461  0.5196  0.6955
 2595TIP3   OH229343   3.732   2.467   3.651  0.3030  0.6513 -0.4679
 2595TIP3    H129344   3.748   2.385   3.697 -2.3573 -0.3906 -1.1755
 2595TIP3    H229345   3.667   2.513   3.705  0.7977  1.7040 -0.7402
 2596TIP3   OH229346   1.597   2.419   4.364  0.0180  0.0295  0.5262
 2596TIP3    H129347   1.620   2.510   4.384  2.0264  0.2379 -2.2364
 2596TIP3    H229348   1.663   2.367   4.411  0.3423  0.1381  0.1954
 2597TIP3   OH229349   4.077   4.080   4.455 -0.2312  0.4077 -0.0502
 2597TIP3    H129350   4.118   4.018   4.396 -1.5264  0.3980 -0.9831
 2597TIP3    H229351   4.068   4.160   4.403  2.4746  1.8645  1.4742
 2598TIP3   OH229352   1.803   2.703   2.526 -0.3154 -0.7283  0.3391
 2598TIP3    H129353   1.834   2.722   2.615  1.0487 -2.5707  0.3320
 2598TIP3    H229354   1.870   2.643   2.491  0.8037  2.2006 -3.0203
 2599TIP3   OH229355   4.510   3.785   1.539 -0.3227 -0.2281  0.7180
 2599TIP3    H129356   4.593   3.829   1.523 -0.8531  0.5857  0.0913
 2599TIP3    H229357   4.456   3.851   1.584  0.2928 -1.6493  3.8271
 2600TIP3   OH229358   1.467   4.366   4.117  0.9416 -0.3629  0.0309
 2600TIP3    H129359   1.547   4.314   4.112  0.4249 -1.3255  1.1821
 2600TIP3    H229360   1.494   4.446   4.161  1.5150 -0.1295 -0.7224
 2601TIP3   OH229361   0.355   0.741   2.366 -0.1927  0.1276 -0.8784
 2601TIP3    H129362   0.408   0.664   2.347 -0.1344  0.0601 -0.4506
 2601TIP3    H229363   0.292   0.746   2.294  0.0990 -0.0565 -1.1439
 2602TIP3   OH229364   2.025   6.033   0.210  0.5962  0.5034  0.5925
 2602TIP3    H129365   1.984   5.948   0.219 -0.5522  0.8579 -0.8519
 2602TIP3    H229366   2.046   6.040   0.116  0.3501  1.9362  0.6139
 2603TIP3   OH229367   1.228   2.873   1.525  0.0472 -0.4178  0.1095
 2603TIP3    H129368   1.298   2.843   1.582  0.3135  0.1397  0.0860
 2603TIP3    H229369   1.161   2.908   1.584  1.2594  2.2068  0.0784
 2604TIP3   OH229370   4.950   1.973   4.534 -0.2543 -0.1871 -0.2008
 2604TIP3    H129371   4.941   1.878   4.525 -1.5231 -0.0911 -0.1865
 2604TIP3    H229372   5.039   1.992   4.505 -0.6480 -1.1566 -2.2156
 2605TIP3   OH229373   0.962   4.076   3.177  0.0737  0.2911  0.8637
 2605TIP3    H129374   0.881   4.089   3.127  0.8690 -1.2122 -0.9127
 2605TIP3    H229375   0.990   4.165   3.199 -1.3470  0.9013  0.3489
 2606TIP3   OH229376   1.184   2.258   2.620  0.5634 -0.0485 -0.0632
 2606TIP3    H129377   1.202   2.194   2.552  0.5524  1.5786 -1.6692
 2606TIP3    H229378   1.153   2.206   2.695  2.2912 -2.0252 -0.6431
 2607TIP3   OH229379   4.937   0.868   0.754  0.3269  0.0451 -0.1221
 2607TIP3    H129380   4.880   0.899   0.824  1.0661 -1.5879  1.2617
 2607TIP3    H229381   4.902   0.909   0.675 -1.3661  0.8576  0.9970
 2608TIP3   OH229382   0.912   4.468   1.098 -0.5486 -0.2092 -0.1579
 2608TIP3    H129383   0.904   4.463   1.003 -0.1263 -0.1315 -0.1985
 2608TIP3    H229384   1.006   4.470   1.114 -0.6148  1.8515  0.1581
 2609TIP3   OH229385   5.708   2.954   1.674 -0.9881  0.3061  0.0710
 2609TIP3    H129386   5.783   3.013   1.663  0.0518 -1.0823 -0.5739
 2609TIP3    H229387   5.743   2.866   1.658 -2.9045 -0.3350 -1.0439
 2610TIP3   OH229388   2.813   5.816   0.637  0.4213 -0.4131 -0.2531
 2610TIP3    H129389   2.818   5.834   0.543  0.1873  0.9039 -0.0446
 2610TIP3    H229390   2.875   5.746   0.652  3.0366  1.5968 -0.8820
 2611TIP3   OH229391   1.962   2.646   2.163 -0.0863  0.1917  0.3936
 2611TIP3    H129392   1.996   2.699   2.236  1.3055 -2.8268  2.1064
 2611TIP3    H229393   2.040   2.609   2.122 -0.9989 -0.1112 -1.1431
 2612TIP3   OH229394   1.321   2.085   4.791  0.1854  0.2473  0.3923
 2612TIP3    H129395   1.249   2.134   4.830 -0.6923 -1.6099  1.2788
 2612TIP3    H229396   1.278   2.011   4.748  1.4793 -0.1501 -0.2619
 2613TIP3   OH229397   2.176   0.388   0.033 -0.1018  0.3825  0.2680
 2613TIP3    H129398   2.226   0.329   0.090  2.4556 -0.2865 -2.4279
 2613TIP3    H229399   2.216   0.474   0.048 -0.5812  0.5399  0.6798
 2614TIP3   OH229400   6.697   1.349   3.210  0.6872 -0.1318 -0.0993
 2614TIP3    H129401   6.724   1.440   3.202  0.0142  0.0296 -0.5649
 2614TIP3    H229402   6.670   1.340   3.302 -0.7579  0.5674 -0.4324
 2615TIP3   OH229403   0.116   3.999   0.071  0.0779  0.2625 -0.0472
 2615TIP3    H129404   0.090   4.031  -0.015 -1.8785 -0.5838  0.1633
 2615TIP3    H229405   0.041   3.947   0.100  1.1872 -0.4576  1.6570
 2616TIP3   OH229406   0.473   6.506   0.229  0.6963 -0.0001  0.6175
 2616TIP3    H129407   0.564   6.504   0.201  1.3394  0.6728  2.5126
 2616TIP3    H229408   0.452   6.599   0.237  0.7019 -0.1254  2.6386
 2617TIP3   OH229409   4.319   1.375   2.994 -0.0410 -0.1740  0.4408
 2617TIP3    H129410   4.265   1.454   3.003  0.3152  0.2189 -0.6665
 2617TIP3    H229411   4.384   1.398   2.927  0.7957 -1.0188  0.9404
 2618TIP3   OH229412   2.628   3.655   2.204 -0.0164  0.2850  0.4900
 2618TIP3    H129413   2.710   3.670   2.157  1.3555 -1.5670  2.1474
 2618TIP3    H229414   2.583   3.588   2.154 -0.2413  0.8511 -0.0776
 2619TIP3   OH229415   4.712   1.445   1.365 -0.7078  0.1959  0.6843
 2619TIP3    H129416   4.624   1.451   1.327 -0.1557 -0.1519 -0.6963
 2619TIP3    H229417   4.729   1.351   1.369  0.0079  0.2849 -0.0554
 2620TIP3   OH229418   3.965   2.585   0.878  0.1484 -0.1909 -0.7089
 2620TIP3    H129419   3.948   2.576   0.972  0.0044  0.3040 -0.6799
 2620TIP3    H229420   4.057   2.561   0.868 -0.1241 -1.3201 -0.6142
 2621TIP3   OH229421   0.568   0.047   4.857  0.0236  0.4646  0.1696
 2621TIP3    H129422   0.568   0.000   4.773 -0.6634 -0.2450  0.5511
 2621TIP3    H229423   0.565   0.139   4.833  0.6220  0.2983 -0.5946
 2622TIP3   OH229424   0.489   3.084   3.319 -0.6811 -0.1675 -0.6618
 2622TIP3    H129425   0.457   3.139   3.248 -0.7005  1.5262  0.5873
 2622TIP3    H229426   0.577   3.119   3.338 -0.6982 -0.5566  0.1690
 2623TIP3   OH229427   0.625   5.285   4.805  0.7103  0.8565 -0.3740
 2623TIP3    H129428   0.615   5.219   4.874 -0.3671 -2.0133 -3.0129
 2623TIP3    H229429   0.548   5.342   4.815 -0.8903 -1.1247 -0.6894
 2624TIP3   OH229430   6.667   1.686   2.518 -0.1636  0.6538  0.3863
 2624TIP3    H129431   6.617   1.607   2.497  0.7349  0.3703 -0.7935
 2624TIP3    H229432   6.642   1.749   2.451 -0.3539  1.1592  0.9194
 2625TIP3   OH229433   5.223   1.335   2.117 -0.7516  0.4432 -0.1522
 2625TIP3    H129434   5.274   1.273   2.065 -0.6442  0.3521  0.0585
 2625TIP3    H229435   5.162   1.375   2.055  0.1839  1.2177 -0.6082
 2626TIP3   OH229436   3.072   2.751   0.562  0.2439  0.1061 -0.3978
 2626TIP3    H129437   3.156   2.777   0.601 -0.0845  2.8467 -1.2529
 2626TIP3    H229438   3.070   2.797   0.478 -2.2452  0.3798 -0.2601
 2627TIP3   OH229439   3.432   1.326   0.766  0.3070 -0.3883  0.1445
 2627TIP3    H129440   3.368   1.338   0.697 -0.8079 -0.2755  1.1709
 2627TIP3    H229441   3.483   1.407   0.767  0.3570 -0.4107 -0.5597
 2628TIP3   OH229442   0.214   5.191   1.556 -0.2816 -0.8332  0.4415
 2628TIP3    H129443   0.274   5.157   1.489  2.1698 -0.1827  2.1383
 2628TIP3    H229444   0.227   5.133   1.631  1.2735  1.5268  2.1591
 2629TIP3   OH229445   2.681   3.029   2.340  0.2038  0.7282  0.1779
 2629TIP3    H129446   2.640   3.019   2.426  2.4341 -0.8803  1.1562
 2629TIP3    H229447   2.672   2.943   2.299  0.6627  0.9933 -0.4916
 2630TIP3   OH229448   6.468   3.181   4.071 -0.2444 -0.1525 -0.2439
 2630TIP3    H129449   6.537   3.235   4.109 -0.1386 -0.8178  0.5427
 2630TIP3    H229450   6.407   3.167   4.143 -1.1065  0.2714 -0.8866
 2631TIP3   OH229451   1.880   0.133   0.334  0.3561 -0.0467  0.5237
 2631TIP3    H129452   1.923   0.146   0.419 -0.7694  0.7161  0.9929
 2631TIP3    H229453   1.946   0.088   0.282  0.2434 -2.8547  2.5724
 2632TIP3   OH229454   3.556   6.241   3.146  1.0700 -0.2398  0.2145
 2632TIP3    H129455   3.554   6.152   3.112  0.2980  0.3530 -1.3483
 2632TIP3    H229456   3.641   6.247   3.191  0.9535 -1.8665  0.7153
 2633TIP3   OH229457   4.899   0.388   2.256 -0.4501 -0.1096  0.1159
 2633TIP3    H129458   4.934   0.395   2.345 -1.0236 -0.0041  0.3385
 2633TIP3    H229459   4.831   0.456   2.251 -0.5998 -0.2846 -0.3139
 2634TIP3   OH229460   6.501   2.045   0.842  0.3079 -0.0996  0.3330
 2634TIP3    H129461   6.486   1.976   0.777  2.2535 -0.3601  0.0886
 2634TIP3    H229462   6.413   2.070   0.871 -0.5094 -1.7973 -0.4906
 2635TIP3   OH229463   1.206   2.912   3.328 -1.0908  0.2828  0.5771
 2635TIP3    H129464   1.293   2.899   3.365  0.6631  0.9256 -2.8404
 2635TIP3    H229465   1.175   2.993   3.367  0.8687  1.2348  0.2862
 2636TIP3   OH229466   3.214   6.013   1.134 -0.2361 -0.1937  0.1551
 2636TIP3    H129467   3.156   5.939   1.153 -1.0843  0.5622  0.5780
 2636TIP3    H229468   3.157   6.090   1.136  1.0962  0.8785  2.8445
 2637TIP3   OH229469   4.995   4.994   0.929  0.0789  0.0773  0.1142
 2637TIP3    H129470   4.973   4.905   0.904 -0.3482 -0.1316  1.1977
 2637TIP3    H229471   5.082   4.988   0.967  1.4952  0.6670 -2.7727
 2638TIP3   OH229472   2.267   3.848   8.485  0.2443 -0.1320  0.7144
 2638TIP3    H129473   2.176   3.858   8.511  0.1068 -1.2063  0.7008
 2638TIP3    H229474   2.293   3.935   8.454 -0.4510  0.4410  1.6942
 2639TIP3   OH229475   3.235   3.528   2.947  0.4432  0.7985  0.4733
 2639TIP3    H129476   3.156   3.487   2.982  0.7355  0.7158  1.0382
 2639TIP3    H229477   3.202   3.603   2.897 -0.0621  0.1447 -0.1969
 2640TIP3   OH229478   4.184   4.846   1.084  0.2417  0.4012 -0.0638
 2640TIP3    H129479   4.188   4.787   1.008 -1.5538  0.7304 -0.4578
 2640TIP3    H229480   4.194   4.788   1.159 -1.2272 -0.4004 -0.4532
 2641TIP3   OH229481   3.465   0.403   2.061 -0.3057 -0.0098  0.4965
 2641TIP3    H129482   3.425   0.460   2.127 -0.1009 -0.3521  0.9198
 2641TIP3    H229483   3.402   0.332   2.049 -0.1753 -0.1424  0.5944
 2642TIP3   OH229484   2.340   1.537   1.194 -0.5277  0.7290  0.4450
 2642TIP3    H129485   2.316   1.454   1.153 -2.7014  1.7443 -0.4867
 2642TIP3    H229486   2.427   1.558   1.159  0.5655 -1.5860  1.5082
 2643TIP3   OH229487   5.551   5.593   3.237 -0.4649 -0.1983  0.1143
 2643TIP3    H129488   5.481   5.623   3.295 -1.2337 -1.4030 -0.1584
 2643TIP3    H229489   5.575   5.506   3.270  0.9428  0.2026  0.2244
 2644TIP3   OH229490   3.855   4.582   1.541 -0.7234 -0.0345 -0.3267
 2644TIP3    H129491   3.875   4.596   1.634 -0.9270  2.4656 -0.5962
 2644TIP3    H229492   3.781   4.520   1.542 -0.6533 -0.1450  1.1539
 2645TIP3   OH229493   5.404   1.493   2.918 -1.0450  0.2481 -0.8431
 2645TIP3    H129494   5.491   1.486   2.878  0.7882 -0.8439  2.9278
 2645TIP3    H229495   5.413   1.565   2.980 -1.6265 -2.0172  2.0730
 2646TIP3   OH229496   4.392   2.268   2.066 -0.1603  0.0925  0.2606
 2646TIP3    H129497   4.379   2.245   1.974 -0.3454  0.0486  0.2985
 2646TIP3    H229498   4.366   2.360   2.072  2.2177  0.8804 -0.2664
 2647TIP3   OH229499   6.019   4.494   4.225  0.1445 -0.1861 -0.1506
 2647TIP3    H129500   6.051   4.548   4.297  2.6257 -1.2437 -0.3757
 2647TIP3    H229501   5.993   4.558   4.158  1.3287  0.7743  0.2636
 2648TIP3   OH229502   4.559   3.226   1.083  0.4361  0.0766 -0.0811
 2648TIP3    H129503   4.608   3.158   1.131  0.4243 -0.2221 -0.4851
 2648TIP3    H229504   4.618   3.301   1.083  0.4736  0.0519  0.3223
 2649TIP3   OH229505   1.881   6.861   1.673 -0.1983 -0.4340 -0.0281
 2649TIP3    H129506   1.898   6.782   1.724  0.1843 -1.0279 -1.0583
 2649TIP3    H229507   1.841   6.921   1.736 -3.4500 -2.4914  0.1428
 2650TIP3   OH229508   5.903   1.337   2.752  0.4843 -0.5468 -0.6682
 2650TIP3    H129509   5.946   1.261   2.712 -0.7313 -2.2827  1.1453
 2650TIP3    H229510   5.871   1.305   2.836 -0.9445  1.7280 -0.2613
 2651TIP3   OH229511   3.462   4.769   3.380 -0.0920 -0.5556 -0.7408
 2651TIP3    H129512   3.460   4.739   3.290 -2.3968  1.1694 -1.3427
 2651TIP3    H229513   3.393   4.834   3.386  1.4781  1.0713  1.7005
 2652TIP3   OH229514   5.392   5.255   0.757  0.3098 -0.2860 -0.1261
 2652TIP3    H129515   5.330   5.327   0.758  0.8815  0.2199 -0.1440
 2652TIP3    H229516   5.341   5.178   0.732 -0.4623 -0.0406  0.6628
 2653TIP3   OH229517   2.049   5.168   1.891  0.7180  0.1263  0.4312
 2653TIP3    H129518   1.962   5.184   1.855  1.7570  2.3983 -1.2777
 2653TIP3    H229519   2.033   5.148   1.983 -1.5857  0.8584  0.2631
 2654TIP3   OH229520   0.875   3.996   4.857  0.4021 -0.1510 -0.5054
 2654TIP3    H129521   0.966   4.007   4.886  0.9365  0.6885 -2.2902
 2654TIP3    H229522   0.831   4.075   4.888 -0.1720 -1.2820  1.7429
 2655TIP3   OH229523   1.834   1.095   3.187  0.1705 -0.0849 -0.3034
 2655TIP3    H129524   1.815   1.052   3.104 -2.1197  0.3450 -0.0642
 2655TIP3    H229525   1.786   1.177   3.183 -0.8252 -0.4938  1.8170
 2656TIP3   OH229526   0.686   5.892   0.864  0.7263  0.1420  0.2178
 2656TIP3    H129527   0.614   5.832   0.844 -0.2041  1.0502  0.7545
 2656TIP3    H229528   0.643   5.974   0.888  1.9738  1.2045 -1.0089
 2657TIP3   OH229529   2.211   5.919   4.663  0.4389  0.0577 -0.8609
 2657TIP3    H129530   2.228   5.884   4.576 -1.3029  0.9390 -1.6020
 2657TIP3    H229531   2.126   5.882   4.688  2.4574 -3.3267  2.2141
 2658TIP3   OH229532   3.393   3.875   0.776  0.4096 -0.4905  0.2676
 2658TIP3    H129533   3.320   3.927   0.743 -1.1074 -2.3233  0.5404
 2658TIP3    H229534   3.471   3.921   0.747 -0.8493  1.3605 -0.3328
 2659TIP3   OH229535   2.519   2.887   4.057  0.6095  0.1392  0.3054
 2659TIP3    H129536   2.426   2.877   4.076  0.2077  3.3480  0.5749
 2659TIP3    H229537   2.539   2.815   3.997 -1.4809 -1.8924  1.8349
 2660TIP3   OH229538   4.777   6.645   2.518 -0.6283 -0.2349  0.1465
 2660TIP3    H129539   4.802   6.737   2.510 -1.9334  0.1206 -0.1773
 2660TIP3    H229540   4.860   6.597   2.521  0.0655  0.9061 -0.2360
 2661TIP3   OH229541   3.420   4.643   3.145  0.3882 -0.2558 -0.3034
 2661TIP3    H129542   3.399   4.552   3.168  0.2351  0.1582  1.2593
 2661TIP3    H229543   3.507   4.638   3.105  0.6114 -1.0288  0.2598
 2662TIP3   OH229544   1.118   5.963   3.076 -0.2824 -0.0154 -0.3062
 2662TIP3    H129545   1.167   5.906   3.135 -0.4166 -0.2897 -0.4583
 2662TIP3    H229546   1.027   5.957   3.106 -0.5204 -0.9365 -1.1397
 2663TIP3   OH229547   0.703   1.226   1.141 -0.1801 -0.2375 -0.5161
 2663TIP3    H129548   0.611   1.208   1.121 -0.1250 -0.5244 -0.5210
 2663TIP3    H229549   0.702   1.311   1.184 -0.2832  0.4910 -1.8883
 2664TIP3   OH229550   2.654   5.560   1.782  0.5957 -0.7366 -0.6507
 2664TIP3    H129551   2.721   5.628   1.789  0.9445 -1.2486  1.4900
 2664TIP3    H229552   2.676   5.497   1.851 -1.7362 -1.2206 -0.2818
 2665TIP3   OH229553   2.795   1.130   1.102  0.1994 -0.0091  0.3051
 2665TIP3    H129554   2.757   1.209   1.141  0.5575  0.6528 -0.6243
 2665TIP3    H229555   2.869   1.109   1.159  2.3515  2.4739 -1.2939
 2666TIP3   OH229556   3.235   0.691   0.898  0.7636 -0.0420  0.0575
 2666TIP3    H129557   3.234   0.597   0.916 -2.1272 -0.0963  0.1789
 2666TIP3    H229558   3.157   0.724   0.943  0.6717  2.0938 -1.5389
 2667TIP3   OH229559   2.683   1.418   4.389  0.1229 -0.4655  0.7513
 2667TIP3    H129560   2.670   1.326   4.415  0.0346 -0.0218  2.4141
 2667TIP3    H229561   2.595   1.450   4.371  0.0019 -0.3410  1.5377
 2668TIP3   OH229562   4.468   1.344   3.386 -0.4067  0.5380  0.5790
 2668TIP3    H129563   4.515   1.308   3.311  0.8420  1.0759  1.0790
 2668TIP3    H229564   4.532   1.343   3.457 -1.7384 -0.4852  1.8008
 2669TIP3   OH229565   2.884   0.651   1.777 -0.0002 -0.1400  0.0905
 2669TIP3    H129566   2.869   0.681   1.867 -0.7274 -1.1997  0.3427
 2669TIP3    H229567   2.967   0.691   1.752  0.7755 -0.6982  1.6339
 2670TIP3   OH229568   2.267   3.158   3.918 -0.5386 -0.6687 -0.2517
 2670TIP3    H129569   2.344   3.213   3.936 -1.6365  1.0411 -0.4707
 2670TIP3    H229570   2.276   3.084   3.977  1.7666 -1.0322 -0.9747
 2671TIP3   OH229571   2.502   0.471   4.516 -0.4184 -0.1732 -0.0893
 2671TIP3    H129572   2.558   0.398   4.488  0.4520  0.2271  0.5549
 2671TIP3    H229573   2.419   0.430   4.540 -0.4359 -0.7784 -1.0892
 2672TIP3   OH229574   5.724   5.885   4.159 -0.1940  1.1584  0.5734
 2672TIP3    H129575   5.725   5.834   4.079  0.7254  0.3102  1.1041
 2672TIP3    H229576   5.796   5.948   4.148  0.1177  0.8522  0.8436
 2673TIP3   OH229577   5.400   5.549   1.484 -0.3221 -0.2354 -0.1979
 2673TIP3    H129578   5.446   5.633   1.495  2.7993 -1.4122 -2.6298
 2673TIP3    H229579   5.315   5.573   1.447 -0.4890  1.9271  1.3878
 2674TIP3   OH229580   3.168   4.518   0.220 -0.3251  0.2483  0.0336
 2674TIP3    H129581   3.091   4.470   0.250 -0.3906  1.1027  1.3311
 2674TIP3    H229582   3.152   4.534   0.127 -1.2869 -0.3591  0.0781
 2675TIP3   OH229583   5.770   5.037   2.885 -0.5102  0.0132  0.5467
 2675TIP3    H129584   5.715   4.999   2.954 -0.0163  0.6644  1.3154
 2675TIP3    H229585   5.846   5.070   2.931 -0.3664  0.8486 -0.2704
 2676TIP3   OH229586   0.048   2.700   0.754  0.2038 -0.3194  0.7543
 2676TIP3    H129587   0.003   2.619   0.732  1.2279 -1.3104  2.1565
 2676TIP3    H229588   0.001   2.768   0.705 -1.2127 -1.6311  0.2342
 2677TIP3   OH229589   0.014   4.981   2.724  0.4683  0.2906  0.1686
 2677TIP3    H129590   0.078   5.011   2.788 -0.0960  0.7729  0.5143
 2677TIP3    H229591  -0.019   5.061   2.683 -1.2268  0.1935  1.2703
 2678TIP3   OH229592   2.064   2.108   1.481  0.3053 -0.1878 -0.2105
 2678TIP3    H129593   2.053   2.188   1.532  0.4522  0.4348 -1.1371
 2678TIP3    H229594   2.067   2.038   1.546  3.0082  0.7884  0.8548
 2679TIP3   OH229595   6.770   1.510   1.418 -0.0517  0.1349  0.2543
 2679TIP3    H129596   6.833   1.574   1.385  0.7689 -1.2891 -1.1243
 2679TIP3    H229597   6.686   1.554   1.414  0.5009  1.1482 -0.6159
 2680TIP3   OH229598   0.708   1.572   3.506  0.2067 -0.6178 -0.4157
 2680TIP3    H129599   0.776   1.619   3.456  0.1840 -0.3052 -0.1538
 2680TIP3    H229600   0.755   1.528   3.576  0.1146 -0.1858 -0.0740
 2681TIP3   OH229601   2.039   4.931   2.534 -0.3380  0.0524  0.2704
 2681TIP3    H129602   1.947   4.905   2.530 -0.0039 -1.1899  0.4861
 2681TIP3    H229603   2.063   4.921   2.626  0.2148 -0.3163  0.0864
 2682TIP3   OH229604   5.788   4.901   8.439 -0.1354  0.8205  0.6569
 2682TIP3    H129605   5.846   4.869   8.507 -0.0452  1.3889  0.8532
 2682TIP3    H229606   5.702   4.867   8.462  0.3688 -1.5459 -0.5990
 2683TIP3   OH229607   2.388   6.414   1.795 -0.0769 -0.0294 -0.3881
 2683TIP3    H129608   2.377   6.411   1.700 -0.0890 -3.5185 -0.4049
 2683TIP3    H229609   2.312   6.367   1.829  0.6730 -0.1020  1.2844
 2684TIP3   OH229610   0.184   5.942   2.431  0.0491  0.6715  0.2368
 2684TIP3    H129611   0.253   5.978   2.374 -0.0566 -0.3111 -0.5502
 2684TIP3    H229612   0.180   5.849   2.407  0.1724  0.1567  2.0488
 2685TIP3   OH229613   1.547   5.999   2.530 -0.2700  0.4080  0.1232
 2685TIP3    H129614   1.573   6.073   2.476 -1.7125  0.3199 -0.7398
 2685TIP3    H229615   1.587   6.016   2.615 -1.1318  2.5360  0.1433
 2686TIP3   OH229616   4.148   6.024   1.217 -0.2037 -0.0494  1.0811
 2686TIP3    H129617   4.075   5.966   1.238 -0.5783  0.2516  0.6207
 2686TIP3    H229618   4.215   5.966   1.182 -0.0435 -0.3867  1.9292
 2687TIP3   OH229619   4.142   2.381   3.021 -0.1787 -0.0062  0.2933
 2687TIP3    H129620   4.109   2.456   3.070 -0.3153 -0.3328  0.7019
 2687TIP3    H229621   4.160   2.416   2.934 -0.6796  0.3964  0.3460
 2688TIP3   OH229622   5.656   1.570   4.140  0.0482 -0.3623  0.2656
 2688TIP3    H129623   5.660   1.608   4.052  0.3036 -2.1044 -0.5173
 2688TIP3    H229624   5.643   1.476   4.125 -0.8912 -0.5718  2.1183
 2689TIP3   OH229625   2.816   5.362   3.093 -0.1890 -0.4991  0.0564
 2689TIP3    H129626   2.836   5.447   3.054  1.7095 -1.4701 -1.2348
 2689TIP3    H229627   2.784   5.383   3.181  0.5997  1.5258 -0.0906
 2690TIP3   OH229628   2.343   4.722   1.201  0.0376  0.1343 -0.4651
 2690TIP3    H129629   2.319   4.636   1.236 -0.3576  0.8066  0.9936
 2690TIP3    H229630   2.277   4.738   1.133 -0.5616 -0.2512  0.0064
 2691TIP3   OH229631   0.045   5.355   1.395 -0.2466 -0.1219 -0.3039
 2691TIP3    H129632  -0.037   5.386   1.435  1.5411  2.5874  1.5488
 2691TIP3    H229633   0.078   5.290   1.457 -0.9176 -1.2642 -1.0847
 2692TIP3   OH229634   6.147   6.383   3.816 -0.0078  0.2812 -0.1767
 2692TIP3    H129635   6.114   6.323   3.882  1.9686 -0.3298  0.3254
 2692TIP3    H229636   6.109   6.468   3.838  1.7475  0.4500  2.7404
 2693TIP3   OH229637   1.877   1.394   1.623 -0.2989 -0.0416  0.0972
 2693TIP3    H129638   1.855   1.305   1.648  0.1246  0.0083  0.6931
 2693TIP3    H229639   1.833   1.449   1.689 -1.2611  0.2482 -0.7544
 2694TIP3   OH229640   4.332   6.881   2.930  0.1132 -0.2378  0.5526
 2694TIP3    H129641   4.237   6.866   2.932  0.1482 -0.9819 -1.3060
 2694TIP3    H229642   4.368   6.796   2.906  1.1308  0.4161 -0.2857
 2695TIP3   OH229643   4.647   6.067   1.552  0.5365  0.1363  0.0334
 2695TIP3    H129644   4.714   6.106   1.495  0.1245  1.1206  0.1919
 2695TIP3    H229645   4.564   6.094   1.512  0.2307 -0.5385  0.1973
 2696TIP3   OH229646   2.431   0.261   2.028  0.1735 -0.1200 -0.3797
 2696TIP3    H129647   2.469   0.222   1.949 -0.9955 -0.8120 -0.6254
 2696TIP3    H229648   2.348   0.215   2.039  1.0930 -1.3451  2.2947
 2697TIP3   OH229649   5.102   6.185   0.508 -0.3797  0.6042  0.0180
 2697TIP3    H129650   5.173   6.249   0.503  0.5604 -0.4781 -2.8679
 2697TIP3    H229651   5.025   6.235   0.532  1.1363  1.9733  2.4230
 2698TIP3   OH229652   3.484   0.536   0.364  0.8810 -0.4928  0.2011
 2698TIP3    H129653   3.440   0.481   0.429  0.1182  0.5064  0.5498
 2698TIP3    H229654   3.564   0.488   0.343  0.9677 -1.0159  1.6009
 2699TIP3   OH229655   4.863   0.789   2.295 -0.4327 -0.0390 -0.0704
 2699TIP3    H129656   4.911   0.839   2.230  1.7285 -0.8631  0.8046
 2699TIP3    H229657   4.798   0.740   2.244  0.9822 -0.4138 -1.5817
 2700TIP3   OH229658   0.613   3.026   3.886 -0.0076  0.5644  0.3615
 2700TIP3    H129659   0.518   3.032   3.884 -0.0472 -0.2686 -0.7085
 2700TIP3    H229660   0.643   3.107   3.845 -0.2522  0.6353  0.3256
 2701TIP3   OH229661   6.528   4.288   4.843  0.2170 -0.1596 -0.0256
 2701TIP3    H129662   6.439   4.323   4.852  0.5344  0.3720  1.2109
 2701TIP3    H229663   6.516   4.194   4.831 -0.4985 -0.1656  0.6553
 2702TIP3   OH229664   0.775   6.728   4.322  0.6114  0.3135  0.0221
 2702TIP3    H129665   0.863   6.737   4.286  0.2699 -0.1186 -0.9497
 2702TIP3    H229666   0.760   6.634   4.327  0.1739  0.3812  0.0881
 2703TIP3   OH229667   5.761   2.309   4.925 -0.0367  0.5372 -0.3209
 2703TIP3    H129668   5.842   2.263   4.904 -0.4439 -1.5717  2.1600
 2703TIP3    H229669   5.692   2.252   4.893 -0.5404  0.9753 -0.0315
 2704TIP3   OH229670   5.448   0.309   1.070 -0.0742 -0.4150  0.1540
 2704TIP3    H129671   5.438   0.360   1.151 -0.3779  0.5361 -0.4700
 2704TIP3    H229672   5.372   0.333   1.017  1.3964  0.9908 -1.4769
 2705TIP3   OH229673   1.839   4.159   2.528  0.6559 -0.4182 -0.2738
 2705TIP3    H129674   1.919   4.194   2.489  1.1807 -1.3696 -0.0949
 2705TIP3    H229675   1.869   4.090   2.587 -0.1864  0.3401  1.0911
 2706TIP3   OH229676   1.263   3.110   1.726  0.7517 -0.1200 -0.5180
 2706TIP3    H129677   1.219   3.053   1.663 -0.1960  1.1404 -1.0643
 2706TIP3    H229678   1.198   3.123   1.796  1.3975 -0.6520  0.1923
 2707TIP3   OH229679   2.576   6.166   1.046  0.8032 -0.2024  0.6730
 2707TIP3    H129680   2.583   6.084   0.996  1.2987  0.4502 -0.3638
 2707TIP3    H229681   2.484   6.169   1.073  0.0452  0.2307 -1.6887
 2708TIP3   OH229682   3.640   1.982   0.612 -0.4977 -0.1395 -0.2616
 2708TIP3    H129683   3.683   1.968   0.528 -1.0569  1.4064 -0.8544
 2708TIP3    H229684   3.587   2.061   0.598 -0.9943 -0.1501  1.3950
 2709TIP3   OH229685   0.868   3.465   1.982  0.1361  0.2600 -0.9616
 2709TIP3    H129686   0.834   3.376   1.991 -0.5484  0.7521  3.5645
 2709TIP3    H229687   0.791   3.518   1.959 -0.3898  0.1743  0.4968
 2710TIP3   OH229688   4.868   0.656   1.692 -0.4941 -0.7260 -0.4930
 2710TIP3    H129689   4.914   0.662   1.776  0.7555 -0.4734 -1.1718
 2710TIP3    H229690   4.886   0.566   1.662 -1.4565 -1.0186 -0.2049
 2711TIP3   OH229691   1.242   2.772   4.407 -0.0198 -0.5220  0.5161
 2711TIP3    H129692   1.271   2.766   4.316  0.7776 -0.2128  0.7435
 2711TIP3    H229693   1.153   2.804   4.402  0.7487  1.6991 -0.0857
 2712TIP3   OH229694   1.825   6.490   8.243 -0.1283  0.1369  0.1154
 2712TIP3    H129695   1.918   6.474   8.223 -0.3285 -1.2138  0.1493
 2712TIP3    H229696   1.823   6.579   8.276  0.7890  1.1362 -2.2666
 2713TIP3   OH229697   0.532   1.868   1.473  0.3162  0.6672  0.2871
 2713TIP3    H129698   0.466   1.920   1.519 -0.4517  0.1242 -0.1777
 2713TIP3    H229699   0.532   1.783   1.518 -0.5227  0.0912 -0.7475
 2714TIP3   OH229700   1.670   6.844   4.216  0.4265 -0.0588  0.3515
 2714TIP3    H129701   1.615   6.789   4.160  2.4898 -0.9379 -0.9186
 2714TIP3    H229702   1.744   6.788   4.240  1.4731  1.4757  0.9013
 2715TIP3   OH229703   5.803   0.892   3.603  0.3887  0.3724 -0.2061
 2715TIP3    H129704   5.716   0.861   3.629 -0.0084  0.5516 -1.2556
 2715TIP3    H229705   5.858   0.878   3.680 -0.3942 -0.4565  0.2228
 2716TIP3   OH229706   5.880   5.188   1.109 -0.8764  0.2799 -0.1717
 2716TIP3    H129707   5.847   5.132   1.178 -0.4600  1.2393  0.8453
 2716TIP3    H229708   5.892   5.130   1.034 -0.6927 -0.9244  0.7595
 2717TIP3   OH229709   2.079   3.161   3.722  0.3736 -0.2109 -0.1649
 2717TIP3    H129710   2.126   3.148   3.804 -2.7461  1.2104  2.0267
 2717TIP3    H229711   2.123   3.236   3.681  0.3305  0.8191  1.5846
 2718TIP3   OH229712   3.152   6.336   3.383  0.2776  0.5533 -0.3112
 2718TIP3    H129713   3.216   6.307   3.448  0.6219  0.3924 -0.7198
 2718TIP3    H229714   3.074   6.359   3.434  0.8410  1.2568  0.2409
 2719TIP3   OH229715   4.181   6.844   3.336 -0.8322  0.3162 -0.0372
 2719TIP3    H129716   4.218   6.777   3.395  0.5155  0.5488 -0.5795
 2719TIP3    H229717   4.188   6.926   3.386 -0.2419  0.4201 -0.2843
 2720TIP3   OH229718   6.926   1.758   4.352  0.2218 -0.4043  0.7358
 2720TIP3    H129719   6.950   1.693   4.286 -0.4848 -0.7252  0.7854
 2720TIP3    H229720   7.010   1.788   4.388  0.5612 -1.1760  0.6093
 2721TIP3   OH229721   2.277   2.361   0.583 -1.1900 -0.8058 -0.0090
 2721TIP3    H129722   2.349   2.374   0.521 -1.9418 -0.8672 -0.9242
 2721TIP3    H229723   2.313   2.387   0.668  0.3526 -2.2200 -0.1926
 2722TIP3   OH229724   3.632   0.236   1.637 -0.0260  0.2028 -0.2474
 2722TIP3    H129725   3.599   0.146   1.634  1.1539 -0.2196 -2.3556
 2722TIP3    H229726   3.712   0.229   1.690  0.0991 -0.0050 -0.4601
 2723TIP3   OH229727   4.551   6.346   1.071 -0.5804  0.0724 -0.0654
 2723TIP3    H129728   4.590   6.301   0.997  0.9368  1.3611 -0.1023
 2723TIP3    H229729   4.516   6.276   1.126  1.6419 -1.1766 -0.1161
 2724TIP3   OH229730   5.710   3.751   1.933 -0.3344 -0.9276  0.4407
 2724TIP3    H129731   5.770   3.718   2.000  0.1092 -1.5842 -0.2638
 2724TIP3    H229732   5.762   3.813   1.883 -0.8754  0.1051  1.1321
 2725TIP3   OH229733   6.896   0.826   1.971  0.2941  0.4967  0.4676
 2725TIP3    H129734   6.829   0.828   2.039  0.1220 -1.0515  0.3916
 2725TIP3    H229735   6.870   0.753   1.915  0.5567  1.5984 -1.1435
 2726TIP3   OH229736   5.242   3.420   1.531 -0.1306 -0.0298  0.0486
 2726TIP3    H129737   5.199   3.334   1.525 -0.5129  0.1999 -0.6123
 2726TIP3    H229738   5.335   3.400   1.520 -0.3114 -0.2565 -1.3772
 2727TIP3   OH229739   6.196   5.306   0.675 -0.4774  0.8483 -0.0685
 2727TIP3    H129740   6.124   5.243   0.667 -0.3109  0.7854 -1.1758
 2727TIP3    H229741   6.165   5.370   0.738 -0.3238 -0.7893  1.7690
 2728TIP3   OH229742   3.435   3.214   3.100  0.0989  0.6682  0.5161
 2728TIP3    H129743   3.428   3.277   3.028  2.2332 -0.7241 -1.0320
 2728TIP3    H229744   3.498   3.254   3.160  0.6104  0.5225  0.0847
 2729TIP3   OH229745   6.546   2.034   3.653  0.4578  0.2655  0.0189
 2729TIP3    H129746   6.466   2.055   3.701  0.4037 -1.3632  0.6929
 2729TIP3    H229747   6.535   1.943   3.625  2.0325  0.0398  0.0483
 2730TIP3   OH229748   0.320   3.565   1.924  0.1235  0.1109 -0.0361
 2730TIP3    H129749   0.377   3.583   1.850  0.2950 -1.3789 -0.3044
 2730TIP3    H229750   0.338   3.634   1.988  0.6828  0.8418 -0.9797
 2731TIP3   OH229751   6.302   6.503   3.099  0.6978 -0.2502  0.3401
 2731TIP3    H129752   6.338   6.587   3.070  0.6576 -0.2034  0.4250
 2731TIP3    H229753   6.371   6.466   3.155  0.4699  0.0077  0.8019
 2732TIP3   OH229754   1.214   5.606   0.777  0.0124 -0.0106  0.3901
 2732TIP3    H129755   1.287   5.565   0.732 -0.6512 -1.1344  0.2948
 2732TIP3    H229756   1.183   5.674   0.717  0.7268  0.2152  0.2718
 2733TIP3   OH229757   5.873   1.087   3.395  0.3639  0.5043  0.4207
 2733TIP3    H129758   5.839   1.176   3.405  0.3674  0.6964 -1.1224
 2733TIP3    H229759   5.825   1.036   3.460  0.0086  1.5307  0.9905
 2734TIP3   OH229760   4.546   4.619   2.876  0.2584  0.1422 -0.0587
 2734TIP3    H129761   4.471   4.667   2.840  0.7800  0.2891 -0.9909
 2734TIP3    H229762   4.619   4.679   2.867  0.5044 -0.0035  0.8415
 2735TIP3   OH229763   3.511   5.697   0.706 -0.6913 -0.2525 -0.3215
 2735TIP3    H129764   3.510   5.731   0.795  0.2532  0.0211 -0.4098
 2735TIP3    H229765   3.580   5.746   0.662 -0.5215 -1.0284 -0.9492
 2736TIP3   OH229766   5.901   6.196   1.628 -0.4884  0.9266  0.0770
 2736TIP3    H129767   5.830   6.196   1.564 -1.0105 -0.7003  0.6000
 2736TIP3    H229768   5.858   6.189   1.713  0.2525 -1.8779  0.3238
 2737TIP3   OH229769   0.762   2.241   1.831 -0.7298  0.0545 -0.1960
 2737TIP3    H129770   0.799   2.245   1.919 -2.5357 -1.3261  0.6923
 2737TIP3    H229771   0.827   2.193   1.780 -0.0622  0.0812  0.6021
 2738TIP3   OH229772   5.644   0.122   1.003  0.1502 -0.1386  0.3998
 2738TIP3    H129773   5.701   0.100   1.077 -0.1580 -3.2498 -0.1321
 2738TIP3    H229774   5.571   0.170   1.043  0.4208 -0.9750  2.0036
 2739TIP3   OH229775   4.776   0.506   0.755  0.2659 -0.4023  0.4596
 2739TIP3    H129776   4.812   0.427   0.715  1.4544 -0.5612  1.7466
 2739TIP3    H229777   4.719   0.544   0.688  2.5045 -0.3883 -1.5595
 2740TIP3   OH229778   6.935   5.700   1.141 -0.0214 -0.0554  0.2762
 2740TIP3    H129779   6.908   5.764   1.207 -1.2243 -0.2879  0.0307
 2740TIP3    H229780   6.895   5.618   1.169  1.8950 -0.8413  0.8422
 2741TIP3   OH229781   6.779   4.401   0.997 -0.1482  0.7055  0.2566
 2741TIP3    H129782   6.731   4.441   0.924 -0.4591 -2.1050 -1.2009
 2741TIP3    H229783   6.712   4.353   1.046  0.8230 -2.2449 -1.0873
 2742TIP3   OH229784   2.553   2.532   8.412 -0.0611 -0.3304  0.1355
 2742TIP3    H129785   2.538   2.624   8.436  1.7384  0.1581 -0.4683
 2742TIP3    H229786   2.535   2.483   8.492  1.2886  0.8016  1.1757
 2743TIP3   OH229787   0.462   1.524   2.395  0.3215  0.8931 -0.0788
 2743TIP3    H129788   0.490   1.489   2.311 -1.7936 -0.5026 -0.2840
 2743TIP3    H229789   0.420   1.607   2.374 -1.6957 -0.2089 -0.7230
 2744TIP3   OH229790   5.365   4.674   2.764  0.8214 -0.7439  0.0212
 2744TIP3    H129791   5.310   4.706   2.835  0.2536 -0.2564 -0.6178
 2744TIP3    H229792   5.453   4.671   2.800  1.0263  2.1904 -0.0460
 2745TIP3   OH229793   1.701   2.256   3.048 -0.3938 -0.0529 -0.1420
 2745TIP3    H129794   1.657   2.325   2.998  0.8149  0.2203 -0.8518
 2745TIP3    H229795   1.710   2.293   3.136  0.0159  0.5867 -0.4524
 2746TIP3   OH229796   2.078   6.895   0.754  0.0701 -0.1729 -0.4431
 2746TIP3    H129797   2.056   6.843   0.831  0.1250  0.0251 -0.2910
 2746TIP3    H229798   1.994   6.918   0.715  0.0648 -1.4917 -1.2784
 2747TIP3   OH229799   2.951   5.635   1.606  0.0130 -0.0932 -0.3407
 2747TIP3    H129800   2.963   5.672   1.693  1.6344  1.3254 -1.1013
 2747TIP3    H229801   2.931   5.543   1.621  0.6948  0.0291  1.5300
 2748TIP3   OH229802   0.559   5.889   3.169 -0.0949 -0.1952  0.3442
 2748TIP3    H129803   0.545   5.952   3.099  0.6974  0.8268  1.0728
 2748TIP3    H229804   0.480   5.836   3.170 -0.2831  0.0277 -1.0511
 2749TIP3   OH229805   1.076   5.901   3.560 -0.1004  0.6192  0.0194
 2749TIP3    H129806   1.009   5.834   3.543  0.3934  0.1177  0.0256
 2749TIP3    H229807   1.074   5.912   3.656  0.6733 -0.2987  0.1534
 2750TIP3   OH229808   3.349   0.576   2.238  0.7055 -0.4094  0.0471
 2750TIP3    H129809   3.331   0.670   2.225  2.6205  0.1700  1.2124
 2750TIP3    H229810   3.402   0.573   2.317  1.2648 -2.4385 -0.3697
 2751TIP3   OH229811   2.955   0.363   1.701 -0.2799 -0.5766 -0.2386
 2751TIP3    H129812   3.024   0.317   1.653  1.8604 -0.6171  2.5412
 2751TIP3    H229813   2.998   0.444   1.731 -2.0679  0.3264 -0.0195
 2752TIP3   OH229814   2.699   6.103   0.684  0.0408  0.2736 -0.3763
 2752TIP3    H129815   2.756   6.073   0.754 -1.5641 -0.5387  0.6533
 2752TIP3    H229816   2.752   6.095   0.605  0.9818 -1.5283  0.3811
 2753TIP3   OH229817   5.146   5.500   3.284 -0.3786  0.1082 -0.2916
 2753TIP3    H129818   5.236   5.492   3.251  0.3123  1.4928  1.1634
 2753TIP3    H229819   5.115   5.583   3.248 -1.6741 -1.0721 -2.0436
 2754TIP3   OH229820   1.719   0.187   1.391  0.4624  0.8102  0.2969
 2754TIP3    H129821   1.795   0.221   1.439  1.3771 -1.0921  0.2646
 2754TIP3    H229822   1.669   0.138   1.456  0.2147  0.5436 -0.0928
 2755TIP3   OH229823   4.231   2.414   2.770  0.3544 -0.1240 -0.0325
 2755TIP3    H129824   4.236   2.446   2.680  0.4122 -0.2343 -0.0691
 2755TIP3    H229825   4.275   2.329   2.768 -1.5093 -1.1286 -0.3538
 2756TIP3   OH229826   3.463   1.067   4.522  0.3815  0.2127  0.0490
 2756TIP3    H129827   3.496   0.995   4.468  3.6646  0.7297  1.1387
 2756TIP3    H229828   3.401   1.026   4.582 -1.6279 -0.7483 -2.5032
 2757TIP3   OH229829   3.849   2.093   1.071  0.4617  0.1020  0.3462
 2757TIP3    H129830   3.799   2.129   1.145  1.0668 -0.2514  0.9373
 2757TIP3    H229831   3.937   2.081   1.105  0.5445 -0.8814 -0.1741
 2758TIP3   OH229832   1.541   6.091   0.427 -0.2328  0.2224  0.1498
 2758TIP3    H129833   1.579   6.027   0.366  0.1642  0.9529 -0.3926
 2758TIP3    H229834   1.449   6.097   0.402 -0.0869  0.4690 -0.3427
 2759TIP3   OH229835   4.696   4.476   0.766  0.7280  0.1624  0.4996
 2759TIP3    H129836   4.771   4.518   0.724  0.7052 -0.4649 -0.2007
 2759TIP3    H229837   4.646   4.547   0.806  1.4496  0.6302  0.5783
 2760TIP3   OH229838   1.977   6.788   3.987  0.1060 -0.1644  0.1911
 2760TIP3    H129839   1.910   6.832   3.935 -0.1710  0.6936  1.2242
 2760TIP3    H229840   1.931   6.761   4.067  0.4258 -1.7860 -0.1386
 2761TIP3   OH229841   5.498   2.731   1.277 -0.1594 -0.2264  0.6391
 2761TIP3    H129842   5.524   2.656   1.223  1.0634  0.9509 -0.5163
 2761TIP3    H229843   5.471   2.693   1.360 -1.8505 -2.1125 -0.6694
 2762TIP3   OH229844   4.559   4.897   3.034  0.2046  0.4033 -0.5798
 2762TIP3    H129845   4.474   4.942   3.032  1.0572  2.2151  0.6848
 2762TIP3    H229846   4.575   4.872   2.943 -1.8834 -0.4257 -0.7801
 2763TIP3   OH229847   0.744   4.015   1.625  0.0509 -0.1105  0.2378
 2763TIP3    H129848   0.704   4.029   1.539  2.3529 -0.5009 -0.9991
 2763TIP3    H229849   0.795   4.094   1.641  0.2982 -0.3847  0.8319
 2764TIP3   OH229850   3.495   6.527   2.703  0.4436  0.1576  0.1461
 2764TIP3    H129851   3.465   6.520   2.793  1.4601 -1.4452  0.4119
 2764TIP3    H229852   3.591   6.528   2.710  0.5836  3.1126 -0.7690
 2765TIP3   OH229853   5.468   5.821   2.621 -0.3413  0.8650 -0.3932
 2765TIP3    H129854   5.386   5.771   2.626 -1.2643  2.3312  0.0031
 2765TIP3    H229855   5.500   5.822   2.711 -0.0031  0.4897 -0.5076
 2766TIP3   OH229856   3.617   6.107   3.564 -0.0290 -0.2115 -0.2314
 2766TIP3    H129857   3.582   6.080   3.649 -0.2906 -1.3559 -0.6767
 2766TIP3    H229858   3.577   6.046   3.502 -0.3020  0.9822 -1.2553
 2767TIP3   OH229859   4.884   5.943   4.821 -0.5031  0.2705 -0.2527
 2767TIP3    H129860   4.972   5.949   4.857 -0.1925 -0.4026 -0.8732
 2767TIP3    H229861   4.881   6.011   4.753 -0.0586 -0.4671 -1.0294
 2768TIP3   OH229862   5.096   3.239   2.292 -0.1076  0.1150  0.4672
 2768TIP3    H129863   5.177   3.215   2.247 -0.9821  0.3124 -1.3224
 2768TIP3    H229864   5.045   3.158   2.293 -0.9975  0.6024 -1.0048
 2769TIP3   OH229865   0.367   6.783   0.261 -0.3340 -0.3340  0.8228
 2769TIP3    H129866   0.432   6.854   0.257  0.9264 -1.4951 -1.2559
 2769TIP3    H229867   0.284   6.828   0.274  0.4523  1.5469 -0.2232
 2770TIP3   OH229868   5.943   2.330   2.184 -0.1978 -0.8959  0.2542
 2770TIP3    H129869   5.995   2.404   2.217 -0.8714  0.6148 -1.8371
 2770TIP3    H229870   6.006   2.275   2.139  0.1500 -1.0389  0.9087
 2771TIP3   OH229871   3.198   1.189   3.827 -0.7988  0.2001 -0.2955
 2771TIP3    H129872   3.137   1.149   3.766  0.3499  0.1936 -1.5081
 2771TIP3    H229873   3.238   1.260   3.777 -0.7492  1.0378  0.8902
 2772TIP3   OH229874   1.196   4.831   1.788  0.0284 -0.5903 -0.1830
 2772TIP3    H129875   1.271   4.772   1.774  0.8176 -0.1709  1.9033
 2772TIP3    H229876   1.123   4.772   1.806  0.4862 -0.9796  0.4579
 2773TIP3   OH229877   4.604   4.841   1.284  0.3321 -0.0476 -0.5853
 2773TIP3    H129878   4.600   4.784   1.207  1.5035 -0.6554 -0.2306
 2773TIP3    H229879   4.660   4.793   1.345 -2.6922 -0.9177  1.7851
 2774TIP3   OH229880   0.580   3.772   3.381  0.0764 -0.6149 -0.3940
 2774TIP3    H129881   0.500   3.720   3.380  0.8694 -1.9651  1.4079
 2774TIP3    H229882   0.651   3.708   3.388  1.1192  0.6408  1.3525
 2775TIP3   OH229883   2.244   5.608   2.716  0.1483  0.6967  0.0212
 2775TIP3    H129884   2.339   5.618   2.707  0.2505 -0.1625  0.0490
 2775TIP3    H229885   2.216   5.688   2.759  1.3912 -0.5495  3.5915
 2776TIP3   OH229886   1.972   2.489   2.711  0.8485  0.0654  0.1690
 2776TIP3    H129887   1.993   2.511   2.802  1.5309  1.0162 -0.1989
 2776TIP3    H229888   2.034   2.419   2.689 -0.2094 -1.1175  0.8261
 2777TIP3   OH229889   2.775   1.844   3.383 -0.7784  0.4741  0.7825
 2777TIP3    H129890   2.796   1.813   3.295 -0.6335  0.4045  0.8417
 2777TIP3    H229891   2.783   1.939   3.378  1.1176  0.3788  1.2027
 2778TIP3   OH229892   5.207   0.527   3.302  0.0896  0.2893  0.1300
 2778TIP3    H129893   5.241   0.447   3.343 -1.4738 -0.0567  0.7968
 2778TIP3    H229894   5.234   0.597   3.362  0.4037  0.1343  0.1769
 2779TIP3   OH229895   0.057   2.318   4.486 -0.1867  0.0396  0.3986
 2779TIP3    H129896   0.013   2.268   4.554 -0.6745  0.4542  0.3956
 2779TIP3    H229897   0.067   2.256   4.413  3.7290 -1.5957  2.0713
 2780TIP3   OH229898   6.549   6.034   1.038  0.3872 -0.1285 -0.0793
 2780TIP3    H129899   6.495   6.102   0.997  1.5925  0.6564 -0.4416
 2780TIP3    H229900   6.534   6.045   1.132  0.5847  0.6603 -0.1343
 2781TIP3   OH229901   0.519   5.374   0.555 -0.0704  0.6261 -0.0336
 2781TIP3    H129902   0.449   5.433   0.529 -1.5040 -1.1673 -0.4362
 2781TIP3    H229903   0.522   5.308   0.486  1.9858  0.6066  0.0174
 2782TIP3   OH229904   4.350   2.761   0.747 -0.3629  0.2394 -0.2726
 2782TIP3    H129905   4.260   2.788   0.765  0.1097  0.8965  1.3311
 2782TIP3    H229906   4.343   2.698   0.676 -2.0163  0.7866 -0.6382
 2783TIP3   OH229907   4.421   0.443   1.528  0.2977 -0.4068  0.1587
 2783TIP3    H129908   4.390   0.430   1.439 -1.3161  1.4023  0.3875
 2783TIP3    H229909   4.467   0.527   1.526 -0.4148  0.0287  1.1472
 2784TIP3   OH229910   0.806   3.585   4.012  0.3635 -0.3944 -0.3881
 2784TIP3    H129911   0.798   3.535   4.094  2.5724  1.6713  1.2522
 2784TIP3    H229912   0.717   3.607   3.988 -0.3752 -1.3971  1.2514
 2785TIP3   OH229913   1.379   5.278   2.634  0.1084  0.4101 -0.0214
 2785TIP3    H129914   1.444   5.220   2.675 -1.3155 -0.4790  1.0976
 2785TIP3    H229915   1.417   5.300   2.550  1.5027 -0.7530  0.2532
 2786TIP3   OH229916   5.722   4.200   2.793 -0.0136  0.6766  0.1011
 2786TIP3    H129917   5.664   4.178   2.721  0.7079 -0.7110 -0.0811
 2786TIP3    H229918   5.751   4.289   2.774 -0.6590  0.7164 -0.7505
 2787TIP3   OH229919   1.924   5.034   1.222 -0.2093  0.5036  0.0467
 2787TIP3    H129920   1.964   4.947   1.215  0.6452  1.0147 -1.9890
 2787TIP3    H229921   1.868   5.042   1.144  1.1241  2.4327 -0.7939
 2788TIP3   OH229922   2.474   2.338   0.385  0.4185 -0.1796 -0.0010
 2788TIP3    H129923   2.416   2.265   0.363  0.4252  0.0418 -0.7807
 2788TIP3    H229924   2.547   2.297   0.431  0.6075 -0.7218 -0.7558
 2789TIP3   OH229925   5.902   3.216   0.675 -0.3541 -0.3295 -0.4149
 2789TIP3    H129926   5.893   3.311   0.675 -0.8892 -0.3791 -0.6721
 2789TIP3    H229927   5.889   3.191   0.583 -0.4112 -0.6684 -0.3149
 2790TIP3   OH229928   2.542   4.756   1.409 -0.0417 -0.4332 -0.1502
 2790TIP3    H129929   2.503   4.756   1.322 -2.1824  0.2505  0.7471
 2790TIP3    H229930   2.531   4.666   1.440 -0.1191 -0.4481 -0.2226
 2791TIP3   OH229931   1.944   3.310   0.635  0.4088  0.1759  0.3141
 2791TIP3    H129932   1.922   3.365   0.710  0.1598  1.5885 -0.7559
 2791TIP3    H229933   2.035   3.283   0.652  0.6464  1.1689  0.7177
 2792TIP3   OH229934   3.553   0.301   3.976  0.3994 -0.3632  0.7618
 2792TIP3    H129935   3.619   0.305   4.046  0.7813  0.5468  0.3689
 2792TIP3    H229936   3.470   0.312   4.021  0.6204 -0.0950  1.1092
 2793TIP3   OH229937   6.276   6.055   1.416  0.2865 -0.1931 -0.0753
 2793TIP3    H129938   6.242   6.081   1.502 -1.6320  0.7712 -1.0586
 2793TIP3    H229939   6.236   6.117   1.355  0.6374 -1.6130 -1.8108
 2794TIP3   OH229940   4.184   1.509   0.528  0.1625 -0.5297  0.1754
 2794TIP3    H129941   4.211   1.494   0.618  3.6111 -0.9206 -0.7653
 2794TIP3    H229942   4.212   1.598   0.508  0.6305 -0.8785 -0.8254
 2795TIP3   OH229943   2.803   6.803   1.160 -0.2020  0.2086  0.2408
 2795TIP3    H129944   2.864   6.843   1.221  2.7183 -1.2435 -1.5276
 2795TIP3    H229945   2.841   6.717   1.141 -3.2131 -1.1158 -0.4566
 2796TIP3   OH229946   0.086   0.759   2.967  0.4675  0.4509 -0.0147
 2796TIP3    H129947   0.111   0.676   2.926 -0.7810  0.3519 -0.6596
 2796TIP3    H229948   0.168   0.800   2.992  1.0970 -1.1515  0.6648
 2797TIP3   OH229949   1.978   2.962   0.539  0.0159 -0.3866  0.1353
 2797TIP3    H129950   1.912   3.029   0.517  0.6493  0.6502  1.2481
 2797TIP3    H229951   2.056   2.989   0.490  0.6520  0.4524  1.5551
 2798TIP3   OH229952   1.235   1.353   1.958  0.2418  0.4227 -0.4473
 2798TIP3    H129953   1.175   1.407   2.010  1.8611  0.4292  1.5420
 2798TIP3    H229954   1.313   1.345   2.013  2.5328  1.3092 -3.3375
 2799TIP3   OH229955   0.217   3.102   2.999 -0.4110 -0.1947  0.0512
 2799TIP3    H129956   0.146   3.125   3.059  0.0092 -0.4042  0.6361
 2799TIP3    H229957   0.251   3.019   3.033  0.0332 -0.1580 -0.3020
 2800TIP3   OH229958   5.700   3.753   0.775  0.2065  0.4059  0.3198
 2800TIP3    H129959   5.789   3.719   0.779 -0.1152 -0.6920 -1.0724
 2800TIP3    H229960   5.676   3.767   0.867  2.1220  1.6339  0.6732
 2801TIP3   OH229961   5.810   4.170   2.046  0.8560 -0.0168  0.3905
 2801TIP3    H129962   5.793   4.220   2.126 -0.0539 -0.0169  0.2168
 2801TIP3    H229963   5.758   4.214   1.979  3.1092  1.1645 -0.6796
 2802TIP3   OH229964   2.801   1.748   0.999  0.2853 -0.6739 -1.1066
 2802TIP3    H129965   2.888   1.712   0.986  1.0558  0.2440  1.0171
 2802TIP3    H229966   2.816   1.832   1.043 -1.6110  0.2806 -2.1247
 2803TIP3   OH229967   2.803   4.774   0.039  0.5594 -0.6549  0.1114
 2803TIP3    H129968   2.781   4.729  -0.042  1.4234  0.1047 -0.5574
 2803TIP3    H229969   2.737   4.843   0.048  1.4964  0.4144 -0.9098
 2804TIP3   OH229970   1.847   0.142   4.413 -0.5827  0.2515  0.5106
 2804TIP3    H129971   1.909   0.077   4.447  1.4679  0.5402 -2.2982
 2804TIP3    H229972   1.881   0.226   4.445 -1.1577  0.2195  1.2206
 2805TIP3   OH229973   2.164   5.898   2.752 -0.0887  0.2345  0.8272
 2805TIP3    H129974   2.095   5.956   2.785  0.6204  1.4187  0.2864
 2805TIP3    H229975   2.152   5.900   2.657 -0.1085 -0.5848  0.8103
 2806TIP3   OH229976   0.233   0.457   0.332  0.5449  0.3806  0.2925
 2806TIP3    H129977   0.153   0.414   0.301  1.1251 -2.2811  2.2117
 2806TIP3    H229978   0.284   0.473   0.252 -1.0732  0.4486 -0.7789
 2807TIP3   OH229979   3.319   2.596   3.090  0.7354 -0.8233  0.0174
 2807TIP3    H129980   3.363   2.677   3.062  0.5858 -1.0986 -1.0471
 2807TIP3    H229981   3.226   2.618   3.091  0.4170 -1.6318 -2.7886
 2808TIP3   OH229982   3.781   1.467   1.102  0.2775  0.2835  0.0255
 2808TIP3    H129983   3.809   1.456   1.012 -1.0464 -1.8126 -0.2156
 2808TIP3    H229984   3.855   1.435   1.154 -0.2706 -1.9888 -0.4842
 2809TIP3   OH229985   4.711   5.031   1.548  0.1096  0.9855  0.0816
 2809TIP3    H129986   4.759   4.964   1.499 -1.3042  0.0895 -0.1310
 2809TIP3    H229987   4.688   4.988   1.630 -0.5676  1.2960  0.0593
 2810TIP3   OH229988   0.833   2.272   2.900  0.4205  0.0735  0.2444
 2810TIP3    H129989   0.872   2.358   2.917 -1.4350  0.8246  0.9516
 2810TIP3    H229990   0.788   2.283   2.816 -1.0313  0.2631  1.0276
 2811TIP3   OH229991   4.428   0.821   1.844  0.2622 -0.0235 -0.6290
 2811TIP3    H129992   4.392   0.896   1.892 -0.2254 -0.7179  0.1197
 2811TIP3    H229993   4.454   0.857   1.759 -1.0879  0.7578 -0.7370
 2812TIP3   OH229994   2.793   3.805   3.159 -0.5335 -0.0397  0.2414
 2812TIP3    H129995   2.889   3.804   3.148 -0.0610  3.3053  2.4617
 2812TIP3    H229996   2.773   3.720   3.198  1.2410 -1.4151 -1.5733
 2813TIP3   OH229997   6.511   5.127   1.188  0.3014 -0.7494  0.0299
 2813TIP3    H129998   6.502   5.087   1.102 -0.7487  0.6857 -0.5747
 2813TIP3    H229999   6.598   5.102   1.218  1.3356  0.0294 -2.1489
 2814TIP3   OH230000   1.153   2.764   3.580 -0.0379 -0.2181 -0.0598
 2814TIP3    H130001   1.150   2.791   3.489 -0.3873 -1.6757 -0.5119
 2814TIP3    H230002   1.106   2.680   3.582  1.3736 -1.0359  1.1456
 2815TIP3   OH230003   6.194   4.190   2.465  0.5829 -0.7414  0.0089
 2815TIP3    H130004   6.213   4.131   2.538  2.0565 -1.3162 -0.7938
 2815TIP3    H230005   6.100   4.181   2.451  0.2852 -0.6993  1.7419
 2816TIP3   OH230006   1.843   6.612   2.923  0.2625  0.4393  0.5767
 2816TIP3    H130007   1.906   6.684   2.918  0.3412  0.3005 -0.7343
 2816TIP3    H230008   1.875   6.558   2.995  0.0232  1.8593  1.7974
 2817TIP3   OH230009   2.087   6.730   3.227 -0.1218 -0.4503 -0.2713
 2817TIP3    H130010   2.072   6.713   3.320  0.5649 -2.0023 -0.4123
 2817TIP3    H230011   2.178   6.760   3.223 -0.5513  0.9186 -0.3207
 2818TIP3   OH230012   5.662   4.143   1.749 -0.1474 -0.4306 -0.3162
 2818TIP3    H130013   5.643   4.212   1.813  0.8836 -2.0030  1.7890
 2818TIP3    H230014   5.582   4.091   1.746  1.0239 -2.6946  2.8883
 2819TIP3   OH230015   5.915   5.211   3.496 -0.1362  0.4069 -0.0087
 2819TIP3    H130016   5.912   5.197   3.591 -1.8983  1.1895  0.0871
 2819TIP3    H230017   5.855   5.147   3.460 -0.9472  1.3523 -0.3982
 2820TIP3   OH230018   5.219   2.859   1.082  0.2244 -0.1483 -0.8803
 2820TIP3    H130019   5.126   2.879   1.090 -0.2146 -2.4331  0.5963
 2820TIP3    H230020   5.221   2.767   1.056  2.0619 -0.5444  0.5115
 2821TIP3   OH230021   6.224   4.722   0.445 -0.0586 -0.6092  0.4060
 2821TIP3    H130022   6.295   4.785   0.437 -0.6279 -0.1511 -1.6868
 2821TIP3    H230023   6.266   4.640   0.470  1.2334 -0.3248 -0.7118
 2822TIP3   OH230024   2.686   1.401   3.042 -0.5937 -0.1273 -0.1436
 2822TIP3    H130025   2.766   1.454   3.045 -2.0718  2.2170  1.1731
 2822TIP3    H230026   2.716   1.315   3.012  2.3480  0.7301 -0.0492
 2823TIP3   OH230027   0.134   3.499   4.030  0.0124  0.4418 -0.5951
 2823TIP3    H130028   0.048   3.526   4.061  0.4708 -0.6374  1.8709
 2823TIP3    H230029   0.120   3.413   3.991 -0.0995  0.4403 -0.5520
 2824TIP3   OH230030   5.414   6.676   1.552 -0.2977 -0.0966  0.4527
 2824TIP3    H130031   5.377   6.606   1.498  0.2242 -0.1930  0.2102
 2824TIP3    H230032   5.468   6.727   1.491  1.1355 -0.8127  1.0751
 2825TIP3   OH230033   4.622   5.134   1.295 -0.5738  0.3458 -1.1690
 2825TIP3    H130034   4.710   5.136   1.256 -0.2756  0.8580 -0.4963
 2825TIP3    H230035   4.634   5.088   1.378 -1.0190  0.0957 -1.2436
 2826TIP3   OH230036   6.673   3.660   2.252 -0.0806  0.5973 -0.0527
 2826TIP3    H130037   6.595   3.682   2.201 -1.1832 -1.5476  0.5751
 2826TIP3    H230038   6.649   3.580   2.299  1.5217  1.4446  2.4119
 2827TIP3   OH230039   4.456   1.966   1.276 -0.2452  0.4235 -0.5505
 2827TIP3    H130040   4.541   2.008   1.293  0.9353 -2.4090  1.4304
 2827TIP3    H230041   4.478   1.888   1.226 -1.7902  0.0320 -0.6591
 2828TIP3   OH230042   4.460   0.604   0.713 -0.1911 -0.2082  0.2198
 2828TIP3    H130043   4.419   0.656   0.645  0.2228  0.5119  0.5172
 2828TIP3    H230044   4.487   0.523   0.669  0.1944  0.3065 -0.4964
 2829TIP3   OH230045   0.318   3.888   1.860  0.2058 -0.4002 -0.0367
 2829TIP3    H130046   0.283   3.848   1.940 -0.0802  0.2153  0.1565
 2829TIP3    H230047   0.399   3.841   1.843  0.1187 -0.7361  0.4537
 2830TIP3   OH230048   2.740   4.431   0.102 -0.3183 -0.2875  0.7444
 2830TIP3    H130049   2.760   4.384   0.021 -1.5239  1.0178 -0.3767
 2830TIP3    H230050   2.817   4.483   0.120 -0.4794  0.3365 -0.2799
 2831TIP3   OH230051   6.323   2.019   1.114 -0.6295  0.2135 -0.0687
 2831TIP3    H130052   6.417   2.033   1.117 -0.6336  0.8695 -1.9172
 2831TIP3    H230053   6.288   2.076   1.182  0.2566  0.2980  0.3346
 2832TIP3   OH230054   4.069   6.175   0.863 -0.6621  0.7692  0.4750
 2832TIP3    H130055   4.007   6.163   0.792  2.4969 -1.1626 -2.2776
 2832TIP3    H230056   4.096   6.267   0.856 -1.7940  1.1198  0.5118
 2833TIP3   OH230057   4.686   0.640   2.665 -0.1338 -0.7374 -0.3256
 2833TIP3    H130058   4.643   0.637   2.579 -0.5551 -0.4866 -0.1221
 2833TIP3    H230059   4.654   0.720   2.705  0.5667 -0.5234 -0.1918
 2834TIP3   OH230060   0.538   0.088   2.358 -0.4574 -0.2674  0.1672
 2834TIP3    H130061   0.445   0.109   2.370 -0.3494  0.9187 -0.8929
 2834TIP3    H230062   0.539  -0.006   2.337 -1.3662 -0.4013  0.6746
 2835TIP3   OH230063   4.877   4.331   0.308 -0.3602 -0.3994  0.0852
 2835TIP3    H130064   4.842   4.247   0.281 -1.4629  0.1496 -0.2651
 2835TIP3    H230065   4.970   4.328   0.285 -0.9962 -0.3948 -2.7953
 2836TIP3   OH230066   6.098   1.855   4.150 -0.5702 -0.7812 -0.4063
 2836TIP3    H130067   6.109   1.812   4.065  0.3992  0.7765 -1.1086
 2836TIP3    H230068   6.125   1.788   4.214  1.9568 -0.9409 -1.5155
 2837TIP3   OH230069   4.925   4.628   0.296 -0.5542  0.1975 -0.0056
 2837TIP3    H130070   4.856   4.565   0.317  0.6253 -1.2860 -0.4251
 2837TIP3    H230071   5.005   4.576   0.295  0.3591  1.5748 -1.1178
 2838TIP3   OH230072   4.685   3.790   0.792  0.4582  0.2748  0.0127
 2838TIP3    H130073   4.719   3.783   0.703 -0.9597 -1.2788 -0.4467
 2838TIP3    H230074   4.606   3.736   0.793  0.1474  0.6574  2.0836
 2839TIP3   OH230075   1.706   5.535   4.670 -0.5124 -0.3750 -0.0609
 2839TIP3    H130076   1.632   5.582   4.631  0.6816  1.3465 -0.3536
 2839TIP3    H230077   1.718   5.459   4.613 -0.7141  0.4968 -1.3237
 2840TIP3   OH230078   4.793   1.354   3.957  0.1208  0.4425  0.3690
 2840TIP3    H130079   4.860   1.418   3.984 -0.9537  1.5108  0.6151
 2840TIP3    H230080   4.839   1.294   3.899  1.0242  1.8801 -0.4679
 2841TIP3   OH230081   0.124   0.400   2.149  0.4307  0.1771 -0.4231
 2841TIP3    H130082   0.208   0.408   2.194  0.0224  0.9246  0.2334
 2841TIP3    H230083   0.080   0.484   2.165 -0.4866 -0.2454 -0.6545
 2842TIP3   OH230084   6.857   6.174   3.337  0.0182 -0.4288 -0.3486
 2842TIP3    H130085   6.860   6.162   3.432  0.0200  0.3258 -0.2471
 2842TIP3    H230086   6.945   6.205   3.314 -0.2926  0.4423 -0.4310
 2843TIP3   OH230087   6.237   0.462   3.428 -0.2098 -0.0376  0.3974
 2843TIP3    H130088   6.257   0.549   3.463 -0.2265 -0.3159  1.1099
 2843TIP3    H230089   6.313   0.409   3.451  0.5915  0.1740 -1.5303
 2844TIP3   OH230090   1.187   1.037   0.280  0.0056  0.1131 -0.3120
 2844TIP3    H130091   1.194   1.033   0.184 -0.8166 -0.2702 -0.3603
 2844TIP3    H230092   1.225   1.122   0.303  0.7124 -0.0183 -0.9242
 2845TIP3   OH230093   3.100   4.009   2.695 -0.6673 -0.1352  0.3178
 2845TIP3    H130094   3.040   3.974   2.630 -0.7746 -0.1309  0.4122
 2845TIP3    H230095   3.049   4.011   2.776 -0.4307 -0.4522  0.4749
 2846TIP3   OH230096   0.597   5.591   1.018  0.0989 -0.2290  0.5730
 2846TIP3    H130097   0.676   5.634   1.051  0.0014 -0.1685  0.7310
 2846TIP3    H230098   0.558   5.656   0.959 -0.6001  0.3177  1.6141
 2847TIP3   OH230099   6.125   6.383   0.489  0.1948 -0.6009 -0.0135
 2847TIP3    H130100   6.123   6.466   0.441  0.3158 -1.0486 -0.8227
 2847TIP3    H230101   6.120   6.408   0.581  2.1005  0.4403 -0.1212
 2848TIP3   OH230102   2.145   1.716   3.287 -0.0818 -0.1855 -0.0031
 2848TIP3    H130103   2.094   1.660   3.345 -0.1546 -0.8505 -0.6878
 2848TIP3    H230104   2.236   1.707   3.318  0.0987 -1.7069 -0.8747
 2849TIP3   OH230105   1.242   5.304   0.270 -0.5693 -0.6595 -0.6853
 2849TIP3    H130106   1.309   5.287   0.204  0.4692 -1.2240  0.4967
 2849TIP3    H230107   1.174   5.352   0.222  1.1562  0.9412 -1.6792
 2850TIP3   OH230108   6.303   5.191   3.920 -0.1894  0.3733  0.0575
 2850TIP3    H130109   6.239   5.252   3.883  0.1643 -0.2230 -1.6215
 2850TIP3    H230110   6.345   5.240   3.990 -1.0604  1.4839 -0.1689
 2851TIP3   OH230111   5.588   1.079   0.521  0.3756  0.0521 -0.4462
 2851TIP3    H130112   5.524   1.008   0.528 -0.0910  0.6551  4.3002
 2851TIP3    H230113   5.672   1.038   0.545  0.4567  0.6535  0.3430
 2852TIP3   OH230114   2.145   4.062   3.091 -0.1371 -0.8594 -0.0367
 2852TIP3    H130115   2.238   4.041   3.081 -0.2135 -1.5447  0.5550
 2852TIP3    H230116   2.144   4.134   3.154  0.1338  1.0611 -2.1329
 2853TIP3   OH230117   5.695   4.205   0.599 -0.0026 -0.5464  0.0533
 2853TIP3    H130118   5.670   4.135   0.539  0.6081 -0.0607 -0.7906
 2853TIP3    H230119   5.685   4.167   0.687 -0.3477 -1.4531 -0.3714
 2854TIP3   OH230120   1.151   6.753   3.570  0.1394 -0.5367 -0.0600
 2854TIP3    H130121   1.075   6.812   3.576 -1.0175 -2.0853  1.4228
 2854TIP3    H230122   1.227   6.812   3.575 -0.9637  0.9393  0.0916
 2855TIP3   OH230123   5.774   4.717   2.799 -0.3841  0.2383  0.2194
 2855TIP3    H130124   5.864   4.745   2.787  0.2569 -0.7861  2.2341
 2855TIP3    H230125   5.730   4.742   2.717  1.2143  2.5941 -0.0267
 2856TIP3   OH230126   2.572   6.454   0.152  0.1787  0.3851 -0.0511
 2856TIP3    H130127   2.557   6.478   0.060  0.7399  0.9866  0.0078
 2856TIP3    H230128   2.666   6.467   0.165 -0.0111  0.9396  0.7904
 2857TIP3   OH230129   2.742   5.459   0.746 -0.0173  0.6949  0.4004
 2857TIP3    H130130   2.709   5.503   0.668  0.1925  0.5223  0.2129
 2857TIP3    H230131   2.773   5.374   0.715  0.2775  0.7146  0.6311
 2858TIP3   OH230132   3.628   0.911   2.287  0.2599 -0.0844 -0.3797
 2858TIP3    H130133   3.643   0.816   2.294  2.8627  0.3247  0.6503
 2858TIP3    H230134   3.567   0.930   2.358  0.1275 -0.9183 -0.2555
 2859TIP3   OH230135   2.334   2.507   1.678  0.2134  0.3231 -0.2806
 2859TIP3    H130136   2.328   2.428   1.624 -2.5272 -0.0480  0.4354
 2859TIP3    H230137   2.401   2.486   1.743  1.1327 -0.5062 -1.4564
 2860TIP3   OH230138   0.059   1.648   3.356  0.1688 -0.5567 -0.4845
 2860TIP3    H130139   0.153   1.633   3.364  0.1946  0.4879  2.3432
 2860TIP3    H230140   0.018   1.566   3.383  0.3482 -0.0318  1.6132
 2861TIP3   OH230141   2.041   2.842   0.789  0.0047 -0.4748 -0.2905
 2861TIP3    H130142   2.119   2.792   0.763  0.5877 -0.2817  1.0082
 2861TIP3    H230143   2.024   2.900   0.716  1.3084 -0.2691 -0.4479
 2862TIP3   OH230144   5.451   2.222   0.367  0.3040  0.0003  0.3029
 2862TIP3    H130145   5.523   2.161   0.353 -1.9179 -2.5055 -1.3896
 2862TIP3    H230146   5.399   2.183   0.437  0.0870  1.2366  0.8459
 2863TIP3   OH230147   0.288   2.391   0.799 -0.5206 -0.3069  0.0941
 2863TIP3    H130148   0.215   2.445   0.767  0.6692  1.3348  0.0248
 2863TIP3    H230149   0.361   2.414   0.742  0.6555 -0.1422  1.6208
 2864TIP3   OH230150   4.795   5.531   2.063  0.0315 -0.1043  0.4941
 2864TIP3    H130151   4.738   5.575   2.126  1.2932  2.4330  0.0307
 2864TIP3    H230152   4.842   5.466   2.114  0.0523  0.9733  1.9154
 2865TIP3   OH230153   1.672   0.752   4.704 -0.2962  0.1348  0.3546
 2865TIP3    H130154   1.750   0.802   4.728 -0.6130  0.1970  1.3121
 2865TIP3    H230155   1.696   0.705   4.624  1.4321 -1.4611  1.7221
 2866TIP3   OH230156   4.059   3.916   3.881  0.4099  0.6959  0.2909
 2866TIP3    H130157   4.106   3.985   3.929  1.9053 -1.3366  1.9745
 2866TIP3    H230158   4.008   3.871   3.949  0.9145 -0.9439 -0.3509
 2867TIP3   OH230159   6.819   0.600   0.128 -0.3725  0.2379 -0.3428
 2867TIP3    H130160   6.774   0.515   0.137  1.0878 -0.6125 -0.7330
 2867TIP3    H230161   6.748   0.664   0.126 -1.5942 -1.0655 -1.2074
 2868TIP3   OH230162   1.602   3.351   1.160  0.1048  0.4080  0.2977
 2868TIP3    H130163   1.605   3.396   1.075 -0.4450  0.5311  0.3384
 2868TIP3    H230164   1.522   3.383   1.201 -1.4584 -2.1266 -0.5240
 2869TIP3   OH230165   3.553   6.257   0.821  0.1091 -0.0945 -0.3750
 2869TIP3    H130166   3.514   6.333   0.865  1.2721  0.6845 -0.6362
 2869TIP3    H230167   3.524   6.182   0.873  0.5033  0.6925  1.0428
 2870TIP3   OH230168   6.030   5.512   3.003 -0.4019  0.3434 -0.4564
 2870TIP3    H130169   5.947   5.472   2.978 -0.1699 -1.3265  1.1780
 2870TIP3    H230170   6.023   5.525   3.097  0.8580  1.0072 -0.4304
 2871TIP3   OH230171   4.153   5.181   1.449 -0.0302 -0.1420 -0.3502
 2871TIP3    H130172   4.206   5.135   1.384  0.3690  0.1920 -0.2608
 2871TIP3    H230173   4.213   5.244   1.489 -0.4207  0.0441 -0.0541
 2872TIP3   OH230174   4.858   5.612   1.598  1.0118  0.0857  0.2519
 2872TIP3    H130175   4.826   5.696   1.564  0.1355 -0.5327 -0.4896
 2872TIP3    H230176   4.848   5.551   1.525  0.5568 -0.9234  1.1249
 2873TIP3   OH230177   3.977   2.669   1.365 -0.0329 -0.1302  0.7040
 2873TIP3    H130178   3.983   2.716   1.282 -1.7164  1.0279  1.1874
 2873TIP3    H230179   4.062   2.626   1.374  1.3938  2.3467 -0.0585
 2874TIP3   OH230180   3.009   4.527   2.248 -0.4043  0.2777  0.3590
 2874TIP3    H130181   2.921   4.530   2.210  0.1788  2.0394 -0.9832
 2874TIP3    H230182   3.026   4.617   2.276  1.0981  0.0370  0.2901
 2875TIP3   OH230183   6.327   5.060   0.486 -0.2676  0.4376  0.5568
 2875TIP3    H130184   6.252   5.081   0.542 -0.8993 -2.5783  0.9824
 2875TIP3    H230185   6.381   5.002   0.539  1.1421  0.6252 -0.6127
 2876TIP3   OH230186   4.865   0.021   2.237 -0.7828  0.3802 -0.0257
 2876TIP3    H130187   4.918   0.060   2.167 -1.2070  1.0024  0.0035
 2876TIP3    H230188   4.859  -0.072   2.213 -1.2248  0.6570 -1.0010
 2877TIP3   OH230189   1.359   6.921   4.012 -0.3088  0.1482 -0.2232
 2877TIP3    H130190   1.450   6.951   4.023 -0.0942 -0.2181 -0.9330
 2877TIP3    H230191   1.336   6.949   3.923 -0.8119  0.0412 -0.1254
 2878TIP3   OH230192   2.733   6.786   1.488 -0.0915 -0.3234  0.3645
 2878TIP3    H130193   2.667   6.819   1.549  0.5414 -0.4762  1.1531
 2878TIP3    H230194   2.694   6.707   1.450 -0.9859  0.4457 -0.3659
 2879TIP3   OH230195   5.864   5.314   0.610  0.2383  0.4303  0.0911
 2879TIP3    H130196   5.884   5.220   0.611  0.0322  0.3850  0.1536
 2879TIP3    H230197   5.827   5.328   0.522  2.6805  0.9813 -0.9184
 2880TIP3   OH230198   1.301   1.115   1.792  0.0613 -0.0219 -0.1662
 2880TIP3    H130199   1.293   1.189   1.851  1.7586  2.5985 -2.9238
 2880TIP3    H230200   1.214   1.104   1.754  0.1064  1.7623 -0.9062
 2881TIP3   OH230201   0.914   1.139   3.719 -0.1518  0.4184 -0.7704
 2881TIP3    H130202   0.998   1.181   3.702  0.0789 -0.7721 -2.9032
 2881TIP3    H230203   0.918   1.115   3.812  2.3677 -0.6374 -1.0727
 2882TIP3   OH230204   0.405   4.170   3.232  0.4121  0.5297 -0.7242
 2882TIP3    H130205   0.430   4.184   3.324  1.3042 -0.9455 -0.7180
 2882TIP3    H230206   0.482   4.196   3.182  0.7657 -0.8276 -0.9061
 2883TIP3   OH230207   1.880   6.655   0.577  0.2683 -0.2899 -0.2365
 2883TIP3    H130208   1.883   6.729   0.638 -0.1820 -0.5667  0.1279
 2883TIP3    H230209   1.869   6.695   0.491 -1.1159  0.0319  0.0703
 2884TIP3   OH230210   1.354   6.002   1.224  0.5200 -0.1665  0.5151
 2884TIP3    H130211   1.356   6.080   1.169 -0.1743  0.8103  1.8145
 2884TIP3    H230212   1.318   5.933   1.168  0.8087  0.5247 -0.5388
 2885TIP3   OH230213   6.613   2.066   1.892 -0.1310  0.0200 -0.0123
 2885TIP3    H130214   6.602   2.014   1.812 -0.0103 -0.5596  0.3379
 2885TIP3    H230215   6.526   2.103   1.908 -0.6696 -1.4112  0.6246
 2886TIP3   OH230216   0.621   5.911   1.714  0.6068 -0.6059 -0.2908
 2886TIP3    H130217   0.654   5.830   1.751  0.2106 -0.4837  0.3426
 2886TIP3    H230218   0.540   5.886   1.668 -1.2646 -0.1400  2.5194
 2887TIP3   OH230219   2.595   2.027   4.070  0.0393  0.2102 -0.2818
 2887TIP3    H130220   2.524   2.013   4.133  0.5141 -0.8174  0.0476
 2887TIP3    H230221   2.675   2.018   4.122  0.4302  1.4431 -0.6310
 2888TIP3   OH230222   4.306   5.236   0.391 -0.0915  0.4246 -0.4580
 2888TIP3    H130223   4.345   5.153   0.364 -0.6563  0.3159 -0.9690
 2888TIP3    H230224   4.253   5.263   0.316 -0.3779  0.9524 -0.0751
 2889TIP3   OH230225   2.155   1.763   1.123 -0.0479 -0.4785  0.0673
 2889TIP3    H130226   2.206   1.686   1.146 -0.1549 -0.5836 -0.0477
 2889TIP3    H230227   2.075   1.756   1.176 -0.7109 -1.1964 -1.0029
 2890TIP3   OH230228   6.234   5.355   4.355 -0.8966 -0.2452 -0.0752
 2890TIP3    H130229   6.194   5.441   4.373 -1.0036 -0.4938  0.9066
 2890TIP3    H230230   6.220   5.305   4.435 -1.5256 -1.4589 -0.9069
 2891TIP3   OH230231   0.405   0.979   1.273 -0.2305 -0.3108  0.1396
 2891TIP3    H130232   0.417   0.905   1.213  1.4508 -0.5106  0.6644
 2891TIP3    H230233   0.430   0.944   1.359  5.4109  1.9010 -0.1839
 2892TIP3   OH230234   2.985   5.590   0.561  0.3202 -0.4363 -0.1671
 2892TIP3    H130235   3.052   5.542   0.610 -0.9187 -2.6611 -0.4908
 2892TIP3    H230236   3.020   5.597   0.473  0.5003 -0.8196 -0.1280
 2893TIP3   OH230237   1.039   1.852   1.846 -0.1968 -0.2610 -0.2185
 2893TIP3    H130238   1.109   1.875   1.906  1.0644 -0.0872 -1.6875
 2893TIP3    H230239   0.967   1.823   1.902  0.5274  0.9179  1.3915
 2894TIP3   OH230240   2.325   2.796   1.701 -0.1310 -0.0740  0.0069
 2894TIP3    H130241   2.259   2.808   1.770  0.4898 -2.2238  1.0867
 2894TIP3    H230242   2.338   2.701   1.698  1.9208  0.1934 -1.1492
 2895TIP3   OH230243   3.774   5.655   1.474 -0.3168 -0.7406  0.0773
 2895TIP3    H130244   3.851   5.677   1.422  0.7904 -0.0396  1.9471
 2895TIP3    H230245   3.702   5.700   1.429  0.9129  1.5266  0.2226
 2896TIP3   OH230246   6.623   1.355   2.934  0.4882  0.0667 -0.0343
 2896TIP3    H130247   6.668   1.372   3.017 -0.2647 -1.6222  0.7795
 2896TIP3    H230248   6.559   1.426   2.926 -1.0442 -0.9480  2.0724
 2897TIP3   OH230249   6.548   5.492   0.761  0.2918  0.6491  0.1535
 2897TIP3    H130250   6.607   5.560   0.730  1.5154  0.2971  1.5987
 2897TIP3    H230251   6.583   5.466   0.847 -1.9107  0.3663  1.0496
 2898TIP3   OH230252   3.640   5.702   2.904 -0.4661  0.1425  0.3853
 2898TIP3    H130253   3.579   5.742   2.842 -0.5022  0.3739  0.5677
 2898TIP3    H230254   3.713   5.764   2.910  0.6150 -0.8999 -1.1143
 2899TIP3   OH230255   0.471   4.631   2.499  0.1263 -0.5338  0.6780
 2899TIP3    H130256   0.433   4.647   2.585  0.0649 -2.3424  1.0323
 2899TIP3    H230257   0.403   4.585   2.450  0.7021 -0.8890  0.1873
 2900TIP3   OH230258   3.089   1.316   1.105 -0.9484  0.2839 -0.0390
 2900TIP3    H130259   3.043   1.296   1.023 -1.7521  1.8501  0.0009
 2900TIP3    H230260   3.110   1.409   1.100 -1.4181  0.5336  1.7179
 2901TIP3   OH230261   3.055   3.637   2.348  0.1235  0.2812  0.0338
 2901TIP3    H130262   3.085   3.639   2.439 -0.6870  0.1705  0.3190
 2901TIP3    H230263   3.063   3.545   2.323  0.4785  0.3353 -0.0556
 2902TIP3   OH230264   1.342   5.322   2.023  0.0274  0.6228  0.0531
 2902TIP3    H130265   1.309   5.242   1.982  0.0834  0.2639  0.6920
 2902TIP3    H230266   1.264   5.364   2.060  0.1463  0.2498  0.7504
 2903TIP3   OH230267   1.531   0.485   0.673  0.2382  0.4834 -0.3047
 2903TIP3    H130268   1.529   0.570   0.630 -0.2910  0.2690 -0.7157
 2903TIP3    H230269   1.624   0.463   0.678  0.2864  0.1131 -2.1646
 2904TIP3   OH230270   5.505   5.288   4.364 -0.1878 -0.1303 -0.3096
 2904TIP3    H130271   5.418   5.315   4.333 -0.5534 -1.6845 -0.7590
 2904TIP3    H230272   5.522   5.206   4.317  2.4148  1.1290 -1.7629
 2905TIP3   OH230273   4.026   5.407   3.261 -0.5022  0.1459  0.2255
 2905TIP3    H130274   3.975   5.470   3.208  0.2579  0.8036  0.2615
 2905TIP3    H230275   4.108   5.397   3.213  0.1629  0.6869  1.2276
 2906TIP3   OH230276   3.661   3.610   2.164  0.2702 -0.9981 -0.0342
 2906TIP3    H130277   3.656   3.653   2.249 -0.2825  1.0073 -1.0178
 2906TIP3    H230278   3.590   3.545   2.166 -1.1242  0.4677  0.3142
 2907TIP3   OH230279   3.053   4.122   1.678  0.2462  0.6271  0.2420
 2907TIP3    H130280   3.064   4.172   1.597 -0.9972 -0.1162 -0.4329
 2907TIP3    H230281   3.025   4.187   1.743  0.6820  1.1392 -0.0797
 2908TIP3   OH230282   3.122   3.025   1.599 -0.0619  0.4384 -0.4200
 2908TIP3    H130283   3.180   3.073   1.658 -1.3037  1.3492  0.1301
 2908TIP3    H230284   3.149   3.050   1.511  0.1117  1.1558 -0.1631
 2909TIP3   OH230285   1.110   6.926   2.996 -0.4218 -0.1332  0.1650
 2909TIP3    H130286   1.102   6.890   3.084 -0.3977 -0.7771 -0.0915
 2909TIP3    H230287   1.195   6.970   2.996 -0.1565 -0.6377  0.2894
 2910TIP3   OH230288   4.563   1.439   2.743  0.0151  0.2431 -0.5900
 2910TIP3    H130289   4.499   1.376   2.711 -0.3898 -1.1685  2.6066
 2910TIP3    H230290   4.646   1.392   2.740  0.1909  0.5627 -0.7754
 2911TIP3   OH230291   0.984   5.284   4.930 -0.0058  0.3165  0.1307
 2911TIP3    H130292   0.903   5.276   4.880 -0.0750  2.3408 -0.1583
 2911TIP3    H230293   1.037   5.346   4.880  0.6862  0.9522  1.5871
 2912TIP3   OH230294   2.689   6.476   0.682  0.0331  0.1246 -0.2004
 2912TIP3    H130295   2.695   6.532   0.760  0.6285 -0.5784  0.2728
 2912TIP3    H230296   2.624   6.409   0.706 -0.3421  0.3415 -0.5959
 2913TIP3   OH230297   2.515   6.795   0.165  0.4064  0.6215 -0.1274
 2913TIP3    H130298   2.581   6.732   0.137 -0.5560 -0.6093  0.3089
 2913TIP3    H230299   2.461   6.809   0.088 -1.5691 -1.9183  0.6684
 2914TIP3   OH230300   0.946   3.231   3.849  0.0074  0.4778 -0.4037
 2914TIP3    H130301   0.993   3.305   3.811  0.6801  0.5651  0.5435
 2914TIP3    H230302   0.936   3.169   3.777 -0.2012  1.3183 -1.1086
 2915TIP3   OH230303   2.436   2.008   2.276  0.8770  0.1264 -0.8128
 2915TIP3    H130304   2.346   1.998   2.308 -0.3594 -0.5601 -4.0598
 2915TIP3    H230305   2.491   2.000   2.354 -1.8545  0.6981  1.3171
 2916TIP3   OH230306   5.949   0.109   1.965  0.4539 -0.2347  0.4853
 2916TIP3    H130307   5.867   0.066   1.939  0.8001 -0.6726  0.1001
 2916TIP3    H230308   5.958   0.181   1.903 -0.5668  0.9553  1.6637
 2917TIP3   OH230309   2.066   6.493   0.460  0.0386 -0.4077 -0.5447
 2917TIP3    H130310   2.005   6.552   0.504 -0.4180 -0.2626 -1.3468
 2917TIP3    H230311   2.118   6.456   0.531 -0.5297 -0.0220  0.0960
 2918TIP3   OH230312   0.614   4.304   3.067  0.1135 -0.4561  0.3814
 2918TIP3    H130313   0.571   4.312   2.981  1.0590 -1.7978 -0.2678
 2918TIP3    H230314   0.691   4.249   3.050  1.5346  1.0089  1.6991
 2919TIP3   OH230315   1.147   5.120   2.912  0.1313  0.0388  0.2470
 2919TIP3    H130316   1.113   5.060   2.979 -0.1428  1.9125  1.8998
 2919TIP3    H230317   1.087   5.111   2.839 -1.0787 -0.2476  1.2298
 2920TIP3   OH230318   3.989   0.685   0.913  0.5228  0.2454  0.1866
 2920TIP3    H130319   3.903   0.680   0.873  1.0293 -0.0539 -0.8971
 2920TIP3    H230320   4.050   0.674   0.840  1.5152  2.3124  0.6269
 2921TIP3   OH230321   4.412   3.937   3.640  0.1133 -0.6768  0.3159
 2921TIP3    H130322   4.427   3.953   3.733  2.5967  1.5153 -0.3513
 2921TIP3    H230323   4.430   3.843   3.630 -0.2100 -0.9627  2.0063
 2922TIP3   OH230324   5.968   1.425   2.487  0.1409 -0.1041  0.1297
 2922TIP3    H130325   5.982   1.380   2.570  3.8407  2.4437  1.1132
 2922TIP3    H230326   6.030   1.384   2.427 -0.0818  0.3472 -0.4123
 2923TIP3   OH230327   6.787   5.023   0.838  0.1328 -0.3114 -0.6676
 2923TIP3    H130328   6.870   5.068   0.856  1.5805 -2.0098 -2.5742
 2923TIP3    H230329   6.805   4.931   0.858 -1.6656 -0.5817 -0.1289
 2924TIP3   OH230330   1.584   6.099   1.673 -0.2576  0.8738 -0.1836
 2924TIP3    H130331   1.586   6.008   1.644  1.4956  0.8846 -0.2001
 2924TIP3    H230332   1.515   6.102   1.739  0.1128 -0.6244  0.3100
 2925TIP3   OH230333   3.236   6.398   4.161  0.0636  0.2142 -0.3006
 2925TIP3    H130334   3.275   6.312   4.148 -1.1401 -0.5279  0.7938
 2925TIP3    H230335   3.154   6.395   4.111 -0.4692  0.3616  0.5534
 2926TIP3   OH230336   5.028   2.612   3.329  0.0445 -0.0089 -0.1038
 2926TIP3    H130337   4.949   2.558   3.342 -0.1896  0.3326 -0.0871
 2926TIP3    H230338   5.055   2.636   3.417  1.1004 -1.4341 -0.0058
 2927TIP3   OH230339   4.542   6.269   1.806  1.0020 -0.6475 -0.6069
 2927TIP3    H130340   4.502   6.252   1.721  0.7915  0.4129 -0.7378
 2927TIP3    H230341   4.626   6.311   1.785  1.1672 -0.8182 -0.2951
 2928TIP3   OH230342   2.060   6.554   4.506 -0.0767 -0.0443 -0.0760
 2928TIP3    H130343   2.119   6.515   4.570 -0.4009  0.3631  0.4820
 2928TIP3    H230344   1.994   6.487   4.490  0.3449 -0.3795 -0.4591
 2929TIP3   OH230345   2.802   2.328   4.476 -0.1061  0.5939 -0.1093
 2929TIP3    H130346   2.731   2.385   4.507  0.2256  0.9646 -0.0169
 2929TIP3    H230347   2.858   2.385   4.424 -2.3084 -0.6509 -4.2040
 2930TIP3   OH230348   1.234   0.567   3.007 -0.4823  0.1678 -0.1265
 2930TIP3    H130349   1.270   0.479   2.998  0.2084  0.6766 -4.0405
 2930TIP3    H230350   1.141   0.558   2.985 -0.3531  0.4347 -0.8032
 2931TIP3   OH230351   3.074   6.744   2.283 -1.1380 -0.3065 -0.0305
 2931TIP3    H130352   3.051   6.673   2.342  1.1588 -1.2630 -0.1499
 2931TIP3    H230353   3.142   6.793   2.330 -0.7368  0.1284 -1.0320
 2932TIP3   OH230354   0.039   1.963   1.588  0.1675  0.1503  0.1369
 2932TIP3    H130355   0.014   1.974   1.497  1.9567 -2.0998 -0.7291
 2932TIP3    H230356  -0.023   1.899   1.623 -0.1808  0.5964  0.3352
 2933TIP3   OH230357   6.674   5.995   3.251  0.2259  0.0502 -0.0516
 2933TIP3    H130358   6.739   6.061   3.276  1.1593  0.2112 -2.5969
 2933TIP3    H230359   6.721   5.912   3.253 -0.1927 -0.1774  0.5221
 2934TIP3   OH230360   3.570   0.903   4.068 -0.5819 -0.3644  0.5547
 2934TIP3    H130361   3.532   0.981   4.029 -2.3057 -0.1593  2.5183
 2934TIP3    H230362   3.583   0.925   4.160  2.1456 -1.2661  0.4845
 2935TIP3   OH230363   3.040   1.338   0.789  0.0845 -0.0638  0.1189
 2935TIP3    H130364   2.950   1.368   0.786  0.9056  2.6231 -2.1264
 2935TIP3    H230365   3.050   1.284   0.710  0.6071  0.2637 -0.0453
 2936TIP3   OH230366   0.288   2.762   0.159  0.4759 -0.1504 -0.3007
 2936TIP3    H130367   0.336   2.843   0.144 -0.3719 -0.0409 -3.0946
 2936TIP3    H230368   0.210   2.788   0.208  2.1755 -0.0284  2.5062
 2937TIP3   OH230369   6.391   4.352   2.061 -0.1494  0.3625 -0.6610
 2937TIP3    H130370   6.409   4.376   1.970 -0.1007 -1.8380 -1.2847
 2937TIP3    H230371   6.473   4.313   2.092 -0.2279  0.9295  0.2796
 2938TIP3   OH230372   4.378   4.760   2.701  0.3311  0.1779  0.1104
 2938TIP3    H130373   4.293   4.793   2.671  0.1590 -0.0566  0.3383
 2938TIP3    H230374   4.432   4.838   2.712  0.9133  0.2146 -2.3157
 2939TIP3   OH230375   1.764   1.675   2.908 -0.0955 -0.5890 -0.5978
 2939TIP3    H130376   1.762   1.582   2.885  2.2243 -0.5196 -1.3404
 2939TIP3    H230377   1.742   1.719   2.826  0.1421 -0.4780 -0.6030
 2940TIP3   OH230378   0.686   2.943   0.626  0.8013 -0.3299 -0.1332
 2940TIP3    H130379   0.639   2.973   0.549  1.0384  1.1270  0.2646
 2940TIP3    H230380   0.635   2.975   0.700  1.8092  0.3077  0.3023
 2941TIP3   OH230381   5.344   6.604   3.529  0.1822 -0.1327 -0.3949
 2941TIP3    H130382   5.365   6.615   3.437 -1.2130 -0.2679 -0.7525
 2941TIP3    H230383   5.408   6.660   3.575  0.8888 -0.0632 -1.4217
 2942TIP3   OH230384   0.056   4.285   2.410 -0.0269 -0.0868  0.1741
 2942TIP3    H130385  -0.022   4.275   2.357  0.4581  1.2318 -0.8560
 2942TIP3    H230386   0.025   4.280   2.501 -1.3596  0.7799 -0.2090
 2943TIP3   OH230387   0.669   1.947   2.218  0.6355 -0.4368  0.1633
 2943TIP3    H130388   0.748   1.894   2.216 -0.2784 -1.8872  0.6778
 2943TIP3    H230389   0.643   1.957   2.127  1.0553 -0.5163  0.0366
 2944TIP3   OH230390   3.159   0.416   2.807 -0.7644  0.0494  0.2393
 2944TIP3    H130391   3.153   0.322   2.795 -0.0743 -0.0799  0.8576
 2944TIP3    H230392   3.252   0.436   2.799 -0.9907  0.8169 -0.7892
 2945TIP3   OH230393   2.926   1.425   4.279  0.0800 -0.0572 -0.2879
 2945TIP3    H130394   2.847   1.441   4.330 -0.9882  0.8980 -2.1460
 2945TIP3    H230395   2.973   1.508   4.280  0.9346 -0.5238  0.5252
 2946TIP3   OH230396   1.431   1.569   4.124  0.1567 -0.4761 -0.2311
 2946TIP3    H130397   1.424   1.476   4.103  2.2017 -0.6606 -0.3313
 2946TIP3    H230398   1.410   1.574   4.218 -0.6444 -0.9270 -0.3836
 2947TIP3   OH230399   4.562   5.880   1.753 -0.1790 -0.0098  0.2863
 2947TIP3    H130400   4.596   5.953   1.701 -0.9351  0.6610  0.7145
 2947TIP3    H230401   4.470   5.875   1.728 -0.0664 -1.0181  0.0417
 2948TIP3   OH230402   6.318   6.916   3.749 -0.3118 -0.1213  0.1733
 2948TIP3    H130403   6.330   6.925   3.843 -0.6548 -1.0297  0.3064
 2948TIP3    H230404   6.360   6.833   3.727 -1.0401 -0.3719 -0.3184
 2949TIP3   OH230405   4.578   3.491   3.455  0.1941  0.4108  0.1260
 2949TIP3    H130406   4.583   3.478   3.550  1.1833  0.7126  0.1323
 2949TIP3    H230407   4.669   3.505   3.428 -0.2955  2.8935 -0.4963
 2950TIP3   OH230408   0.623   4.291   1.904 -0.4349  0.5036  0.6125
 2950TIP3    H130409   0.550   4.241   1.941 -0.6238  0.6319  0.4152
 2950TIP3    H230410   0.698   4.266   1.958 -0.2027 -1.1619 -0.3984
 2951TIP3   OH230411   0.741   5.646   1.818 -0.7000  0.1433 -0.6763
 2951TIP3    H130412   0.829   5.617   1.842 -0.0403  0.7447 -2.2483
 2951TIP3    H230413   0.693   5.566   1.800 -0.6341 -0.2126  0.6590
 2952TIP3   OH230414   4.367   6.122   0.448 -0.1918  0.3354 -0.1102
 2952TIP3    H130415   4.272   6.113   0.455 -0.5046  1.5427 -2.1126
 2952TIP3    H230416   4.395   6.152   0.534 -1.5757 -0.3866  0.6121
 2953TIP3   OH230417   6.868   3.023   0.437  0.2032  0.1755  0.3123
 2953TIP3    H130418   6.879   3.092   0.502  0.6050 -0.1380  0.5809
 2953TIP3    H230419   6.830   3.067   0.361  1.3452  0.8935  0.1285
 2954TIP3   OH230420   6.392   6.403   0.732 -1.3335  0.0896 -0.0493
 2954TIP3    H130421   6.393   6.474   0.668 -1.3379 -0.3974 -0.5933
 2954TIP3    H230422   6.391   6.323   0.679 -2.0867 -0.3112  0.5565
 2955TIP3   OH230423   2.794   2.522   2.070  0.6652 -0.1573 -0.5695
 2955TIP3    H130424   2.747   2.586   2.123  0.9881 -1.5236  1.5042
 2955TIP3    H230425   2.848   2.574   2.010  0.3917  1.4926  0.5587
 2956TIP3   OH230426   1.964   3.417   2.976  0.0784 -0.4178  0.0104
 2956TIP3    H130427   2.018   3.495   2.981 -0.5791 -0.0397  2.0232
 2956TIP3    H230428   1.898   3.428   3.044 -0.6972 -2.2375 -0.3671
 2957TIP3   OH230429   3.422   1.597   3.318 -0.1317 -0.1761 -0.5713
 2957TIP3    H130430   3.502   1.643   3.294 -0.3773  1.0625  0.8209
 2957TIP3    H230431   3.360   1.620   3.249  0.1255  0.5784 -0.5676
 2958TIP3   OH230432   3.238   5.178   4.255 -0.1299 -0.2008  0.7482
 2958TIP3    H130433   3.257   5.259   4.207 -4.4517  0.8916  0.4316
 2958TIP3    H230434   3.240   5.203   4.347 -0.5500  0.0332  0.6945
 2959TIP3   OH230435   2.295   4.173   2.441  0.3364 -0.5499 -0.3127
 2959TIP3    H130436   2.375   4.172   2.389  0.8940 -2.6060  0.4765
 2959TIP3    H230437   2.245   4.097   2.410  0.0390 -0.9772  1.1295
 2960TIP3   OH230438   6.521   2.161   2.411  0.1946 -0.7867  0.1545
 2960TIP3    H130439   6.583   2.216   2.459 -1.0977  1.9745 -1.1386
 2960TIP3    H230440   6.554   2.160   2.321 -0.1649 -1.6243  0.0177
 2961TIP3   OH230441   0.972   3.168   2.270 -0.2038  0.8119  0.1025
 2961TIP3    H130442   0.932   3.144   2.353 -0.3764  3.1103  0.7474
 2961TIP3    H230443   0.914   3.129   2.204 -1.2911  0.7548  1.0480
 2962TIP3   OH230444   4.809   0.029   4.429 -0.5515 -0.2266  0.0056
 2962TIP3    H130445   4.803   0.122   4.450 -1.9428 -0.0532 -0.9950
 2962TIP3    H230446   4.817   0.027   4.334 -1.0929 -1.1311 -0.0343
 2963TIP3   OH230447   1.680   3.274   3.747 -0.0546 -0.5707  0.5415
 2963TIP3    H130448   1.594   3.293   3.708 -1.3704 -0.9435  3.0945
 2963TIP3    H230449   1.665   3.275   3.841  2.7327 -0.8714  1.0786
 2964TIP3   OH230450   6.795   6.856   0.759 -0.4057 -0.6476  0.2366
 2964TIP3    H130451   6.732   6.790   0.730 -0.0407 -1.3507  1.0130
 2964TIP3    H230452   6.751   6.901   0.832 -0.6681  0.0069 -0.3123
 2965TIP3   OH230453   4.620   5.609   1.801 -1.0103 -0.4217  0.4652
 2965TIP3    H130454   4.619   5.704   1.792 -0.3878 -0.4391  0.0723
 2965TIP3    H230455   4.539   5.588   1.847 -1.5545  0.2297 -0.1571
 2966TIP3   OH230456   1.125   3.954   1.797  0.6864 -0.5736  0.1179
 2966TIP3    H130457   1.097   3.863   1.806 -1.5306 -0.0021 -0.3734
 2966TIP3    H230458   1.197   3.951   1.733 -0.4313 -1.8168 -1.1395
 2967TIP3   OH230459   4.905   4.021   0.548 -0.6449 -0.0830 -0.5606
 2967TIP3    H130460   4.859   3.937   0.540  0.6717 -0.8098 -0.7323
 2967TIP3    H230461   4.859   4.079   0.488 -0.8604 -1.0158 -1.3301
 2968TIP3   OH230462   2.919   5.242   0.695 -0.0319  0.0943 -0.1660
 2968TIP3    H130463   2.856   5.262   0.626 -1.4087  1.5971  1.4280
 2968TIP3    H230464   2.923   5.146   0.697 -3.1950 -0.1329  0.4056
 2969TIP3   OH230465   0.046   3.981   1.500  0.0966 -0.1457 -0.2138
 2969TIP3    H130466   0.093   3.908   1.460  0.5167 -1.3076  2.2269
 2969TIP3    H230467  -0.031   3.942   1.540 -0.8279  1.1228 -0.6669
 2970TIP3   OH230468   1.181   0.236   1.712 -0.2120 -0.1577  0.0086
 2970TIP3    H130469   1.192   0.224   1.807 -3.3922  0.6702  0.6223
 2970TIP3    H230470   1.253   0.294   1.687  0.0783  0.5385  2.1651
 2971TIP3   OH230471   0.920   3.319   1.182  0.2594 -0.4736  0.4190
 2971TIP3    H130472   0.916   3.370   1.263 -2.2854  0.9940 -0.5264
 2971TIP3    H230473   0.839   3.268   1.182  1.2496 -2.1527 -0.2159
 2972TIP3   OH230474   4.383   6.118   2.120 -0.1308  0.4298  0.0369
 2972TIP3    H130475   4.454   6.092   2.062 -0.3419 -2.5381  0.9289
 2972TIP3    H230476   4.426   6.166   2.191  0.9826 -0.9413  0.3376
 2973TIP3   OH230477   4.459   2.501   3.567  0.9336  0.1610 -0.8360
 2973TIP3    H130478   4.365   2.506   3.550  1.2552  2.2370 -2.4101
 2973TIP3    H230479   4.479   2.408   3.561 -1.2418 -0.5805  1.2496
 2974TIP3   OH230480   6.194   6.130   1.667  0.1590  0.1700 -0.6282
 2974TIP3    H130481   6.103   6.157   1.654  0.1248 -0.3258 -1.5284
 2974TIP3    H230482   6.214   6.154   1.757 -1.4746 -1.4814  0.2345
 2975TIP3   OH230483   0.303   6.669   2.004  1.0485  0.6012 -0.4318
 2975TIP3    H130484   0.298   6.718   1.922 -0.3199  0.4216 -0.4749
 2975TIP3    H230485   0.282   6.733   2.071  1.3453  0.5491 -0.2849
 2976TIP3   OH230486   2.520   4.088   2.277  0.3246 -0.0413 -0.4735
 2976TIP3    H130487   2.570   4.152   2.326 -1.3123  0.5937  0.4454
 2976TIP3    H230488   2.553   4.003   2.307  1.4267  0.3508 -0.5466
 2977TIP3   OH230489   5.659   2.693   0.390  0.3608 -0.3999 -0.0043
 2977TIP3    H130490   5.630   2.603   0.375 -3.2821  0.7564 -1.0387
 2977TIP3    H230491   5.748   2.696   0.356 -0.5391 -2.8625 -3.0777
 2978TIP3   OH230492   0.697   4.569   2.357 -0.2389 -0.6480 -0.5403
 2978TIP3    H130493   0.665   4.493   2.307 -0.6443 -1.2640  0.6241
 2978TIP3    H230494   0.619   4.601   2.403  0.2221 -0.3394  0.0246
 2979TIP3   OH230495   2.009   5.826   2.153 -0.3347  0.3074 -0.5686
 2979TIP3    H130496   2.081   5.798   2.209 -0.5586 -1.9586 -1.3267
 2979TIP3    H230497   1.951   5.876   2.212  0.0626 -0.9035  0.9121
 2980TIP3   OH230498   3.259   1.390   0.565 -0.3039  0.4865 -0.4312
 2980TIP3    H130499   3.202   1.316   0.541  0.4897 -0.1148 -0.4952
 2980TIP3    H230500   3.199   1.453   0.606 -1.0272 -0.1106 -0.5382
 2981TIP3   OH230501   3.788   1.757   3.971  0.5304 -0.1912 -0.1167
 2981TIP3    H130502   3.755   1.673   4.004  0.0408  0.8885  2.4430
 2981TIP3    H230503   3.713   1.798   3.929  0.3502 -0.4204 -0.0196
 2982TIP3   OH230504   3.203   5.276   0.328  0.1692 -0.2952 -0.2560
 2982TIP3    H130505   3.110   5.298   0.339 -0.2587 -2.8936  2.9104
 2982TIP3    H230506   3.215   5.271   0.233 -2.4242  1.7805 -0.8374
 2983TIP3   OH230507   6.176   0.384   2.178 -0.0899 -0.2173  0.1806
 2983TIP3    H130508   6.150   0.292   2.175 -0.3414 -0.1265 -0.5524
 2983TIP3    H230509   6.229   0.391   2.258  0.9981 -1.2855 -0.4037
 2984TIP3   OH230510   6.820   5.065   2.169 -0.0299  0.3792 -0.4400
 2984TIP3    H130511   6.777   5.094   2.249  1.5116 -0.2850  0.6724
 2984TIP3    H230512   6.913   5.064   2.190  0.2738 -1.7583 -1.5778
 2985TIP3   OH230513   0.787   4.906   2.731  0.2275 -0.1286 -0.5840
 2985TIP3    H130514   0.875   4.942   2.715  1.2890 -2.5110 -0.5297
 2985TIP3    H230515   0.738   4.928   2.652  1.7635 -1.1707 -1.9168
 2986TIP3   OH230516   0.037   5.530   3.552 -0.5734  0.2410 -0.2455
 2986TIP3    H130517   0.075   5.526   3.639 -0.0238 -1.9629 -0.5321
 2986TIP3    H230518   0.076   5.456   3.505 -2.4614  0.0897 -1.6973
 2987TIP3   OH230519   4.144   2.738   3.970  0.3096  0.3508  0.4314
 2987TIP3    H130520   4.148   2.792   3.892  1.1799 -1.5933 -0.9490
 2987TIP3    H230521   4.065   2.685   3.958  0.8796 -0.5193  0.4620
 2988TIP3   OH230522   4.897   5.700   1.230 -0.2131  0.0023  0.1905
 2988TIP3    H130523   4.834   5.646   1.278 -0.4091 -0.1083 -0.1838
 2988TIP3    H230524   4.857   5.711   1.143  0.5508 -0.5546 -0.2454
 2989TIP3   OH230525   5.629   3.243   2.003 -0.1088 -0.6086 -0.1114
 2989TIP3    H130526   5.551   3.299   2.007 -1.1189 -2.0071  0.7756
 2989TIP3    H230527   5.697   3.294   2.048 -0.9047  0.0669  0.3692
 2990TIP3   OH230528   0.101   6.161   2.145 -0.1471 -0.1235 -0.1070
 2990TIP3    H130529   0.103   6.104   2.068 -0.1250 -0.1297 -0.1020
 2990TIP3    H230530   0.091   6.249   2.109  0.3103 -0.0829 -0.1394
 2991TIP3   OH230531   1.010   1.775   2.368 -0.7317  0.1085  0.2276
 2991TIP3    H130532   0.955   1.717   2.421  0.5002 -1.1786  0.1657
 2991TIP3    H230533   1.094   1.775   2.414 -0.2523  0.5938 -0.6341
 2992TIP3   OH230534   6.560   3.707   1.525 -0.3420  0.4482  0.0349
 2992TIP3    H130535   6.541   3.613   1.524  0.6465  0.1934  1.2834
 2992TIP3    H230536   6.551   3.735   1.434 -0.2439 -0.9549 -0.4298
 2993TIP3   OH230537   6.366   0.880   3.201 -0.6715  0.1696  0.1141
 2993TIP3    H130538   6.310   0.912   3.272 -1.8716 -1.5540  0.0109
 2993TIP3    H230539   6.306   0.833   3.143  0.7210 -0.8293 -0.5812
 2994TIP3   OH230540   2.289   2.064   3.171  0.1716 -0.0278  0.0365
 2994TIP3    H130541   2.328   2.147   3.199  2.5874 -1.1016  0.1158
 2994TIP3    H230542   2.282   2.013   3.251  0.1727 -0.4702 -0.2445
 2995TIP3   OH230543   6.736   3.260   4.153 -0.2376 -0.1701 -0.8875
 2995TIP3    H130544   6.786   3.302   4.223 -1.2154 -0.0508 -0.2329
 2995TIP3    H230545   6.763   3.168   4.156 -1.4980 -0.5455  0.8347
 2996TIP3   OH230546   3.374   6.704   4.200 -0.2481  0.0098  0.7996
 2996TIP3    H130547   3.461   6.722   4.235  0.1212 -0.6237  0.2408
 2996TIP3    H230548   3.331   6.789   4.198  1.1982  0.7850 -1.1173
 2997TIP3   OH230549   4.450   4.799   0.623  0.3297  0.0894 -0.1130
 2997TIP3    H130550   4.531   4.755   0.596  0.0002  0.2318 -1.3723
 2997TIP3    H230551   4.415   4.837   0.543 -1.9542 -1.5390  0.0278
 2998TIP3   OH230552   2.874   2.328   4.135  0.4748  0.3178  0.0781
 2998TIP3    H130553   2.919   2.257   4.181  1.3913 -0.4918 -1.9318
 2998TIP3    H230554   2.878   2.402   4.195  1.8162 -0.6064  1.1974
 2999TIP3   OH230555   3.221   6.660   3.534 -0.2717  0.2568  0.2590
 2999TIP3    H130556   3.309   6.636   3.563 -0.3328  0.0904  0.3084
 2999TIP3    H230557   3.163   6.626   3.601 -0.5227 -1.3404 -0.7151
 3000TIP3   OH230558   3.614   5.284   0.532  0.3057 -0.2919  0.2879
 3000TIP3    H130559   3.683   5.221   0.555 -0.5112 -1.2015  0.3025
 3000TIP3    H230560   3.650   5.332   0.458  1.5526  0.2662  1.2035
 3001TIP3   OH230561   0.731   0.288   3.780  0.0012  0.7173  1.1614
 3001TIP3    H130562   0.663   0.285   3.847 -0.1057  1.1074  1.0738
 3001TIP3    H230563   0.797   0.225   3.809 -1.9741 -2.3290 -0.4844
 3002TIP3   OH230564   3.787   4.189   3.652  0.6556 -0.1937 -0.2167
 3002TIP3    H130565   3.736   4.194   3.571  1.8620  1.0331 -0.9294
 3002TIP3    H230566   3.876   4.170   3.624  1.4712  2.0418  0.6238
 3003TIP3   OH230567   6.597   1.213   1.306  0.3207 -0.6093 -0.0648
 3003TIP3    H130568   6.589   1.193   1.213  1.6668 -1.5159 -0.0195
 3003TIP3    H230569   6.536   1.285   1.321 -2.7242 -2.8285 -0.8455
 3004TIP3   OH230570   2.194   3.736   2.263  0.0333  0.0629  0.1894
 3004TIP3    H130571   2.170   3.698   2.178  0.5156 -0.4628  0.2837
 3004TIP3    H230572   2.211   3.661   2.319 -3.2355  0.2623  1.6954
 3005TIP3   OH230573   6.743   0.451   4.941 -0.3809 -0.5463  0.0959
 3005TIP3    H130574   6.803   0.393   4.894 -0.3901 -1.7419  1.4814
 3005TIP3    H230575   6.705   0.396   5.010 -2.4947  0.3788 -0.2422
 3006TIP3   OH230576   5.399   3.271   1.198  1.1392  0.0748  0.1138
 3006TIP3    H130577   5.449   3.274   1.280  0.6010  0.3636  0.4412
 3006TIP3    H230578   5.465   3.276   1.129  1.6251 -0.5138  0.5217
 3007TIP3   OH230579   1.869   0.442   3.031 -0.1222  0.1927 -0.0722
 3007TIP3    H130580   1.775   0.442   3.015 -0.0767  0.1172 -0.3344
 3007TIP3    H230581   1.877   0.466   3.124 -0.3821  0.6016 -0.1517
 3008TIP3   OH230582   6.202   3.924   3.816 -0.2055  0.5646 -0.0279
 3008TIP3    H130583   6.277   3.866   3.828  0.0668  0.6439 -1.2182
 3008TIP3    H230584   6.126   3.866   3.815  0.0368  0.2474 -0.8965
 3009TIP3   OH230585   5.667   2.062   3.015  0.6511  0.0815  0.1583
 3009TIP3    H130586   5.720   1.983   3.017 -2.0840 -1.8994  1.6714
 3009TIP3    H230587   5.652   2.083   3.108 -0.4690  1.0576 -0.2180
 3010TIP3   OH230588   3.203   2.805   1.320 -0.1810  0.2784  0.1183
 3010TIP3    H130589   3.129   2.777   1.375 -1.1305 -0.3978 -1.4225
 3010TIP3    H230590   3.230   2.725   1.276  0.1262  0.9146 -0.8711
 3011TIP3   OH230591   5.669   1.602   2.462 -0.5174  0.3952  0.0083
 3011TIP3    H130592   5.645   1.645   2.380 -1.4840  1.0137  0.6027
 3011TIP3    H230593   5.759   1.631   2.478  0.1382 -0.6950 -1.4323
 3012TIP3   OH230594   0.225   2.675   0.444 -0.1642 -0.6204  0.1015
 3012TIP3    H130595   0.159   2.705   0.382  0.5212 -0.0671 -0.3732
 3012TIP3    H230596   0.300   2.731   0.428  0.4514 -1.2927  0.5784
 3013TIP3   OH230597   0.504   4.970   4.043 -0.1519 -0.4300 -0.5906
 3013TIP3    H130598   0.481   4.885   4.081 -0.5383 -0.5152 -1.0038
 3013TIP3    H230599   0.564   4.949   3.972  1.9778 -0.1454  1.0337
 3014TIP3   OH230600   2.520   5.192   2.108 -0.9346  0.0512 -0.6998
 3014TIP3    H130601   2.575   5.119   2.079 -1.9409 -1.4872  1.0388
 3014TIP3    H230602   2.565   5.226   2.186 -1.1425  0.4329 -0.7435
 3015TIP3   OH230603   0.766   2.662   0.163 -0.0187  0.5293 -0.0811
 3015TIP3    H130604   0.770   2.746   0.117 -2.9833 -0.3325 -2.2178
 3015TIP3    H230605   0.675   2.635   0.155  0.9636 -3.2821 -0.1958
 3016TIP3   OH230606   3.642   2.203   3.510 -0.4571 -0.2135  0.1797
 3016TIP3    H130607   3.646   2.298   3.510 -0.4301 -0.2143 -0.0736
 3016TIP3    H230608   3.558   2.182   3.551 -0.8005 -0.0656 -0.4497
 3017TIP3   OH230609   1.849   3.210   3.495  0.0110  0.5056 -0.2437
 3017TIP3    H130610   1.798   3.250   3.566 -1.1631  2.0421 -1.8811
 3017TIP3    H230611   1.940   3.221   3.523 -0.4377  0.6273  1.2558
 3018TIP3   OH230612   4.931   5.939   0.124  0.5148 -0.1039 -0.0599
 3018TIP3    H130613   4.903   5.874   0.188  0.3064  0.5953  0.5690
 3018TIP3    H230614   5.026   5.927   0.117  0.4167 -0.7564 -0.2686
 3019TIP3   OH230615   0.164   6.536   3.866 -0.3345  0.3139 -0.1774
 3019TIP3    H130616   0.093   6.601   3.864 -0.1084  0.5819  0.3536
 3019TIP3    H230617   0.206   6.549   3.951  1.0812  0.9488 -0.9281
 3020TIP3   OH230618   2.374   4.122   0.434 -0.0169 -0.1696  0.5695
 3020TIP3    H130619   2.303   4.079   0.387 -0.8029  0.4706  1.1345
 3020TIP3    H230620   2.346   4.213   0.442  1.3406  0.3386 -0.0785
 3021TIP3   OH230621   2.523   4.791   2.098 -0.4945 -0.2573  0.3942
 3021TIP3    H130622   2.606   4.820   2.135 -0.7422 -0.1492  0.8794
 3021TIP3    H230623   2.513   4.841   2.017 -0.9042  1.0023  1.2061
 3022TIP3   OH230624   4.964   3.755   4.087 -0.1044 -0.0857  0.4170
 3022TIP3    H130625   4.924   3.837   4.059  0.5960  0.1603  0.1144
 3022TIP3    H230626   5.058   3.771   4.082  0.0418 -0.9412  0.2444
 3023TIP3   OH230627   2.603   4.586   3.137 -0.3772 -0.2654 -0.1058
 3023TIP3    H130628   2.679   4.529   3.125 -0.8974 -0.4851 -3.6940
 3023TIP3    H230629   2.637   4.674   3.120 -0.6765 -0.2405 -0.6109
 3024TIP3   OH230630   3.405   5.076   3.049  0.1673  0.3034  0.4944
 3024TIP3    H130631   3.385   5.113   2.963  2.9588 -2.4391 -1.5911
 3024TIP3    H230632   3.324   5.033   3.077 -0.6148  0.6479 -1.1392
 3025TIP3   OH230633   4.100   5.281   3.824  0.0068 -0.2742  0.5790
 3025TIP3    H130634   4.196   5.273   3.829  0.0435  0.0708  0.4376
 3025TIP3    H230635   4.068   5.214   3.885  0.2902 -1.6983 -0.7861
 3026TIP3   OH230636   1.817   4.782   1.938 -0.1364  0.0624 -0.2026
 3026TIP3    H130637   1.752   4.712   1.941  0.7544 -0.7722  0.0243
 3026TIP3    H230638   1.803   4.830   2.020  0.0228 -0.5691  0.2033
 3027TIP3   OH230639   4.507   2.208   3.403 -0.3128 -0.2899 -0.4702
 3027TIP3    H130640   4.455   2.133   3.375  2.1040 -1.6975 -1.4867
 3027TIP3    H230641   4.531   2.189   3.494 -1.6924  0.4745  0.0774
 3028TIP3   OH230642   0.840   1.387   4.238 -0.2536 -0.4601  0.7866
 3028TIP3    H130643   0.795   1.470   4.223 -2.4462 -1.7598 -0.2458
 3028TIP3    H230644   0.788   1.343   4.305  0.4060 -1.3607  0.7323
 3029TIP3   OH230645   5.464   2.085   3.304  0.0527 -0.4719 -0.6912
 3029TIP3    H130646   5.476   2.179   3.295 -1.3741 -0.1975  0.0111
 3029TIP3    H230647   5.502   2.064   3.390 -0.0159 -0.4513 -0.6552
 3030TIP3   OH230648   4.792   5.208   4.224 -0.8866 -0.3012 -0.4962
 3030TIP3    H130649   4.868   5.264   4.213 -0.5020 -0.9417 -1.2676
 3030TIP3    H230650   4.755   5.233   4.308 -1.1822  1.6373 -1.1470
 3031TIP3   OH230651   5.207   5.873   0.018 -0.1687  0.1300  0.1448
 3031TIP3    H130652   5.220   5.846   0.109  0.4496 -1.1204 -0.2882
 3031TIP3    H230653   5.282   5.836  -0.029 -0.1156  1.3277 -0.7720
 3032TIP3   OH230654   6.238   6.738   2.683 -0.7359  0.5740 -0.1673
 3032TIP3    H130655   6.278   6.661   2.643 -1.0629  0.2012  0.2159
 3032TIP3    H230656   6.189   6.704   2.757 -0.0500  1.2679  0.6235
 3033TIP3   OH230657   3.996   4.252   3.129 -0.4030  0.1134 -0.4270
 3033TIP3    H130658   4.079   4.261   3.176 -1.0151  0.4338  0.6167
 3033TIP3    H230659   3.939   4.319   3.167 -1.2097 -0.2401 -0.9829
 3034TIP3   OH230660   0.029   1.179   2.517  0.4961  0.0904  0.8157
 3034TIP3    H130661   0.084   1.207   2.590  3.7209  1.0658 -1.7154
 3034TIP3    H230662   0.011   1.260   2.469  1.1112 -0.8281 -1.0632
 3035TIP3   OH230663   5.103   6.646   4.644  0.2713  0.1122 -0.4308
 3035TIP3    H130664   5.117   6.738   4.669  0.8091  0.1236 -0.7859
 3035TIP3    H230665   5.084   6.602   4.727  0.2872  0.4874 -0.2243
 3036TIP3   OH230666   3.300   6.399   2.075  0.1631 -0.1896  0.3039
 3036TIP3    H130667   3.394   6.403   2.093  0.3926  0.3587 -0.8674
 3036TIP3    H230668   3.280   6.483   2.034 -0.4334 -1.0177 -1.1923
 3037TIP3   OH230669   5.255   6.843   0.844 -1.3798  0.2721  0.2228
 3037TIP3    H130670   5.216   6.913   0.895 -0.5589  0.9398 -0.0477
 3037TIP3    H230671   5.347   6.868   0.834 -1.2337 -0.4794 -0.4861
 3038TIP3   OH230672   3.459   4.043   1.465  0.3674  0.2803 -0.9250
 3038TIP3    H130673   3.456   4.027   1.559  0.8334  1.9982 -0.5794
 3038TIP3    H230674   3.471   3.957   1.426 -0.8824 -0.5920  0.5182
 3039TIP3   OH230675   2.962   4.390   0.356  0.7749 -0.5731  0.0049
 3039TIP3    H130676   2.916   4.457   0.407  0.3472  0.1232 -1.2551
 3039TIP3    H230677   2.927   4.307   0.389  0.1893 -0.1227  0.5374
 3040TIP3   OH230678   0.425   0.546   2.079 -0.1996 -0.4147  0.5847
 3040TIP3    H130679   0.471   0.462   2.083  1.2681  0.3371  0.1751
 3040TIP3    H230680   0.415   0.563   1.986 -1.1794 -0.4768  0.6684
 3041TIP3   OH230681   2.284   6.115   1.130 -0.1086  0.2761  0.3085
 3041TIP3    H130682   2.310   6.053   1.062 -1.6000  0.1467 -0.1772
 3041TIP3    H230683   2.206   6.076   1.170 -0.6513  1.4851  0.4792
 3042TIP3   OH230684   6.192   6.585   1.345  0.2179 -0.3399 -0.5917
 3042TIP3    H130685   6.155   6.510   1.391 -0.0455  0.2943  0.2694
 3042TIP3    H230686   6.245   6.629   1.411  0.4373  0.1810 -1.1068
 3043TIP3   OH230687   2.995   2.334   2.451 -0.4046  0.4624 -0.0330
 3043TIP3    H130688   2.978   2.379   2.368  3.2274 -0.7951 -1.6537
 3043TIP3    H230689   3.071   2.379   2.488 -3.4096  2.7755  4.2638
 3044TIP3   OH230690   5.046   1.822   3.230 -0.3192 -0.5589 -0.5180
 3044TIP3    H130691   5.142   1.816   3.224 -0.4526 -1.3445 -2.1816
 3044TIP3    H230692   5.025   1.908   3.196 -0.2239 -0.4199 -0.2326
 3045TIP3   OH230693   2.410   2.759   0.421  0.3506 -0.7883 -0.4403
 3045TIP3    H130694   2.374   2.779   0.335  2.0341  3.6010 -0.3652
 3045TIP3    H230695   2.502   2.739   0.404  0.2785 -1.7884  0.2329
 3046TIP3   OH230696   4.978   0.378   4.081  0.5922  0.1325  0.0499
 3046TIP3    H130697   4.993   0.331   4.163  1.1648 -0.8634 -0.6015
 3046TIP3    H230698   4.955   0.467   4.108  0.3683 -0.2844  1.2952
 3047TIP3   OH230699   2.533   2.966   0.990  0.8924 -0.0559 -0.3968
 3047TIP3    H130700   2.472   2.968   1.064 -0.3252 -0.3765 -1.3658
 3047TIP3    H230701   2.619   2.974   1.031  0.4637 -2.7380  1.2967
 3048TIP3   OH230702   5.771   5.695   1.093 -0.3521 -0.2225 -0.0039
 3048TIP3    H130703   5.790   5.606   1.063  1.0167 -0.0805  0.3684
 3048TIP3    H230704   5.855   5.728   1.124 -0.9842  0.9565  0.5192
 3049TIP3   OH230705   1.394   2.687   3.837  0.2899 -0.0562 -0.7676
 3049TIP3    H130706   1.448   2.766   3.845 -0.5500  0.5007 -0.4665
 3049TIP3    H230707   1.315   2.717   3.792  0.4887 -0.9999 -1.7861
 3050TIP3   OH230708   6.617   5.000   4.154  0.2196  0.0075 -0.3444
 3050TIP3    H130709   6.612   5.054   4.233 -0.6586 -0.8291  0.2047
 3050TIP3    H230710   6.693   4.943   4.168 -1.8102 -2.5137  1.5547
 3051TIP3   OH230711   6.516   3.853   0.608 -0.6375 -0.3970 -0.4381
 3051TIP3    H130712   6.566   3.796   0.665 -1.1088 -0.6368 -0.2610
 3051TIP3    H230713   6.506   3.935   0.658  1.3409  0.4261 -1.2825
 3052TIP3   OH230714   4.705   0.993   2.052 -0.2301  0.1477 -0.5013
 3052TIP3    H130715   4.773   0.982   1.985 -0.4470 -0.6021 -0.6055
 3052TIP3    H230716   4.653   0.912   2.047 -0.9831  0.6123 -0.2551
 3053TIP3   OH230717   1.933   2.342   1.138  0.0770  0.3653 -0.2371
 3053TIP3    H130718   2.016   2.337   1.185  1.1901  1.8260 -1.9083
 3053TIP3    H230719   1.916   2.436   1.130 -1.1920  0.1093 -0.8888
 3054TIP3   OH230720   2.905   6.428   3.497  0.0120 -0.1138  0.1406
 3054TIP3    H130721   2.944   6.498   3.445 -2.1511  1.1396  0.0778
 3054TIP3    H230722   2.941   6.440   3.585 -0.4260  1.1915  0.1599
 3055TIP3   OH230723   3.563   3.634   2.749 -0.3715 -0.2066 -0.2087
 3055TIP3    H130724   3.499   3.705   2.747 -1.8635 -1.4492  0.9735
 3055TIP3    H230725   3.645   3.676   2.723 -1.5076  1.5748 -1.2137
 3056TIP3   OH230726   1.691   0.218   2.802  0.5071  0.1680  0.2171
 3056TIP3    H130727   1.742   0.157   2.855  1.4387  0.8983  0.1822
 3056TIP3    H230728   1.688   0.298   2.854  0.7039  0.6216 -0.4516
 3057TIP3   OH230729   5.564   4.070   3.600 -0.2620 -0.3807 -0.6551
 3057TIP3    H130730   5.528   4.103   3.682  3.2585  1.9773  0.1756
 3057TIP3    H230731   5.571   3.975   3.613 -1.1704 -0.2367  1.1690
 3058TIP3   OH230732   1.019   4.665   2.857 -0.1097  0.6470  0.0072
 3058TIP3    H130733   0.975   4.689   2.775 -2.1012  0.2707  0.8987
 3058TIP3    H230734   0.951   4.620   2.908  0.8525  1.4797  2.1377
 3059TIP3   OH230735   0.023   3.531   2.376 -0.6850  0.7251  0.0704
 3059TIP3    H130736  -0.035   3.454   2.372 -0.2137  0.4020 -0.7052
 3059TIP3    H230737   0.033   3.558   2.285  0.6068  0.6109  0.1617
 3060TIP3   OH230738   0.514   1.020   2.201 -0.7669 -0.3798 -0.7902
 3060TIP3    H130739   0.500   1.036   2.295  2.1342  1.7814 -0.5848
 3060TIP3    H230740   0.530   0.926   2.195 -1.2645 -0.6065  0.8505
 3061TIP3   OH230741   6.481   5.437   0.266 -0.2787 -0.0993 -0.1350
 3061TIP3    H130742   6.546   5.483   0.213  1.5126 -1.7539  0.5265
 3061TIP3    H230743   6.417   5.405   0.203 -1.1779  2.5313 -0.6932
 3062TIP3   OH230744   5.072   0.861   1.517 -0.4678  0.0619 -0.6399
 3062TIP3    H130745   5.013   0.818   1.455  0.1668 -0.4865 -0.8726
 3062TIP3    H230746   5.066   0.954   1.494 -0.9534 -0.0295 -0.9051
 3063TIP3   OH230747   2.422   3.881   3.031  0.4359 -0.4656 -0.2514
 3063TIP3    H130748   2.506   3.876   2.986  0.8174 -0.4667  0.4613
 3063TIP3    H230749   2.358   3.893   2.960  0.9587 -1.1242 -0.8517
 3064TIP3   OH230750   4.811   3.361   3.795  0.7179  0.1065 -0.1094
 3064TIP3    H130751   4.839   3.438   3.744  0.2277  0.1919 -0.2589
 3064TIP3    H230752   4.723   3.342   3.762  0.1805  0.4767  1.0732
 3065TIP3   OH230753   0.781   4.080   4.069 -0.3515 -0.3001  0.4366
 3065TIP3    H130754   0.874   4.098   4.053  0.1764 -1.9760  1.3850
 3065TIP3    H230755   0.744   4.067   3.982 -0.0992  1.9707 -0.0776
 3066TIP3   OH230756   5.166   1.619   3.653 -0.3865 -0.0433  0.4539
 3066TIP3    H130757   5.139   1.540   3.700 -1.2200 -0.4836 -0.7453
 3066TIP3    H230758   5.113   1.620   3.574 -1.0793  2.2112  0.8618
 3067TIP3   OH230759   5.905   4.117   2.479 -0.1949 -0.1475 -0.5180
 3067TIP3    H130760   5.912   4.148   2.389 -0.1784 -0.6114 -0.6796
 3067TIP3    H230761   5.815   4.138   2.506 -0.5827 -1.0651 -1.0479
 3068TIP3   OH230762   2.638   2.691   3.868  0.7491 -0.1426  0.3882
 3068TIP3    H130763   2.724   2.668   3.833  0.5519 -0.6166  0.2129
 3068TIP3    H230764   2.582   2.700   3.791  0.5260 -0.3100  0.5300
 3069TIP3   OH230765   6.519   1.160   4.145 -0.2827  0.2798  0.1519
 3069TIP3    H130766   6.592   1.180   4.203  0.6359 -0.7939 -0.5796
 3069TIP3    H230767   6.477   1.244   4.128 -0.7663  0.5897  2.5628
 3070TIP3   OH230768   6.844   1.488   0.692 -0.7667 -0.3836 -0.0132
 3070TIP3    H130769   6.820   1.553   0.757 -0.6389 -0.0380 -0.3102
 3070TIP3    H230770   6.779   1.497   0.623 -0.6083 -0.4105 -0.1659
 3071TIP3   OH230771   2.397   6.700   1.833 -0.0803  0.1954 -1.0043
 3071TIP3    H130772   2.375   6.608   1.847 -0.6063  0.3802 -0.5767
 3071TIP3    H230773   2.470   6.717   1.893 -1.0739  0.4833  0.1540
 3072TIP3   OH230774   6.074   0.105   2.845  0.2977 -0.7390 -0.1572
 3072TIP3    H130775   6.043   0.176   2.789 -0.9283  0.1828  1.5699
 3072TIP3    H230776   6.163   0.131   2.870  0.1595 -0.2224 -0.1940
 3073TIP3   OH230777   3.533   3.810   3.612 -0.5551 -0.4955 -0.4209
 3073TIP3    H130778   3.620   3.830   3.646 -1.3130 -1.1052  2.0543
 3073TIP3    H230779   3.525   3.715   3.621 -1.8989 -0.3174  0.5522
 3074TIP3   OH230780   2.057   6.003   2.984  0.3385  0.2763 -0.5088
 3074TIP3    H130781   2.085   5.921   3.024 -0.1969 -0.8342 -2.3073
 3074TIP3    H230782   1.962   6.005   2.997  0.3595  0.6517 -0.4016
 3075TIP3   OH230783   4.358   5.605   3.323 -0.0418 -0.6672 -0.1518
 3075TIP3    H130784   4.298   5.667   3.283  1.0094  0.2291 -0.4133
 3075TIP3    H230785   4.399   5.560   3.250  0.7801 -0.1038 -0.0543
 3076TIP3   OH230786   1.313   5.860   1.587 -0.0134  0.0921 -0.0482
 3076TIP3    H130787   1.298   5.955   1.587  0.2937  0.2164  2.5536
 3076TIP3    H230788   1.295   5.833   1.497 -0.2264  2.5912 -0.8373
 3077TIP3   OH230789   2.030   4.682   3.433  0.0144 -0.5236 -0.2431
 3077TIP3    H130790   2.049   4.776   3.428  0.0231 -0.5482 -0.7942
 3077TIP3    H230791   1.946   4.677   3.478  0.1557 -0.2706  0.0556
 3078TIP3   OH230792   0.959   2.098   1.717 -0.8389  0.0382  0.1575
 3078TIP3    H130793   0.983   2.018   1.764  0.3321 -0.0273 -0.5037
 3078TIP3    H230794   0.953   2.070   1.625  0.4899  0.8621 -0.2092
 3079TIP3   OH230795   5.030   1.619   3.436  0.1193  0.0075 -0.3238
 3079TIP3    H130796   4.945   1.575   3.429 -0.6132  1.1227  1.1131
 3079TIP3    H230797   5.030   1.684   3.366  0.1599 -0.5612 -0.8621
 3080TIP3   OH230798   3.170   4.546   3.965  0.2605  0.4487  0.1538
 3080TIP3    H130799   3.183   4.555   4.059 -0.7247  0.0673  0.3413
 3080TIP3    H230800   3.255   4.566   3.927  0.8832 -0.1694  1.1645
 3081TIP3   OH230801   0.283   6.422   0.472  0.1100 -0.0999  0.1092
 3081TIP3    H130802   0.345   6.446   0.404  1.8193  1.4402  2.0685
 3081TIP3    H230803   0.231   6.501   0.486 -1.2035 -0.8519 -0.3452
 3082TIP3   OH230804   2.512   5.839   4.369 -0.2632 -0.3059  0.2640
 3082TIP3    H130805   2.449   5.774   4.340 -1.0528 -0.6935  2.5967
 3082TIP3    H230806   2.596   5.792   4.370 -0.6433 -0.9852  0.9156
 3083TIP3   OH230807   4.581   2.535   2.616  0.3330 -0.4726 -0.1408
 3083TIP3    H130808   4.637   2.572   2.684 -1.4191 -1.6448  2.0369
 3083TIP3    H230809   4.494   2.569   2.635 -0.5701 -2.4297 -0.5344
 3084TIP3   OH230810   2.870   3.811   8.061 -0.0840 -0.3378 -0.4406
 3084TIP3    H130811   2.935   3.873   8.028  0.4460  0.4590  1.8662
 3084TIP3    H230812   2.918   3.729   8.072 -0.3430 -0.6945 -1.8592
 3085TIP3   OH230813   6.502   0.992   2.112 -0.1081  0.7040 -0.0778
 3085TIP3    H130814   6.430   0.967   2.054 -0.4033 -0.4080  0.7328
 3085TIP3    H230815   6.555   1.052   2.060  0.7890 -1.8148 -2.2670
 3086TIP3   OH230816   6.693   5.391   1.508 -0.5746  0.3630  0.3120
 3086TIP3    H130817   6.670   5.448   1.581  1.3487 -0.9747  2.0941
 3086TIP3    H230818   6.668   5.304   1.537  0.3418 -0.2128 -0.5643
 3087TIP3   OH230819   1.476   3.779   4.093 -0.7618 -0.3832 -0.2347
 3087TIP3    H130820   1.468   3.721   4.169  2.0008 -0.7761 -0.1504
 3087TIP3    H230821   1.538   3.736   4.035  1.0933  2.1863 -0.3666
 3088TIP3   OH230822   4.338   0.243   0.645 -0.4172  0.3525 -0.0569
 3088TIP3    H130823   4.263   0.271   0.592 -0.6751 -3.9069 -2.4003
 3088TIP3    H230824   4.413   0.256   0.588 -0.0543  0.0109  0.3376
 3089TIP3   OH230825   5.362   5.489   1.762 -0.1703 -0.3733  0.6967
 3089TIP3    H130826   5.367   5.533   1.677 -3.9216  1.1769  1.0808
 3089TIP3    H230827   5.345   5.398   1.741  1.0797 -0.4363 -0.1560
 3090TIP3   OH230828   4.981   6.671   4.358  0.5140  0.3903 -0.1491
 3090TIP3    H130829   5.013   6.721   4.434 -2.2871  1.8715  0.1998
 3090TIP3    H230830   4.944   6.591   4.396  1.1510  0.0610 -0.2186
 3091TIP3   OH230831   4.177   5.514   1.382  0.8009  0.0476  0.4763
 3091TIP3    H130832   4.166   5.538   1.290 -0.2862 -1.1315  0.2695
 3091TIP3    H230833   4.257   5.461   1.383  0.4342 -0.5300  0.0680
 3092TIP3   OH230834   1.591   0.883   3.355  0.1191  0.1527 -0.5423
 3092TIP3    H130835   1.563   0.793   3.336  0.9939 -0.1885 -0.2469
 3092TIP3    H230836   1.685   0.877   3.367 -0.0599  0.7203  1.6529
 3093TIP3   OH230837   6.100   6.855   1.829 -0.3767 -0.2317 -0.2140
 3093TIP3    H130838   6.039   6.923   1.856 -0.5832 -0.4151 -0.2097
 3093TIP3    H230839   6.163   6.848   1.901 -0.1190  0.2322 -0.3946
 3094TIP3   OH230840   0.178   5.188   1.210 -0.4499 -0.9202 -0.3100
 3094TIP3    H130841   0.146   5.254   1.273  0.5974 -1.6960  1.0856
 3094TIP3    H230842   0.207   5.239   1.135  1.6953  0.4263  1.3034
 3095TIP3   OH230843   6.615   4.266   2.202  0.2894 -0.4475  0.4456
 3095TIP3    H130844   6.642   4.324   2.274 -0.1399  0.5740 -0.1876
 3095TIP3    H230845   6.692   4.259   2.146  0.3890 -0.6227  0.6024
 3096TIP3   OH230846   6.486   0.244   4.013 -0.3248  0.2088 -0.4602
 3096TIP3    H130847   6.543   0.237   3.937  0.3724 -0.5295  0.1202
 3096TIP3    H230848   6.540   0.215   4.087 -1.0621  0.6793  0.2822
 3097TIP3   OH230849   6.283   5.822   1.278  0.1332  0.0213  0.0198
 3097TIP3    H130850   6.282   5.887   1.348  0.4513  1.1491 -0.9856
 3097TIP3    H230851   6.283   5.874   1.197 -0.0760 -1.2410 -0.8160
 3098TIP3   OH230852   1.589   1.550   1.070 -0.2166 -0.4574 -0.2250
 3098TIP3    H130853   1.546   1.473   1.033  0.0638 -0.9486  0.4302
 3098TIP3    H230854   1.604   1.526   1.162 -1.4242  0.9395  0.3732
 3099TIP3   OH230855   1.946   4.950   0.803 -0.1816  0.5751  0.0980
 3099TIP3    H130856   2.009   4.935   0.733 -0.1782  0.5258  0.1113
 3099TIP3    H230857   1.928   5.044   0.800 -0.5692  0.4877 -0.2954
 3100TIP3   OH230858   2.168   3.857   1.611 -0.1489  0.1304  0.2497
 3100TIP3    H130859   2.141   3.940   1.649  0.8966 -0.1463  1.6835
 3100TIP3    H230860   2.087   3.820   1.575 -0.8576  1.2029  0.6823
 3101TIP3   OH230861   5.625   6.212   3.319  0.0103  0.4128  0.2551
 3101TIP3    H130862   5.642   6.289   3.265  1.1196 -0.1970 -0.3186
 3101TIP3    H230863   5.591   6.247   3.402 -3.8022  1.2731 -1.4931
 3102TIP3   OH230864   4.506   2.156   0.112 -0.0615 -0.7546  0.1013
 3102TIP3    H130865   4.515   2.211   0.034 -0.2763 -0.1278  0.5083
 3102TIP3    H230866   4.415   2.168   0.139  0.1717 -0.4773  0.7934
 3103TIP3   OH230867   0.029   0.051   1.777 -0.0632  0.2537 -0.2689
 3103TIP3    H130868  -0.040   0.067   1.712  0.4268  0.6547 -0.6963
 3103TIP3    H230869   0.021   0.124   1.838 -0.9223 -0.4436  0.4913
 3104TIP3   OH230870   4.295   5.861   0.997 -0.1650  0.0363 -0.3664
 3104TIP3    H130871   4.202   5.846   0.978  0.4806 -1.2588 -2.9958
 3104TIP3    H230872   4.320   5.932   0.938  0.8408 -0.7561 -0.9274
 3105TIP3   OH230873   0.251   1.890   1.210 -0.2586  0.3648 -1.1488
 3105TIP3    H130874   0.260   1.864   1.301 -1.2985 -0.1152 -1.1639
 3105TIP3    H230875   0.303   1.826   1.161  1.3332  1.3549 -0.8338
 3106TIP3   OH230876   6.609   2.086   1.089  0.2768 -0.3139 -0.0709
 3106TIP3    H130877   6.591   2.053   1.001  1.4663 -0.2683 -0.3473
 3106TIP3    H230878   6.630   2.178   1.077  2.8885 -0.8406 -0.1085
 3107TIP3   OH230879   3.498   4.995   1.291 -0.1802 -0.3083  0.0222
 3107TIP3    H130880   3.500   4.991   1.195  4.5146  0.5603 -0.1536
 3107TIP3    H230881   3.563   4.930   1.319  0.5014  1.2514  2.4277
 3108TIP3   OH230882   5.981   4.991   0.916 -0.3054  0.0706 -0.4773
 3108TIP3    H130883   5.978   4.896   0.904 -0.2457  0.2104 -1.6599
 3108TIP3    H230884   6.074   5.013   0.913 -0.4258  0.5379 -3.5739
 3109TIP3   OH230885   2.618   4.485   2.414 -0.2419  0.2842 -0.7249
 3109TIP3    H130886   2.595   4.470   2.505  1.4053  2.2421  0.0938
 3109TIP3    H230887   2.682   4.417   2.394  0.0780  0.3997 -0.1158
 3110TIP3   OH230888   2.047   0.376   2.837  0.5411 -0.1796  0.1401
 3110TIP3    H130889   2.082   0.287   2.841  0.0891 -0.3980 -0.5697
 3110TIP3    H230890   2.000   0.387   2.920  0.2740 -0.7460  0.0705
 3111TIP3   OH230891   4.844   3.917   3.235  0.0940  0.1434  0.4386
 3111TIP3    H130892   4.766   3.884   3.279 -0.1874  0.6852  0.3602
 3111TIP3    H230893   4.817   4.001   3.198 -0.2655 -1.1221 -2.4255
 3112TIP3   OH230894   1.605   6.790   3.531 -0.0062  0.0932 -0.0063
 3112TIP3    H130895   1.675   6.805   3.467  1.1331 -1.1051  0.8936
 3112TIP3    H230896   1.609   6.866   3.589  0.8071 -0.1442  0.2549
 3113TIP3   OH230897   2.212   5.807   3.092 -0.3879 -0.5080  0.3996
 3113TIP3    H130898   2.267   5.736   3.060  0.1344  0.7109 -1.6067
 3113TIP3    H230899   2.269   5.857   3.150 -0.6239 -1.4533  1.4649
 3114TIP3   OH230900   4.799   2.133   3.297  0.8265 -0.2141 -0.4698
 3114TIP3    H130901   4.749   2.062   3.336 -1.5873  0.0781 -2.7540
 3114TIP3    H230902   4.846   2.173   3.371  0.1121 -2.4409  1.2866
 3115TIP3   OH230903   5.740   2.988   0.349  0.8802  0.1792 -0.3152
 3115TIP3    H130904   5.784   3.068   0.376  0.4032  0.4880 -0.4450
 3115TIP3    H230905   5.726   2.940   0.431  2.2072 -0.3258 -0.3492
 3116TIP3   OH230906   2.079   3.254   2.525 -0.3393  0.2998 -0.4389
 3116TIP3    H130907   2.036   3.267   2.609  2.8249 -0.9390  1.5248
 3116TIP3    H230908   2.022   3.192   2.479 -1.3649 -0.2285  1.4388
 3117TIP3   OH230909   5.671   1.045   1.504  0.1597  0.1289 -0.2464
 3117TIP3    H130910   5.598   1.070   1.560  0.5923  1.5368 -0.2611
 3117TIP3    H230911   5.648   0.959   1.470 -0.4318 -0.4519  1.5440
 3118TIP3   OH230912   3.248   3.107   4.009  0.2960  0.4604  0.6455
 3118TIP3    H130913   3.232   3.170   4.080 -0.1971 -1.0024  1.8683
 3118TIP3    H230914   3.335   3.072   4.027 -0.7912 -1.7343  2.0405
 3119TIP3   OH230915   2.326   1.180   3.604 -0.0666 -0.4627  0.6065
 3119TIP3    H130916   2.359   1.236   3.674  1.5980  1.7583 -1.7686
 3119TIP3    H230917   2.240   1.216   3.584  0.4871  0.5174 -0.0910
 3120TIP3   OH230918   0.906   2.334   3.801  0.5507  0.0454 -0.1596
 3120TIP3    H130919   0.845   2.327   3.874  0.5225 -0.0875 -0.1948
 3120TIP3    H230920   0.935   2.244   3.785  0.3306  0.0329 -0.5023
 3121TIP3   OH230921   6.002   6.846   2.647  0.3235  0.3848 -0.1514
 3121TIP3    H130922   6.079   6.793   2.669 -0.7118 -1.1918 -0.1308
 3121TIP3    H230923   5.997   6.911   2.717  1.9709  0.9239 -0.4940
 3122TIP3   OH230924   5.053   0.622   0.804  0.5944  0.4764  0.1716
 3122TIP3    H130925   4.977   0.572   0.832  1.8084  0.4933  3.9567
 3122TIP3    H230926   5.025   0.713   0.810  0.6571  0.4580  0.7741
 3123TIP3   OH230927   3.546   0.469   3.737  0.2774 -0.5913  0.1143
 3123TIP3    H130928   3.508   0.542   3.786  1.7080  1.6838 -1.9176
 3123TIP3    H230929   3.562   0.401   3.802 -3.9381 -0.4028  1.6371
 3124TIP3   OH230930   2.642   4.219   4.350 -0.0384  0.0491  0.4482
 3124TIP3    H130931   2.562   4.202   4.400 -0.8457 -0.4925 -0.9477
 3124TIP3    H230932   2.613   4.271   4.275  0.8531 -0.4499 -0.2657
 3125TIP3   OH230933   2.361   2.977   2.701  0.2344  0.7549  0.5543
 3125TIP3    H130934   2.345   3.010   2.789 -0.7013  0.4726  0.5040
 3125TIP3    H230935   2.291   2.913   2.686  1.7668 -0.9812  0.5111
 3126TIP3   OH230936   5.111   1.475   2.357 -0.0164  0.3974 -0.0233
 3126TIP3    H130937   5.016   1.465   2.364 -0.0372 -0.1959 -0.9563
 3126TIP3    H230938   5.131   1.451   2.266  1.1280 -0.3057  0.3904
 3127TIP3   OH230939   3.406   5.777   0.954 -0.0540 -0.3225  0.2982
 3127TIP3    H130940   3.313   5.756   0.949  0.2734 -1.4990 -2.5133
 3127TIP3    H230941   3.435   5.738   1.037 -1.8041 -1.0742  0.5888
 3128TIP3   OH230942   3.910   0.423   1.633 -0.9640 -0.3405 -0.3951
 3128TIP3    H130943   3.852   0.393   1.563 -0.8873 -0.3144 -0.4688
 3128TIP3    H230944   3.887   0.368   1.708  0.4857 -1.8790 -1.0423
 3129TIP3   OH230945   6.672   3.371   0.457 -0.0026 -0.1406 -0.2117
 3129TIP3    H130946   6.720   3.317   0.393  1.0031 -1.8370  1.8342
 3129TIP3    H230947   6.741   3.410   0.511 -0.7531  2.7653 -1.1982
 3130TIP3   OH230948   5.451   6.593   3.265  0.3278  0.5114 -0.4077
 3130TIP3    H130949   5.407   6.669   3.226 -1.8313 -1.5738 -2.3969
 3130TIP3    H230950   5.385   6.523   3.262  2.4958 -1.7268  0.4418
 3131TIP3   OH230951   4.893   1.012   2.969 -0.5799  0.5480 -0.4804
 3131TIP3    H130952   4.868   1.104   2.960 -0.8505  0.5369  0.1082
 3131TIP3    H230953   4.982   1.008   2.933 -0.7917  0.9128 -1.0735
 3132TIP3   OH230954   2.847   6.129   2.099 -0.2306 -0.3499 -0.0145
 3132TIP3    H130955   2.940   6.143   2.082 -0.1404  0.2987  0.9227
 3132TIP3    H230956   2.820   6.206   2.149 -1.0777 -0.9284  0.4458
 3133TIP3   OH230957   0.753   6.585   2.531 -0.3733 -0.3186 -0.4276
 3133TIP3    H130958   0.827   6.629   2.489  0.0716 -0.5935  0.0556
 3133TIP3    H230959   0.749   6.623   2.619 -0.6262 -0.5162 -0.3524
 3134TIP3   OH230960   2.583   0.241   2.260 -0.2019 -0.5035 -0.0150
 3134TIP3    H130961   2.659   0.184   2.249  0.5245  0.5309 -0.4772
 3134TIP3    H230962   2.536   0.236   2.176  0.7077  0.7531 -0.6304
 3135TIP3   OH230963   2.398   0.145   2.509 -0.1218  0.4226  0.5968
 3135TIP3    H130964   2.470   0.204   2.532  1.3247 -0.1811 -1.9383
 3135TIP3    H230965   2.425   0.060   2.543  0.0912  0.3100  0.1504
 3136TIP3   OH230966   4.332   5.467   2.613 -0.3670  0.2092 -0.0522
 3136TIP3    H130967   4.246   5.497   2.583 -0.6729 -0.0863  0.5081
 3136TIP3    H230968   4.384   5.461   2.533 -1.6083 -2.0867 -0.8221
 3137TIP3   OH230969   1.808   2.706   3.578  0.1777 -0.0661  0.1562
 3137TIP3    H130970   1.805   2.795   3.543 -0.0809  0.4084  1.3168
 3137TIP3    H230971   1.716   2.679   3.583 -0.1130  1.0519  3.1944
 3138TIP3   OH230972   1.875   0.646   4.000  0.0085  0.1752  0.0660
 3138TIP3    H130973   1.854   0.571   3.945  0.1893  0.2470 -0.1023
 3138TIP3    H230974   1.958   0.623   4.042  0.0308  0.2531  0.0647
 3139TIP3   OH230975   5.111   3.785   3.304  0.0533  0.0781 -0.3251
 3139TIP3    H130976   5.120   3.821   3.392 -0.2446  0.2511 -0.3622
 3139TIP3    H230977   5.070   3.855   3.254 -1.3090 -0.5982 -0.1989
 3140TIP3   OH230978   5.696   5.923   1.380  0.0130  0.1002  0.0948
 3140TIP3    H130979   5.665   5.933   1.290 -0.1530  1.1381  0.2535
 3140TIP3    H230980   5.775   5.977   1.384 -0.7003  1.1406  0.8994
 3141TIP3   OH230981   0.845   2.462   0.777 -0.1288  0.2430  0.2483
 3141TIP3    H130982   0.812   2.466   0.867  1.2140 -0.6707  0.8335
 3141TIP3    H230983   0.836   2.551   0.744 -1.6380  0.3619  0.9022
 3142TIP3   OH230984   5.800   5.568   2.743 -0.1786  0.1402 -0.1317
 3142TIP3    H130985   5.863   5.629   2.705  1.4453 -1.4140 -0.0442
 3142TIP3    H230986   5.738   5.551   2.671 -0.1400  1.1904 -0.4283
 3143TIP3   OH230987   5.359   5.683   4.626  0.9466  0.4944 -0.0171
 3143TIP3    H130988   5.416   5.617   4.588 -0.2998 -0.2125 -0.7210
 3143TIP3    H230989   5.349   5.749   4.557  1.3620  0.9144  0.3146
 3144TIP3   OH230990   2.662   6.006   3.770  0.0823 -0.1402  0.1635
 3144TIP3    H130991   2.644   6.019   3.863 -1.1438 -0.3285 -0.0271
 3144TIP3    H230992   2.657   6.094   3.732  1.2504  0.0247  0.3739
 3145TIP3   OH230993   0.196   4.647   0.907 -0.2372  0.0054 -0.0490
 3145TIP3    H130994   0.256   4.599   0.964  0.4371  0.3522 -0.4461
 3145TIP3    H230995   0.122   4.670   0.962  0.4596  0.4446  0.7262
 3146TIP3   OH230996   5.909   4.557   1.709  0.3195  0.2790 -0.6599
 3146TIP3    H130997   5.956   4.487   1.754  1.3634 -0.0481 -2.1624
 3146TIP3    H230998   5.924   4.635   1.762  0.2448 -0.3749  0.3400
 3147TIP3   OH230999   0.279   5.743   3.165 -0.2892  0.2446 -0.3858
 3147TIP3    H131000   0.248   5.738   3.255  0.4666 -0.2610 -0.1451
 3147TIP3    H231001   0.269   5.654   3.131  0.9719  0.0357 -0.2641
 3148TIP3   OH231002   2.236   1.253   0.675  0.1278  0.1140  0.3453
 3148TIP3    H131003   2.224   1.337   0.631 -0.1607  0.1053  0.4080
 3148TIP3    H231004   2.280   1.198   0.609  1.0828  0.5636  0.5862
 3149TIP3   OH231005   0.850   5.214   4.449  0.0271 -0.4899 -0.1957
 3149TIP3    H131006   0.930   5.229   4.499 -0.0264  1.6596 -0.6600
 3149TIP3    H231007   0.784   5.270   4.490 -0.6447 -0.5002 -1.2064
 3150TIP3   OH231008   0.988   4.851   3.845 -0.5667  0.3333 -0.0252
 3150TIP3    H131009   1.058   4.786   3.840 -2.4465 -1.9612  1.4956
 3150TIP3    H231010   1.008   4.902   3.924 -0.6358 -0.3608  0.4445
 3151TIP3   OH231011   3.085   5.295   2.930 -0.0860 -0.2231 -0.0552
 3151TIP3    H131012   3.128   5.308   3.014 -1.4372  2.6695  0.2873
 3151TIP3    H231013   2.997   5.264   2.952 -0.1996 -0.1813 -0.4358
 3152TIP3   OH231014   1.962   3.859   2.571  0.0723 -0.6431  0.2042
 3152TIP3    H131015   1.914   3.800   2.630 -0.1818 -1.3321 -0.6790
 3152TIP3    H231016   2.054   3.833   2.580 -0.2691 -3.2030 -2.2997
 3153TIP3   OH231017   0.525   6.782   0.690  0.0228  0.2646  0.4272
 3153TIP3    H131018   0.434   6.759   0.672 -0.4304  1.2308  1.3577
 3153TIP3    H231019   0.576   6.727   0.631 -1.1349 -0.7451  0.3261
 3154TIP3   OH231020   5.379   6.759   4.479  0.0123  0.5947  0.0475
 3154TIP3    H131021   5.464   6.721   4.460 -1.0223 -1.9428  0.0949
 3154TIP3    H231022   5.384   6.848   4.445  2.1972  0.0510 -1.2332
 3155TIP3   OH231023   1.364   6.489   3.449  0.1646 -0.2924  0.0871
 3155TIP3    H131024   1.273   6.486   3.421 -0.2084  0.2638  1.1939
 3155TIP3    H231025   1.397   6.400   3.435 -0.8721 -0.7936  0.7444
 3156TIP3   OH231026   5.606   1.948   0.150  0.0942  0.2177 -0.2119
 3156TIP3    H131027   5.662   2.012   0.194 -0.0309 -0.6949  1.3584
 3156TIP3    H231028   5.555   2.000   0.088 -0.4971  1.7769  1.4845
 3157TIP3   OH231029   1.305   4.945   0.496 -0.1029 -0.1736 -0.1270
 3157TIP3    H131030   1.219   4.953   0.537 -0.9071  0.1293 -1.8177
 3157TIP3    H231031   1.311   4.853   0.471 -0.7200  0.1584 -1.6007
 3158TIP3   OH231032   1.785   2.196   4.127 -0.7515 -0.7347 -0.0987
 3158TIP3    H131033   1.748   2.179   4.041 -1.5715 -0.5046  0.2007
 3158TIP3    H231034   1.861   2.252   4.110 -2.6804  1.9750 -0.4788
 3159TIP3   OH231035   2.222   4.989   1.425 -0.1794  0.0189 -0.0859
 3159TIP3    H131036   2.203   4.968   1.334  1.7546  2.3756 -1.1485
 3159TIP3    H231037   2.139   5.022   1.460 -0.6360  0.2992 -1.3885
 3160TIP3   OH231038   0.781   0.814   0.673 -0.0953  0.3809 -0.1713
 3160TIP3    H131039   0.793   0.827   0.579 -1.1903 -1.4617 -0.6215
 3160TIP3    H231040   0.718   0.742   0.679  0.6974 -0.2031  1.9655
 3161TIP3   OH231041   0.580   3.432   0.121 -0.0750  0.1277  0.2719
 3161TIP3    H131042   0.558   3.430   0.214  0.3274  2.0071  0.4605
 3161TIP3    H231043   0.669   3.397   0.116 -0.3500 -0.6190  0.4848
 3162TIP3   OH231044   5.150   4.656   3.719 -0.1843  0.3470 -0.3286
 3162TIP3    H131045   5.055   4.658   3.729 -0.2874 -0.1814 -1.1103
 3162TIP3    H231046   5.182   4.618   3.800 -0.8821 -2.4015 -1.2199
 3163TIP3   OH231047   3.070   3.515   2.614  1.1097 -0.0637  0.2184
 3163TIP3    H131048   3.091   3.592   2.668 -1.3076  0.7767  0.1104
 3163TIP3    H231049   3.039   3.450   2.677  0.7031  0.0060  0.0951
 3164TIP3   OH231050   5.436   6.534   1.802 -1.2626  0.1421 -0.2133
 3164TIP3    H131051   5.426   6.586   1.722 -0.9703  0.2706 -0.1680
 3164TIP3    H231052   5.393   6.585   1.870 -1.6777 -0.0562 -0.3216
 3165TIP3   OH231053   5.230   0.432   0.996 -0.1916  0.2341  0.0011
 3165TIP3    H131054   5.149   0.432   1.047 -0.5915  0.4503 -0.6287
 3165TIP3    H231055   5.244   0.524   0.973  0.2339  0.1991  0.0944
 3166TIP3   OH231056   6.050   6.754   4.287 -0.2166 -0.1948 -0.3943
 3166TIP3    H131057   5.960   6.769   4.260 -0.4355 -1.1786 -0.2571
 3166TIP3    H231058   6.090   6.705   4.215 -0.0921 -0.6652 -0.0106
 3167TIP3   OH231059   6.553   2.712   1.938  0.4447 -0.0344  0.3091
 3167TIP3    H131060   6.625   2.705   1.876  1.1717  1.3769  0.9631
 3167TIP3    H231061   6.579   2.782   1.998 -0.5879 -0.8157  1.7373
 3168TIP3   OH231062   5.259   2.343   4.554 -0.0742 -0.3038 -0.4122
 3168TIP3    H131063   5.271   2.249   4.542  3.2442 -0.2030  0.8080
 3168TIP3    H231064   5.193   2.368   4.491 -1.8303 -3.5930 -0.0834
 3169TIP3   OH231065   3.737   4.824   1.332 -0.1246 -0.4655 -0.0901
 3169TIP3    H131066   3.723   4.746   1.277  1.1544 -2.1202  1.7799
 3169TIP3    H231067   3.820   4.860   1.303  0.0477 -0.7362  0.0598
 3170TIP3   OH231068   0.678   3.205   1.464  0.1330 -0.1836  0.6091
 3170TIP3    H131069   0.658   3.213   1.371  0.5107  0.7351  0.5996
 3170TIP3    H231070   0.749   3.267   1.479 -0.6774  0.5223  1.7370
 3171TIP3   OH231071   5.803   3.865   2.562 -0.0096  0.3988  0.1433
 3171TIP3    H131072   5.773   3.856   2.652  1.0686 -1.1289  0.3926
 3171TIP3    H231073   5.848   3.950   2.560 -0.1930  0.5184  0.9989
 3172TIP3   OH231074   0.381   2.551   2.599 -0.7741  0.6599 -0.0466
 3172TIP3    H131075   0.396   2.509   2.683 -1.8658  0.2411 -0.0438
 3172TIP3    H231076   0.359   2.642   2.620 -1.3086  0.4888  0.1432
 3173TIP3   OH231077   2.865   1.070   0.629 -0.5537 -0.4175 -0.1635
 3173TIP3    H131078   2.856   1.007   0.701  1.3361 -1.2860 -0.6087
 3173TIP3    H231079   2.794   1.049   0.569 -0.7440 -1.2391  0.3353
 3174TIP3   OH231080   0.160   4.083   1.772  0.1515 -0.1522  0.2458
 3174TIP3    H131081   0.232   4.021   1.779 -0.2910 -0.6331  0.5880
 3174TIP3    H231082   0.153   4.102   1.678  0.8686  0.0743  0.2388
 3175TIP3   OH231083   1.540   2.090   3.570  0.0996  0.7114  0.7504
 3175TIP3    H131084   1.604   2.070   3.638  0.0043  1.2774  1.0148
 3175TIP3    H231085   1.473   2.141   3.615 -0.7576 -0.2114  0.5729
 3176TIP3   OH231086   3.843   3.350   0.861  0.0581  0.4130  0.3892
 3176TIP3    H131087   3.866   3.419   0.923  1.9773 -0.5797  0.8532
 3176TIP3    H231088   3.857   3.389   0.775  0.7203  0.7350  0.6357
 3177TIP3   OH231089   1.505   1.831   4.368 -0.8390  0.5307 -0.2424
 3177TIP3    H131090   1.482   1.844   4.276 -1.9164 -1.3983 -0.2926
 3177TIP3    H231091   1.536   1.917   4.397 -1.6625  1.5009 -2.0637
 3178TIP3   OH231092   0.196   6.056   1.878 -0.4558 -0.4835  0.0208
 3178TIP3    H131093   0.182   6.015   1.793  0.1666  2.5392 -1.7031
 3178TIP3    H231094   0.275   6.109   1.867 -0.3036 -0.0370  2.5421
 3179TIP3   OH231095   3.672   1.734   8.046 -0.1413  0.4594  0.3163
 3179TIP3    H131096   3.699   1.742   8.138  0.9906  0.6331 -0.0129
 3179TIP3    H231097   3.577   1.726   8.050 -0.1431  0.7739  1.4883
 3180TIP3   OH231098   1.053   3.040   2.878  0.0812  0.0679  0.0381
 3180TIP3    H131099   1.142   3.050   2.912  0.5315 -1.3144 -0.6733
 3180TIP3    H231100   0.998   3.035   2.957  0.8290 -0.6705  0.5334
 3181TIP3   OH231101   3.608   1.097   1.209 -0.4727 -0.5977  0.5056
 3181TIP3    H131102   3.616   1.190   1.227  1.5274 -0.3588 -1.1600
 3181TIP3    H231103   3.697   1.063   1.219 -1.2168 -2.4532  1.4764
 3182TIP3   OH231104   2.345   1.251   3.032 -0.6056  0.8338  0.3196
 3182TIP3    H131105   2.358   1.290   3.118  1.3818  0.3773  0.2855
 3182TIP3    H231106   2.334   1.157   3.049  2.3534  0.3252  0.0359
 3183TIP3   OH231107   5.316   2.297   2.941  0.5105 -0.4313 -0.7977
 3183TIP3    H131108   5.229   2.289   2.901  0.6687 -0.4720 -1.1424
 3183TIP3    H231109   5.299   2.331   3.029  0.1004 -1.0119 -0.6463
 3184TIP3   OH231110   6.590   5.423   8.491  0.2152  0.4040 -0.2175
 3184TIP3    H131111   6.584   5.510   8.532  1.0404  2.0980 -3.3439
 3184TIP3    H231112   6.684   5.403   8.492  0.2333  0.4254 -1.1296
 3185TIP3   OH231113   4.791   2.411   2.526 -0.2532 -0.9784 -0.0756
 3185TIP3    H131114   4.832   2.384   2.608 -0.0636  0.1215  0.2100
 3185TIP3    H231115   4.705   2.443   2.552  0.2515  0.4750 -0.1322
 3186TIP3   OH231116   4.230   4.052   2.993  0.1345 -0.3362  0.4353
 3186TIP3    H131117   4.197   3.978   2.942 -0.3694  0.3843 -0.3182
 3186TIP3    H231118   4.151   4.101   3.017  0.5634  1.3744 -1.3332
 3187TIP3   OH231119   1.852   0.603   1.721  0.2622 -0.0472  0.1052
 3187TIP3    H131120   1.877   0.695   1.730  1.1886 -0.2749 -0.1156
 3187TIP3    H231121   1.918   0.555   1.772 -0.2252 -0.5952  0.2354
 3188TIP3   OH231122   0.847   3.884   2.848  0.0629  0.5714 -0.2666
 3188TIP3    H131123   0.857   3.789   2.843 -0.5919  0.4216  0.9357
 3188TIP3    H231124   0.853   3.914   2.757 -2.6999 -0.9440 -1.0389
 3189TIP3   OH231125   1.880   5.222   0.115 -0.1210  0.7189 -0.2437
 3189TIP3    H131126   1.915   5.190   0.031 -1.1562  0.0006 -0.4256
 3189TIP3    H231127   1.834   5.146   0.152  2.5696  0.1353  2.3128
 3190TIP3   OH231128   6.318   2.717   0.437 -0.3843  0.0411 -0.3836
 3190TIP3    H131129   6.319   2.762   0.352  0.3439  0.3065 -0.2434
 3190TIP3    H231130   6.238   2.747   0.479  0.8116  2.4880  0.3595
 3191TIP3   OH231131   1.198   1.468   3.183  0.8527 -0.3963 -0.4688
 3191TIP3    H131132   1.180   1.552   3.224  0.0330 -0.2167 -1.1714
 3191TIP3    H231133   1.116   1.418   3.193  0.4792 -0.1976 -2.2099
 3192TIP3   OH231134   4.738   5.202   1.991 -0.4975  0.1782  0.7215
 3192TIP3    H131135   4.677   5.199   2.065  0.3298  2.8479  1.6582
 3192TIP3    H231136   4.823   5.179   2.029 -0.2947  0.2176  0.3020
 3193TIP3   OH231137   4.223   2.414   2.439 -0.1208  0.5012  0.0997
 3193TIP3    H131138   4.140   2.389   2.398  0.8995 -0.0923 -1.6957
 3193TIP3    H231139   4.240   2.502   2.408  0.3271  0.3064 -0.2118
 3194TIP3   OH231140   1.178   1.866   0.575  0.0645  0.0994 -0.1636
 3194TIP3    H131141   1.112   1.813   0.529  0.9670 -1.1000 -0.1261
 3194TIP3    H231142   1.163   1.846   0.668  2.2746 -2.5276 -0.2346
 3195TIP3   OH231143   1.662   5.080   1.474 -0.3411 -0.3420 -0.8008
 3195TIP3    H131144   1.605   5.130   1.415 -1.4287  0.8726  1.1855
 3195TIP3    H231145   1.606   5.057   1.548  0.8574 -2.2603 -0.4185
 3196TIP3   OH231146   4.858   4.305   2.214  0.3281 -0.2658  0.5822
 3196TIP3    H131147   4.924   4.266   2.271  3.2406  1.4433 -1.3824
 3196TIP3    H231148   4.827   4.232   2.160  0.8540 -1.0390  1.3010
 3197TIP3   OH231149   1.586   2.138   2.591  0.3051 -0.4280 -0.2780
 3197TIP3    H131150   1.641   2.140   2.513 -2.4407  1.6795 -2.3715
 3197TIP3    H231151   1.608   2.219   2.638 -1.0523  0.5646 -1.2670
 3198TIP3   OH231152   2.141   3.276   3.141 -0.1323  0.0488 -0.1575
 3198TIP3    H131153   2.065   3.294   3.086 -0.4238 -1.3022 -0.2426
 3198TIP3    H231154   2.161   3.359   3.183 -1.7649  0.4057 -0.0187
 3199TIP3   OH231155   6.199   0.084   3.343  0.1894  0.4275  0.0848
 3199TIP3    H131156   6.122   0.104   3.289 -0.1040  0.5672  0.5493
 3199TIP3    H231157   6.170   0.101   3.433  0.5396 -0.2258  0.3226
 3200TIP3   OH231158   5.171   2.489   4.281  0.8764  0.0040 -0.0881
 3200TIP3    H131159   5.113   2.564   4.266  0.2911 -0.0161  1.9079
 3200TIP3    H231160   5.137   2.421   4.223 -1.8411 -0.3714  1.7850
 3201TIP3   OH231161   4.135   0.679   3.673  0.5450  0.1196  0.0280
 3201TIP3    H131162   4.167   0.769   3.674 -1.1692  0.7708  0.2713
 3201TIP3    H231163   4.163   0.644   3.588 -0.4194  1.5548 -0.9348
 3202TIP3   OH231164   5.024   3.356   2.695 -0.1867  0.5051  0.3961
 3202TIP3    H131165   5.051   3.389   2.610 -1.9076  2.4539  0.5066
 3202TIP3    H231166   5.103   3.357   2.749  0.2279  2.8061 -0.1722
 3203TIP3   OH231167   5.074   3.494   3.926  0.1727  0.2627 -0.5983
 3203TIP3    H131168   5.003   3.547   3.888  0.5413  0.8146 -0.5347
 3203TIP3    H231169   5.133   3.477   3.853  0.0269 -0.1076 -0.6286
 3204TIP3   OH231170   5.585   5.371   0.915  0.4962  1.1163 -0.4885
 3204TIP3    H131171   5.584   5.461   0.884 -1.1234  1.2751 -0.0859
 3204TIP3    H231172   5.532   5.322   0.852  0.8595  0.5689 -0.3792
 3205TIP3   OH231173   4.917   4.849   2.307  0.0807 -0.2967 -0.1738
 3205TIP3    H131174   4.964   4.854   2.390 -1.5892 -0.5708  0.8216
 3205TIP3    H231175   4.899   4.756   2.295  1.9776 -0.5310 -1.8741
 3206TIP3   OH231176   6.117   5.407   0.374 -0.2401 -0.2785 -0.3783
 3206TIP3    H131177   6.080   5.319   0.387  1.0474 -0.5319  2.2365
 3206TIP3    H231178   6.179   5.397   0.302 -0.2718 -1.4735 -0.2597
 3207TIP3   OH231179   2.178   2.299   1.847 -0.1661 -0.3426 -0.3110
 3207TIP3    H131180   2.118   2.314   1.775 -0.8633  0.7102  0.4514
 3207TIP3    H231181   2.185   2.384   1.891  1.1453 -0.6709  0.1779
 3208TIP3   OH231182   3.594   0.678   2.462  0.3321  0.4330  0.0386
 3208TIP3    H131183   3.659   0.622   2.420  1.1086  1.2716  0.0941
 3208TIP3    H231184   3.589   0.646   2.552 -0.3259 -0.4861 -0.3095
 3209TIP3   OH231185   1.260   0.061   3.549  0.1163 -0.1140  0.0233
 3209TIP3    H131186   1.193   0.120   3.514  2.2317  2.9653  0.7953
 3209TIP3    H231187   1.333   0.068   3.487  0.3794 -2.1238  0.0492
 3210TIP3   OH231188   1.209   5.034   2.544 -0.3646 -0.0651  0.1782
 3210TIP3    H131189   1.229   5.065   2.456 -0.7775 -1.0480 -0.2682
 3210TIP3    H231190   1.262   5.090   2.601 -0.3328  0.7848 -0.6653
 3211TIP3   OH231191   3.344   0.708   0.210 -0.2794 -0.2422 -0.3334
 3211TIP3    H131192   3.393   0.636   0.250 -0.4039 -0.4054 -0.4708
 3211TIP3    H231193   3.290   0.665   0.143  0.8408  0.1585 -1.5439
 3212TIP3   OH231194   2.980   4.234   1.148  0.1124 -0.4889  0.5603
 3212TIP3    H131195   2.911   4.223   1.082 -1.3397  0.7624  1.7966
 3212TIP3    H231196   2.990   4.329   1.157  2.2792 -0.6407  0.1744
 3213TIP3   OH231197   2.061   2.909   8.407 -0.1589  0.0625 -0.0993
 3213TIP3    H131198   2.040   2.819   8.383  1.2379 -0.0755 -0.8695
 3213TIP3    H231199   2.155   2.909   8.421  0.1200  1.7235 -1.6145
 3214TIP3   OH231200   5.381   2.488   4.008 -0.1166  0.0456 -0.1764
 3214TIP3    H131201   5.372   2.398   3.976  0.3795 -0.2022  0.3588
 3214TIP3    H231202   5.421   2.478   4.095 -1.7787  0.6692  0.7004
 3215TIP3   OH231203   3.365   0.724   3.031 -0.3796  0.2766 -0.3463
 3215TIP3    H131204   3.292   0.717   2.970 -0.6225 -1.4838  0.1007
 3215TIP3    H231205   3.325   0.714   3.117  0.2549  0.3838 -0.0358
 3216TIP3   OH231206   3.513   1.298   2.700  0.3872  0.2817 -0.3997
 3216TIP3    H131207   3.455   1.233   2.739  0.1533  0.4436 -0.4773
 3216TIP3    H231208   3.454   1.366   2.666  0.6711  0.9642  0.4579
 3217TIP3   OH231209   5.700   3.586   2.384 -0.3933  0.1807 -0.4674
 3217TIP3    H131210   5.730   3.541   2.305  0.4245  2.6884 -1.6790
 3217TIP3    H231211   5.780   3.622   2.423 -1.1191  1.7690 -0.3666
 3218TIP3   OH231212   3.748   0.471   0.603 -0.9510 -0.5547 -0.5681
 3218TIP3    H131213   3.676   0.529   0.626  0.1044  0.0618  1.4218
 3218TIP3    H231214   3.793   0.515   0.531  0.0255  1.3546  1.1204
 3219TIP3   OH231215   3.993   5.805   1.697 -0.0357  0.0277  0.3234
 3219TIP3    H131216   3.904   5.774   1.680  0.4597 -2.3644  1.6277
 3219TIP3    H231217   4.042   5.726   1.722  2.6432  1.1541 -0.9608
 3220TIP3   OH231218   6.287   0.686   3.574 -0.1074 -0.0655  0.2967
 3220TIP3    H131219   6.219   0.738   3.532 -0.4908 -2.4342 -2.3357
 3220TIP3    H231220   6.369   0.722   3.542 -0.3207 -0.0814 -0.2833
 3221TIP3   OH231221   3.832   4.201   4.924  0.1073  0.1323 -0.3223
 3221TIP3    H131222   3.774   4.268   4.958  2.0970  1.1165  1.3616
 3221TIP3    H231223   3.880   4.244   4.853  1.5113  0.6297  0.8748
 3222TIP3   OH231224   0.237   3.968   4.768 -0.4240 -0.0461  0.2788
 3222TIP3    H131225   0.150   4.008   4.774  0.4817  1.9017  1.4444
 3222TIP3    H231226   0.288   4.029   4.715  0.1164 -1.4748 -0.9139
 3223TIP3   OH231227   5.684   1.567   1.026 -0.5240 -0.1114 -0.0120
 3223TIP3    H131228   5.675   1.622   0.948  2.1685 -0.3984 -0.6278
 3223TIP3    H231229   5.698   1.479   0.990 -0.0233 -0.3758  0.8185
 3224TIP3   OH231230   4.363   3.565   2.691 -0.6507 -0.2707 -0.0676
 3224TIP3    H131231   4.337   3.587   2.780 -0.3263  1.1682 -0.3078
 3224TIP3    H231232   4.455   3.541   2.698 -1.0657 -1.9577  0.2335
 3225TIP3   OH231233   3.110   6.275   1.106  0.1498 -0.3797 -0.6245
 3225TIP3    H131234   3.172   6.345   1.128 -0.4536 -0.3974  1.3084
 3225TIP3    H231235   3.048   6.316   1.045 -0.4694  0.9721  0.8322
 3226TIP3   OH231236   4.661   1.856   3.347  0.7866 -0.5912  0.8993
 3226TIP3    H131237   4.623   1.784   3.398 -1.2390 -0.6832 -0.5928
 3226TIP3    H231238   4.726   1.813   3.291  1.5506 -0.8134  1.9487
 3227TIP3   OH231239   0.650   1.087   4.084 -0.3442  0.2986  0.2545
 3227TIP3    H131240   0.628   1.005   4.039 -1.0528  0.3097  0.5727
 3227TIP3    H231241   0.716   1.062   4.149  0.1608  0.1568 -0.3037
 3228TIP3   OH231242   0.550   4.523   0.441  0.2475  0.4193  0.7043
 3228TIP3    H131243   0.584   4.439   0.471  0.6612  0.2759 -0.1296
 3228TIP3    H231244   0.627   4.581   0.439  0.0392  0.7078  0.8843
 3229TIP3   OH231245   5.663   1.504   1.962 -0.1002 -0.2022 -0.4358
 3229TIP3    H131246   5.570   1.488   1.973 -0.4730  1.1795 -1.4083
 3229TIP3    H231247   5.669   1.585   1.912  1.6462  1.2841  1.9439
 3230TIP3   OH231248   0.754   4.550   1.939  0.8575  0.0412  0.4020
 3230TIP3    H131249   0.767   4.530   2.031  2.9500 -0.6914 -0.0076
 3230TIP3    H231250   0.704   4.475   1.905  2.1889 -0.9147  0.4669
 3231TIP3   OH231251   0.338   6.649   4.057  0.1687 -0.0473  0.6253
 3231TIP3    H131252   0.358   6.708   4.129  0.8321  0.8081 -0.2387
 3231TIP3    H231253   0.333   6.705   3.980 -1.4561 -0.8076  0.1259
 3232TIP3   OH231254   0.273   1.658   2.673  0.2362 -0.1938  0.1191
 3232TIP3    H131255   0.225   1.661   2.755 -0.0258 -0.7675 -0.0093
 3232TIP3    H231256   0.356   1.703   2.691 -0.7146  1.6674  0.0869
 3233TIP3   OH231257   1.558   3.263   0.528 -0.2038 -0.5498  0.1432
 3233TIP3    H131258   1.552   3.338   0.469  0.3173 -1.6432 -1.3674
 3233TIP3    H231259   1.623   3.206   0.487 -0.0667 -1.5173  1.6268
 3234TIP3   OH231260   2.368   3.727   4.234 -0.3664  0.2109  0.6825
 3234TIP3    H131261   2.352   3.685   4.319 -1.2001  1.5822  1.2310
 3234TIP3    H231262   2.410   3.659   4.181 -0.7128 -0.9718  1.8800
 3235TIP3   OH231263   5.541   1.380   0.586 -0.2435 -0.0359 -0.8430
 3235TIP3    H131264   5.629   1.356   0.613 -0.7989 -0.1788  0.9815
 3235TIP3    H231265   5.514   1.309   0.527  0.6314 -0.3084 -0.9308
 3236TIP3   OH231266   2.982   3.923   3.446  0.0615 -0.1277 -0.4181
 3236TIP3    H131267   2.976   3.984   3.520  0.5160  0.1038 -0.5639
 3236TIP3    H231268   2.978   3.837   3.486 -2.4005 -0.0512 -0.3609
 3237TIP3   OH231269   1.863   0.950   1.502 -0.1062 -0.1487 -0.5161
 3237TIP3    H131270   1.921   0.924   1.574 -0.9579 -0.3294  0.1279
 3237TIP3    H231271   1.821   1.030   1.534 -0.8920 -0.5275 -0.5825
 3238TIP3   OH231272   2.005   6.393   2.631 -0.4977  0.0911  0.0059
 3238TIP3    H131273   1.938   6.343   2.677 -0.7169 -0.8527 -1.2991
 3238TIP3    H231274   2.084   6.340   2.637 -0.3552  0.2848 -0.1383
 3239TIP3   OH231275   6.199   5.484   0.891 -0.0263  0.6440  0.1875
 3239TIP3    H131276   6.163   5.423   0.955 -0.1648  1.1197  0.5661
 3239TIP3    H231277   6.227   5.559   0.943 -0.3187  1.1168 -0.3341
 3240TIP3   OH231278   3.272   0.685   3.624 -0.0672  0.3923 -0.1133
 3240TIP3    H131279   3.323   0.735   3.688  0.3395 -0.0496 -0.0869
 3240TIP3    H231280   3.181   0.707   3.644  0.1229  2.8938 -1.5441
 3241TIP3   OH231281   1.427   6.057   0.839  0.1019  0.1878 -0.1434
 3241TIP3    H131282   1.452   6.133   0.787  0.7866 -0.5790 -0.9670
 3241TIP3    H231283   1.403   6.093   0.924  0.7873  1.2843 -0.3949
 3242TIP3   OH231284   1.952   0.943   2.752  0.0729 -0.0178 -0.0075
 3242TIP3    H131285   2.001   1.009   2.801  0.2932  2.1614 -2.8926
 3242TIP3    H231286   2.013   0.915   2.684 -0.7366 -1.7788 -0.0461
 3243TIP3   OH231287   0.427   2.451   0.459  0.2827 -0.1948 -0.0741
 3243TIP3    H131288   0.367   2.525   0.446 -0.5894 -1.2648 -2.7014
 3243TIP3    H231289   0.511   2.491   0.481 -0.0775  1.6205 -1.7810
 3244TIP3   OH231290   2.785   1.815   2.721  0.4549  0.4088  0.1837
 3244TIP3    H131291   2.750   1.740   2.768 -0.5947  0.3070 -0.7143
 3244TIP3    H231292   2.795   1.883   2.789  0.4596 -0.2184  0.8212
 3245TIP3   OH231293   3.024   0.715   1.064  0.4668 -0.0404 -0.1539
 3245TIP3    H131294   2.962   0.663   1.114  1.0980 -1.5243 -0.8557
 3245TIP3    H231295   3.051   0.785   1.124  0.0262 -0.8425  1.0166
 3246TIP3   OH231296   2.418   2.962   1.241  0.0186 -0.2349 -0.0796
 3246TIP3    H131297   2.351   2.933   1.302 -0.9292 -0.9575 -1.4390
 3246TIP3    H231298   2.433   3.054   1.265 -1.4816 -0.0448  0.2237
 3247TIP3   OH231299   0.416   4.721   1.764 -0.6361 -0.1436  0.1670
 3247TIP3    H131300   0.511   4.734   1.767 -0.6126  0.0422 -0.9519
 3247TIP3    H231301   0.396   4.671   1.843  0.1483  1.2675  1.3070
 3248TIP3   OH231302   2.258   1.004   3.120  0.4632 -0.6260 -1.2272
 3248TIP3    H131303   2.337   0.977   3.168 -0.0276 -2.1360 -1.1940
 3248TIP3    H231304   2.188   1.001   3.186  0.4286  1.1735 -1.1380
 3249TIP3   OH231305   3.304   5.245   3.880  0.0394 -0.2392 -0.0980
 3249TIP3    H131306   3.274   5.158   3.907  0.0096 -0.2616 -0.2032
 3249TIP3    H231307   3.234   5.278   3.824  0.1141 -0.2039 -0.1699
 3250TIP3   OH231308   4.408   0.343   2.796 -0.1288  0.2405 -0.5836
 3250TIP3    H131309   4.500   0.363   2.781 -0.3083  0.4622 -1.4574
 3250TIP3    H231310   4.400   0.250   2.775 -0.2677  0.4200 -1.3482
 3251TIP3   OH231311   1.797   2.206   1.922 -0.2506 -0.0431  0.5008
 3251TIP3    H131312   1.871   2.198   1.861 -0.3487  0.1880  0.3508
 3251TIP3    H231313   1.834   2.250   1.998 -0.6379  1.7853 -0.3071
 3252TIP3   OH231314   5.642   3.666   1.059 -0.4016 -1.0794 -0.4844
 3252TIP3    H131315   5.715   3.612   1.028  1.2757  0.7748  0.0169
 3252TIP3    H231316   5.642   3.653   1.154  1.3850  1.2662 -0.0799
 3253TIP3   OH231317   2.574   1.749   2.940 -0.1750  0.7664  0.1562
 3253TIP3    H131318   2.531   1.804   2.875  0.0679  0.2179 -0.4876
 3253TIP3    H231319   2.505   1.689   2.970 -0.5542  1.6616  1.1763
 3254TIP3   OH231320   2.772   2.430   1.746  0.1081  0.3248 -0.2353
 3254TIP3    H131321   2.753   2.523   1.763 -0.3181  0.1457  0.3086
 3254TIP3    H231322   2.689   2.394   1.717  0.1032 -0.0315  0.2075
 3255TIP3   OH231323   0.530   5.596   3.820  0.1984  0.0749  0.4816
 3255TIP3    H131324   0.555   5.521   3.766 -1.4047 -0.2102  0.0749
 3255TIP3    H231325   0.497   5.558   3.901 -0.8713  0.2987  0.1708
 3256TIP3   OH231326   1.808   1.530   0.785 -0.0061  0.1540  0.0585
 3256TIP3    H131327   1.796   1.614   0.829 -0.9669 -0.5896  1.2692
 3256TIP3    H231328   1.719   1.497   0.772  0.3672 -0.7788 -0.2111
 3257TIP3   OH231329   2.052   3.847   3.225 -0.2445 -0.0566  0.2503
 3257TIP3    H131330   2.104   3.879   3.298 -0.6308  1.3960 -0.0736
 3257TIP3    H231331   2.073   3.906   3.152 -0.1656 -1.2200 -0.7072
 3258TIP3   OH231332   3.357   5.811   2.914 -0.3652  0.5069 -0.3648
 3258TIP3    H131333   3.364   5.745   2.983 -0.1491 -0.5872 -1.4085
 3258TIP3    H231334   3.404   5.887   2.949 -2.8532  1.1502  1.9956
 3259TIP3   OH231335   3.832   0.293   3.243 -0.1277  0.3789  0.4045
 3259TIP3    H131336   3.754   0.297   3.188 -0.1602  0.5438  0.4625
 3259TIP3    H231337   3.870   0.207   3.224  0.7391  1.0530 -1.0856
 3260TIP3   OH231338   1.086   5.383   2.892  0.0806 -0.5961 -0.1616
 3260TIP3    H131339   0.992   5.376   2.908 -0.4520 -1.2420 -2.9892
 3260TIP3    H231340   1.120   5.296   2.914 -0.2922 -0.8883 -0.7180
 3261TIP3   OH231341   0.568   4.648   0.166 -0.0568  0.6247  0.1193
 3261TIP3    H131342   0.554   4.706   0.091  2.4400  2.3521  0.8775
 3261TIP3    H231343   0.637   4.588   0.138 -2.3832 -1.9586 -0.5339
 3262TIP3   OH231344   4.222   1.000   1.937  0.4000 -0.0054  0.1520
 3262TIP3    H131345   4.221   0.945   2.016 -1.1101  0.7527  0.6978
 3262TIP3    H231346   4.132   1.031   1.928  0.5895  0.0742 -1.7907
 3263TIP3   OH231347   6.855   4.128   2.113 -0.6599 -0.3800 -0.0827
 3263TIP3    H131348   6.896   4.051   2.151  0.2891  0.7563  1.2964
 3263TIP3    H231349   6.844   4.106   2.020 -1.9576 -2.7761  0.5572
 3264TIP3   OH231350   5.784   0.344   0.310 -0.3067  0.7768  0.4311
 3264TIP3    H131351   5.750   0.260   0.342 -1.0498  0.6781 -0.5646
 3264TIP3    H231352   5.708   0.403   0.312 -0.0574  1.1152  0.0803
 3265TIP3   OH231353   2.254   1.665   1.750 -0.5078  0.1465  0.2675
 3265TIP3    H131354   2.333   1.610   1.752  0.4401  1.3489 -1.2102
 3265TIP3    H231355   2.253   1.709   1.835  0.8903  0.6877  0.0374
 3266TIP3   OH231356   4.045   6.774   1.069 -0.1834  0.0154 -0.3118
 3266TIP3    H131357   3.952   6.763   1.052 -0.3413  0.3117  0.3139
 3266TIP3    H231358   4.053   6.769   1.165  0.4091  0.2288 -0.3421
 3267TIP3   OH231359   4.301   4.527   0.439 -0.2226  0.2574  0.3078
 3267TIP3    H131360   4.310   4.619   0.414  0.7290  0.3613  0.9719
 3267TIP3    H231361   4.359   4.480   0.379  1.4967  0.4302  1.7096
 3268TIP3   OH231362   0.395   3.939   3.499 -0.3161  0.2027  0.6783
 3268TIP3    H131363   0.444   4.005   3.549 -0.4976  0.4222  0.5666
 3268TIP3    H231364   0.462   3.878   3.470 -0.0738  0.6197  0.3445
 3269TIP3   OH231365   5.479   5.827   4.302  0.0925  0.4955  0.4749
 3269TIP3    H131366   5.494   5.877   4.382 -1.2708  2.0686 -0.1918
 3269TIP3    H231367   5.561   5.835   4.253  0.4727  0.6636  1.1269
 3270TIP3   OH231368   5.893   4.444   3.087  0.3049  0.5662  0.0261
 3270TIP3    H131369   5.908   4.434   2.993 -0.1012 -1.0403  0.1043
 3270TIP3    H231370   5.798   4.436   3.096  0.4920 -1.0276  0.7463
 3271TIP3   OH231371   3.445   0.441   0.835  0.3120 -0.0245 -0.0312
 3271TIP3    H131372   3.355   0.420   0.859  0.8229 -0.9106  1.1714
 3271TIP3    H231373   3.486   0.357   0.815  1.3455  0.1804  1.1289
 3272TIP3   OH231374   0.797   5.441   2.775  0.6380  0.6175 -0.6044
 3272TIP3    H131375   0.771   5.376   2.841 -0.1458 -0.7229 -2.1739
 3272TIP3    H231376   0.723   5.501   2.770  0.6913  0.7124 -0.2841
 3273TIP3   OH231377   0.730   3.726   4.650 -0.2298 -0.4593  0.3980
 3273TIP3    H131378   0.770   3.697   4.732  1.7509  1.0324  0.0143
 3273TIP3    H231379   0.671   3.796   4.677  0.5438  0.1461  0.5494
 3274TIP3   OH231380   5.523   2.963   0.201 -0.0924  0.0002  0.3560
 3274TIP3    H131381   5.445   2.934   0.247 -0.0288 -0.6984  0.0387
 3274TIP3    H231382   5.595   2.947   0.263 -0.0540 -0.5724  0.1733
 3275TIP3   OH231383   1.665   5.873   3.735 -0.0772  0.3281 -0.0742
 3275TIP3    H131384   1.702   5.822   3.663 -0.2403 -0.3846  0.3348
 3275TIP3    H231385   1.630   5.807   3.795 -1.1397  0.9544  0.0176
 3276TIP3   OH231386   4.084   4.848   0.474  0.2324  0.4289  0.4676
 3276TIP3    H131387   4.155   4.805   0.425  0.1655  1.0236 -0.1643
 3276TIP3    H231388   4.054   4.781   0.536  1.6957  0.3296  1.1243
 3277TIP3   OH231389   3.003   2.746   1.486  0.2728 -0.1911  0.0400
 3277TIP3    H131390   2.935   2.679   1.486  0.5738 -0.5092  0.6962
 3277TIP3    H231391   3.007   2.777   1.576 -0.3598  1.2465 -0.4031
 3278TIP3   OH231392   1.740   5.613   3.573 -0.6441  0.6782 -0.0422
 3278TIP3    H131393   1.649   5.584   3.581 -0.7816  0.4454 -2.0067
 3278TIP3    H231394   1.786   5.537   3.537  0.6613  0.3171  2.2132
 3279TIP3   OH231395   4.440   2.309   1.148  0.2353  0.1660 -0.0862
 3279TIP3    H131396   4.454   2.368   1.074  1.7108  1.8030  1.3906
 3279TIP3    H231397   4.496   2.234   1.129 -0.8115 -0.2988 -1.4708
 3280TIP3   OH231398   0.818   6.251   3.584  0.5086 -0.1923 -0.6273
 3280TIP3    H131399   0.822   6.156   3.573 -1.1114 -0.4284  0.5076
 3280TIP3    H231400   0.903   6.274   3.622 -0.4739 -1.8490  3.0904
 3281TIP3   OH231401   1.311   6.294   3.877 -0.0209 -0.4417  0.3090
 3281TIP3    H131402   1.381   6.311   3.940  1.6054 -1.6397 -1.0840
 3281TIP3    H231403   1.323   6.202   3.853 -0.2515  0.1026 -2.0795
 3282TIP3   OH231404   2.250   3.937   2.825  0.3514  0.4532 -0.1187
 3282TIP3    H131405   2.226   3.893   2.743  0.1260  0.3188  0.0182
 3282TIP3    H231406   2.168   3.976   2.855  0.5960  1.1732 -0.3597
 3283TIP3   OH231407   4.450   1.651   0.923  0.1862 -0.2813  0.3859
 3283TIP3    H131408   4.504   1.630   0.847  1.3420 -0.3625  1.2189
 3283TIP3    H231409   4.411   1.736   0.901 -1.5541 -1.4388 -1.3764
 3284TIP3   OH231410   3.556   0.096   1.978  0.0337 -0.5105 -0.2388
 3284TIP3    H131411   3.632   0.154   1.983  0.4274 -0.9194 -1.3272
 3284TIP3    H231412   3.586   0.013   2.015  0.1865 -0.7386 -0.8702
 3285TIP3   OH231413   1.015   5.185   2.359  0.1222 -0.2167  0.5906
 3285TIP3    H131414   0.938   5.227   2.397  0.3209  1.8727 -1.1360
 3285TIP3    H231415   1.089   5.222   2.407  0.1999 -0.0345  0.3318
 3286TIP3   OH231416   2.375   6.556   1.402  0.2676 -0.8485 -0.1125
 3286TIP3    H131417   2.357   6.614   1.328 -1.6780 -2.0831 -0.6908
 3286TIP3    H231418   2.353   6.607   1.479  0.2804 -0.2461 -0.5000
 3287TIP3   OH231419   5.253   5.280   2.108  0.2523  0.3316  0.5318
 3287TIP3    H131420   5.338   5.323   2.111  0.6690 -0.4223  0.0778
 3287TIP3    H231421   5.262   5.206   2.168 -0.8563  1.5232  2.2523
 3288TIP3   OH231422   5.430   5.001   2.466  0.1348  0.2033 -0.0203
 3288TIP3    H131423   5.389   5.074   2.511 -1.0434  0.0700 -0.8370
 3288TIP3    H231424   5.386   4.997   2.381  1.9670  0.1602 -1.0337
 3289TIP3   OH231425   5.990   5.092   0.329 -0.2348  0.2845  0.1583
 3289TIP3    H131426   5.986   5.015   0.386  0.7491  0.3441  0.3391
 3289TIP3    H231427   6.035   5.061   0.250  2.9642  1.2980  1.4240
 3290TIP3   OH231428   0.973   5.097   2.668  0.3408 -0.0847  0.6929
 3290TIP3    H131429   1.040   5.047   2.621 -1.2095 -1.4359 -0.1920
 3290TIP3    H231430   0.939   5.159   2.603 -1.5427 -1.6945  0.0544
 3291TIP3   OH231431   2.323   5.567   3.040 -0.1842  0.2965 -0.1216
 3291TIP3    H131432   2.353   5.488   2.994 -0.8702  0.6993 -1.2972
 3291TIP3    H231433   2.354   5.555   3.130 -0.3396 -1.3580 -0.2442
 3292TIP3   OH231434   1.844   0.851   3.328  0.0878 -0.6518  0.0581
 3292TIP3    H131435   1.842   0.933   3.278 -1.1898  0.5832  1.9821
 3292TIP3    H231436   1.914   0.863   3.392 -1.2030 -0.2871  1.4635
 3293TIP3   OH231437   4.558   2.476   0.979 -0.3569  0.3910  0.4542
 3293TIP3    H131438   4.532   2.437   0.895 -1.7288  0.6123  0.7385
 3293TIP3    H231439   4.561   2.570   0.962  0.1605  0.3791  0.4625
 3294TIP3   OH231440   3.587   5.688   3.210 -0.3979  0.3273  0.8497
 3294TIP3    H131441   3.569   5.678   3.117 -0.3527 -0.6552  0.9266
 3294TIP3    H231442   3.576   5.599   3.246  1.5154  0.2818  1.4323
 3295TIP3   OH231443   0.350   3.774   2.111  0.0996  0.2067  0.5680
 3295TIP3    H131444   0.429   3.821   2.137  0.3146 -0.8977  2.0256
 3295TIP3    H231445   0.323   3.728   2.190 -0.5371 -1.5018 -0.6076
 3296TIP3   OH231446   0.204   1.281   3.063 -0.3898  0.1774  0.3750
 3296TIP3    H131447   0.225   1.226   3.139 -2.6861  0.8620  1.6144
 3296TIP3    H231448   0.189   1.219   2.992  0.3439 -0.5929  0.8758
 3297TIP3   OH231449   6.924   0.776   3.831  0.4310  0.2886 -0.0797
 3297TIP3    H131450   6.916   0.750   3.923 -1.4185 -0.9587 -0.5363
 3297TIP3    H231451   6.926   0.693   3.783  0.4679  0.9278 -1.2158
 3298TIP3   OH231452   0.893   4.745   2.404  0.2429  0.5512 -0.1891
 3298TIP3    H131453   0.839   4.682   2.357 -0.0735 -0.0174  0.9082
 3298TIP3    H231454   0.831   4.797   2.455  0.4550  2.0690 -1.4034
 3299TIP3   OH231455   5.809   5.146   2.442  0.1527  0.1471  0.0893
 3299TIP3    H131456   5.744   5.188   2.498 -0.4159 -0.4968 -0.0740
 3299TIP3    H231457   5.867   5.217   2.415 -0.8581  0.8487 -0.2787
 3300TIP3   OH231458   3.824   1.330   1.528 -0.4081 -0.7415 -0.0825
 3300TIP3    H131459   3.732   1.311   1.508 -0.5529 -1.1199  0.8760
 3300TIP3    H231460   3.862   1.244   1.546  0.2396 -0.6278 -0.8294
 3301TIP3   OH231461   5.317   0.444   3.659 -0.6513  0.1637 -0.2240
 3301TIP3    H131462   5.290   0.450   3.751  0.2580  1.5094 -0.0181
 3301TIP3    H231463   5.281   0.522   3.618 -0.7721 -0.2658 -0.9417
 3302TIP3   OH231464   0.301   2.818   2.618  0.0905 -0.0140  0.3829
 3302TIP3    H131465   0.235   2.757   2.652  0.1014 -0.0972  0.2575
 3302TIP3    H231466   0.263   2.850   2.536  0.5821 -0.7269 -0.1317
 3303TIP3   OH231467   2.594   0.788   1.190  0.5142  0.5770  0.4729
 3303TIP3    H131468   2.639   0.771   1.274 -0.0546  1.2586  0.9260
 3303TIP3    H231469   2.543   0.709   1.175 -1.2891  1.3697  2.0317
 3304TIP3   OH231470   0.100   5.849   1.701 -0.5086  0.6741 -0.2638
 3304TIP3    H131471   0.026   5.801   1.737 -0.7980  0.4082 -1.1968
 3304TIP3    H231472   0.176   5.816   1.750 -0.8549  0.1169 -0.0980
 3305TIP3   OH231473   5.387   5.271   3.728 -0.5657 -0.1617  0.7501
 3305TIP3    H131474   5.307   5.223   3.708 -0.9671  0.9393 -0.4426
 3305TIP3    H231475   5.368   5.317   3.810 -1.5280  0.8320  0.0004
 3306TIP3   OH231476   0.400   1.442   2.150 -0.3349 -0.3695 -0.1326
 3306TIP3    H131477   0.430   1.371   2.094 -1.0215  0.7902 -2.0463
 3306TIP3    H231478   0.318   1.410   2.189  0.4154 -1.3752  0.6624
 3307TIP3   OH231479   6.134   0.620   3.814 -0.0913  0.3863  0.0584
 3307TIP3    H131480   6.177   0.628   3.728 -2.2161  0.9008 -1.0293
 3307TIP3    H231481   6.169   0.693   3.865  1.2514  0.0344 -0.3121
 3308TIP3   OH231482   6.456   0.603   2.299  0.5068  0.5957 -0.3570
 3308TIP3    H131483   6.385   0.566   2.352  1.1117 -0.0641  0.0050
 3308TIP3    H231484   6.508   0.654   2.361  1.2733 -0.2579 -0.2783
 3309TIP3   OH231485   5.448   2.536   3.629  0.3402 -0.2255 -0.3181
 3309TIP3    H131486   5.411   2.624   3.634  0.9794  0.1225 -1.3172
 3309TIP3    H231487   5.539   2.547   3.658  0.7508 -0.3255 -1.5335
 3310TIP3   OH231488   1.389   4.338   2.883  0.2970  0.0592  0.1192
 3310TIP3    H131489   1.453   4.327   2.813  1.9166  1.1885  1.3746
 3310TIP3    H231490   1.352   4.425   2.868  0.2094  0.0585  0.3355
 3311TIP3   OH231491   6.027   6.387   1.055  0.0694 -0.6769  0.1931
 3311TIP3    H131492   6.012   6.476   1.023  0.0852  0.0233  2.0315
 3311TIP3    H231493   6.050   6.337   0.976 -1.6193  0.5275 -1.1455
 3312TIP3   OH231494   5.411   5.125   4.078  0.2754  0.0153  0.0990
 3312TIP3    H131495   5.453   5.178   4.010  0.8936 -0.9588 -0.3040
 3312TIP3    H231496   5.477   5.117   4.146 -0.1880  0.6184  0.6301
 3313TIP3   OH231497   2.988   1.715   1.663 -0.6042  0.3615 -0.2551
 3313TIP3    H131498   2.928   1.685   1.732 -1.1087  3.0732  0.6040
 3313TIP3    H231499   3.074   1.712   1.703 -0.7011  0.4258 -0.0391
 3314TIP3   OH231500   4.640   0.509   2.312 -0.0667 -0.1444  0.3360
 3314TIP3    H131501   4.685   0.464   2.384 -0.9452  1.5100  2.0170
 3314TIP3    H231502   4.588   0.440   2.270 -0.9254 -0.8963  2.4556
 3315TIP3   OH231503   2.458   1.148   3.329  0.9056 -0.0764  0.7061
 3315TIP3    H131504   2.469   1.086   3.402 -2.0403  0.5708  1.8736
 3315TIP3    H231505   2.488   1.232   3.364  3.5991 -0.4675 -0.4157
 3316TIP3   OH231506   6.764   3.661   3.047 -0.2200  0.2908 -0.1636
 3316TIP3    H131507   6.712   3.726   3.095  0.8540  0.8770  0.2514
 3316TIP3    H231508   6.763   3.583   3.103 -1.1010  0.1033 -0.4258
 3317TIP3   OH231509   6.791   3.235   3.437  0.0408 -0.0321 -0.0154
 3317TIP3    H131510   6.711   3.187   3.458 -1.0379  0.8261 -1.8964
 3317TIP3    H231511   6.801   3.297   3.509 -0.3186 -0.9267  0.8185
 3318TIP3   OH231512   1.722   4.791   3.816 -0.1188  0.0264  0.2247
 3318TIP3    H131513   1.694   4.856   3.753 -1.8385  1.1954  2.0653
 3318TIP3    H231514   1.642   4.767   3.864  1.0345 -0.9981  1.7668
 3319TIP3   OH231515   6.885   6.802   1.975  1.0351  0.0151 -0.2307
 3319TIP3    H131516   6.918   6.857   1.904 -0.9391 -0.5402 -1.6923
 3319TIP3    H231517   6.960   6.789   2.033  1.7057  3.9124  0.0492
 3320TIP3   OH231518   4.696   0.827   0.956 -0.3424  0.3909 -0.4871
 3320TIP3    H131519   4.739   0.746   0.928  0.0030  0.8620 -1.3418
 3320TIP3    H231520   4.605   0.801   0.972  0.1251 -0.5254  0.9433
 3321TIP3   OH231521   4.708   6.281   3.561  1.0033 -0.1272 -0.3285
 3321TIP3    H131522   4.631   6.322   3.523  0.3778 -0.8327  0.1586
 3321TIP3    H231523   4.760   6.253   3.486 -0.4018 -1.8689 -0.7344
 3322TIP3   OH231524   2.323   3.145   1.623  0.0736 -0.2736 -0.5747
 3322TIP3    H131525   2.299   3.238   1.627  1.6138  0.2003 -1.2647
 3322TIP3    H231526   2.335   3.119   1.714  2.0280  0.9338 -0.4149
 3323TIP3   OH231527   1.496   5.510   1.207  0.5215  0.2708 -0.3902
 3323TIP3    H131528   1.493   5.543   1.297  0.0582 -1.8343  0.4334
 3323TIP3    H231529   1.417   5.545   1.166  0.2880  0.5590  0.2929
 3324TIP3   OH231530   6.033   1.400   1.024 -0.0512  0.2950 -0.2159
 3324TIP3    H131531   6.087   1.322   1.034 -2.4013 -1.2822  1.1669
 3324TIP3    H231532   6.080   1.454   0.961  2.2978 -1.6437 -0.2582
 3325TIP3   OH231533   6.623   2.064   1.361 -0.3270 -0.2171  0.3949
 3325TIP3    H131534   6.538   2.076   1.402  0.2089  2.5587  0.9264
 3325TIP3    H231535   6.610   2.088   1.269 -0.0594  0.7480  0.5920
 3326TIP3   OH231536   5.466   6.537   2.276 -0.6008  0.6939 -0.0382
 3326TIP3    H131537   5.425   6.458   2.242 -0.1821  0.9567 -1.1881
 3326TIP3    H231538   5.491   6.514   2.365 -1.9701  0.0766  0.2227
 3327TIP3   OH231539   3.729   4.278   1.527 -0.0801 -0.8161 -0.1992
 3327TIP3    H131540   3.741   4.222   1.451  1.7937 -0.0514 -0.5092
 3327TIP3    H231541   3.659   4.338   1.502  0.7103 -0.3777 -1.4634
 3328TIP3   OH231542   0.929   5.493   2.299  0.4763  0.3516 -0.2075
 3328TIP3    H131543   0.900   5.453   2.381  0.7171  1.3719  0.3916
 3328TIP3    H231544   0.864   5.560   2.280  1.3529  1.3244  0.1125
 3329TIP3   OH231545   5.583   2.846   2.845 -0.4295  0.2465 -0.1311
 3329TIP3    H131546   5.558   2.914   2.907 -1.0513  1.6168 -1.8315
 3329TIP3    H231547   5.677   2.834   2.860 -0.4245  1.0657  0.5663
 3330TIP3   OH231548   3.005   5.279   2.674  0.3857  0.8243 -0.1753
 3330TIP3    H131549   3.037   5.298   2.762 -0.6282  0.6782  0.2372
 3330TIP3    H231550   3.059   5.332   2.616  2.7194 -0.8946  0.2908
 3331TIP3   OH231551   4.252   1.378   3.613  0.2589 -0.6674  0.5354
 3331TIP3    H131552   4.184   1.364   3.548 -0.3280 -0.3793  1.0755
 3331TIP3    H231553   4.334   1.368   3.565 -0.1576  0.6178 -0.4821
 3332TIP3   OH231554   3.579   1.553   0.829 -0.2876 -0.2715 -0.7105
 3332TIP3    H131555   3.523   1.556   0.906  0.6209  0.8018 -0.0584
 3332TIP3    H231556   3.640   1.626   0.841  0.5472 -0.7382 -1.9256
 3333TIP3   OH231557   0.981   3.338   4.727  0.3934  0.0087 -0.0323
 3333TIP3    H131558   1.008   3.247   4.715  2.1628  0.3216  1.1129
 3333TIP3    H231559   0.886   3.336   4.720  0.3940 -1.9135 -0.1138
 3334TIP3   OH231560   4.576   2.221   2.863  0.8346  0.1423  0.1656
 3334TIP3    H131561   4.530   2.183   2.788  1.5815 -0.5336  0.0392
 3334TIP3    H231562   4.510   2.229   2.931  0.4609 -0.5176 -0.1182
 3335TIP3   OH231563   4.430   6.253   3.498  0.2737  0.4019  0.2098
 3335TIP3    H131564   4.381   6.269   3.579 -0.7139 -0.7558 -0.1558
 3335TIP3    H231565   4.446   6.159   3.497  1.8837  0.6412 -0.0560
 3336TIP3   OH231566   6.526   2.494   2.537 -0.4443  0.0368 -0.3126
 3336TIP3    H131567   6.617   2.467   2.548  0.0715  1.9201  0.6162
 3336TIP3    H231568   6.477   2.440   2.598  0.4134  0.5377  0.8657
 3337TIP3   OH231569   0.034   4.355   1.235  0.4617 -0.2950  0.4203
 3337TIP3    H131570   0.053   4.345   1.142 -3.4840 -0.0517 -0.5976
 3337TIP3    H231571   0.041   4.449   1.251 -1.0213 -0.0384 -0.2754
 3338TIP3   OH231572   0.571   3.691   2.512  0.7278 -0.1718 -0.3781
 3338TIP3    H131573   0.646   3.651   2.556  1.9852  2.4629  0.0426
 3338TIP3    H231574   0.495   3.658   2.560  1.7517 -1.2606  0.5393
 3339TIP3   OH231575   1.400   2.189   0.597  0.3824 -0.1807 -0.0602
 3339TIP3    H131576   1.345   2.217   0.670 -0.6262  2.0400 -1.5791
 3339TIP3    H231577   1.480   2.241   0.605  0.5556 -0.4287 -0.1609
 3340TIP3   OH231578   1.428   5.340   2.329 -0.1392  0.4008  0.6934
 3340TIP3    H131579   1.471   5.318   2.246  0.5109 -0.0472  1.1321
 3340TIP3    H231580   1.398   5.430   2.317  0.1338  0.4168  0.0458
 3341TIP3   OH231581   1.149   3.601   4.107 -0.1341  0.2628 -0.3580
 3341TIP3    H131582   1.182   3.574   4.192 -2.0772 -1.2024 -0.0020
 3341TIP3    H231583   1.058   3.571   4.105 -0.9516  2.5175 -1.9581
 3342TIP3   OH231584   4.768   2.246   1.775 -0.1522 -0.7344  0.3735
 3342TIP3    H131585   4.791   2.202   1.693  2.9490  1.0293  0.1342
 3342TIP3    H231586   4.701   2.309   1.751 -0.7092 -1.5750 -0.3587
 3343TIP3   OH231587   1.206   0.409   3.312  0.1535  0.0663  1.0321
 3343TIP3    H131588   1.268   0.336   3.307 -0.9844 -0.8911 -2.5097
 3343TIP3    H231589   1.222   0.460   3.232 -1.3165  1.7904  1.7548
 3344TIP3   OH231590   0.057   2.677   2.668 -0.6435  0.1519 -0.2282
 3344TIP3    H131591   0.022   2.591   2.692 -2.4237  0.6958 -0.7158
 3344TIP3    H231592  -0.006   2.739   2.704  0.7089  1.2680  0.2500
 3345TIP3   OH231593   5.939   1.982   1.833  0.1293  0.8643  0.5713
 3345TIP3    H131594   5.980   1.910   1.881  0.7839 -0.5778 -1.9584
 3345TIP3    H231595   6.001   2.055   1.840  1.6022 -0.2349 -0.3851
 3346TIP3   OH231596   4.046   0.653   2.674  0.9540  0.4062 -0.7858
 3346TIP3    H131597   4.120   0.603   2.708  0.5689 -0.2001 -0.8179
 3346TIP3    H231598   3.981   0.587   2.651  0.1049  0.9666 -0.0675
 3347TIP3   OH231599   6.205   5.088   3.363  0.0244 -0.5072  0.2193
 3347TIP3    H131600   6.273   5.077   3.430  1.0951 -0.9824 -0.9029
 3347TIP3    H231601   6.149   5.157   3.397 -0.2487 -1.6376  2.2202
 3348TIP3   OH231602   3.640   4.809   1.957  0.1423 -0.1513 -0.1512
 3348TIP3    H131603   3.579   4.877   1.987 -0.3067  0.5385 -2.4149
 3348TIP3    H231604   3.625   4.736   2.017 -0.8055  1.0229  1.1361
 3349TIP3   OH231605   4.588   2.719   1.523  0.3069  0.0494  0.0282
 3349TIP3    H131606   4.617   2.697   1.435  0.4384 -1.3911  0.4037
 3349TIP3    H231607   4.665   2.756   1.566  0.8385 -1.2053  0.1754
 3350TIP3   OH231608   6.804   4.915   3.027  0.2966 -0.7600 -0.2322
 3350TIP3    H131609   6.829   5.006   3.041 -0.3808 -0.8078  1.4674
 3350TIP3    H231610   6.766   4.913   2.939  2.2528  0.1466 -1.1644
 3351TIP3   OH231611   1.704   4.213   2.875 -0.1514  0.9397 -0.6411
 3351TIP3    H131612   1.685   4.209   2.969 -2.1792  1.1286 -0.9892
 3351TIP3    H231613   1.693   4.306   2.852 -1.6971  0.6032 -1.3980
 3352TIP3   OH231614   5.359   6.908   0.468 -0.0075  0.9760 -0.0847
 3352TIP3    H131615   5.332   6.989   0.511 -0.7494  1.4164 -1.2981
 3352TIP3    H231616   5.279   6.855   0.464  0.8059 -0.5676  2.1579
 3353TIP3   OH231617   6.683   0.803   2.120  0.0113  0.0118  0.2235
 3353TIP3    H131618   6.647   0.714   2.115 -1.3355  0.5858 -1.3402
 3353TIP3    H231619   6.606   0.858   2.138  0.5377  1.0241 -0.5641
 3354TIP3   OH231620   5.971   2.697   2.622 -0.7572  0.4336  0.3155
 3354TIP3    H131621   5.946   2.771   2.566  0.0202 -0.7088 -1.6561
 3354TIP3    H231622   6.064   2.684   2.605 -0.3819  0.3105  2.2729
 3355TIP3   OH231623   6.047   5.444   3.658  0.1919  0.0185 -0.6394
 3355TIP3    H131624   6.114   5.395   3.610  1.9229 -0.2223  1.8353
 3355TIP3    H231625   6.066   5.536   3.639  0.7505 -0.0798 -0.5653
 3356TIP3   OH231626   4.059   2.717   4.275 -0.0857  0.1612 -0.1151
 3356TIP3    H131627   4.071   2.810   4.297  0.5309  0.2464 -0.8063
 3356TIP3    H231628   4.088   2.709   4.185  0.8956 -0.9238  0.2640
 3357TIP3   OH231629   2.945   5.452   4.448  0.2343 -0.3299  0.0072
 3357TIP3    H131630   2.879   5.454   4.378  1.5769 -1.4552 -1.3500
 3357TIP3    H231631   3.026   5.480   4.406  1.1371 -1.3220  1.0142
 3358TIP3   OH231632   1.408   5.978   3.040 -0.6310 -0.2374  0.7837
 3358TIP3    H131633   1.313   5.976   3.054 -0.8475  1.6913 -0.1729
 3358TIP3    H231634   1.444   5.949   3.124 -2.0290  2.4394  2.4706
 3359TIP3   OH231635   5.659   4.693   4.305 -0.0222 -0.2097 -0.7612
 3359TIP3    H131636   5.620   4.679   4.219  1.1636 -0.0823 -1.3472
 3359TIP3    H231637   5.714   4.771   4.294 -0.6775  0.4448  0.4105
 3360TIP3   OH231638   3.451   1.913   8.377  0.2788 -0.3204 -0.0510
 3360TIP3    H131639   3.518   1.847   8.358  0.1740 -0.3374 -0.3625
 3360TIP3    H231640   3.377   1.863   8.412  0.1069 -0.3957 -0.5189
 3361TIP3   OH231641   3.046   2.905   3.595  0.3913 -0.1588  0.1420
 3361TIP3    H131642   2.960   2.924   3.631  0.1107 -1.6495  0.2904
 3361TIP3    H231643   3.103   2.972   3.634 -0.5719  0.4984  0.4738
 3362TIP3   OH231644   5.326   4.061   1.193 -0.4807 -0.1365 -0.0370
 3362TIP3    H131645   5.361   3.982   1.234 -1.5234  0.2679  1.7271
 3362TIP3    H231646   5.276   4.029   1.117  0.9632 -0.9536 -0.6755
 3363TIP3   OH231647   5.556   0.425   2.357  0.2092 -0.7878 -0.5534
 3363TIP3    H131648   5.589   0.466   2.276  1.1580 -1.1656 -0.3717
 3363TIP3    H231649   5.604   0.342   2.363  0.8793 -0.3295  0.9042
 3364TIP3   OH231650   0.962   0.767   3.008 -0.6216 -0.2472  0.0466
 3364TIP3    H131651   0.982   0.678   3.037  1.1934  0.4983  1.3527
 3364TIP3    H231652   0.887   0.758   2.950 -0.9080 -2.5351  0.6792
 3365TIP3   OH231653   6.833   3.070   0.822  0.3452 -0.6121 -0.3014
 3365TIP3    H131654   6.799   2.992   0.779 -1.3903  0.6566 -1.4234
 3365TIP3    H231655   6.867   3.124   0.751 -0.2154  0.4334  0.1869
 3366TIP3   OH231656   6.315   0.691   1.672  0.1328 -0.1624 -0.4115
 3366TIP3    H131657   6.253   0.658   1.606  1.1496 -0.5067 -1.2185
 3366TIP3    H231658   6.392   0.718   1.621 -0.0633  2.0891  0.3617
 3367TIP3   OH231659   3.913   1.544   1.394  0.4952  0.4637 -0.0070
 3367TIP3    H131660   3.828   1.569   1.358  0.4199 -1.4675 -1.2677
 3367TIP3    H231661   3.894   1.468   1.449  1.0414  1.6937  2.0176
 3368TIP3   OH231662   5.887   5.798   3.412 -0.0176  0.1642 -0.2311
 3368TIP3    H131663   5.922   5.858   3.477 -0.3272 -1.2179  1.2782
 3368TIP3    H231664   5.810   5.842   3.377  0.4836  1.1718 -0.1019
 3369TIP3   OH231665   4.170   1.795   1.338 -0.3373 -0.2100  0.2434
 3369TIP3    H131666   4.115   1.734   1.289  1.5765 -1.9352  0.1313
 3369TIP3    H231667   4.211   1.742   1.406  0.1886  1.3174  1.1936
 3370TIP3   OH231668   1.565   1.787   0.011  0.3884 -0.3089 -0.8303
 3370TIP3    H131669   1.530   1.824  -0.070 -1.1689 -1.1679 -0.5991
 3370TIP3    H231670   1.536   1.695   0.009  2.1758 -0.9260 -0.3140
 3371TIP3   OH231671   5.337   4.585   4.156  0.1504 -0.3126 -0.1054
 3371TIP3    H131672   5.355   4.583   4.250  0.4546  0.2360 -0.1483
 3371TIP3    H231673   5.411   4.632   4.119 -0.0286 -0.4243 -0.6099
 3372TIP3   OH231674   2.297   0.146   0.834 -0.3467 -0.0187  0.2414
 3372TIP3    H131675   2.244   0.076   0.796 -1.3814  0.5079  0.6541
 3372TIP3    H231676   2.265   0.225   0.790 -0.7423  0.4561  1.3538
 3373TIP3   OH231677   6.414   2.269   3.809 -0.5453  0.6562  0.0587
 3373TIP3    H131678   6.409   2.364   3.798  1.5104  0.7087 -0.8825
 3373TIP3    H231679   6.345   2.235   3.753 -0.0895  1.5477 -1.0894
 3374TIP3   OH231680   6.058   6.248   2.591  0.4356 -0.5766  0.2266
 3374TIP3    H131681   6.128   6.214   2.646 -1.6059 -0.9465  2.7772
 3374TIP3    H231682   6.104   6.294   2.520  3.2137 -1.4956  1.2837
 3375TIP3   OH231683   5.308   0.296   4.222 -1.2581  0.9313 -0.2920
 3375TIP3    H131684   5.378   0.283   4.159 -1.1252 -0.3016  0.0888
 3375TIP3    H231685   5.346   0.353   4.289 -0.4184 -0.1686  0.1976
 3376TIP3   OH231686   4.840   0.931   0.077 -0.0017 -0.2128  0.0599
 3376TIP3    H131687   4.924   0.976   0.080  0.5597 -1.1527 -0.9741
 3376TIP3    H231688   4.857   0.850   0.029 -1.5502 -0.2988 -0.4147
 3377TIP3   OH231689   1.139   3.118   1.355  0.1605 -0.3613  0.2697
 3377TIP3    H131690   1.114   3.208   1.373 -0.3401 -0.5853  0.7155
 3377TIP3    H231691   1.189   3.123   1.273  1.0627  0.4488  0.8417
 3378TIP3   OH231692   6.338   2.434   2.318  0.2016 -0.0526 -0.2172
 3378TIP3    H131693   6.326   2.516   2.271 -1.3306  0.7039  1.3545
 3378TIP3    H231694   6.422   2.443   2.362 -0.6102  1.3953  1.1626
 3379TIP3   OH231695   2.384   4.586   2.017 -0.4318 -0.7676 -0.6381
 3379TIP3    H131696   2.311   4.621   1.967 -4.0582 -2.0591  3.1861
 3379TIP3    H231697   2.430   4.662   2.051 -1.3903  0.1196 -1.2910
 3380TIP3   OH231698   4.488   3.594   0.795  0.0530 -0.4330  0.2051
 3380TIP3    H131699   4.535   3.512   0.776 -0.6513 -0.7113 -0.3972
 3380TIP3    H231700   4.485   3.598   0.891 -0.4485 -1.4522  0.2525
 3381TIP3   OH231701   6.248   4.581   2.634  0.7601  0.1910 -0.2518
 3381TIP3    H131702   6.179   4.535   2.682 -0.7342  1.3735 -1.1564
 3381TIP3    H231703   6.261   4.529   2.555  1.5353 -0.4843  0.3040
 3382TIP3   OH231704   2.712   0.973   2.492 -0.6528 -0.8190  0.3796
 3382TIP3    H131705   2.622   0.973   2.526 -0.7354 -1.4885  0.1799
 3382TIP3    H231706   2.734   1.065   2.482  0.0742 -0.4252  4.0977
 3383TIP3   OH231707   6.087   5.391   3.931 -0.8631 -0.5860  0.5010
 3383TIP3    H131708   6.068   5.416   3.841 -0.6166  1.2674  0.9281
 3383TIP3    H231709   6.120   5.471   3.973 -2.5291 -0.9324  2.6822
 3384TIP3   OH231710   1.454   4.106   3.994  0.3253 -0.7072  0.4044
 3384TIP3    H131711   1.461   4.192   3.951  1.1692 -1.2001 -0.4938
 3384TIP3    H231712   1.514   4.111   4.068  0.8968 -0.7512 -0.0533
 3385TIP3   OH231713   1.297   0.173   1.994  0.3593 -0.6723  0.3173
 3385TIP3    H131714   1.212   0.212   2.015  0.1860 -0.0945 -1.3210
 3385TIP3    H231715   1.355   0.247   1.979  0.2203 -0.9478 -2.0580
 3386TIP3   OH231716   6.465   0.982   2.383  0.1465  0.3155 -0.4208
 3386TIP3    H131717   6.374   0.952   2.383  0.1417  0.3300 -0.4071
 3386TIP3    H231718   6.477   1.022   2.297  0.8358 -1.8520 -1.4166
 3387TIP3   OH231719   1.454   3.190   0.768 -0.3859  0.2807  0.3032
 3387TIP3    H131720   1.380   3.129   0.765  0.7841 -1.2098  0.3005
 3387TIP3    H231721   1.444   3.244   0.690 -3.9470  3.3030  2.5002
 3388TIP3   OH231722   1.168   5.314   4.232  0.8750 -0.6232  0.3154
 3388TIP3    H131723   1.211   5.318   4.146  0.3233 -2.3809 -0.0762
 3388TIP3    H231724   1.092   5.257   4.218  0.0432  0.1187  1.6771
 3389TIP3   OH231725   0.038   0.912   2.413 -0.0706 -0.9831 -0.2622
 3389TIP3    H131726   0.102   0.909   2.484  1.1352  0.5917 -1.2082
 3389TIP3    H231727  -0.024   0.980   2.440  0.3447 -0.4379 -0.6507
 3390TIP3   OH231728   4.005   1.881   0.561  0.0644  0.2398  0.8174
 3390TIP3    H131729   3.964   1.954   0.515  1.4577  0.0129 -0.8751
 3390TIP3    H231730   3.968   1.803   0.520  0.6437  0.0201  0.7075
 3391TIP3   OH231731   5.864   4.618   0.294 -0.0454 -0.7920 -0.0877
 3391TIP3    H131732   5.773   4.609   0.268 -0.3826 -2.2191  1.4449
 3391TIP3    H231733   5.880   4.544   0.352  1.8304 -0.0581  0.4027
 3392TIP3   OH231734   0.426   3.536   0.672  0.4676  0.1580  0.2638
 3392TIP3    H131735   0.418   3.629   0.648 -0.9425  0.0872  0.3780
 3392TIP3    H231736   0.517   3.527   0.700  0.8389  1.3402 -0.4316
 3393TIP3   OH231737   1.024   6.703   4.248 -0.8322 -0.0645 -0.0565
 3393TIP3    H131738   1.084   6.695   4.174  0.5434 -1.4580  1.1447
 3393TIP3    H231739   1.034   6.621   4.296 -1.0596  1.1148  2.1271
 3394TIP3   OH231740   0.222   3.581   2.953  0.0324 -0.2455 -0.1688
 3394TIP3    H131741   0.275   3.647   2.998 -1.6127  1.0038  0.0262
 3394TIP3    H231742   0.233   3.501   3.006  1.1100  0.1783  0.2752
 3395TIP3   OH231743   2.267   6.658   2.718  0.1252  0.4313  0.4377
 3395TIP3    H131744   2.241   6.576   2.760 -1.0162  0.3270 -0.4296
 3395TIP3    H231745   2.223   6.657   2.633  1.9449  0.8846 -0.5729
 3396TIP3   OH231746   2.395   1.690   3.501 -0.2474 -0.1381  0.4345
 3396TIP3    H131747   2.416   1.685   3.408 -3.0569 -0.7692 -0.2588
 3396TIP3    H231748   2.428   1.608   3.537  2.1592  0.7290  0.3667
 3397TIP3   OH231749   6.095   3.826   1.871 -0.0938  0.5158 -0.3122
 3397TIP3    H131750   6.092   3.884   1.947 -0.6258 -1.8370  1.5633
 3397TIP3    H231751   6.031   3.863   1.810 -2.4100  0.4899  1.9325
 3398TIP3   OH231752   6.624   1.898   0.630 -0.0623  0.3436  0.3805
 3398TIP3    H131753   6.545   1.868   0.585 -1.0252  0.2953  2.0271
 3398TIP3    H231754   6.695   1.854   0.584 -1.1353 -1.2368  0.1263
 3399TIP3   OH231755   0.953   0.663   3.380  0.0877  0.2465  0.9147
 3399TIP3    H131756   0.881   0.660   3.443  0.7873 -0.6922  1.7065
 3399TIP3    H231757   1.001   0.582   3.395  0.8340  0.4641 -0.1746
 3400TIP3   OH231758   3.196   3.507   1.592  0.0268 -0.1266 -0.1507
 3400TIP3    H131759   3.217   3.442   1.658  0.0395 -0.0086 -0.0392
 3400TIP3    H231760   3.100   3.510   1.590  0.0215 -0.4161 -0.4173
 3401TIP3   OH231761   6.373   0.501   2.881 -0.0454 -0.4282  0.5636
 3401TIP3    H131762   6.310   0.442   2.838 -0.2395  0.8077 -0.9101
 3401TIP3    H231763   6.374   0.471   2.972 -0.8879 -2.0639  0.0863
 3402TIP3   OH231764   4.653   2.673   1.198  0.3550  0.3045  0.3773
 3402TIP3    H131765   4.614   2.684   1.111 -0.8695 -1.9319  0.5501
 3402TIP3    H231766   4.726   2.613   1.184  2.0246  2.2222  0.5090
 3403TIP3   OH231767   4.714   3.489   2.005 -0.0577  0.4452 -0.0118
 3403TIP3    H131768   4.742   3.399   2.021 -0.7842  0.3955  1.1517
 3403TIP3    H231769   4.683   3.490   1.915 -1.2887 -0.8215  0.3750
 3404TIP3   OH231770   0.682   2.703   0.922  0.3606  0.5657 -0.0789
 3404TIP3    H131771   0.771   2.730   0.943  0.3070 -0.1520  1.1626
 3404TIP3    H231772   0.671   2.618   0.965 -1.8708  1.9511  2.4275
 3405TIP3   OH231773   1.381   3.377   1.611  0.2006  0.0650  0.4165
 3405TIP3    H131774   1.476   3.370   1.618  0.0703 -1.5689  1.0969
 3405TIP3    H231775   1.348   3.297   1.653 -1.4694  0.5426  0.0955
 3406TIP3   OH231776   1.309   2.771   0.639  0.7190  0.0584  0.0720
 3406TIP3    H131777   1.377   2.727   0.690  0.8679 -0.6879 -0.7391
 3406TIP3    H231778   1.305   2.722   0.557 -0.0593  0.7486 -0.3225
 3407TIP3   OH231779   6.389   2.334   2.748  0.1608 -0.2899  0.2923
 3407TIP3    H131780   6.315   2.294   2.794 -0.1501 -0.7289 -0.5476
 3407TIP3    H231781   6.466   2.297   2.790 -0.1178 -0.9890  0.2121
 3408TIP3   OH231782   3.365   4.682   0.345 -0.0025  0.2443  0.1772
 3408TIP3    H131783   3.284   4.707   0.302  0.6028 -0.7008 -1.6254
 3408TIP3    H231784   3.350   4.592   0.375  0.9080 -0.5967 -1.7380
 3409TIP3   OH231785   6.205   4.707   1.405  0.5509 -0.1401  1.0019
 3409TIP3    H131786   6.229   4.630   1.457  0.4197 -0.1917  0.9848
 3409TIP3    H231787   6.284   4.762   1.407  0.7928 -0.4731  0.6505
 3410TIP3   OH231788   2.178   1.763   0.003 -0.2891  0.2037 -0.1957
 3410TIP3    H131789   2.192   1.844   0.052 -1.0229  0.1799  0.0568
 3410TIP3    H231790   2.202   1.786  -0.087  0.0886  0.5260 -0.0211
 3411TIP3   OH231791   6.767   0.978   3.982 -0.0466 -0.0372 -0.5585
 3411TIP3    H131792   6.844   1.023   4.017 -1.2426  0.3173  1.8182
 3411TIP3    H231793   6.732   1.038   3.916  0.4059  0.8739  0.0060
 3412TIP3   OH231794   6.336   4.091   1.876  0.2618 -0.8197  0.3040
 3412TIP3    H131795   6.359   4.000   1.859  0.7030 -0.7303  0.4093
 3412TIP3    H231796   6.312   4.092   1.969 -0.2382 -0.9236  0.1808
 3413TIP3   OH231797   4.976   0.631   3.903 -0.9098  0.2289  0.4821
 3413TIP3    H131798   5.012   0.556   3.856  0.4345  0.2380  1.4425
 3413TIP3    H231799   4.918   0.592   3.969  0.5421 -0.0734  1.6329
 3414TIP3   OH231800   3.561   6.470   2.134 -0.3402 -0.1740 -0.0219
 3414TIP3    H131801   3.612   6.542   2.098 -1.2563 -0.5749 -2.2868
 3414TIP3    H231802   3.560   6.486   2.228  1.3579  1.5079 -0.2378
 3415TIP3   OH231803   3.961   2.429   1.104 -0.0691  0.5336 -0.6651
 3415TIP3    H131804   3.967   2.388   1.018 -0.1613  0.5313 -0.6708
 3415TIP3    H231805   4.031   2.388   1.155  0.3503  0.9345 -0.9027
 3416TIP3   OH231806   5.346   6.062   1.134 -0.4234  0.0145 -0.8187
 3416TIP3    H131807   5.291   5.990   1.102 -1.4210  0.5957 -0.4625
 3416TIP3    H231808   5.434   6.025   1.137 -1.0681 -1.5463  0.3645
 3417TIP3   OH231809   6.261   2.454   1.389 -0.2590  0.4126 -0.7851
 3417TIP3    H131810   6.208   2.429   1.465  0.1949 -0.9301 -0.8996
 3417TIP3    H231811   6.262   2.550   1.392 -0.8372  0.4013  0.4898
 3418TIP3   OH231812   0.734   3.518   3.427  0.5890 -0.2631  0.3672
 3418TIP3    H131813   0.679   3.460   3.375 -0.6779  0.0394  1.3329
 3418TIP3    H231814   0.720   3.492   3.518  2.5351 -0.5785  0.6357
 3419TIP3   OH231815   5.477   3.762   2.103 -0.0677  0.0235 -0.1227
 3419TIP3    H131816   5.499   3.791   2.192 -0.4374  0.2993 -0.1175
 3419TIP3    H231817   5.546   3.799   2.048 -0.4102  0.7410 -0.0860
 3420TIP3   OH231818   4.493   1.209   1.407  0.0417  0.4713 -0.3988
 3420TIP3    H131819   4.579   1.167   1.401 -1.3154 -2.5340 -1.1907
 3420TIP3    H231820   4.489   1.266   1.330  0.5381 -1.2050 -1.7584
 3421TIP3   OH231821   0.875   0.079   1.908 -0.0901 -0.4011  0.3150
 3421TIP3    H131822   0.843  -0.010   1.923  1.9277 -1.3305 -0.6270
 3421TIP3    H231823   0.953   0.069   1.854  0.3781  1.9302  0.4309
 3422TIP3   OH231824   4.025   6.866   4.033  0.5824 -0.2316  0.5197
 3422TIP3    H131825   4.116   6.855   4.008  0.0517 -0.4347 -1.4843
 3422TIP3    H231826   4.011   6.801   4.102  2.0244  0.0585  1.1180
 3423TIP3   OH231827   6.083   1.693   3.348  0.3970  0.4646  0.2494
 3423TIP3    H131828   6.112   1.769   3.298 -1.3382  1.1156  0.1859
 3423TIP3    H231829   5.991   1.709   3.366  0.6432 -0.3443  2.6073
 3424TIP3   OH231830   0.776   6.528   1.854  0.0377 -0.0577  0.0672
 3424TIP3    H131831   0.785   6.448   1.906  3.2078 -0.7770 -1.3358
 3424TIP3    H231832   0.793   6.599   1.915 -1.5549 -0.5068  1.0679
 3425TIP3   OH231833   1.860   5.910   1.051  0.4312 -0.5434 -0.2862
 3425TIP3    H131834   1.778   5.918   1.003  0.2848  1.8010  0.2323
 3425TIP3    H231835   1.860   5.821   1.085 -1.6716 -0.7319 -0.6849
 3426TIP3   OH231836   0.437   0.465   2.406 -0.1663 -0.0971  0.1155
 3426TIP3    H131837   0.505   0.457   2.473 -0.3726  0.6654  0.4290
 3426TIP3    H231838   0.361   0.420   2.443  0.0386 -0.5735 -0.0484
 3427TIP3   OH231839   2.561   0.185   0.979  0.3079  0.3274  0.1574
 3427TIP3    H131840   2.483   0.171   0.925  1.0010 -0.7913 -0.6048
 3427TIP3    H231841   2.548   0.129   1.055  0.1095  0.5800  0.3093
 3428TIP3   OH231842   1.224   1.111   0.017  0.0827 -0.3768 -0.3184
 3428TIP3    H131843   1.311   1.135   0.048 -1.1233  1.5345  1.9728
 3428TIP3    H231844   1.176   1.194   0.015 -1.5045 -1.2625 -2.2493
 3429TIP3   OH231845   2.027   3.111   8.209 -0.1758 -0.5264  0.1039
 3429TIP3    H131846   1.965   3.070   8.149 -0.5976 -0.2251  0.3254
 3429TIP3    H231847   2.023   3.057   8.288  0.5733 -1.0768 -0.2231
 3430TIP3   OH231848   2.410   1.210   1.081 -0.2803  0.4414 -0.0978
 3430TIP3    H131849   2.457   1.214   1.164 -1.6591 -0.3007  0.7593
 3430TIP3    H231850   2.443   1.130   1.039  1.7560  1.7397 -1.1806
 3431TIP3   OH231851   5.081   6.034   8.348  0.1207 -0.1602 -0.5074
 3431TIP3    H131852   5.129   5.978   8.409  0.4233  0.4359 -0.1928
 3431TIP3    H231853   5.136   6.037   8.269  1.2533  1.5184  0.2882
 3432TIP3   OH231854   1.336   4.044   0.660  1.1178  0.1485  0.0587
 3432TIP3    H131855   1.381   3.965   0.630  0.9613 -0.6990  1.9273
 3432TIP3    H231856   1.403   4.094   0.706  0.2789 -1.2203  3.0429
 3433TIP3   OH231857   4.197   2.512   1.396  0.2433  0.3449  0.5420
 3433TIP3    H131858   4.173   2.441   1.336  1.7101  1.7445 -1.8494
 3433TIP3    H231859   4.238   2.468   1.471 -2.3710 -1.5106  1.0352
 3434TIP3   OH231860   0.713   5.658   0.462 -0.3035 -0.0252  0.0787
 3434TIP3    H131861   0.651   5.700   0.522 -0.8695 -0.2923 -0.3093
 3434TIP3    H231862   0.760   5.596   0.517 -0.0938  0.4645  0.4634
 3435TIP3   OH231863   3.403   2.795   0.582  0.0677 -0.0825  0.6399
 3435TIP3    H131864   3.377   2.705   0.601 -1.2409  0.0870 -0.1904
 3435TIP3    H231865   3.428   2.795   0.490 -0.2929  0.4562  0.5318
 3436TIP3   OH231866   0.142   1.388   2.343  0.5412  0.1007  0.0002
 3436TIP3    H131867   0.110   1.462   2.291  1.0069 -0.1159 -0.6024
 3436TIP3    H231868   0.136   1.313   2.285 -1.8117 -0.7669  1.2276
 3437TIP3   OH231869   6.509   2.758   3.372 -0.1612  0.3180 -0.1821
 3437TIP3    H131870   6.440   2.769   3.437  0.5631 -0.7597  0.8061
 3437TIP3    H231871   6.471   2.699   3.307 -0.4301  0.3168 -0.0242
 3438TIP3   OH231872   3.961   2.200   0.620  0.3286 -0.4121  0.3377
 3438TIP3    H131873   4.045   2.182   0.577  0.6964  0.0209  0.8753
 3438TIP3    H231874   3.896   2.188   0.550  0.8739 -0.2760 -0.2007
 3439TIP3   OH231875   2.524   3.155   1.412  0.1039  0.0756  0.7217
 3439TIP3    H131876   2.474   3.151   1.493 -2.1978 -2.6132 -0.6778
 3439TIP3    H231877   2.489   3.232   1.366 -1.0548 -0.3688  0.8296
 3440TIP3   OH231878   5.309   3.384   3.432  0.5453 -0.3334 -0.3834
 3440TIP3    H131879   5.249   3.436   3.378  1.2861  0.6301 -0.2931
 3440TIP3    H231880   5.376   3.354   3.372  0.8848 -0.0018 -0.1777
 3441TIP3   OH231881   4.869   4.550   1.192 -0.3439  0.3348  0.2355
 3441TIP3    H131882   4.790   4.516   1.234 -0.5346 -0.1065 -0.4635
 3441TIP3    H231883   4.884   4.491   1.118  0.2499  0.8245 -0.0419
 3442TIP3   OH231884   4.376   3.722   1.313 -0.3264  0.4057  0.2788
 3442TIP3    H131885   4.348   3.812   1.334 -0.0853  0.7745 -0.9165
 3442TIP3    H231886   4.461   3.713   1.356 -0.5519  0.5871  0.7757
 3443TIP3   OH231887   1.549   1.023   0.462  0.0396 -0.2981 -0.3025
 3443TIP3    H131888   1.587   1.067   0.538 -0.4509  0.6088 -0.5704
 3443TIP3    H231889   1.618   1.027   0.395  0.7721 -1.8106  0.3316
 3444TIP3   OH231890   6.335   2.032   4.182  0.2060  0.9800  0.3322
 3444TIP3    H131891   6.373   2.088   4.250 -0.4573 -0.2384  1.7646
 3444TIP3    H231892   6.273   1.977   4.229  0.7640 -0.8862 -1.0331
 3445TIP3   OH231893   0.856   3.444   3.078  0.2301 -0.1855 -0.0965
 3445TIP3    H131894   0.937   3.424   3.124 -0.3194 -1.0247  0.5395
 3445TIP3    H231895   0.835   3.533   3.104  1.1743  0.2008 -0.6229
 3446TIP3   OH231896   2.260   2.932   4.178 -0.3932  0.0497  0.1224
 3446TIP3    H131897   2.170   2.963   4.168  0.0488  1.9564  1.5300
 3446TIP3    H231898   2.263   2.896   4.267 -0.0956 -1.3701 -0.4257
 3447TIP3   OH231899   3.462   5.023   2.062 -0.8096 -0.4142  0.0824
 3447TIP3    H131900   3.446   5.116   2.080 -1.1282 -0.3647 -0.4219
 3447TIP3    H231901   3.482   5.021   1.968 -1.1720 -0.8987  0.0122
 3448TIP3   OH231902   2.567   0.992   1.005  0.2832 -0.0670 -0.0317
 3448TIP3    H131903   2.558   0.923   1.070 -0.6427 -2.1678 -2.2603
 3448TIP3    H231904   2.651   1.033   1.025  0.6255 -1.4859  1.6754
 3449TIP3   OH231905   2.724   4.084   2.653  0.7011  0.4423  0.2828
 3449TIP3    H131906   2.735   4.157   2.714  2.3637 -0.3393  1.0012
 3449TIP3    H231907   2.630   4.068   2.651  0.3834  2.0367  0.7687
 3450TIP3   OH231908   6.588   0.703   2.531  0.0584  0.1874  1.1315
 3450TIP3    H131909   6.593   0.799   2.536 -0.6155  0.3866 -1.0524
 3450TIP3    H231910   6.586   0.675   2.622  3.1581  2.0484  1.9203
 3451TIP3   OH231911   1.882   4.480   2.599 -0.3969 -0.3704 -0.2593
 3451TIP3    H131912   1.958   4.512   2.648  1.2007 -0.6675 -2.4077
 3451TIP3    H231913   1.911   4.397   2.560 -2.4792 -1.4760  0.3588
 3452TIP3   OH231914   6.212   1.830   2.769 -0.6476 -0.1051  0.1971
 3452TIP3    H131915   6.236   1.767   2.701  1.0501  1.1200 -0.4148
 3452TIP3    H231916   6.161   1.896   2.723 -0.3151  0.2339  0.3109
 3453TIP3   OH231917   3.024   5.764   1.959  0.3053 -0.2353 -0.1335
 3453TIP3    H131918   3.002   5.784   2.050  0.9392  0.6193 -0.1601
 3453TIP3    H231919   3.021   5.848   1.914 -0.6136 -0.7314 -1.0506
 3454TIP3   OH231920   4.770   3.379   2.424 -0.0795  0.0636  0.0225
 3454TIP3    H131921   4.792   3.306   2.481 -1.1215  0.9241  1.5976
 3454TIP3    H231922   4.694   3.350   2.374  0.6667 -0.5848 -0.7902
 3455TIP3   OH231923   5.033   3.365   2.012 -0.1212 -0.4239 -0.3844
 3455TIP3    H131924   5.030   3.384   2.105  1.2211 -0.0315 -0.3979
 3455TIP3    H231925   4.994   3.277   2.003  0.0863 -0.6179  0.5827
 3456TIP3   OH231926   0.459   1.193   4.264  0.4571  0.0135  0.0061
 3456TIP3    H131927   0.498   1.153   4.342  1.5387  1.6287  0.3399
 3456TIP3    H231928   0.521   1.173   4.194 -0.4747 -1.3671 -0.4567
 3457TIP3   OH231929   4.710   0.273   4.275 -0.7286  0.1110 -0.0736
 3457TIP3    H131930   4.768   0.262   4.351 -1.1168  1.7671  0.4903
 3457TIP3    H231931   4.694   0.367   4.270  0.8244  0.3306 -3.3832
 3458TIP3   OH231932   0.767   6.366   3.912  0.2130  0.1754 -0.2295
 3458TIP3    H131933   0.723   6.441   3.953  0.2349  1.0130 -1.6472
 3458TIP3    H231934   0.816   6.405   3.840 -0.9652 -1.3534 -1.9436
 3459TIP3   OH231935   5.685   2.842   2.165 -0.0308  0.2681  0.2301
 3459TIP3    H131936   5.756   2.899   2.135  0.5502 -0.8285 -0.5644
 3459TIP3    H231937   5.618   2.848   2.097 -0.4124  0.7848  0.6488
 3460TIP3   OH231938   4.916   3.496   4.470  0.4290  0.0952  0.1661
 3460TIP3    H131939   4.851   3.536   4.413  1.2255 -0.3494 -1.0811
 3460TIP3    H231940   4.950   3.570   4.522 -1.4623  0.2354  1.2881
 3461TIP3   OH231941   2.697   3.877   2.016 -0.2084 -0.2475 -0.2431
 3461TIP3    H131942   2.767   3.846   2.074 -0.5678  0.1899  0.4496
 3461TIP3    H231943   2.621   3.886   2.074 -0.4730  0.6016 -0.7067
 3462TIP3   OH231944   2.154   0.784   0.502 -0.6831  0.1138  0.0231
 3462TIP3    H131945   2.166   0.723   0.575 -1.7225 -0.5261 -0.3153
 3462TIP3    H231946   2.199   0.864   0.530  0.1633 -0.5884  0.7467
 3463TIP3   OH231947   1.773   6.115   0.775 -0.3565 -0.4006 -0.5213
 3463TIP3    H131948   1.771   6.030   0.732 -0.2360 -0.6302 -0.0783
 3463TIP3    H231949   1.697   6.162   0.740  0.2614 -0.2399 -1.6683
 3464TIP3   OH231950   5.277   6.197   2.454 -0.0422 -0.1551 -0.3007
 3464TIP3    H131951   5.341   6.137   2.418 -0.8897 -1.2817  0.0022
 3464TIP3    H231952   5.196   6.146   2.457 -0.2723  0.2558  2.0660
 3465TIP3   OH231953   3.138   6.712   0.987  0.1586 -0.2498  0.5551
 3465TIP3    H131954   3.233   6.698   0.990  0.2860 -0.1751 -1.8795
 3465TIP3    H231955   3.117   6.720   0.894 -2.1699  0.3320  1.0681
 3466TIP3   OH231956   4.163   6.050   3.131  0.5606 -0.3846 -0.6069
 3466TIP3    H131957   4.186   6.100   3.053  0.8108  0.9397  0.2873
 3466TIP3    H231958   4.068   6.043   3.128  0.6897 -2.4279 -2.2394
 3467TIP3   OH231959   0.933   5.666   4.086  0.3539 -0.2478 -0.3974
 3467TIP3    H131960   0.910   5.661   4.179  1.7705  1.7820  0.1416
 3467TIP3    H231961   1.028   5.653   4.084  0.3061 -0.5399 -1.6022
 3468TIP3   OH231962   6.407   6.247   0.948  0.0433 -0.0002  0.2051
 3468TIP3    H131963   6.370   6.305   1.014 -2.0628  0.1530 -1.0446
 3468TIP3    H231964   6.401   6.295   0.866  0.8476 -0.9277 -0.4311
 3469TIP3   OH231965   3.671   3.019   1.330  0.6144 -0.3775  0.2134
 3469TIP3    H131966   3.614   3.033   1.254 -0.7095  1.3046  1.4237
 3469TIP3    H231967   3.727   3.097   1.332  1.7767 -1.1874  0.0593
 3470TIP3   OH231968   6.300   1.417   3.848 -0.0111  0.2567 -0.1603
 3470TIP3    H131969   6.335   1.394   3.934  0.8648 -0.5729 -0.7263
 3470TIP3    H231970   6.230   1.353   3.833 -1.0659  1.2122  0.4760
 3471TIP3   OH231971   3.443   1.129   3.949 -0.4776  0.4590  0.2566
 3471TIP3    H131972   3.496   1.198   3.909  1.0541 -1.1441 -0.6303
 3471TIP3    H231973   3.360   1.132   3.901  0.3904  0.2689 -1.3247
 3472TIP3   OH231974   6.587   2.716   0.697  0.2761  0.2989  0.0725
 3472TIP3    H131975   6.569   2.628   0.731 -0.9586 -0.1245 -1.5952
 3472TIP3    H231976   6.545   2.774   0.760  2.0768 -0.1678  1.8364
 3473TIP3   OH231977   6.642   6.754   3.473 -0.6433  0.3268  0.0140
 3473TIP3    H131978   6.701   6.729   3.401 -1.5060  1.9077 -1.3317
 3473TIP3    H231979   6.699   6.763   3.549  0.7831  1.1391 -1.0903
 3474TIP3   OH231980   4.228   6.638   3.502  0.2010 -0.2255 -0.0673
 3474TIP3    H131981   4.248   6.703   3.570 -0.5700  1.3220 -1.2470
 3474TIP3    H231982   4.314   6.603   3.476  0.8462  1.6041 -0.5848
 3475TIP3   OH231983   5.363   4.499   0.896  0.2884  0.0511  0.2920
 3475TIP3    H131984   5.440   4.496   0.954 -0.0740 -2.4864  0.7527
 3475TIP3    H231985   5.356   4.410   0.861 -1.8805  0.4888 -0.5202
 3476TIP3   OH231986   1.219   6.364   2.899  0.1387 -0.4610 -0.3561
 3476TIP3    H131987   1.231   6.331   2.810 -0.7524  0.0032 -0.6575
 3476TIP3    H231988   1.215   6.285   2.953 -0.0768 -0.7795 -0.8282
 3477TIP3   OH231989   5.968   5.319   0.097  0.2090  0.4656  0.6577
 3477TIP3    H131990   5.973   5.260   0.172 -2.4545 -0.4568  0.2325
 3477TIP3    H231991   5.916   5.271   0.033 -0.6012  2.5969 -0.3671
 3478TIP3   OH231992   4.801   2.624   2.758  0.4906  0.5018 -0.2497
 3478TIP3    H131993   4.836   2.702   2.715  0.3456  0.4649 -0.4377
 3478TIP3    H231994   4.772   2.655   2.843 -1.1246  1.0325 -0.9411
 3479TIP3   OH231995   3.415   1.919   3.405  0.1939 -0.0228 -0.0452
 3479TIP3    H131996   3.332   1.872   3.413 -0.4024  0.6272 -1.9345
 3479TIP3    H231997   3.472   1.876   3.468 -1.4596 -0.7244  1.0417
 3480TIP3   OH231998   6.535   1.723   0.949  0.1248 -0.3040 -0.0442
 3480TIP3    H131999   6.602   1.741   0.883  1.0466 -1.9845  0.3716
 3480TIP3    H232000   6.468   1.790   0.934  1.7971  1.3209 -0.5899
 3481TIP3   OH232001   2.823   6.716   2.172 -0.2599  0.0986  0.5997
 3481TIP3    H132002   2.907   6.745   2.207  0.1164  0.7845 -0.8291
 3481TIP3    H232003   2.822   6.747   2.082 -1.3456 -1.3261  0.0843
 3482TIP3   OH232004   3.968   4.414   3.550 -0.4032  0.0206 -0.0628
 3482TIP3    H132005   3.946   4.380   3.636  1.5807 -0.9522  0.1273
 3482TIP3    H232006   3.980   4.508   3.563  1.0117 -0.2702  1.0360
 3483TIP3   OH232007   2.685   3.469   8.228  0.3431 -0.7159  0.1324
 3483TIP3    H132008   2.607   3.415   8.220 -1.0033  1.2892 -1.4918
 3483TIP3    H232009   2.655   3.557   8.205  3.4046 -0.1451 -2.3733
 3484TIP3   OH232010   3.512   3.913   2.137  0.1972  0.2689 -0.0025
 3484TIP3    H132011   3.584   3.901   2.075  1.6730 -1.3868  1.8743
 3484TIP3    H232012   3.465   3.830   2.136 -0.0297  0.3818  0.7338
 3485TIP3   OH232013   0.580   5.377   2.246 -0.1645  0.5290  0.0930
 3485TIP3    H132014   0.634   5.331   2.181  1.8240  3.0178 -0.1931
 3485TIP3    H232015   0.633   5.375   2.326 -0.2132  1.8749  0.1804
 3486TIP3   OH232016   0.418   1.963   3.295 -0.0534 -0.7213 -0.4041
 3486TIP3    H132017   0.479   1.956   3.222  0.6081  2.5265 -0.2912
 3486TIP3    H232018   0.332   1.973   3.254  0.0302 -1.0255 -0.6586
 3487TIP3   OH232019   1.963   5.291   0.841 -0.1335  0.7156  0.8853
 3487TIP3    H132020   1.942   5.384   0.838  0.5010  0.8480 -0.2348
 3487TIP3    H232021   1.892   5.249   0.793  0.0308  0.7212  0.6352
 3488TIP3   OH232022   5.896   3.778   1.295  0.1721  0.3451 -0.3916
 3488TIP3    H132023   5.806   3.759   1.323 -0.4221  1.3518 -1.5102
 3488TIP3    H232024   5.939   3.693   1.295 -1.6907 -0.7349 -2.9038
 3489TIP3   OH232025   5.458   0.939   4.408 -0.7037 -0.0759 -0.2654
 3489TIP3    H132026   5.485   0.848   4.397  0.0472  0.2073 -0.8573
 3489TIP3    H232027   5.386   0.950   4.346 -0.2530 -0.0462 -0.7880
 3490TIP3   OH232028   2.508   2.119   1.785 -0.0013 -0.1897  0.2054
 3490TIP3    H132029   2.546   2.096   1.869  0.6093  3.8913  1.2802
 3490TIP3    H232030   2.579   2.160   1.736 -1.4019  1.9054 -0.2549
 3491TIP3   OH232031   5.423   1.486   1.653 -0.6844 -0.3594  0.4966
 3491TIP3    H132032   5.384   1.494   1.741  1.2985  0.2289  1.3689
 3491TIP3    H232033   5.475   1.565   1.642 -0.1080 -0.8899 -0.8144
 3492TIP3   OH232034   2.847   5.711   2.423  0.3534  0.2568  0.0866
 3492TIP3    H132035   2.881   5.797   2.447 -1.4952  1.0812 -0.0964
 3492TIP3    H232036   2.752   5.718   2.436 -0.1200 -0.9877 -2.1272
 3493TIP3   OH232037   1.139   2.011   3.385 -0.1862 -0.2905 -0.1034
 3493TIP3    H132038   1.069   1.969   3.334  1.5510 -0.5129 -2.4298
 3493TIP3    H232039   1.177   2.076   3.326 -0.2144  1.8667  2.0856
 3494TIP3   OH232040   6.165   5.509   1.475 -0.3913 -0.1025 -0.3186
 3494TIP3    H132041   6.210   5.466   1.402  1.2705  0.1978  0.4785
 3494TIP3    H232042   6.158   5.442   1.543  0.8808  0.4127  0.3716
 3495TIP3   OH232043   4.147   6.828   2.495 -0.4441 -0.2170  0.0813
 3495TIP3    H132044   4.099   6.854   2.417  0.9951 -0.1315 -0.7971
 3495TIP3    H232045   4.229   6.877   2.491  0.1517 -1.0918  1.0206
 3496TIP3   OH232046   5.322   6.136   1.863 -0.0222 -0.5298 -0.0463
 3496TIP3    H132047   5.311   6.231   1.871 -1.1037 -0.5195 -1.3335
 3496TIP3    H232048   5.242   6.107   1.819 -0.1662 -2.1896  1.2117
 3497TIP3   OH232049   1.573   3.386   1.979  0.6489  0.2122  0.3374
 3497TIP3    H132050   1.571   3.292   1.993 -0.2815 -0.0128 -1.0992
 3497TIP3    H232051   1.487   3.417   2.010  1.1746  0.7024  1.3710
 3498TIP3   OH232052   5.114   6.839   1.545  0.0402  0.0277  0.5527
 3498TIP3    H132053   5.075   6.922   1.516  0.0732  0.2115  1.0197
 3498TIP3    H232054   5.147   6.799   1.465 -1.4207 -0.3000  0.0693
 3499TIP3   OH232055   1.945   5.083   4.584 -0.3957 -0.3201  0.0665
 3499TIP3    H132056   1.967   5.159   4.637 -1.3642 -1.0551  1.5802
 3499TIP3    H232057   1.949   5.009   4.644 -0.9471 -1.2658 -1.0159
 3500TIP3   OH232058   1.223   3.996   1.542 -0.1464  0.5573  0.1021
 3500TIP3    H132059   1.248   4.084   1.515  0.8192  1.3280  3.0813
 3500TIP3    H232060   1.262   3.939   1.476  2.0695  2.2289 -0.1755
 3501TIP3   OH232061   1.113   2.735   2.500 -0.0653  0.1817 -0.3084
 3501TIP3    H132062   1.077   2.780   2.576  0.0159  0.3560 -0.3714
 3501TIP3    H232063   1.040   2.732   2.438  0.6899  2.9821 -1.5294
 3502TIP3   OH232064   4.261   3.934   1.520  0.0817 -0.0123 -0.5507
 3502TIP3    H132065   4.284   4.026   1.505  0.0981  0.2868  1.1363
 3502TIP3    H232066   4.166   3.931   1.508 -0.3568  0.8651  2.0497
 3503TIP3   OH232067   1.953   1.983   1.103  0.1175  0.1801 -0.2759
 3503TIP3    H132068   2.009   2.048   1.145  1.2552 -1.5239  0.9699
 3503TIP3    H232069   2.013   1.914   1.076 -0.9368  0.0172 -2.4248
 3504TIP3   OH232070   1.278   4.674   3.197 -0.3258 -0.1457 -0.6278
 3504TIP3    H132071   1.185   4.695   3.194 -0.2417  1.3910  2.6378
 3504TIP3    H232072   1.285   4.587   3.158 -3.3761 -0.9324  0.3484
 3505TIP3   OH232073   3.744   2.011   2.671  0.0835  0.3350  0.0517
 3505TIP3    H132074   3.706   2.097   2.660  0.8321  1.1192  2.7928
 3505TIP3    H232075   3.703   1.957   2.603 -2.7969  2.0584  0.2845
 3506TIP3   OH232076   0.287   2.892   1.016 -0.2286 -0.4983  0.8129
 3506TIP3    H132077   0.260   2.957   0.952  0.2209 -1.5741 -0.4967
 3506TIP3    H232078   0.355   2.937   1.067 -2.9027  1.5520  2.8818
 3507TIP3   OH232079   1.234   0.183   8.480  0.5975  0.6152 -0.8736
 3507TIP3    H132080   1.211   0.120   8.411  1.8635 -0.7271 -0.1444
 3507TIP3    H232081   1.162   0.177   8.543  0.9565 -0.5440 -0.5493
 3508TIP3   OH232082   5.530   5.518   4.509  0.1721  0.2472 -0.3204
 3508TIP3    H132083   5.594   5.463   4.554 -0.0424  0.1541 -0.1301
 3508TIP3    H232084   5.486   5.458   4.448 -0.2450  0.1519  0.0767
 3509TIP3   OH232085   6.833   4.726   2.722 -0.4751 -0.4924 -0.4054
 3509TIP3    H132086   6.871   4.814   2.728 -0.8790 -0.3889  0.8269
 3509TIP3    H232087   6.897   4.676   2.670  0.1425  0.3104 -0.4420
 3510TIP3   OH232088   2.166   1.007   1.301  0.8559 -0.1294 -0.6382
 3510TIP3    H132089   2.195   0.984   1.213 -0.5943  0.6473 -1.3443
 3510TIP3    H232090   2.152   1.102   1.298 -1.6559 -0.4221 -0.3510
 3511TIP3   OH232091   1.354   5.506   0.450  0.0436  0.3471 -0.4120
 3511TIP3    H132092   1.306   5.455   0.384 -0.5883  0.6078 -0.1667
 3511TIP3    H232093   1.445   5.504   0.421 -0.3228  1.0498 -1.6880
 3512TIP3   OH232094   1.282   5.870   2.282  0.3540  0.1208 -0.4818
 3512TIP3    H132095   1.301   5.851   2.190  0.9660 -1.5952 -0.0435
 3512TIP3    H232096   1.367   5.895   2.319  0.7372 -1.9752  0.2051
 3513TIP3   OH232097   1.629   5.865   1.535  0.2296  0.0338 -0.1477
 3513TIP3    H132098   1.652   5.890   1.446  0.6410  0.0584 -0.0348
 3513TIP3    H232099   1.548   5.815   1.525  0.3785 -0.1362 -0.5565
 3514TIP3   OH232100   1.474   0.682   3.059 -0.4874 -0.6241  0.0154
 3514TIP3    H132101   1.383   0.652   3.050 -0.9892  0.8188  0.0337
 3514TIP3    H232102   1.491   0.730   2.977  0.3780 -1.1699 -0.1346
 3515TIP3   OH232103   5.209   6.445   3.276 -0.3172 -0.3478 -0.0251
 3515TIP3    H132104   5.167   6.530   3.262 -0.0070 -0.0601  0.7323
 3515TIP3    H232105   5.159   6.405   3.347 -0.4664 -0.8083 -0.3831
 3516TIP3   OH232106   6.215   0.894   2.398 -0.4271 -0.1636  0.2646
 3516TIP3    H132107   6.137   0.864   2.351 -1.1501  1.8802  0.0781
 3516TIP3    H232108   6.189   0.897   2.490 -0.3265 -0.2074  0.2948
 3517TIP3   OH232109   3.863   5.842   2.957  0.0316 -0.8356 -0.0894
 3517TIP3    H132110   3.901   5.893   3.029  1.0500 -2.3034  0.4520
 3517TIP3    H232111   3.927   5.850   2.886 -0.0887 -0.8924 -0.2041
 3518TIP3   OH232112   4.789   6.732   1.115  0.2346  0.0610 -0.6203
 3518TIP3    H132113   4.793   6.793   1.042 -0.8122  0.6758 -0.1773
 3518TIP3    H232114   4.810   6.647   1.076  0.6524  0.5315 -1.4409
 3519TIP3   OH232115   3.964   5.372   2.937  0.0962  0.3553  0.4351
 3519TIP3    H132116   3.892   5.410   2.886 -0.9055 -1.0053  0.7712
 3519TIP3    H232117   3.924   5.347   3.020  0.5906 -1.7107  0.1108
 3520TIP3   OH232118   6.474   1.721   4.647 -0.8950 -0.3857 -0.1825
 3520TIP3    H132119   6.469   1.631   4.680  2.3193  0.0486  2.0376
 3520TIP3    H232120   6.457   1.775   4.724 -1.7187  0.9298 -1.2442
 3521TIP3   OH232121   2.537   2.379   2.730  0.4138 -0.0441  0.3194
 3521TIP3    H132122   2.521   2.361   2.637 -1.7332  0.5786  0.5214
 3521TIP3    H232123   2.578   2.300   2.763  2.8162  0.3116 -1.4785
 3522TIP3   OH232124   5.583   6.358   1.990  0.1870  0.3603 -0.0710
 3522TIP3    H132125   5.521   6.401   1.931  0.5921 -0.3556 -1.0458
 3522TIP3    H232126   5.530   6.299   2.042 -0.2561  1.3971  0.6911
 3523TIP3   OH232127   6.086   2.044   2.628 -0.0722  0.0036  0.4575
 3523TIP3    H132128   5.995   2.012   2.629 -0.0127 -0.1695  0.3566
 3523TIP3    H232129   6.098   2.078   2.539  0.1882 -0.6244  0.2513
 3524TIP3   OH232130   3.322   3.931   3.475  0.7969 -0.2350 -0.3036
 3524TIP3    H132131   3.290   3.868   3.411 -2.8678  0.9452  0.1533
 3524TIP3    H232132   3.384   3.881   3.529 -2.7347 -3.9749  0.8120
 3525TIP3   OH232133   4.622   4.084   2.030  0.6992 -0.0126 -0.0921
 3525TIP3    H132134   4.555   4.104   1.964  1.1156 -0.6732 -0.7291
 3525TIP3    H232135   4.701   4.068   1.979  0.8257 -1.4038  0.4959
 3526TIP3   OH232136   6.512   4.094   1.034 -0.2137 -0.2673 -0.2263
 3526TIP3    H132137   6.547   4.100   0.945  0.3182 -2.4161 -0.2080
 3526TIP3    H232138   6.443   4.029   1.028 -0.2455 -0.3530  0.9215
 3527TIP3   OH232139   4.457   1.408   1.228 -0.4720  0.0956  0.1673
 3527TIP3    H132140   4.462   1.406   1.132 -0.7869  1.4742  0.0934
 3527TIP3    H232141   4.369   1.442   1.246 -0.4762 -0.3273  0.9528
 3528TIP3   OH232142   0.786   2.805   3.139  0.0161  0.2877 -0.4476
 3528TIP3    H132143   0.783   2.778   3.231 -1.2689  0.3480 -0.4575
 3528TIP3    H232144   0.879   2.802   3.116  0.4852  1.3442  1.1783
 3529TIP3   OH232145   1.562   0.378   3.209 -0.2250  0.4937 -0.3162
 3529TIP3    H132146   1.621   0.444   3.244 -1.6458  1.8619 -0.3688
 3529TIP3    H232147   1.558   0.396   3.115 -0.4969  0.2296 -0.3601
 3530TIP3   OH232148   0.530   6.267   3.199 -0.5990 -0.3248  0.3197
 3530TIP3    H132149   0.502   6.353   3.230  0.1588  0.5105 -1.2137
 3530TIP3    H232150   0.450   6.225   3.168 -0.6657  0.7838 -1.1001
 3531TIP3   OH232151   2.669   5.258   3.820  0.2472  0.1372  0.3359
 3531TIP3    H132152   2.616   5.185   3.787 -0.4455  1.0547 -0.6210
 3531TIP3    H232153   2.654   5.256   3.915 -2.2373  0.8927  0.0273
 3532TIP3   OH232154   1.773   5.818   8.377  0.5753  1.1765  0.5190
 3532TIP3    H132155   1.763   5.784   8.288  0.3283  2.7062 -0.0668
 3532TIP3    H232156   1.840   5.762   8.417  2.4388  1.8752 -1.4189
 3533TIP3   OH232157   3.998   3.165   0.102 -0.1685 -0.2895 -0.0056
 3533TIP3    H132158   4.016   3.143   0.193  1.2333  1.1422  0.1126
 3533TIP3    H232159   3.985   3.080   0.059 -0.4237 -1.0114  1.4257
 3534TIP3   OH232160   5.278   0.373   1.549  0.4923 -0.4110  0.3676
 3534TIP3    H132161   5.240   0.313   1.614  2.1854 -1.0733  0.8006
 3534TIP3    H232162   5.267   0.460   1.587 -2.7377 -0.2512 -0.6328
 3535TIP3   OH232163   3.951   3.056   2.532 -0.2969  0.2126  0.5086
 3535TIP3    H132164   3.983   3.018   2.450  0.1760 -2.2604  1.7376
 3535TIP3    H232165   3.904   3.135   2.505  1.1753  0.3563 -1.9728
 3536TIP3   OH232166   1.854   4.570   2.258  0.0237 -0.1253  0.4962
 3536TIP3    H132167   1.938   4.558   2.303  0.9283  1.9411 -0.4606
 3536TIP3    H232168   1.788   4.556   2.325  1.2604  1.0264  2.0360
 3537TIP3   OH232169   4.687   4.613   3.990 -0.9841  0.0822  0.6151
 3537TIP3    H132170   4.686   4.547   3.921  0.4330  0.8262 -0.1593
 3537TIP3    H232171   4.732   4.571   4.063  0.5879  0.3957 -0.1345
 3538TIP3   OH232172   6.916   2.720   1.907  0.1463 -0.7952 -0.3168
 3538TIP3    H132173   6.887   2.794   1.854  1.1207  0.0527  0.2902
 3538TIP3    H232174   6.924   2.647   1.845 -0.9152 -0.4316 -0.9055
 3539TIP3   OH232175   3.913   1.726   0.357  0.6595 -0.3725 -0.1734
 3539TIP3    H132176   3.879   1.637   0.372 -1.0293 -0.2348 -2.5754
 3539TIP3    H232177   3.889   1.745   0.266  0.9057  2.5983  0.3114
 3540TIP3   OH232178   1.209   3.920   4.139 -0.1946 -0.2955 -0.0913
 3540TIP3    H132179   1.171   3.960   4.217 -1.4968  0.5564 -1.1311
 3540TIP3    H232180   1.230   3.830   4.166  2.8880  0.9435  2.3404
 3541TIP3   OH232181   6.528   1.014   2.664  0.0215  0.7096  0.0982
 3541TIP3    H132182   6.445   1.042   2.704 -0.8986 -1.2583 -0.2919
 3541TIP3    H232183   6.511   1.015   2.570  0.1362 -0.4823  0.0487
 3542TIP3   OH232184   5.760   2.722   2.405  0.8672 -0.1554 -0.4411
 3542TIP3    H132185   5.806   2.785   2.461 -0.1971 -0.5216  0.9084
 3542TIP3    H232186   5.747   2.768   2.322  0.7498  1.1476  0.2690
 3543TIP3   OH232187   4.051   3.561   3.559  0.0183 -0.3703 -0.4334
 3543TIP3    H132188   4.128   3.524   3.516  0.0162 -0.0578 -0.7138
 3543TIP3    H232189   4.021   3.630   3.499  0.4900  0.6250  0.4566
 3544TIP3   OH232190   2.127   6.108   0.625 -0.1659  0.0722  0.2408
 3544TIP3    H132191   2.074   6.049   0.572  2.6781 -0.6802 -1.9948
 3544TIP3    H232192   2.148   6.057   0.703 -2.0609  0.1481  0.8493
 3545TIP3   OH232193   5.908   0.597   0.335 -0.7183 -0.2653  1.1379
 3545TIP3    H132194   5.878   0.506   0.334  0.8936 -0.8367  0.6024
 3545TIP3    H232195   5.994   0.594   0.292 -0.0823  1.3114  2.1994
 3546TIP3   OH232196   2.327   4.491   1.357  0.2606  0.3022 -0.2692
 3546TIP3    H132197   2.410   4.450   1.330  0.4133  0.6530 -0.3357
 3546TIP3    H232198   2.262   4.421   1.347  0.8490 -0.6055  1.6805
 3547TIP3   OH232199   0.809   5.424   4.624  0.5451  0.0560  0.2575
 3547TIP3    H132200   0.732   5.391   4.671  0.9762 -0.4882  0.5912
 3547TIP3    H232201   0.812   5.517   4.645 -0.0543  0.0957  0.1897
 3548TIP3   OH232202   2.220   0.671   3.945 -0.7355  0.0911  0.3476
 3548TIP3    H132203   2.287   0.607   3.922 -3.5507 -3.3915  0.8845
 3548TIP3    H232204   2.182   0.697   3.861 -1.5332 -1.3463  0.2410
 3549TIP3   OH232205   1.339   0.645   1.020  0.4488 -0.2758  0.3003
 3549TIP3    H132206   1.298   0.718   1.067  0.0321  0.0827 -0.5982
 3549TIP3    H232207   1.428   0.641   1.055  1.3305  2.2788 -1.3436
 3550TIP3   OH232208   4.258   6.839   1.786 -0.0415 -0.2148 -0.1661
 3550TIP3    H132209   4.298   6.836   1.699  1.6676 -1.9720  0.6067
 3550TIP3    H232210   4.316   6.896   1.836  0.9030 -1.8106  0.6412
 3551TIP3   OH232211   4.275   4.976   1.613  0.0781  0.4648 -0.4202
 3551TIP3    H132212   4.252   5.069   1.625  0.7467  0.3860  2.2357
 3551TIP3    H232213   4.220   4.930   1.676  0.9506 -0.7257 -0.4990
 3552TIP3   OH232214   5.265   0.682   1.619  0.4797  0.4002  0.3399
 3552TIP3    H132215   5.201   0.747   1.589 -0.0583 -0.6576 -0.9136
 3552TIP3    H232216   5.234   0.654   1.704 -0.5718  0.1341 -0.1202
 3553TIP3   OH232217   5.142   2.453   3.118 -0.0876 -0.5631 -0.2884
 3553TIP3    H132218   5.167   2.368   3.154  1.5905  0.3019  0.7434
 3553TIP3    H232219   5.113   2.503   3.194  1.5370  0.6287 -0.3971
 3554TIP3   OH232220   1.383   1.513   3.507 -0.0958  0.2376 -0.0613
 3554TIP3    H132221   1.387   1.598   3.462 -0.1507 -0.4887 -1.4779
 3554TIP3    H232222   1.445   1.458   3.460 -1.2056 -0.9758 -0.1609
 3555TIP3   OH232223   2.827   4.348   3.213  0.6527 -0.2951  0.4149
 3555TIP3    H132224   2.836   4.253   3.203 -0.6087 -0.5544  1.5240
 3555TIP3    H232225   2.828   4.381   3.123  1.1058 -1.3558  0.0121
 3556TIP3   OH232226   0.932   0.020   4.108  0.4050  0.6942 -0.6881
 3556TIP3    H132227   0.979   0.060   4.182 -1.7317  1.9958  0.0528
 3556TIP3    H232228   0.954  -0.073   4.113  1.3896  0.9685  0.7386
 3557TIP3   OH232229   5.051   3.024   4.443 -1.0191  0.3736  0.0718
 3557TIP3    H132230   5.034   3.058   4.530 -0.1881  0.2926  0.2800
 3557TIP3    H232231   4.967   2.992   4.412 -1.2501  0.0756  0.9885
 3558TIP3   OH232232   2.320   0.284   3.535  0.0979  0.1014 -0.1734
 3558TIP3    H132233   2.359   0.359   3.579 -1.4337  1.0050 -0.2901
 3558TIP3    H232234   2.382   0.262   3.465  1.1572  0.4515  0.6277
 3559TIP3   OH232235   5.786   2.383   2.826  0.3108 -0.0229  0.0755
 3559TIP3    H132236   5.716   2.317   2.831  0.7912 -0.4245  2.2368
 3559TIP3    H232237   5.831   2.363   2.744 -0.2698 -1.6683  0.1072
 3560TIP3   OH232238   5.029   3.085   1.921  0.0631  0.2078  0.1788
 3560TIP3    H132239   4.982   3.002   1.925  1.8579 -0.8138  2.7994
 3560TIP3    H232240   4.996   3.128   1.842 -4.1048 -1.0158  1.0213
 3561TIP3   OH232241   3.834   2.237   3.897  0.7026  1.0531  0.2563
 3561TIP3    H132242   3.925   2.232   3.925  0.5335  0.1151  0.6431
 3561TIP3    H232243   3.783   2.237   3.978  0.3571  1.9688  0.0603
 3562TIP3   OH232244   1.938   2.960   2.053  0.0531 -0.0606  0.0407
 3562TIP3    H132245   1.845   2.982   2.049 -0.0871 -0.5834  0.3403
 3562TIP3    H232246   1.948   2.911   2.135  0.6405  0.2101  0.1389
 3563TIP3   OH232247   0.562   0.848   3.045 -0.8204 -0.2276 -0.2540
 3563TIP3    H132248   0.618   0.908   3.094 -0.1017 -1.0406 -0.0406
 3563TIP3    H232249   0.603   0.762   3.058 -2.1544 -0.8614 -0.0370
 3564TIP3   OH232250   6.654   6.508   2.430  0.7825  0.1265  0.8850
 3564TIP3    H132251   6.672   6.483   2.521  0.6285 -1.7565  0.4542
 3564TIP3    H232252   6.635   6.425   2.387 -1.4393  1.1987 -0.3717
 3565TIP3   OH232253   2.242   1.858   0.358  0.6531 -0.0239 -0.3193
 3565TIP3    H132254   2.230   1.815   0.442 -0.7754 -0.1442 -0.5597
 3565TIP3    H232255   2.161   1.908   0.345  0.9518  0.1778 -1.5149
 3566TIP3   OH232256   4.751   3.020   2.049  0.3743 -0.5063 -0.2543
 3566TIP3    H132257   4.740   2.925   2.042  2.7795 -0.7366 -1.7207
 3566TIP3    H232258   4.804   3.032   2.127  0.5096 -0.4125 -0.3608
 3567TIP3   OH232259   5.133   4.325   2.760 -0.2465  0.6438 -0.1221
 3567TIP3    H132260   5.144   4.387   2.688 -1.0507  0.7206 -0.1801
 3567TIP3    H232261   5.087   4.374   2.827  2.7343  1.4269  1.5593
 3568TIP3   OH232262   4.540   6.538   0.320 -0.0740  0.3554  0.3037
 3568TIP3    H132263   4.488   6.476   0.268  1.0617 -0.5365  0.1811
 3568TIP3    H232264   4.529   6.622   0.275 -0.7871  0.0339 -0.1522
 3569TIP3   OH232265   4.948   1.945   2.434  0.5978  0.0351 -0.4097
 3569TIP3    H132266   5.005   2.002   2.383  1.2054  1.0906  1.3519
 3569TIP3    H232267   5.005   1.873   2.462  0.8287  0.5589  0.5022
 3570TIP3   OH232268   2.712   6.656   0.471 -0.0038 -0.6033 -0.1212
 3570TIP3    H132269   2.710   6.605   0.552 -0.8588  0.1372  0.3318
 3570TIP3    H232270   2.806   6.663   0.450  0.4358  1.2645  2.1325
 3571TIP3   OH232271   2.976   5.133   2.372  0.2915  0.2401 -0.1377
 3571TIP3    H132272   3.024   5.052   2.388  0.5620  0.2447 -0.8804
 3571TIP3    H232273   3.004   5.192   2.443 -1.2260 -0.8472  1.4405
 3572TIP3   OH232274   4.963   0.466   1.075  0.1462 -0.0412  0.3398
 3572TIP3    H132275   4.922   0.396   1.024  0.3843  0.4408 -0.5285
 3572TIP3    H232276   4.893   0.496   1.134 -0.5499  0.2775 -0.6132
 3573TIP3   OH232277   5.053   4.261   3.346  0.1482 -0.1510 -0.0403
 3573TIP3    H132278   5.013   4.330   3.399 -2.9318 -1.9666  0.2398
 3573TIP3    H232279   5.014   4.272   3.259  1.1264 -0.3747 -0.5169
 3574TIP3   OH232280   3.244   6.736   1.642  0.0920  0.0611  0.3674
 3574TIP3    H132281   3.160   6.738   1.596 -0.3520  0.7656  1.1906
 3574TIP3    H232282   3.241   6.811   1.701  1.3301  0.1268  0.3662
 3575TIP3   OH232283   5.810   2.477   4.334  0.1418  0.5474 -0.4225
 3575TIP3    H132284   5.744   2.407   4.328  0.6848 -0.0930  0.6520
 3575TIP3    H232285   5.816   2.495   4.428  2.8921 -0.8163 -0.2405
 3576TIP3   OH232286   0.823   6.367   1.621 -0.0255  0.3146 -0.4453
 3576TIP3    H132287   0.913   6.389   1.594 -0.3630  0.1853 -1.7328
 3576TIP3    H232288   0.802   6.432   1.688  1.1444  0.1349  0.1312
 3577TIP3   OH232289   0.132   4.521   3.001  0.2054  0.8623 -0.2907
 3577TIP3    H132290   0.144   4.612   3.027  2.0457  0.6387 -0.1869
 3577TIP3    H232291   0.206   4.475   3.041 -0.7741 -0.7086 -0.2098
 3578TIP3   OH232292   3.153   2.018   1.754  0.2654  0.0466  0.5578
 3578TIP3    H132293   3.157   2.052   1.665 -2.2776  0.8651  0.6628
 3578TIP3    H232294   3.208   2.078   1.805  1.5497 -0.2904 -0.3797
 3579TIP3   OH232295   0.398   0.421   1.241 -0.4725 -0.0967  0.1228
 3579TIP3    H132296   0.448   0.481   1.186  0.9382 -0.0157  1.4579
 3579TIP3    H232297   0.346   0.478   1.298 -1.8629 -0.1834 -0.9708
 3580TIP3   OH232298   3.125   5.168   3.434 -0.1244 -0.6697 -0.0999
 3580TIP3    H132299   3.143   5.235   3.500 -0.5476 -0.4986 -0.1565
 3580TIP3    H232300   3.175   5.092   3.464 -0.3198 -0.5982  0.4285
 3581TIP3   OH232301   5.430   1.425   0.054  0.2771  0.3283  0.1013
 3581TIP3    H132302   5.423   1.330   0.065 -0.6970  0.4666  0.7769
 3581TIP3    H232303   5.342   1.453   0.029  0.1311  1.2451  1.5411
 3582TIP3   OH232304   2.467   5.323   2.656  0.2901 -0.0262 -0.8374
 3582TIP3    H132305   2.477   5.415   2.633  0.3166 -0.1313 -1.2595
 3582TIP3    H232306   2.392   5.294   2.605  1.0757 -0.5661 -1.7100
 3583TIP3   OH232307   0.680   1.793   1.910  0.1236  0.4057 -0.0349
 3583TIP3    H132308   0.675   1.761   1.820  0.9963  0.5725 -0.1548
 3583TIP3    H232309   0.608   1.855   1.917 -1.4371 -1.3641  0.1352
 3584TIP3   OH232310   6.540   3.501   3.982 -0.1087 -0.3425  0.0817
 3584TIP3    H132311   6.476   3.464   4.043 -0.5087  1.0501  0.5255
 3584TIP3    H232312   6.612   3.437   3.983 -0.6851 -1.0182  0.9754
 3585TIP3   OH232313   6.745   4.595   2.945 -0.3579 -0.7002 -0.5169
 3585TIP3    H132314   6.774   4.647   2.871 -2.7513 -0.4105 -1.3530
 3585TIP3    H232315   6.824   4.551   2.977  0.9534  0.1578 -2.4176
 3586TIP3   OH232316   3.599   4.798   2.248  0.3232 -0.2679  0.0295
 3586TIP3    H132317   3.671   4.744   2.217 -0.4029 -1.2794  0.0707
 3586TIP3    H232318   3.567   4.753   2.326  0.8604  1.1904  1.1464
 3587TIP3   OH232319   5.997   2.553   2.847 -0.4210  0.0716 -0.2962
 3587TIP3    H132320   5.931   2.492   2.879 -2.4136  1.5967 -1.3233
 3587TIP3    H232321   5.972   2.572   2.757  0.2746  2.1872 -0.1046
 3588TIP3   OH232322   0.619   5.817   1.351  0.7457 -0.2696  0.2373
 3588TIP3    H132323   0.524   5.811   1.339  0.8813  0.4963 -1.4986
 3588TIP3    H232324   0.646   5.728   1.370 -0.3404 -0.4628  0.9950
 3589TIP3   OH232325   4.904   5.066   1.206  0.1174  0.4796  0.9070
 3589TIP3    H132326   4.945   5.040   1.124  0.1669 -1.3326  1.4515
 3589TIP3    H232327   4.939   5.004   1.270 -3.4687 -1.2413  1.4095
 3590TIP3   OH232328   6.849   3.044   1.105  0.2240 -0.2257  0.3685
 3590TIP3    H132329   6.827   3.027   1.014 -0.9143  0.4778  0.5031
 3590TIP3    H232330   6.768   3.028   1.153  0.4703  0.6614  1.1062
 3591TIP3   OH232331   2.727   1.794   0.464  0.2722 -0.0833 -0.3299
 3591TIP3    H132332   2.650   1.742   0.443  2.2726 -3.0900 -0.8368
 3591TIP3    H232333   2.749   1.770   0.554  0.1663  1.4409  0.1351
 3592TIP3   OH232334   2.874   0.937   0.871 -0.2193 -0.0734  0.1415
 3592TIP3    H132335   2.872   0.932   0.967  0.8875 -1.8869  0.1242
 3592TIP3    H232336   2.844   0.850   0.842 -1.5409  0.7856 -1.2014
 3593TIP3   OH232337   5.040   6.249   3.427  0.7401 -0.8437  0.2614
 3593TIP3    H132338   5.045   6.175   3.488  0.9919 -1.9946 -1.1148
 3593TIP3    H232339   4.958   6.238   3.381  1.1693 -0.7340 -0.5430
 3594TIP3   OH232340   6.170   0.514   1.471 -0.5137  0.1454 -0.1650
 3594TIP3    H132341   6.079   0.543   1.475 -0.7614 -0.6979  0.6461
 3594TIP3    H232342   6.165   0.419   1.476  0.4465  0.1119  0.3893
 3595TIP3   OH232343   1.823   0.224   2.258  0.0896 -0.3405 -0.1247
 3595TIP3    H132344   1.849   0.267   2.177  0.7657 -3.7505 -1.9116
 3595TIP3    H232345   1.741   0.179   2.237  0.9464 -2.3710  0.5865
 3596TIP3   OH232346   2.175   3.487   2.407  0.5509 -0.5565  0.5144
 3596TIP3    H132347   2.093   3.506   2.361  1.1368 -2.0452 -1.2710
 3596TIP3    H232348   2.163   3.398   2.441  1.3193 -0.6893  0.4581
 3597TIP3   OH232349   5.002   3.994   3.482 -0.7587 -0.4893 -0.3692
 3597TIP3    H132350   4.943   3.947   3.422  0.6391 -0.1695 -2.0427
 3597TIP3    H232351   5.021   4.076   3.438  0.3320 -0.2551  0.5041
 3598TIP3   OH232352   0.407   4.855   3.019 -0.1478 -0.4278 -0.0938
 3598TIP3    H132353   0.465   4.932   3.024  0.0322 -0.5006 -0.8661
 3598TIP3    H232354   0.465   4.783   2.994 -0.1851 -0.9835  1.3343
 3599TIP3   OH232355   4.038   4.214   3.787  0.1470  0.8329  0.2803
 3599TIP3    H132356   3.977   4.272   3.832  0.2592 -0.4931  2.2806
 3599TIP3    H232357   4.106   4.195   3.852  0.0564 -1.5713 -0.2159
 3600TIP3   OH232358   0.719   5.566   1.381 -0.5809  0.3867 -0.3783
 3600TIP3    H132359   0.781   5.567   1.308 -0.4140  0.7095 -0.2371
 3600TIP3    H232360   0.683   5.478   1.382 -0.5303  0.3592 -0.8075
 3601TIP3   OH232361   4.529   5.988   3.602 -0.4387  0.0027 -0.0551
 3601TIP3    H132362   4.444   5.988   3.645 -0.0519  0.8730  0.7446
 3601TIP3    H232363   4.593   5.993   3.673  0.2345  1.1131 -0.6919
 3602TIP3   OH232364   0.782   5.257   2.499 -0.3182 -0.4278 -0.0377
 3602TIP3    H132365   0.701   5.207   2.494 -1.0671  0.8519 -1.0513
 3602TIP3    H232366   0.776   5.303   2.582 -1.8905  1.6772 -1.2290
 3603TIP3   OH232367   5.691   1.760   1.780  0.1750 -0.2565  0.2970
 3603TIP3    H132368   5.770   1.814   1.788  0.3101 -0.6586  2.1894
 3603TIP3    H232369   5.621   1.816   1.812  0.0514 -0.6469  0.7156
 3604TIP3   OH232370   1.206   5.373   1.117 -0.7972  0.0527  0.1488
 3604TIP3    H132371   1.278   5.356   1.178 -0.8552 -0.7608  0.0065
 3604TIP3    H232372   1.234   5.450   1.068  0.5168 -0.9166 -0.6818
 3605TIP3   OH232373   2.402   4.988   3.114  1.1277  0.7046 -0.2792
 3605TIP3    H132374   2.486   5.009   3.073  2.3946  0.9606  2.2814
 3605TIP3    H232375   2.380   5.065   3.166 -0.0171  0.1048  0.1613
 3606TIP3   OH232376   2.072   0.222   3.419 -0.1122  0.4058  0.0689
 3606TIP3    H132377   2.143   0.274   3.457 -1.3963  2.2012  0.1090
 3606TIP3    H232378   2.097   0.210   3.327 -0.7439  2.9267 -0.4853
 3607TIP3   OH232379   4.745   6.753   3.804 -0.1308  0.9855 -0.0614
 3607TIP3    H132380   4.721   6.720   3.718  1.3378 -0.7000  0.1242
 3607TIP3    H232381   4.662   6.756   3.852 -0.5351 -1.3311 -0.4939
 3608TIP3   OH232382   4.237   0.935   3.675  0.5565 -0.0211 -0.2215
 3608TIP3    H132383   4.219   0.996   3.746 -0.5365 -2.2997  1.5988
 3608TIP3    H232384   4.327   0.905   3.692 -0.2052 -1.6960  1.2376
 3609TIP3   OH232385   0.159   6.019   3.836 -0.2155 -0.2470 -0.2121
 3609TIP3    H132386   0.159   6.111   3.860  1.0164 -0.4281  0.5111
 3609TIP3    H232387   0.236   6.008   3.781  0.1134 -1.0156  0.3897
 3610TIP3   OH232388   6.156   0.599   0.902  0.3983 -0.0443  0.0722
 3610TIP3    H132389   6.242   0.558   0.912 -0.1476 -1.2739 -0.0602
 3610TIP3    H232390   6.134   0.632   0.989  0.1060 -1.5972  0.6139
 3611TIP3   OH232391   0.534   2.085   2.856 -0.0748 -0.2068  0.4396
 3611TIP3    H132392   0.533   1.989   2.852 -0.1803 -0.4124  3.1498
 3611TIP3    H232393   0.616   2.110   2.813 -0.6066 -1.4045 -1.3579
 3612TIP3   OH232394   3.819   1.893   1.313  0.3693 -0.1923  0.3226
 3612TIP3    H132395   3.878   1.885   1.388  0.1680 -2.8867  0.2832
 3612TIP3    H232396   3.748   1.950   1.344  0.6525 -0.6847  1.9550
 3613TIP3   OH232397   2.937   3.284   2.722  0.0314  0.3544 -0.3225
 3613TIP3    H132398   2.939   3.233   2.803  1.6819  0.5630 -0.1933
 3613TIP3    H232399   2.991   3.234   2.661 -0.5563  0.5963 -1.0577
 3614TIP3   OH232400   3.992   0.150   1.489 -0.4488  0.1464  0.1848
 3614TIP3    H132401   4.048   0.140   1.412  0.4444  1.6316  0.5903
 3614TIP3    H232402   4.053   0.167   1.561 -1.1807 -2.4285  1.5163
 3615TIP3   OH232403   0.631   5.608   3.336 -0.1784 -0.5318  0.0053
 3615TIP3    H132404   0.679   5.661   3.400 -0.5743 -0.6456  0.3970
 3615TIP3    H232405   0.540   5.612   3.365 -0.3797 -0.4911 -0.6153
 3616TIP3   OH232406   1.762   2.207   0.980 -0.0377  0.2203  0.0980
 3616TIP3    H132407   1.825   2.254   1.035  2.0003  1.0129 -2.7037
 3616TIP3    H232408   1.735   2.271   0.914 -1.1540 -1.1153 -0.7925
 3617TIP3   OH232409   3.407   0.858   0.766  0.0034 -0.0708  0.0752
 3617TIP3    H132410   3.346   0.796   0.806  0.6005 -2.6003 -2.5632
 3617TIP3    H232411   3.435   0.915   0.837  0.1270 -3.4337  2.9731
 3618TIP3   OH232412   5.500   2.483   3.204  0.7431  0.6426  0.2600
 3618TIP3    H132413   5.491   2.421   3.276  1.2228 -0.7163 -0.8228
 3618TIP3    H232414   5.415   2.528   3.200  0.5406  0.3794  1.3227
 3619TIP3   OH232415   5.784   6.191   1.874 -0.3218  0.6525 -0.3650
 3619TIP3    H132416   5.745   6.115   1.917 -0.1301 -0.1625 -1.5887
 3619TIP3    H232417   5.718   6.261   1.883 -1.4648 -0.2851 -1.1285
 3620TIP3   OH232418   5.855   0.980   0.358  0.1171  0.9507 -0.0354
 3620TIP3    H132419   5.854   0.929   0.439  0.4543  1.7000  0.4574
 3620TIP3    H232420   5.777   0.951   0.310 -0.4960  1.0036  0.8979
 3621TIP3   OH232421   4.736   2.726   3.867 -0.0894 -0.5405 -0.1093
 3621TIP3    H132422   4.665   2.663   3.861  0.3140 -0.8762 -1.7366
 3621TIP3    H232423   4.770   2.715   3.956 -1.1755 -1.3305  0.2283
 3622TIP3   OH232424   1.101   3.683   1.845  0.5472 -0.2074  0.0584
 3622TIP3    H132425   1.118   3.656   1.935  3.5882 -1.8530 -0.8575
 3622TIP3    H232426   1.165   3.635   1.793  0.4006  2.3359 -2.7679
 3623TIP3   OH232427   1.092   2.882   1.936 -0.4386 -0.8093  0.1349
 3623TIP3    H132428   1.113   2.934   2.014  0.1031  0.0077 -0.5428
 3623TIP3    H232429   1.175   2.842   1.910 -0.3208 -0.0018 -0.7901
 3624TIP3   OH232430   4.565   5.214   4.009  0.2971  0.6113 -0.3908
 3624TIP3    H132431   4.598   5.227   4.098  0.0082 -0.3392 -0.1363
 3624TIP3    H232432   4.606   5.133   3.980 -0.4556  0.3413 -0.7179
 3625TIP3   OH232433   1.375   1.253   3.711  0.2077 -0.3007 -0.1705
 3625TIP3    H132434   1.427   1.183   3.671  0.0371 -0.1755 -0.6144
 3625TIP3    H232435   1.432   1.330   3.710  1.0043 -0.7923  1.7785
 3626TIP3   OH232436   1.892   0.849   0.775 -0.5521  0.2278  0.2301
 3626TIP3    H132437   1.894   0.828   0.868 -1.1774 -0.6922  0.0486
 3626TIP3    H232438   1.966   0.910   0.762  0.6852 -1.0601  0.9850
 3627TIP3   OH232439   2.665   6.402   3.325  0.0054  0.4809 -0.1144
 3627TIP3    H132440   2.594   6.359   3.373 -0.9511 -0.0673 -1.9553
 3627TIP3    H232441   2.744   6.355   3.353 -0.8027 -1.3811 -0.7615
 3628TIP3   OH232442   5.473   0.954   1.750 -0.1248 -0.4260  0.1880
 3628TIP3    H132443   5.492   0.868   1.712 -0.6809 -0.5186  0.1111
 3628TIP3    H232444   5.527   0.958   1.829  1.3517 -0.0845 -0.7775
 3629TIP3   OH232445   0.400   1.472   3.017 -0.7844  0.2124 -0.2066
 3629TIP3    H132446   0.452   1.400   3.053 -1.1906  1.3557  3.0252
 3629TIP3    H232447   0.312   1.437   3.009 -0.3794 -0.5263 -1.7411
 3630TIP3   OH232448   1.653   1.128   4.071  0.0190  0.0506 -0.4319
 3630TIP3    H132449   1.699   1.188   4.130 -0.0198 -0.0475 -0.3025
 3630TIP3    H232450   1.667   1.165   3.984 -0.3355  0.4687 -0.3142
 3631TIP3   OH232451   1.615   2.862   0.074  0.3974  0.5203  0.0265
 3631TIP3    H132452   1.596   2.880  -0.018 -0.6099  2.4143  0.5409
 3631TIP3    H232453   1.558   2.789   0.096  0.6889  0.0101 -0.8472
 3632TIP3   OH232454   6.284   2.000   3.819 -0.3055  0.2306 -0.3442
 3632TIP3    H132455   6.283   1.911   3.855 -0.5841  0.9456  1.5101
 3632TIP3    H232456   6.233   1.993   3.739 -0.3262 -1.2779 -0.2410
 3633TIP3   OH232457   1.325   3.828   2.433 -0.5563 -0.1652  0.3127
 3633TIP3    H132458   1.252   3.840   2.373  0.0863  0.6717 -0.3276
 3633TIP3    H232459   1.333   3.911   2.479  0.1076 -0.1822  0.2426
 3634TIP3   OH232460   0.823   4.979   0.812  0.0088  0.7317  0.3543
 3634TIP3    H132461   0.873   5.059   0.828  0.1924  0.5799  0.5529
 3634TIP3    H232462   0.751   4.983   0.876  1.7461 -0.7387  2.5502
 3635TIP3   OH232463   6.303   1.235   1.070 -0.2750 -0.0465  0.0989
 3635TIP3    H132464   6.278   1.282   0.990 -2.4496  0.8495  1.2127
 3635TIP3    H232465   6.246   1.158   1.070  1.0575 -1.0613 -0.1244
 3636TIP3   OH232466   1.957   6.506   3.184 -0.1179 -0.1152 -0.2039
 3636TIP3    H132467   2.019   6.576   3.203 -1.0425  0.5895  0.3578
 3636TIP3    H232468   1.913   6.490   3.268  2.0048 -3.3912  0.4610
 3637TIP3   OH232469   1.927   2.109   0.183 -0.0408 -0.1425 -0.2937
 3637TIP3    H132470   1.937   2.036   0.121  0.6374 -1.0120  0.7999
 3637TIP3    H232471   2.000   2.168   0.162 -0.1650 -0.1356 -0.7150
 3638TIP3   OH232472   6.161   4.212   1.213  0.0504 -0.6859 -0.4043
 3638TIP3    H132473   6.099   4.235   1.282  1.5199  0.4741  0.5914
 3638TIP3    H232474   6.190   4.123   1.234 -0.2681 -0.7184 -0.1057
 3639TIP3   OH232475   0.553   1.638   1.653  0.3978 -0.1063 -0.0134
 3639TIP3    H132476   0.500   1.590   1.589  0.9814  1.8416 -2.1198
 3639TIP3    H232477   0.529   1.600   1.737 -2.9921 -0.5719 -1.0154
 3640TIP3   OH232478   4.280   2.793   3.130 -0.6311  0.0672 -0.4965
 3640TIP3    H132479   4.327   2.734   3.189  0.7713  0.9169 -0.7092
 3640TIP3    H232480   4.286   2.879   3.172 -0.2406  0.5485 -1.5077
 3641TIP3   OH232481   4.223   3.749   3.368 -0.1406 -0.5255  0.8367
 3641TIP3    H132482   4.220   3.822   3.429 -2.1557  0.7250 -0.6335
 3641TIP3    H232483   4.313   3.749   3.335 -0.3181  1.9834  0.1469
 3642TIP3   OH232484   0.592   5.351   3.973 -0.3895  0.0289  0.2032
 3642TIP3    H132485   0.501   5.332   3.992 -0.3121 -0.7545 -0.1946
 3642TIP3    H232486   0.634   5.357   4.060 -0.4250 -1.5987  0.3631
 3643TIP3   OH232487   5.963   2.504   4.597  0.5732 -0.1187  0.2994
 3643TIP3    H132488   5.969   2.422   4.548  0.2587  0.3150 -0.4943
 3643TIP3    H232489   6.050   2.517   4.634  0.8120 -0.4704 -0.1271
 3644TIP3   OH232490   2.665   5.548   0.459  0.0156 -0.1560  0.3744
 3644TIP3    H132491   2.614   5.629   0.462  1.0877  0.6049 -0.9453
 3644TIP3    H232492   2.754   5.575   0.485  0.7559 -0.5558 -1.5868
 3645TIP3   OH232493   3.589   3.827   3.234  0.2776 -0.3562 -0.2489
 3645TIP3    H132494   3.622   3.792   3.318 -0.4933  0.3308  0.3574
 3645TIP3    H232495   3.554   3.750   3.189  1.7960 -0.9396 -0.4897
 3646TIP3   OH232496   2.092   2.705   3.755  0.1454 -0.6830 -0.1508
 3646TIP3    H132497   2.077   2.757   3.834  1.0664 -0.5347 -0.0648
 3646TIP3    H232498   2.187   2.694   3.751 -0.0065 -2.1285 -0.3127
 3647TIP3   OH232499   1.206   6.647   2.871 -0.3203 -0.0268  0.3604
 3647TIP3    H132500   1.260   6.683   2.800 -1.6826  2.0772  0.3035
 3647TIP3    H232501   1.236   6.556   2.879  1.4705  0.3224 -1.3296
 3648TIP3   OH232502   0.059   2.047   0.357 -0.0515  0.0617 -0.2415
 3648TIP3    H132503  -0.009   2.039   0.289  1.5878  3.0343 -2.4715
 3648TIP3    H232504   0.095   2.135   0.344  3.1928 -0.8010  1.8347
 3649TIP3   OH232505   6.795   1.939   3.424 -0.2498  0.7536 -0.0603
 3649TIP3    H132506   6.758   1.855   3.453  1.6040 -0.6150 -1.4578
 3649TIP3    H232507   6.719   1.998   3.421 -1.3917 -0.4379  2.2906
 3650TIP3   OH232508   5.359   6.450   3.854  0.5349  0.5299  0.1951
 3650TIP3    H132509   5.438   6.497   3.882  0.7441  1.5098 -1.8954
 3650TIP3    H232510   5.302   6.517   3.817  0.4081 -0.6496 -1.9388
 3651TIP3   OH232511   1.811   6.541   3.925 -0.0270 -0.2243  0.0099
 3651TIP3    H132512   1.882   6.605   3.922  1.0626 -1.3904 -0.0505
 3651TIP3    H232513   1.806   6.516   4.017 -2.1013  1.6621  0.5029
 3652TIP3   OH232514   0.446   2.975   1.211  0.4762 -0.5919  0.4676
 3652TIP3    H132515   0.433   2.953   1.303  2.2645  1.6872  1.3717
 3652TIP3    H232516   0.529   2.933   1.188 -0.6908 -2.4443 -0.6583
 3653TIP3   OH232517   6.502   2.271   4.078  0.0063  0.4431 -0.2192
 3653TIP3    H132518   6.583   2.277   4.027  0.5494  0.1970  0.5816
 3653TIP3    H232519   6.530   2.292   4.168 -0.7030 -0.2658  0.1731
 3654TIP3   OH232520   5.260   5.015   2.243  0.1181  0.2350  0.6623
 3654TIP3    H132521   5.263   4.966   2.161  0.3157 -1.5535  1.6785
 3654TIP3    H232522   5.191   4.972   2.294 -1.9804  3.0773  0.4352
 3655TIP3   OH232523   6.802   3.167   2.034  0.5212  0.4425 -0.3392
 3655TIP3    H132524   6.753   3.179   1.953 -0.4043 -1.1900 -0.0479
 3655TIP3    H232525   6.842   3.253   2.050  0.6067  0.8417 -2.4140
 3656TIP3   OH232526   3.954   5.500   0.928 -0.5017  0.5625  0.2966
 3656TIP3    H132527   3.986   5.479   0.841 -1.0818 -0.1863  0.2557
 3656TIP3    H232528   3.859   5.487   0.923 -0.4516 -0.3034  1.2559
 3657TIP3   OH232529   0.678   2.052   8.504 -0.1145  0.2371  0.1009
 3657TIP3    H132530   0.604   2.102   8.539 -0.5926 -0.7794  0.5950
 3657TIP3    H232531   0.689   2.083   8.414 -2.5988 -1.1446 -0.7663
 3658TIP3   OH232532   3.923   3.324   3.904 -0.2916 -0.1497 -0.7473
 3658TIP3    H132533   3.993   3.262   3.883  0.1399  0.0538  0.0772
 3658TIP3    H232534   3.845   3.269   3.911  0.0158 -0.5537 -0.4177
 3659TIP3   OH232535   2.132   0.295   4.075 -0.2059 -0.2980  0.3047
 3659TIP3    H132536   2.147   0.286   4.170  2.0567  0.6086  0.0956
 3659TIP3    H232537   2.190   0.230   4.036  1.6343  1.7046 -0.5169
 3660TIP3   OH232538   0.732   1.080   2.933 -0.1439  0.6975 -0.4709
 3660TIP3    H132539   0.694   1.149   2.987  0.4398  0.7468 -0.1084
 3660TIP3    H232540   0.784   1.028   2.994  0.7040  0.8832 -1.0123
 3661TIP3   OH232541   4.209   1.196   0.309 -0.2239  0.1514 -0.2593
 3661TIP3    H132542   4.134   1.239   0.268 -0.0436  1.0488  0.3119
 3661TIP3    H232543   4.282   1.256   0.295 -0.3596  1.0202  2.1959
 3662TIP3   OH232544   3.899   4.329   2.621  0.1398  0.0075  0.6162
 3662TIP3    H132545   3.968   4.293   2.677  1.3593  1.8514  0.3891
 3662TIP3    H232546   3.924   4.305   2.532  0.6963  0.9350  0.5066
 3663TIP3   OH232547   0.302   2.412   0.083 -0.1289  0.7743  0.1843
 3663TIP3    H132548   0.361   2.484   0.062  0.9934 -0.0177  0.5851
 3663TIP3    H232549   0.221   2.434   0.036  1.5255  0.2175 -3.2560
 3664TIP3   OH232550   0.268   6.838   1.789  0.3049  0.3114 -0.0094
 3664TIP3    H132551   0.181   6.873   1.771 -0.7205 -1.5876  0.8785
 3664TIP3    H232552   0.328   6.890   1.735 -1.4971  1.0149 -1.4049
 3665TIP3   OH232553   6.186   2.399   3.074  0.3145  0.0961  0.2729
 3665TIP3    H132554   6.169   2.317   3.028  4.4665 -0.8618  0.0903
 3665TIP3    H232555   6.127   2.462   3.033 -1.7414 -2.3702 -0.8124
 3666TIP3   OH232556   6.768   1.224   0.505 -0.8282 -0.2285 -0.2130
 3666TIP3    H132557   6.863   1.226   0.516 -0.3499 -2.9600 -2.5584
 3666TIP3    H232558   6.750   1.288   0.436 -0.5788 -0.2953 -0.3379
 3667TIP3   OH232559   4.224   2.870   2.084 -0.3559  0.8972 -0.5203
 3667TIP3    H132560   4.167   2.806   2.040  0.1312  0.8333 -1.0721
 3667TIP3    H232561   4.288   2.894   2.017  0.2712  0.9581  0.0995
 3668TIP3   OH232562   0.139   6.376   3.259  0.0226  0.4090 -0.4050
 3668TIP3    H132563   0.219   6.410   3.298  0.0921 -0.3688  0.1642
 3668TIP3    H232564   0.095   6.453   3.223  1.4307  0.7255 -1.5029
 3669TIP3   OH232565   5.873   3.326   4.132 -0.3586  0.3880 -0.5004
 3669TIP3    H132566   5.856   3.415   4.102  0.4156  0.1261 -1.8169
 3669TIP3    H232567   5.787   3.284   4.133 -1.0474  1.6410  2.0565
 3670TIP3   OH232568   6.416   6.586   0.522 -0.4468  0.1347 -0.1354
 3670TIP3    H132569   6.376   6.613   0.439 -0.8636  0.1164  0.0620
 3670TIP3    H232570   6.471   6.661   0.547 -1.0312  0.5126  0.0379
 3671TIP3   OH232571   6.100   4.154   3.262 -0.1962 -0.1181 -0.2596
 3671TIP3    H132572   6.127   4.148   3.353 -0.4141  1.5096 -0.0651
 3671TIP3    H232573   6.046   4.076   3.248 -0.3533 -0.2666  1.0636
 3672TIP3   OH232574   1.349   5.473   3.990  0.5736  0.4933  0.5085
 3672TIP3    H132575   1.428   5.429   4.022 -1.0464 -1.4568  2.0663
 3672TIP3    H232576   1.284   5.403   3.982 -0.4220  1.5986 -3.0460
 3673TIP3   OH232577   4.792   4.863   3.206  0.4564  0.1317  1.0231
 3673TIP3    H132578   4.727   4.880   3.138 -1.1392 -0.0971  2.4004
 3673TIP3    H232579   4.810   4.949   3.244  1.6783  0.3207  0.0596
 3674TIP3   OH232580   6.693   5.388   1.068 -0.0160  0.3518  0.1025
 3674TIP3    H132581   6.761   5.335   1.028 -0.0415 -0.9780  1.7126
 3674TIP3    H232582   6.733   5.421   1.149 -0.8761  0.5894  0.4435
 3675TIP3   OH232583   5.126   1.376   4.203  0.1738  0.5713  0.0280
 3675TIP3    H132584   5.141   1.420   4.287 -0.6030  2.4040 -0.7346
 3675TIP3    H232585   5.211   1.381   4.159  0.7432 -0.8946  0.8621
 3676TIP3   OH232586   2.774   1.196   4.059 -0.3525 -0.1608 -0.0909
 3676TIP3    H132587   2.710   1.219   4.126  0.5942 -0.9266  1.1150
 3676TIP3    H232588   2.730   1.131   4.004 -1.4084  1.0419 -0.7257
 3677TIP3   OH232589   1.027   4.655   0.175  0.5314 -0.2690 -0.4249
 3677TIP3    H132590   1.050   4.698   0.092 -0.1012  1.2677  0.1563
 3677TIP3    H232591   1.073   4.571   0.172  2.7192  0.8845 -1.1509
 3678TIP3   OH232592   1.941   4.039   2.855  0.3922 -0.1973  0.4916
 3678TIP3    H132593   1.867   4.033   2.916 -0.6124  0.5504 -0.5923
 3678TIP3    H232594   1.931   4.126   2.815  1.4106 -0.4068 -0.2553
 3679TIP3   OH232595   1.612   0.855   0.830 -0.1594 -0.0617  0.0850
 3679TIP3    H132596   1.701   0.877   0.803  0.8373 -2.0445  1.5717
 3679TIP3    H232597   1.622   0.807   0.912 -2.5662 -0.8405  0.0052
 3680TIP3   OH232598   4.740   5.781   2.661 -0.3478 -0.0989  0.2226
 3680TIP3    H132599   4.710   5.819   2.579  0.8693 -2.1301 -1.2542
 3680TIP3    H232600   4.776   5.696   2.636  0.8080 -0.4330  2.7628
 3681TIP3   OH232601   1.631   1.547   2.087  0.3466  0.1428  1.3926
 3681TIP3    H132602   1.686   1.529   2.011 -1.1432 -2.0577  0.7169
 3681TIP3    H232603   1.666   1.628   2.124  1.5065  0.9850 -1.2776
 3682TIP3   OH232604   3.760   2.190   2.175  0.3506 -0.0484  0.2384
 3682TIP3    H132605   3.690   2.146   2.128  0.3323 -1.6232  1.6559
 3682TIP3    H232606   3.827   2.207   2.108 -0.1293 -1.2355 -0.5741
 3683TIP3   OH232607   1.397   5.025   2.315  0.1211  0.5878  0.2948
 3683TIP3    H132608   1.445   5.107   2.318 -0.3186  0.8926 -0.4867
 3683TIP3    H232609   1.413   4.991   2.227 -1.0955  0.7179  0.0022
 3684TIP3   OH232610   0.238   3.544   3.616 -0.3670  0.1395  0.1236
 3684TIP3    H132611   0.289   3.506   3.688 -0.9305 -1.8368 -0.4369
 3684TIP3    H232612   0.300   3.550   3.543  0.1194  1.8366  0.6285
 3685TIP3   OH232613   1.647   2.201   0.239 -0.2765 -0.5379  0.1029
 3685TIP3    H132614   1.689   2.131   0.189 -0.2650 -2.0908  2.1305
 3685TIP3    H232615   1.707   2.216   0.312 -1.4437 -0.1300  1.0069
 3686TIP3   OH232616   5.706   6.682   1.647  0.2369 -0.7603 -0.6549
 3686TIP3    H132617   5.746   6.615   1.703 -1.6679 -1.3753  0.0577
 3686TIP3    H232618   5.643   6.726   1.704 -0.3686 -0.0848 -1.8094
 3687TIP3   OH232619   0.249   3.851   0.926 -0.3802 -0.2331  0.2269
 3687TIP3    H132620   0.174   3.893   0.966  2.1375  1.2228  3.9409
 3687TIP3    H232621   0.277   3.786   0.990  2.4045  0.3589 -0.2661
 3688TIP3   OH232622   4.425   3.451   3.958  0.1416 -0.2053  0.0820
 3688TIP3    H132623   4.429   3.376   3.899  0.1419  0.4440 -0.7625
 3688TIP3    H232624   4.335   3.483   3.949  0.4099  0.4595 -0.2880
 3689TIP3   OH232625   3.664   1.156   8.433 -0.1951 -0.1707  0.2832
 3689TIP3    H132626   3.664   1.132   8.340 -0.1379  0.0940  0.2147
 3689TIP3    H232627   3.745   1.118   8.467 -0.4967 -0.7575  0.3534
 3690TIP3   OH232628   4.322   1.054   0.998  0.6004  0.3513  0.5015
 3690TIP3    H132629   4.415   1.075   0.990  0.8756 -0.6406  0.9665
 3690TIP3    H232630   4.314   1.008   1.081  0.0401 -1.3440 -0.4275
 3691TIP3   OH232631   3.887   6.262   2.254  0.1090  0.0903 -0.5513
 3691TIP3    H132632   3.838   6.317   2.316  1.7456 -0.1517  1.0594
 3691TIP3    H232633   3.968   6.311   2.238  1.4257 -1.6032  0.6083
 3692TIP3   OH232634   2.435   4.529   2.935 -0.0370 -0.1585  0.0201
 3692TIP3    H132635   2.493   4.545   3.009 -0.2346 -0.4119  0.2321
 3692TIP3    H232636   2.391   4.613   2.922 -0.2891 -0.2196  0.4464
 3693TIP3   OH232637   3.152   6.395   0.247 -0.0425  0.3503  0.1509
 3693TIP3    H132638   3.178   6.422   0.159 -2.2455  0.5235 -0.5085
 3693TIP3    H232639   3.192   6.309   0.259 -1.3499 -0.5848 -1.8446
 3694TIP3   OH232640   0.451   1.058   2.811  0.2317 -0.4625 -0.9269
 3694TIP3    H132641   0.527   1.065   2.870 -1.5362 -0.0737  1.4724
 3694TIP3    H232642   0.442   0.964   2.795 -0.7267 -0.9093  1.6725
 3695TIP3   OH232643   1.593   0.807   2.069 -0.0641  0.1588  0.1200
 3695TIP3    H132644   1.512   0.798   2.119 -1.1755  0.6563 -1.5029
 3695TIP3    H232645   1.568   0.858   1.992  1.5955 -0.4736 -0.8868
 3696TIP3   OH232646   4.642   1.685   2.166 -0.4165 -0.3554  0.1920
 3696TIP3    H132647   4.597   1.767   2.186  1.6523  1.1382 -0.9343
 3696TIP3    H232648   4.719   1.711   2.116  0.0624 -3.0508 -0.6402
 3697TIP3   OH232649   1.336   3.857   1.346 -0.5229 -0.3569  0.2339
 3697TIP3    H132650   1.425   3.871   1.380 -0.5684 -2.3988  1.3877
 3697TIP3    H232651   1.347   3.849   1.252  0.7022 -1.5194  0.4424
 3698TIP3   OH232652   2.728   0.228   3.030  0.1273 -0.2878  0.2242
 3698TIP3    H132653   2.640   0.208   3.000 -0.5198  1.6260  0.7075
 3698TIP3    H232654   2.782   0.224   2.951 -0.6197 -0.2625 -0.2973
 3699TIP3   OH232655   2.962   2.687   1.922  0.0425  0.8838 -0.4212
 3699TIP3    H132656   2.943   2.732   1.840  0.2924 -2.0981 -2.2406
 3699TIP3    H232657   3.057   2.695   1.932  0.0937  0.7419 -0.7672
 3700TIP3   OH232658   5.402   4.869   4.251 -0.7578  0.8984 -0.1466
 3700TIP3    H132659   5.465   4.942   4.253  3.2204 -2.1115 -1.4309
 3700TIP3    H232660   5.369   4.869   4.161 -0.2521  0.7882 -0.3400
 3701TIP3   OH232661   0.391   3.299   1.896  0.3627  0.1128 -0.1072
 3701TIP3    H132662   0.433   3.326   1.977  2.2910 -1.0311 -0.6702
 3701TIP3    H232663   0.360   3.381   1.857 -1.7949  0.6072  2.3071
 3702TIP3   OH232664   1.061   1.328   1.304 -0.4416 -0.4307  0.3818
 3702TIP3    H132665   1.030   1.245   1.268 -1.7278 -0.1151  0.7137
 3702TIP3    H232666   1.114   1.366   1.233 -0.6800 -1.0633 -0.1504
 3703TIP3   OH232667   2.706   1.257   3.677 -0.1254  0.0245  0.0867
 3703TIP3    H132668   2.740   1.249   3.588 -0.6337  1.6989 -0.2993
 3703TIP3    H232669   2.782   1.247   3.734  0.4140  0.1603 -0.6074
 3704TIP3   OH232670   5.934   5.157   3.150 -0.3045  0.0421 -0.0038
 3704TIP3    H132671   5.880   5.237   3.150 -1.2313 -0.5630 -0.6238
 3704TIP3    H232672   6.024   5.189   3.147 -0.5275  1.1137  2.5282
 3705TIP3   OH232673   6.452   2.246   1.549 -0.1285  0.1968 -0.2567
 3705TIP3    H132674   6.360   2.243   1.576 -0.2564  2.3232 -0.3196
 3705TIP3    H232675   6.498   2.280   1.626  0.3667  0.6091 -0.7239
 3706TIP3   OH232676   4.727   0.906   1.586 -0.7611 -0.1524 -0.3229
 3706TIP3    H132677   4.768   0.868   1.509  0.0942 -0.3135  0.1999
 3706TIP3    H232678   4.752   0.848   1.658  0.6205  1.3863  0.4967
 3707TIP3   OH232679   2.702   2.774   3.289 -0.2063 -0.3187  0.1998
 3707TIP3    H132680   2.703   2.755   3.382 -0.0859  0.3526  0.3369
 3707TIP3    H232681   2.790   2.753   3.259  0.1503  0.7182  0.4958
 3708TIP3   OH232682   4.190   2.102   1.705 -0.0687 -0.4260  0.3562
 3708TIP3    H132683   4.227   2.062   1.626  0.0958  1.1838 -0.4255
 3708TIP3    H232684   4.109   2.143   1.676  0.9800  1.9359  0.5043
 3709TIP3   OH232685   1.017   4.155   0.935  0.5161  0.0074  0.2132
 3709TIP3    H132686   0.929   4.188   0.950  0.3710 -0.3118  0.0881
 3709TIP3    H232687   1.028   4.085   0.999  1.0857  0.7587  0.9569
 3710TIP3   OH232688   1.214   5.237   3.495 -0.4887 -0.0666  0.5503
 3710TIP3    H132689   1.184   5.226   3.405  0.3156  1.5289  0.0471
 3710TIP3    H232690   1.291   5.180   3.502 -0.4172 -0.0200  0.1500
 3711TIP3   OH232691   0.028   6.270   3.973  0.6121  0.0299  0.2398
 3711TIP3    H132692  -0.014   6.354   3.993 -1.4515 -1.2816  1.6507
 3711TIP3    H232693   0.082   6.252   4.050  0.0928 -0.5103  0.4801
 3712TIP3   OH232694   4.480   0.230   0.893 -0.3056 -0.1790  0.8194
 3712TIP3    H132695   4.422   0.304   0.912 -1.5104 -1.0601  0.6231
 3712TIP3    H232696   4.465   0.211   0.801  0.7752 -0.0163  0.6009
 3713TIP3   OH232697   1.840   3.468   2.606  0.0228  0.0533 -0.0993
 3713TIP3    H132698   1.754   3.429   2.617 -0.8766  1.7843 -0.6955
 3713TIP3    H232699   1.842   3.497   2.515  0.8530  0.9065  0.1728
 3714TIP3   OH232700   6.017   5.057   0.620  0.0049 -0.4107  0.1926
 3714TIP3    H132701   6.004   4.981   0.563  1.5552 -0.9624  0.5285
 3714TIP3    H232702   5.958   5.041   0.694  0.0667 -1.1258  0.0993
 3715TIP3   OH232703   3.090   6.189   1.991 -0.5762 -0.0435  0.1412
 3715TIP3    H132704   3.105   6.151   1.904 -0.1071  0.0313  0.1845
 3715TIP3    H232705   3.167   6.162   2.042 -1.2815 -0.8726  0.8004
 3716TIP3   OH232706   0.449   1.965   1.870 -0.2234 -0.9799 -0.3230
 3716TIP3    H132707   0.402   1.974   1.787 -0.5163  1.1634  0.0138
 3716TIP3    H232708   0.456   2.054   1.903  1.5489 -1.5795  1.0695
 3717TIP3   OH232709   1.187   2.360   3.463  0.1625 -0.7946 -0.4321
 3717TIP3    H132710   1.279   2.334   3.456  0.5823  0.3568  0.5341
 3717TIP3    H232711   1.169   2.409   3.383  1.1649  1.2039  0.5196
 3718TIP3   OH232712   6.064   4.728   2.880  0.2401 -0.0751  0.1837
 3718TIP3    H132713   6.034   4.786   2.951 -0.5495 -0.6550  0.3332
 3718TIP3    H232714   6.151   4.700   2.907  0.0361 -0.1094  0.8177
 3719TIP3   OH232715   1.819   5.563   2.830  0.1708 -0.1443  0.2533
 3719TIP3    H132716   1.833   5.598   2.918 -0.4882 -0.0929  0.3436
 3719TIP3    H232717   1.905   5.529   2.804  0.7909  1.3764  0.2248
 3720TIP3   OH232718   0.493   6.610   3.639  0.2093 -0.4680 -0.2516
 3720TIP3    H132719   0.497   6.681   3.575  0.4151 -0.0840  0.1826
 3720TIP3    H232720   0.521   6.650   3.721  1.0927 -1.2446 -0.1601
 3721TIP3   OH232721   3.314   4.059   1.762  0.2459 -0.4790 -0.5289
 3721TIP3    H132722   3.350   3.974   1.787 -1.0623 -0.4109  1.7601
 3721TIP3    H232723   3.236   4.037   1.710  0.2788 -0.6671 -0.5015
 3722TIP3   OH232724   0.028   0.471   1.600  0.4957 -0.1797 -0.2559
 3722TIP3    H132725   0.062   0.531   1.667 -0.5925 -0.9633  1.0446
 3722TIP3    H232726  -0.060   0.504   1.581  0.6582 -0.1835 -1.0433
 3723TIP3   OH232727   4.408   5.927   1.370  0.1310  0.5078 -0.3716
 3723TIP3    H132728   4.479   5.863   1.373  0.3159  0.7016 -0.5989
 3723TIP3    H232729   4.331   5.879   1.399  0.5917  0.6015  1.1333
 3724TIP3   OH232730   2.329   2.636   2.294 -0.3086 -0.1150  0.0380
 3724TIP3    H132731   2.324   2.628   2.199  0.0176 -0.3606  0.0393
 3724TIP3    H232732   2.332   2.730   2.310 -0.1112 -0.0781 -0.2100
 3725TIP3   OH232733   3.811   3.237   1.359  0.3520  0.2552 -0.6128
 3725TIP3    H132734   3.798   3.297   1.433 -0.6904  0.6190 -1.0737
 3725TIP3    H232735   3.888   3.272   1.315 -0.5827  1.6584 -1.2201
 3726TIP3   OH232736   5.846   1.923   2.640  0.2794  0.0737  0.2853
 3726TIP3    H132737   5.779   1.884   2.695 -0.2895  0.1445 -0.3513
 3726TIP3    H232738   5.854   1.865   2.565 -1.1559  1.5431 -1.0841
 3727TIP3   OH232739   4.867   5.579   0.762 -0.0767  0.5270 -0.3694
 3727TIP3    H132740   4.944   5.634   0.776  0.7392  0.0808 -2.6765
 3727TIP3    H232741   4.840   5.553   0.850  2.5012  0.5851  0.5446
 3728TIP3   OH232742   2.724   3.580   2.669  0.2663 -0.0170 -0.4572
 3728TIP3    H132743   2.752   3.511   2.608  0.6789 -0.1750 -0.0923
 3728TIP3    H232744   2.783   3.654   2.650  0.5513 -0.1481 -0.0907
 3729TIP3   OH232745   4.371   2.613   0.529  0.0097 -0.6471  0.9422
 3729TIP3    H132746   4.302   2.583   0.471 -0.5921  2.1770  0.0447
 3729TIP3    H232747   4.452   2.585   0.487 -0.4803 -0.1127 -0.4059
 3730TIP3   OH232748   1.645   0.075   0.854 -0.7442  0.3515  0.0284
 3730TIP3    H132749   1.575   0.140   0.864  0.5964  1.9209 -0.2704
 3730TIP3    H232750   1.695   0.081   0.936  0.4049  1.0021 -0.6915
 3731TIP3   OH232751   2.943   0.186   0.111 -0.0132 -0.2203  0.4309
 3731TIP3    H132752   2.959   0.092   0.110 -2.2597 -0.6765 -1.2564
 3731TIP3    H232753   2.956   0.214   0.021 -0.9324  0.7572  0.5763
 3732TIP3   OH232754   5.804   6.591   8.467  0.3299 -0.3679 -0.3174
 3732TIP3    H132755   5.793   6.679   8.430  0.5993  0.6491  1.8647
 3732TIP3    H232756   5.716   6.564   8.493  0.5892  0.6728  1.8952
 3733TIP3   OH232757   3.487   0.981   0.966  0.9306 -0.3181 -0.0619
 3733TIP3    H132758   3.515   0.933   1.044 -1.6326  0.7231  1.6205
 3733TIP3    H232759   3.506   1.072   0.987 -0.9900  0.1140 -0.0137
 3734TIP3   OH232760   4.907   1.155   1.706 -0.0914  0.1456 -0.4409
 3734TIP3    H132761   4.855   1.076   1.696 -0.3224  0.2649 -0.2018
 3734TIP3    H232762   4.944   1.171   1.619  0.3383 -0.4855 -0.3744
 3735TIP3   OH232763   2.778   1.319   0.723  0.1292  0.3358  0.3415
 3735TIP3    H132764   2.685   1.306   0.741 -0.0566 -0.2074 -0.9581
 3735TIP3    H232765   2.804   1.243   0.672  1.4339  0.2150  1.1392
 3736TIP3   OH232766   4.200   6.590   1.915  0.1407  0.3660 -0.1854
 3736TIP3    H132767   4.282   6.548   1.941 -0.6892 -0.3663  1.3998
 3736TIP3    H232768   4.226   6.678   1.887  1.1291  1.7907  4.3406
 3737TIP3   OH232769   4.694   0.839   2.866 -0.1185 -0.4022  0.3229
 3737TIP3    H132770   4.643   0.917   2.889 -0.3739 -0.8230  1.2307
 3737TIP3    H232771   4.785   0.864   2.883 -0.1906 -0.2703  0.5184
 3738TIP3   OH232772   4.288   3.657   1.635  0.2312 -0.1041 -0.3511
 3738TIP3    H132773   4.276   3.739   1.683 -2.7982  0.5749 -2.0036
 3738TIP3    H232774   4.339   3.682   1.558  2.4027 -0.5806  0.8534
 3739TIP3   OH232775   5.286   2.529   4.777 -0.5264  0.3743 -0.4345
 3739TIP3    H132776   5.371   2.550   4.739  0.3886 -2.2536 -0.0441
 3739TIP3    H232777   5.254   2.455   4.724 -0.6817 -1.2817  1.8406
 3740TIP3   OH232778   3.209   4.880   2.036 -0.4748  0.1906  0.5366
 3740TIP3    H132779   3.276   4.948   2.031 -0.8874  0.5486 -0.2680
 3740TIP3    H232780   3.224   4.838   2.121  1.0658 -0.0651  0.1675
 3741TIP3   OH232781   2.775   2.719   2.490  0.3670 -0.6817 -0.1845
 3741TIP3    H132782   2.812   2.797   2.532  0.0459 -1.3428  1.3815
 3741TIP3    H232783   2.806   2.646   2.543 -0.4309 -1.5137 -0.8373
 3742TIP3   OH232784   1.125   5.453   4.465 -0.4908 -0.0888 -0.0518
 3742TIP3    H132785   1.073   5.386   4.510  0.6731 -0.5515  0.6513
 3742TIP3    H232786   1.180   5.403   4.405  0.0508  0.2775  0.1340
 3743TIP3   OH232787   0.935   1.740   3.764 -0.5734  0.9889  0.1051
 3743TIP3    H132788   0.897   1.653   3.755  0.5298  0.5658 -0.6572
 3743TIP3    H232789   0.860   1.799   3.764 -1.7411 -0.0960  4.2201
 3744TIP3   OH232790   5.824   6.826   3.028  0.5508 -0.5194  0.0821
 3744TIP3    H132791   5.907   6.786   3.054  0.9385  0.8407  1.0548
 3744TIP3    H232792   5.818   6.905   3.082 -0.4635  0.4135 -1.3358
 3745TIP3   OH232793   0.571   0.435   1.029 -0.1697 -0.3001  0.1483
 3745TIP3    H132794   0.570   0.346   1.065  0.5805 -0.8707 -1.1479
 3745TIP3    H232795   0.499   0.436   0.966 -0.1383 -0.0192  0.1163
 3746TIP3   OH232796   3.259   2.244   1.876 -0.3396  0.0976 -0.5286
 3746TIP3    H132797   3.312   2.294   1.939  0.3219  0.3855 -1.2938
 3746TIP3    H232798   3.225   2.310   1.816 -1.1818 -0.1465 -0.3211
 3747TIP3   OH232799   2.758   4.661   2.247  0.0593 -0.5827  0.2871
 3747TIP3    H132800   2.721   4.603   2.314 -0.2535 -1.9385 -1.0071
 3747TIP3    H232801   2.783   4.740   2.295  0.6829 -1.8484  2.1643
 3748TIP3   OH232802   2.278   2.357   3.767 -0.3174 -0.3595  0.6342
 3748TIP3    H132803   2.183   2.345   3.777 -0.4337 -1.1113 -1.0648
 3748TIP3    H232804   2.314   2.269   3.774  0.1163 -0.2356  0.0331
 3749TIP3   OH232805   0.460   1.822   0.189  0.4040  0.5668  0.2826
 3749TIP3    H132806   0.418   1.888   0.134  0.1179 -2.4321 -3.5082
 3749TIP3    H232807   0.550   1.854   0.199  0.1949  1.7015 -1.1318
 3750TIP3   OH232808   2.697   4.396   3.429  0.0767 -0.0809 -0.0890
 3750TIP3    H132809   2.744   4.360   3.354 -0.9965 -0.5030 -0.5812
 3750TIP3    H232810   2.610   4.355   3.425  0.1686 -0.5584  1.7036
 3751TIP3   OH232811   3.753   0.204   1.219  0.7475 -0.3250 -0.1225
 3751TIP3    H132812   3.848   0.214   1.215  0.9486 -2.2231 -2.4049
 3751TIP3    H232813   3.739   0.119   1.261  0.0957 -0.2855 -0.2501
 3752TIP3   OH232814   3.168   6.161   2.673 -0.5445 -0.1135  0.1611
 3752TIP3    H132815   3.162   6.253   2.648 -2.0719 -0.3129 -0.2935
 3752TIP3    H232816   3.166   6.162   2.769  0.8031  0.3852  0.2039
 3753TIP3   OH232817   6.782   4.970   3.473 -0.0920  0.3082  0.2732
 3753TIP3    H132818   6.842   4.908   3.516  1.0844 -0.0586 -1.7740
 3753TIP3    H232819   6.729   4.916   3.415 -1.1440  0.8879  0.6570
 3754TIP3   OH232820   6.376   0.168   0.898  0.2360 -0.3144 -0.1724
 3754TIP3    H132821   6.387   0.106   0.826  1.3552 -0.3579  0.0236
 3754TIP3    H232822   6.281   0.181   0.905  0.0909 -0.7474 -1.2754
 3755TIP3   OH232823   2.317   3.793   0.616 -0.1137  0.2241  0.3166
 3755TIP3    H132824   2.330   3.749   0.701 -0.6402  2.6766  1.7555
 3755TIP3    H232825   2.222   3.793   0.604 -0.1158  0.8368  0.2938
 3756TIP3   OH232826   5.478   2.639   4.585  0.0974  0.1303  0.2488
 3756TIP3    H132827   5.510   2.612   4.499 -0.3993 -1.7999  0.6109
 3756TIP3    H232828   5.548   2.615   4.646  0.1737  0.8783  0.4624
 3757TIP3   OH232829   3.144   5.062   3.990 -0.3839 -0.1375 -0.3740
 3757TIP3    H132830   3.186   5.051   4.075  0.5208  0.7654 -0.6827
 3757TIP3    H232831   3.101   4.978   3.973  0.5380 -0.7757  0.3726
 3758TIP3   OH232832   2.272   3.388   1.868 -0.2676 -0.5894 -0.3766
 3758TIP3    H132833   2.178   3.398   1.854 -0.6946 -0.1285  2.2736
 3758TIP3    H232834   2.286   3.421   1.957  2.1180 -2.2649 -0.0517
 3759TIP3   OH232835   5.131   4.485   2.340 -0.0988 -0.3420 -0.1660
 3759TIP3    H132836   5.075   4.407   2.336 -1.8812  0.9433 -2.6932
 3759TIP3    H232837   5.121   4.516   2.430 -0.7667 -2.0164  0.3798
 3760TIP3   OH232838   5.782   6.251   2.628  0.0003 -0.5430  0.0618
 3760TIP3    H132839   5.774   6.329   2.683 -0.9012 -0.2470 -0.4519
 3760TIP3    H232840   5.872   6.222   2.639 -0.1173 -0.3974  1.5546
 3761TIP3   OH232841   5.522   1.738   2.198  0.2365  0.0116  0.8301
 3761TIP3    H132842   5.553   1.825   2.223  0.2043 -0.0489  1.0751
 3761TIP3    H232843   5.464   1.754   2.123  2.1099 -0.0002 -0.6979
 3762TIP3   OH232844   5.154   2.612   1.889  0.0388 -0.3613  0.3208
 3762TIP3    H132845   5.072   2.606   1.838  0.7935 -1.2981 -0.8350
 3762TIP3    H232846   5.154   2.534   1.944  0.7077 -1.0088 -0.5700
 3763TIP3   OH232847   2.429   0.668   4.344 -0.3212  0.3383  0.1119
 3763TIP3    H132848   2.336   0.650   4.331 -0.7858  1.4968  1.4483
 3763TIP3    H232849   2.461   0.595   4.397 -0.0607 -0.8535 -1.6123
 3764TIP3   OH232850   3.232   2.166   1.548 -0.1872  0.1413 -0.4358
 3764TIP3    H132851   3.322   2.195   1.533 -0.3619 -0.6432 -3.5394
 3764TIP3    H232852   3.192   2.239   1.596  1.8146  0.9017  0.2002
 3765TIP3   OH232853   4.642   0.374   3.162  0.8562  0.3929 -0.3297
 3765TIP3    H132854   4.611   0.292   3.125  0.7819  0.1852  0.1871
 3765TIP3    H232855   4.737   0.369   3.157  0.8771 -0.0265  0.3231
 3766TIP3   OH232856   6.129   4.906   2.290  0.0764  0.5228  0.1432
 3766TIP3    H132857   6.200   4.844   2.309  0.8399  0.6152 -2.1180
 3766TIP3    H232858   6.053   4.851   2.271 -0.3771  0.4150  2.0771
 3767TIP3   OH232859   1.242   1.848   4.068  0.4963  0.0397  0.1663
 3767TIP3    H132860   1.304   1.919   4.053  0.4537  0.2856  1.0971
 3767TIP3    H232861   1.248   1.794   3.989  0.4625  1.1185 -0.5919
 3768TIP3   OH232862   0.041   5.180   2.422  0.6504  0.0838 -0.5348
 3768TIP3    H132863   0.002   5.214   2.502  1.8006 -1.2568  0.6602
 3768TIP3    H232864   0.043   5.254   2.362 -2.0018  0.6448 -0.0389
 3769TIP3   OH232865   0.140   0.805   2.179  0.0843  0.7282 -0.2406
 3769TIP3    H132866   0.123   0.828   2.270 -0.6706  2.2492 -0.7283
 3769TIP3    H232867   0.054   0.809   2.137  0.6192  1.4239 -1.3019
 3770TIP3   OH232868   2.898   0.770   2.684  0.4640 -0.6762 -0.3236
 3770TIP3    H132869   2.918   0.679   2.662  0.5345 -0.5077 -0.9672
 3770TIP3    H232870   2.970   0.796   2.743  0.0997 -1.2226  0.3851
 3771TIP3   OH232871   3.888   5.381   4.050  0.2430  0.3696  0.3637
 3771TIP3    H132872   3.881   5.326   3.972 -0.8992 -0.7424  1.2012
 3771TIP3    H232873   3.830   5.339   4.114 -1.4388  3.0950  0.7597
 3772TIP3   OH232874   0.607   1.392   4.401 -0.2353  0.5779 -0.9113
 3772TIP3    H132875   0.514   1.386   4.378 -1.9465  3.6288  3.6740
 3772TIP3    H232876   0.622   1.320   4.461  0.6811 -0.3369 -2.1858
 3773TIP3   OH232877   5.346   6.174   1.497 -0.2154 -0.4713 -0.6505
 3773TIP3    H132878   5.278   6.229   1.537  0.7693  0.7421 -0.6024
 3773TIP3    H232879   5.402   6.149   1.570 -0.5524 -1.4165 -0.7015
 3774TIP3   OH232880   5.715   2.546   4.725  0.1377  0.1082  0.2820
 3774TIP3    H132881   5.722   2.491   4.802 -0.8211 -1.9578 -1.0073
 3774TIP3    H232882   5.805   2.559   4.696  0.5051  0.9332  1.7234
 3775TIP3   OH232883   3.136   0.104   3.123 -0.5835  0.2903  0.0702
 3775TIP3    H132884   3.149   0.096   3.217  0.4444  0.2147 -0.0618
 3775TIP3    H232885   3.043   0.088   3.109 -0.5511 -0.7442  0.9610
 3776TIP3   OH232886   6.816   2.249   1.835  0.4493  0.8557 -0.2709
 3776TIP3    H132887   6.779   2.161   1.832  1.3589  0.4098  0.8033
 3776TIP3    H232888   6.755   2.299   1.889 -0.8046  1.2947 -2.0000
 3777TIP3   OH232889   3.413   3.533   3.416 -0.5210  0.2235  0.6363
 3777TIP3    H132890   3.375   3.465   3.471 -0.2113 -0.8110 -0.3902
 3777TIP3    H232891   3.502   3.502   3.398 -0.7950  0.2306 -0.8903
 3778TIP3   OH232892   3.186   4.256   3.122 -0.5999  0.7433 -0.2084
 3778TIP3    H132893   3.102   4.212   3.134  0.0213 -0.0418  1.7238
 3778TIP3    H232894   3.186   4.327   3.187  0.3672  0.4551  0.1341
 3779TIP3   OH232895   1.172   3.799   4.387 -0.7660 -0.3863 -0.1844
 3779TIP3    H132896   1.230   3.830   4.457  4.9141 -1.0541 -3.9979
 3779TIP3    H232897   1.194   3.706   4.377 -1.9703 -0.4947 -2.3485
 3780TIP3   OH232898   2.916   1.933   0.074 -0.4684  0.1645  0.0390
 3780TIP3    H132899   2.970   1.945   0.152  1.0849  0.5310 -1.0495
 3780TIP3    H232900   2.959   1.864   0.024 -1.5957 -0.2615 -0.3966
 3781TIP3   OH232901   3.811   4.401   0.217  0.7556  0.0782  0.4729
 3781TIP3    H132902   3.794   4.491   0.188 -0.8265 -0.7815 -1.5183
 3781TIP3    H232903   3.887   4.374   0.166  1.4222  0.3727  1.3007
 3782TIP3   OH232904   4.222   0.876   3.403  0.5719 -0.2183  0.2317
 3782TIP3    H132905   4.180   0.792   3.385  2.1263 -0.9008 -0.3565
 3782TIP3    H232906   4.219   0.885   3.499 -0.7180 -0.3213  0.2159
 3783TIP3   OH232907   3.626   4.679   2.722  0.3420 -0.4577 -0.0871
 3783TIP3    H132908   3.578   4.646   2.647  0.4131  2.6262 -1.6512
 3783TIP3    H232909   3.569   4.746   2.760  1.7076  0.4240  0.4991
 3784TIP3   OH232910   3.551   2.448   3.052  0.0804 -0.4742  0.0559
 3784TIP3    H132911   3.481   2.499   3.093 -0.7513 -2.0102  0.6166
 3784TIP3    H232912   3.513   2.414   2.972  0.9365  0.4973 -0.8051
 3785TIP3   OH232913   5.834   4.940   3.441 -0.2549  0.6114  0.0720
 3785TIP3    H132914   5.915   4.899   3.471 -1.6321 -1.5293  1.1251
 3785TIP3    H232915   5.828   4.917   3.348 -0.7938 -1.3648  0.5501
 3786TIP3   OH232916   6.652   6.406   3.520  0.3732 -0.1321 -0.0871
 3786TIP3    H132917   6.625   6.384   3.610  0.9024  0.2502  0.1702
 3786TIP3    H232918   6.737   6.449   3.530  0.5728 -0.3459 -0.8020
 3787TIP3   OH232919   0.401   1.022   0.514 -0.6539  0.3616 -0.0032
 3787TIP3    H132920   0.367   1.069   0.438 -0.2300 -0.1356 -0.5112
 3787TIP3    H232921   0.496   1.035   0.509 -0.6706  0.9349  0.8586
 3788TIP3   OH232922   1.349   3.683   3.227 -0.4956 -0.1118 -0.3249
 3788TIP3    H132923   1.303   3.763   3.202 -1.7401  0.0106  2.0452
 3788TIP3    H232924   1.392   3.705   3.310  1.4196 -1.1223 -1.0073
 3789TIP3   OH232925   3.311   1.144   2.529 -0.0134 -0.0023  0.0153
 3789TIP3    H132926   3.229   1.103   2.557  0.5225 -1.6150 -0.7050
 3789TIP3    H232927   3.374   1.073   2.526  1.6405  1.3467  1.2587
 3790TIP3   OH232928   6.398   5.882   2.656  0.3102  0.8134  0.2711
 3790TIP3    H132929   6.471   5.899   2.715 -0.1644  1.0422  0.8005
 3790TIP3    H232930   6.320   5.884   2.712 -0.0406 -0.1738 -0.1436
 3791TIP3   OH232931   0.501   4.565   3.423  0.0644 -0.2197  0.1796
 3791TIP3    H132932   0.447   4.533   3.495  0.3032  0.2402  0.5700
 3791TIP3    H232933   0.516   4.657   3.443 -0.4112  0.0867 -0.8042
 3792TIP3   OH232934   2.135   2.463   1.345 -0.1149  0.3507  0.2845
 3792TIP3    H132935   2.149   2.551   1.309 -1.4493  0.8143  0.8334
 3792TIP3    H232936   2.159   2.471   1.437 -0.4787  0.1956  0.3912
 3793TIP3   OH232937   4.324   2.106   0.897  0.3771  0.3888  0.1748
 3793TIP3    H132938   4.419   2.108   0.912  0.4305 -0.8654  0.1359
 3793TIP3    H232939   4.302   2.194   0.868  1.6801  0.4667 -0.6588
 3794TIP3   OH232940   6.269   5.589   0.641  0.3663 -0.1160  0.2964
 3794TIP3    H132941   6.315   5.672   0.637 -0.8211  0.5484  0.1361
 3794TIP3    H232942   6.246   5.578   0.734 -1.3317  0.7918  0.0108
 3795TIP3   OH232943   3.598   4.673   1.690 -0.1263 -0.0854  0.3263
 3795TIP3    H132944   3.529   4.694   1.753 -0.3016 -0.1135  0.1463
 3795TIP3    H232945   3.679   4.699   1.733 -0.1132 -1.3596  1.1258
 3796TIP3   OH232946   5.193   6.352   1.645 -0.0004  0.2241 -0.0980
 3796TIP3    H132947   5.226   6.404   1.718 -1.0636  0.8337 -0.0320
 3796TIP3    H232948   5.129   6.292   1.684  0.5533 -0.5215 -0.3116
 3797TIP3   OH232949   2.053   3.374   4.532 -0.4067  0.1702  0.1387
 3797TIP3    H132950   2.110   3.371   4.455  0.1755 -1.7915  0.5999
 3797TIP3    H232951   2.113   3.381   4.606 -0.8084 -0.6097  0.5524
 3798TIP3   OH232952   3.191   0.381   3.112  0.2003 -0.3415 -0.0241
 3798TIP3    H132953   3.266   0.374   3.170  0.1250 -0.8611  0.0148
 3798TIP3    H232954   3.181   0.293   3.074 -0.8896 -0.5083  0.6057
 3799TIP3   OH232955   1.531   6.781   1.946 -0.1391  0.0378 -0.1820
 3799TIP3    H132956   1.516   6.780   2.040  1.4015 -2.3154  0.1332
 3799TIP3    H232957   1.623   6.808   1.937 -0.2310  0.1143 -1.0010
 3800TIP3   OH232958   0.098   6.469   4.468 -0.0694  0.0713  0.4027
 3800TIP3    H132959   0.178   6.427   4.497 -0.9717 -2.5739 -0.5989
 3800TIP3    H232960   0.065   6.516   4.545  0.5448 -1.8865  1.9345
 3801TIP3   OH232961   2.270   4.145   1.050  0.3229  0.3605 -0.1655
 3801TIP3    H132962   2.266   4.176   0.959 -0.2167  1.8075  0.3173
 3801TIP3    H232963   2.199   4.193   1.094  0.7964 -0.0676  1.0880
 3802TIP3   OH232964   6.811   0.660   2.354 -0.3109  0.1956  0.0113
 3802TIP3    H132965   6.742   0.634   2.415  0.9456  0.2847  1.5507
 3802TIP3    H232966   6.798   0.754   2.342 -1.0652  0.0280 -0.5342
 3803TIP3   OH232967   6.276   3.720   1.133  0.4007 -0.3178  0.2032
 3803TIP3    H132968   6.357   3.718   1.081 -0.2130  3.8087 -1.3282
 3803TIP3    H232969   6.207   3.703   1.070 -0.0901 -1.2502  0.9745
 3804TIP3   OH232970   4.642   4.088   8.097 -0.1362  0.4642  0.6295
 3804TIP3    H132971   4.640   4.170   8.146 -0.3970  1.1723 -0.5140
 3804TIP3    H232972   4.732   4.080   8.067 -0.2661  0.7009  0.1637
 3805TIP3   OH232973   6.800   2.863   0.669  0.3149 -0.4618 -0.6257
 3805TIP3    H132974   6.744   2.787   0.662 -0.4962 -0.0403  0.9472
 3805TIP3    H232975   6.786   2.911   0.587 -2.1820 -0.0244 -0.0255
 3806TIP3   OH232976   5.280   4.855   1.582 -0.1985 -0.0369 -0.3050
 3806TIP3    H132977   5.293   4.876   1.490  0.8662  1.7706  0.2128
 3806TIP3    H232978   5.334   4.777   1.597 -0.3247 -0.2948 -1.1870
 3807TIP3   OH232979   6.016   1.158   2.604  0.1781  0.3520  0.1519
 3807TIP3    H132980   6.108   1.162   2.579  0.2525  0.3587  0.4147
 3807TIP3    H232981   5.988   1.071   2.577  0.3149  0.2797  0.2371
 3808TIP3   OH232982   6.773   4.161   3.724 -0.0533  0.2542 -0.6299
 3808TIP3    H132983   6.737   4.192   3.807 -1.2159 -0.0316 -1.0033
 3808TIP3    H232984   6.800   4.071   3.741 -0.9057 -0.0308 -0.7091
 3809TIP3   OH232985   6.416   5.125   4.659  0.3459 -0.1478 -0.4848
 3809TIP3    H132986   6.376   5.171   4.733 -2.0290 -0.5462 -1.4447
 3809TIP3    H232987   6.490   5.180   4.634  0.4449  0.6352  1.3641
 3810TIP3   OH232988   4.194   5.168   2.079 -0.8878  0.6131 -0.0815
 3810TIP3    H132989   4.179   5.146   1.987  1.3475  1.3094 -0.6627
 3810TIP3    H232990   4.215   5.084   2.121  1.2347  0.6719 -0.9268
 3811TIP3   OH232991   2.732   2.758   0.378 -0.4264  0.4226 -0.1103
 3811TIP3    H132992   2.696   2.756   0.289 -2.1712 -1.0404  0.5541
 3811TIP3    H232993   2.815   2.805   0.369 -0.6524  0.5230 -2.4558
 3812TIP3   OH232994   3.934   2.549   3.921  0.2488 -0.3150  0.0852
 3812TIP3    H132995   3.857   2.511   3.965  0.8706 -1.4512  0.2442
 3812TIP3    H232996   3.911   2.547   3.828  0.5926 -1.9448  0.0009
 3813TIP3   OH232997   1.190   4.228   1.370  0.6378 -0.7252 -0.1473
 3813TIP3    H132998   1.181   4.230   1.275 -0.9289 -0.2262 -0.0281
 3813TIP3    H232999   1.245   4.303   1.391  1.0569 -0.8863 -0.6686
 3814TIP3   OH233000   0.368   2.314   3.847 -0.0221 -0.2505 -0.2815
 3814TIP3    H133001   0.417   2.288   3.925 -1.4903  1.4821  1.3166
 3814TIP3    H233002   0.421   2.383   3.807  0.2307 -0.4178 -0.2388
 3815TIP3   OH233003   1.448   6.782   0.939  0.0790 -0.1056 -0.5999
 3815TIP3    H133004   1.526   6.831   0.912  0.1441 -0.7466 -1.5993
 3815TIP3    H233005   1.454   6.699   0.892 -1.2593 -0.1222 -0.7716
 3816TIP3   OH233006   1.513   6.115   3.645  0.1361 -0.0151 -0.0356
 3816TIP3    H133007   1.442   6.063   3.607 -1.2463  1.6544  0.1439
 3816TIP3    H233008   1.580   6.051   3.669 -1.0300 -1.5765 -0.8002
 3817TIP3   OH233009   4.776   2.380   4.099 -0.1179 -0.2916 -0.2140
 3817TIP3    H133010   4.822   2.317   4.154 -1.2954  0.0573  1.2480
 3817TIP3    H233011   4.844   2.418   4.044  1.0332 -1.0156  0.6576
 3818TIP3   OH233012   5.583   1.305   3.650  0.2612 -0.1373 -0.3176
 3818TIP3    H133013   5.604   1.230   3.706  2.8722  0.6555 -0.1240
 3818TIP3    H233014   5.501   1.280   3.607 -1.2630 -1.2717  2.9111
 3819TIP3   OH233015   5.444   1.811   4.438 -0.3556  0.2912  0.3375
 3819TIP3    H133016   5.465   1.900   4.465  1.0334 -0.4036  1.6189
 3819TIP3    H233017   5.487   1.755   4.502 -1.1926 -1.3181 -0.4535
 3820TIP3   OH233018   3.711   4.786   0.759 -0.9518  0.0162  0.2259
 3820TIP3    H133019   3.686   4.695   0.772 -0.8267  0.2166  2.1005
 3820TIP3    H233020   3.676   4.808   0.672  1.1252 -2.4816 -1.3759
 3821TIP3   OH233021   5.230   4.146   4.272 -0.7073  0.6034 -0.0193
 3821TIP3    H133022   5.279   4.081   4.324  0.9481  0.9730 -1.0638
 3821TIP3    H233023   5.295   4.213   4.249 -1.8390  1.4131 -0.9753
 3822TIP3   OH233024   2.564   3.233   0.607  0.4843 -0.2949 -0.0845
 3822TIP3    H133025   2.652   3.198   0.591 -0.7249 -3.0435 -1.4520
 3822TIP3    H233026   2.546   3.212   0.699  0.0442 -2.9009 -0.6982
 3823TIP3   OH233027   6.247   4.039   2.675  0.2477  0.4479  0.0536
 3823TIP3    H133028   6.330   4.027   2.629  0.5719 -0.7022  0.8817
 3823TIP3    H233029   6.253   3.981   2.751 -0.8831  1.1625  0.7201
 3824TIP3   OH233030   1.050   4.603   2.562 -0.2829  0.1692  0.7843
 3824TIP3    H133031   0.987   4.534   2.583  1.8505 -2.8098 -1.7892
 3824TIP3    H233032   1.008   4.652   2.491 -0.7984 -0.0545  0.9236
 3825TIP3   OH233033   1.916   0.399   8.427 -0.2394  0.1969 -0.3490
 3825TIP3    H133034   1.898   0.469   8.489 -0.0025  0.3368 -0.4366
 3825TIP3    H233035   2.003   0.367   8.452  0.6652  1.4573 -1.7224
 3826TIP3   OH233036   0.260   4.982   3.698  0.1847  0.1819 -0.0929
 3826TIP3    H133037   0.234   4.963   3.608  1.5865  0.1625 -0.5126
 3826TIP3    H233038   0.294   5.071   3.695  3.4140 -0.9235 -0.3668
 3827TIP3   OH233039   6.573   4.720   1.973 -0.2419  0.7006 -0.2657
 3827TIP3    H133040   6.658   4.705   2.014  1.2117  0.7113 -3.0175
 3827TIP3    H233041   6.541   4.801   2.013  1.1823  0.8656  0.6097
 3828TIP3   OH233042   4.909   2.446   0.795 -0.0798  0.1391  0.1334
 3828TIP3    H133043   4.881   2.537   0.783  0.5762  0.3617  0.3048
 3828TIP3    H233044   4.909   2.410   0.706  1.7099  0.9059 -0.2238
 3829TIP3   OH233045   6.458   5.093   0.229 -0.8125  0.2999  0.2821
 3829TIP3    H133046   6.391   5.102   0.297 -0.4157  0.9598  0.5935
 3829TIP3    H233047   6.537   5.066   0.276 -1.0535 -1.3531 -0.1907
 3830TIP3   OH233048   3.039   5.864   0.929  0.1051  0.4134  0.1667
 3830TIP3    H133049   2.995   5.844   1.012 -2.2953 -0.6881 -1.2726
 3830TIP3    H233050   3.072   5.780   0.898  0.0958  0.6343 -0.4538
 3831TIP3   OH233051   2.039   4.134   2.129  0.2024  0.1188 -0.1193
 3831TIP3    H133052   2.125   4.171   2.109  0.1333  0.3375 -0.0131
 3831TIP3    H233053   2.044   4.108   2.221  0.0441  0.4374 -0.0219
 3832TIP3   OH233054   4.254   0.463   1.285  0.1420  0.3738  0.2397
 3832TIP3    H133055   4.266   0.518   1.208 -0.5413  0.5951  0.2810
 3832TIP3    H233056   4.171   0.417   1.269 -0.8168  1.5682  1.5139
 3833TIP3   OH233057   2.290   4.866   2.227  0.0347  0.5270  0.1247
 3833TIP3    H133058   2.258   4.817   2.151  1.0102  0.3173 -0.1669
 3833TIP3    H233059   2.384   4.851   2.227 -0.0014  0.1126  1.6676
 3834TIP3   OH233060   3.652   2.791   1.756  0.6861  0.0112  0.0595
 3834TIP3    H133061   3.602   2.871   1.772 -2.1762 -1.5858 -0.3136
 3834TIP3    H233062   3.677   2.796   1.664 -1.4711 -0.4826 -0.6042
 3835TIP3   OH233063   1.908   4.315   1.334 -0.5919 -0.2774  0.2983
 3835TIP3    H133064   1.957   4.384   1.379  1.5047 -2.3821  1.4142
 3835TIP3    H233065   1.836   4.294   1.394 -1.0811  0.6860  0.0768
 3836TIP3   OH233066   6.777   2.724   1.012 -0.0530  0.6150  0.7305
 3836TIP3    H133067   6.777   2.628   1.009  0.0273  0.6013 -2.5440
 3836TIP3    H233068   6.862   2.746   1.051 -0.3099 -0.6000  2.0826
 3837TIP3   OH233069   5.241   4.885   0.412  0.1279 -0.3629 -0.0007
 3837TIP3    H133070   5.299   4.849   0.345 -0.3525 -1.1823  0.0012
 3837TIP3    H233071   5.153   4.876   0.374 -0.2635 -1.9181  1.1773
 3838TIP3   OH233072   2.099   3.535   2.713 -0.3133 -0.0261  0.1024
 3838TIP3    H133073   2.148   3.453   2.714  0.2624  0.1429 -3.0436
 3838TIP3    H233074   2.013   3.511   2.681  0.5640  0.7640 -3.1999
 3839TIP3   OH233075   5.543   0.447   0.740  0.5883 -0.0550  0.0072
 3839TIP3    H133076   5.461   0.485   0.772  0.1157  0.0055 -1.2116
 3839TIP3    H233077   5.521   0.356   0.720 -0.7208  1.0824 -5.1497
 3840TIP3   OH233078   5.958   6.080   1.224 -0.3194 -0.7082  0.5162
 3840TIP3    H133079   5.882   6.134   1.246 -1.3473 -2.0525  0.4061
 3840TIP3    H233080   6.033   6.137   1.241 -1.3449  0.8285  0.1447
 3841TIP3   OH233081   6.863   6.708   2.376  0.0069 -0.0816  0.4719
 3841TIP3    H133082   6.792   6.741   2.320 -0.1079 -2.1453 -0.7124
 3841TIP3    H233083   6.838   6.618   2.395  2.9024 -1.3350 -1.0834
 3842TIP3   OH233084   0.375   4.136   3.914  0.5261 -0.0187  0.0151
 3842TIP3    H133085   0.436   4.208   3.897  1.5890 -0.6188  1.1668
 3842TIP3    H233086   0.292   4.167   3.878  0.6390  2.3070  1.5128
 3843TIP3   OH233087   0.774   6.818   2.086  0.1113  0.3865  0.2396
 3843TIP3    H133088   0.764   6.878   2.159 -2.4626 -0.9965  1.1738
 3843TIP3    H233089   0.808   6.737   2.125  0.2182  0.1365 -0.3542
 3844TIP3   OH233090   2.899   2.476   1.496  0.0387  0.8322  0.3420
 3844TIP3    H133091   2.851   2.469   1.579  0.8799 -0.1738  0.7689
 3844TIP3    H233092   2.913   2.385   1.469 -0.6981  1.1442 -1.2053
 3845TIP3   OH233093   0.968   2.484   2.311 -0.0092  0.5634  0.4259
 3845TIP3    H133094   1.055   2.447   2.300 -0.4581 -0.5101  0.3232
 3845TIP3    H233095   0.959   2.546   2.238  0.0255 -0.6220 -0.6149
 3846TIP3   OH233096   2.185   4.235   3.968  0.0771  0.3350 -0.5485
 3846TIP3    H133097   2.142   4.154   3.997  0.4166  0.1488 -0.5658
 3846TIP3    H233098   2.194   4.287   4.048 -1.1121  0.8187 -0.7025
 3847TIP3   OH233099   3.764   6.238   2.820 -0.0058  0.3513 -0.3253
 3847TIP3    H133100   3.668   6.238   2.827 -0.1197  3.3049 -0.7028
 3847TIP3    H233101   3.781   6.249   2.727  0.7547 -1.1282 -0.3775
 3848TIP3   OH233102   3.421   5.457   0.879  0.0711 -0.1159 -0.3700
 3848TIP3    H133103   3.420   5.463   0.975  0.6062  0.6210 -0.4045
 3848TIP3    H233104   3.445   5.545   0.850 -1.3301  0.0068 -1.2229
 3849TIP3   OH233105   1.853   3.690   3.301 -0.1051 -0.3438  0.1770
 3849TIP3    H133106   1.922   3.747   3.267 -0.3738 -0.2976 -0.3170
 3849TIP3    H233107   1.846   3.712   3.393  0.3457 -0.1469  0.1644
 3850TIP3   OH233108   3.300   5.704   1.233  0.7967 -0.2464  0.4332
 3850TIP3    H133109   3.217   5.687   1.277  0.0528 -1.9345 -1.4524
 3850TIP3    H233110   3.361   5.726   1.303 -0.6239 -1.5390  2.1610
 3851TIP3   OH233111   6.424   1.168   3.095 -0.2957 -0.7033  0.0721
 3851TIP3    H133112   6.401   1.114   3.171  0.5055 -0.7957  0.2560
 3851TIP3    H233113   6.436   1.256   3.131  1.5974 -1.0400  0.3302
 3852TIP3   OH233114   0.483   3.685   1.696  0.5002  0.1251 -0.3650
 3852TIP3    H133115   0.554   3.713   1.638  0.1584  0.9281 -0.4026
 3852TIP3    H233116   0.403   3.713   1.651  0.1255 -1.1672 -0.5405
 3853TIP3   OH233117   3.915   1.496   1.701 -0.3087  0.4931  0.0410
 3853TIP3    H133118   3.890   1.431   1.636 -1.0149 -0.4163  1.1891
 3853TIP3    H233119   3.833   1.538   1.727  0.1416  1.9456 -0.7454
 3854TIP3   OH233120   2.685   1.051   0.425 -0.0289  0.4989 -0.4612
 3854TIP3    H133121   2.599   1.010   0.416 -0.9265  2.6136 -2.1536
 3854TIP3    H233122   2.747   0.981   0.402 -1.3403 -0.6489 -0.6282
 3855TIP3   OH233123   1.999   0.144   2.441  0.9342  0.3265  0.9720
 3855TIP3    H133124   2.079   0.159   2.389  1.7203 -0.6272  1.8520
 3855TIP3    H233125   1.928   0.161   2.380  1.7921  1.7711  0.3208
 3856TIP3   OH233126   6.771   6.026   2.951 -0.0994 -0.0434 -0.0161
 3856TIP3    H133127   6.753   6.022   3.045  0.8590 -0.6303  0.1613
 3856TIP3    H233128   6.844   6.087   2.943 -0.2892  0.1376 -0.3972
 3857TIP3   OH233129   5.626   6.773   2.840  0.5309 -0.0330  0.0726
 3857TIP3    H133130   5.693   6.789   2.907 -0.8424 -0.0123  1.4915
 3857TIP3    H233131   5.545   6.805   2.879 -0.2868  0.2224 -1.7302
 3858TIP3   OH233132   4.882   6.086   3.076 -0.3623 -0.3496  0.1474
 3858TIP3    H133133   4.812   6.058   3.017 -0.3709  0.3767 -0.1893
 3858TIP3    H233134   4.963   6.067   3.029 -0.3751  0.4886 -0.2191
 3859TIP3   OH233135   0.993   6.538   3.577 -0.3766 -0.2067  0.1245
 3859TIP3    H133136   1.062   6.604   3.571  0.7331 -1.4391 -1.6372
 3859TIP3    H233137   0.922   6.582   3.625  0.9161  1.7028  0.4037
 3860TIP3   OH233138   5.326   0.054   4.340 -0.3122 -0.3205 -0.2837
 3860TIP3    H133139   5.237   0.019   4.332 -0.8134  0.0802  2.4285
 3860TIP3    H233140   5.320   0.143   4.304 -0.9718 -0.3663 -0.3034
 3861TIP3   OH233141   3.408   2.942   1.460 -0.3506  0.5111  0.1164
 3861TIP3    H133142   3.502   2.935   1.447 -0.6575 -0.1861 -2.0120
 3861TIP3    H233143   3.369   2.891   1.389 -2.3628  2.1532 -0.0712
 3862TIP3   OH233144   6.439   0.449   3.770 -0.5593 -0.0735 -0.5459
 3862TIP3    H133145   6.355   0.450   3.725 -1.0574 -3.0037  0.0756
 3862TIP3    H233146   6.431   0.377   3.833  1.3371  1.5638  1.7620
 3863TIP3   OH233147   6.427   3.688   2.675  1.0395 -0.1100 -0.2106
 3863TIP3    H133148   6.497   3.623   2.672 -0.1696 -1.4659 -0.0524
 3863TIP3    H233149   6.396   3.687   2.766  0.7836  0.4565 -0.2827
 3864TIP3   OH233150   5.273   3.048   1.784  0.4117  0.0693  0.3838
 3864TIP3    H133151   5.254   3.097   1.704  0.0639 -0.3188  0.2269
 3864TIP3    H233152   5.198   3.064   1.841 -0.2967 -1.2494 -0.1348
 3865TIP3   OH233153   3.085   2.800   2.377  0.4191 -0.3039  0.1559
 3865TIP3    H133154   3.119   2.856   2.307 -0.7877 -0.7750 -0.8549
 3865TIP3    H233155   3.049   2.861   2.441 -0.1087  0.1044 -0.5200
 3866TIP3   OH233156   2.679   2.042   1.980  0.0979  0.2631 -0.2608
 3866TIP3    H133157   2.757   2.000   1.944 -0.2791 -1.0252  0.3458
 3866TIP3    H233158   2.713   2.118   2.028  0.8454  0.4119 -0.9986
 3867TIP3   OH233159   5.194   3.847   3.667 -0.0172  0.0314  0.1196
 3867TIP3    H133160   5.123   3.877   3.611 -0.1178 -2.0287 -0.9530
 3867TIP3    H233161   5.273   3.856   3.614 -0.0719 -1.6303 -0.2948
 3868TIP3   OH233162   6.802   4.711   1.720 -0.1906 -0.0667  0.6369
 3868TIP3    H133163   6.731   4.693   1.781 -0.3127 -0.7070  0.3118
 3868TIP3    H233164   6.881   4.702   1.773 -0.3018 -0.4484  0.7410
 3869TIP3   OH233165   0.585   1.139   1.660 -0.3422 -0.1021  0.4198
 3869TIP3    H133166   0.516   1.174   1.604 -0.5068 -0.5618  0.3346
 3869TIP3    H233167   0.547   1.060   1.699 -0.5866  0.7301  1.9374
 3870TIP3   OH233168   3.492   3.101   1.127 -0.3816 -0.8658 -0.0771
 3870TIP3    H133169   3.403   3.076   1.152 -1.8588  0.9443 -3.0264
 3870TIP3    H233170   3.483   3.187   1.087  2.9422 -0.0305  0.6289
 3871TIP3   OH233171   6.402   2.900   1.579 -0.0311 -0.6471 -0.1586
 3871TIP3    H133172   6.334   2.853   1.628  0.8579 -2.0185 -0.1943
 3871TIP3    H233173   6.404   2.856   1.494 -0.3182  0.5613 -0.8198
 3872TIP3   OH233174   6.278   3.447   2.485  0.3696  0.0593 -0.3220
 3872TIP3    H133175   6.267   3.540   2.469  2.2439  0.7845  2.0306
 3872TIP3    H233176   6.219   3.428   2.558  0.6080 -0.4065 -0.2466
 3873TIP3   OH233177   5.698   6.455   3.700 -0.0908 -0.1473 -0.3939
 3873TIP3    H133178   5.776   6.444   3.646  0.6885  0.8286  0.4828
 3873TIP3    H233179   5.725   6.428   3.787 -0.7222  0.2537 -0.0686
 3874TIP3   OH233180   4.200   6.430   2.252 -0.0116 -0.1571 -0.3398
 3874TIP3    H133181   4.255   6.491   2.203 -1.3172 -0.5859 -2.4491
 3874TIP3    H233182   4.217   6.345   2.211 -0.6138 -0.6672  0.4471
 3875TIP3   OH233183   2.257   6.329   3.292  0.6169 -0.3339  0.4408
 3875TIP3    H133184   2.224   6.371   3.372  0.5638 -0.4288  0.4684
 3875TIP3    H233185   2.298   6.401   3.243  0.5217 -0.2486  0.4854
 3876TIP3   OH233186   0.451   5.770   0.887  0.2564  0.0295 -0.4933
 3876TIP3    H133187   0.422   5.787   0.797 -0.6828 -0.3896 -0.2906
 3876TIP3    H233188   0.389   5.819   0.942  1.1665  0.7387 -0.0856
 3877TIP3   OH233189   0.105   2.043   3.519 -0.1108  0.2106  0.2782
 3877TIP3    H133190   0.143   2.112   3.465 -0.7682  0.9587  0.7586
 3877TIP3    H233191   0.023   2.019   3.474 -0.3408  0.3867  0.6018
 3878TIP3   OH233192   1.209   1.019   3.742 -0.7287  0.5759  0.1711
 3878TIP3    H133193   1.272   1.090   3.752  1.1417 -1.0938  0.9407
 3878TIP3    H233194   1.170   1.011   3.829 -0.8294  0.5553  0.1237
 3879TIP3   OH233195   1.269   0.560   0.499  0.4852 -0.2454 -0.1887
 3879TIP3    H133196   1.348   0.547   0.445  1.6237  3.2323  0.3963
 3879TIP3    H233197   1.299   0.546   0.588 -0.0302 -0.6412 -0.0756
 3880TIP3   OH233198   1.968   2.648   8.299  0.0574 -0.3004  0.0426
 3880TIP3    H133199   1.911   2.601   8.237 -1.6690  1.2035  0.4164
 3880TIP3    H233200   1.999   2.580   8.359 -1.1859 -1.2145 -0.3082
 3881TIP3   OH233201   6.510   0.886   4.098 -0.5376  0.0097  0.4462
 3881TIP3    H133202   6.415   0.883   4.091 -0.4331 -1.5717 -1.1740
 3881TIP3    H233203   6.530   0.978   4.115 -2.3802  0.1606  2.2129
 3882TIP3   OH233204   3.489   2.558   1.300  0.2908 -0.1186 -0.4647
 3882TIP3    H133205   3.542   2.538   1.377 -0.7258 -0.1252  0.2497
 3882TIP3    H233206   3.552   2.563   1.228  1.5678  2.0336  0.6962
 3883TIP3   OH233207   0.110   5.990   3.073  0.7088  0.5233 -0.1885
 3883TIP3    H133208   0.126   5.902   3.107 -0.9180  0.0100 -0.6618
 3883TIP3    H233209   0.079   6.040   3.148 -1.3774 -0.1906 -0.5106
 3884TIP3   OH233210   1.623   0.501   2.649 -0.1301  0.4480  0.3784
 3884TIP3    H133211   1.600   0.545   2.567  0.1962  0.5316  0.3319
 3884TIP3    H233212   1.691   0.439   2.625 -1.0256 -0.5485  0.3245
 3885TIP3   OH233213   3.109   4.141   0.510 -0.1593 -0.0249 -0.7123
 3885TIP3    H133214   3.198   4.137   0.545 -0.2679  1.3080 -0.2128
 3885TIP3    H233215   3.077   4.051   0.515  0.3488 -0.1485  1.3349
 3886TIP3   OH233216   4.975   5.347   2.183 -0.3732  0.3397 -0.2806
 3886TIP3    H133217   5.062   5.328   2.145 -0.2534 -0.2156  0.2626
 3886TIP3    H233218   4.971   5.292   2.261 -1.1776  0.4460 -0.2460
 3887TIP3   OH233219   5.229   1.076   4.263 -0.1798 -0.2014 -0.2531
 3887TIP3    H133220   5.150   1.096   4.213 -0.5776 -0.1891  0.3702
 3887TIP3    H233221   5.234   1.146   4.329  0.2400 -0.3120 -0.1652
 3888TIP3   OH233222   5.967   2.464   1.636 -0.1511  0.5832  0.1751
 3888TIP3    H133223   5.924   2.459   1.721 -1.1417  2.2264 -0.1638
 3888TIP3    H233224   5.898   2.442   1.573  0.9613 -2.1624 -0.1906
 3889TIP3   OH233225   3.966   5.349   1.846 -0.6461  0.3452 -0.3097
 3889TIP3    H133226   3.965   5.367   1.940  1.6203  1.3560 -0.4015
 3889TIP3    H233227   3.885   5.386   1.813 -1.3433  0.2328  1.1895
 3890TIP3   OH233228   1.662   4.459   2.817  0.0521 -0.1389  0.1196
 3890TIP3    H133229   1.691   4.462   2.726 -1.4378  0.4045 -0.3632
 3890TIP3    H233230   1.699   4.538   2.857  0.6793 -0.3621 -0.0068
 3891TIP3   OH233231   0.189   5.688   2.342  0.6142 -0.2071 -0.0079
 3891TIP3    H133232   0.256   5.680   2.274  0.5732 -1.7706  0.0981
 3891TIP3    H233233   0.211   5.620   2.406 -0.0556  0.4268  0.9299
 3892TIP3   OH233234   3.791   0.202   2.102  0.2000 -0.1429  0.0825
 3892TIP3    H133235   3.864   0.160   2.055 -0.5430 -1.4248  0.0209
 3892TIP3    H233236   3.833   0.259   2.166  1.2612 -0.9735  0.1516
 3893TIP3   OH233237   3.694   5.378   4.426 -0.1456 -0.6883  0.3109
 3893TIP3    H133238   3.733   5.340   4.348  2.8703  0.8104  0.9273
 3893TIP3    H233239   3.738   5.462   4.437 -1.6692 -0.0812  2.6876
 3894TIP3   OH233240   5.016   3.683   2.550  0.0324  0.2444  0.5619
 3894TIP3    H133241   5.057   3.597   2.551  2.2114  1.2049  0.1759
 3894TIP3    H233242   4.933   3.670   2.504 -0.0234 -1.7524  1.1369
 3895TIP3   OH233243   5.844   5.675   1.393 -0.2944  0.0612 -0.1977
 3895TIP3    H133244   5.791   5.755   1.399  1.2023  1.0097  1.6714
 3895TIP3    H233245   5.918   5.700   1.337  0.1613 -0.0063  0.3660
 3896TIP3   OH233246   2.511   0.989   3.556 -0.1740 -0.3088 -0.6176
 3896TIP3    H133247   2.475   1.076   3.575  0.6851 -0.6423  3.2999
 3896TIP3    H233248   2.448   0.928   3.595  1.4289 -1.1670  0.7407
 3897TIP3   OH233249   2.701   6.643   1.772 -0.2536 -0.5698 -0.3150
 3897TIP3    H133250   2.655   6.724   1.753  0.5196 -0.4830 -2.0106
 3897TIP3    H233251   2.743   6.658   1.856 -1.3165  0.2308  0.0921
 3898TIP3   OH233252   4.005   2.162   2.623 -0.0751 -0.0183  0.1719
 3898TIP3    H133253   3.953   2.239   2.601 -0.5268 -0.6070 -0.8707
 3898TIP3    H233254   4.056   2.144   2.545 -1.8983 -2.2948 -0.6001
 3899TIP3   OH233255   1.730   1.155   0.985  0.2208  0.2524 -0.1344
 3899TIP3    H133256   1.797   1.224   0.988  0.0158  0.5789 -1.7711
 3899TIP3    H233257   1.769   1.080   1.029  1.4380  0.6322 -0.5455
 3900TIP3   OH233258   2.975   1.286   1.841 -0.1830  0.1009  0.2809
 3900TIP3    H133259   2.972   1.371   1.885 -1.5359  1.0613 -1.5587
 3900TIP3    H233260   3.065   1.256   1.854 -0.3849  0.4440  3.3361
 3901TIP3   OH233261   2.907   4.694   0.305  0.2535 -0.4546 -0.0961
 3901TIP3    H133262   2.870   4.698   0.217 -0.8431  0.6132  0.3853
 3901TIP3    H233263   2.920   4.786   0.330 -0.9358 -0.6558  1.4309
 3902TIP3   OH233264   1.513   3.776   2.680  0.4775 -0.1949 -0.2671
 3902TIP3    H133265   1.514   3.834   2.756  2.0906  2.0737 -1.8802
 3902TIP3    H233266   1.463   3.825   2.614 -0.6938 -2.0046 -0.7842
 3903TIP3   OH233267   6.065   1.799   1.961  0.4733 -0.1326 -0.2064
 3903TIP3    H133268   6.083   1.750   2.041  0.6802 -1.0166 -0.7771
 3903TIP3    H233269   6.085   1.738   1.890 -1.0569  0.1626 -0.9270
 3904TIP3   OH233270   3.028   5.987   1.565 -0.2210 -0.2039 -0.0333
 3904TIP3    H133271   2.971   6.063   1.554 -0.4524 -0.5230 -1.0911
 3904TIP3    H233272   3.077   6.006   1.645  0.2378  1.3956 -0.6516
 3905TIP3   OH233273   6.926   5.206   3.785  0.0146  0.4809 -0.4523
 3905TIP3    H133274   7.017   5.231   3.768 -0.3688  1.0766 -1.7563
 3905TIP3    H233275   6.929   5.111   3.792  0.8480  0.5451  0.3032
 3906TIP3   OH233276   3.025   5.312   1.479  0.4514  0.2455 -0.4943
 3906TIP3    H133277   3.073   5.270   1.551  2.0049 -1.0190 -2.1728
 3906TIP3    H233278   2.934   5.285   1.493  1.0371 -1.8067 -0.1699
 3907TIP3   OH233279   2.621   5.731   2.147  0.5196  0.4522  0.1330
 3907TIP3    H133280   2.630   5.820   2.113 -1.5832  0.5459 -0.3251
 3907TIP3    H233281   2.705   5.689   2.126  0.3906  1.3586 -2.6701
 3908TIP3   OH233282   6.359   3.980   3.303  0.6225 -0.3412 -0.0795
 3908TIP3    H133283   6.293   3.979   3.372  1.9387  0.3190  1.2446
 3908TIP3    H233284   6.389   4.071   3.299  0.8470 -0.4536 -1.2494
 3909TIP3   OH233285   6.581   5.276   3.000  0.2085  0.0727  0.0681
 3909TIP3    H133286   6.498   5.317   2.977  1.1040  2.4793  0.7826
 3909TIP3    H233287   6.584   5.195   2.949 -1.9120  0.6549 -1.0624
 3910TIP3   OH233288   2.920   3.402   0.816 -0.0458 -0.4650 -0.2117
 3910TIP3    H133289   3.003   3.424   0.860  0.7516 -2.0165 -0.8880
 3910TIP3    H233290   2.897   3.481   0.768 -0.4500  0.9743  2.1615
 3911TIP3   OH233291   6.317   3.705   3.183  0.8283 -0.1232 -0.2347
 3911TIP3    H133292   6.330   3.788   3.230  1.1361 -0.3687  0.1146
 3911TIP3    H233293   6.404   3.665   3.180  0.4415 -1.0734  0.7961
 3912TIP3   OH233294   1.388   0.299   2.708 -0.5358  0.0778 -0.1744
 3912TIP3    H133295   1.479   0.323   2.727 -0.2971  0.1726 -1.3821
 3912TIP3    H233296   1.357   0.368   2.650 -0.4591 -1.4498 -2.1242
 3913TIP3   OH233297   3.240   0.063   1.724  0.0457 -0.4798  0.2469
 3913TIP3    H133298   3.311   0.124   1.704 -1.4004  0.7371 -1.6763
 3913TIP3    H233299   3.191   0.106   1.794 -0.8278  0.5316 -0.9351
 3914TIP3   OH233300   0.806   3.546   2.567  0.3080  0.0626  0.5609
 3914TIP3    H133301   0.840   3.538   2.656  0.3568  0.0660  0.5426
 3914TIP3    H233302   0.774   3.458   2.545 -1.3622  0.4663  1.2506
 3915TIP3   OH233303   0.486   0.908   4.679 -0.4886 -0.0562  0.1655
 3915TIP3    H133304   0.508   0.827   4.633 -2.1492 -0.4944  0.0787
 3915TIP3    H233305   0.477   0.882   4.771 -0.2859  0.1851  0.2543
 3916TIP3   OH233306   3.805   6.184   0.237 -0.1805 -0.3648 -0.2444
 3916TIP3    H133307   3.832   6.172   0.146 -1.4319  1.8918 -0.9903
 3916TIP3    H233308   3.709   6.184   0.233 -0.3672 -3.2125  1.5764
 3917TIP3   OH233309   6.012   1.145   0.639 -0.1484 -0.2595 -0.4661
 3917TIP3    H133310   6.008   1.085   0.564 -1.7760 -1.1988  0.3136
 3917TIP3    H233311   5.959   1.102   0.706 -0.8327  1.7605  0.3532
 3918TIP3   OH233312   2.499   2.906   3.127 -0.2929  0.3595  0.0440
 3918TIP3    H133313   2.554   2.858   3.189 -0.8742 -1.7223 -0.9468
 3918TIP3    H233314   2.530   2.877   3.041 -2.3120 -0.1920 -0.5463
 3919TIP3   OH233315   3.056   4.632   0.549  0.0220  0.5174 -0.4743
 3919TIP3    H133316   3.019   4.664   0.467  0.9001  0.7328 -0.8007
 3919TIP3    H233317   3.115   4.562   0.523 -1.3363 -0.9215  0.1853
 3920TIP3   OH233318   5.557   5.076   0.628 -0.2005  0.2562  0.1291
 3920TIP3    H133319   5.523   5.157   0.665  1.7165  2.3621 -2.3388
 3920TIP3    H233320   5.629   5.051   0.685  0.0148  1.0491  0.2151
 3921TIP3   OH233321   1.508   4.252   1.200  0.3443 -0.1804 -0.1089
 3921TIP3    H133322   1.596   4.224   1.176  0.9439  0.3627  1.3823
 3921TIP3    H233323   1.458   4.244   1.118  2.2767  1.6700 -1.6056
 3922TIP3   OH233324   0.855   2.680   3.372 -0.2076 -0.1250 -0.0189
 3922TIP3    H133325   0.834   2.736   3.447  0.1663  1.0862 -0.7844
 3922TIP3    H233326   0.903   2.606   3.409  1.4549  1.2917  0.7627
 3923TIP3   OH233327   2.605   0.688   2.596  0.2320 -0.1201  0.0520
 3923TIP3    H133328   2.670   0.632   2.554  0.2865 -0.2437  0.2971
 3923TIP3    H233329   2.651   0.770   2.613  0.6869 -0.5973  1.2759
 3924TIP3   OH233330   0.750   5.557   2.501  0.5636 -0.4929 -0.3252
 3924TIP3    H133331   0.683   5.550   2.569  1.3407  0.0933  0.5368
 3924TIP3    H233332   0.734   5.642   2.460  1.9340  0.6107  1.2374
 3925TIP3   OH233333   2.159   1.460   2.806 -0.3802  0.0850  0.0444
 3925TIP3    H133334   2.139   1.429   2.717 -1.6012 -1.1548  0.7138
 3925TIP3    H233335   2.144   1.555   2.802  0.2471  0.1474 -1.2312
 3926TIP3   OH233336   3.504   4.359   2.712 -0.0871  0.0958  0.7630
 3926TIP3    H133337   3.461   4.426   2.660 -1.4814 -0.0640  1.6557
 3926TIP3    H233338   3.470   4.276   2.677  1.2176 -0.1483  0.0157
 3927TIP3   OH233339   4.095   4.442   4.070  0.0933 -0.0853 -0.4281
 3927TIP3    H133340   4.023   4.504   4.086 -0.1027 -0.4379  0.0596
 3927TIP3    H233341   4.118   4.457   3.979 -0.8642 -0.2381 -0.7128
 3928TIP3   OH233342   2.438   4.110   2.710  0.7291 -0.0775  0.1127
 3928TIP3    H133343   2.420   4.159   2.630 -0.3381 -0.1894  0.2694
 3928TIP3    H233344   2.352   4.093   2.747  1.1671 -0.8234  0.8110
 3929TIP3   OH233345   0.457   4.048   1.128  0.0673  0.0205 -0.1538
 3929TIP3    H133346   0.480   3.970   1.078 -0.6835  1.1043 -2.3307
 3929TIP3    H233347   0.428   4.111   1.062 -0.9025  1.5966  1.6734
 3930TIP3   OH233348   4.545   4.413   1.984  0.1309  0.1996 -0.2967
 3930TIP3    H133349   4.530   4.323   1.953 -0.7383  0.7867 -1.6532
 3930TIP3    H233350   4.470   4.430   2.042  0.8964 -0.3207  0.8917
 3931TIP3   OH233351   3.842   3.743   3.089 -0.7049 -0.0694 -0.2041
 3931TIP3    H133352   3.750   3.766   3.085 -0.8205 -0.6444 -1.0992
 3931TIP3    H233353   3.886   3.823   3.118 -1.5838 -0.0829  1.3193
 3932TIP3   OH233354   1.388   6.085   1.882 -0.3218  0.2155 -0.0159
 3932TIP3    H133355   1.383   6.052   1.972 -0.2791  1.6283  0.5340
 3932TIP3    H233356   1.301   6.119   1.864 -0.5579 -0.7542 -0.8204
 3933TIP3   OH233357   0.969   0.130   2.166  0.1169  0.3973  0.2613
 3933TIP3    H133358   0.917   0.142   2.086 -0.4656  0.1970  0.5965
 3933TIP3    H233359   0.907   0.090   2.228  0.3250  1.2994  1.0722
 3934TIP3   OH233360   0.768   0.784   4.744  0.9354 -0.1902  0.7200
 3934TIP3    H133361   0.702   0.740   4.691  1.6276 -1.3159  0.7558
 3934TIP3    H233362   0.738   0.771   4.835  0.3877  0.6777  0.6697
 3935TIP3   OH233363   5.556   3.384   8.384 -0.1447  0.6163  0.2512
 3935TIP3    H133364   5.544   3.299   8.428 -0.3047  1.3799  1.7565
 3935TIP3    H233365   5.649   3.385   8.360 -0.5195 -0.7109 -1.4370
 3936TIP3   OH233366   6.696   1.139   1.890 -0.2615 -0.6391 -0.5007
 3936TIP3    H133367   6.782   1.122   1.850 -0.8420 -2.7356 -0.9229
 3936TIP3    H233368   6.710   1.124   1.983  0.0163 -0.1401 -0.4563
 3937TIP3   OH233369   5.611   4.797   1.528  0.4581  0.2693  0.0577
 3937TIP3    H133370   5.675   4.860   1.497 -0.7153  1.0213 -0.8828
 3937TIP3    H233371   5.552   4.783   1.454 -1.0697  0.3737  1.2098
 3938TIP3   OH233372   0.978   2.179   3.524  0.0456 -0.7333 -0.0002
 3938TIP3    H133373   0.998   2.087   3.505  0.2716 -0.9409  1.1501
 3938TIP3    H233374   1.054   2.227   3.491  0.2426 -1.0332  0.0051
 3939TIP3   OH233375   2.940   1.547   3.050  0.3754 -0.1208 -0.2231
 3939TIP3    H133376   2.991   1.489   3.105  0.1159  1.2446  1.5707
 3939TIP3    H233377   3.005   1.595   2.998  1.1333  2.2370  2.6642
 3940TIP3   OH233378   6.283   1.296   2.590 -0.1729  0.2679  0.4897
 3940TIP3    H133379   6.294   1.252   2.674 -0.2970  2.5751  1.8025
 3940TIP3    H233380   6.362   1.349   2.580 -0.3920  0.4171 -0.6071
 3941TIP3   OH233381   3.709   6.578   1.043 -0.5308  0.0877  0.3366
 3941TIP3    H133382   3.661   6.576   0.960  1.8379 -1.4361 -1.0936
 3941TIP3    H233383   3.692   6.666   1.077 -1.5519  0.7920 -1.7745
 3942TIP3   OH233384   1.757   4.322   3.240 -0.4145  0.6162 -0.1376
 3942TIP3    H133385   1.770   4.402   3.189 -2.2541  0.9157 -0.1786
 3942TIP3    H233386   1.665   4.324   3.266 -0.6084 -1.6703 -0.4535
 3943TIP3   OH233387   3.402   6.823   1.328 -0.3943 -0.3109 -0.2252
 3943TIP3    H133388   3.463   6.849   1.259  0.1098  0.8333  0.5951
 3943TIP3    H233389   3.344   6.898   1.338 -0.2335 -0.3003  0.8125
 3944TIP3   OH233390   3.339   2.831   1.710 -0.2778 -0.0390  0.4078
 3944TIP3    H133391   3.317   2.862   1.622 -1.6992  0.6240  0.9529
 3944TIP3    H233392   3.413   2.885   1.737  0.3857 -0.4772 -0.4903
 3945TIP3   OH233393   1.109   2.040   3.868 -0.0359 -0.1496  0.2200
 3945TIP3    H133394   1.113   2.094   3.947 -1.1938  0.8776 -0.3869
 3945TIP3    H233395   1.063   1.961   3.896  1.4801 -0.7713  1.0673
 3946TIP3   OH233396   2.650   6.025   3.017 -0.2885  0.6862  0.1848
 3946TIP3    H133397   2.631   6.118   3.023  1.0166  0.9541  0.6791
 3946TIP3    H233398   2.733   6.015   3.064 -0.2903 -0.6872 -0.0588
 3947TIP3   OH233399   1.487   6.329   4.080 -0.1151 -0.3878 -0.5547
 3947TIP3    H133400   1.574   6.338   4.117  0.2835  2.9109 -1.9266
 3947TIP3    H233401   1.428   6.350   4.152  0.3604 -0.3319 -0.1772
 3948TIP3   OH233402   1.465   1.545   3.106 -0.4335  0.0750 -0.1739
 3948TIP3    H133403   1.377   1.546   3.143 -0.5821 -0.7392 -0.4627
 3948TIP3    H233404   1.458   1.592   3.023 -0.5245  0.2722 -0.0541
 3949TIP3   OH233405   5.394   1.441   4.125  0.6545 -0.2877  0.3410
 3949TIP3    H133406   5.413   1.520   4.075 -1.1242  0.6732  1.0822
 3949TIP3    H233407   5.416   1.464   4.215  0.4626 -0.7644  0.5117
 3950TIP3   OH233408   3.889   3.408   0.002  0.0244 -0.4336 -0.0629
 3950TIP3    H133409   3.964   3.467   0.010 -0.4405  0.2126 -0.4366
 3950TIP3    H233410   3.922   3.323   0.033  0.7901 -0.0609  0.1617
 3951TIP3   OH233411   5.688   1.262   2.091 -0.5670  0.0569 -0.2176
 3951TIP3    H133412   5.674   1.267   2.185 -1.6709 -0.2699 -0.3456
 3951TIP3    H233413   5.695   1.353   2.062  0.7405  0.1428  0.2865
 3952TIP3   OH233414   1.136   5.238   3.215  0.4881 -0.4589 -0.3263
 3952TIP3    H133415   1.170   5.217   3.128 -0.2370 -1.5849 -0.3701
 3952TIP3    H233416   1.096   5.156   3.245 -0.7274  0.3529  0.3736
 3953TIP3   OH233417   1.295   2.152   3.688  0.0305 -0.2289 -0.0440
 3953TIP3    H133418   1.244   2.095   3.746 -1.5892  0.7010 -0.5128
 3953TIP3    H233419   1.230   2.194   3.633  1.3469  0.8323 -0.8229
 3954TIP3   OH233420   2.137   6.525   2.139 -0.5426  0.0485 -0.3944
 3954TIP3    H133421   2.103   6.515   2.227  0.1863 -0.3219 -0.1469
 3954TIP3    H233422   2.230   6.545   2.151 -0.5437  0.4761 -1.0620
 3955TIP3   OH233423   5.983   5.724   1.915 -0.5717  0.2328 -0.4161
 3955TIP3    H133424   6.063   5.727   1.864  0.2046  0.0010  0.7355
 3955TIP3    H233425   5.998   5.786   1.987 -0.3508 -1.6207  1.2469
 3956TIP3   OH233426   0.428   4.733   0.694 -0.0774  0.0902  0.3388
 3956TIP3    H133427   0.477   4.748   0.774 -1.8428  1.1875  1.2646
 3956TIP3    H233428   0.337   4.720   0.723 -0.7136  0.2445 -1.4436
 3957TIP3   OH233429   3.096   1.768   3.201 -0.3918  0.4789 -0.0617
 3957TIP3    H133430   3.043   1.697   3.236 -0.3267  0.3955 -0.1350
 3957TIP3    H233431   3.128   1.814   3.279 -1.8684  1.4959 -0.0093
 3958TIP3   OH233432   6.497   5.115   3.233 -0.5389 -0.3785 -0.2780
 3958TIP3    H133433   6.561   5.045   3.242  2.4572  1.9617 -1.7405
 3958TIP3    H233434   6.544   5.194   3.259 -1.8730  1.8600 -3.8907
 3959TIP3   OH233435   5.713   1.253   4.592  0.8258 -0.0827 -0.0412
 3959TIP3    H133436   5.752   1.175   4.552 -0.4042  0.0499 -1.5785
 3959TIP3    H233437   5.620   1.247   4.572  0.7420  1.9698 -0.5370
 3960TIP3   OH233438   1.928   5.621   1.104 -0.3758  0.1049 -0.3788
 3960TIP3    H133439   1.930   5.558   1.176  1.0488  0.6895  0.1187
 3960TIP3    H233440   1.847   5.601   1.058 -1.5312 -0.0219  1.6013
 3961TIP3   OH233441   0.212   0.076   0.387 -0.1394  0.0973 -0.1509
 3961TIP3    H133442   0.132   0.059   0.437 -0.7428 -0.5175 -1.2749
 3961TIP3    H233443   0.184   0.137   0.319 -0.0053 -1.2184 -1.4313
 3962TIP3   OH233444   3.261   1.840   1.318 -0.0782  0.6000 -0.3939
 3962TIP3    H133445   3.249   1.908   1.251 -1.0948 -0.6720 -1.5648
 3962TIP3    H233446   3.185   1.847   1.375  0.6873  1.5506  0.5475
 3963TIP3   OH233447   4.050   4.690   3.572  0.7158  0.0699 -0.2138
 3963TIP3    H133448   3.966   4.686   3.618  0.6781  0.0645 -0.2828
 3963TIP3    H233449   4.054   4.778   3.535  0.9044  0.1919  0.0978
 3964TIP3   OH233450   0.424   1.725   1.081 -0.4759 -0.5108 -0.2929
 3964TIP3    H133451   0.498   1.764   1.034  0.5394 -0.7922  0.9924
 3964TIP3    H233452   0.419   1.635   1.047  0.4336 -0.8043  0.2992
 3965TIP3   OH233453   3.328   0.611   1.610 -0.0218 -0.1094 -0.4154
 3965TIP3    H133454   3.371   0.656   1.683 -0.5059 -0.4101  0.0687
 3965TIP3    H233455   3.330   0.674   1.538 -0.9208  0.8117  0.3295
 3966TIP3   OH233456   5.348   0.101   3.825  0.1397 -0.0951  0.3645
 3966TIP3    H133457   5.278   0.077   3.886 -0.6736  0.8314 -0.1591
 3966TIP3    H233458   5.405   0.159   3.875 -0.1692  0.1464  0.4397
 3967TIP3   OH233459   6.651   0.532   2.118  0.0105  0.0747  0.3039
 3967TIP3    H133460   6.725   0.567   2.168 -1.2901  2.2611  0.8322
 3967TIP3    H233461   6.589   0.503   2.184 -1.4142  2.3247  0.0855
 3968TIP3   OH233462   0.420   6.152   1.768  0.7556  0.3992 -0.2194
 3968TIP3    H133463   0.501   6.111   1.796  1.3002  0.7680 -1.2189
 3968TIP3    H233464   0.411   6.129   1.675  0.1469  1.0468 -0.3342
 3969TIP3   OH233465   6.460   4.324   1.606  0.8827  0.1344 -0.0140
 3969TIP3    H133466   6.374   4.324   1.564  0.4979  0.1617  0.7409
 3969TIP3    H233467   6.447   4.379   1.684  1.0763 -1.3539  1.1127
 3970TIP3   OH233468   2.515   4.765   2.589 -0.7033  0.2771  0.3113
 3970TIP3    H133469   2.500   4.673   2.570 -1.2645  0.7068 -1.4975
 3970TIP3    H233470   2.556   4.800   2.510 -1.4537  1.7968  0.5569
 3971TIP3   OH233471   3.543   4.438   2.985 -0.0568  0.2970  0.3132
 3971TIP3    H133472   3.486   4.446   2.909  0.4467  3.5209  0.1293
 3971TIP3    H233473   3.627   4.410   2.949 -0.1202  0.6883 -0.1372
 3972TIP3   OH233474   3.732   2.894   0.111  0.0924 -0.2855 -0.3252
 3972TIP3    H133475   3.818   2.884   0.069  0.3082  0.2988 -0.0394
 3972TIP3    H233476   3.753   2.914   0.203 -0.3084  1.0772 -0.4977
 3973TIP3   OH233477   0.495   4.669   4.067  0.1246 -0.5997 -0.2342
 3973TIP3    H133478   0.440   4.693   4.140  0.7817  0.3785 -0.0394
 3973TIP3    H233479   0.566   4.617   4.105  0.3029 -0.3427 -0.2073
 3974TIP3   OH233480   6.795   2.912   1.706 -0.1346 -0.3617  0.0826
 3974TIP3    H133481   6.745   2.830   1.701 -0.0314 -0.3715 -1.1353
 3974TIP3    H233482   6.728   2.980   1.710 -0.2262 -0.5028  1.7174
 3975TIP3   OH233483   1.538   5.636   2.481 -0.2123 -0.0195  0.2923
 3975TIP3    H133484   1.466   5.607   2.426  0.8108  1.1119 -1.8036
 3975TIP3    H233485   1.497   5.684   2.552 -1.5467  0.4614 -0.7660
 3976TIP3   OH233486   3.896   0.819   4.320 -0.2971 -0.2763 -0.2546
 3976TIP3    H133487   3.950   0.789   4.393 -1.0719  1.5072  1.1496
 3976TIP3    H233488   3.860   0.739   4.282  2.1813 -1.4170 -0.3540
 3977TIP3   OH233489   4.708   6.708   1.569 -0.0894 -0.2581  0.6311
 3977TIP3    H133490   4.698   6.614   1.559  2.3394 -0.6205  1.1030
 3977TIP3    H233491   4.767   6.734   1.498 -1.2272  1.0661  0.0954
 3978TIP3   OH233492   6.148   6.653   3.478 -0.0210 -0.2754 -0.2764
 3978TIP3    H133493   6.218   6.590   3.491 -0.2956 -0.4724  0.3439
 3978TIP3    H233494   6.170   6.700   3.398 -0.5109 -2.0868 -1.5254
 3979TIP3   OH233495   5.562   0.181   4.605  0.1869  0.5768 -0.0046
 3979TIP3    H133496   5.563   0.273   4.580  0.7444  0.3990 -0.6505
 3979TIP3    H233497   5.513   0.137   4.535 -2.4994  0.7391  1.6487
 3980TIP3   OH233498   2.862   2.970   4.074 -0.0913  0.8307  0.3115
 3980TIP3    H133499   2.901   3.027   4.141 -0.8682  0.1018  1.4316
 3980TIP3    H233500   2.812   3.030   4.019  2.1944  1.7147 -0.8984
 3981TIP3   OH233501   3.040   5.547   2.245  0.2706 -0.1934 -0.4494
 3981TIP3    H133502   3.013   5.618   2.303 -0.5550 -0.9174  0.0738
 3981TIP3    H233503   2.966   5.486   2.245 -0.6821  0.7516 -3.9241
 3982TIP3   OH233504   0.358   4.637   1.382  0.6434  0.2649  0.3434
 3982TIP3    H133505   0.269   4.604   1.382 -0.0779  2.1282  0.5211
 3982TIP3    H233506   0.370   4.677   1.468  1.5114  0.3821  0.1821
 3983TIP3   OH233507   4.596   5.295   8.261 -0.4016  0.2627 -0.6166
 3983TIP3    H133508   4.514   5.271   8.303 -1.2794  1.4633 -1.5871
 3983TIP3    H233509   4.601   5.390   8.270 -0.2746  0.4702 -2.5997
 3984TIP3   OH233510   5.979   4.449   2.838  0.8205  0.3068 -0.3557
 3984TIP3    H133511   6.063   4.406   2.817  1.1514 -0.2139  1.7967
 3984TIP3    H233512   6.001   4.542   2.843  1.2074  0.2055 -0.1010
 3985TIP3   OH233513   3.147   2.388   2.763  0.3825  0.7201  0.0437
 3985TIP3    H133514   3.198   2.449   2.710 -0.4272  1.3358 -0.0382
 3985TIP3    H233515   3.056   2.409   2.744  0.0326 -1.5671 -1.2303
 3986TIP3   OH233516   4.548   0.982   4.466 -0.8507  0.7256 -0.1582
 3986TIP3    H133517   4.561   0.896   4.426  0.2046  1.2294 -0.9385
 3986TIP3    H233518   4.515   1.037   4.394  0.0025  1.3637 -0.0817
 3987TIP3   OH233519   4.009   3.154   0.377  0.0270  0.1474 -0.4762
 3987TIP3    H133520   3.919   3.186   0.373  0.1803  0.7686  0.6363
 3987TIP3    H233521   4.045   3.191   0.458  0.8209 -1.2910 -0.1220
 3988TIP3   OH233522   3.780   1.414   2.793 -0.3778 -0.6384 -0.1142
 3988TIP3    H133523   3.711   1.359   2.829 -0.5045 -0.5046 -0.1541
 3988TIP3    H233524   3.748   1.440   2.707 -0.2105 -0.7017 -0.1964
 3989TIP3   OH233525   5.595   0.768   0.697 -0.1137  0.3223 -0.8883
 3989TIP3    H133526   5.516   0.822   0.697 -0.1015  0.3461 -0.3958
 3989TIP3    H233527   5.600   0.732   0.608 -1.4671 -0.8260 -0.5293
 3990TIP3   OH233528   3.509   2.365   1.608  0.2019  0.0764 -0.1352
 3990TIP3    H133529   3.556   2.295   1.562 -0.5287  0.0928 -0.9392
 3990TIP3    H233530   3.467   2.415   1.538  0.7953  1.4036  0.4107
 3991TIP3   OH233531   4.011   5.770   2.309  0.5026 -0.0639  0.3528
 3991TIP3    H133532   3.980   5.701   2.251  1.9183 -1.4540  1.1873
 3991TIP3    H233533   3.941   5.780   2.374 -0.2167  0.1232 -0.4336
 3992TIP3   OH233534   2.657   3.586   3.297 -0.8460 -1.0165 -0.0405
 3992TIP3    H133535   2.665   3.495   3.326 -1.7203 -1.7277 -1.8761
 3992TIP3    H233536   2.605   3.581   3.217 -0.7402  1.0958 -0.2933
 3993TIP3   OH233537   1.074   0.408   3.541 -0.3479  0.2394  0.6029
 3993TIP3    H133538   1.123   0.415   3.458  0.0423 -0.0879  0.7979
 3993TIP3    H233539   1.029   0.324   3.535  0.7526 -0.4226  1.2751
 3994TIP3   OH233540   1.822   3.870   3.916 -0.8103  0.2088  0.0777
 3994TIP3    H133541   1.807   3.804   3.849 -0.8006  0.8858 -0.5974
 3994TIP3    H233542   1.752   3.933   3.904 -0.2196  0.8689  0.0448
 3995TIP3   OH233543   5.607   1.905   1.032  0.0671 -0.0901  0.3814
 3995TIP3    H133544   5.534   1.849   1.057 -0.3950  0.5563  0.5004
 3995TIP3    H233545   5.685   1.856   1.058 -0.3541 -0.1088  1.6828
 3996TIP3   OH233546   3.017   1.243   1.379  0.2778  0.0399  0.1423
 3996TIP3    H133547   3.094   1.251   1.435  1.0416  1.0678 -1.0257
 3996TIP3    H233548   3.043   1.282   1.296 -1.4722  0.3202 -0.3093
 3997TIP3   OH233549   2.540   2.893   2.002  0.4495 -0.4701 -0.3799
 3997TIP3    H133550   2.563   2.841   2.079 -0.9404  0.5007  0.7455
 3997TIP3    H233551   2.605   2.964   2.000  0.9976 -0.9656 -0.6248
 3998TIP3   OH233552   6.189   5.629   4.045 -0.0064  0.4296  0.1741
 3998TIP3    H133553   6.240   5.597   3.970 -0.5382  1.7780 -0.8053
 3998TIP3    H233554   6.254   5.641   4.115  0.8984  1.2887 -0.7769
 3999TIP3   OH233555   6.286   1.234   0.336 -0.4388  0.0506  0.2427
 3999TIP3    H133556   6.364   1.229   0.281  0.7739  0.3955  1.8629
 3999TIP3    H233557   6.249   1.145   0.334  1.3106 -0.7643  1.2347
 4000TIP3   OH233558   4.763   6.389   2.045 -0.4820  0.3956  0.2159
 4000TIP3    H133559   4.764   6.373   1.950 -1.4454 -0.8754  0.3882
 4000TIP3    H233560   4.742   6.482   2.053  0.7598  0.7927 -0.8167
 4001TIP3   OH233561   2.417   6.013   2.815 -0.1818  0.5010 -0.0432
 4001TIP3    H133562   2.336   5.966   2.798 -0.6879  0.6899  1.6977
 4001TIP3    H233563   2.466   5.957   2.875  0.9271  0.4772 -0.9221
 4002TIP3   OH233564   1.455   0.011   2.852 -0.0835 -0.3071 -0.6188
 4002TIP3    H133565   1.511   0.075   2.807  1.1437  0.5187  1.8723
 4002TIP3    H233566   1.483  -0.074   2.818 -1.4966  0.3565 -3.7403
 4003TIP3   OH233567   0.997   6.096   2.127 -0.1551 -0.1260  0.6046
 4003TIP3    H133568   1.076   6.114   2.177  0.1697  2.7655 -0.7602
 4003TIP3    H233569   0.926   6.106   2.191  0.3960  0.5322  1.1234
 4004TIP3   OH233570   4.286   5.013   0.829 -0.0470 -0.4150 -0.4495
 4004TIP3    H133571   4.274   4.918   0.840 -1.6089 -0.1995 -0.1201
 4004TIP3    H233572   4.277   5.048   0.918 -0.3939  0.1347 -0.6980
 4005TIP3   OH233573   2.858   2.541   0.602  0.3164  0.0383 -0.1123
 4005TIP3    H133574   2.774   2.588   0.603  0.1730 -0.2200  0.0008
 4005TIP3    H233575   2.919   2.604   0.564  0.0510  0.1958 -0.2876
 4006TIP3   OH233576   5.606   1.564   2.758 -0.5826 -0.6611 -0.2831
 4006TIP3    H133577   5.694   1.574   2.795 -0.7575 -1.9288  0.5382
 4006TIP3    H233578   5.603   1.628   2.687  0.5017  0.4018  0.5636
 4007TIP3   OH233579   5.165   0.237   1.330 -0.4645  0.2252 -0.1232
 4007TIP3    H133580   5.214   0.303   1.379 -2.7120  1.0519  1.1483
 4007TIP3    H233581   5.228   0.167   1.315  1.1510  1.2960  1.2507
 4008TIP3   OH233582   2.891   2.456   2.717 -0.2441  0.4039 -0.0098
 4008TIP3    H133583   2.833   2.462   2.793 -0.6268  1.1931 -0.3499
 4008TIP3    H233584   2.845   2.398   2.656  0.2014 -0.4748  0.4605
 4009TIP3   OH233585   4.339   0.088   2.700 -0.1002 -0.1807  0.4136
 4009TIP3    H133586   4.372   0.029   2.767  1.1872  0.3086  0.2494
 4009TIP3    H233587   4.245   0.073   2.699  0.2662 -3.0809 -0.4430
 4010TIP3   OH233588   0.298   2.005   2.644 -0.4882 -0.2831 -0.0486
 4010TIP3    H133589   0.376   2.033   2.692 -0.9866 -1.0902  1.2695
 4010TIP3    H233590   0.328   1.931   2.591  0.0931  0.6949 -1.1395
 4011TIP3   OH233591   6.654   5.953   2.714  0.0490  0.9828  0.1323
 4011TIP3    H133592   6.694   5.989   2.793  1.0951 -1.3149  0.7071
 4011TIP3    H233593   6.728   5.926   2.660 -0.6421 -1.0719  0.1310
 4012TIP3   OH233594   4.614   3.510   1.551  0.5387 -0.0140 -0.3391
 4012TIP3    H133595   4.557   3.583   1.523  0.2841  0.1901  0.6757
 4012TIP3    H233596   4.697   3.553   1.575  0.5590 -0.1190 -0.2239
 4013TIP3   OH233597   4.061   3.424   4.601 -0.0995 -0.1492  0.3700
 4013TIP3    H133598   4.101   3.464   4.678  0.5413  2.0810 -1.0325
 4013TIP3    H233599   3.976   3.468   4.592 -0.4679 -0.8803  0.1692
 4014TIP3   OH233600   2.857   6.500   8.190 -0.5254  0.1842  0.3543
 4014TIP3    H133601   2.906   6.512   8.271  0.6484 -1.8697  0.0368
 4014TIP3    H233602   2.879   6.576   8.137  1.1051  0.0838  0.8319
 4015TIP3   OH233603   5.353   6.574   2.919 -0.1440 -0.0283 -0.2644
 4015TIP3    H133604   5.429   6.517   2.932 -0.6797 -0.3724  1.5937
 4015TIP3    H233605   5.279   6.523   2.952 -1.3941 -0.0773 -2.8771
 4016TIP3   OH233606   4.845   0.153   1.818  0.9387 -0.7132 -0.2646
 4016TIP3    H133607   4.769   0.102   1.790 -1.4963  1.3512  1.9919
 4016TIP3    H233608   4.907   0.087   1.850 -0.9746 -2.4261  0.1939
 4017TIP3   OH233609   5.080   6.374   3.945 -0.1248 -0.1484  0.0138
 4017TIP3    H133610   5.001   6.424   3.926 -0.9915 -2.0210 -1.6633
 4017TIP3    H233611   5.142   6.400   3.877  0.1145  0.0106  0.2849
 4018TIP3   OH233612   2.018   0.628   2.275 -0.2211 -0.6470 -0.3444
 4018TIP3    H133613   1.935   0.620   2.321  0.4072 -0.4817  0.8556
 4018TIP3    H233614   1.998   0.683   2.199 -1.0250  0.1581  0.4269
 4019TIP3   OH233615   6.124   5.452   8.394  0.8802 -0.2584 -0.6972
 4019TIP3    H133616   6.082   5.383   8.444 -0.4279  1.0671  0.1033
 4019TIP3    H233617   6.209   5.415   8.368  1.4600 -1.1643  2.1493
 4020TIP3   OH233618   0.681   2.112   0.992 -0.3472 -0.1139  0.0459
 4020TIP3    H133619   0.593   2.151   0.992  0.4877  2.0173  2.0524
 4020TIP3    H233620   0.684   2.061   1.073  0.2468 -0.2153 -0.0396
 4021TIP3   OH233621   5.014   2.877   3.850 -0.2397  0.1298 -0.8152
 4021TIP3    H133622   4.937   2.822   3.834 -0.0267  0.2366 -2.3465
 4021TIP3    H233623   5.074   2.820   3.899 -0.7730 -0.3746 -0.7389
 4022TIP3   OH233624   0.333   4.451   3.644  0.4230 -0.1183  0.5860
 4022TIP3    H133625   0.254   4.417   3.684 -0.0101  0.5043  0.2801
 4022TIP3    H233626   0.361   4.521   3.702 -0.9527  1.7026 -0.8031
 4023TIP3   OH233627   5.044   0.721   1.183 -0.4345 -0.3545  0.4600
 4023TIP3    H133628   5.029   0.634   1.147 -0.9850  0.2680 -0.9183
 4023TIP3    H233629   5.123   0.713   1.235 -0.6948 -1.7607  0.6663
 4024TIP3   OH233630   5.483   6.321   1.336 -0.2790 -0.2304  0.0363
 4024TIP3    H133631   5.428   6.397   1.318 -0.4158 -0.8605 -2.6252
 4024TIP3    H233632   5.423   6.254   1.369 -0.8687 -0.3728 -1.2587
 4025TIP3   OH233633   0.296   3.021   4.128  0.4923  0.0738  0.4662
 4025TIP3    H133634   0.205   3.028   4.099  0.0639  0.6495  1.8786
 4025TIP3    H233635   0.336   3.103   4.101  1.0299 -0.7744 -1.4892
 4026TIP3   OH233636   2.094   0.082   1.185 -0.4869  0.0997 -0.3258
 4026TIP3    H133637   2.006   0.045   1.177 -0.4738 -0.3655  1.2944
 4026TIP3    H233638   2.151   0.016   1.146 -0.9596  1.4293 -3.6306
 4027TIP3   OH233639   5.581   2.100   1.232  0.4209 -0.3048 -0.0551
 4027TIP3    H133640   5.625   2.035   1.177 -0.1067  0.2193 -1.1132
 4027TIP3    H233641   5.489   2.093   1.209  0.0637 -0.6596  1.3962
 4028TIP3   OH233642   0.809   6.420   0.846 -0.1580 -0.5985  0.1986
 4028TIP3    H133643   0.727   6.450   0.885 -0.3938 -0.6814 -0.2211
 4028TIP3    H233644   0.866   6.496   0.848 -1.3557  0.4934 -2.5415
 4029TIP3   OH233645   0.489   3.413   2.684  0.5605  0.0723 -0.0029
 4029TIP3    H133646   0.409   3.367   2.658  0.4701  0.5119 -0.5247
 4029TIP3    H233647   0.555   3.383   2.621  1.6708 -2.7054  2.2379
 4030TIP3   OH233648   1.480   3.095   1.899 -0.2674  0.3332  0.1703
 4030TIP3    H133649   1.473   3.112   1.993  1.0525  1.3764  0.1051
 4030TIP3    H233650   1.392   3.114   1.865 -0.8012 -0.2020  1.1932
 4031TIP3   OH233651   5.331   6.512   1.031 -0.5732  1.3927  0.0653
 4031TIP3    H133652   5.244   6.516   1.070 -1.3213 -1.3629 -1.0839
 4031TIP3    H233653   5.354   6.604   1.014 -3.8746  2.1710 -0.8724
 4032TIP3   OH233654   5.618   0.558   0.055  0.3678  0.0088 -0.5896
 4032TIP3    H133655   5.711   0.550   0.077  0.1520  1.0591  0.8480
 4032TIP3    H233656   5.573   0.515   0.128 -0.3484  2.1710  0.2978
 4033TIP3   OH233657   1.380   0.198   1.079  0.2013 -0.2467  0.0150
 4033TIP3    H133658   1.464   0.240   1.099  0.6284 -1.0924  0.0368
 4033TIP3    H233659   1.385   0.179   0.985  0.4550 -1.2003  0.2137
 4034TIP3   OH233660   0.806   6.637   3.808  0.3771 -0.6159 -0.6338
 4034TIP3    H133661   0.856   6.710   3.844  0.1677 -0.5166 -0.5422
 4034TIP3    H233662   0.715   6.667   3.811 -0.0828 -1.9763  2.1681
 4035TIP3   OH233663   1.493   2.679   1.920  0.1811  0.3289  0.1467
 4035TIP3    H133664   1.452   2.604   1.878 -1.2253  1.1223  0.0691
 4035TIP3    H233665   1.559   2.640   1.978 -1.3987 -1.0770  1.1072
 4036TIP3   OH233666   2.058   1.489   4.760  0.5560  0.1228  0.2346
 4036TIP3    H133667   2.130   1.512   4.819 -0.5921 -1.8281  2.5897
 4036TIP3    H233668   2.098   1.430   4.695  1.1527 -0.9226  1.4914
 4037TIP3   OH233669   1.385   2.626   0.398 -0.0682  0.0027 -0.5656
 4037TIP3    H133670   1.318   2.569   0.435 -0.4790  0.6600 -0.2828
 4037TIP3    H233671   1.454   2.566   0.369  0.7515 -0.5095  2.1712
 4038TIP3   OH233672   1.972   3.222   2.780  0.5287 -0.8085 -0.3854
 4038TIP3    H133673   2.005   3.147   2.830  0.4415 -0.9053 -0.4737
 4038TIP3    H233674   1.964   3.292   2.845  0.2488 -0.9840 -0.2291
 4039TIP3   OH233675   3.936   5.646   2.706  0.0130 -0.1902 -0.4077
 4039TIP3    H133676   3.987   5.616   2.630 -1.8304  1.5145 -2.4406
 4039TIP3    H233677   3.878   5.572   2.726  0.9316 -0.8821 -0.2006
 4040TIP3   OH233678   3.051   4.675   4.237 -0.2472  0.0687  0.0519
 4040TIP3    H133679   3.088   4.625   4.310  0.2888  1.2025  0.5958
 4040TIP3    H233680   3.092   4.761   4.245 -0.6204  0.3840 -1.2596
 4041TIP3   OH233681   4.664   6.829   2.751  0.3081  0.1668 -0.8302
 4041TIP3    H133682   4.621   6.749   2.781 -0.9132  0.7246 -1.0199
 4041TIP3    H233683   4.698   6.806   2.665  1.5676 -0.6688 -0.1414
 4042TIP3   OH233684   0.208   5.269   4.919 -0.7029 -0.4511  0.7083
 4042TIP3    H133685   0.131   5.213   4.917 -0.6700 -0.6936  3.0680
 4042TIP3    H233686   0.277   5.216   4.878 -1.4238 -0.7906 -0.1066
 4043TIP3   OH233687   4.021   3.315   1.740 -0.2338 -0.0859 -0.1682
 4043TIP3    H133688   3.988   3.362   1.663  0.7736 -0.2861 -0.7451
 4043TIP3    H233689   4.115   3.335   1.741 -0.2946  0.2175  1.2400
 4044TIP3   OH233690   6.882   0.958   1.753 -0.2371 -0.6326  0.3948
 4044TIP3    H133691   6.788   0.948   1.736 -0.6642  1.6361  1.1329
 4044TIP3    H233692   6.893   0.926   1.842 -0.8367  1.3778  1.2504
 4045TIP3   OH233693   4.077   6.047   2.369  0.2272  0.6836 -0.3819
 4045TIP3    H133694   4.074   5.957   2.338  2.4028  0.6018 -0.5335
 4045TIP3    H233695   4.023   6.096   2.307 -1.2245 -0.5210 -0.1184
 4046TIP3   OH233696   1.553   6.253   0.664 -0.2598 -0.2756 -0.6622
 4046TIP3    H133697   1.533   6.198   0.588 -0.7545 -0.6858 -0.2435
 4046TIP3    H233698   1.618   6.316   0.632  0.0015 -0.8377 -1.2610
 4047TIP3   OH233699   2.949   3.408   3.474 -0.1405  0.1341 -0.0023
 4047TIP3    H133700   2.946   3.483   3.533 -2.0408 -1.0904  1.5855
 4047TIP3    H233701   2.862   3.403   3.436  0.4149 -0.3957 -1.2855
 4048TIP3   OH233702   5.526   3.039   2.579  0.2232 -0.3377  0.1851
 4048TIP3    H133703   5.571   3.029   2.496 -0.9875  1.5252 -0.7479
 4048TIP3    H233704   5.445   2.988   2.569  0.4417 -0.7723  0.5510
 4049TIP3   OH233705   6.002   6.383   1.934  0.0392 -0.1400 -0.1456
 4049TIP3    H133706   5.962   6.418   2.014  0.2316  0.5066 -0.3261
 4049TIP3    H233707   5.945   6.310   1.909  0.0399 -0.4150  0.6398
 4050TIP3   OH233708   0.615   4.624   1.211  0.5066  0.0842  0.1046
 4050TIP3    H133709   0.693   4.679   1.219  0.4246  0.0507  1.4588
 4050TIP3    H233710   0.550   4.667   1.268 -0.3049 -0.1623 -0.6134
 4051TIP3   OH233711   2.761   5.493   1.331 -0.1683  0.1970  0.8662
 4051TIP3    H133712   2.719   5.570   1.293 -1.3960 -1.7899 -2.1739
 4051TIP3    H233713   2.696   5.457   1.391 -0.9940 -0.3033 -0.3028
 4052TIP3   OH233714   0.056   5.537   0.774 -0.0571 -0.3614 -0.4088
 4052TIP3    H133715   0.122   5.539   0.844 -0.9892 -1.0445  0.5257
 4052TIP3    H233716   0.022   5.627   0.771 -0.9229 -0.6061  0.9541
 4053TIP3   OH233717   3.334   4.616   4.192  0.5021 -0.1673 -0.2551
 4053TIP3    H133718   3.405   4.584   4.247  0.1902  0.0562  0.2938
 4053TIP3    H233719   3.315   4.703   4.227 -0.6794 -0.5997  0.2397
 4054TIP3   OH233720   6.425   1.446   1.343 -0.2088 -0.1736  0.2509
 4054TIP3    H133721   6.331   1.464   1.342 -0.2517 -0.3056  1.1147
 4054TIP3    H233722   6.455   1.469   1.256 -0.5887  2.2815  0.6955
 4055TIP3   OH233723   2.551   0.518   0.039 -0.5467 -0.7082 -0.1560
 4055TIP3    H133724   2.531   0.425   0.044 -0.7234 -0.8464 -2.4065
 4055TIP3    H233725   2.466   0.561   0.035 -0.4874 -0.3340  1.7195
 4056TIP3   OH233726   1.660   3.847   1.213  0.4120  0.1157 -0.0600
 4056TIP3    H133727   1.674   3.797   1.293 -1.5929  0.1596  0.3763
 4056TIP3    H233728   1.730   3.820   1.154 -0.1917 -2.6730  0.4044
 4057TIP3   OH233729   5.056   5.357   2.762  0.0747  0.1620 -0.5439
 4057TIP3    H133730   5.067   5.338   2.669  1.2352 -0.7162 -0.2427
 4057TIP3    H233731   5.031   5.274   2.802  0.0225  0.4327  0.0080
 4058TIP3   OH233732   3.338   3.703   2.086 -0.3202 -0.1766 -0.0625
 4058TIP3    H133733   3.292   3.711   2.169 -0.3601  0.0739 -0.1075
 4058TIP3    H233734   3.314   3.616   2.053 -0.0422 -0.4138  0.3423
 4059TIP3   OH233735   2.259   6.553   0.876 -0.4945 -0.1681  0.1074
 4059TIP3    H133736   2.212   6.521   0.954 -0.5135 -1.4993 -0.4265
 4059TIP3    H233737   2.251   6.482   0.812  1.3039  0.0294 -0.3906
 4060TIP3   OH233738   3.521   6.928   1.562 -0.0803  0.3008  0.6048
 4060TIP3    H133739   3.570   6.859   1.607  0.2021 -0.6329 -1.0323
 4060TIP3    H233740   3.486   6.885   1.484  1.0475  2.2671 -1.0849
 4061TIP3   OH233741   2.310   1.050   4.215 -0.2362  0.1770  0.3335
 4061TIP3    H133742   2.395   1.029   4.253 -0.1511 -2.9145 -1.2549
 4061TIP3    H233743   2.268   1.108   4.279  3.3371  2.6442  0.7458
 4062TIP3   OH233744   5.792   1.000   2.786  0.9752 -0.1830  0.0745
 4062TIP3    H133745   5.761   0.926   2.838  1.0854  0.8982  1.7307
 4062TIP3    H233746   5.812   1.068   2.850  0.4264  1.4664 -1.4319
 4063TIP3   OH233747   3.393   5.697   3.539  0.5768 -0.3728  0.3046
 4063TIP3    H133748   3.479   5.696   3.582 -0.1311 -1.0420  1.7849
 4063TIP3    H233749   3.393   5.618   3.484  0.9748 -0.2730  0.1553
 4064TIP3   OH233750   4.349   2.181   2.639 -0.2899  0.0196  0.3444
 4064TIP3    H133751   4.259   2.189   2.608 -0.5406  0.0781  1.0705
 4064TIP3    H233752   4.381   2.099   2.600 -0.3110  0.5195 -0.7427
 4065TIP3   OH233753   2.284   0.034   4.245  0.5022  0.0833  0.1640
 4065TIP3    H133754   2.224   0.091   4.293  1.0883 -0.0517  1.0580
 4065TIP3    H233755   2.332  -0.014   4.312 -1.0945 -2.6922 -0.5104
 4066TIP3   OH233756   4.223   3.596   2.917 -0.4810  0.3859  0.4449
 4066TIP3    H133757   4.187   3.683   2.935  0.3339  0.5309  1.4955
 4066TIP3    H233758   4.163   3.536   2.961 -1.3231  0.3633 -0.7010
 4067TIP3   OH233759   5.214   6.324   3.033  0.0195  0.5449 -0.0176
 4067TIP3    H133760   5.127   6.284   3.033  0.5981 -0.7942  0.3214
 4067TIP3    H233761   5.217   6.376   3.113 -0.3414  0.3115  0.1495
 4068TIP3   OH233762   4.664   2.503   1.693  0.5942  0.3266  0.9849
 4068TIP3    H133763   4.645   2.459   1.611  0.4006 -0.3928  1.4065
 4068TIP3    H233764   4.644   2.595   1.676 -0.5042  0.0237  0.5567
 4069TIP3   OH233765   3.326   4.650   0.708  0.0322  0.2298 -0.5416
 4069TIP3    H133766   3.234   4.653   0.680  0.1308 -0.8631 -1.0247
 4069TIP3    H233767   3.335   4.724   0.768 -0.9242  0.9071 -1.1968
 4070TIP3   OH233768   2.638   2.097   0.475  0.0009  0.1510 -0.2167
 4070TIP3    H133769   2.690   2.017   0.480 -0.9591 -0.5309 -0.8224
 4070TIP3    H233770   2.633   2.127   0.566 -1.6674 -1.8491  0.4473
 4071TIP3   OH233771   5.194   0.373   4.804  0.0239 -0.0793 -0.0157
 4071TIP3    H133772   5.240   0.458   4.800  1.4662 -0.7933  0.5937
 4071TIP3    H233773   5.219   0.328   4.723 -1.5059  0.4073 -0.8039
 4072TIP3   OH233774   5.303   5.402   2.872 -0.4019  0.2740  0.4397
 4072TIP3    H133775   5.230   5.390   2.811 -0.9905  0.1368  1.1483
 4072TIP3    H233776   5.279   5.349   2.948 -0.1980  1.2654  1.2191
 4073TIP3   OH233777   0.959   3.813   3.437 -0.0537 -0.3425 -0.2492
 4073TIP3    H133778   1.012   3.809   3.357  1.1645  3.0535  0.2174
 4073TIP3    H233779   0.897   3.884   3.421  0.7163  0.9409  2.0114
 4074TIP3   OH233780   6.863   5.804   3.273  0.0714  0.4140 -0.7040
 4074TIP3    H133781   6.889   5.789   3.182  0.3957  1.4997 -0.7937
 4074TIP3    H233782   6.933   5.765   3.325 -0.3553 -0.6575 -0.8944
 4075TIP3   OH233783   2.747   5.274   0.475  0.3242 -0.3009 -0.1436
 4075TIP3    H133784   2.704   5.349   0.433 -0.3510 -0.9433 -0.6279
 4075TIP3    H233785   2.710   5.198   0.431 -0.3243 -0.9981  1.5285
 4076TIP3   OH233786   1.060   6.781   4.543  0.4939 -0.2634 -0.6775
 4076TIP3    H133787   1.037   6.754   4.454 -0.5205 -0.5643 -0.3437
 4076TIP3    H233788   0.976   6.806   4.583  0.6017 -2.1319  0.8614
 4077TIP3   OH233789   4.620   4.360   2.553 -0.3140 -0.1511  0.0787
 4077TIP3    H133790   4.538   4.315   2.571 -0.3978 -0.0471 -0.0409
 4077TIP3    H233791   4.648   4.327   2.468 -1.9779  2.2956 -1.5379
 4078TIP3   OH233792   1.962   4.998   2.082 -0.1908  0.4168  0.3277
 4078TIP3    H133793   1.953   5.052   2.160  1.9680  0.4435  0.6065
 4078TIP3    H233794   2.012   4.922   2.111 -1.0080 -0.5281 -0.6299
 4079TIP3   OH233795   4.335   5.909   2.363  0.8655  0.0083  0.1594
 4079TIP3    H133796   4.260   5.896   2.420  1.1950  0.2978  0.6760
 4079TIP3    H233797   4.338   6.004   2.348  0.3971 -0.1276 -0.8864
 4080TIP3   OH233798   6.032   5.072   2.094  0.2612 -0.3093 -0.1021
 4080TIP3    H133799   6.081   5.018   2.157 -0.9474 -0.1539  1.0117
 4080TIP3    H233800   6.043   5.162   2.126 -0.1615 -0.2035 -0.2555
 4081TIP3   OH233801   6.588   0.087   1.755 -0.3633  0.2589 -0.0694
 4081TIP3    H133802   6.664   0.125   1.712  1.1026 -1.0088  1.2413
 4081TIP3    H233803   6.531   0.058   1.683  2.3223 -2.4733 -1.3017
 4082TIP3   OH233804   2.076   4.346   1.104 -0.3789 -0.0980  0.2450
 4082TIP3    H133805   2.014   4.322   1.173  0.5467 -2.4329  0.3707
 4082TIP3    H233806   2.026   4.342   1.023 -0.5803 -1.3742  0.4061
 4083TIP3   OH233807   0.467   5.852   4.488 -0.2053  0.2750  0.5985
 4083TIP3    H133808   0.408   5.835   4.561 -2.8732 -1.1031 -1.6598
 4083TIP3    H233809   0.465   5.947   4.477 -1.9169  0.2894  0.7434
 4084TIP3   OH233810   0.058   3.375   2.607  0.2808  0.1095 -0.2982
 4084TIP3    H133811   0.147   3.354   2.636  0.7435  1.4114 -0.6909
 4084TIP3    H233812   0.071   3.420   2.523 -0.6947  0.8745 -0.0532
 4085TIP3   OH233813   3.561   1.955   1.784  0.5500  0.2338 -0.0623
 4085TIP3    H133814   3.508   1.897   1.728  1.6763 -0.9183  0.0113
 4085TIP3    H233815   3.646   1.910   1.790  2.5647  3.2935 -2.4674
 4086TIP3   OH233816   6.781   1.433   2.463 -0.1914  0.1315  0.2755
 4086TIP3    H133817   6.869   1.464   2.486  0.6253 -0.5703 -1.7133
 4086TIP3    H233818   6.754   1.489   2.391 -1.0605 -0.1623  0.3678
 4087TIP3   OH233819   4.885   5.455   3.157 -0.3510 -0.3413 -0.7530
 4087TIP3    H133820   4.969   5.451   3.203 -1.4125  0.0727  1.3301
 4087TIP3    H233821   4.823   5.486   3.223 -1.7019  1.7588 -2.8555
 4088TIP3   OH233822   4.765   5.822   1.465  0.2713 -0.1745 -0.1934
 4088TIP3    H133823   4.716   5.871   1.531 -1.5872 -1.9915 -0.1203
 4088TIP3    H233824   4.717   5.838   1.383 -0.3214 -1.7419 -0.1781
 4089TIP3   OH233825   2.782   4.656   2.608 -0.0157 -0.0867  0.3060
 4089TIP3    H133826   2.721   4.595   2.648  1.1981 -1.0311  0.7667
 4089TIP3    H233827   2.866   4.610   2.607  0.2008  0.1329 -2.7056
 4090TIP3   OH233828   2.376   0.529   1.147  0.4170  0.3027  0.1375
 4090TIP3    H133829   2.435   0.484   1.209  2.2610  0.1335 -1.6241
 4090TIP3    H233830   2.331   0.458   1.102 -0.2036  0.4021  0.5844
 4091TIP3   OH233831   2.660   5.775   1.255  0.0236 -0.2411  0.4787
 4091TIP3    H133832   2.631   5.834   1.325  0.1547 -0.2731  0.5598
 4091TIP3    H233833   2.578   5.739   1.220 -0.0678  0.1366  0.2954
 4092TIP3   OH233834   5.083   2.117   1.190 -0.1463 -0.0325 -0.1007
 4092TIP3    H133835   4.994   2.092   1.215 -0.1943 -2.6858 -2.4136
 4092TIP3    H233836   5.071   2.189   1.127 -0.5100  0.7816  0.8747
 4093TIP3   OH233837   2.730   4.976   2.148  0.1936  0.0445 -0.3427
 4093TIP3    H133838   2.791   4.943   2.082  1.9052 -0.1633  1.2552
 4093TIP3    H233839   2.778   5.045   2.193 -0.3777 -0.7068  1.5325
 4094TIP3   OH233840   5.485   6.076   2.308 -0.2611  0.0687  0.5089
 4094TIP3    H133841   5.452   5.986   2.306 -0.8102  0.2810 -0.8046
 4094TIP3    H233842   5.577   6.067   2.334 -0.1503 -0.9237 -0.1679
 4095TIP3   OH233843   6.680   2.246   0.759  0.3184  0.3124 -0.0296
 4095TIP3    H133844   6.764   2.206   0.782  0.0802 -0.6696 -0.7837
 4095TIP3    H233845   6.616   2.176   0.772  0.1454 -0.3307 -3.4066
 4096TIP3   OH233846   2.150   2.821   2.644 -0.2484  0.1007  0.9619
 4096TIP3    H133847   2.205   2.742   2.643 -0.9700 -0.4187 -0.4994
 4096TIP3    H233848   2.077   2.799   2.700 -0.8937 -0.6175 -0.1294
 4097TIP3   OH233849   6.392   3.086   2.529  0.1827  0.3854  0.2041
 4097TIP3    H133850   6.316   3.047   2.572 -0.4568  1.6858  0.3054
 4097TIP3    H233851   6.355   3.134   2.455  1.0449  0.0458 -0.4584
 4098TIP3   OH233852   3.295   5.203   0.869 -0.5846  0.0665 -0.3337
 4098TIP3    H133853   3.357   5.234   0.802 -0.5750 -0.6883 -0.6827
 4098TIP3    H233854   3.236   5.277   0.883  1.4561  1.4966  1.3501
 4099TIP3   OH233855   1.837   0.692   3.677  0.1837 -0.3360 -0.2000
 4099TIP3    H133856   1.834   0.612   3.625  1.1506  0.2705 -1.2262
 4099TIP3    H233857   1.746   0.707   3.705 -0.7017  0.1834 -3.0661
 4100TIP3   OH233858   1.837   3.992   1.783  0.2518 -0.4438 -0.0028
 4100TIP3    H133859   1.756   3.964   1.740 -0.5458 -0.5399  1.4732
 4100TIP3    H233860   1.819   3.978   1.876  1.7541  0.1264  0.3870
 4101TIP3   OH233861   2.243   6.481   2.925  0.3759  0.2447  0.1280
 4101TIP3    H133862   2.225   6.393   2.958 -0.4504  0.2725 -0.2151
 4101TIP3    H233863   2.272   6.531   3.001  0.4269 -0.2119  0.4088
 4102TIP3   OH233864   3.681   0.369   1.902 -0.0826 -0.4326  0.1782
 4102TIP3    H133865   3.733   0.301   1.946  0.6696  1.2992  2.1461
 4102TIP3    H233866   3.614   0.392   1.967  0.2111  1.2799 -0.1029
 4103TIP3   OH233867   3.227   6.057   2.200 -0.1360  0.1625  0.3728
 4103TIP3    H133868   3.311   6.043   2.156 -0.5115 -0.6132 -0.1242
 4103TIP3    H233869   3.250   6.072   2.292  0.4927 -0.9891  0.4246
 4104TIP3   OH233870   3.722   3.946   1.127  0.1661  0.6414 -0.0424
 4104TIP3    H133871   3.791   3.934   1.061  0.0398 -1.5712  0.1361
 4104TIP3    H233872   3.640   3.933   1.078  0.0171  0.2105  0.3191
 4105TIP3   OH233873   5.258   5.373   3.931  0.8027 -0.7052 -0.1666
 4105TIP3    H133874   5.289   5.340   4.016 -0.6408 -2.4514 -0.2601
 4105TIP3    H233875   5.164   5.388   3.944  0.4547 -1.5035 -1.5716
 4106TIP3   OH233876   6.245   4.538   2.984 -0.2409  0.2217  0.3713
 4106TIP3    H133877   6.284   4.453   2.968 -2.7382 -0.9902  0.2162
 4106TIP3    H233878   6.212   4.533   3.074  1.4852  1.8939  1.1813
 4107TIP3   OH233879   4.606   3.376   0.524  0.0176  0.6979 -0.3162
 4107TIP3    H133880   4.513   3.358   0.536  0.2448  0.0045  0.5618
 4107TIP3    H233881   4.609   3.463   0.484 -0.9877  1.0791  0.3789
 4108TIP3   OH233882   1.733   4.409   4.406  0.0273  0.4097  0.1610
 4108TIP3    H133883   1.760   4.401   4.497  0.7196  0.8710  0.0086
 4108TIP3    H233884   1.669   4.340   4.393  1.7070 -1.2499  0.3474
 4109TIP3   OH233885   0.348   4.364   2.187  0.3157  0.7557 -0.4591
 4109TIP3    H133886   0.307   4.277   2.193  2.0556 -0.1383 -0.8679
 4109TIP3    H233887   0.311   4.413   2.260 -0.6860 -0.3324 -0.2067
 4110TIP3   OH233888   5.467   5.778   0.038  0.1962  0.0170  0.2562
 4110TIP3    H133889   5.493   5.756   0.128  0.4499 -0.6588  0.0208
 4110TIP3    H233890   5.544   5.758  -0.015 -0.5003 -1.1888 -0.3299
 4111TIP3   OH233891   2.370   2.428   2.473 -0.4361  0.0428  0.2936
 4111TIP3    H133892   2.357   2.492   2.403  0.2127 -0.1856 -0.0336
 4111TIP3    H233893   2.334   2.346   2.438 -0.5298  0.0341  0.4073
 4112TIP3   OH233894   0.542   5.050   1.970  0.0110  0.0179 -0.3105
 4112TIP3    H133895   0.479   5.029   2.040  1.1312 -1.4074  0.3174
 4112TIP3    H233896   0.616   4.993   1.986  1.1673  1.1111 -1.5082
 4113TIP3   OH233897   1.589   4.962   3.644 -0.6265 -0.2641  0.0574
 4113TIP3    H133898   1.600   4.892   3.579  0.2702  1.2406 -1.4834
 4113TIP3    H233899   1.670   5.013   3.637 -1.2196  0.8663  1.2185
 4114TIP3   OH233900   5.947   4.741   1.359 -0.0712  0.7713  0.0839
 4114TIP3    H133901   6.033   4.711   1.332  0.6566  2.3004  0.5923
 4114TIP3    H233902   5.959   4.776   1.447 -1.7466 -1.2076  1.2104
 4115TIP3   OH233903   3.814   6.282   0.732  0.2324  0.1317 -0.0332
 4115TIP3    H133904   3.858   6.279   0.647 -0.3119  1.1436 -0.3644
 4115TIP3    H233905   3.739   6.224   0.721  0.9974 -0.9559  0.2730
 4116TIP3   OH233906   6.642   1.719   2.003 -0.2821  0.1352 -0.1159
 4116TIP3    H133907   6.651   1.766   2.086  0.6717 -0.1180 -0.0644
 4116TIP3    H233908   6.718   1.746   1.952 -0.2743 -0.5581 -0.4854
 4117TIP3   OH233909   5.729   2.037   0.815 -0.4163 -0.2017  0.4717
 4117TIP3    H133910   5.686   2.012   0.897  0.1373 -0.0844  0.8020
 4117TIP3    H233911   5.822   2.019   0.829 -0.3566 -0.4957 -0.2542
 4118TIP3   OH233912   5.416   4.062   2.246 -0.0985 -0.3551 -0.1095
 4118TIP3    H133913   5.497   4.040   2.293 -0.2774 -1.3980 -0.2651
 4118TIP3    H233914   5.388   4.144   2.285  1.6299  0.6157 -0.8132
 4119TIP3   OH233915   4.381   0.112   0.140  0.0233  0.2596  0.5769
 4119TIP3    H133916   4.339   0.196   0.124 -0.8864 -0.4666 -1.1090
 4119TIP3    H233917   4.315   0.059   0.183  0.2189  0.0646  0.6421
 4120TIP3   OH233918   5.659   3.352   2.564 -0.3882 -0.2228 -0.0925
 4120TIP3    H133919   5.693   3.345   2.654  0.4455 -0.5858 -0.4300
 4120TIP3    H233920   5.678   3.442   2.538  1.2426 -0.6866 -0.6253
 4121TIP3   OH233921   5.318   6.149   2.844 -0.7976  0.0998  0.7756
 4121TIP3    H133922   5.282   6.219   2.899 -0.5375  0.8282  0.0335
 4121TIP3    H233923   5.332   6.190   2.759  1.4263 -0.2502  0.9117
 4122TIP3   OH233924   4.989   4.895   3.973  0.7437  0.3606  0.3887
 4122TIP3    H133925   4.972   4.973   3.919  0.4165 -0.3711 -0.5942
 4122TIP3    H233926   4.927   4.903   4.046  1.2924  1.4357  0.7770
 4123TIP3   OH233927   1.077   1.044   1.635  0.4969 -0.5049  0.0948
 4123TIP3    H133928   0.993   0.999   1.620  1.1740 -3.1078  3.1252
 4123TIP3    H233929   1.052   1.135   1.654 -1.2959 -0.4377 -2.1013
 4124TIP3   OH233930   4.259   4.737   0.852  0.4649  0.9970  0.3707
 4124TIP3    H133931   4.191   4.717   0.788  0.4622 -1.5338  1.0600
 4124TIP3    H233932   4.341   4.733   0.803  0.4746 -1.0617  0.4613
 4125TIP3   OH233933   0.597   5.056   0.964 -0.6201  0.0002  0.0148
 4125TIP3    H133934   0.528   5.100   0.914 -1.2891  1.1534  1.8490
 4125TIP3    H233935   0.627   5.122   1.027  0.4136 -1.2880  0.9270
 4126TIP3   OH233936   2.158   2.114   1.229  0.1968 -0.2418  0.1467
 4126TIP3    H133937   2.128   2.090   1.317 -0.7642 -0.0300 -0.1107
 4126TIP3    H233938   2.234   2.058   1.214 -0.6020 -1.4581  0.4853
 4127TIP3   OH233939   2.198   3.680   1.309  0.0921  0.5903  0.2640
 4127TIP3    H133940   2.115   3.634   1.320  0.7234 -0.6569  0.0174
 4127TIP3    H233941   2.184   3.739   1.235 -0.2643 -0.3835 -0.4672
 4128TIP3   OH233942   6.281   3.808   3.555 -0.5359  0.4577  0.0845
 4128TIP3    H133943   6.323   3.806   3.641  0.5540 -0.5196 -0.4439
 4128TIP3    H233944   6.324   3.739   3.506 -1.0545  1.0863 -1.3010
 4129TIP3   OH233945   5.757   2.688   1.474 -0.0303  0.4059 -0.1910
 4129TIP3    H133946   5.723   2.599   1.486 -2.3251  1.2906  0.4138
 4129TIP3    H233947   5.682   2.738   1.443  1.3544  2.0451 -1.0651
 4130TIP3   OH233948   5.224   4.139   3.960  0.4125 -0.4552 -0.0989
 4130TIP3    H133949   5.152   4.183   3.916  0.4510  0.2902  0.5653
 4130TIP3    H233950   5.223   4.174   4.049  1.2134 -0.8834  0.0882
 4131TIP3   OH233951   4.578   4.988   1.044 -0.2904 -0.0404 -0.3026
 4131TIP3    H133952   4.585   4.981   1.139  0.3820 -2.9194 -0.4647
 4131TIP3    H233953   4.642   5.055   1.020  1.2679 -0.9383  1.1117
 4132TIP3   OH233954   0.678   1.347   1.813  0.0020  0.4231 -0.0361
 4132TIP3    H133955   0.770   1.345   1.839 -0.2779 -0.2080  0.9869
 4132TIP3    H233956   0.673   1.289   1.737  0.2924 -0.3724  0.5283
 4133TIP3   OH233957   5.288   4.165   1.567 -0.0372 -0.6496  0.0426
 4133TIP3    H133958   5.361   4.108   1.593 -0.7563 -1.4757  0.3257
 4133TIP3    H233959   5.256   4.127   1.485 -1.7011 -1.8397  1.1627
 4134TIP3   OH233960   1.226   6.672   2.503 -0.1622  0.6135 -0.1922
 4134TIP3    H133961   1.252   6.756   2.464 -0.8542  0.7474 -0.3941
 4134TIP3    H233962   1.297   6.650   2.563 -0.0425  1.4279 -0.0191
 4135TIP3   OH233963   0.043   0.149   2.904  0.2582  0.3521  0.3598
 4135TIP3    H133964   0.116   0.102   2.864 -1.0275  1.2178 -3.4088
 4135TIP3    H233965  -0.012   0.079   2.941  2.0771 -0.4134  1.7867
 4136TIP3   OH233966   1.836   1.011   1.220  0.4744 -0.0255  0.6920
 4136TIP3    H133967   1.741   1.004   1.231  0.5194  0.2637  1.2853
 4136TIP3    H233968   1.871   0.997   1.308  0.9017  1.4114  0.7673
 4137TIP3   OH233969   4.537   3.048   2.302  0.4435 -0.0592 -0.1720
 4137TIP3    H133970   4.591   3.049   2.381 -0.4176  1.2672  0.4290
 4137TIP3    H233971   4.553   3.133   2.261  0.0240 -0.2907 -0.8352
 4138TIP3   OH233972   5.249   3.131   1.512 -0.1320  0.0299  0.6398
 4138TIP3    H133973   5.255   3.035   1.503  0.5144  0.0179  1.1022
 4138TIP3    H233974   5.225   3.161   1.424  1.5703 -0.4277 -0.0382
 4139TIP3   OH233975   1.859   6.649   4.206 -1.0759 -0.8539 -0.0227
 4139TIP3    H133976   1.822   6.561   4.199 -1.6313 -0.5941 -0.4585
 4139TIP3    H233977   1.929   6.641   4.271 -0.1913 -1.9177 -1.0760
 4140TIP3   OH233978   4.372   5.582   1.933 -0.1939  0.2873  0.1492
 4140TIP3    H133979   4.326   5.619   2.009  1.6189 -0.1775  1.5291
 4140TIP3    H233980   4.387   5.490   1.956  0.0865  0.0361 -0.9514
 4141TIP3   OH233981   6.487   1.498   1.080  0.2741 -0.1884  0.1619
 4141TIP3    H133982   6.407   1.464   1.038  1.4131 -1.4085 -1.1239
 4141TIP3    H233983   6.513   1.572   1.024  0.0703  0.2167  0.5895
 4142TIP3   OH233984   0.212   4.124   2.200 -0.1960 -0.3455 -0.7302
 4142TIP3    H133985   0.185   4.061   2.267 -0.2882 -1.3753 -1.7013
 4142TIP3    H233986   0.137   4.182   2.190 -0.6680 -0.9687 -0.8395
 4143TIP3   OH233987   3.076   1.676   0.961 -0.3565 -0.1619  0.2839
 4143TIP3    H133988   3.137   1.642   1.027  0.9421  0.1563 -0.7110
 4143TIP3    H233989   3.107   1.764   0.943 -0.5969 -0.2947 -0.8612
 4144TIP3   OH233990   5.157   3.523   3.201 -0.0069 -0.1698 -0.1277
 4144TIP3    H133991   5.101   3.537   3.125 -0.7955 -3.2666 -0.2512
 4144TIP3    H233992   5.137   3.596   3.260  0.0896  1.8964 -2.5133
 4145TIP3   OH233993   0.348   4.759   4.806 -0.7222  0.5807  0.2148
 4145TIP3    H133994   0.258   4.772   4.837 -1.8962 -4.7628 -0.0464
 4145TIP3    H233995   0.340   4.755   4.711 -0.1873  0.2200  0.1845
 4146TIP3   OH233996   6.667   3.616   0.328  0.1884 -0.1261 -0.3527
 4146TIP3    H133997   6.636   3.542   0.381  0.0265 -0.5658 -1.0394
 4146TIP3    H233998   6.705   3.575   0.250  1.4987  0.4615 -0.0479
 4147TIP3   OH233999   5.098   5.442   3.706  0.5579 -0.1168  0.3759
 4147TIP3    H134000   5.171   5.493   3.672 -0.6750  0.6204 -1.3166
 4147TIP3    H234001   5.133   5.399   3.784  2.5221  0.8847  0.1115
 4148TIP3   OH234002   5.218   0.335   2.076 -0.5005 -0.2795 -0.3783
 4148TIP3    H134003   5.219   0.422   2.116 -0.6965  0.7159 -2.4193
 4148TIP3    H234004   5.125   0.320   2.056 -0.5697 -1.3088  0.6060
 4149TIP3   OH234005   1.310   6.399   0.638  0.2386 -0.3734 -0.0795
 4149TIP3    H134006   1.390   6.352   0.661  0.1734  0.0942  1.1457
 4149TIP3    H234007   1.292   6.455   0.714 -0.9705 -0.1000 -0.5522
 4150TIP3   OH234008   2.996   2.071   3.340 -1.0992  0.4518  0.2035
 4150TIP3    H134009   2.956   2.146   3.384  1.1444  1.3105  0.9590
 4150TIP3    H234010   3.017   2.103   3.252 -1.7752  0.1080 -0.0856
 4151TIP3   OH234011   5.508   0.693   1.486  0.1897  0.0905  0.0068
 4151TIP3    H134012   5.566   0.678   1.561  0.5883 -0.3278 -0.3754
 4151TIP3    H234013   5.420   0.691   1.522  0.3993  0.3092  0.5311
 4152TIP3   OH234014   0.819   2.194   2.105  0.0071  0.1076 -0.6621
 4152TIP3    H134015   0.861   2.149   2.178 -0.6409  0.2328 -0.2136
 4152TIP3    H234016   0.726   2.172   2.112 -0.2234  0.9944 -0.8109
 4153TIP3   OH234017   0.557   2.448   3.609 -0.3454 -0.3967  0.0910
 4153TIP3    H134018   0.619   2.395   3.558  0.0364 -1.9889  2.0678
 4153TIP3    H234019   0.608   2.525   3.635 -0.3418  0.0987 -1.2994
 4154TIP3   OH234020   2.524   4.316   3.851 -0.1511  0.4950 -0.3032
 4154TIP3    H134021   2.550   4.248   3.789 -0.3195  0.4635 -0.3398
 4154TIP3    H234022   2.589   4.310   3.921 -1.9718 -1.9683  1.3843
 4155TIP3   OH234023   3.090   2.601   1.136 -0.0537 -0.8348 -0.3335
 4155TIP3    H134024   3.164   2.541   1.136  1.2422  0.5290  2.8358
 4155TIP3    H234025   3.120   2.677   1.087  0.1751 -0.8085 -0.1549
 4156TIP3   OH234026   1.900   0.390   1.100 -0.1095  0.0057  0.6995
 4156TIP3    H134027   1.853   0.454   1.047 -0.2460  0.0418  0.8651
 4156TIP3    H234028   1.875   0.305   1.063 -2.2438 -0.1439  2.2983
 4157TIP3   OH234029   5.151   3.440   2.455  0.1503  0.0267  0.1488
 4157TIP3    H134030   5.239   3.466   2.428  0.3600 -0.1643  0.6483
 4157TIP3    H234031   5.127   3.369   2.396  0.6659 -0.4874  0.5450
 4158TIP3   OH234032   5.674   0.689   0.449 -0.0335 -0.4351  0.2669
 4158TIP3    H134033   5.622   0.620   0.408 -1.3925  0.1994  0.8476
 4158TIP3    H234034   5.711   0.738   0.375 -0.5949 -0.6617 -0.1737
 4159TIP3   OH234035   2.729   6.572   3.943  0.2849 -0.4967  0.0281
 4159TIP3    H134036   2.816   6.550   3.977  0.1922  2.6822  2.8066
 4159TIP3    H234037   2.745   6.637   3.875  0.1265 -0.1360  0.3297
 4160TIP3   OH234038   0.525   2.695   3.255 -0.4344 -0.6376  0.4230
 4160TIP3    H134039   0.580   2.668   3.181 -1.2071 -1.8762  0.2678
 4160TIP3    H234040   0.501   2.613   3.298 -1.2335 -0.0361  1.1513
 4161TIP3   OH234041   2.150   1.899   2.288  0.6981  0.2654  0.2710
 4161TIP3    H134042   2.085   1.948   2.339  0.3250 -0.5080  0.5545
 4161TIP3    H234043   2.101   1.825   2.251  0.6740  1.4197 -2.1968
 4162TIP3   OH234044   0.063   1.063   1.506  0.0686  0.3399  0.2108
 4162TIP3    H134045  -0.017   1.013   1.522  1.4216 -2.0430 -0.0867
 4162TIP3    H234046   0.038   1.128   1.440 -0.9507 -2.4213 -2.3280
 4163TIP3   OH234047   5.363   0.967   1.428 -0.1816  0.1495  0.0509
 4163TIP3    H134048   5.384   0.878   1.398 -0.7357 -0.1802  0.5951
 4163TIP3    H234049   5.282   0.956   1.478  0.9222  0.5739  2.0423
 4164TIP3   OH234050   5.843   4.806   4.936  0.4319  0.0964 -0.2337
 4164TIP3    H134051   5.866   4.723   4.978 -0.7590  0.1618  0.5895
 4164TIP3    H234052   5.757   4.791   4.897  0.1342  0.9885  0.0517
 4165TIP3   OH234053   4.657   6.213   0.853  0.1008  0.2246 -0.0290
 4165TIP3    H134054   4.746   6.217   0.818  0.2765  1.0469  0.4879
 4165TIP3    H234055   4.602   6.236   0.778  0.4227  1.1676  0.0090
 4166TIP3   OH234056   0.486   2.144   3.628  0.8940  0.4019 -0.0346
 4166TIP3    H134057   0.439   2.199   3.690  0.6755  0.4188 -0.2123
 4166TIP3    H234058   0.519   2.205   3.562 -1.9522  0.0710 -1.9397
 4167TIP3   OH234059   0.635   1.315   3.031  0.1920 -0.2965 -0.5663
 4167TIP3    H134060   0.651   1.337   3.123 -0.7160  0.8000 -0.6469
 4167TIP3    H234061   0.706   1.358   2.983 -0.1140  0.2964 -0.4930
 4168TIP3   OH234062   4.504   4.440   5.022 -0.3805 -0.0360 -0.6874
 4168TIP3    H134063   4.527   4.513   5.079 -2.0590  1.0509 -1.3158
 4168TIP3    H234064   4.508   4.477   4.934  0.5648 -1.2434 -1.1725
 4169TIP3   OH234065   0.691   1.295   2.554  0.0562  0.0256 -0.2473
 4169TIP3    H134066   0.635   1.226   2.518  2.0099 -1.1436 -1.1623
 4169TIP3    H234067   0.643   1.326   2.631 -1.0560 -2.1084 -0.0016
 4170TIP3   OH234068   1.439   6.663   2.689 -0.3021  0.2489  0.0138
 4170TIP3    H134069   1.502   6.718   2.643  1.3644  0.1899  2.0540
 4170TIP3    H234070   1.486   6.634   2.768 -1.4619 -3.1874 -0.3980
 4171TIP3   OH234071   6.898   2.891   3.106  0.7117  0.4744  0.4141
 4171TIP3    H134072   6.878   2.904   3.198  1.1254  1.0525  0.4307
 4171TIP3    H234073   6.987   2.856   3.105  0.7261  0.5110  0.2377
 4172TIP3   OH234074   6.212   2.345   0.408 -0.1808  0.2680  0.1973
 4172TIP3    H134075   6.148   2.391   0.463  0.0357  1.5539 -0.5903
 4172TIP3    H234076   6.297   2.368   0.445 -0.1148 -0.9780  0.8888
 4173TIP3   OH234077   2.665   3.082   3.935 -0.2096  0.3224 -0.4664
 4173TIP3    H134078   2.606   3.014   3.969  1.5520 -0.1969  1.8600
 4173TIP3    H234079   2.616   3.164   3.944 -1.2590 -0.3076 -0.3907
 4174TIP3   OH234080   2.245   6.267   2.683  0.0628 -0.2453 -0.4513
 4174TIP3    H134081   2.256   6.312   2.767  0.4815 -0.4566 -0.3929
 4174TIP3    H234082   2.333   6.260   2.647 -0.0384 -0.7384 -0.6117
 4175TIP3   OH234083   6.613   6.814   2.290 -0.4119  0.5091  0.4129
 4175TIP3    H134084   6.520   6.800   2.311 -1.3571  3.0772 -1.4928
 4175TIP3    H234085   6.614   6.824   2.195  1.5046  2.5659  0.5943
 4176TIP3   OH234086   4.581   6.826   3.452 -0.3199 -0.6545 -0.1373
 4176TIP3    H134087   4.641   6.752   3.453  1.0620  0.3300 -2.1559
 4176TIP3    H234088   4.511   6.802   3.512  0.7549 -2.9932  0.2727
 4177TIP3   OH234089   0.492   2.504   1.968 -0.1416  0.3110 -0.0658
 4177TIP3    H134090   0.555   2.575   1.953  0.0763  0.5668  1.8396
 4177TIP3    H234091   0.508   2.476   2.058 -2.4691  0.0781  0.3387
 4178TIP3   OH234092   4.335   1.433   1.876  0.4133  0.5636 -0.2570
 4178TIP3    H134093   4.282   1.481   1.811 -2.1546  0.2235  1.4404
 4178TIP3    H234094   4.303   1.343   1.871  0.6322  0.4014  1.0075
 4179TIP3   OH234095   6.205   3.261   1.751 -0.1156 -0.0056 -0.2341
 4179TIP3    H134096   6.227   3.351   1.730 -0.8204  0.1702 -0.2602
 4179TIP3    H234097   6.200   3.217   1.667 -0.7142  0.1629 -0.2911
 4180TIP3   OH234098   0.307   0.949   1.706 -0.2134 -0.1563  0.0467
 4180TIP3    H134099   0.223   0.976   1.668  0.0758  1.3405  0.3888
 4180TIP3    H234100   0.294   0.958   1.801  0.7110  1.3950  0.0614
 4181TIP3   OH234101   2.117   2.498   3.040  0.4400 -0.4013 -0.4055
 4181TIP3    H134102   2.169   2.578   3.049  0.0382 -0.0920 -0.7760
 4181TIP3    H234103   2.181   2.429   3.028  0.7538  0.1799 -2.4498
 4182TIP3   OH234104   5.822   1.761   1.137  0.7210  0.4225 -0.6303
 4182TIP3    H134105   5.785   1.680   1.102 -0.0352  0.5457 -0.1400
 4182TIP3    H234106   5.903   1.774   1.087  0.1631  0.0902 -1.6587
 4183TIP3   OH234107   6.306   2.728   1.781  0.2247  0.0723  0.1332
 4183TIP3    H134108   6.358   2.668   1.726  0.4241  0.7490 -0.4330
 4183TIP3    H234109   6.365   2.751   1.853 -0.5166 -1.9404  1.4645
 4184TIP3   OH234110   3.522   0.081   1.093  0.3994  0.4792 -0.4679
 4184TIP3    H134111   3.436   0.104   1.060  0.6303 -0.1609 -1.5736
 4184TIP3    H234112   3.569   0.164   1.101 -1.0936  1.1742  2.6401
 4185TIP3   OH234113   4.934   1.547   4.087 -0.3137 -0.1820  0.3904
 4185TIP3    H134114   4.960   1.639   4.088 -0.5066 -0.1139  2.1178
 4185TIP3    H234115   4.991   1.505   4.152 -0.5008 -1.1973 -0.0903
 4186TIP3   OH234116   0.360   3.944   2.435  0.7102 -0.6058  0.4166
 4186TIP3    H134117   0.357   4.016   2.498 -0.7342 -1.4425  1.3693
 4186TIP3    H234118   0.268   3.919   2.422  0.9736 -0.6460 -1.8512
 4187TIP3   OH234119   3.526   4.928   1.020 -0.7629 -0.0506  0.1143
 4187TIP3    H134120   3.474   4.928   0.940 -2.4889  2.0161  1.1627
 4187TIP3    H234121   3.602   4.982   0.999 -0.8258 -0.1301 -0.3314
 4188TIP3   OH234122   2.682   1.954   8.390 -0.1799 -0.1868 -0.4661
 4188TIP3    H134123   2.683   1.867   8.351  3.4907 -0.0387 -1.0065
 4188TIP3    H234124   2.709   1.939   8.481 -1.9242  0.2055  0.1545
 4189TIP3   OH234125   3.227   2.976   0.687  0.2519  0.5802 -0.4438
 4189TIP3    H134126   3.301   2.920   0.664 -1.1982 -2.1446  1.0981
 4189TIP3    H234127   3.260   3.031   0.758  0.3746 -2.0161  1.6652
 4190TIP3   OH234128   1.215   2.580   1.626 -0.1460 -0.0286  1.0403
 4190TIP3    H134129   1.131   2.588   1.671 -0.8217 -1.7232  0.1469
 4190TIP3    H234130   1.204   2.506   1.567  1.4297  0.7637 -0.3400
 4191TIP3   OH234131   5.015   6.871   3.810  0.8038 -0.2766  0.2812
 4191TIP3    H134132   4.929   6.831   3.800  0.1156  0.3013  3.0323
 4191TIP3    H234133   5.011   6.951   3.757 -0.1845 -0.4632  0.0624
 4192TIP3   OH234134   6.636   2.415   3.544  0.3455 -0.1723  0.0820
 4192TIP3    H134135   6.547   2.433   3.574  0.0784 -0.5341 -0.4804
 4192TIP3    H234136   6.686   2.493   3.569 -0.5350  0.8850 -1.2907
 4193TIP3   OH234137   0.447   1.474   0.957 -0.1257 -0.4880  0.0189
 4193TIP3    H134138   0.398   1.439   0.883  0.5049 -1.7227  0.1607
 4193TIP3    H234139   0.485   1.398   0.999  0.9444  0.3390  0.6065
 4194TIP3   OH234140   2.976   1.570   2.570  0.0634  0.1445 -0.3684
 4194TIP3    H134141   2.899   1.515   2.586  0.4670 -0.6272 -1.0308
 4194TIP3    H234142   3.043   1.509   2.540  1.2601  0.6363  1.1470
 4195TIP3   OH234143   4.483   1.689   3.176  0.0202  0.6116  0.3272
 4195TIP3    H134144   4.543   1.744   3.226 -0.4160  2.2019 -0.7878
 4195TIP3    H234145   4.518   1.692   3.086 -0.0616 -0.9117  0.2270
 4196TIP3   OH234146   6.228   1.743   3.914  0.3712  0.2126  0.2435
 4196TIP3    H134147   6.160   1.722   3.850 -0.4659  2.4489  0.2923
 4196TIP3    H234148   6.239   1.663   3.965 -0.9267 -0.7626 -0.9457
 4197TIP3   OH234149   3.557   4.487   0.596 -0.5566  0.1704 -0.1360
 4197TIP3    H134150   3.490   4.555   0.588 -0.8204 -0.1521 -0.6819
 4197TIP3    H234151   3.562   4.447   0.509  1.6510  1.3996 -0.6458
 4198TIP3   OH234152   0.444   4.629   3.796 -0.0264 -0.0292  0.3507
 4198TIP3    H134153   0.516   4.641   3.734 -0.8265 -1.0335 -0.8287
 4198TIP3    H234154   0.472   4.676   3.875  0.5180  2.2894 -1.1378
 4199TIP3   OH234155   0.569   2.712   1.613 -0.1387  0.1410  0.7524
 4199TIP3    H134156   0.520   2.720   1.531 -0.8479 -0.1823  1.1365
 4199TIP3    H234157   0.581   2.802   1.643  2.1272  0.4477 -0.8444
 4200TIP3   OH234158   6.655   0.434   0.259 -0.2268  0.4010 -0.2272
 4200TIP3    H134159   6.627   0.343   0.248 -2.3531  0.9483  0.1201
 4200TIP3    H234160   6.609   0.464   0.338 -0.4446  2.0850 -0.9480
 4201TIP3   OH234161   0.641   3.206   2.889  0.2752 -0.2877  0.1705
 4201TIP3    H134162   0.654   3.289   2.843  0.0942 -0.4572 -0.1894
 4201TIP3    H234163   0.576   3.159   2.836  1.1605 -1.1075 -0.2149
 4202TIP3   OH234164   4.721   2.204   0.350  0.5347 -0.1911 -0.5492
 4202TIP3    H134165   4.658   2.222   0.419  1.0189  0.3888 -0.2532
 4202TIP3    H234166   4.694   2.119   0.314  0.3317 -0.5390  0.4069
 4203TIP3   OH234167   5.364   1.029   2.282  0.5537  0.2503  0.5072
 4203TIP3    H134168   5.269   1.021   2.285  0.5734  0.2653  1.7809
 4203TIP3    H234169   5.383   1.055   2.192 -0.5680 -0.6002  0.0066
 4204TIP3   OH234170   2.992   3.415   4.377  0.9104  0.0501 -0.5223
 4204TIP3    H134171   2.980   3.442   4.468 -0.3690 -2.0070 -0.0083
 4204TIP3    H234172   3.085   3.431   4.359  1.0146  1.1982  0.8850
 4205TIP3   OH234173   0.601   2.424   2.228  0.4235  1.0598  0.3489
 4205TIP3    H134174   0.572   2.354   2.286  1.3144  0.7656  0.4570
 4205TIP3    H234175   0.696   2.427   2.239  0.3993  2.3607  0.4353
 4206TIP3   OH234176   4.565   0.229   2.283  0.4040 -0.8697 -0.3642
 4206TIP3    H134177   4.572   0.233   2.188  0.7577 -0.8623 -0.3392
 4206TIP3    H234178   4.651   0.198   2.312  0.6288  0.0702  0.0160
 4207TIP3   OH234179   4.259   5.371   3.140  0.0755 -0.0997 -0.3349
 4207TIP3    H134180   4.310   5.290   3.144 -0.4002 -0.3601  0.6878
 4207TIP3    H234181   4.313   5.431   3.088  1.4233 -0.3616  0.7087
 4208TIP3   OH234182   5.085   2.263   4.114  0.0981  0.2949  0.0887
 4208TIP3    H134183   5.157   2.201   4.123  0.1925  0.3290 -0.3775
 4208TIP3    H234184   5.051   2.247   4.026 -0.2547  0.5038  0.1834
 4209TIP3   OH234185   4.062   0.279   1.113  0.1904 -0.3630 -0.4019
 4209TIP3    H134186   4.073   0.238   1.027  1.6487  0.0242 -0.4277
 4209TIP3    H234187   4.114   0.225   1.173  2.0451  1.2955 -0.4107
 4210TIP3   OH234188   1.300   2.888   2.374  0.0379  0.1803  0.0177
 4210TIP3    H134189   1.393   2.869   2.385 -0.2122 -1.5304 -0.5839
 4210TIP3    H234190   1.255   2.809   2.403 -1.2660  1.0646  0.5421
 4211TIP3   OH234191   3.543   3.991   4.167 -0.0134 -0.2275 -0.3451
 4211TIP3    H134192   3.519   3.921   4.107 -0.5155 -0.2853 -0.0846
 4211TIP3    H234193   3.522   3.956   4.254 -0.0279  0.1501 -0.1942
 4212TIP3   OH234194   3.838   4.986   1.933  0.2005 -0.4310 -0.2965
 4212TIP3    H134195   3.783   4.911   1.953  0.5299 -0.1538  1.9530
 4212TIP3    H234196   3.844   5.034   2.016  1.4975  1.0749 -1.2013
 4213TIP3   OH234197   1.313   3.429   3.348  0.0949 -0.0075 -0.7763
 4213TIP3    H134198   1.238   3.470   3.392 -0.0114 -0.9632 -0.0244
 4213TIP3    H234199   1.345   3.495   3.288 -1.2927  0.4647 -1.0250
 4214TIP3   OH234200   3.801   6.355   2.528 -0.2591  0.6963  0.3078
 4214TIP3    H134201   3.743   6.426   2.504  1.5927  2.6610  1.2876
 4214TIP3    H234202   3.885   6.397   2.546  0.6983 -1.6220  1.8356
 4215TIP3   OH234203   3.800   6.854   3.851 -0.0470 -0.4583  0.4813
 4215TIP3    H134204   3.882   6.840   3.899  0.6471  1.1213 -0.1532
 4215TIP3    H234205   3.737   6.879   3.917  0.5149  0.2508  0.7652
 4216TIP3   OH234206   0.928   1.225   2.638 -0.1940 -0.2091  0.3713
 4216TIP3    H134207   0.907   1.136   2.611 -0.8439  0.0250  0.0947
 4216TIP3    H234208   0.847   1.274   2.625  0.3675  0.5878 -0.1820
 4217TIP3   OH234209   1.331   2.169   4.538  0.0409 -0.0943  0.0588
 4217TIP3    H134210   1.273   2.242   4.560 -0.0804 -0.2112  0.1228
 4217TIP3    H234211   1.372   2.146   4.621 -1.9687 -1.9196  0.6231
 4218TIP3   OH234212   4.260   4.685   3.805  0.6433  0.3647 -0.5536
 4218TIP3    H134213   4.244   4.596   3.773 -1.0560  0.8273 -1.0989
 4218TIP3    H234214   4.228   4.742   3.735  1.4467  1.4291 -0.0946
 4219TIP3   OH234215   3.988   2.181   1.980 -0.6294 -0.5059  0.0584
 4219TIP3    H134216   4.017   2.229   1.903 -1.8453 -0.6981 -0.5378
 4219TIP3    H234217   4.050   2.206   2.049  0.7533 -0.6971 -1.0860
 4220TIP3   OH234218   4.885   3.987   0.888 -0.0199 -0.7362  0.1628
 4220TIP3    H134219   4.821   3.925   0.853  1.3054 -0.4985 -3.0675
 4220TIP3    H234220   4.883   4.061   0.827  2.2419 -0.0474  0.8139
 4221TIP3   OH234221   6.513   1.126   0.559  0.2326  0.4948 -0.3912
 4221TIP3    H134222   6.502   1.055   0.495 -2.2516  2.5341 -2.4325
 4221TIP3    H234223   6.581   1.181   0.520  1.5140 -0.2045  0.7546
 4222TIP3   OH234224   5.116   4.562   2.625 -0.1974 -0.4826  0.0859
 4222TIP3    H134225   5.023   4.571   2.647  0.2768  0.2986  2.0102
 4222TIP3    H234226   5.161   4.612   2.693  1.5865  0.3386 -1.6076
 4223TIP3   OH234227   3.598   6.378   1.693  0.6495 -0.2269 -0.3485
 4223TIP3    H134228   3.691   6.360   1.679  0.3886 -2.1996  0.0234
 4223TIP3    H234229   3.564   6.401   1.607  1.3416 -0.2022 -0.6204
 4224TIP3   OH234230   1.718   2.526   1.352 -0.0255  0.2352  0.6618
 4224TIP3    H134231   1.679   2.570   1.428 -0.0833 -0.1840  0.8762
 4224TIP3    H234232   1.761   2.449   1.388  0.2386  0.2164  0.3082
 4225TIP3   OH234233   3.164   2.612   4.052 -0.1163  0.1534  0.1470
 4225TIP3    H134234   3.242   2.626   4.105 -0.6877  0.0637  1.0487
 4225TIP3    H234235   3.131   2.700   4.033  0.3593  0.1993 -0.4862
 4226TIP3   OH234236   5.940   5.907   2.115 -0.2355  0.4408 -0.3281
 4226TIP3    H134237   5.956   6.000   2.136 -1.6454  0.5036  0.6442
 4226TIP3    H234238   5.854   5.907   2.073 -0.1582 -0.4090 -0.4911
 4227TIP3   OH234239   5.233   6.721   4.105 -0.5042 -0.1229 -0.2674
 4227TIP3    H134240   5.322   6.754   4.115 -0.4501 -0.1399 -0.6870
 4227TIP3    H234241   5.177   6.795   4.131 -0.3737  0.0360 -0.4376
 4228TIP3   OH234242   4.154   4.837   2.593 -0.6321 -0.3973 -0.2813
 4228TIP3    H134243   4.078   4.791   2.629 -0.0894 -1.7414 -0.7807
 4228TIP3    H234244   4.131   4.930   2.599 -2.1376 -0.7571 -0.0557
 4229TIP3   OH234245   5.071   2.679   4.868 -0.0595 -0.3972 -0.3878
 4229TIP3    H134246   5.151   2.628   4.873 -0.1878 -0.5513  0.1459
 4229TIP3    H234247   5.095   2.755   4.815  0.8765  0.3372  1.0031
 4230TIP3   OH234248   4.868   0.303   4.514 -0.0872  0.2067 -1.0272
 4230TIP3    H134249   4.949   0.320   4.465  0.8335 -0.2200  0.3133
 4230TIP3    H234250   4.892   0.312   4.606 -2.2479  3.1040 -0.5947
 4231TIP3   OH234251   1.263   3.624   1.036 -0.4291 -0.2186  0.1225
 4231TIP3    H134252   1.342   3.587   0.996 -0.1351  0.4485  0.0813
 4231TIP3    H234253   1.194   3.562   1.012 -0.2815  0.1937 -1.5258
 4232TIP3   OH234254   4.656   0.997   2.455  0.1066 -0.4421  0.6354
 4232TIP3    H134255   4.657   1.068   2.390 -1.6200 -1.5378 -0.6691
 4232TIP3    H234256   4.737   0.948   2.438  0.1270 -0.1775 -0.0594
 4233TIP3   OH234257   4.047   4.831   1.755 -0.4076 -0.1830 -0.0257
 4233TIP3    H134258   3.966   4.829   1.806 -0.9801  0.7074 -0.8659
 4233TIP3    H234259   4.020   4.806   1.667  0.2312  0.0835 -0.3015
 4234TIP3   OH234260   0.095   5.981   0.501 -0.4167  0.4305 -0.6263
 4234TIP3    H134261   0.140   6.046   0.447  2.8496 -0.7836  0.4129
 4234TIP3    H234262   0.112   5.897   0.458 -1.3164 -0.1275  0.0593
 4235TIP3   OH234263   1.346   0.628   1.322  0.3549 -0.2174 -0.2313
 4235TIP3    H134264   1.343   0.580   1.239 -1.0947 -0.4470 -0.0876
 4235TIP3    H234265   1.363   0.561   1.388 -2.0799 -0.6816  0.0151
 4236TIP3   OH234266   6.925   4.948   3.880 -0.0909  0.5325  1.0018
 4236TIP3    H134267   6.851   4.887   3.879  0.3788 -0.1678 -2.6387
 4236TIP3    H234268   7.000   4.894   3.856  0.3900  2.3396 -2.0709
 4237TIP3   OH234269   5.784   2.675   3.831 -0.3295  0.1124  1.0390
 4237TIP3    H134270   5.764   2.671   3.924 -0.0312 -0.7261  1.0809
 4237TIP3    H234271   5.704   2.707   3.790 -0.6466 -0.0374  1.5302
 4238TIP3   OH234272   3.535   6.014   1.558  0.1627 -0.5952 -0.4295
 4238TIP3    H134273   3.512   5.926   1.584 -1.6614  0.2948  1.2105
 4238TIP3    H234274   3.463   6.043   1.502  1.0631 -0.3413 -1.5060
 4239TIP3   OH234275   6.504   5.931   2.190  0.0527 -0.1350 -0.1735
 4239TIP3    H134276   6.590   5.888   2.197  1.0896  1.5753 -1.5632
 4239TIP3    H234277   6.467   5.925   2.278  2.2620  0.3891  0.8556
 4240TIP3   OH234278   0.853   2.926   0.339 -0.5272  0.3385 -0.1460
 4240TIP3    H134279   0.836   2.837   0.310  1.0506 -0.5794  1.5462
 4240TIP3    H234280   0.767   2.962   0.359 -1.1580 -0.9510 -0.4493
 4241TIP3   OH234281   4.246   0.462   2.090 -0.1803  0.0314 -0.1261
 4241TIP3    H134282   4.261   0.554   2.070  0.0367  0.0897  0.2942
 4241TIP3    H234283   4.273   0.452   2.181 -1.4194 -0.1613  0.2479
 4242TIP3   OH234284   1.678   3.053   0.742 -0.3127  0.4140  0.6521
 4242TIP3    H134285   1.718   3.108   0.674  1.1043 -0.2516  0.9091
 4242TIP3    H234286   1.598   3.099   0.766  0.7716  2.3369  0.8102
 4243TIP3   OH234287   2.342   2.278   1.504  0.2359  0.1910  0.0433
 4243TIP3    H134288   2.295   2.299   1.423  2.2447 -0.2214 -1.3261
 4243TIP3    H234289   2.310   2.191   1.528 -0.4723  0.3699 -0.2207
 4244TIP3   OH234290   5.078   1.411   1.895  0.3174 -0.7254 -0.6191
 4244TIP3    H134291   5.005   1.473   1.890 -0.8203 -2.0367 -0.7721
 4244TIP3    H234292   5.075   1.364   1.812  0.7759 -1.4141 -0.2504
 4245TIP3   OH234293   1.153   2.850   8.496 -0.2412 -0.4942 -0.2600
 4245TIP3    H134294   1.057   2.846   8.499 -0.4224  2.2705  0.4715
 4245TIP3    H234295   1.172   2.900   8.416  0.6010 -1.0046 -0.3844
 4246TIP3   OH234296   6.215   2.164   2.421  0.0503 -0.4031 -0.1684
 4246TIP3    H134297   6.309   2.154   2.410  0.1736  0.3523  0.1235
 4246TIP3    H234298   6.203   2.257   2.443 -0.7474 -0.5163 -0.0882
 4247TIP3   OH234299   1.187   0.177   2.327  0.3350 -0.1136  0.2011
 4247TIP3    H134300   1.130   0.155   2.253  0.0544  1.3486 -0.0582
 4247TIP3    H234301   1.128   0.214   2.392  0.4931 -1.9754  1.4461
 4248TIP3   OH234302   2.665   5.879   1.716 -0.1191  0.1649 -0.2658
 4248TIP3    H134303   2.610   5.956   1.697  0.1851  0.1272 -1.3425
 4248TIP3    H234304   2.754   5.911   1.707  0.0752  0.1981  1.3919
 4249TIP3   OH234305   0.772   4.787   2.102 -0.1431  0.1605  0.1704
 4249TIP3    H134306   0.850   4.735   2.119 -0.0722 -0.4369 -1.7421
 4249TIP3    H234307   0.787   4.869   2.149  1.3489 -0.1983  0.3558
 4250TIP3   OH234308   2.827   5.420   8.141  0.3976 -0.5260 -0.3943
 4250TIP3    H134309   2.786   5.467   8.068 -1.8167 -1.3624  0.2370
 4250TIP3    H234310   2.870   5.345   8.099  1.3448  0.3679 -1.0706
 4251TIP3   OH234311   2.437   0.419   1.701  0.6089 -1.0023 -0.2160
 4251TIP3    H134312   2.363   0.402   1.643 -0.1411 -1.6438  0.9047
 4251TIP3    H234313   2.442   0.515   1.706  0.3203 -0.9480 -0.8814
 4252TIP3   OH234314   3.489   2.605   2.370  0.1858 -0.1754  0.6288
 4252TIP3    H134315   3.443   2.639   2.293 -1.1083 -0.3742  1.2981
 4252TIP3    H234316   3.580   2.633   2.357 -0.0960  0.1923 -0.7388
 4253TIP3   OH234317   0.978   0.032   0.514  0.0533  0.1542 -0.0410
 4253TIP3    H134318   1.007   0.008   0.603  0.5428  0.5198 -0.0933
 4253TIP3    H234319   1.015  -0.036   0.458  3.7200  2.2666 -0.5337
 4254TIP3   OH234320   6.621   1.762   1.227 -0.5045  0.6437 -0.2353
 4254TIP3    H134321   6.587   1.720   1.149 -0.8755 -0.6527  0.5923
 4254TIP3    H234322   6.687   1.823   1.195  0.0774 -0.5966 -1.4952
 4255TIP3   OH234323   4.712   2.158   0.750  0.5368  0.5098  0.2918
 4255TIP3    H134324   4.641   2.121   0.697  1.7529  0.3105 -1.2967
 4255TIP3    H234325   4.757   2.218   0.691  0.6263  2.0423  1.8265
 4256TIP3   OH234326   0.585   4.251   2.534 -0.5963  0.6603 -0.6586
 4256TIP3    H134327   0.614   4.161   2.520 -0.7887 -0.1588  3.0734
 4256TIP3    H234328   0.494   4.253   2.505 -0.5541 -0.3199 -0.8712
 4257TIP3   OH234329   6.756   4.730   0.846 -0.2596 -0.0461 -0.3166
 4257TIP3    H134330   6.802   4.686   0.918  1.1009  2.6923  0.6229
 4257TIP3    H234331   6.694   4.664   0.814 -0.1543 -1.7614  2.6053
 4258TIP3   OH234332   3.985   6.153   2.592  0.3061 -0.6654 -0.2380
 4258TIP3    H134333   3.911   6.202   2.558  1.2971  0.2519 -1.1556
 4258TIP3    H234334   4.030   6.121   2.514  2.0872  0.6555  0.1794
 4259TIP3   OH234335   6.884   2.549   0.391  0.5262 -0.1061 -0.0895
 4259TIP3    H134336   6.899   2.499   0.471  0.1558 -1.0041 -0.5721
 4259TIP3    H234337   6.915   2.492   0.320  0.0342  0.3087 -0.6534
 4260TIP3   OH234338   4.706   2.718   0.725 -0.0596  0.0011 -0.2936
 4260TIP3    H134339   4.753   2.715   0.642 -1.6536  1.9900 -1.3662
 4260TIP3    H234340   4.617   2.690   0.703 -0.0316 -1.4463  1.2147
 4261TIP3   OH234341   5.024   5.902   0.449 -0.5602 -0.0806 -0.0349
 4261TIP3    H134342   4.970   5.838   0.403 -0.0563 -1.4160  1.1388
 4261TIP3    H234343   4.966   5.976   0.467 -1.2150 -0.2844 -1.2503
 4262TIP3   OH234344   4.558   2.011   0.587  0.2755 -0.2181  0.1582
 4262TIP3    H134345   4.463   2.001   0.585  0.1652  0.5125  1.2177
 4262TIP3    H234346   4.587   1.980   0.501 -1.0357  0.6130 -0.6225
 4263TIP3   OH234347   4.723   5.156   3.728  0.2966 -0.0468 -0.2520
 4263TIP3    H134348   4.685   5.075   3.695 -0.6131  0.8791 -1.5648
 4263TIP3    H234349   4.757   5.200   3.650 -0.7042  1.5858  0.1784
 4264TIP3   OH234350   2.411   6.523   3.164 -0.0478  0.1440  0.1525
 4264TIP3    H134351   2.417   6.579   3.241 -1.8093  0.2181  0.2733
 4264TIP3    H234352   2.473   6.561   3.101  0.9082  0.4761  1.2681
 4265TIP3   OH234353   1.358   4.628   3.507 -0.3275  1.0943  0.0469
 4265TIP3    H134354   1.348   4.714   3.547 -0.5785  1.3152 -0.4765
 4265TIP3    H234355   1.366   4.646   3.414 -2.5571  0.4487 -0.3371
 4266TIP3   OH234356   4.435   0.428   1.815 -0.0345 -0.4698 -0.2835
 4266TIP3    H134357   4.433   0.444   1.721 -0.0237  0.8994 -0.0756
 4266TIP3    H234358   4.353   0.467   1.848 -0.3740 -1.5506  0.1899
 4267TIP3   OH234359   2.644   3.566   0.877 -0.3413 -0.3722  0.2307
 4267TIP3    H134360   2.693   3.608   0.947 -1.3868  0.3532  0.5413
 4267TIP3    H234361   2.680   3.477   0.872  2.1578  0.5975 -0.6775
 4268TIP3   OH234362   0.280   0.568   3.731 -0.2402  0.6205  0.0115
 4268TIP3    H134363   0.306   0.520   3.810 -0.5059 -0.8293 -0.7558
 4268TIP3    H234364   0.292   0.661   3.754  0.4245  0.1914  1.4814
 4269TIP3   OH234365   1.013   5.568   1.880  0.4119 -0.4741 -0.1217
 4269TIP3    H134366   1.085   5.631   1.871  0.9197 -1.1271 -0.7387
 4269TIP3    H234367   1.001   5.534   1.791 -4.6758  3.8798 -1.6307
 4270TIP3   OH234368   3.456   0.615   1.355 -0.5090 -0.2837 -0.2009
 4270TIP3    H134369   3.514   0.562   1.410 -0.2392  0.0108 -0.1965
 4270TIP3    H234370   3.485   0.596   1.265 -1.7564 -1.7220 -0.3436
 4271TIP3   OH234371   3.850   0.352   0.898  0.1596 -0.0259  0.2059
 4271TIP3    H134372   3.851   0.308   0.983 -2.3148  1.6064  1.2028
 4271TIP3    H234373   3.869   0.283   0.835 -0.5588 -1.8609  1.8971
 4272TIP3   OH234374   2.834   1.970   2.933  0.3752  0.3274 -0.4222
 4272TIP3    H134375   2.927   1.986   2.949  0.4891 -0.4198 -0.2797
 4272TIP3    H234376   2.798   1.951   3.020 -0.2799  2.3069 -0.2123
 4273TIP3   OH234377   5.699   2.324   1.290  0.1529  0.6012  0.2912
 4273TIP3    H134378   5.780   2.278   1.268 -0.4948 -0.8412  0.7714
 4273TIP3    H234379   5.629   2.265   1.261 -0.7107  1.1764  1.1229
 4274TIP3   OH234380   2.680   2.083   0.199  0.4600 -0.0583 -0.3949
 4274TIP3    H134381   2.667   2.040   0.283 -0.3668 -3.0050 -1.8757
 4274TIP3    H234382   2.765   2.051   0.169  1.1583  1.6596 -0.3680
 4275TIP3   OH234383   6.230   0.137   4.643  0.1181  0.8395  0.0345
 4275TIP3    H134384   6.291   0.205   4.614 -0.9249  1.6457 -0.3421
 4275TIP3    H234385   6.247   0.063   4.585  2.1539  0.2718  1.2741
 4276TIP3   OH234386   0.279   5.765   1.320 -0.3910 -0.0124 -0.2141
 4276TIP3    H134387   0.231   5.846   1.337 -1.3816 -0.7197  0.4433
 4276TIP3    H234388   0.270   5.751   1.226 -0.6810  0.3628 -0.2451
 4277TIP3   OH234389   4.483   2.640   1.891  0.0611 -0.0961  0.3383
 4277TIP3    H134390   4.520   2.725   1.915  1.2745 -0.7067  0.7484
 4277TIP3    H234391   4.560   2.588   1.866 -0.4916 -1.4972  1.4244
 4278TIP3   OH234392   3.565   1.806   1.094 -0.8707  0.0433 -0.2719
 4278TIP3    H134393   3.582   1.882   1.148  1.3913 -0.1818 -0.5802
 4278TIP3    H234394   3.612   1.823   1.012 -1.1616 -1.2476 -0.7408
 4279TIP3   OH234395   6.742   5.029   1.911 -0.8488 -0.2712 -0.1385
 4279TIP3    H134396   6.806   4.963   1.884  0.7653  2.4513 -3.9624
 4279TIP3    H234397   6.749   5.032   2.006  0.9817 -3.5624 -0.0090
 4280TIP3   OH234398   1.279   5.262   0.536 -0.7562  0.0156  0.0307
 4280TIP3    H134399   1.286   5.237   0.444  2.0947 -1.2988  0.4935
 4280TIP3    H234400   1.307   5.354   0.538 -0.6467 -0.0063 -0.4171
 4281TIP3   OH234401   2.951   3.737   1.086 -0.3216 -1.0117 -0.2542
 4281TIP3    H134402   2.882   3.788   1.128  0.2595 -0.1653 -0.2973
 4281TIP3    H234403   3.027   3.747   1.144  0.2886 -0.4124 -1.1464
 4282TIP3   OH234404   0.900   5.665   3.536  0.2323  0.6309 -0.0421
 4282TIP3    H134405   0.976   5.609   3.556 -0.1455 -0.0480 -0.4601
 4282TIP3    H234406   0.825   5.616   3.569 -0.1472  0.6828 -0.7994
 4283TIP3   OH234407   5.589   6.075   3.705  0.6029  0.1629  0.2961
 4283TIP3    H134408   5.678   6.102   3.727  0.3694 -0.4231  2.1804
 4283TIP3    H234409   5.587   5.981   3.721 -0.0166 -0.0734 -1.0300
 4284TIP3   OH234410   2.261   3.387   1.394 -0.3171  0.0868 -0.0898
 4284TIP3    H134411   2.215   3.468   1.418 -0.1414 -0.1680  1.1772
 4284TIP3    H234412   2.345   3.418   1.359 -0.7785  0.4903 -0.8759
 4285TIP3   OH234413   3.745   0.607   0.879 -0.5958  0.0061 -0.1375
 4285TIP3    H134414   3.781   0.526   0.915  0.5448  0.4806 -0.1471
 4285TIP3    H234415   3.689   0.579   0.807  0.7380 -0.7493 -0.9383
 4286TIP3   OH234416   0.105   2.626   2.140 -0.2753  0.0378 -0.0455
 4286TIP3    H134417   0.067   2.665   2.062 -2.6758  0.9883  1.4843
 4286TIP3    H234418   0.155   2.551   2.108  0.8007  1.7671 -2.6641
 4287TIP3   OH234419   5.542   5.108   1.049  0.2459 -0.9495 -0.4748
 4287TIP3    H134420   5.610   5.096   1.116 -0.5740 -2.5385  0.1243
 4287TIP3    H234421   5.567   5.189   1.004  0.6430  0.4084  1.9771
 4288TIP3   OH234422   1.174   5.257   3.964  0.0688  0.1033  0.2958
 4288TIP3    H134423   1.097   5.206   3.984 -0.3122  1.0916  1.4399
 4288TIP3    H234424   1.225   5.202   3.905 -2.0040 -0.1353 -1.3819
 4289TIP3   OH234425   6.548   0.549   4.070 -0.3293 -0.1579  0.0940
 4289TIP3    H134426   6.554   0.483   4.139  2.0534 -0.4763 -0.3159
 4289TIP3    H234427   6.455   0.553   4.048 -0.7729 -2.1160  1.3429
 4290TIP3   OH234428   0.224   5.895   0.739  0.5862 -0.6288  0.0739
 4290TIP3    H134429   0.252   5.979   0.776  0.2614 -0.7505  0.5995
 4290TIP3    H234430   0.173   5.919   0.661 -0.5845 -0.2676  0.9193
 4291TIP3   OH234431   5.235   0.459   0.661  0.1365  0.1224  0.3138
 4291TIP3    H134432   5.179   0.507   0.723  0.5691  0.7676  0.2043
 4291TIP3    H234433   5.257   0.522   0.594  2.5395  0.4569  1.3107
 4292TIP3   OH234434   0.421   0.989   2.477 -0.0995  0.7554  0.1099
 4292TIP3    H134435   0.362   0.934   2.425  0.9918 -1.0904  0.7409
 4292TIP3    H234436   0.475   0.927   2.526  0.9498  2.4129  1.1499
 4293TIP3   OH234437   1.671   1.761   3.615 -0.3313 -0.5972 -0.2430
 4293TIP3    H134438   1.740   1.813   3.658 -0.9821  1.7281 -1.8436
 4293TIP3    H234439   1.605   1.748   3.684 -0.2119  0.8536  0.1839
 4294TIP3   OH234440   6.149   5.293   1.077 -0.3361 -0.2884  0.5376
 4294TIP3    H134441   6.204   5.322   1.150 -2.5691  1.7441  1.5264
 4294TIP3    H234442   6.064   5.275   1.117 -1.0414 -1.2438 -1.2718
 4295TIP3   OH234443   2.193   1.841   2.619  0.1865 -0.3593 -0.4190
 4295TIP3    H134444   2.127   1.880   2.563  0.6482  0.2156 -0.5733
 4295TIP3    H234445   2.144   1.809   2.695 -0.3399 -0.4819 -0.8034
 4296TIP3   OH234446   5.473   0.424   1.777  0.1568  0.1497 -0.0059
 4296TIP3    H134447   5.450   0.353   1.837 -0.6978  0.3534 -0.0914
 4296TIP3    H234448   5.488   0.381   1.693 -0.4958  0.0839 -0.0903
 4297TIP3   OH234449   5.508   6.922   2.101 -0.1042 -0.5754 -0.3151
 4297TIP3    H134450   5.553   6.881   2.174  0.3843  1.7979  0.8282
 4297TIP3    H234451   5.556   6.893   2.023  0.6591 -1.5324  0.4945
 4298TIP3   OH234452   3.516   0.047   3.288  0.2392 -0.2755 -0.4126
 4298TIP3    H134453   3.561  -0.013   3.348 -1.3318 -1.4144 -0.3145
 4298TIP3    H234454   3.487   0.119   3.343  1.8222  0.4333 -0.4612
 4299TIP3   OH234455   1.324   4.871   2.834 -0.4361  0.1243  0.0003
 4299TIP3    H134456   1.247   4.903   2.881 -0.1146 -0.7333  1.1577
 4299TIP3    H234457   1.375   4.949   2.814 -0.1712  0.4600  1.8543
 4300TIP3   OH234458   2.653   1.162   4.506  0.8334  0.2541 -0.1051
 4300TIP3    H134459   2.619   1.086   4.459 -0.6234  1.0187 -0.3647
 4300TIP3    H234460   2.669   1.130   4.595  4.2599 -1.3772 -1.1622
 4301TIP3   OH234461   4.262   6.170   0.082 -0.6088 -0.3509  0.2094
 4301TIP3    H134462   4.329   6.102   0.093  1.1648  1.4558  1.2656
 4301TIP3    H234463   4.194   6.147   0.146 -0.4174 -1.4873  0.0347
 4302TIP3   OH234464   2.801   5.131   2.772  0.0741  0.0009 -0.1945
 4302TIP3    H134465   2.833   5.041   2.774  1.6139  0.5279  0.1815
 4302TIP3    H234466   2.866   5.178   2.719  0.6130  1.3526  1.5792
 4303TIP3   OH234467   1.549   5.788   0.438 -0.3195 -0.4583  0.2926
 4303TIP3    H134468   1.462   5.819   0.464  0.1375  0.2009  1.0558
 4303TIP3    H234469   1.555   5.809   0.344 -1.4400 -1.6038 -0.0710
 4304TIP3   OH234470   4.817   1.310   2.990  0.4593  0.3591 -0.0859
 4304TIP3    H134471   4.864   1.391   2.974  0.1634  0.5129 -0.1812
 4304TIP3    H234472   4.739   1.336   3.039  0.7524  0.0366  0.5606
 4305TIP3   OH234473   6.886   1.395   3.956  0.4662  0.4237 -0.2151
 4305TIP3    H134474   6.921   1.332   4.019  2.1474  1.2440 -0.2867
 4305TIP3    H234475   6.929   1.373   3.873  0.2209  0.9681 -0.4912
 4306TIP3   OH234476   1.762   4.848   2.641  0.2529  0.0064 -0.3952
 4306TIP3    H134477   1.698   4.833   2.571 -2.7553 -0.5127  2.2333
 4306TIP3    H234478   1.734   4.930   2.681  2.1518  0.4921  0.0228
 4307TIP3   OH234479   0.181   6.814   3.673 -0.3304 -0.2976 -0.0456
 4307TIP3    H134480   0.205   6.728   3.638 -0.9343 -1.3045  1.8672
 4307TIP3    H234481   0.131   6.795   3.752  0.8921  1.8075  1.3399
 4308TIP3   OH234482   3.098   2.672   0.824  0.9942  0.1240 -0.4652
 4308TIP3    H134483   3.038   2.607   0.862 -1.3787  1.4642 -1.7170
 4308TIP3    H234484   3.098   2.653   0.730  2.4696  0.2615 -0.5222
 4309TIP3   OH234485   0.973   2.434   2.588 -0.2318 -0.1477  0.2542
 4309TIP3    H134486   1.042   2.369   2.574  0.3955  0.2854  1.2356
 4309TIP3    H234487   0.961   2.474   2.502  1.5051  0.4863  0.2615
 4310TIP3   OH234488   5.386   3.508   4.625  0.2953  0.8025 -0.0661
 4310TIP3    H134489   5.460   3.518   4.685  1.2506  1.0915 -1.2607
 4310TIP3    H234490   5.349   3.596   4.617 -0.2154  0.6555  0.5426
 4311TIP3   OH234491   3.741   4.732   3.658  0.0961 -0.7245 -0.2042
 4311TIP3    H134492   3.726   4.821   3.692 -3.4110 -0.3028 -2.3494
 4311TIP3    H234493   3.694   4.676   3.719  0.8536 -0.9620  0.1778
 4312TIP3   OH234494   5.508   6.307   1.051 -0.9274  0.0712 -0.8087
 4312TIP3    H134495   5.433   6.364   1.036 -1.1922 -0.3623 -1.1572
 4312TIP3    H234496   5.505   6.288   1.145 -0.3367  1.3100 -0.5073
 4313TIP3   OH234497   1.325   4.152   3.520  0.1096  0.2723  0.2097
 4313TIP3    H134498   1.284   4.114   3.442  1.4536 -1.1413  0.1425
 4313TIP3    H234499   1.417   4.161   3.496  0.8705 -1.7038  2.1423
 4314TIP3   OH234500   2.631   1.467   0.134 -0.5356 -0.0171  0.6373
 4314TIP3    H134501   2.564   1.481   0.067 -0.6408 -0.9131  0.5393
 4314TIP3    H234502   2.587   1.415   0.201 -0.4617  0.9742  1.4700
 4315TIP3   OH234503   6.259   2.931   2.046  0.0496  0.2083  0.5125
 4315TIP3    H134504   6.297   2.982   1.975 -0.1866  0.2645  0.4273
 4315TIP3    H234505   6.294   2.972   2.126  1.1129 -0.4716  0.4213
 4316TIP3   OH234506   0.566   1.089   3.765 -0.5712 -0.1953 -0.1394
 4316TIP3    H134507   0.487   1.054   3.807 -1.0427  0.1078 -0.7414
 4316TIP3    H234508   0.638   1.044   3.808 -1.0195  0.1731  1.0675
 4317TIP3   OH234509   0.989   4.570   3.692 -0.2468 -0.3476  0.7965
 4317TIP3    H134510   1.082   4.589   3.705  0.2640 -0.9009 -1.5941
 4317TIP3    H234511   0.982   4.476   3.703 -0.6664 -0.2349  1.5719
 4318TIP3   OH234512   2.335   6.770   1.218  0.1977 -0.3001  0.0906
 4318TIP3    H134513   2.356   6.711   1.146 -0.9768  0.4576 -0.9202
 4318TIP3    H234514   2.410   6.830   1.224 -0.8215  1.3806 -2.3998
 4319TIP3   OH234515   2.529   5.392   1.456  0.2184 -0.5844 -0.0275
 4319TIP3    H134516   2.493   5.324   1.512  0.0275  0.9761  1.8216
 4319TIP3    H234517   2.483   5.472   1.481  2.4408  0.7925 -0.0628
 4320TIP3   OH234518   0.562   3.471   1.023 -0.2215  0.6882 -0.1381
 4320TIP3    H134519   0.603   3.490   0.938 -0.4739 -1.0675 -0.6735
 4320TIP3    H234520   0.483   3.423   1.002  0.0159 -0.2919  1.1177
 4321TIP3   OH234521   5.184   2.135   2.525  0.2060  0.8264 -0.3325
 4321TIP3    H134522   5.205   2.217   2.569 -0.1157  0.7435 -0.0141
 4321TIP3    H234523   5.267   2.106   2.486  0.8080  0.3025  1.2350
 4322TIP3   OH234524   6.500   0.358   1.168 -0.4936  0.7335  0.5032
 4322TIP3    H134525   6.489   0.447   1.134 -0.0142  0.9385  0.8662
 4322TIP3    H234526   6.535   0.308   1.094  0.7764  1.2309  0.7283
 4323TIP3   OH234527   3.293   5.555   3.812 -0.0412 -0.4960 -0.3918
 4323TIP3    H134528   3.345   5.634   3.828 -1.1953  0.5310 -1.4666
 4323TIP3    H234529   3.245   5.540   3.893  0.9865 -0.7246  0.1804
 4324TIP3   OH234530   2.023   2.869   2.297 -0.7993  0.6478 -0.0675
 4324TIP3    H134531   2.114   2.893   2.281 -1.1104 -0.0114 -3.8133
 4324TIP3    H234532   2.006   2.896   2.387  1.7429  5.1619 -0.6364
 4325TIP3   OH234533   3.965   3.757   2.216  0.0250  0.7254 -0.2904
 4325TIP3    H134534   3.915   3.713   2.147  0.6008 -0.9773  0.3187
 4325TIP3    H234535   3.906   3.824   2.249 -1.0599  0.1570 -0.9941
 4326TIP3   OH234536   1.691   4.315   1.738 -0.3843  0.0462 -0.0255
 4326TIP3    H134537   1.598   4.296   1.725 -0.2049  0.1962 -1.6927
 4326TIP3    H234538   1.710   4.280   1.825 -1.4602 -2.0900 -0.5739
 4327TIP3   OH234539   5.613   3.262   3.526 -0.5624  0.4644  0.1762
 4327TIP3    H134540   5.683   3.279   3.463 -0.7055  1.5855  0.2972
 4327TIP3    H234541   5.658   3.242   3.608 -0.3785 -0.8443 -0.2256
 4328TIP3   OH234542   5.412   3.150   3.866  0.4245  0.0760 -0.0463
 4328TIP3    H134543   5.400   3.141   3.771  0.2061  1.0169 -0.1221
 4328TIP3    H234544   5.505   3.136   3.880  0.2453 -1.3986 -0.2232
 4329TIP3   OH234545   0.349   4.700   2.789 -0.1040 -0.4393 -0.1204
 4329TIP3    H134546   0.272   4.686   2.734  0.4738  0.9342 -1.3459
 4329TIP3    H234547   0.317   4.756   2.860 -0.8527 -2.2207  1.0124
 4330TIP3   OH234548   2.956   3.877   1.690  0.7979  0.3481 -0.0144
 4330TIP3    H134549   2.986   3.960   1.654 -0.2832  0.7774  0.0691
 4330TIP3    H234550   3.035   3.838   1.729  1.5424  0.8176 -1.0095
 4331TIP3   OH234551   1.512   5.606   0.756  0.1918  0.0517 -0.0106
 4331TIP3    H134552   1.570   5.597   0.680 -1.4248 -0.4725 -1.2345
 4331TIP3    H234553   1.461   5.685   0.738  0.7888  0.7523  1.2611
 4332TIP3   OH234554   0.982   6.006   1.512  0.4772 -0.1451  0.4648
 4332TIP3    H134555   0.968   5.954   1.591 -0.2696 -1.5930 -0.5633
 4332TIP3    H234556   1.063   6.054   1.529  0.2845 -0.3340  2.1270
 4333TIP3   OH234557   6.000   6.280   8.473  0.1229 -0.2675  0.0610
 4333TIP3    H134558   5.910   6.254   8.493  0.3223 -2.3265 -1.3731
 4333TIP3    H234559   6.038   6.301   8.558 -1.0658 -1.6151  0.9844
 4334TIP3   OH234560   0.786   3.158   3.336  0.4036 -0.0266 -0.2665
 4334TIP3    H134561   0.865   3.211   3.325  1.1678 -0.9455  0.6032
 4334TIP3    H234562   0.817   3.077   3.376 -1.2025  0.3183  1.8677
 4335TIP3   OH234563   5.158   2.687   4.001 -0.7838 -0.7041 -0.2234
 4335TIP3    H134564   5.111   2.693   4.084 -0.7257  0.4573 -0.2637
 4335TIP3    H234565   5.229   2.625   4.018 -0.0267  0.4487  0.9669
 4336TIP3   OH234566   3.313   0.337   1.165  0.0724  0.2269 -0.2819
 4336TIP3    H134567   3.402   0.370   1.148 -0.1119  0.5999 -0.5401
 4336TIP3    H234568   3.311   0.322   1.259  0.3785  0.3108 -0.2589
 4337TIP3   OH234569   5.815   3.543   3.302  0.0493  0.1669 -0.8625
 4337TIP3    H134570   5.875   3.530   3.376 -1.1394 -0.2374  0.0733
 4337TIP3    H234571   5.729   3.554   3.343 -0.3741  1.9082 -2.1044
 4338TIP3   OH234572   3.000   3.504   3.120 -0.1191 -0.2902  0.1623
 4338TIP3    H134573   3.049   3.439   3.170 -0.0048 -1.3058 -1.2071
 4338TIP3    H234574   2.924   3.457   3.086 -1.5693  1.0245  1.4466
 4339TIP3   OH234575   2.700   3.934   4.895 -0.3253  0.3588 -0.0612
 4339TIP3    H134576   2.674   3.853   4.851 -0.8839  0.2950  0.3857
 4339TIP3    H234577   2.673   3.923   4.986  1.7266  0.0712  0.5792
 4340TIP3   OH234578   0.111   0.245   3.324  0.2446 -0.7295 -0.2632
 4340TIP3    H134579   0.140   0.284   3.407  0.1931 -0.8826 -0.1744
 4340TIP3    H234580   0.043   0.305   3.293  1.3062  0.1794 -0.9582
 4341TIP3   OH234581   4.991   6.818   1.980 -0.2538  0.4539 -0.1957
 4341TIP3    H134582   4.989   6.765   2.060 -1.9439  3.4209  1.9416
 4341TIP3    H234583   4.951   6.762   1.913 -1.6824 -1.1058  1.8234
 4342TIP3   OH234584   4.756   4.580   3.144 -0.3148 -0.1522 -0.5276
 4342TIP3    H134585   4.688   4.589   3.077  0.4861  0.5256 -1.2774
 4342TIP3    H234586   4.766   4.668   3.180 -0.2441 -0.3713 -0.0003
 4343TIP3   OH234587   3.369   4.186   0.691 -0.6151  0.4049  0.4620
 4343TIP3    H134588   3.370   4.216   0.782  0.3990 -0.5689  0.7893
 4343TIP3    H234589   3.461   4.184   0.666 -0.9165  1.3946 -0.8576
 4344TIP3   OH234590   1.731   6.827   3.883  0.8072  0.0217  0.7076
 4344TIP3    H134591   1.679   6.906   3.900  0.9453 -0.0533  1.5435
 4344TIP3    H234592   1.680   6.756   3.923  0.0171 -0.5475 -1.1818
 4345TIP3   OH234593   4.172   4.647   1.956  0.1107  0.1107  0.1769
 4345TIP3    H134594   4.164   4.699   1.876  0.2859  0.1094  0.1583
 4345TIP3    H234595   4.082   4.627   1.981  0.0653 -0.0772 -0.1409
 4346TIP3   OH234596   0.142   3.989   3.559  0.2470 -0.5739 -0.5499
 4346TIP3    H134597   0.237   3.988   3.570  0.3038  1.4410 -0.6298
 4346TIP3    H234598   0.128   4.030   3.474 -0.7310  3.6617  1.3921
 4347TIP3   OH234599   3.948   6.580   4.103  0.1190 -0.0245 -0.3294
 4347TIP3    H134600   4.037   6.549   4.120  0.6229  1.8426  0.6295
 4347TIP3    H234601   3.932   6.559   4.010  1.4123 -0.6860 -0.4130
 4348TIP3   OH234602   6.599   0.280   3.064 -0.9789 -0.4597 -0.4447
 4348TIP3    H134603   6.561   0.218   3.126 -1.3809  0.8462  0.6774
 4348TIP3    H234604   6.539   0.355   3.066 -0.5207 -0.0375 -1.7660
 4349TIP3   OH234605   2.982   1.081   3.681  0.4069  0.0369 -0.8524
 4349TIP3    H134606   3.013   0.994   3.708 -0.2051  0.2413  0.6656
 4349TIP3    H234607   2.924   1.063   3.607 -0.2119 -0.9371 -0.1636
 4350TIP3   OH234608   5.566   4.410   1.834 -0.2635 -0.1236 -0.5273
 4350TIP3    H134609   5.494   4.443   1.887 -0.3442 -0.5065 -0.3947
 4350TIP3    H234610   5.628   4.483   1.828 -0.9088  0.3844 -1.0834
 4351TIP3   OH234611   4.438   6.419   2.000 -0.1061 -0.2406 -0.0866
 4351TIP3    H134612   4.488   6.382   1.927  1.1033  0.4584  0.3522
 4351TIP3    H234613   4.371   6.353   2.019  2.3733 -2.6571  1.1295
 4352TIP3   OH234614   4.239   4.160   2.035  0.1186  0.2921  0.1773
 4352TIP3    H134615   4.251   4.077   2.081 -1.4572 -0.3842 -0.5626
 4352TIP3    H234616   4.252   4.227   2.103  3.1244 -0.4171  0.4280
 4353TIP3   OH234617   3.379   4.078   1.198 -0.2712  0.5197 -0.6902
 4353TIP3    H134618   3.394   4.063   1.292 -2.2774  1.1836 -0.2317
 4353TIP3    H234619   3.429   4.008   1.155 -0.2840 -0.5329  0.9194
 4354TIP3   OH234620   6.373   5.358   1.739  0.0210 -0.1868  0.3146
 4354TIP3    H134621   6.278   5.348   1.731  0.2528 -2.0292 -0.7889
 4354TIP3    H234622   6.388   5.452   1.734 -1.7795  0.1772  1.0445
 4355TIP3   OH234623   4.341   5.071   1.227  0.0845 -0.4928 -0.6225
 4355TIP3    H134624   4.326   4.987   1.185  0.6009 -1.9243  1.8390
 4355TIP3    H234625   4.434   5.088   1.215  0.2693 -0.9911  0.0144
 4356TIP3   OH234626   1.482   0.525   0.288 -0.6908 -0.1162 -0.4972
 4356TIP3    H134627   1.475   0.458   0.220 -2.9826 -2.3293  1.7088
 4356TIP3    H234628   1.432   0.599   0.253  1.4183  0.3942 -2.7360
 4357TIP3   OH234629   4.309   1.852   0.810 -0.0221 -0.0732 -0.1061
 4357TIP3    H134630   4.280   1.857   0.719 -1.2578 -1.3757  0.1715
 4357TIP3    H234631   4.322   1.943   0.836 -3.6217  0.6919 -0.4198
 4358TIP3   OH234632   6.624   5.641   0.163 -0.5172  0.3235  0.5000
 4358TIP3    H134633   6.707   5.674   0.198 -0.1508 -0.0302 -0.0114
 4358TIP3    H234634   6.564   5.715   0.169 -0.2671  0.4796  1.2049
 4359TIP3   OH234635   4.412   3.023   1.380  0.0591  0.1146  0.7704
 4359TIP3    H134636   4.390   2.930   1.384  0.0578  0.0643 -0.1259
 4359TIP3    H234637   4.483   3.028   1.315 -2.1899  1.0879 -1.8279
 4360TIP3   OH234638   6.620   4.874   2.819 -0.5262  0.4471 -0.2361
 4360TIP3    H134639   6.542   4.872   2.763  0.4545 -0.1812 -1.6493
 4360TIP3    H234640   6.676   4.806   2.783  0.9694  1.3412  0.3207
 4361TIP3   OH234641   5.386   0.323   8.449 -0.2627 -0.7730  0.6429
 4361TIP3    H134642   5.311   0.268   8.469 -1.9852  1.0629 -0.4466
 4361TIP3    H234643   5.440   0.269   8.391 -1.0355 -1.9032  0.9378
 4362TIP3   OH234644   3.745   5.417   0.027  0.8185 -1.1547 -0.1281
 4362TIP3    H134645   3.701   5.456   0.103  1.4086 -0.3623 -0.1776
 4362TIP3    H234646   3.812   5.360   0.065  0.3024 -1.7239 -0.0575
 4363TIP3   OH234647   3.581   6.471   3.345  0.0296  0.0316  0.1612
 4363TIP3    H134648   3.515   6.483   3.276 -0.5583 -1.3339  0.4615
 4363TIP3    H234649   3.633   6.396   3.315 -0.0602 -0.4048  1.0556
 4364TIP3   OH234650   6.193   2.195   1.288 -0.0018 -0.3423  0.7932
 4364TIP3    H134651   6.213   2.263   1.223 -2.2853 -0.5468 -0.2410
 4364TIP3    H234652   6.196   2.241   1.372 -2.2213  1.3416  0.0652
 4365TIP3   OH234653   4.437   0.267   4.252  0.0893 -0.4727 -0.0793
 4365TIP3    H134654   4.516   0.248   4.302 -0.9685 -0.7998  1.5624
 4365TIP3    H234655   4.407   0.352   4.284 -1.8826 -1.7238  1.6786
 4366TIP3   OH234656   4.810   3.420   2.848 -0.6323  0.1874 -0.2176
 4366TIP3    H134657   4.808   3.341   2.901  0.2390  0.5349  0.3577
 4366TIP3    H234658   4.887   3.410   2.792 -2.2034 -0.7377 -2.3573
 4367TIP3   OH234659   6.218   4.447   1.477  0.0470  0.2552  0.1867
 4367TIP3    H134660   6.215   4.412   1.566  1.8465 -0.7333 -0.0965
 4367TIP3    H234661   6.153   4.396   1.429 -0.9434  0.8031  0.9149
 4368TIP3   OH234662   6.903   6.451   3.657 -0.1552  0.8106 -0.7950
 4368TIP3    H134663   6.940   6.529   3.614 -1.7672  3.0915  1.6484
 4368TIP3    H234664   6.950   6.445   3.740 -1.6102  0.5874  0.0466
 4369TIP3   OH234665   3.097   0.851   3.793 -0.0289  0.3027 -0.3292
 4369TIP3    H134666   3.171   0.847   3.854  0.0847 -1.4482 -0.5065
 4369TIP3    H234667   3.024   0.814   3.842 -0.2810  0.1645 -0.8058
 4370TIP3   OH234668   3.033   2.428   3.922  0.2708 -0.8217 -0.2443
 4370TIP3    H134669   2.983   2.383   3.990 -0.9300  1.2557  0.3310
 4370TIP3    H234670   3.086   2.492   3.970 -0.5718  0.6628 -1.2365
 4371TIP3   OH234671   5.128   0.889   4.444  0.7602 -0.0603 -0.1383
 4371TIP3    H134672   5.058   0.930   4.495  1.4065  0.2712  0.5043
 4371TIP3    H234673   5.132   0.940   4.363  1.2029  0.8439  0.4278
 4372TIP3   OH234674   3.474   3.879   1.034  0.1319 -0.0628  0.0772
 4372TIP3    H134675   3.444   3.874   0.943 -1.9909 -0.0277  0.7149
 4372TIP3    H234676   3.436   3.803   1.077  0.9114  0.0454  1.0010
 4373TIP3   OH234677   0.637   3.242   1.752 -0.6173 -0.1956  0.4603
 4373TIP3    H134678   0.614   3.252   1.660  0.7996 -2.8390 -0.2738
 4373TIP3    H234679   0.554   3.229   1.797 -1.1605 -1.4821 -0.8539
 4374TIP3   OH234680   6.019   0.758   2.223  0.5524  0.5694 -0.6812
 4374TIP3    H134681   6.096   0.722   2.179 -0.5139  0.6794 -2.7480
 4374TIP3    H234682   5.954   0.769   2.154 -1.5718 -0.1211  1.0828
 4375TIP3   OH234683   3.454   5.808   3.986  0.1372 -0.2097  0.0608
 4375TIP3    H134684   3.400   5.786   4.061  0.2197 -0.6762 -0.0080
 4375TIP3    H234685   3.515   5.874   4.018 -0.9899  0.9341 -0.0739
 4376TIP3   OH234686   6.140   1.306   2.914  0.4140 -0.3460 -0.1102
 4376TIP3    H134687   6.180   1.260   2.840 -1.5739  0.5869 -1.8544
 4376TIP3    H234688   6.067   1.251   2.940 -0.4158  0.5451 -0.5104
 4377TIP3   OH234689   6.016   1.474   0.262  0.6091  0.1461  0.1438
 4377TIP3    H134690   5.933   1.510   0.291 -0.3652 -1.9812  0.2220
 4377TIP3    H234691   6.000   1.380   0.255  3.0886 -0.3735  0.4075
 4378TIP3   OH234692   0.369   5.586   0.488  0.6617 -0.0576  0.4782
 4378TIP3    H134693   0.410   5.654   0.541  0.3492  0.4064  0.1314
 4378TIP3    H234694   0.301   5.632   0.438 -0.1920 -0.7899  0.9504
 4379TIP3   OH234695   3.619   2.046   3.253  0.1425  0.2837 -0.1194
 4379TIP3    H134696   3.598   2.053   3.347 -0.4873 -2.7028  0.0739
 4379TIP3    H234697   3.573   1.967   3.225  1.0733  0.6022 -2.7688
 4380TIP3   OH234698   0.956   2.653   2.079 -0.1649  0.3639  0.1492
 4380TIP3    H134699   0.985   2.571   2.039  0.9354  1.3902 -1.2563
 4380TIP3    H234700   1.019   2.719   2.048 -1.0092  1.7451  1.2441
 4381TIP3   OH234701   4.230   4.147   3.955  0.1654  0.4487 -0.0124
 4381TIP3    H134702   4.302   4.132   3.893  0.4961  0.0492  0.4635
 4381TIP3    H234703   4.270   4.138   4.041 -0.4579  0.2181  0.2567
 4382TIP3   OH234704   5.353   4.590   1.630 -0.3530 -0.1693  0.1875
 4382TIP3    H134705   5.379   4.548   1.712 -0.0586 -0.1287  0.1158
 4382TIP3    H234706   5.343   4.518   1.568 -0.4566 -0.1894  0.2281
 4383TIP3   OH234707   0.735   4.992   3.411  0.1699  0.2577 -0.5753
 4383TIP3    H134708   0.793   4.992   3.487  1.4414 -1.1436 -1.4951
 4383TIP3    H234709   0.704   5.083   3.405  1.6042  0.8535  0.4435
 4384TIP3   OH234710   5.866   2.143   2.377  0.3058 -0.5848 -0.3581
 4384TIP3    H134711   5.870   2.055   2.340 -0.3290 -0.6591 -0.2543
 4384TIP3    H234712   5.905   2.200   2.311 -0.4043 -0.7763 -0.9432
 4385TIP3   OH234713   1.032   0.182   3.388  0.0593  0.3281 -0.2099
 4385TIP3    H134714   0.988   0.127   3.323 -0.2808 -0.1062  0.3660
 4385TIP3    H234715   1.087   0.241   3.338  0.4180 -0.5365 -0.8482
 4386TIP3   OH234716   1.433   1.362   2.840  0.4888 -0.1586  0.7719
 4386TIP3    H134717   1.400   1.452   2.843 -0.9138 -0.5858 -0.3798
 4386TIP3    H234718   1.358   1.310   2.813  1.3939 -1.6238  0.9604
 4387TIP3   OH234719   4.385   4.928   4.123  0.1513 -0.2960  0.2003
 4387TIP3    H134720   4.345   4.846   4.151  1.2414 -0.4439  1.3997
 4387TIP3    H234721   4.409   4.973   4.204  1.5185  0.2211 -0.4594
 4388TIP3   OH234722   6.913   1.731   1.921 -0.1887  0.6415 -0.6420
 4388TIP3    H134723   6.960   1.759   2.000 -1.0084 -0.0206  0.1055
 4388TIP3    H234724   6.980   1.687   1.868 -0.0219 -0.7526  0.6437
 4389TIP3   OH234725   4.167   2.845   3.472  0.1274 -0.1189  0.1989
 4389TIP3    H134726   4.114   2.897   3.411  0.2186  1.0596  1.0926
 4389TIP3    H234727   4.152   2.754   3.445 -0.1671  0.3495 -1.2988
 4390TIP3   OH234728   4.018   3.602   3.263 -0.6532 -0.6546  0.1268
 4390TIP3    H134729   4.086   3.663   3.289  0.4404 -1.3488 -0.9999
 4390TIP3    H234730   3.962   3.652   3.203  0.0589 -0.6634 -0.5517
 4391TIP3   OH234731   0.764   1.941   3.948  0.1193  0.3624  0.3723
 4391TIP3    H134732   0.725   1.903   4.027 -1.7209  0.8823 -0.2411
 4391TIP3    H234733   0.790   2.029   3.975 -0.6533  0.5988  0.3893
 4392TIP3   OH234734   4.138   3.289   3.003  0.7058  0.5940 -0.3934
 4392TIP3    H134735   4.050   3.308   2.972  0.4637  0.8477  0.4199
 4392TIP3    H234736   4.160   3.205   2.963 -0.4207 -0.1133  0.4248
 4393TIP3   OH234737   5.730   0.805   1.380 -0.0509 -0.3742 -0.1420
 4393TIP3    H134738   5.666   0.760   1.436  0.4181  0.0551  0.7598
 4393TIP3    H234739   5.749   0.742   1.310 -1.9147 -0.2736 -0.7816
 4394TIP3   OH234740   6.205   4.719   1.971  0.3291 -0.4231 -0.3201
 4394TIP3    H134741   6.275   4.775   2.007  0.1582 -0.2271 -0.2910
 4394TIP3    H234742   6.193   4.651   2.037  1.6275 -1.4107 -1.0687
 4395TIP3   OH234743   0.127   2.666   1.022 -0.6185 -0.2581 -0.4935
 4395TIP3    H134744   0.085   2.682   0.938 -1.8065 -1.1974 -0.1062
 4395TIP3    H234745   0.189   2.738   1.032 -2.2631  1.3004 -1.0170
 4396TIP3   OH234746   1.053   1.447   2.158  0.2842 -0.3022  0.3194
 4396TIP3    H134747   1.048   1.436   2.253 -0.5639 -1.2674  0.1785
 4396TIP3    H234748   0.970   1.488   2.134  0.5305  0.0186 -0.0051
 4397TIP3   OH234749   4.058   4.216   2.812  0.1927  0.0397  0.6029
 4397TIP3    H134750   4.112   4.156   2.760 -0.4545 -0.1613  0.1361
 4397TIP3    H234751   4.118   4.284   2.841  0.9664 -0.9050  1.2506
 4398TIP3   OH234752   1.404   6.213   1.058  0.8127 -0.4414  0.8385
 4398TIP3    H134753   1.475   6.275   1.043  0.6063 -0.3075  0.3758
 4398TIP3    H234754   1.325   6.266   1.056  0.7253 -0.5096  1.8757
 4399TIP3   OH234755   0.833   5.073   0.064 -0.7230 -0.3312  0.5592
 4399TIP3    H134756   0.775   5.044  -0.006 -0.9138  0.2525  0.4707
 4399TIP3    H234757   0.775   5.109   0.130 -0.4321  1.1225  0.0636
 4400TIP3   OH234758   3.038   0.190   2.384  0.2374  0.2064 -0.0312
 4400TIP3    H134759   2.977   0.124   2.416 -0.8452  0.4375 -1.5242
 4400TIP3    H234760   3.109   0.141   2.344 -0.8218 -0.1087 -1.6111
 4401TIP3   OH234761   2.133   4.475   0.284 -0.1036  0.2676 -0.0554
 4401TIP3    H134762   2.140   4.385   0.252  0.3381  0.2072  0.2000
 4401TIP3    H234763   2.051   4.476   0.334 -0.8245  0.3735 -1.2022
 4402TIP3   OH234764   5.954   6.788   0.549  0.1142 -0.3270 -0.4234
 4402TIP3    H134765   5.884   6.730   0.520  0.5030 -0.6080 -0.8086
 4402TIP3    H234766   5.935   6.804   0.642 -0.3902 -0.4945 -0.4975
 4403TIP3   OH234767   1.137   3.689   2.613 -0.1042  0.4453 -0.2618
 4403TIP3    H134768   1.211   3.671   2.555 -1.1580 -2.4471 -0.8746
 4403TIP3    H234769   1.087   3.608   2.615 -2.0703  1.5633  1.9308
 4404TIP3   OH234770   6.585   5.408   2.152  0.1957 -0.0863  0.5075
 4404TIP3    H134771   6.591   5.316   2.125 -0.7577  0.4031 -1.5640
 4404TIP3    H234772   6.664   5.422   2.205  0.5979 -1.9537  0.4924
 4405TIP3   OH234773   0.687   4.286   0.389  0.6761  0.2199 -0.0307
 4405TIP3    H134774   0.693   4.191   0.384 -0.0415  0.2167 -1.0274
 4405TIP3    H234775   0.741   4.318   0.317 -0.7886  0.4967 -1.0453
 4406TIP3   OH234776   6.669   6.709   4.304  0.0038 -0.4009 -0.6623
 4406TIP3    H134777   6.743   6.715   4.243  0.0811  1.0893 -0.4465
 4406TIP3    H234778   6.676   6.620   4.340  0.6016 -0.9263 -1.9907
 4407TIP3   OH234779   3.664   4.987   3.062  0.1247 -0.7415 -0.3444
 4407TIP3    H134780   3.657   4.898   3.028 -2.6034 -0.8056  0.1064
 4407TIP3    H234781   3.578   5.026   3.045  0.5417  1.1207  1.3207
 4408TIP3   OH234782   0.312   0.056   2.862 -0.1708  0.8746  0.1712
 4408TIP3    H134783   0.370   0.021   2.928  0.8003  1.6572 -0.2466
 4408TIP3    H234784   0.349   0.026   2.779 -1.9402 -0.9640 -0.0360
 4409TIP3   OH234785   4.313   4.316   1.008  0.3901 -0.0229 -0.0012
 4409TIP3    H134786   4.221   4.309   1.035  0.1271 -1.0015 -1.0347
 4409TIP3    H234787   4.329   4.410   1.000 -0.9317  0.1443 -1.0631
 4410TIP3   OH234788   2.698   5.853   3.324  0.4557 -0.0637 -0.4319
 4410TIP3    H134789   2.738   5.932   3.288  1.9426 -1.3657 -1.7789
 4410TIP3    H234790   2.746   5.836   3.405 -1.1007  1.3654  0.8762
 4411TIP3   OH234791   0.548   2.452   1.286  0.1875  0.1958 -0.0482
 4411TIP3    H134792   0.629   2.491   1.320  0.2254 -1.6894  2.2902
 4411TIP3    H234793   0.489   2.526   1.273  1.3862  1.3558  0.8599
 4412TIP3   OH234794   6.407   4.805   0.246  0.7926  0.0140  0.2984
 4412TIP3    H134795   6.405   4.713   0.273  1.2587 -0.1705 -0.2827
 4412TIP3    H234796   6.500   4.822   0.228  0.5695  0.3085 -0.5916
 4413TIP3   OH234797   3.926   3.850   1.361  0.9176 -0.2065  0.0389
 4413TIP3    H134798   3.992   3.821   1.299  2.4356  1.5362  0.7324
 4413TIP3    H234799   3.941   3.944   1.370 -1.6644  0.2737  0.2603
 4414TIP3   OH234800   1.295   3.163   1.138 -0.0578 -0.4539  0.5370
 4414TIP3    H134801   1.373   3.114   1.112 -0.1013 -0.2981  0.1029
 4414TIP3    H234802   1.327   3.252   1.154 -0.6500  0.5682 -3.0969
 4415TIP3   OH234803   5.793   5.388   2.034 -0.0176  0.4962 -0.0652
 4415TIP3    H134804   5.771   5.459   2.095 -0.4052  0.4351 -0.1275
 4415TIP3    H234805   5.877   5.355   2.065  0.1783  0.9963 -0.0482
 4416TIP3   OH234806   4.950   4.467   3.564 -0.0744  0.2223  0.3489
 4416TIP3    H134807   4.980   4.385   3.605  1.3688  1.0783  1.0887
 4416TIP3    H234808   5.022   4.528   3.577 -1.1826  1.6757 -0.0628
 4417TIP3   OH234809   0.469   3.864   0.740  0.2582  0.1666  0.0128
 4417TIP3    H134810   0.464   3.854   0.645  0.7201  0.3821 -0.0400
 4417TIP3    H234811   0.379   3.858   0.770 -0.0835  1.7176 -0.6003
 4418TIP3   OH234812   5.146   0.064   4.000 -0.6131  0.0504 -0.9346
 4418TIP3    H134813   5.102   0.048   4.083  1.2412  2.1682  0.5959
 4418TIP3    H234814   5.097   0.013   3.936 -0.3843 -4.1155  1.8615
 4419TIP3   OH234815   6.353   1.997   1.778  0.4988 -0.3444  0.7921
 4419TIP3    H134816   6.383   1.945   1.852  1.0587 -0.7433  0.2913
 4419TIP3    H234817   6.363   1.939   1.702  0.4258  0.2344  0.3326
 4420TIP3   OH234818   0.312   4.180   2.545  0.1840 -0.0524  0.1539
 4420TIP3    H134819   0.233   4.208   2.498 -0.4109 -1.5632  0.1982
 4420TIP3    H234820   0.281   4.160   2.633  0.2197 -2.3617 -0.3041
 4421TIP3   OH234821   5.041   0.916   3.845 -0.2514 -0.6884  0.1582
 4421TIP3    H134822   5.112   0.958   3.894  0.0077 -0.0064 -0.7644
 4421TIP3    H234823   5.015   0.842   3.900  0.7206 -0.5593  0.8351
 4422TIP3   OH234824   1.024   0.993   3.941 -0.2158  0.7663  0.1572
 4422TIP3    H134825   0.991   0.904   3.941 -1.5372  1.2129 -1.0397
 4422TIP3    H234826   1.025   1.019   4.033 -1.2897  0.0363  0.3839
 4423TIP3   OH234827   2.387   0.580   3.552  0.2328  0.7313  0.0598
 4423TIP3    H134828   2.438   0.590   3.471  0.8798  0.5424  0.4406
 4423TIP3    H234829   2.453   0.568   3.621 -0.3388 -0.1730  0.4670
 4424TIP3   OH234830   0.135   1.500   2.079 -0.3811  0.0465 -0.2735
 4424TIP3    H134831   0.191   1.465   2.010 -3.2394  1.6312 -3.6968
 4424TIP3    H234832   0.173   1.586   2.099 -0.3213  0.1724 -0.9146
 4425TIP3   OH234833   4.010   4.706   4.189 -0.4753  0.0383  0.1164
 4425TIP3    H134834   4.012   4.798   4.215 -0.3396  0.0878 -0.0668
 4425TIP3    H234835   3.936   4.700   4.128  0.5048  0.3787 -1.1620
 4426TIP3   OH234836   5.278   0.824   3.117 -0.9172  0.1677 -0.3682
 4426TIP3    H134837   5.351   0.873   3.079 -0.2615  0.3933  1.1261
 4426TIP3    H234838   5.255   0.872   3.196 -0.1724 -1.9179  1.2400
 4427TIP3   OH234839   0.753   5.722   2.235 -0.8300  0.5166 -0.6817
 4427TIP3    H134840   0.739   5.789   2.302  0.4201  0.4597 -0.3458
 4427TIP3    H234841   0.682   5.736   2.173 -1.8724  0.7285  0.5169
 4428TIP3   OH234842   0.789   2.879   2.348  0.3604 -0.2443  0.5740
 4428TIP3    H134843   0.803   2.822   2.272 -1.8484  1.3403 -1.1682
 4428TIP3    H234844   0.710   2.845   2.390 -0.2262  0.6928  0.2769
 4429TIP3   OH234845   3.590   5.482   0.321 -0.4964 -0.2382  0.1721
 4429TIP3    H134846   3.528   5.554   0.333 -1.2134 -0.2444 -2.7475
 4429TIP3    H234847   3.676   5.523   0.323 -0.7519  0.2696  1.1331
 4430TIP3   OH234848   0.263   4.808   1.188  0.4108  0.4353  0.5541
 4430TIP3    H134849   0.299   4.749   1.254  1.8113  1.9882  1.2445
 4430TIP3    H234850   0.265   4.757   1.107  1.6324 -0.4395  1.1059
 4431TIP3   OH234851   3.527   2.580   3.401  1.0846  0.1603 -0.1747
 4431TIP3    H134852   3.595   2.514   3.388 -0.5411 -1.7635  0.5801
 4431TIP3    H234853   3.539   2.610   3.491  0.4216 -0.8671  0.2789
 4432TIP3   OH234854   1.649   1.161   4.853  0.1977 -0.5685  0.6187
 4432TIP3    H134855   1.692   1.100   4.794  0.5990 -0.2072  0.5361
 4432TIP3    H234856   1.702   1.240   4.849 -1.1362  0.3002 -0.3920
 4433TIP3   OH234857   1.054   3.486   3.782  0.2221 -1.0841  0.1515
 4433TIP3    H134858   1.045   3.579   3.761 -0.7218 -0.9611  0.9774
 4433TIP3    H234859   1.098   3.485   3.867  0.3562 -1.3939  0.0782
 4434TIP3   OH234860   6.928   2.452   1.727  0.0173 -0.6038  0.3615
 4434TIP3    H134861   6.989   2.415   1.662  0.2489 -0.4476  0.4883
 4434TIP3    H234862   6.878   2.376   1.758 -0.0289 -0.6952  0.0724
 4435TIP3   OH234863   2.669   1.611   1.626 -0.4988 -0.8197  0.0334
 4435TIP3    H134864   2.614   1.653   1.559  0.4889  2.5671  1.1323
 4435TIP3    H234865   2.717   1.544   1.578 -0.8122  0.5743 -2.4122
 4436TIP3   OH234866   2.632   3.701   1.262 -0.6469 -0.4186  0.5157
 4436TIP3    H134867   2.660   3.780   1.216 -0.3958 -0.4942  0.5390
 4436TIP3    H234868   2.713   3.661   1.293 -0.6800 -1.2522 -0.4147
 4437TIP3   OH234869   0.161   1.678   2.340 -0.2299  0.5153 -0.1058
 4437TIP3    H134870   0.097   1.748   2.345 -0.0340  0.8883 -1.9236
 4437TIP3    H234871   0.244   1.723   2.324 -0.2231 -0.1132 -2.0779
 4438TIP3   OH234872   1.374   0.789   0.279 -0.3226  0.0601 -0.3376
 4438TIP3    H134873   1.467   0.790   0.258 -0.4760 -0.9478 -1.1143
 4438TIP3    H234874   1.351   0.881   0.288  1.0964  0.3073  1.5144
 4439TIP3   OH234875   3.525   2.107   1.486 -0.3208 -0.3217 -0.1036
 4439TIP3    H134876   3.559   2.086   1.400 -1.6393 -0.6668 -0.5597
 4439TIP3    H234877   3.505   2.023   1.526  0.0780 -0.1556  0.4613
 4440TIP3   OH234878   5.354   0.758   2.430  0.5747  0.3029  0.4278
 4440TIP3    H134879   5.326   0.800   2.511 -1.3686  0.9140 -0.4919
 4440TIP3    H234880   5.394   0.829   2.379  1.0748  0.0930  0.5202
 4441TIP3   OH234881   2.278   0.626   0.699 -0.1793 -0.1606 -0.4618
 4441TIP3    H134882   2.216   0.575   0.752  0.7001 -0.7810 -0.0044
 4441TIP3    H234883   2.325   0.679   0.763  1.9962 -2.0666 -0.3545
 4442TIP3   OH234884   6.687   3.017   3.005  0.1890 -0.4955 -0.2825
 4442TIP3    H134885   6.748   2.962   3.053 -1.8308 -1.6172  1.1309
 4442TIP3    H234886   6.727   3.104   3.008  0.7975 -0.7645  2.3852
 4443TIP3   OH234887   1.941   5.956   0.484  0.2047 -0.5458  0.3753
 4443TIP3    H134888   1.915   5.928   0.397 -1.7373  1.5598  0.1817
 4443TIP3    H234889   1.880   5.913   0.543  0.6336 -0.8871  0.5753
 4444TIP3   OH234890   3.300   5.542   0.611  0.4985  0.4716 -0.0956
 4444TIP3    H134891   3.287   5.452   0.581 -0.3058  0.6780 -0.4006
 4444TIP3    H234892   3.364   5.579   0.550 -0.0154  0.4404 -0.6603
 4445TIP3   OH234893   6.894   5.180   3.058  0.3845  0.1358 -0.1508
 4445TIP3    H134894   6.968   5.178   2.997 -0.4450 -1.7586 -1.1864
 4445TIP3    H234895   6.869   5.272   3.061  0.5450  0.3461 -2.6398
 4446TIP3   OH234896   0.609   0.549   2.620 -0.5985  0.4088 -0.2304
 4446TIP3    H134897   0.686   0.582   2.666 -0.1084 -1.8704  0.7190
 4446TIP3    H234898   0.538   0.554   2.684 -0.4670 -0.4892  0.0077
 4447TIP3   OH234899   5.844   4.059   3.637 -0.2213  0.0241  0.0265
 4447TIP3    H134900   5.752   4.083   3.626 -0.1637  0.2366 -0.0022
 4447TIP3    H234901   5.847   3.965   3.616 -0.6319 -0.2534  1.1450
 4448TIP3   OH234902   6.918   1.165   4.114  0.5282  0.2631 -0.3896
 4448TIP3    H134903   6.837   1.185   4.161  0.9770 -0.4720  0.7411
 4448TIP3    H234904   6.983   1.152   4.183  1.1107 -1.3436 -1.1832
 4449TIP3   OH234905   5.118   4.634   3.990 -0.4768 -0.0336 -0.1579
 4449TIP3    H134906   5.188   4.642   4.055 -1.2751  0.7813  0.6337
 4449TIP3    H234907   5.084   4.723   3.980 -1.2717 -0.3793 -0.6825
 4450TIP3   OH234908   4.037   5.299   0.474 -0.0666  0.5530  0.1844
 4450TIP3    H134909   4.044   5.288   0.380  2.3684  1.1018  0.2373
 4450TIP3    H234910   4.069   5.217   0.511 -0.7103  0.4558  0.5391
 4451TIP3   OH234911   6.301   2.351   0.142  0.0717  0.3065 -0.5979
 4451TIP3    H134912   6.229   2.333   0.081  1.1399 -1.2205 -1.4828
 4451TIP3    H234913   6.267   2.325   0.227 -1.3563  2.2242 -0.5042
 4452TIP3   OH234914   0.975   1.299   1.731  0.1039  0.0288  0.2345
 4452TIP3    H134915   0.915   1.282   1.659  1.1900 -0.8968 -0.4943
 4452TIP3    H234916   0.986   1.394   1.732 -0.4575  0.1063 -0.3643
 4453TIP3   OH234917   6.401   5.481   2.472  0.0811 -0.6952  0.3112
 4453TIP3    H134918   6.492   5.453   2.479  0.4116 -0.2024 -1.4248
 4453TIP3    H234919   6.370   5.485   2.562  1.1458 -2.8451  0.8391
 4454TIP3   OH234920   5.528   0.916   3.672  0.6294 -0.3438 -0.1973
 4454TIP3    H134921   5.564   0.968   3.743  0.3570 -0.0998 -0.2375
 4454TIP3    H234922   5.434   0.911   3.691  0.7289 -1.2814  0.1034
 4455TIP3   OH234923   1.285   0.977   0.596 -0.3180 -0.1649  0.4541
 4455TIP3    H134924   1.288   0.883   0.613 -2.0327 -0.9101 -2.5232
 4455TIP3    H234925   1.344   0.990   0.522 -1.7755  0.6251 -0.6266
 4456TIP3   OH234926   5.332   1.175   3.574 -0.0928  0.0244  0.2663
 4456TIP3    H134927   5.239   1.195   3.566 -0.3683 -1.3114 -0.0802
 4456TIP3    H234928   5.335   1.083   3.599  1.1177  0.4422  1.8291
 4457TIP3   OH234929   3.054   0.311   1.107 -0.2570  0.4062 -0.1770
 4457TIP3    H134930   2.998   0.338   1.180 -1.3592  0.1416 -0.9015
 4457TIP3    H234931   3.143   0.327   1.138 -0.7449  1.3881  0.7911
 4458TIP3   OH234932   6.662   2.823   2.343 -0.1118 -0.3955  0.8096
 4458TIP3    H134933   6.646   2.736   2.306  1.1582 -0.1109 -0.5079
 4458TIP3    H234934   6.756   2.826   2.358  0.1908  1.3993 -1.0263
 4459TIP3   OH234935   4.604   1.628   4.351 -0.2377 -0.6934 -0.8094
 4459TIP3    H134936   4.687   1.674   4.336 -0.6499 -0.0608 -1.2185
 4459TIP3    H234937   4.537   1.695   4.335 -0.7933 -0.7453  1.0417
 4460TIP3   OH234938   1.519   1.280   1.542  0.1829 -0.3612 -0.1722
 4460TIP3    H134939   1.475   1.313   1.620 -0.3811 -0.9401 -0.2280
 4460TIP3    H234940   1.468   1.202   1.517  2.2018 -2.0736  0.7082
 4461TIP3   OH234941   3.832   2.384   3.002 -0.4290  0.2205  0.2886
 4461TIP3    H134942   3.739   2.402   2.989 -0.6970 -2.4784 -2.2831
 4461TIP3    H234943   3.876   2.458   2.960 -1.2953  1.7449  1.8880
 4462TIP3   OH234944   4.159   2.793   2.848 -0.2422  0.4249 -0.4578
 4462TIP3    H134945   4.138   2.885   2.836 -0.8876  0.3861  0.3250
 4462TIP3    H234946   4.211   2.791   2.928  0.3927  0.1869 -0.8661
 4463TIP3   OH234947   5.833   0.412   3.033  0.0362  0.5949 -0.2779
 4463TIP3    H134948   5.779   0.468   2.977 -0.2754  0.8222  0.2417
 4463TIP3    H234949   5.918   0.456   3.036  0.0326  0.6203 -0.5101
 4464TIP3   OH234950   6.209   6.199   2.299  0.6178  0.2306  0.3150
 4464TIP3    H134951   6.274   6.266   2.321  1.5827 -0.4708 -0.2905
 4464TIP3    H234952   6.236   6.123   2.351 -0.4042  0.2627  0.9180
 4465TIP3   OH234953   0.507   4.872   8.490 -0.0382 -0.2852  0.9682
 4465TIP3    H134954   0.549   4.932   8.428  0.2995  0.1740  1.6358
 4465TIP3    H234955   0.493   4.924   8.569  2.3670 -1.6656  2.4029
 4466TIP3   OH234956   1.304   6.512   4.595  0.5855  0.5920 -0.6756
 4466TIP3    H134957   1.385   6.561   4.611  0.3991  0.9540 -0.8244
 4466TIP3    H234958   1.242   6.578   4.563  0.4142  0.2136 -1.1453
 4467TIP3   OH234959   6.228   6.697   0.835  0.0480  0.1737 -0.5376
 4467TIP3    H134960   6.212   6.612   0.793 -1.5540  0.6970 -1.0810
 4467TIP3    H234961   6.177   6.693   0.916  1.8399 -0.2219  0.6222
 4468TIP3   OH234962   2.936   5.853   1.192 -0.0004 -0.1142 -0.0031
 4468TIP3    H134963   2.870   5.786   1.210  1.5348 -1.8971 -0.6999
 4468TIP3    H234964   2.910   5.927   1.247 -0.0522 -2.3321  3.2548
 4469TIP3   OH234965   5.313   1.891   3.218  0.8805  0.2144  0.1840
 4469TIP3    H134966   5.369   1.957   3.259  0.3284  0.8651 -0.0772
 4469TIP3    H234967   5.369   1.846   3.156  1.1441  0.7889 -0.0018
 4470TIP3   OH234968   4.593   0.136   3.598  1.1097  0.1034  0.1975
 4470TIP3    H134969   4.688   0.132   3.588  1.0988 -1.6454  0.4859
 4470TIP3    H234970   4.559   0.073   3.535  0.1150  0.8198 -0.0112
 4471TIP3   OH234971   2.326   5.928   2.077  0.0695  0.3135 -0.9477
 4471TIP3    H134972   2.295   5.893   1.993 -0.9354  0.9604 -0.8750
 4471TIP3    H234973   2.419   5.942   2.064 -0.0465  0.2778 -1.9212
 4472TIP3   OH234974   4.362   0.054   2.426 -0.0211 -0.3720  0.5187
 4472TIP3    H134975   4.370   0.105   2.507  0.5811 -0.4287  0.5016
 4472TIP3    H234976   4.433   0.087   2.371  0.5655 -1.4187  0.6193
 4473TIP3   OH234977   6.852   0.015   0.109 -0.4881  0.6909  0.0335
 4473TIP3    H134978   6.785  -0.029   0.056  0.5159 -1.9392  0.8195
 4473TIP3    H234979   6.923  -0.048   0.116  0.2742  1.7160  2.8437
 4474TIP3   OH234980   5.180   5.656   2.247 -0.1163 -0.1496 -0.1307
 4474TIP3    H134981   5.148   5.712   2.176  1.6243  0.1090 -0.7457
 4474TIP3    H234982   5.251   5.706   2.287  0.0093 -1.0017  0.7446
 4475TIP3   OH234983   3.246   3.716   3.318  0.2846 -0.0350  0.3029
 4475TIP3    H134984   3.328   3.672   3.343  0.3512 -1.4027 -2.0371
 4475TIP3    H234985   3.191   3.710   3.396  1.5334 -1.2762  1.1497
 4476TIP3   OH234986   2.735   4.033   1.825 -0.4539 -0.2400  0.2187
 4476TIP3    H134987   2.715   3.986   1.906  1.8651 -1.1792  0.3153
 4476TIP3    H234988   2.798   3.978   1.779  0.8088  1.7866 -0.6533
 4477TIP3   OH234989   5.406   5.352   1.183 -0.5388  0.0006 -0.0219
 4477TIP3    H134990   5.483   5.388   1.227  0.0706 -1.0067 -0.2236
 4477TIP3    H234991   5.407   5.393   1.096  1.3056 -1.8926 -0.9926
 4478TIP3   OH234992   5.190   1.971   2.925  0.1771  0.1211 -0.6550
 4478TIP3    H134993   5.096   1.966   2.943  0.3621 -0.7553  0.1413
 4478TIP3    H234994   5.204   2.060   2.892 -0.5869  1.0353  1.3410
 4479TIP3   OH234995   4.924   0.335   4.832 -0.3291  0.4007 -0.1262
 4479TIP3    H134996   5.017   0.355   4.844 -0.6945  1.3500  1.5054
 4479TIP3    H234997   4.916   0.242   4.852  0.4183  0.0393 -1.4040
 4480TIP3   OH234998   0.452   0.262   1.854  0.3932 -0.3850 -0.2062
 4480TIP3    H134999   0.358   0.262   1.839  0.6909 -0.2102 -2.4285
 4480TIP3    H235000   0.489   0.304   1.776  2.4304 -2.2637 -0.3765
 4481TIP3   OH235001   0.876   0.944   2.531  0.0842  0.1460  0.3837
 4481TIP3    H135002   0.825   0.879   2.483  0.9497  0.2838 -0.7643
 4481TIP3    H235003   0.965   0.932   2.499  0.5190  0.8809  1.2928
 4482TIP3   OH235004   5.482   3.556   0.881  0.2768  0.0286  0.4947
 4482TIP3    H135005   5.439   3.635   0.848  0.3911  0.3561  1.1168
 4482TIP3    H235006   5.535   3.587   0.954 -1.0911 -0.8819  1.9525
 4483TIP3   OH235007   0.321   3.631   2.318 -0.7061  0.1490  0.1866
 4483TIP3    H135008   0.375   3.634   2.398 -1.0006  0.7398  0.3675
 4483TIP3    H235009   0.265   3.554   2.330  0.1988 -0.5777 -0.0771
 4484TIP3   OH235010   1.262   6.910   4.284 -0.2830  0.9888  0.0592
 4484TIP3    H135011   1.262   6.816   4.305 -3.3840  1.0309  0.7745
 4484TIP3    H235012   1.252   6.913   4.189  0.1634  0.6024 -0.0034
 4485TIP3   OH235013   0.773   1.420   2.295 -0.1997 -0.6701  0.1480
 4485TIP3    H135014   0.772   1.325   2.278 -0.3195 -0.8904  1.3185
 4485TIP3    H235015   0.758   1.428   2.389 -1.3033  0.5674 -0.1013
 4486TIP3   OH235016   3.647   5.880   0.524  0.1403 -0.2578 -0.5515
 4486TIP3    H135017   3.679   5.872   0.434  2.0515 -1.8452  0.1953
 4486TIP3    H235018   3.654   5.973   0.544  0.8769 -0.0661 -1.6249
 4487TIP3   OH235019   3.767   6.579   4.358  0.1024  0.1349 -0.3487
 4487TIP3    H135020   3.694   6.641   4.356  1.2407  1.6556  1.7517
 4487TIP3    H235021   3.803   6.583   4.270 -0.3680  1.8473 -0.5050
 4488TIP3   OH235022   5.350   1.561   1.919 -0.1386  0.3109 -0.1901
 4488TIP3    H135023   5.267   1.520   1.943 -0.8923  1.7118 -0.2971
 4488TIP3    H235024   5.341   1.652   1.947  2.0705  0.0970  1.4298
 4489TIP3   OH235025   2.983   0.328   3.551 -0.1791  0.1671  0.4010
 4489TIP3    H135026   2.998   0.417   3.582 -0.8992 -0.0117  1.3083
 4489TIP3    H235027   2.915   0.336   3.485  1.0229  0.4940 -0.8279
 4490TIP3   OH235028   3.028   5.315   3.906 -0.6566  0.0047 -0.4029
 4490TIP3    H135029   3.059   5.238   3.953  0.8267  1.2071  0.6977
 4490TIP3    H235030   3.040   5.387   3.967  1.3870  1.6647 -2.5377
 4491TIP3   OH235031   1.026   1.881   2.778  0.1578  0.6815  0.4165
 4491TIP3    H135032   1.090   1.856   2.711  0.3563 -0.6929  1.0819
 4491TIP3    H235033   1.059   1.964   2.812 -0.0040  1.4676 -1.2324
 4492TIP3   OH235034   3.381   3.706   2.411  0.0377  0.2489 -0.1696
 4492TIP3    H135035   3.453   3.712   2.475  0.0026  2.0468 -0.2586
 4492TIP3    H235036   3.406   3.634   2.353 -0.5946 -2.4645  2.6296
 4493TIP3   OH235037   5.075   2.372   2.021  0.0192 -0.3978  0.1354
 4493TIP3    H135038   5.047   2.291   1.978  0.1832 -0.0843 -0.5796
 4493TIP3    H235039   5.081   2.349   2.113 -0.1627 -1.1409 -0.0289
 4494TIP3   OH235040   5.152   5.606   1.358  0.1502 -0.2125 -0.1172
 4494TIP3    H135041   5.083   5.649   1.307  0.1387 -0.9759 -0.7612
 4494TIP3    H235042   5.105   5.552   1.422  0.1652  0.4744  0.4903
 4495TIP3   OH235043   4.893   2.925   1.381 -0.0465 -0.1035 -0.2699
 4495TIP3    H135044   4.883   3.008   1.334  0.8200 -0.1102 -0.4854
 4495TIP3    H235045   4.972   2.886   1.343  0.1683 -0.5213  0.5833
 4496TIP3   OH235046   1.228   3.737   3.885  0.0183  0.0764  0.7215
 4496TIP3    H135047   1.149   3.756   3.835  0.0488 -0.2412  0.5527
 4496TIP3    H235048   1.197   3.687   3.960 -0.1014  1.0192  1.3250
 4497TIP3   OH235049   5.235   3.695   0.509  0.3011  0.8676  0.2068
 4497TIP3    H135050   5.195   3.766   0.460 -0.1446  0.1577 -0.4776
 4497TIP3    H235051   5.166   3.666   0.570 -0.1534 -0.1588 -0.7680
 4498TIP3   OH235052   5.329   1.982   1.216  0.1775 -0.2864 -0.3759
 4498TIP3    H135053   5.289   1.942   1.293  1.3708  0.4203  0.6593
 4498TIP3    H235054   5.259   2.032   1.176 -0.6516 -1.2630 -0.1740
 4499TIP3   OH235055   0.332   6.078   0.046 -0.1211  0.2052 -0.2216
 4499TIP3    H135056   0.249   6.032   0.033  1.0695 -3.4613  3.1071
 4499TIP3    H235057   0.312   6.146   0.111 -0.7225  0.2448 -0.4385
 4500TIP3   OH235058   0.100   2.301   0.579  0.0988  0.7113 -0.3484
 4500TIP3    H135059   0.148   2.311   0.496  0.8309  1.4276  0.1464
 4500TIP3    H235060   0.145   2.231   0.625 -0.7520 -0.1908 -0.8401
 4501TIP3   OH235061   4.462   6.274   0.670 -0.2122  0.2333 -0.3841
 4501TIP3    H135062   4.532   6.293   0.608 -1.2168  0.6090 -1.4444
 4501TIP3    H235063   4.399   6.346   0.659 -1.1046 -0.4562  0.0205
 4502TIP3   OH235064   3.044   4.670   2.996  0.1175 -0.3804 -0.3150
 4502TIP3    H135065   3.136   4.695   3.004  0.0488 -0.7391  2.9245
 4502TIP3    H235066   2.999   4.752   2.974  1.0832 -0.0217 -1.0444
 4503TIP3   OH235067   5.265   2.096   0.794 -0.3181  0.1387 -0.4646
 4503TIP3    H135068   5.176   2.130   0.781 -1.3398 -2.5746 -1.4312
 4503TIP3    H235069   5.296   2.077   0.705  1.5665  1.6956 -0.1894
 4504TIP3   OH235070   3.013   6.087   3.390 -0.2279  0.1286 -0.0374
 4504TIP3    H135071   3.071   6.149   3.346 -1.4621  2.5977  1.6238
 4504TIP3    H235072   3.072   6.016   3.419  1.2377  0.4964 -1.9313
 4505TIP3   OH235073   0.805   4.135   2.961  0.0249  0.0231 -0.1343
 4505TIP3    H135074   0.852   4.054   2.942 -1.9733 -1.0211 -0.8634
 4505TIP3    H235075   0.853   4.202   2.912  2.2455 -0.4867  1.1961
 4506TIP3   OH235076   3.592   2.723   2.122 -0.2217  0.4287 -0.3667
 4506TIP3    H135077   3.497   2.726   2.130 -0.2354 -0.9256  0.2393
 4506TIP3    H235078   3.608   2.677   2.040 -0.0682  1.6460 -1.0420
 4507TIP3   OH235079   6.577   3.085   1.660  0.8640 -0.1760  0.2593
 4507TIP3    H135080   6.574   3.151   1.590 -1.2986 -1.7638 -1.3133
 4507TIP3    H235081   6.513   3.018   1.632  0.3878 -1.2393  3.4619
 4508TIP3   OH235082   2.311   0.013   1.446 -0.1595 -0.0833  0.5255
 4508TIP3    H135083   2.218   0.032   1.459 -0.1286  0.1345  0.4285
 4508TIP3    H235084   2.314  -0.081   1.428 -0.4500  0.0497 -0.2746
 4509TIP3   OH235085   2.676   4.854   2.793  0.6671  0.1335 -0.2055
 4509TIP3    H135086   2.619   4.931   2.784 -1.3369 -1.1428  0.7948
 4509TIP3    H235087   2.667   4.808   2.710  1.2999  0.6064 -0.5391
 4510TIP3   OH235088   5.066   6.667   0.714  0.2975 -0.7867 -0.7774
 4510TIP3    H135089   5.086   6.718   0.636  2.7924 -1.8219 -0.9092
 4510TIP3    H235090   5.120   6.707   0.783 -0.1324 -1.3099 -0.1182
 4511TIP3   OH235091   1.880   4.887   1.692  0.1828  0.2698 -0.3851
 4511TIP3    H135092   1.897   4.981   1.693  0.5201  0.2162 -1.0218
 4511TIP3    H235093   1.879   4.863   1.785  0.5839  0.8128 -0.2320
 4512TIP3   OH235094   3.152   5.922   3.173 -0.0611 -0.0072 -0.2681
 4512TIP3    H135095   3.231   5.959   3.211  1.2081 -2.5139 -0.2050
 4512TIP3    H235096   3.162   5.827   3.186 -1.9897 -0.5708 -2.2946
 4513TIP3   OH235097   6.817   5.045   4.571 -0.4209  0.3024 -0.0459
 4513TIP3    H135098   6.834   5.108   4.500  2.0530 -0.8678 -0.6246
 4513TIP3    H235099   6.843   4.961   4.534 -0.0747 -0.4990  1.9179
 4514TIP3   OH235100   2.211   2.147   3.492  0.4612 -0.3546  0.0035
 4514TIP3    H135101   2.177   2.072   3.540  1.0154 -0.0788  0.8737
 4514TIP3    H235102   2.295   2.167   3.536 -0.3869  1.7149  0.8416
 4515TIP3   OH235103   6.738   4.007   2.510 -0.1342  0.1455 -0.2344
 4515TIP3    H135104   6.774   3.927   2.547  0.5199  0.6313  0.2146
 4515TIP3    H235105   6.676   3.978   2.443  1.3679 -0.7078 -1.3043
 4516TIP3   OH235106   6.710   6.155   3.913  0.5633 -0.4044  0.1157
 4516TIP3    H135107   6.673   6.224   3.968 -0.0012 -1.5875  1.2817
 4516TIP3    H235108   6.791   6.192   3.879  1.0708  0.2949  1.9701
 4517TIP3   OH235109   6.877   2.901   2.816  0.0001  0.3153 -0.1182
 4517TIP3    H135110   6.846   2.985   2.781 -2.6787  0.3402  1.9641
 4517TIP3    H235111   6.893   2.919   2.909  1.4906 -1.0024 -0.0921
 4518TIP3   OH235112   3.737   2.449   4.097 -0.2577 -0.0038  0.1813
 4518TIP3    H135113   3.774   2.365   4.124  1.1533  0.1886 -0.9754
 4518TIP3    H235114   3.746   2.506   4.174 -0.6472 -0.7348  0.7695
 4519TIP3   OH235115   4.585   0.778   1.240 -0.3390 -0.1933 -0.0398
 4519TIP3    H135116   4.677   0.786   1.215 -0.5849  0.1233 -0.8613
 4519TIP3    H235117   4.552   0.704   1.188 -0.6578 -0.0233 -0.0827
 4520TIP3   OH235118   3.340   2.905   2.370 -0.5975 -0.2855  0.2595
 4520TIP3    H135119   3.306   2.839   2.430 -0.0158 -0.3499  0.5316
 4520TIP3    H235120   3.316   2.989   2.410  0.6258 -0.3097  1.1180
 4521TIP3   OH235121   6.321   1.119   2.830  0.1103  0.3056 -0.3585
 4521TIP3    H135122   6.239   1.074   2.852 -0.4699  0.8843 -1.2454
 4521TIP3    H235123   6.361   1.139   2.914 -0.0592 -1.0424  0.0722
 4522TIP3   OH235124   1.122   6.924   0.761 -0.0803  0.6153  0.0136
 4522TIP3    H135125   1.147   6.939   0.852  0.5807  1.3957 -0.2804
 4522TIP3    H235126   1.177   6.850   0.734  0.7792  1.2925 -0.1534
 4523TIP3   OH235127   2.058   2.560   2.419  0.5618  0.3752  0.1989
 4523TIP3    H135128   2.149   2.570   2.390  0.0225  1.2302 -1.2744
 4523TIP3    H235129   2.060   2.589   2.511  1.7204  0.6808  0.1030
 4524TIP3   OH235130   4.939   6.044   2.094 -0.3461  0.0153 -0.0394
 4524TIP3    H135131   5.005   6.058   2.162  0.1426 -0.7870 -0.3420
 4524TIP3    H235132   4.879   6.118   2.103  0.2535  0.4230  0.6376
 4525TIP3   OH235133   5.242   6.731   3.187 -0.1445 -0.5061  0.0624
 4525TIP3    H135134   5.252   6.824   3.208  0.2487  0.0523 -2.2755
 4525TIP3    H235135   5.177   6.729   3.117 -0.3430 -2.0309  0.2508
 4526TIP3   OH235136   2.704   2.736   1.382 -0.7490  0.5902  0.0248
 4526TIP3    H135137   2.769   2.700   1.321  1.7877 -0.0535  2.8865
 4526TIP3    H235138   2.630   2.676   1.375  1.3672 -2.3757  0.9494
 4527TIP3   OH235139   0.238   4.182   2.816  0.1874 -0.2649  0.1036
 4527TIP3    H135140   0.195   4.261   2.849  1.7833  0.2251  1.1766
 4527TIP3    H235141   0.184   4.110   2.848  0.4654  0.2951  1.9833
 4528TIP3   OH235142   1.901   3.437   2.325  0.1246 -0.2321 -0.8885
 4528TIP3    H135143   1.877   3.352   2.289  2.2682 -0.5064 -1.7972
 4528TIP3    H235144   1.862   3.501   2.266 -2.4998 -0.4834  0.4498
 4529TIP3   OH235145   6.120   4.578   1.150  0.4927 -0.2021  0.0638
 4529TIP3    H135146   6.106   4.642   1.080  0.0275  1.7496  1.8322
 4529TIP3    H235147   6.184   4.619   1.208 -0.9185 -0.6172  2.0383
 4530TIP3   OH235148   1.888   2.131   3.479  0.4372 -0.5808 -0.8271
 4530TIP3    H135149   1.963   2.188   3.461  0.7938 -1.2365 -1.4506
 4530TIP3    H235150   1.925   2.043   3.480  0.2674 -0.7003  2.1521
 4531TIP3   OH235151   2.870   3.844   2.657 -0.4942 -0.4292 -0.5209
 4531TIP3    H135152   2.888   3.825   2.565 -1.8155 -0.2963 -0.8274
 4531TIP3    H235153   2.801   3.911   2.655  1.3945  1.7113  0.5449
 4532TIP3   OH235154   2.635   0.661   0.845 -0.2218 -0.1470 -0.6523
 4532TIP3    H135155   2.603   0.605   0.775  0.9075  0.0467 -1.3621
 4532TIP3    H235156   2.727   0.635   0.856  0.6040  2.1100 -1.6234
 4533TIP3   OH235157   6.412   6.454   2.176  0.3533 -0.3578  0.3848
 4533TIP3    H135158   6.424   6.488   2.087 -1.0944  1.3477  0.7842
 4533TIP3    H235159   6.483   6.391   2.188  1.9544  1.0683 -1.1638
 4534TIP3   OH235160   0.894   4.982   1.870 -0.5108 -0.0493  0.4079
 4534TIP3    H135161   0.925   5.043   1.936  1.3424 -0.2466 -0.2225
 4534TIP3    H235162   0.971   4.930   1.847 -1.8762 -2.2868  0.5291
 4535TIP3   OH235163   1.496   6.582   3.672 -0.0414  0.1231  0.3382
 4535TIP3    H135164   1.450   6.540   3.599  0.1392 -0.2974  0.4628
 4535TIP3    H235165   1.543   6.655   3.631  1.9271 -1.4580 -0.4012
 4536TIP3   OH235166   5.339   0.019   1.346  0.0614  0.9033 -0.3310
 4536TIP3    H135167   5.423  -0.018   1.372 -1.0796 -2.4871 -0.9599
 4536TIP3    H235168   5.309  -0.038   1.275 -2.9778  1.6800  0.2080
 4537TIP3   OH235169   6.629   6.393   1.275  0.4313  0.0385  0.2201
 4537TIP3    H135170   6.575   6.388   1.354  0.8814 -0.1223  0.5252
 4537TIP3    H235171   6.627   6.485   1.250  0.0765  0.0459  0.2685
 4538TIP3   OH235172   5.493   6.891   4.050 -0.2787 -0.5859 -0.5284
 4538TIP3    H135173   5.546   6.959   4.091 -2.8224  0.3256  1.5415
 4538TIP3    H235174   5.442   6.937   3.983 -0.5558 -0.8575 -0.5071
 4539TIP3   OH235175   4.610   0.719   2.137 -0.1383 -0.0221 -0.5606
 4539TIP3    H135176   4.585   0.658   2.206  1.2678  1.0767  1.0109
 4539TIP3    H235177   4.624   0.664   2.060 -0.3068 -1.4864  0.4147
 4540TIP3   OH235178   6.532   2.435   1.749 -0.1236  0.1784 -0.1698
 4540TIP3    H135179   6.584   2.514   1.735 -0.9414  0.5511 -1.3426
 4540TIP3    H235180   6.519   2.431   1.844 -2.2117  2.9282 -0.2017
 4541TIP3   OH235181   4.206   0.140   4.353 -0.3531 -0.5717 -0.2829
 4541TIP3    H135182   4.169   0.167   4.437  0.3100 -3.7711  1.1714
 4541TIP3    H235183   4.249   0.219   4.319 -0.3804  0.7454  2.4950
 4542TIP3   OH235184   0.423   2.683   2.195  0.6763  0.2526 -0.1456
 4542TIP3    H135185   0.472   2.761   2.221  0.3951 -0.0562  1.3897
 4542TIP3    H235186   0.487   2.612   2.198  0.0034 -0.3938  3.1303
 4543TIP3   OH235187   4.155   6.718   3.097 -0.1704 -0.4820  0.1169
 4543TIP3    H135188   4.112   6.787   3.148 -1.3027  0.0684 -1.4930
 4543TIP3    H235189   4.246   6.718   3.129 -0.4350  0.9366  0.9781
 4544TIP3   OH235190   4.553   6.483   2.459  0.3028  0.5951 -0.2701
 4544TIP3    H135191   4.501   6.481   2.540  0.4016 -0.4093 -0.2217
 4544TIP3    H235192   4.625   6.543   2.479 -1.2453  2.6690 -0.6214
 4545TIP3   OH235193   2.869   5.641   0.249  0.0873  0.4367 -0.5878
 4545TIP3    H135194   2.962   5.617   0.243 -0.1374 -0.2812 -1.5093
 4545TIP3    H235195   2.869   5.726   0.292  1.0695 -0.3106  0.9750
 4546TIP3   OH235196   1.391   1.759   1.509 -0.4765  0.1887 -0.4387
 4546TIP3    H135197   1.298   1.739   1.523 -0.6749  1.1275 -0.3889
 4546TIP3    H235198   1.400   1.763   1.414 -0.6665  0.8799 -0.4346
 4547TIP3   OH235199   5.580   4.672   2.982  0.5987  0.2388 -0.3727
 4547TIP3    H135200   5.602   4.603   3.045 -0.9088  0.6807  0.7146
 4547TIP3    H235201   5.663   4.697   2.943  1.5759 -0.1663  1.3528
 4548TIP3   OH235202   5.206   1.980   3.503 -0.6597 -0.1939 -0.3499
 4548TIP3    H135203   5.220   1.904   3.561 -1.6105 -0.1565 -0.0557
 4548TIP3    H235204   5.197   1.943   3.416  1.3945 -0.2080 -0.6076
 4549TIP3   OH235205   5.180   1.622   2.745  0.6181 -0.0723  0.1784
 4549TIP3    H135206   5.093   1.635   2.781  0.3129  1.7209 -1.0808
 4549TIP3    H235207   5.239   1.652   2.815  0.2503 -1.0645  0.9385
 4550TIP3   OH235208   4.667   4.467   1.407 -0.0527  0.2421 -0.0878
 4550TIP3    H135209   4.608   4.404   1.367 -0.3259 -0.2907  1.0918
 4550TIP3    H235210   4.612   4.515   1.469  0.5219  0.4578  0.2652
 4551TIP3   OH235211   6.333   3.059   4.308 -0.7618  0.3349  0.1668
 4551TIP3    H135212   6.332   3.022   4.396  0.5652 -2.4588 -0.8788
 4551TIP3    H235213   6.246   3.040   4.273 -0.8961  0.4178  0.4485
 4552TIP3   OH235214   3.255   4.721   1.518 -1.0962 -1.3229  0.5845
 4552TIP3    H135215   3.296   4.749   1.600 -0.6718  0.7149 -0.2482
 4552TIP3    H235216   3.320   4.665   1.476 -1.2091 -2.1573  1.4922
 4553TIP3   OH235217   4.211   1.629   2.947 -0.1144  0.4609  0.1817
 4553TIP3    H135218   4.250   1.715   2.960 -1.0248  0.8729  0.2466
 4553TIP3    H235219   4.162   1.637   2.865 -0.4774  0.1055  0.3600
 4554TIP3   OH235220   6.804   1.774   0.470  0.5246 -0.3793 -0.0394
 4554TIP3    H135221   6.816   1.767   0.375 -0.5750  1.5023 -0.3642
 4554TIP3    H235222   6.726   1.721   0.488 -0.6377  1.0769 -0.5863
 4555TIP3   OH235223   4.384   2.745   1.290 -0.0297 -0.1207 -0.3537
 4555TIP3    H135224   4.444   2.716   1.221  1.1929  0.5909  0.3683
 4555TIP3    H235225   4.381   2.672   1.351 -0.7398 -0.5690 -0.9217
 4556TIP3   OH235226   3.478   0.636   1.066  0.2357  0.1279  0.0617
 4556TIP3    H135227   3.485   0.556   1.015  0.1541  1.0512 -1.4722
 4556TIP3    H235228   3.420   0.693   1.014 -0.1161  0.9996  1.3494
 4557TIP3   OH235229   1.060   2.703   1.359  0.3065 -0.7286  0.3957
 4557TIP3    H135230   0.988   2.765   1.355  0.8250 -0.1877 -1.6621
 4557TIP3    H235231   1.125   2.744   1.416  0.1626  0.1048 -0.0337
 4558TIP3   OH235232   0.324   0.498   0.896 -0.4927 -0.7827 -0.1930
 4558TIP3    H135233   0.264   0.568   0.922  0.1467 -0.6574  1.0072
 4558TIP3    H235234   0.275   0.447   0.831 -1.7927 -0.5192  0.5599
 4559TIP3   OH235235   2.590   3.404   3.676 -0.1382  0.4951 -0.4661
 4559TIP3    H135236   2.556   3.489   3.705  2.1585  0.9944  1.0711
 4559TIP3    H235237   2.583   3.348   3.753  0.1020 -0.1519 -0.9036
 4560TIP3   OH235238   3.758   0.791   1.509 -0.4937 -0.2341  0.3457
 4560TIP3    H135239   3.762   0.698   1.487  1.4150 -0.4837  1.4669
 4560TIP3    H235240   3.769   0.837   1.426 -0.5963 -1.0280 -0.1107
 4561TIP3   OH235241   3.478   6.014   2.032  0.2541  0.2996  0.3315
 4561TIP3    H135242   3.526   6.077   2.085  0.6417 -0.6655  1.1630
 4561TIP3    H235243   3.485   6.048   1.943 -2.6761  3.4190  1.0794
 4562TIP3   OH235244   4.992   3.014   1.090  0.3171 -0.7476 -0.2066
 4562TIP3    H135245   4.963   3.106   1.095 -0.5047 -1.0347  0.5853
 4562TIP3    H235246   4.935   2.975   1.024 -0.2561 -1.0072  0.4335
 4563TIP3   OH235247   5.254   5.995   3.477 -0.0325  0.3606 -0.2265
 4563TIP3    H135248   5.331   6.046   3.450  2.0961 -2.5213 -0.0362
 4563TIP3    H235249   5.209   5.974   3.395  0.3584  0.6138 -0.5086
 4564TIP3   OH235250   2.954   3.960   2.942 -0.2830 -0.0031 -0.1151
 4564TIP3    H135251   2.990   3.898   3.006 -0.4039  0.5638  0.5221
 4564TIP3    H235252   2.870   3.922   2.917 -0.3893 -0.0713  0.3265
 4565TIP3   OH235253   1.918   2.626   4.128  0.1028 -0.0672  0.1928
 4565TIP3    H135254   1.858   2.641   4.201 -1.3630 -0.6092 -0.8466
 4565TIP3    H235255   1.908   2.532   4.108 -0.3627  0.2762 -1.3616
 4566TIP3   OH235256   0.334   1.451   4.074 -0.6361 -0.3470 -0.7584
 4566TIP3    H135257   0.320   1.462   3.980 -0.6618  0.4483 -0.6729
 4566TIP3    H235258   0.413   1.397   4.080 -0.7417 -0.5626 -1.2337
 4567TIP3   OH235259   4.862   0.335   3.839 -0.4433 -0.0337 -0.5853
 4567TIP3    H135260   4.917   0.340   3.917  0.4306 -0.0797 -1.1840
 4567TIP3    H235261   4.777   0.371   3.867 -0.6358 -1.4573  0.7962
 4568TIP3   OH235262   1.128   4.730   8.428  0.2686  0.7099 -0.7905
 4568TIP3    H135263   1.119   4.792   8.356  2.1930  1.6337 -0.3163
 4568TIP3    H235264   1.213   4.688   8.413  0.4205  0.4598  0.5719
 4569TIP3   OH235265   5.928   0.651   0.005  0.3089  0.4019 -0.1597
 4569TIP3    H135266   5.918   0.745   0.015 -0.1772  0.2200  1.2323
 4569TIP3    H235267   6.000   0.628   0.064  0.5001 -0.0848 -0.5768
 4570TIP3   OH235268   4.579   2.564   4.168 -0.1165 -0.2513 -0.0739
 4570TIP3    H135269   4.627   2.482   4.164 -0.2195 -0.3074 -0.1622
 4570TIP3    H235270   4.626   2.622   4.108  0.6209  0.1057  0.8098
 4571TIP3   OH235271   6.009   1.444   3.255  0.1188 -0.0407  0.1293
 4571TIP3    H135272   6.024   1.523   3.307 -0.3695  0.2581 -0.1686
 4571TIP3    H235273   5.913   1.436   3.251 -0.0126  1.2614 -2.5777
 4572TIP3   OH235274   0.160   0.689   1.011  0.0230  0.1013 -0.1394
 4572TIP3    H135275   0.072   0.726   1.010 -0.3972 -0.8554 -0.4630
 4572TIP3    H235276   0.196   0.713   1.097  0.6822  3.2005 -1.1462
 4573TIP3   OH235277   6.651   2.686   0.363 -0.3935  0.3237 -0.6226
 4573TIP3    H135278   6.720   2.634   0.404  0.3678  1.0269 -0.9897
 4573TIP3    H235279   6.586   2.698   0.432  0.2252  0.3297 -0.0300
 4574TIP3   OH235280   5.942   4.247   4.287  0.2735  0.0274 -0.4492
 4574TIP3    H135281   5.968   4.217   4.374  0.1829 -0.0470 -0.4482
 4574TIP3    H235282   5.985   4.332   4.278  0.2039  0.0785 -0.2936
 4575TIP3   OH235283   2.943   3.532   1.875 -0.1303  0.1875  0.3437
 4575TIP3    H135284   2.870   3.564   1.822 -2.2600  0.3010  3.1518
 4575TIP3    H235285   2.936   3.437   1.872 -0.4100  0.1986  0.6139
 4576TIP3   OH235286   0.206   1.638   1.783  0.2139 -0.2802 -0.2975
 4576TIP3    H135287   0.185   1.545   1.790 -2.3629  0.1911 -0.8182
 4576TIP3    H235288   0.272   1.653   1.851  0.1843 -2.3394  0.2397
 4577TIP3   OH235289   4.584   3.137   2.754  0.0500 -0.2122  0.4301
 4577TIP3    H135290   4.626   3.188   2.824  0.0560 -2.9191  2.5819
 4577TIP3    H235291   4.651   3.132   2.686 -0.1612  2.9966 -0.1995
 4578TIP3   OH235292   4.186   2.281   1.250  0.5877 -0.3521 -0.1212
 4578TIP3    H135293   4.147   2.209   1.200  0.7890  0.2129 -1.1107
 4578TIP3    H235294   4.276   2.284   1.220  0.4816  0.5536 -0.3636
 4579TIP3   OH235295   0.144   0.159   3.706 -0.1229  0.0919  0.1262
 4579TIP3    H135296   0.141   0.073   3.662  0.6744 -0.5905  1.3467
 4579TIP3    H235297   0.111   0.220   3.640 -1.6114 -1.2678 -0.4642
 4580TIP3   OH235298   3.757   4.786   3.381 -0.6891 -0.1821  0.2974
 4580TIP3    H135299   3.739   4.764   3.472 -0.2022 -0.7701  0.2570
 4580TIP3    H235300   3.671   4.787   3.339 -0.6882 -3.9122 -0.1186
 4581TIP3   OH235301   5.771   1.422   3.104 -0.4116 -0.0989 -0.1546
 4581TIP3    H135302   5.756   1.514   3.082  1.7113  0.7389  1.5716
 4581TIP3    H235303   5.698   1.398   3.161  0.8682  1.7191  2.4139
 4582TIP3   OH235304   5.449   2.118   3.608  0.1923 -0.4538  0.0358
 4582TIP3    H135305   5.356   2.132   3.589  0.3233  0.3909  0.0137
 4582TIP3    H235306   5.450   2.046   3.671 -0.3106 -2.7974 -2.4421
 4583TIP3   OH235307   5.468   3.717   1.807 -0.2288  0.4496  0.2946
 4583TIP3    H135308   5.408   3.673   1.868 -1.0178  0.1217 -0.6981
 4583TIP3    H235309   5.540   3.746   1.863 -0.0791 -1.3536  1.1276
 4584TIP3   OH235310   1.605   1.543   1.359 -0.4139 -0.1440 -0.1386
 4584TIP3    H135311   1.579   1.478   1.424 -0.8640 -0.0463 -0.2195
 4584TIP3    H235312   1.524   1.588   1.336 -0.1284  0.3698 -0.1667
 4585TIP3   OH235313   1.149   3.895   2.242 -0.0639  0.1370  0.2920
 4585TIP3    H135314   1.205   3.940   2.179 -0.1714 -0.6080 -0.3344
 4585TIP3    H235315   1.068   3.877   2.195 -1.1283  1.8150  1.3941
 4586TIP3   OH235316   4.119   5.827   0.731  0.2277  0.0757  0.3132
 4586TIP3    H135317   4.033   5.814   0.690  0.4004 -2.6546  0.6441
 4586TIP3    H235318   4.179   5.836   0.658  0.1337 -1.9229 -0.0796
 4587TIP3   OH235319   2.825   5.924   4.161 -0.1446 -0.5517 -0.1536
 4587TIP3    H135320   2.822   5.836   4.199  1.3001 -0.6293 -0.1793
 4587TIP3    H235321   2.861   5.979   4.230 -0.8783 -0.0009 -0.1982
 4588TIP3   OH235322   5.307   5.767   1.083  0.8703 -0.5129 -0.0979
 4588TIP3    H135323   5.256   5.688   1.067 -0.7604  0.7326 -1.3632
 4588TIP3    H235324   5.305   5.778   1.178  1.3815 -2.0986  0.1348
 4589TIP3   OH235325   5.107   5.003   3.183  0.4294  0.0750 -0.3467
 4589TIP3    H135326   5.063   5.061   3.246 -0.2754  0.0573 -0.8120
 4589TIP3    H235327   5.173   4.958   3.235  0.7890  1.0655  0.0943
 4590TIP3   OH235328   2.982   4.378   1.837  0.1483 -0.6435 -0.0794
 4590TIP3    H135329   3.049   4.356   1.902  0.6141  0.1389 -0.2899
 4590TIP3    H235330   2.899   4.360   1.881  0.4005  1.2875  1.2844
 4591TIP3   OH235331   0.384   0.020   1.549 -0.3123 -0.0918 -0.5965
 4591TIP3    H135332   0.447   0.088   1.573  0.1387 -0.5719 -0.3996
 4591TIP3    H235333   0.376   0.028   1.454 -2.0241  1.7456 -0.3700
 4592TIP3   OH235334   5.505   6.890   4.800 -0.1479 -0.0361 -0.0594
 4592TIP3    H135335   5.540   6.958   4.743  0.5109 -0.9781 -0.8220
 4592TIP3    H235336   5.581   6.835   4.822 -0.7596 -0.8736  0.0277
 4593TIP3   OH235337   0.219   6.610   1.610  0.2096  0.1125  0.1398
 4593TIP3    H135338   0.253   6.626   1.522  0.9279  0.8162  0.5176
 4593TIP3    H235339   0.271   6.669   1.666 -1.8168  1.4360  0.7314
 4594TIP3   OH235340   2.122   5.652   0.759 -0.2751 -0.4263 -0.3052
 4594TIP3    H135341   2.172   5.571   0.767 -0.1627 -0.5432 -1.8495
 4594TIP3    H235342   2.030   5.623   0.755 -0.2464 -0.4677 -0.6841
 4595TIP3   OH235343   4.776   5.058   2.394 -0.0850  0.0626 -0.5566
 4595TIP3    H135344   4.839   5.115   2.438 -0.4456  0.5867 -0.7059
 4595TIP3    H235345   4.829   4.993   2.349  0.3693  0.7599 -1.0386
 4596TIP3   OH235346   3.987   6.423   1.905  0.0152  0.2460 -0.3351
 4596TIP3    H135347   4.011   6.376   1.984  0.6721 -1.0476 -1.2606
 4596TIP3    H235348   4.054   6.490   1.896 -0.4317  0.8234  0.5372
 4597TIP3   OH235349   6.093   6.366   1.520 -0.7720 -0.0985 -0.4092
 4597TIP3    H135350   6.022   6.309   1.548 -0.3571 -1.6176 -2.2101
 4597TIP3    H235351   6.166   6.344   1.578 -1.3986  0.6701  0.7175
 4598TIP3   OH235352   6.354   5.324   8.361  0.0744  0.7015  0.0842
 4598TIP3    H135353   6.443   5.358   8.364  0.2302  0.2716  2.4542
 4598TIP3    H235354   6.364   5.229   8.364 -0.4552  0.6592  0.7519
 4599TIP3   OH235355   3.889   3.099   3.097  0.5439  0.2935  0.0500
 4599TIP3    H135356   3.813   3.086   3.154  1.8486 -2.7689  1.3762
 4599TIP3    H235357   3.863   3.166   3.035 -2.5942  0.5696  1.5034
 4600TIP3   OH235358   1.867   3.909   2.080  0.3512 -0.2044 -0.4006
 4600TIP3    H135359   1.935   3.842   2.078  0.3681 -0.1726 -1.0121
 4600TIP3    H235360   1.915   3.992   2.076  0.2344 -0.2000 -2.2018
 4601TIP3   OH235361   6.437   2.481   0.490  0.2928 -0.5091 -0.0560
 4601TIP3    H135362   6.448   2.456   0.581 -0.2480  0.1689  0.2098
 4601TIP3    H235363   6.397   2.568   0.494 -0.8378 -0.9644 -0.9291
 4602TIP3   OH235364   5.847   6.857   0.805  0.0461 -0.6924 -0.3200
 4602TIP3    H135365   5.770   6.914   0.808  0.1070 -0.4913 -1.8252
 4602TIP3    H235366   5.921   6.917   0.814  0.1042 -0.5225 -1.7324
 4603TIP3   OH235367   4.012   4.943   2.243  0.0714 -0.5556  0.1622
 4603TIP3    H135368   3.972   4.857   2.235 -1.0189  0.0998 -2.7156
 4603TIP3    H235369   4.103   4.930   2.217 -0.0897 -0.8673 -0.2530
 4604TIP3   OH235370   0.562   1.866   0.850 -0.2374  0.0664 -0.2389
 4604TIP3    H135371   0.573   1.948   0.899 -0.8857 -0.4813  0.8546
 4604TIP3    H235372   0.469   1.865   0.825 -0.7565 -1.2680  1.5350
 4605TIP3   OH235373   6.909   3.659   2.818 -0.5950  0.2130  0.1210
 4605TIP3    H135374   6.861   3.667   2.900  0.9378  0.5310  1.0329
 4605TIP3    H235375   7.000   3.643   2.845 -0.1468 -0.1768 -1.5210
 4606TIP3   OH235376   3.586   2.851   8.386  0.0852 -0.0408  0.1642
 4606TIP3    H135377   3.642   2.880   8.458 -0.1355  1.2536 -0.1570
 4606TIP3    H235378   3.524   2.791   8.427  0.2561  0.3238  0.9764
 4607TIP3   OH235379   1.436   2.054   3.042  0.2140 -0.3660  0.6613
 4607TIP3    H135380   1.457   1.961   3.051  1.5765 -0.1820 -0.2080
 4607TIP3    H235381   1.398   2.061   2.954 -0.0274 -0.1259  0.7859
 4608TIP3   OH235382   3.959   1.067   4.059 -0.1041  0.4790 -0.2061
 4608TIP3    H135383   3.922   1.058   4.147 -2.2075  2.2825 -0.8309
 4608TIP3    H235384   4.032   1.129   4.071 -1.4550  2.0817  0.0512
 4609TIP3   OH235385   2.011   1.941   1.706 -0.2460 -0.1974 -1.1291
 4609TIP3    H135386   1.988   1.862   1.754 -0.4534 -0.2668 -1.3431
 4609TIP3    H235387   2.093   1.971   1.747 -0.7120  0.0549 -0.3762
 4610TIP3   OH235388   3.871   4.010   2.799 -0.5544  0.2688  0.2526
 4610TIP3    H135389   3.901   4.097   2.771 -0.1736 -0.4283 -1.6211
 4610TIP3    H235390   3.829   4.026   2.883 -3.0349  2.7886 -1.2957
 4611TIP3   OH235391   6.109   6.093   3.152  0.1302 -0.2148  0.2287
 4611TIP3    H135392   6.129   6.166   3.093  0.8359  1.3228  2.2502
 4611TIP3    H235393   6.066   6.028   3.096 -1.2436  2.0506 -1.5449
 4612TIP3   OH235394   6.646   5.290   4.622  0.1126 -0.4564  0.5145
 4612TIP3    H135395   6.655   5.375   4.580  1.6040 -0.9506 -0.2018
 4612TIP3    H235396   6.716   5.287   4.687  0.6158 -1.4660 -0.0549
 4613TIP3   OH235397   3.149   1.875   3.449 -0.0451 -0.3651 -0.0946
 4613TIP3    H135398   3.091   1.843   3.518 -1.9123  0.6498 -1.1049
 4613TIP3    H235399   3.099   1.945   3.406  0.6739 -1.4872 -3.0151
 4614TIP3   OH235400   4.554   0.116   3.075 -0.0339 -0.0686  0.2850
 4614TIP3    H135401   4.476   0.075   3.037  0.4340 -0.8483  0.1411
 4614TIP3    H235402   4.627   0.079   3.026  0.4412  0.5019  0.5566
 4615TIP3   OH235403   1.667   1.905   1.441  0.1304 -0.2601 -0.2615
 4615TIP3    H135404   1.734   1.845   1.476  1.2374  0.4250 -1.1475
 4615TIP3    H235405   1.584   1.861   1.459  0.7714 -0.8793  1.3722
 4616TIP3   OH235406   0.228   3.345   1.627  0.3634  0.1659  0.3656
 4616TIP3    H135407   0.136   3.323   1.610  0.4747  0.1772 -0.2722
 4616TIP3    H235408   0.229   3.440   1.637  0.6176  0.4433 -1.8197
 4617TIP3   OH235409   2.498   5.755   2.915  0.0050 -0.1235 -0.3131
 4617TIP3    H135410   2.565   5.774   2.981 -0.6592  2.1897 -0.2303
 4617TIP3    H235411   2.453   5.677   2.948  0.5239  0.2349  1.3096
 4618TIP3   OH235412   6.782   2.967   3.635 -0.5472 -0.2203  0.0073
 4618TIP3    H135413   6.845   3.037   3.618 -0.5700 -0.3313 -0.5503
 4618TIP3    H235414   6.766   2.971   3.730  0.2334 -0.1419  0.1392
 4619TIP3   OH235415   3.194   3.489   3.725 -0.6114 -0.2219 -0.2898
 4619TIP3    H135416   3.169   3.476   3.817 -1.4776 -0.7152 -0.5821
 4619TIP3    H235417   3.279   3.445   3.718 -0.2858  0.2746  0.3957
 4620TIP3   OH235418   5.687   0.525   3.224  0.1586 -0.4740 -0.3942
 4620TIP3    H135419   5.632   0.460   3.268 -0.0688  0.2265  0.3880
 4620TIP3    H235420   5.739   0.474   3.163  0.3978 -1.4846  0.6026
 4621TIP3   OH235421   1.626   5.942   4.079 -0.4918  0.4729  0.5090
 4621TIP3    H135422   1.572   5.882   4.029 -2.3796  2.6460 -0.2424
 4621TIP3    H235423   1.566   5.983   4.142  0.9978  0.6338  1.8881
 4622TIP3   OH235424   5.254   5.022   0.684 -0.4620  0.4542 -0.0363
 4622TIP3    H135425   5.161   5.045   0.691 -0.4466  0.7712 -0.7964
 4622TIP3    H235426   5.265   4.991   0.594  0.4592  1.8162 -0.4239
 4623TIP3   OH235427   2.849   0.604   1.252  0.5834 -0.2081  0.4681
 4623TIP3    H135428   2.783   0.663   1.290 -0.2178  0.1563 -1.4113
 4623TIP3    H235429   2.798   0.539   1.204  1.5296 -1.5615  1.2460
 4624TIP3   OH235430   1.534   0.412   1.974 -0.0228 -0.0455  0.5179
 4624TIP3    H135431   1.628   0.430   1.978  0.1464 -0.4477 -1.1730
 4624TIP3    H235432   1.494   0.482   2.026  1.0982  1.1062 -0.1197
 4625TIP3   OH235433   3.486   0.159   2.283 -0.1511 -0.0804  0.4383
 4625TIP3    H135434   3.490   0.118   2.197  0.0981 -0.8449  0.8067
 4625TIP3    H235435   3.511   0.250   2.267  1.5117 -0.5854 -0.0614
 4626TIP3   OH235436   4.487   2.839   3.735  0.0052  0.1150 -0.3420
 4626TIP3    H135437   4.438   2.820   3.815  1.3087  0.1211  0.4928
 4626TIP3    H235438   4.579   2.824   3.759  0.6639  2.4280 -1.1195
 4627TIP3   OH235439   1.250   4.374   1.884  0.3021  0.0942 -0.0866
 4627TIP3    H135440   1.263   4.341   1.973  2.5307 -0.1595 -0.4312
 4627TIP3    H235441   1.173   4.328   1.852 -0.6229  0.2850  1.7447
 4628TIP3   OH235442   1.628   5.859   0.934  0.6629 -0.4858 -0.0316
 4628TIP3    H135443   1.574   5.788   0.969  0.4583 -0.9605 -1.2812
 4628TIP3    H235444   1.565   5.928   0.913  0.6515 -0.6396 -0.5133
 4629TIP3   OH235445   4.967   0.148   1.093 -0.0388 -0.6889 -0.6882
 4629TIP3    H135446   5.046   0.149   1.039  0.2861  0.4830 -0.2286
 4629TIP3    H235447   5.001   0.141   1.183 -0.2293  2.6718 -0.2334
 4630TIP3   OH235448   5.522   5.121   3.200 -0.2156 -0.4121  0.5450
 4630TIP3    H135449   5.574   5.049   3.164  0.2386 -0.4518  1.2813
 4630TIP3    H235450   5.476   5.083   3.274 -0.5307 -0.1187  0.5027
 4631TIP3   OH235451   2.144   1.828   0.765 -0.1538  0.1948 -0.3192
 4631TIP3    H135452   2.056   1.866   0.756  0.6280  1.8249 -1.5779
 4631TIP3    H235453   2.200   1.902   0.789  1.0383 -0.6541 -0.3898
 4632TIP3   OH235454   6.742   0.201   1.120  0.3067  0.4713  0.2069
 4632TIP3    H135455   6.772   0.250   1.044 -0.0695 -0.3962 -0.5103
 4632TIP3    H235456   6.807   0.220   1.188  1.3754  0.2170 -0.7157
 4633TIP3   OH235457   0.775   3.538   0.386  0.2450  0.1990  0.9376
 4633TIP3    H135458   0.840   3.558   0.319 -1.2953  0.7037 -0.4769
 4633TIP3    H235459   0.772   3.617   0.440 -0.3182  0.8321  0.0202
 4634TIP3   OH235460   4.375   2.422   0.319 -0.0542 -0.3829  0.1542
 4634TIP3    H135461   4.343   2.352   0.262 -0.0665 -0.8175  0.6846
 4634TIP3    H235462   4.341   2.503   0.280 -1.3263 -0.7950  0.3941
 4635TIP3   OH235463   3.744   4.111   3.940 -0.2783  0.8011 -0.4719
 4635TIP3    H135464   3.773   4.129   3.850 -0.1383 -1.7244 -1.0212
 4635TIP3    H235465   3.818   4.065   3.980 -0.7624  0.9234  0.5966
 4636TIP3   OH235466   3.792   4.092   3.032 -0.2644  0.1375  0.0755
 4636TIP3    H135467   3.861   4.159   3.032  0.3837 -0.5153 -0.0858
 4636TIP3    H235468   3.725   4.127   3.091  0.0347  0.9542 -0.0514
 4637TIP3   OH235469   6.008   1.488   4.015 -0.3925  0.0221  0.0294
 4637TIP3    H135470   5.987   1.561   3.957 -0.9798 -1.0259 -1.1266
 4637TIP3    H235471   6.097   1.505   4.045 -0.6462  1.3772  0.0614
 4638TIP3   OH235472   1.379   1.929   1.768  0.2205  0.1087 -0.4972
 4638TIP3    H135473   1.399   1.858   1.706  0.7269 -0.0907 -0.1196
 4638TIP3    H235474   1.347   2.000   1.713 -0.3585 -0.4327 -0.8807
 4639TIP3   OH235475   3.824   4.662   3.992 -0.0711 -0.4762  0.5473
 4639TIP3    H135476   3.818   4.754   3.968  0.3883 -0.6785 -0.3824
 4639TIP3    H235477   3.748   4.647   4.049 -1.4426 -0.0831 -1.1066
 4640TIP3   OH235478   4.143   3.708   0.814 -0.6259  0.1450 -0.3773
 4640TIP3    H135479   4.053   3.711   0.782 -0.5661  1.6297 -0.4454
 4640TIP3    H235480   4.163   3.614   0.819 -2.4739 -0.2577  0.4933
 4641TIP3   OH235481   1.833   1.368   4.854 -0.1380  0.1003  0.7937
 4641TIP3    H135482   1.778   1.444   4.871  0.0925 -0.0991  2.6694
 4641TIP3    H235483   1.917   1.405   4.828 -0.9517  0.4094 -1.5774
 4642TIP3   OH235484   1.469   2.286   3.379 -0.1844  0.4409  0.0883
 4642TIP3    H135485   1.498   2.231   3.451 -2.2497 -0.0772  0.5898
 4642TIP3    H235486   1.542   2.346   3.363  0.2872  0.6656  2.7142
 4643TIP3   OH235487   1.194   0.913   3.009  0.1106 -0.0928 -0.5360
 4643TIP3    H135488   1.121   0.851   3.008 -1.1686  1.3349 -1.9297
 4643TIP3    H235489   1.251   0.882   2.938  0.0374 -0.2872 -0.5120
 4644TIP3   OH235490   1.636   5.276   2.079  0.0322 -0.5655 -0.3334
 4644TIP3    H135491   1.548   5.296   2.047  0.5205  0.7837 -0.8721
 4644TIP3    H235492   1.691   5.274   2.000  0.6725 -0.3943  0.0998
 4645TIP3   OH235493   0.478   5.103   1.455  0.0426 -0.5736  0.0698
 4645TIP3    H135494   0.547   5.087   1.520 -1.3437 -1.6059  1.3673
 4645TIP3    H235495   0.490   5.034   1.390  0.8857 -0.0897 -0.2950
 4646TIP3   OH235496   0.808   2.835   3.601 -0.4891  0.4553  0.4927
 4646TIP3    H135497   0.726   2.873   3.569 -0.1526  0.7764 -0.0142
 4646TIP3    H235498   0.781   2.764   3.659 -1.1276  1.0541  0.9414
 4647TIP3   OH235499   0.967   2.944   1.704 -0.2761  0.2891  0.4005
 4647TIP3    H135500   0.884   2.976   1.740 -0.9128 -0.5309 -0.2950
 4647TIP3    H235501   1.012   2.905   1.779  0.2605  2.2271  1.1459
 4648TIP3   OH235502   2.050   4.487   4.231  0.0891  0.1380  0.2213
 4648TIP3    H135503   1.979   4.525   4.179  0.2689 -0.9145 -0.8261
 4648TIP3    H235504   2.127   4.539   4.208 -0.3299  1.3686  1.4578
 4649TIP3   OH235505   2.880   6.082   0.884  0.1936  0.3320  0.3950
 4649TIP3    H135506   2.950   6.145   0.902  0.1766  0.7446 -0.8737
 4649TIP3    H235507   2.922   5.996   0.894  0.7956  0.5703  0.0123
 4650TIP3   OH235508   6.686   0.137   3.781  0.4524 -0.0095 -0.3594
 4650TIP3    H135509   6.702   0.206   3.716 -1.1612  0.1344 -0.6451
 4650TIP3    H235510   6.734   0.061   3.747  0.0609  0.2147 -1.4549
 4651TIP3   OH235511   6.529   4.841   0.580 -0.7230  0.0040  0.1179
 4651TIP3    H135512   6.465   4.814   0.646 -1.1797  2.9676  1.0362
 4651TIP3    H235513   6.546   4.934   0.598  0.5227  0.4980 -2.8337
 4652TIP3   OH235514   4.955   2.609   1.681 -0.0939 -0.7573  0.3536
 4652TIP3    H135515   5.023   2.601   1.614  3.5864 -0.9731  3.6862
 4652TIP3    H235516   4.908   2.526   1.678  1.5535 -1.7219 -0.4473
 4653TIP3   OH235517   1.863   2.779   2.793  0.2655  0.2636  0.2664
 4653TIP3    H135518   1.844   2.855   2.849 -1.1242 -0.1593  0.3827
 4653TIP3    H235519   1.839   2.703   2.846 -0.9013 -0.1534 -0.8185
 4654TIP3   OH235520   4.401   2.587   3.252  0.7382  0.1953  0.0496
 4654TIP3    H135521   4.466   2.519   3.238 -0.1215 -0.7237  0.4162
 4654TIP3    H235522   4.327   2.542   3.294 -0.3729  1.0811 -0.8832
 4655TIP3   OH235523   6.870   0.868   3.519 -0.2792 -0.3052  0.5768
 4655TIP3    H135524   6.876   0.835   3.429  0.1520 -0.1830  0.5562
 4655TIP3    H235525   6.782   0.844   3.548 -0.9981  1.0112 -0.4109
 4656TIP3   OH235526   2.514   0.238   2.879  0.3264 -0.1820 -0.2685
 4656TIP3    H135527   2.545   0.167   2.823  0.1448 -0.5348  0.0665
 4656TIP3    H235528   2.511   0.314   2.822 -1.9217 -0.9739 -1.3558
 4657TIP3   OH235529   5.459   2.627   0.178  0.5771 -0.0113  0.4976
 4657TIP3    H135530   5.520   2.693   0.212  0.7348  0.8497 -1.3238
 4657TIP3    H235531   5.401   2.676   0.121  0.1249 -1.3196 -0.2004
 4658TIP3   OH235532   2.860   5.557   1.979 -0.0390  0.5030 -0.3061
 4658TIP3    H135533   2.929   5.623   1.970 -0.8318  1.1242 -2.6826
 4658TIP3    H235534   2.889   5.501   2.051  2.7005  1.0287 -0.8908
 4659TIP3   OH235535   5.735   6.700   1.183 -0.1109  0.2210 -0.2129
 4659TIP3    H135536   5.756   6.629   1.244  1.1106  0.2708 -0.5427
 4659TIP3    H235537   5.684   6.659   1.114  1.6589 -0.6611 -1.0800
 4660TIP3   OH235538   1.150   0.827   1.086 -0.3044  0.2574 -0.0298
 4660TIP3    H135539   1.079   0.767   1.063 -0.1019  0.7124 -2.0508
 4660TIP3    H235540   1.148   0.831   1.182 -2.2419 -0.6386  0.0255
 4661TIP3   OH235541   6.854   1.943   1.327 -0.0126 -0.1285 -0.3260
 4661TIP3    H135542   6.894   2.025   1.298  0.8650  0.2665  1.8572
 4661TIP3    H235543   6.766   1.967   1.356  0.9731  0.5636  2.4068
 4662TIP3   OH235544   4.469   1.691   0.484  0.6868  0.1313 -0.5428
 4662TIP3    H135545   4.392   1.691   0.427  1.0185 -0.1359 -1.0003
 4662TIP3    H235546   4.475   1.781   0.517 -0.2220 -0.0176  0.0498
 4663TIP3   OH235547   1.392   1.763   2.245  0.0679 -0.5867  0.8877
 4663TIP3    H135548   1.309   1.727   2.275 -0.3927  1.5333  2.3844
 4663TIP3    H235549   1.424   1.816   2.318  1.3956  0.8168 -0.6083
 4664TIP3   OH235550   0.937   4.379   2.294 -0.7472  0.2634  0.1533
 4664TIP3    H135551   0.984   4.302   2.325  1.0358  1.3792  0.3622
 4664TIP3    H235552   0.900   4.418   2.373  1.1606  1.3883  0.5635
 4665TIP3   OH235553   2.712   2.219   8.293 -0.0080 -0.3313  0.4449
 4665TIP3    H135554   2.801   2.218   8.259  0.2829 -0.2818  1.1919
 4665TIP3    H235555   2.695   2.128   8.318 -0.7947 -0.7048 -1.2471
 4666TIP3   OH235556   0.308   1.554   4.780 -0.3746  0.2168 -0.0325
 4666TIP3    H135557   0.220   1.587   4.765 -0.8633 -1.4241 -1.1128
 4666TIP3    H235558   0.365   1.616   4.735 -1.2624 -0.4145 -2.1659
 4667TIP3   OH235559   1.358   3.578   0.581 -0.0593  0.3158 -0.4149
 4667TIP3    H135560   1.404   3.494   0.580  0.3968  0.5598 -0.3270
 4667TIP3    H235561   1.280   3.564   0.528  0.3230  0.0110 -0.9007
 4668TIP3   OH235562   4.899   0.956   4.562 -0.2326 -0.5391 -0.2302
 4668TIP3    H135563   4.809   0.985   4.543 -1.1114 -2.9370 -0.0839
 4668TIP3    H235564   4.890   0.901   4.640  1.4071 -0.7217 -0.1416
 4669TIP3   OH235565   1.955   3.792   2.914  0.3243 -0.0508  0.1577
 4669TIP3    H135566   1.959   3.886   2.894 -1.0882  0.2504  1.0994
 4669TIP3    H235567   1.889   3.758   2.853  0.9966 -0.4859 -0.3346
 4670TIP3   OH235568   5.465   0.574   8.345 -0.0711  0.6055  0.3013
 4670TIP3    H135569   5.539   0.595   8.402  0.6681  0.5470 -0.6121
 4670TIP3    H235570   5.458   0.479   8.348  2.8665  0.0925 -3.1065
 4671TIP3   OH235571   6.810   6.497   3.988  0.0941  0.1832 -0.1017
 4671TIP3    H135572   6.747   6.517   3.920  0.6794  1.0326 -0.4063
 4671TIP3    H235573   6.832   6.582   4.026  0.9669 -0.1148  0.0729
 4672TIP3   OH235574   1.775   4.242   3.972 -0.3092  0.3134  0.0916
 4672TIP3    H135575   1.733   4.189   3.904 -0.1488  0.1073  0.1538
 4672TIP3    H235576   1.835   4.299   3.925 -0.0610  0.0407  0.0773
 4673TIP3   OH235577   3.124   2.083   0.884  0.0432  0.0646  0.2490
 4673TIP3    H135578   3.115   2.149   0.953  0.7308 -0.0565  0.4627
 4673TIP3    H235579   3.171   2.011   0.926  1.0131  0.2422 -0.5102
 4674TIP3   OH235580   1.524   4.691   2.040 -0.2088  0.1321  0.0736
 4674TIP3    H135581   1.462   4.665   2.109 -0.1867  0.3841  0.1894
 4674TIP3    H235582   1.474   4.685   1.959 -0.6348  1.1170  0.2428
 4675TIP3   OH235583   3.553   2.545   3.939 -0.2847 -0.2888  0.9300
 4675TIP3    H135584   3.478   2.487   3.924 -0.8170  0.2704  1.3780
 4675TIP3    H235585   3.604   2.501   4.007 -0.4906 -0.4184  1.0008
 4676TIP3   OH235586   2.416   5.484   4.152 -0.4894  0.2997 -0.2645
 4676TIP3    H135587   2.358   5.528   4.213 -1.6710 -3.5331  1.7403
 4676TIP3    H235588   2.491   5.457   4.205 -0.8292 -1.8033 -0.7308
 4677TIP3   OH235589   4.955   0.562   2.674 -0.1546 -0.3115 -0.1119
 4677TIP3    H135590   4.874   0.607   2.648 -1.1552 -1.9539  0.0153
 4677TIP3    H235591   4.948   0.556   2.770  0.5336  0.2593 -0.0188
 4678TIP3   OH235592   1.916   3.523   0.802 -0.2275  0.3504 -0.4685
 4678TIP3    H135593   1.965   3.604   0.790 -0.3602  0.6105  0.6247
 4678TIP3    H235594   1.834   3.537   0.755  0.3151  0.3087 -1.4437
 4679TIP3   OH235595   2.903   0.220   4.662  0.0725 -0.2414 -0.1396
 4679TIP3    H135596   2.818   0.186   4.692  1.4339 -2.4660  1.4543
 4679TIP3    H235597   2.887   0.314   4.648 -2.4028 -0.4102  1.0079
 4680TIP3   OH235598   4.635   0.536   0.516 -0.6686  0.0438 -0.0067
 4680TIP3    H135599   4.609   0.464   0.459 -0.2170  0.0376 -0.2080
 4680TIP3    H235600   4.702   0.583   0.466 -0.3105  0.0722  0.4987
 4681TIP3   OH235601   0.897   3.486   0.972 -0.3343  0.1220 -0.2396
 4681TIP3    H135602   0.893   3.409   1.028 -1.2799  0.6247  0.4269
 4681TIP3    H235603   0.889   3.560   1.033 -1.0963  0.6853 -0.9934
 4682TIP3   OH235604   4.092   5.639   2.923 -0.2526  0.4863 -0.1130
 4682TIP3    H135605   4.100   5.543   2.920  1.8506  0.6069  0.0912
 4682TIP3    H235606   4.037   5.660   2.848  0.3332 -0.8080 -0.9582
 4683TIP3   OH235607   2.716   6.732   3.045 -0.3465  0.1523  0.8330
 4683TIP3    H135608   2.662   6.702   2.972 -0.3352 -0.2292  0.9779
 4683TIP3    H235609   2.664   6.712   3.123  0.7924 -2.0443  1.1109
 4684TIP3   OH235610   2.443   4.156   4.526  0.0112  0.6903 -0.4148
 4684TIP3    H135611   2.401   4.219   4.585 -1.3737 -0.6357  0.0939
 4684TIP3    H235612   2.376   4.088   4.513  2.2304 -2.0118  1.1084
 4685TIP3   OH235613   4.432   2.952   1.871 -0.1048 -0.2035 -0.1094
 4685TIP3    H135614   4.478   2.997   1.800  1.1177  0.8511  1.2741
 4685TIP3    H235615   4.456   3.002   1.949 -1.6890 -1.1122  0.9990
 4686TIP3   OH235616   0.391   5.105   4.811 -0.2003 -0.4758 -0.3133
 4686TIP3    H135617   0.359   5.054   4.737 -1.3015  1.2749 -1.1168
 4686TIP3    H235618   0.479   5.072   4.827 -1.0205 -2.9323 -0.4213
 4687TIP3   OH235619   4.965   6.242   1.245 -0.4841  0.2833 -0.2501
 4687TIP3    H135620   5.023   6.294   1.188 -0.7210  2.8445  1.6404
 4687TIP3    H235621   4.996   6.152   1.236  0.9452  0.9245 -2.6138
 4688TIP3   OH235622   4.092   5.901   3.982  0.3695 -0.2882 -0.4163
 4688TIP3    H135623   4.117   5.889   4.074 -1.1700 -1.5009 -0.1204
 4688TIP3    H235624   4.102   5.815   3.942 -1.0177 -0.2898 -0.8277
 4689TIP3   OH235625   5.948   2.391   3.599 -0.2133 -0.2452  0.2365
 4689TIP3    H135626   5.925   2.340   3.521 -0.7272  1.3411 -0.7032
 4689TIP3    H235627   5.882   2.366   3.664 -0.2225 -1.0494 -0.0695
 4690TIP3   OH235628   2.283   2.938   2.253  0.3600  0.4813 -0.6161
 4690TIP3    H135629   2.313   3.009   2.309  0.1620  0.9423 -1.0902
 4690TIP3    H235630   2.281   2.975   2.165  2.8300 -0.8500 -1.3304
 4691TIP3   OH235631   4.446   4.154   3.475 -0.2522  0.2697 -0.1006
 4691TIP3    H135632   4.443   4.103   3.395 -0.1167  0.1697 -0.0410
 4691TIP3    H235633   4.419   4.093   3.544 -0.7447  0.4587 -0.1230
 4692TIP3   OH235634   5.623   4.030   0.831  0.0176  0.3576 -0.3043
 4692TIP3    H135635   5.648   4.007   0.921  4.4307  1.5842 -0.9528
 4692TIP3    H235636   5.629   3.948   0.782 -3.0807 -0.4573  0.4708
 4693TIP3   OH235637   1.662   3.406   1.622 -0.4891  0.3584  0.0870
 4693TIP3    H135638   1.729   3.338   1.632 -1.2177 -0.5109 -0.8045
 4693TIP3    H235639   1.699   3.482   1.668  1.6822  0.3044 -1.3853
 4694TIP3   OH235640   4.432   6.663   3.167 -0.2317 -0.0198  0.0450
 4694TIP3    H135641   4.464   6.709   3.245 -0.2801  1.0759 -0.5541
 4694TIP3    H235642   4.414   6.574   3.197 -0.3390  0.4047  1.3027
 4695TIP3   OH235643   0.816   3.446   1.415  0.1400 -0.3564  0.1151
 4695TIP3    H135644   0.825   3.526   1.466  0.4579 -0.7706  0.7166
 4695TIP3    H235645   0.742   3.462   1.357  1.0524  0.9025 -0.7591
 4696TIP3   OH235646   0.333   5.487   3.038  0.1149 -0.0259 -0.5811
 4696TIP3    H135647   0.241   5.471   3.017  0.3150 -1.0265 -0.7123
 4696TIP3    H235648   0.357   5.563   2.984 -1.0876  1.3398  0.7280
 4697TIP3   OH235649   6.728   3.270   3.867  0.2000 -0.2565 -0.0707
 4697TIP3    H135650   6.769   3.319   3.938 -0.6207  0.7197 -0.2414
 4697TIP3    H235651   6.774   3.187   3.865  1.1953  0.2575  0.6663
 4698TIP3   OH235652   4.891   5.336   1.782 -0.2369  0.6156 -0.3745
 4698TIP3    H135653   4.835   5.293   1.846  1.3604 -0.6874  0.2225
 4698TIP3    H235654   4.969   5.281   1.777  0.8256  2.1183 -1.4817
 4699TIP3   OH235655   5.991   3.492   2.979 -0.4475  0.2129  0.2346
 4699TIP3    H135656   6.041   3.468   3.057  0.5337  0.6144 -0.2587
 4699TIP3    H235657   5.933   3.417   2.964 -0.1706 -0.1524  0.9588
 4700TIP3   OH235658   6.118   0.998   1.237  0.1713 -0.3044 -0.5544
 4700TIP3    H135659   6.154   1.028   1.320 -2.2422  1.1893  0.0780
 4700TIP3    H235660   6.043   1.056   1.222  0.4423 -0.6126 -3.7292
 4701TIP3   OH235661   3.019   6.837   0.139 -0.5730 -0.1344 -0.0972
 4701TIP3    H135662   3.083   6.780   0.096 -0.7401  0.7979 -1.6843
 4701TIP3    H235663   3.061   6.863   0.221  0.1766 -1.2164 -0.1095
 4702TIP3   OH235664   0.854   0.646   0.284 -0.4407  0.4422 -0.0212
 4702TIP3    H135665   0.763   0.621   0.297 -0.3893 -0.8418 -1.8500
 4702TIP3    H235666   0.852   0.742   0.284 -1.7001  0.4371  0.3756
 4703TIP3   OH235667   2.703   1.731   2.389  0.2958  0.1705 -0.0782
 4703TIP3    H135668   2.661   1.653   2.426 -0.9655  1.0311  0.3670
 4703TIP3    H235669   2.695   1.719   2.294  0.8992 -0.6381 -0.0442
 4704TIP3   OH235670   2.530   0.762   4.082  0.4825  0.0533 -0.2798
 4704TIP3    H135671   2.443   0.756   4.122  0.0306 -1.6889 -1.4123
 4704TIP3    H235672   2.589   0.774   4.155 -0.4900 -1.2144  0.7591
 4705TIP3   OH235673   6.771   6.471   4.409 -0.2052  0.6236 -0.4814
 4705TIP3    H135674   6.864   6.479   4.431 -0.6040  1.7582  0.9897
 4705TIP3    H235675   6.737   6.407   4.473 -0.0717 -1.4361 -2.3586
 4706TIP3   OH235676   1.008   3.525   3.324  0.0919 -0.0133  0.1780
 4706TIP3    H135677   0.922   3.506   3.362 -0.9173 -1.2953 -2.5438
 4706TIP3    H235678   1.019   3.620   3.335 -0.5169 -0.1572  2.7020
 4707TIP3   OH235679   6.176   2.199   2.839 -0.1602 -0.3027  0.4420
 4707TIP3    H135680   6.211   2.119   2.877 -1.8223 -0.9907  0.6366
 4707TIP3    H235681   6.141   2.172   2.754 -1.5181 -0.0098  0.8776
 4708TIP3   OH235682   1.244   0.740   4.741  0.2570  0.3589  0.2242
 4708TIP3    H135683   1.317   0.744   4.803  0.5775 -0.5535 -0.0900
 4708TIP3    H235684   1.209   0.830   4.740  0.2801  0.4104  1.6763
 4709TIP3   OH235685   0.583   5.367   4.394 -0.4251 -0.2873  0.0561
 4709TIP3    H135686   0.623   5.377   4.308  0.2792  0.6876  0.4736
 4709TIP3    H235687   0.622   5.437   4.447 -3.3590  1.3182  0.2692
 4710TIP3   OH235688   2.507   6.223   3.762  0.3892 -0.4409  0.2458
 4710TIP3    H135689   2.498   6.285   3.689 -0.8183 -0.8712 -0.0098
 4710TIP3    H235690   2.417   6.192   3.777  0.7559 -1.0068  1.3531
 4711TIP3   OH235691   1.998   5.974   1.915 -0.4457  0.0234  0.1686
 4711TIP3    H135692   1.976   5.939   2.002 -2.6706 -1.2313 -0.8241
 4711TIP3    H235693   1.942   5.925   1.855  0.5364  1.3584 -1.9292
 4712TIP3   OH235694   2.848   5.184   3.369  1.0119  0.5066 -0.3084
 4712TIP3    H135695   2.935   5.186   3.409  0.1991 -0.2104  1.6019
 4712TIP3    H235696   2.864   5.156   3.279  2.6755 -0.7589  0.3255
 4713TIP3   OH235697   3.783   6.260   3.301  0.0788 -0.4895  0.1923
 4713TIP3    H135698   3.818   6.182   3.344 -0.6041 -0.6211  0.5383
 4713TIP3    H235699   3.855   6.322   3.300  1.4167 -1.9431 -2.2767
 4714TIP3   OH235700   0.059   4.642   4.039  0.0467  0.1079  0.4010
 4714TIP3    H135701   0.069   4.695   3.960  0.0613 -1.0707 -0.4094
 4714TIP3    H235702  -0.033   4.617   4.040 -0.2250  1.0975  1.4143
 4715TIP3   OH235703   6.197   4.314   2.788 -0.0607 -0.4495  0.3642
 4715TIP3    H135704   6.169   4.252   2.720  0.1134 -1.9702  1.6141
 4715TIP3    H235705   6.238   4.259   2.855  1.6115  1.2131  0.7830
 4716TIP3   OH235706   6.151   2.147   1.879 -0.0801 -0.1652 -0.7513
 4716TIP3    H135707   6.123   2.203   1.807  0.4457 -0.0767 -0.8874
 4716TIP3    H235708   6.235   2.111   1.851  1.6834  2.2085  1.0064
 4717TIP3   OH235709   4.658   1.326   3.588 -1.0991 -0.0726  0.4015
 4717TIP3    H135710   4.700   1.242   3.609 -1.8550 -0.5637  0.0157
 4717TIP3    H235711   4.662   1.375   3.670  1.3934  0.4476  0.0467
 4718TIP3   OH235712   1.834   0.839   2.287  0.3761  0.2755  0.8838
 4718TIP3    H135713   1.799   0.810   2.372 -0.3892  1.0960  0.8618
 4718TIP3    H235714   1.766   0.814   2.224  1.2694 -1.0164  0.3779
 4719TIP3   OH235715   6.603   3.806   3.216  0.2322 -0.5621 -0.0081
 4719TIP3    H135716   6.542   3.880   3.221 -1.5681 -1.9225 -0.7806
 4719TIP3    H235717   6.596   3.764   3.301  1.9557  0.6276  0.7670
 4720TIP3   OH235718   5.313   1.156   1.141 -0.1432 -0.1227 -0.3673
 4720TIP3    H135719   5.221   1.152   1.114 -0.4819 -1.1385  0.8306
 4720TIP3    H235720   5.356   1.086   1.091  0.0496  0.5422 -1.1443
 4721TIP3   OH235721   6.086   0.694   1.162 -0.1264 -0.2284  0.2315
 4721TIP3    H135722   6.171   0.696   1.205 -0.0744 -0.0947  0.1236
 4721TIP3    H235723   6.059   0.786   1.159 -0.9694 -0.4028  1.6490
 4722TIP3   OH235724   2.549   6.919   1.178 -0.0216 -0.2716  0.2483
 4722TIP3    H135725   2.563   6.945   1.269  2.1904 -0.0767 -0.0779
 4722TIP3    H235726   2.623   6.860   1.160 -0.7084 -0.6921 -1.2743
 4723TIP3   OH235727   3.727   0.992   2.731 -0.0401 -0.3214 -0.2432
 4723TIP3    H135728   3.670   1.055   2.773 -1.1384 -0.4251 -1.5096
 4723TIP3    H235729   3.676   0.911   2.728 -0.4000 -0.0954 -2.5086
 4724TIP3   OH235730   1.013   5.184   2.060  0.7206  0.3333 -0.4685
 4724TIP3    H135731   1.068   5.131   2.117 -1.4649 -0.3794  1.1167
 4724TIP3    H235732   1.045   5.274   2.072  0.9570  0.0550  1.1356
 4725TIP3   OH235733   5.422   6.074   0.504 -0.1515 -0.2499  0.0385
 4725TIP3    H135734   5.497   6.015   0.497 -0.8491 -1.0701 -0.8575
 4725TIP3    H235735   5.419   6.099   0.596  1.2523 -0.1355  0.0775
 4726TIP3   OH235736   5.790   0.032   1.210  0.5795  0.2596  0.1588
 4726TIP3    H135737   5.780   0.032   1.305 -0.4628  0.4781  0.0558
 4726TIP3    H235738   5.789  -0.060   1.186  0.3092  0.2223  0.3093
 4727TIP3   OH235739   5.079   2.254   2.269  0.0430 -0.8273 -0.6091
 4727TIP3    H135740   5.163   2.217   2.242  1.4493  0.2217  1.9662
 4727TIP3    H235741   5.080   2.248   2.365 -2.0537  0.8571 -0.4119
 4728TIP3   OH235742   1.801   4.132   1.512  0.1778 -0.5660  0.0004
 4728TIP3    H135743   1.705   4.127   1.504 -0.1384  2.8222  0.2431
 4728TIP3    H235744   1.816   4.201   1.577  2.7808 -0.1078 -0.9711
 4729TIP3   OH235745   1.199   6.909   1.594 -0.0072 -0.1752 -0.6522
 4729TIP3    H135746   1.255   6.873   1.524 -1.4148 -1.6235 -1.1018
 4729TIP3    H235747   1.258   6.963   1.646  2.1063 -2.5175 -0.4190
 4730TIP3   OH235748   4.838   4.946   4.206 -0.4642  0.0002 -0.5501
 4730TIP3    H135749   4.779   4.915   4.275 -2.1736 -0.0464 -1.9478
 4730TIP3    H235750   4.809   5.036   4.189  1.2057  0.6828  0.0896
 4731TIP3   OH235751   2.777   6.309   2.958 -0.0116  0.0818  0.2362
 4731TIP3    H135752   2.821   6.384   2.997 -1.0896  0.1825  1.3332
 4731TIP3    H235753   2.684   6.324   2.977 -0.5839 -0.0398 -2.0911
 4732TIP3   OH235754   5.053   4.491   1.470 -0.8372  0.2989  0.7737
 4732TIP3    H135755   5.070   4.399   1.492 -0.2528  0.4496  0.9739
 4732TIP3    H235756   5.028   4.489   1.377  0.8208  0.1036  0.2978
 4733TIP3   OH235757   5.459   4.900   3.800 -0.1316  0.3627  0.4408
 4733TIP3    H135758   5.541   4.897   3.849 -0.4284  0.2166  0.9326
 4733TIP3    H235759   5.392   4.871   3.863 -0.6387  1.0316  0.2220
 4734TIP3   OH235760   4.054   2.225   0.876  0.1959 -0.3774  0.5812
 4734TIP3    H135761   4.005   2.153   0.916 -1.3221  0.1634 -0.2191
 4734TIP3    H235762   4.048   2.208   0.782  1.6769 -0.3447  0.4582
 4735TIP3   OH235763   6.299   5.666   2.292  0.1267 -0.1510  0.4538
 4735TIP3    H135764   6.334   5.603   2.355 -1.8199 -0.9049  0.8233
 4735TIP3    H235765   6.335   5.637   2.208  0.5497 -0.7796  0.8401
 4736TIP3   OH235766   2.043   6.390   1.896  0.9311  0.3619 -0.0995
 4736TIP3    H135767   2.058   6.363   1.987  1.7503  3.0131  0.6440
 4736TIP3    H235768   2.023   6.309   1.850 -1.6320 -0.9023  2.8377
 4737TIP3   OH235769   4.649   3.794   2.605  0.1695  0.0313  0.2347
 4737TIP3    H135770   4.706   3.833   2.539  0.8974 -1.4994 -0.0903
 4737TIP3    H235771   4.650   3.700   2.584 -1.0940 -0.2390  1.2828
 4738TIP3   OH235772   0.525   5.786   4.789 -0.0308  0.0033 -0.2633
 4738TIP3    H135773   0.448   5.833   4.758  0.0951  0.2192 -0.2469
 4738TIP3    H235774   0.558   5.838   4.862 -0.3895 -0.5617  0.3049
 4739TIP3   OH235775   2.641   3.863   2.390  0.2406  0.7101  0.4169
 4739TIP3    H135776   2.735   3.880   2.397  0.2326  0.4027  1.3366
 4739TIP3    H235777   2.635   3.794   2.323  0.8951 -1.0750  2.1049
 4740TIP3   OH235778   3.822   4.978   1.543  0.1185  0.1017 -0.1091
 4740TIP3    H135779   3.748   4.923   1.519 -2.3894  3.2097 -0.0563
 4740TIP3    H235780   3.848   5.021   1.462  0.5983  0.5291  0.2642
 4741TIP3   OH235781   3.137   1.573   2.815  0.5026 -0.1234  0.1911
 4741TIP3    H135782   3.047   1.560   2.784 -0.5572  2.1407  2.0332
 4741TIP3    H235783   3.168   1.651   2.769  0.9674 -0.0162  0.6694
 4742TIP3   OH235784   4.054   1.470   0.916  0.1675 -0.1550 -0.3342
 4742TIP3    H135785   3.981   1.415   0.886 -0.0779 -0.4640  0.7802
 4742TIP3    H235786   4.032   1.558   0.884 -1.1812 -0.0666  0.7506
 4743TIP3   OH235787   3.584   4.252   3.183  0.7251 -0.3731 -0.0381
 4743TIP3    H135788   3.523   4.197   3.134 -1.3597  0.7909  1.0776
 4743TIP3    H235789   3.577   4.338   3.142  0.2722  0.1885  1.1585
 4744TIP3   OH235790   1.116   1.834   1.584 -0.5216 -0.3264  0.2969
 4744TIP3    H135791   1.107   1.846   1.679 -3.0057 -3.5072  0.6443
 4744TIP3    H235792   1.030   1.858   1.550  0.5364  1.3965 -1.3332
 4745TIP3   OH235793   1.853   5.068   3.598 -0.0208  0.4505  0.8754
 4745TIP3    H135794   1.846   5.044   3.506  0.8981 -1.1321  1.1907
 4745TIP3    H235795   1.946   5.057   3.620  0.3354  3.3738  1.3648
 4746TIP3   OH235796   0.311   1.688   0.758 -0.0225  0.2275  0.7761
 4746TIP3    H135797   0.277   1.599   0.752  1.0888 -0.2356  1.1672
 4746TIP3    H235798   0.391   1.688   0.707 -0.0297  1.0173  0.7448
 4747TIP3   OH235799   3.225   6.906   3.374 -0.5458  0.0163 -0.0682
 4747TIP3    H135800   3.268   6.829   3.411  0.9875  0.1237 -1.5321
 4747TIP3    H235801   3.162   6.932   3.441  1.9588  0.1302  2.4300
 4748TIP3   OH235802   4.124   1.259   2.773 -0.2549  0.0915 -0.0796
 4748TIP3    H135803   4.123   1.335   2.831 -0.9671  0.1540 -0.1634
 4748TIP3    H235804   4.041   1.214   2.790  0.6934 -1.3733  0.8666
 4749TIP3   OH235805   3.505   1.289   0.419  0.0291  0.2305  0.5957
 4749TIP3    H135806   3.491   1.254   0.507  0.8856 -0.0368  0.6401
 4749TIP3    H235807   3.427   1.264   0.370 -1.3015  1.9127  1.7222
 4750TIP3   OH235808   5.207   0.711   2.869 -0.2893  0.1968 -0.1632
 4750TIP3    H135809   5.224   0.776   2.937  3.2376 -1.0059  0.2925
 4750TIP3    H235810   5.163   0.639   2.915 -0.5007  0.5656  0.2188
 4751TIP3   OH235811   6.555   4.959   0.988  0.2431  0.4224 -0.6371
 4751TIP3    H135812   6.588   4.869   0.997 -0.9496 -0.0670 -0.9404
 4751TIP3    H235813   6.627   5.007   0.947  1.2282 -0.1765  0.3278
 4752TIP3   OH235814   0.040   4.020   1.042  0.2011  0.2677  0.0689
 4752TIP3    H135815  -0.038   4.034   1.095  1.6414  0.2041  2.3469
 4752TIP3    H235816   0.071   4.108   1.021  0.0675  0.3042  0.0236
 4753TIP3   OH235817   3.211   3.776   1.727  0.0923 -0.1393  0.1870
 4753TIP3    H135818   3.301   3.805   1.740  0.2852 -0.8688  0.5722
 4753TIP3    H235819   3.219   3.699   1.671  0.1242 -2.4937  3.1259
 4754TIP3   OH235820   4.994   1.277   3.564 -0.2598  0.0413  0.5586
 4754TIP3    H135821   4.936   1.208   3.598 -0.6887  0.4392  0.6547
 4754TIP3    H235822   4.957   1.299   3.478 -0.1825  0.2156  0.5702
 4755TIP3   OH235823   5.402   1.494   0.778 -0.5207  0.0602  0.0331
 4755TIP3    H135824   5.424   1.424   0.840 -2.6393 -1.3309 -0.6676
 4755TIP3    H235825   5.458   1.477   0.702  1.6398  1.4038  1.2364
 4756TIP3   OH235826   3.490   5.816   2.319 -0.6476  0.0857  0.6022
 4756TIP3    H135827   3.396   5.799   2.324 -0.9991  1.9368  1.1179
 4756TIP3    H235828   3.530   5.747   2.372 -1.7780 -0.3250  0.9433
 4757TIP3   OH235829   1.524   6.363   2.145 -0.2327 -0.6725 -0.0676
 4757TIP3    H135830   1.572   6.411   2.077 -0.2733  0.9365  0.9642
 4757TIP3    H235831   1.433   6.365   2.116 -0.2044 -0.2839 -0.1428
 4758TIP3   OH235832   2.130   3.005   3.190 -0.4148 -0.3457 -0.5892
 4758TIP3    H135833   2.120   3.099   3.173  0.5298 -0.5781 -2.8213
 4758TIP3    H235834   2.170   3.000   3.277  0.9118  1.4188 -1.0394
 4759TIP3   OH235835   4.251   0.407   0.874 -0.6608  0.0803  0.3670
 4759TIP3    H135836   4.246   0.383   0.781  0.3046  0.5970  0.1712
 4759TIP3    H235837   4.193   0.483   0.883 -1.9691 -0.8972  0.5265
 4760TIP3   OH235838   1.932   6.729   2.125 -0.2073 -0.0908  0.5258
 4760TIP3    H135839   1.893   6.745   2.212  0.0556 -0.3685  0.6954
 4760TIP3    H235840   2.006   6.671   2.142 -0.4333 -0.5205  0.0553
 4761TIP3   OH235841   6.718   4.471   4.775 -0.1760 -0.3936 -0.1455
 4761TIP3    H135842   6.656   4.535   4.810 -0.5519 -1.0406  0.3979
 4761TIP3    H235843   6.671   4.388   4.779  0.7151 -0.8874  0.2303
 4762TIP3   OH235844   5.671   2.291   0.667 -0.2674  0.0280  0.3707
 4762TIP3    H135845   5.765   2.310   0.664 -0.0514 -1.1355 -0.6567
 4762TIP3    H235846   5.666   2.196   0.675 -1.3599  0.1831  1.9674
 4763TIP3   OH235847   4.964   4.250   2.490 -0.8305 -0.9557 -0.1910
 4763TIP3    H135848   4.988   4.158   2.504  0.1891 -0.8793 -1.2800
 4763TIP3    H235849   4.943   4.282   2.577  0.5040 -1.7668  0.4773
 4764TIP3   OH235850   6.308   1.772   0.772  0.4175 -0.3656 -0.9862
 4764TIP3    H135851   6.256   1.692   0.770 -0.1390 -0.0206 -0.7393
 4764TIP3    H235852   6.345   1.779   0.684 -1.2499  0.2042 -1.6801
 4765TIP3   OH235853   0.347   3.614   3.364 -0.0722 -0.2374  0.0792
 4765TIP3    H135854   0.356   3.623   3.269  1.2263  0.6006  0.2555
 4765TIP3    H235855   0.262   3.654   3.384 -0.3810 -0.4698 -0.7315
 4766TIP3   OH235856   1.371   4.935   1.582 -0.3730  0.1887  0.1419
 4766TIP3    H135857   1.330   4.912   1.499 -1.1928  1.4288  0.1700
 4766TIP3    H235858   1.324   4.883   1.647  1.1130 -1.7565 -0.2432
 4767TIP3   OH235859   0.471   3.034   0.756  0.1489  0.0294  0.2418
 4767TIP3    H135860   0.429   2.952   0.731  1.1194 -0.5470  0.4834
 4767TIP3    H235861   0.398   3.095   0.768 -0.5965 -0.8392  0.2436
 4768TIP3   OH235862   5.054   6.747   2.983  0.0720 -0.0404  0.0231
 4768TIP3    H135863   4.992   6.817   3.002 -0.4286 -0.5631  0.3311
 4768TIP3    H235864   5.097   6.774   2.902 -1.9410 -0.5993 -1.2836
 4769TIP3   OH235865   4.409   6.765   3.673  0.7525  0.0143  0.3316
 4769TIP3    H135866   4.435   6.674   3.684 -1.2248 -0.5055  1.2659
 4769TIP3    H235867   4.407   6.801   3.762 -0.7005  0.2668  0.2269
 4770TIP3   OH235868   0.508   4.740   2.210 -0.1634 -0.3563 -0.0837
 4770TIP3    H135869   0.595   4.734   2.170  0.3327 -4.4407  1.1209
 4770TIP3    H235870   0.525   4.754   2.303 -0.8642  0.1001 -0.0182
 4771TIP3   OH235871   0.840   2.435   3.237  0.3254  0.0491  0.3683
 4771TIP3    H135872   0.877   2.459   3.152 -1.7727 -0.3379 -0.7272
 4771TIP3    H235873   0.802   2.516   3.270 -1.0079 -0.2871 -0.2603
 4772TIP3   OH235874   3.451   3.784   4.016 -0.5753 -0.2477  0.2126
 4772TIP3    H135875   3.421   3.775   3.926  0.6549  0.1092 -0.2625
 4772TIP3    H235876   3.466   3.694   4.046  0.9171 -0.3281 -0.6543
 4773TIP3   OH235877   5.626   5.829   3.764  0.4095  0.1106  0.3120
 4773TIP3    H135878   5.639   5.784   3.680  1.2743  0.5210  0.2225
 4773TIP3    H235879   5.551   5.784   3.803 -1.1898  1.0783 -1.4770
 4774TIP3   OH235880   2.607   6.680   3.316  0.2139 -0.1962  0.0560
 4774TIP3    H135881   2.661   6.741   3.367  0.3452  1.1384 -1.6075
 4774TIP3    H235882   2.650   6.595   3.328  0.8887  0.2796  1.2246
 4775TIP3   OH235883   1.279   4.218   4.233 -0.6013 -0.2746  0.7133
 4775TIP3    H135884   1.272   4.313   4.237 -0.2226 -0.2611  1.1776
 4775TIP3    H235885   1.345   4.202   4.166 -0.7010 -0.2126  0.5999
 4776TIP3   OH235886   6.636   0.080   2.058  0.1860  0.1632 -0.3266
 4776TIP3    H135887   6.555   0.055   2.014  0.2584 -1.6049  0.4533
 4776TIP3    H235888   6.704   0.031   2.012  0.3713 -0.9842  1.1168
 4777TIP3   OH235889   2.536   0.642   3.103 -0.2866 -0.2265 -0.3718
 4777TIP3    H135890   2.551   0.737   3.100  0.3170 -0.3065 -0.0833
 4777TIP3    H235891   2.586   0.609   3.028  0.6727 -0.4537  0.3431
 4778TIP3   OH235892   6.527   3.432   2.329  0.1626  0.2452 -0.4397
 4778TIP3    H135893   6.583   3.356   2.314 -1.5737 -1.3196  0.5932
 4778TIP3    H235894   6.485   3.416   2.413 -2.6488  0.7369 -1.6023
 4779TIP3   OH235895   2.013   5.439   2.692 -0.2423 -0.5903 -0.4748
 4779TIP3    H135896   2.099   5.482   2.686  0.0817 -1.3284 -1.4614
 4779TIP3    H235897   1.980   5.441   2.602  0.5500 -3.8944 -0.9678
 4780TIP3   OH235898   1.970   5.402   1.268  0.5982  0.3341  0.4143
 4780TIP3    H135899   1.895   5.342   1.277 -1.2512  2.4319 -0.0458
 4780TIP3    H235900   2.035   5.369   1.330 -0.3040 -2.1214  0.1757
 4781TIP3   OH235901   2.440   5.218   3.292 -0.7404 -0.0275  0.3688
 4781TIP3    H135902   2.430   5.248   3.383 -0.5509  2.0144 -0.2308
 4781TIP3    H235903   2.448   5.298   3.241 -2.9692 -1.0140 -1.7481
 4782TIP3   OH235904   0.895   1.344   2.919  0.2339 -0.4772 -0.2863
 4782TIP3    H135905   0.883   1.280   2.849  0.1520 -0.9019  0.1124
 4782TIP3    H235906   0.937   1.295   2.989 -0.3979 -0.2531  0.2585
 4783TIP3   OH235907   1.649   2.966   3.523  0.3534  0.3114  0.4353
 4783TIP3    H135908   1.574   3.024   3.509  0.4509  0.0286 -1.5763
 4783TIP3    H235909   1.714   3.021   3.567  0.3700  1.7102 -1.2439
 4784TIP3   OH235910   2.365   3.463   3.357 -0.4820 -0.6391  0.2637
 4784TIP3    H135911   2.418   3.541   3.370 -0.4274 -0.6197 -0.0621
 4784TIP3    H235912   2.301   3.489   3.291 -0.8848 -0.6693  0.6357
 4785TIP3   OH235913   0.374   5.432   2.418 -0.3892  0.0163 -0.2973
 4785TIP3    H135914   0.448   5.477   2.378 -1.2417 -0.1298 -2.1146
 4785TIP3    H235915   0.362   5.353   2.366 -1.4869 -0.2371  0.3102
 4786TIP3   OH235916   6.140   4.264   2.106  0.4352  0.2981  0.0425
 4786TIP3    H135917   6.234   4.280   2.095  0.5437 -0.7720 -0.7422
 4786TIP3    H235918   6.129   4.170   2.090 -0.7262  0.3473  0.4341
 4787TIP3   OH235919   2.564   6.781   2.041 -0.5484  0.3232 -0.4219
 4787TIP3    H135920   2.610   6.863   2.022 -0.9500  0.2651 -1.7858
 4787TIP3    H235921   2.622   6.733   2.100  0.8706  0.5147 -1.6122
 4788TIP3   OH235922   5.776   0.662   1.933 -0.3886 -0.7780  0.1822
 4788TIP3    H135923   5.788   0.739   1.877 -2.6951  1.4299  2.4389
 4788TIP3    H235924   5.862   0.645   1.970 -0.0037  1.4079  0.3944
 4789TIP3   OH235925   3.656   3.730   2.425 -0.2039  0.3768 -0.6706
 4789TIP3    H135926   3.698   3.704   2.507  0.3067 -0.5619 -1.2095
 4789TIP3    H235927   3.645   3.825   2.433  2.2856  0.7352 -0.6089
 4790TIP3   OH235928   0.308   3.421   0.924 -0.1586 -0.4268 -0.4546
 4790TIP3    H135929   0.320   3.486   0.855  0.8151 -1.1628 -1.0042
 4790TIP3    H235930   0.267   3.347   0.880  0.5486 -0.9356 -0.2797
 4791TIP3   OH235931   2.291   2.773   0.162 -0.4122 -0.2736 -0.9214
 4791TIP3    H135932   2.255   2.685   0.168 -1.1111 -0.0154 -1.2336
 4791TIP3    H235933   2.292   2.793   0.069 -0.5462  0.1642 -0.8342
 4792TIP3   OH235934   2.319   5.759   0.205  0.5057  0.1253 -0.0468
 4792TIP3    H135935   2.320   5.767   0.110  0.1544  0.2209 -0.0419
 4792TIP3    H235936   2.235   5.719   0.226  1.6723 -2.4525  0.0330
 4793TIP3   OH235937   4.560   3.293   0.126  0.6443 -0.0319  0.1184
 4793TIP3    H135938   4.567   3.383   0.160 -0.4358 -0.2924  1.0732
 4793TIP3    H235939   4.651   3.268   0.107  0.8913  1.6194 -1.1832
 4794TIP3   OH235940   2.611   4.080   3.707 -0.3165  0.2627  0.1777
 4794TIP3    H135941   2.705   4.074   3.692  0.1199 -0.9973  2.7725
 4794TIP3    H235942   2.584   3.990   3.727 -2.0761  0.5967 -0.4932
 4795TIP3   OH235943   1.232   1.860   3.691  0.2837  0.5265  0.4304
 4795TIP3    H135944   1.181   1.929   3.735  0.6583  1.3441 -0.3838
 4795TIP3    H235945   1.210   1.780   3.739 -1.2721  0.9581  0.4941
 4796TIP3   OH235946   3.773   1.147   2.184 -1.1295 -0.0143  0.0214
 4796TIP3    H135947   3.776   1.210   2.256  0.8634 -0.6484  0.5619
 4796TIP3    H235948   3.752   1.063   2.226 -0.0895 -0.3617 -0.1206
 4797TIP3   OH235949   4.337   6.506   0.675 -0.7122 -0.1261  0.0467
 4797TIP3    H135950   4.291   6.533   0.755  0.9049  0.1883  0.9201
 4797TIP3    H235951   4.284   6.541   0.604 -2.4003 -0.7410  0.9565
 4798TIP3   OH235952   0.704   5.331   0.774 -0.5812 -0.0512  0.0733
 4798TIP3    H135953   0.699   5.310   0.868  1.6392 -0.5143  0.1324
 4798TIP3    H235954   0.615   5.318   0.743 -1.1734 -0.8769  1.9247
 4799TIP3   OH235955   5.510   5.098   0.359  0.6555 -0.1277  0.1673
 4799TIP3    H135956   5.565   5.072   0.286 -0.1941 -2.2640  0.2153
 4799TIP3    H235957   5.560   5.072   0.437 -0.2029 -1.7473  0.2163
 4800TIP3   OH235958   1.735   2.688   3.270  0.5006 -0.1272  0.0589
 4800TIP3    H135959   1.698   2.774   3.251  0.9229 -0.5143 -3.0866
 4800TIP3    H235960   1.824   2.707   3.302  0.3365  0.6135  0.0894
 4801TIP3   OH235961   0.657   1.151   0.726 -0.6660 -0.2120 -0.0899
 4801TIP3    H135962   0.661   1.139   0.631  1.3470  2.8909 -0.5746
 4801TIP3    H235963   0.570   1.185   0.743 -0.4516  0.9591 -1.1745
 4802TIP3   OH235964   4.414   1.625   1.410 -0.4414 -0.3761  0.2176
 4802TIP3    H135965   4.340   1.567   1.431 -0.0422 -0.7774  0.5414
 4802TIP3    H235966   4.483   1.598   1.471  0.0450 -0.1516 -0.2279
 4803TIP3   OH235967   6.093   2.597   2.003  0.3718 -0.1142 -0.5909
 4803TIP3    H135968   6.064   2.683   1.975 -0.9741 -0.4496 -0.3122
 4803TIP3    H235969   6.042   2.536   1.949  1.3678 -0.7414 -0.8481
 4804TIP3   OH235970   3.906   6.537   1.251  0.9108 -0.0398 -0.4551
 4804TIP3    H135971   3.895   6.457   1.302  1.1415  0.4366  0.3622
 4804TIP3    H235972   3.864   6.518   1.167 -0.1673 -0.5855  0.1801
 4805TIP3   OH235973   0.598   0.981   4.395  0.4413  0.4140  0.3801
 4805TIP3    H135974   0.605   0.963   4.489 -0.4160  0.7689  0.5179
 4805TIP3    H235975   0.688   0.977   4.364  0.5953 -1.4291  0.8998
 4806TIP3   OH235976   4.088   6.766   1.331 -0.1442  0.1587  0.3207
 4806TIP3    H135977   3.998   6.734   1.337 -1.4899  3.3822 -0.6664
 4806TIP3    H235978   4.140   6.698   1.375 -2.5248 -3.5084 -1.9220
 4807TIP3   OH235979   1.452   5.323   4.190 -0.0902 -0.5513  0.2871
 4807TIP3    H135980   1.493   5.401   4.228  1.6029 -1.4083  0.3248
 4807TIP3    H235981   1.378   5.305   4.248 -1.0958  1.5165 -0.2399
 4808TIP3   OH235982   5.641   3.865   1.436  0.1549 -0.4110  0.0440
 4808TIP3    H135983   5.565   3.842   1.383  0.6061  0.1385 -0.8570
 4808TIP3    H235984   5.663   3.955   1.410  1.6202 -0.8511 -0.3295
 4809TIP3   OH235985   1.484   4.785   1.124  0.1022  0.2316  0.1266
 4809TIP3    H135986   1.493   4.773   1.030 -2.2842 -1.1071 -0.0194
 4809TIP3    H235987   1.401   4.742   1.146 -0.7821  2.8034  2.4042
 4810TIP3   OH235988   3.440   2.459   1.883 -0.0251  0.3495 -0.4097
 4810TIP3    H135989   3.527   2.484   1.912  0.3432 -1.4386  0.1655
 4810TIP3    H235990   3.454   2.408   1.804 -0.3545 -1.3781  0.5874
 4811TIP3   OH235991   6.619   5.132   1.601  0.7750 -0.5302 -0.4464
 4811TIP3    H135992   6.579   5.066   1.544 -1.2184 -0.5532  0.8763
 4811TIP3    H235993   6.707   5.099   1.618  0.3674 -2.0266 -1.0879
 4812TIP3   OH235994   5.721   6.919   4.323  0.0821  0.1219 -0.5112
 4812TIP3    H135995   5.715   6.823   4.329  0.2009  0.0730 -1.1669
 4812TIP3    H235996   5.711   6.938   4.230  1.7036  0.6307 -0.6073
 4813TIP3   OH235997   5.069   3.600   1.820 -0.1742 -1.1417  0.0775
 4813TIP3    H135998   5.034   3.530   1.875  0.6168 -1.2644  0.4452
 4813TIP3    H235999   5.143   3.635   1.870  0.5829 -1.2861 -0.9139
 4814TIP3   OH236000   2.023   3.798   0.396 -0.1349  0.1403 -0.3958
 4814TIP3    H136001   2.034   3.726   0.334  2.7031 -1.8318  2.1142
 4814TIP3    H236002   2.084   3.866   0.365 -1.0462  0.5329 -1.4118
 4815TIP3   OH236003   1.773   2.078   1.613 -0.1062  0.1945  0.8975
 4815TIP3    H136004   1.851   2.025   1.628 -1.1463 -1.2178  1.5417
 4815TIP3    H236005   1.736   2.045   1.531  0.2226  1.2009  0.3273
 4816TIP3   OH236006   2.996   5.085   0.122 -0.2723 -0.4923 -0.0547
 4816TIP3    H136007   2.971   5.168   0.162  1.5892 -0.1699  0.5127
 4816TIP3    H236008   3.002   5.103   0.028  0.6677  0.1781  0.1231
 4817TIP3   OH236009   4.695   1.856   2.502  0.3657  0.0433 -0.7123
 4817TIP3    H136010   4.770   1.898   2.461  0.0940 -0.1862 -1.4471
 4817TIP3    H236011   4.724   1.767   2.522  0.9026  0.5106  0.7395
 4818TIP3   OH236012   2.408   5.474   2.344 -0.1042  0.2531  0.1214
 4818TIP3    H136013   2.314   5.466   2.360  0.1055 -1.5278  0.7528
 4818TIP3    H236014   2.428   5.566   2.359 -1.8342  0.7885 -0.5935
 4819TIP3   OH236015   6.531   5.589   2.747  1.0731  0.3197 -0.0431
 4819TIP3    H136016   6.580   5.654   2.798 -0.4274  0.6889  0.9921
 4819TIP3    H236017   6.440   5.601   2.774  0.7780 -2.4705  0.4549
 4820TIP3   OH236018   3.870   3.762   1.811 -0.0711 -0.4736 -0.0310
 4820TIP3    H136019   3.959   3.766   1.846  0.5914  3.9568 -1.5465
 4820TIP3    H236020   3.883   3.746   1.717 -0.7809  0.4579 -0.3046
 4821TIP3   OH236021   2.774   3.310   8.452  0.1758 -0.3895  0.7894
 4821TIP3    H136022   2.840   3.246   8.424 -2.2561 -2.9541  0.4049
 4821TIP3    H236023   2.758   3.363   8.373  1.2414 -0.1778  0.6952
 4822TIP3   OH236024   5.034   2.472   3.649  0.5612  0.1130  0.1224
 4822TIP3    H136025   5.062   2.558   3.617 -0.3253  1.6874  3.1560
 4822TIP3    H236026   5.115   2.430   3.679  0.8710  0.3425 -0.3765
 4823TIP3   OH236027   5.676   4.138   1.371 -0.1960 -0.3714  0.0126
 4823TIP3    H136028   5.613   4.182   1.428 -0.6808  0.6729 -1.2621
 4823TIP3    H236029   5.751   4.198   1.369  0.0915 -0.7279  0.0768
 4824TIP3   OH236030   1.263   2.659   2.088  0.1436  0.0936  0.3176
 4824TIP3    H136031   1.348   2.654   2.045  0.6249 -1.2065  1.3516
 4824TIP3    H236032   1.263   2.587   2.152 -1.1256  0.9918  1.4098
 4825TIP3   OH236033   0.783   0.977   1.518  0.1349  0.5212  0.1366
 4825TIP3    H136034   0.715   0.926   1.475  0.2277  0.0617  0.5234
 4825TIP3    H236035   0.737   1.051   1.556 -0.1138  0.3521  0.1708
 4826TIP3   OH236036   0.644   4.954   2.484 -0.3872 -0.1550  0.3051
 4826TIP3    H136037   0.587   5.031   2.490  1.3217  1.1305  0.9907
 4826TIP3    H236038   0.679   4.958   2.394 -0.6593 -0.3873  0.1910
 4827TIP3   OH236039   5.407   3.065   0.613  0.0481  0.0713 -0.4011
 4827TIP3    H136040   5.366   3.087   0.696 -0.6230 -0.7177 -0.5017
 4827TIP3    H236041   5.498   3.043   0.635  0.2726  1.2730 -0.0920
 4828TIP3   OH236042   3.260   6.893   3.841  0.2547  0.4040  0.2558
 4828TIP3    H136043   3.319   6.911   3.914  0.9050 -2.7017  0.6211
 4828TIP3    H236044   3.183   6.853   3.882 -0.3411  0.6602 -0.5832
 4829TIP3   OH236045   5.916   2.938   2.480 -0.0165  0.6024  0.6155
 4829TIP3    H136046   5.925   3.033   2.471  1.3780  0.4791  0.5159
 4829TIP3    H236047   6.002   2.903   2.457 -0.8276 -0.7810 -0.5337
 4830TIP3   OH236048   1.309   6.279   8.386  0.6528  0.0856 -0.2072
 4830TIP3    H136049   1.263   6.339   8.445 -1.3455 -1.1646 -0.3930
 4830TIP3    H236050   1.317   6.198   8.435  0.3335 -0.5037 -1.1092
 4831TIP3   OH236051   5.960   2.246   3.091 -0.2040 -0.6524  0.6918
 4831TIP3    H136052   5.967   2.150   3.089  0.9622 -0.5826 -1.4209
 4831TIP3    H236053   5.907   2.268   3.014  0.5437  0.4611  0.4743
 4832TIP3   OH236054   0.267   6.155   0.807  0.1084  0.2519  0.2908
 4832TIP3    H136055   0.333   6.163   0.876 -0.8869  0.2275  1.2632
 4832TIP3    H236056   0.274   6.236   0.757  0.2407  0.6603  0.9623
 4833TIP3   OH236057   3.752   0.069   4.200 -0.1011 -0.0523  0.6521
 4833TIP3    H136058   3.752   0.164   4.195  0.5428 -0.1008 -0.8521
 4833TIP3    H236059   3.835   0.048   4.243 -0.0951  0.0536  0.6931
 4834TIP3   OH236060   4.750   5.500   2.590  0.4650 -0.3159 -0.0125
 4834TIP3    H136061   4.831   5.456   2.563  1.6995  0.2272  2.5387
 4834TIP3    H236062   4.719   5.450   2.665  0.6437  1.7249  1.5173
 4835TIP3   OH236063   5.349   0.740   1.189 -0.0176 -0.1909  0.5331
 4835TIP3    H136064   5.287   0.799   1.146  0.2451  0.2507  0.7467
 4835TIP3    H236065   5.417   0.725   1.124 -0.4317 -0.8237  0.2331
 4836TIP3   OH236066   4.351   4.211   1.614 -0.1727  0.0763  0.4504
 4836TIP3    H136067   4.382   4.301   1.609 -1.0991  0.4338  0.9684
 4836TIP3    H236068   4.410   4.162   1.556  0.3084  1.0115  0.1323
 4837TIP3   OH236069   5.361   0.885   2.682 -0.0959 -0.5776 -0.4419
 4837TIP3    H136070   5.300   0.832   2.734 -0.1981  0.5759  0.6622
 4837TIP3    H236071   5.309   0.959   2.652  0.3448 -0.4741 -0.9645
 4838TIP3   OH236072   3.998   4.681   0.671  0.2463 -0.5903 -0.2429
 4838TIP3    H136073   3.964   4.595   0.648 -0.6530 -0.3036 -0.0396
 4838TIP3    H236074   3.920   4.734   0.685  0.7652  0.7227 -2.0043
 4839TIP3   OH236075   6.910   5.468   1.910  0.2465  0.9026  0.1144
 4839TIP3    H136076   6.960   5.438   1.834  0.4292 -1.2420  1.0149
 4839TIP3    H236077   6.972   5.465   1.983 -0.7300 -0.3079  0.9495
 4840TIP3   OH236078   3.664   6.919   0.642  0.2792 -0.4222  0.1522
 4840TIP3    H136079   3.592   6.913   0.704  0.7494  1.4580  0.9736
 4840TIP3    H236080   3.734   6.866   0.680  0.3092  0.1248  0.8914
 4841TIP3   OH236081   3.237   2.656   1.923  0.3205 -0.2102 -0.1428
 4841TIP3    H136082   3.271   2.718   1.858  3.5339 -1.4216  0.1968
 4841TIP3    H236083   3.265   2.570   1.891 -1.0255 -1.1792  1.1454
 4842TIP3   OH236084   1.755   2.575   3.862  0.1040  0.1726 -0.0639
 4842TIP3    H136085   1.702   2.654   3.872 -0.8683 -0.2450 -1.5706
 4842TIP3    H236086   1.719   2.514   3.927  2.0259  1.4644  2.3920
 4843TIP3   OH236087   5.544   0.055   3.403  0.2157  0.1304 -0.1041
 4843TIP3    H136088   5.604  -0.002   3.451  2.1622  1.3156 -1.0303
 4843TIP3    H236089   5.457   0.024   3.428  1.1716 -1.0046  2.0926
 4844TIP3   OH236090   3.198   5.284   4.502 -0.1034 -0.2249 -0.7490
 4844TIP3    H136091   3.202   5.371   4.463 -0.6364  1.3789  2.4383
 4844TIP3    H236092   3.115   5.282   4.549 -0.0948 -2.4833 -0.7115
 4845TIP3   OH236093   6.323   0.772   2.923 -0.0246  0.2275 -0.2606
 4845TIP3    H136094   6.387   0.831   2.883 -0.2893  1.0502  0.5020
 4845TIP3    H236095   6.334   0.690   2.875 -0.0037  1.0322 -1.6944
 4846TIP3   OH236096   2.244   1.616   0.600  0.1861  0.4026  0.0413
 4846TIP3    H136097   2.203   1.686   0.651  1.1252  0.4885  0.6993
 4846TIP3    H236098   2.171   1.561   0.572 -0.3816  0.5493  1.1879
 4847TIP3   OH236099   6.484   5.654   2.069 -0.0276 -0.3374 -0.2421
 4847TIP3    H136100   6.527   5.569   2.066  1.9844  0.6506 -1.3741
 4847TIP3    H236101   6.554   5.716   2.088 -1.2498  1.1977 -0.5054
 4848TIP3   OH236102   2.732   5.618   3.961  0.5056  0.0892  0.1816
 4848TIP3    H136103   2.657   5.676   3.979  1.0563  1.3256 -1.2555
 4848TIP3    H236104   2.701   5.562   3.889  1.1761  1.1454 -0.9711
 4849TIP3   OH236105   5.317   5.883   3.226  0.1098 -0.1208 -0.1015
 4849TIP3    H136106   5.337   5.973   3.201 -0.0856 -0.0748 -0.0893
 4849TIP3    H236107   5.300   5.838   3.143 -0.6500  0.0587 -0.0449
 4850TIP3   OH236108   6.804   5.458   3.930  0.0499 -0.5402 -1.0256
 4850TIP3    H136109   6.799   5.514   3.853  1.2017 -1.4049 -1.7486
 4850TIP3    H236110   6.736   5.392   3.917 -1.8139  1.0152  0.1706
 4851TIP3   OH236111   2.629   1.706   8.296  0.5888 -0.7346  0.5343
 4851TIP3    H136112   2.565   1.708   8.368 -0.5913 -2.2380 -0.4232
 4851TIP3    H236113   2.694   1.642   8.324  0.7490 -0.4872  0.7395
 4852TIP3   OH236114   5.253   0.544   2.254 -0.0061  0.1248  0.2046
 4852TIP3    H136115   5.319   0.600   2.295 -0.5533 -0.0432  1.3556
 4852TIP3    H236116   5.200   0.512   2.327 -0.8987 -0.3434 -0.6255
 4853TIP3   OH236117   1.849   1.348   2.555  0.0556 -0.2843 -0.5917
 4853TIP3    H136118   1.807   1.392   2.481 -0.5308 -0.7052 -0.5182
 4853TIP3    H236119   1.791   1.366   2.630  0.9612  0.6581 -0.0912
 4854TIP3   OH236120   3.589   2.714   3.733  0.4150 -0.0503  0.0826
 4854TIP3    H136121   3.582   2.658   3.811 -1.7977 -0.0035 -0.0238
 4854TIP3    H236122   3.584   2.803   3.768  1.5641  0.0421  0.0442
 4855TIP3   OH236123   5.677   0.022   1.849  0.3126  0.3813 -0.0977
 4855TIP3    H136124   5.600  -0.028   1.821 -0.3153  0.7486  0.9490
 4855TIP3    H236125   5.677   0.099   1.792  0.4372 -0.0512 -0.7037
 4856TIP3   OH236126   0.259   1.144   3.277 -0.0198  0.3181  0.0072
 4856TIP3    H136127   0.300   1.158   3.362 -2.3726  1.4898  1.0415
 4856TIP3    H236128   0.249   1.049   3.271  1.9920  0.0554  0.0549
 4857TIP3   OH236129   2.140   3.415   0.923 -0.1049 -0.7487 -0.1492
 4857TIP3    H136130   2.187   3.485   0.969  1.9308 -2.4201  0.4560
 4857TIP3    H236131   2.052   3.451   0.909  1.0941  2.3083 -0.7710
 4858TIP3   OH236132   2.236   6.153   3.744  0.0016  0.2494 -0.3584
 4858TIP3    H136133   2.181   6.185   3.816  0.1922  2.0076 -0.9330
 4858TIP3    H236134   2.179   6.152   3.668  0.1362 -0.3401 -0.4547
 4859TIP3   OH236135   3.758   0.544   2.298  0.3611  0.2012  0.0596
 4859TIP3    H136136   3.835   0.571   2.249 -1.2083  1.7410 -1.7295
 4859TIP3    H236137   3.769   0.449   2.309  1.2955 -0.0676 -2.4841
 4860TIP3   OH236138   0.861   2.100   0.767  0.4340  0.9583  0.0846
 4860TIP3    H136139   0.820   2.033   0.712  0.0040  0.1564  1.3277
 4860TIP3    H236140   0.810   2.100   0.848  0.0673  3.2249 -0.0815
 4861TIP3   OH236141   1.389   0.097   3.108  0.0376  0.4548  0.5989
 4861TIP3    H136142   1.428   0.086   3.021 -0.6800  0.5025  0.2664
 4861TIP3    H236143   1.377   0.008   3.140  0.1746  0.4336  0.5924
 4862TIP3   OH236144   0.840   2.545   2.984 -0.3805 -0.4184 -0.4856
 4862TIP3    H136145   0.813   2.553   2.893 -2.4479 -2.1701 -0.1121
 4862TIP3    H236146   0.887   2.626   3.003 -0.5438  0.3012 -2.8728
 4863TIP3   OH236147   0.866   6.227   1.298 -0.7840 -0.0403  0.1190
 4863TIP3    H136148   0.823   6.216   1.213 -1.9492 -2.6623  0.9142
 4863TIP3    H236149   0.956   6.251   1.277 -1.2812  0.3030 -1.8088
 4864TIP3   OH236150   1.621   0.307   1.150  0.0872  0.4130 -0.1110
 4864TIP3    H136151   1.652   0.397   1.144  1.7807 -0.1970 -1.3691
 4864TIP3    H236152   1.672   0.270   1.222  0.3384  0.1275 -0.4313
 4865TIP3   OH236153   3.175   3.827   0.609  0.0959  0.0286  0.3030
 4865TIP3    H136154   3.116   3.818   0.683 -1.4500 -4.0149 -1.1217
 4865TIP3    H236155   3.229   3.748   0.612  0.5916  0.1638 -2.3145
 4866TIP3   OH236156   6.473   3.568   1.974  0.5654 -0.2029  0.1593
 4866TIP3    H136157   6.404   3.546   1.911 -0.4958  0.9425  0.8625
 4866TIP3    H236158   6.548   3.514   1.948 -0.4718 -1.2086 -0.8603
 4867TIP3   OH236159   1.871   6.625   3.634  0.1087 -0.2845 -0.4860
 4867TIP3    H136160   1.949   6.678   3.624  0.4020 -0.6858 -0.3607
 4867TIP3    H236161   1.830   6.656   3.715  0.1005 -0.0311 -0.5864
 4868TIP3   OH236162   5.346   4.682   2.293  0.6082  0.1610 -0.2821
 4868TIP3    H136163   5.257   4.648   2.300  0.8468 -0.2817  0.7661
 4868TIP3    H236164   5.365   4.719   2.379  1.8005 -0.6569 -0.1670
 4869TIP3   OH236165   2.349   5.362   3.908  0.3351  0.1444  0.5972
 4869TIP3    H136166   2.392   5.277   3.900  1.9591  0.9591 -0.0335
 4869TIP3    H236167   2.381   5.397   3.991 -1.1019 -0.2277  1.3423
 4870TIP3   OH236168   2.255   1.050   3.946  0.0459 -0.5400  0.1177
 4870TIP3    H136169   2.167   1.086   3.955  0.0402 -0.4024 -0.4719
 4870TIP3    H236170   2.284   1.035   4.036  0.1330  1.1489  0.3994
 4871TIP3   OH236171   0.141   4.407   1.673  0.4029  1.0799 -0.4227
 4871TIP3    H136172   0.227   4.403   1.632  0.3078  0.9011 -0.6111
 4871TIP3    H236173   0.081   4.429   1.601  0.1139 -0.1175 -0.5678
 4872TIP3   OH236174   2.493   0.234   3.343 -0.3352 -0.5960 -0.3349
 4872TIP3    H136175   2.467   0.240   3.251  0.5140  0.0270 -0.5464
 4872TIP3    H236176   2.522   0.322   3.366  0.1564 -0.9199  0.3234
 4873TIP3   OH236177   2.186   1.875   3.573  0.0909  0.1312  0.5985
 4873TIP3    H136178   2.165   1.880   3.666  1.4608  0.2676  0.9221
 4873TIP3    H236179   2.256   1.809   3.568  1.0236  1.1568 -0.1377
 4874TIP3   OH236180   0.279   6.730   0.580 -0.3808  0.4547 -0.3075
 4874TIP3    H136181   0.243   6.818   0.570 -0.8713  0.0463 -2.5830
 4874TIP3    H236182   0.205   6.671   0.562 -0.4462 -0.5196  2.5840
 4875TIP3   OH236183   1.115   2.431   2.955 -0.5058  0.2751 -0.2652
 4875TIP3    H136184   1.085   2.478   3.033 -2.8593 -0.4692 -0.6342
 4875TIP3    H236185   1.209   2.423   2.967 -0.8155 -0.1884  2.7285
 4876TIP3   OH236186   3.215   3.359   0.573  0.4460  0.3319  0.3936
 4876TIP3    H136187   3.208   3.449   0.603  2.0828  0.6975 -0.1652
 4876TIP3    H236188   3.290   3.323   0.621  0.1973 -0.5223  0.1640
 4877TIP3   OH236189   5.831   1.596   1.565  0.5096 -0.2724  0.2552
 4877TIP3    H136190   5.836   1.658   1.493 -0.8121 -0.6817 -0.2201
 4877TIP3    H236191   5.769   1.635   1.627  1.9040  0.2515  1.3870
 4878TIP3   OH236192   3.032   3.665   3.603  0.3638 -0.7500  0.0714
 4878TIP3    H136193   3.090   3.602   3.647  2.7283  1.2006 -0.0497
 4878TIP3    H236194   2.999   3.720   3.673  1.3585  0.1973 -0.1805
 4879TIP3   OH236195   2.814   6.820   3.417  0.9005 -0.3829 -0.8809
 4879TIP3    H136196   2.864   6.789   3.342  1.9958 -0.3427 -0.1814
 4879TIP3    H236197   2.878   6.865   3.472  0.1551 -0.5713  0.1766
 4880TIP3   OH236198   6.121   1.962   0.204 -0.2471 -0.0520 -0.5074
 4880TIP3    H136199   6.130   1.934   0.113 -0.3273 -1.5894 -0.0776
 4880TIP3    H236200   6.068   1.894   0.245 -0.3247  0.6802  0.6644
 4881TIP3   OH236201   6.132   3.231   4.135  0.2067 -0.2406  0.2837
 4881TIP3    H136202   6.116   3.143   4.168 -0.9481  0.0717  0.5897
 4881TIP3    H236203   6.046   3.273   4.134  0.6986  0.8013 -0.1042
 4882TIP3   OH236204   2.648   5.089   3.554 -0.0083  0.3568  0.1888
 4882TIP3    H136205   2.572   5.147   3.557  0.1002  0.4860  0.4628
 4882TIP3    H236206   2.676   5.091   3.462 -0.3053  0.3468  0.0963
 4883TIP3   OH236207   5.251   0.422   3.000  0.2964 -0.2161  0.4938
 4883TIP3    H136208   5.217   0.456   3.083 -0.8091  0.3649 -0.1640
 4883TIP3    H236209   5.329   0.372   3.024 -0.1847 -0.3265  1.9103
 4884TIP3   OH236210   4.114   3.332   3.299  0.2113 -0.0695  0.0088
 4884TIP3    H136211   4.137   3.311   3.208 -0.3667 -2.3816  0.3381
 4884TIP3    H236212   4.067   3.416   3.292 -0.4163 -0.5140 -1.9224
 4885TIP3   OH236213   3.869   4.463   0.556  0.6267 -0.0461  0.3761
 4885TIP3    H136214   3.939   4.423   0.504  0.3146 -0.9478  0.6197
 4885TIP3    H236215   3.826   4.524   0.496  0.2036 -1.1424 -0.4859
 4886TIP3   OH236216   0.612   0.053   3.641 -1.0641 -0.0265  0.0977
 4886TIP3    H136217   0.532   0.104   3.655 -1.1741  0.1176 -0.9682
 4886TIP3    H236218   0.669   0.112   3.590 -0.7455 -0.5578 -0.1641
 4887TIP3   OH236219   0.991   3.884   1.419  0.4980 -0.0111  0.5752
 4887TIP3    H136220   1.002   3.911   1.511  3.3359 -1.0059  0.6197
 4887TIP3    H236221   1.020   3.960   1.369  1.3819 -0.3337  0.5783
 4888TIP3   OH236222   5.278   1.115   0.803  0.4410 -0.1828  0.3897
 4888TIP3    H136223   5.225   1.194   0.811  1.0933  0.2382  0.6317
 4888TIP3    H236224   5.293   1.106   0.709 -0.9897 -0.9488  0.2004
 4889TIP3   OH236225   3.127   4.706   2.705  0.7198 -0.7342  0.1132
 4889TIP3    H136226   3.107   4.624   2.660  2.0474  0.0014 -1.9339
 4889TIP3    H236227   3.218   4.697   2.733  0.1245 -0.9014  2.1573
 4890TIP3   OH236228   0.970   0.731   3.994  0.0599 -0.0876 -0.5104
 4890TIP3    H136229   0.897   0.722   4.056 -0.6744  1.3811 -1.1106
 4890TIP3    H236230   0.938   0.690   3.913 -0.1865  0.7116 -0.8265
 4891TIP3   OH236231   6.873   3.706   1.907 -0.7813  0.4999  0.8762
 4891TIP3    H136232   6.911   3.680   1.823 -0.6141 -0.6388  1.2815
 4891TIP3    H236233   6.796   3.758   1.883 -0.5672  0.4397  0.0194
 4892TIP3   OH236234   6.874   2.457   0.699  0.4756 -1.0321  0.3988
 4892TIP3    H136235   6.812   2.399   0.743  2.3353 -2.3112  1.4544
 4892TIP3    H236236   6.931   2.397   0.651 -0.9076  0.2412 -3.1786
 4893TIP3   OH236237   4.840   4.034   3.720 -0.1075 -0.3767  0.2324
 4893TIP3    H136238   4.769   4.062   3.663 -0.4225 -1.5937  0.0066
 4893TIP3    H236239   4.910   4.007   3.660  0.2806  0.1476  0.4452
 4894TIP3   OH236240   2.190   4.944   1.006  0.0941  0.4929 -0.2568
 4894TIP3    H136241   2.215   4.928   0.915 -1.1067  0.3583 -0.5786
 4894TIP3    H236242   2.268   4.982   1.046  1.6440 -2.0596 -0.6016
 4895TIP3   OH236243   3.912   3.568   2.895  0.2825  0.1660  0.4398
 4895TIP3    H136244   3.850   3.497   2.916  0.4897  0.1564  1.0183
 4895TIP3    H236245   3.885   3.641   2.950 -1.0595  1.1832 -1.4246
 4896TIP3   OH236246   3.729   2.801   1.474 -0.5439  0.3115 -0.0735
 4896TIP3    H136247   3.788   2.736   1.435  0.4143  0.7747  0.5819
 4896TIP3    H236248   3.705   2.858   1.401 -0.5046 -0.1078 -0.4229
 4897TIP3   OH236249   5.850   1.594   2.848  0.3424  0.2776  0.3923
 4897TIP3    H136250   5.930   1.630   2.885  1.4533 -0.7954 -0.8674
 4897TIP3    H236251   5.879   1.521   2.793 -1.4957 -0.1521 -0.0915
 4898TIP3   OH236252   6.411   5.212   2.000  0.1698  0.0287 -0.2892
 4898TIP3    H136253   6.369   5.296   1.981  2.8121  1.2234 -1.3222
 4898TIP3    H236254   6.384   5.191   2.090  0.5867  2.7460  0.5578
 4899TIP3   OH236255   4.404   5.155   3.217 -0.2372 -0.5370 -0.0472
 4899TIP3    H136256   4.465   5.112   3.278  0.6678  0.4000 -0.2550
 4899TIP3    H236257   4.384   5.088   3.152  1.1269 -0.6845 -0.3530
 4900TIP3   OH236258   3.083   5.181   1.738 -0.4431 -0.8023  0.6926
 4900TIP3    H136259   3.073   5.086   1.734 -2.3554 -0.6253  0.3163
 4900TIP3    H236260   3.155   5.195   1.799  2.0003 -2.5398 -1.5316
 4901TIP3   OH236261   2.728   2.070   4.437 -0.1596  0.7654 -0.0955
 4901TIP3    H136262   2.759   2.157   4.461  0.2488 -0.0012  2.5294
 4901TIP3    H236263   2.643   2.062   4.479  0.4243 -0.5676  0.9031
 4902TIP3   OH236264   0.093   3.981   2.982 -0.0145 -0.2014 -0.5289
 4902TIP3    H136265   0.058   4.025   3.060 -0.3656 -0.5784 -0.4692
 4902TIP3    H236266   0.015   3.959   2.930  0.2387  0.4549 -1.2094
 4903TIP3   OH236267   4.775   4.398   3.343  0.2377  0.3474  0.0365
 4903TIP3    H136268   4.806   4.466   3.403 -1.4762  1.1345  0.0884
 4903TIP3    H236269   4.741   4.447   3.268  0.3667 -0.5313 -0.6098
 4904TIP3   OH236270   0.819   2.166   3.160 -0.5425  0.7501 -0.3456
 4904TIP3    H136271   0.844   2.187   3.070  0.3740 -0.7660 -0.4812
 4904TIP3    H236272   0.845   2.244   3.210  0.0600  1.1298 -1.2176
 4905TIP3   OH236273   4.029   1.619   2.694  0.1444 -0.1767  0.3521
 4905TIP3    H136274   4.028   1.694   2.635 -1.3508 -0.1161  0.4162
 4905TIP3    H236275   3.987   1.549   2.645  0.1651 -0.5353  0.8409
 4906TIP3   OH236276   3.511   5.918   3.381  0.5952 -0.1932 -0.4591
 4906TIP3    H136277   3.547   5.850   3.324  0.5760 -1.5979  1.1275
 4906TIP3    H236278   3.452   5.871   3.440 -1.5062  1.5998 -1.0027
 4907TIP3   OH236279   5.168   2.197   3.193  0.5747  0.5851  0.0038
 4907TIP3    H136280   5.108   2.135   3.152 -1.7369  2.3677  0.4729
 4907TIP3    H236281   5.226   2.143   3.246 -0.6582 -1.2484 -0.4250
 4908TIP3   OH236282   1.460   0.669   1.603  0.0076 -0.1673  0.0750
 4908TIP3    H136283   1.373   0.708   1.602  0.8181  1.7117 -0.0084
 4908TIP3    H236284   1.509   0.717   1.537  1.3819 -0.5785  0.7592
 4909TIP3   OH236285   0.761   6.296   2.669  0.5741  0.1466 -0.4384
 4909TIP3    H136286   0.779   6.377   2.621  0.6177  0.5522  0.2483
 4909TIP3    H236287   0.842   6.278   2.717  0.6314 -0.4173 -0.7383
 4910TIP3   OH236288   3.367   0.575   2.628  0.4549 -0.7701  0.3307
 4910TIP3    H136289   3.328   0.510   2.569 -3.2049 -1.4290  3.1033
 4910TIP3    H236290   3.424   0.524   2.685  0.8272 -0.8301 -0.0934
 4911TIP3   OH236291   0.682   2.869   2.754 -0.2674  0.4939 -0.2968
 4911TIP3    H136292   0.612   2.911   2.704 -0.5392  1.2291  0.6733
 4911TIP3    H236293   0.658   2.883   2.845  2.4545  3.1641  0.1816
 4912TIP3   OH236294   1.739   5.533   2.217  0.2442 -0.0854  0.2911
 4912TIP3    H136295   1.716   5.461   2.276 -2.2199  2.1492  2.3339
 4912TIP3    H236296   1.721   5.499   2.129 -0.6521 -2.0135  1.1579
 4913TIP3   OH236297   2.853   6.423   0.219 -0.2522 -0.8490  0.2050
 4913TIP3    H136298   2.938   6.381   0.231  0.8527  1.2479  0.2648
 4913TIP3    H236299   2.817   6.431   0.307  0.9621  1.0231  0.5873
 4914TIP3   OH236300   5.946   6.166   2.204  0.4822  0.1692 -0.3136
 4914TIP3    H136301   6.036   6.193   2.223  0.3770  0.7252 -0.5963
 4914TIP3    H236302   5.901   6.247   2.181  0.0703 -0.1977 -0.8116
 4915TIP3   OH236303   2.542   6.613   2.859  0.2846 -0.9057 -0.3752
 4915TIP3    H136304   2.562   6.654   2.775 -0.2366 -0.4413 -0.2846
 4915TIP3    H236305   2.448   6.593   2.854 -0.4224  1.5349  1.0326
 4916TIP3   OH236306   3.348   4.030   2.448 -0.3730  0.3113 -0.4708
 4916TIP3    H136307   3.418   4.063   2.392  1.2782 -0.7132  0.8978
 4916TIP3    H236308   3.334   3.940   2.418  0.1131 -0.0503  0.3755
 4917TIP3   OH236309   0.870   1.646   3.129 -0.5611  0.4926  0.1136
 4917TIP3    H136310   0.888   1.730   3.172  1.5999 -0.0301  0.3492
 4917TIP3    H236311   0.896   1.580   3.193 -0.2476 -0.3185 -0.8260
 4918TIP3   OH236312   6.014   1.225   2.227 -0.2127 -0.0693  0.1592
 4918TIP3    H136313   5.970   1.144   2.201 -0.7719  0.3897 -0.3682
 4918TIP3    H236314   6.003   1.283   2.152  0.7115  0.2941  0.2949
 4919TIP3   OH236315   1.832   2.874   1.133  0.2297 -0.3945  0.5201
 4919TIP3    H136316   1.809   2.782   1.118  0.9115 -0.4544 -0.2235
 4919TIP3    H236317   1.856   2.878   1.225  1.0296 -1.1467  0.3530
 4920TIP3   OH236318   1.597   6.286   2.688 -0.1776  0.4293 -0.0933
 4920TIP3    H136319   1.543   6.243   2.754  0.0419  1.6478  0.9160
 4920TIP3    H236320   1.686   6.282   2.723 -0.2208  2.1722  0.3446
 4921TIP3   OH236321   2.984   6.455   2.758 -0.1368  0.4253 -1.0299
 4921TIP3    H136322   2.980   6.480   2.850  1.4278  1.3178 -1.1797
 4921TIP3    H236323   2.935   6.372   2.754  0.9480 -0.3678  0.8560
 4922TIP3   OH236324   1.680   5.155   4.207  0.5567 -0.4646  0.7518
 4922TIP3    H136325   1.730   5.169   4.127  0.8691  1.4316  1.2207
 4922TIP3    H236326   1.603   5.212   4.197 -1.1096 -2.6333  0.4399
 4923TIP3   OH236327   0.028   1.671   1.309  0.3811  0.0038 -0.1373
 4923TIP3    H136328   0.086   1.694   1.382 -0.0332  0.9980 -0.1034
 4923TIP3    H236329   0.002   1.756   1.271 -0.7030 -0.4307 -0.4094
 4924TIP3   OH236330   5.632   0.052   0.095 -0.1427  0.4422  0.0068
 4924TIP3    H136331   5.623   0.034   0.188 -2.1168 -0.9182 -0.3821
 4924TIP3    H236332   5.686   0.131   0.091 -0.3875  0.7930  2.2966
 4925TIP3   OH236333   1.821   0.802   2.561 -0.3108  0.1959  0.4822
 4925TIP3    H136334   1.906   0.819   2.522 -0.4274 -0.7084 -0.2131
 4925TIP3    H236335   1.829   0.832   2.651  1.1216 -0.8953  0.7551
 4926TIP3   OH236336   1.949   0.280   0.812 -0.1147 -0.6345 -0.0886
 4926TIP3    H136337   1.921   0.325   0.733  0.9473  0.5952  0.2126
 4926TIP3    H236338   1.962   0.189   0.785 -1.4247 -0.6108 -0.9063
 4927TIP3   OH236339   3.348   4.462   2.133  0.2660 -0.7116  0.2977
 4927TIP3    H136340   3.306   4.427   2.055  0.7938 -3.2627  1.0615
 4927TIP3    H236341   3.396   4.387   2.170  0.8615  0.6658  2.5047
 4928TIP3   OH236342   3.963   4.998   1.318 -0.2436  0.6093 -0.4885
 4928TIP3    H136343   3.983   5.013   1.225 -1.2139 -0.1880 -0.8386
 4928TIP3    H236344   4.038   5.037   1.364 -0.2890  2.0572 -1.5374
 4929TIP3   OH236345   3.182   2.331   0.747 -0.0151 -0.4820  0.2976
 4929TIP3    H136346   3.185   2.286   0.663  0.9492  0.2071 -0.0592
 4929TIP3    H236347   3.176   2.261   0.812  1.8058 -1.1575 -0.2228
 4930TIP3   OH236348   5.815   4.288   3.831 -0.4265  0.1214 -0.4575
 4930TIP3    H136349   5.762   4.240   3.895  1.3352 -0.5151  0.6065
 4930TIP3    H236350   5.802   4.240   3.749 -0.7913 -0.5589 -0.0116
 4931TIP3   OH236351   3.133   6.691   0.709 -0.2650  0.4569  0.1248
 4931TIP3    H136352   3.135   6.761   0.643 -2.2414 -0.2694 -0.7724
 4931TIP3    H236353   3.076   6.624   0.671  0.7263 -1.2060  1.4197
 4932TIP3   OH236354   0.024   2.413   3.964  0.0281 -0.4612  0.4123
 4932TIP3    H136355   0.011   2.404   4.059 -1.8185  0.0043  0.2419
 4932TIP3    H236356   0.066   2.332   3.938  1.0846 -0.3757  1.7031
 4933TIP3   OH236357   4.104   3.170   4.532 -0.3296  0.2415  0.1347
 4933TIP3    H136358   4.196   3.159   4.557  0.7644  1.4355 -2.8731
 4933TIP3    H236359   4.088   3.264   4.539 -0.3479  0.4608 -2.0618
 4934TIP3   OH236360   0.723   5.481   3.606 -0.4511 -0.5708 -0.3853
 4934TIP3    H136361   0.652   5.419   3.589 -0.7120 -0.8861  1.5379
 4934TIP3    H236362   0.761   5.451   3.689 -0.8980  2.1096  0.8829
 4935TIP3   OH236363   6.683   3.949   1.588 -0.4022  0.5716 -0.9560
 4935TIP3    H136364   6.630   4.024   1.561 -1.2478  1.5585  2.8435
 4935TIP3    H236365   6.619   3.884   1.618  0.4467 -0.3846 -1.1549
 4936TIP3   OH236366   4.698   6.478   3.227  0.0747 -0.4327  0.5394
 4936TIP3    H136367   4.708   6.389   3.259  0.8284  0.3520  2.6576
 4936TIP3    H236368   4.778   6.495   3.177 -0.4878 -1.2255 -0.6492
 4937TIP3   OH236369   3.756   0.735   3.057 -0.0398 -0.6046  0.4975
 4937TIP3    H136370   3.814   0.797   3.102  0.2898 -0.7242  0.2367
 4937TIP3    H236371   3.803   0.652   3.059 -0.3893 -0.8030  0.6600
 4938TIP3   OH236372   3.317   5.327   1.411  0.2475  1.3933  0.2166
 4938TIP3    H136373   3.296   5.234   1.418  1.4827  0.9271 -1.6054
 4938TIP3    H236374   3.257   5.369   1.473 -1.9263 -0.3912 -0.5070
 4939TIP3   OH236375   2.452   2.712   4.445  0.0069 -0.6032 -0.0884
 4939TIP3    H136376   2.460   2.805   4.469  0.8301 -0.6113 -0.3001
 4939TIP3    H236377   2.372   2.708   4.393 -1.0274 -0.3435  1.4302
 4940TIP3   OH236378   0.385   3.434   1.391 -0.0747 -0.2014 -0.2031
 4940TIP3    H136379   0.337   3.385   1.457 -1.6717  0.5018 -0.7939
 4940TIP3    H236380   0.399   3.371   1.320  1.1081 -0.7812  0.5029
 4941TIP3   OH236381   5.748   1.316   2.379 -0.1366  0.4408 -0.3122
 4941TIP3    H136382   5.827   1.351   2.421 -0.9328 -0.1264  1.7826
 4941TIP3    H236383   5.758   1.221   2.385 -1.3721  0.3636  0.8058
 4942TIP3   OH236384   0.577   6.679   1.135  0.2945  0.1145 -0.3423
 4942TIP3    H136385   0.544   6.590   1.127 -0.5191  0.4210 -0.5622
 4942TIP3    H236386   0.671   6.670   1.148 -0.0016 -0.8563  1.4282
 4943TIP3   OH236387   0.110   6.002   1.493 -0.0658 -0.4412 -0.1442
 4943TIP3    H136388   0.103   5.928   1.552  1.2367 -0.2868  0.2131
 4943TIP3    H236389   0.198   6.036   1.506 -1.3583  2.7156  1.5457
 4944TIP3   OH236390   6.653   0.378   1.901 -0.3852 -0.4662 -0.4364
 4944TIP3    H136391   6.652   0.294   1.947  1.4286  0.0614  0.6540
 4944TIP3    H236392   6.650   0.444   1.970 -1.0398  0.3741 -1.2398
 4945TIP3   OH236393   2.886   1.540   8.408 -0.4131 -0.3426 -0.3822
 4945TIP3    H136394   2.902   1.459   8.456  1.9968  0.3739  0.2010
 4945TIP3    H236395   2.938   1.605   8.454 -1.3907  1.3085 -1.5061
 4946TIP3   OH236396   5.972   3.213   2.293 -0.0985  0.1584  0.3845
 4946TIP3    H136397   6.066   3.201   2.279  0.2339 -2.0712  3.4357
 4946TIP3    H236398   5.965   3.245   2.383 -2.2641  2.3819 -0.4668
 4947TIP3   OH236399   1.392   1.095   4.970 -0.2880 -0.3677  0.1208
 4947TIP3    H136400   1.360   1.024   4.914  0.0709  1.0855 -2.0336
 4947TIP3    H236401   1.476   1.120   4.933 -0.3190  1.0694  0.9404
 4948TIP3   OH236402   2.895   2.976   1.309 -0.2353 -0.2290 -0.3105
 4948TIP3    H136403   2.960   2.931   1.363 -0.1372 -1.3329 -1.2968
 4948TIP3    H236404   2.811   2.948   1.345 -0.1753 -1.3295 -0.9799
 4949TIP3   OH236405   4.504   5.592   2.810 -0.1498  0.1117 -0.3391
 4949TIP3    H136406   4.521   5.526   2.743  2.0035  0.8987 -0.6545
 4949TIP3    H236407   4.413   5.620   2.795  0.1127 -0.0851 -2.6175
 4950TIP3   OH236408   1.116   6.068   2.823  1.1194 -0.3794  0.0504
 4950TIP3    H136409   1.168   6.029   2.753  2.0538  0.0964  0.4595
 4950TIP3    H236410   1.135   6.014   2.900 -0.8102 -1.6257 -0.2782
 4951TIP3   OH236411   4.223   0.975   1.620 -1.1763  0.2769 -0.1807
 4951TIP3    H136412   4.273   1.011   1.693 -1.3665  0.1863 -0.0062
 4951TIP3    H236413   4.289   0.942   1.559 -1.0246  0.1929  0.0314
 4952TIP3   OH236414   4.781   5.788   4.617 -0.2736  0.2185  0.3344
 4952TIP3    H136415   4.814   5.699   4.602  0.6023  0.2616  1.8479
 4952TIP3    H236416   4.860   5.840   4.634 -0.8854  0.9763  0.9219
 4953TIP3   OH236417   4.638   3.554   3.085 -0.0266 -0.0481  0.3865
 4953TIP3    H136418   4.583   3.477   3.068  0.7831 -0.3403 -1.0718
 4953TIP3    H236419   4.677   3.575   3.001  0.9338  1.0698  1.0750
 4954TIP3   OH236420   1.463   0.655   3.317 -0.2591 -0.3522  0.1256
 4954TIP3    H136421   1.476   0.666   3.223 -0.8159 -0.5968  0.0187
 4954TIP3    H236422   1.506   0.573   3.338  1.0582  0.3586  0.3403
 4955TIP3   OH236423   0.492   2.566   0.753 -0.1708 -0.7298 -1.1147
 4955TIP3    H136424   0.575   2.585   0.796 -0.5856 -1.6288  0.1469
 4955TIP3    H236425   0.445   2.650   0.754  0.7165 -0.2065 -1.8837
 4956TIP3   OH236426   6.456   1.785   3.615 -0.4314 -0.3603  0.4365
 4956TIP3    H136427   6.377   1.830   3.584  0.9858  0.7492 -1.8359
 4956TIP3    H236428   6.457   1.703   3.566 -0.3036 -0.4711  0.6260
 4957TIP3   OH236429   3.365   2.519   0.674  0.3907  0.1909 -0.1201
 4957TIP3    H136430   3.411   2.566   0.744 -0.1045  1.2914 -0.5166
 4957TIP3    H236431   3.298   2.469   0.719 -1.4515  2.6629  0.0857
 4958TIP3   OH236432   4.740   0.348   2.516  0.6050 -0.3725 -0.0161
 4958TIP3    H136433   4.694   0.266   2.536  0.5460 -0.3157  0.0816
 4958TIP3    H236434   4.762   0.385   2.602  0.1179  0.0023 -0.0433
 4959TIP3   OH236435   0.161   3.433   2.113  0.2023 -0.5256 -0.4477
 4959TIP3    H136436   0.221   3.486   2.061  0.2885  0.0452  0.2166
 4959TIP3    H236437   0.081   3.427   2.060 -0.6770  2.2193  0.3747
 4960TIP3   OH236438   4.111   0.758   2.443 -0.2962 -0.4178 -0.0356
 4960TIP3    H136439   4.087   0.731   2.532  2.4474  0.9685  1.2513
 4960TIP3    H236440   4.080   0.849   2.437  0.8089 -0.0214  0.0860
 4961TIP3   OH236441   2.212   5.374   1.428  0.7862  0.1224  0.5134
 4961TIP3    H136442   2.183   5.392   1.517  0.3353 -0.2068  0.4346
 4961TIP3    H236443   2.267   5.296   1.436 -0.1098 -0.5438  0.3649
 4962TIP3   OH236444   1.698   0.509   0.422  0.0234  0.2886  0.4096
 4962TIP3    H136445   1.636   0.565   0.375  1.7233  0.2968 -2.0024
 4962TIP3    H236446   1.738   0.455   0.354  2.3099 -0.0432  1.8970
 4963TIP3   OH236447   1.798   6.888   1.964  0.1099 -0.0922 -0.3385
 4963TIP3    H136448   1.834   6.833   2.033  0.1772 -3.3235 -2.7117
 4963TIP3    H236449   1.862   6.958   1.952  2.7163 -2.3421 -0.4764
 4964TIP3   OH236450   2.294   1.424   3.261  0.4025 -0.1967  0.8283
 4964TIP3    H136451   2.229   1.453   3.197 -0.0490  0.0731  1.3981
 4964TIP3    H236452   2.250   1.355   3.311  1.0686 -1.0529  0.2534
 4965TIP3   OH236453   0.553   3.249   3.691  0.1714  0.2999 -0.6343
 4965TIP3    H136454   0.496   3.299   3.632 -1.2784  2.1461  2.1284
 4965TIP3    H236455   0.624   3.309   3.712  1.3873 -0.8056 -1.4245
 4966TIP3   OH236456   2.345   4.171   1.480  0.1580  0.3044 -0.2343
 4966TIP3    H136457   2.314   4.230   1.548 -0.2907  0.7897 -0.8461
 4966TIP3    H236458   2.408   4.222   1.430 -0.5005  0.4088 -0.9908
 4967TIP3   OH236459   4.506   0.902   3.860  0.3487 -0.3835  0.1461
 4967TIP3    H136460   4.573   0.856   3.809  0.4981 -1.6497  1.4395
 4967TIP3    H236461   4.553   0.975   3.900  0.3034  0.4263 -1.2072
 4968TIP3   OH236462   0.910   3.401   4.203 -0.6958 -0.5742 -0.1494
 4968TIP3    H136463   0.943   3.340   4.268  1.2413  1.6543  1.1536
 4968TIP3    H236464   0.827   3.433   4.239  0.2371  0.4549  1.1924
 4969TIP3   OH236465   2.474   5.265   0.677 -0.0587  0.2864  0.1319
 4969TIP3    H136466   2.399   5.312   0.712 -0.0270  0.7144 -0.3667
 4969TIP3    H236467   2.447   5.236   0.590  0.2118  0.0911  0.1090
 4970TIP3   OH236468   1.899   3.057   0.967 -0.0505  0.2086 -0.3506
 4970TIP3    H136469   1.868   2.990   1.028  2.0459 -0.5890 -0.1097
 4970TIP3    H236470   1.831   3.060   0.899 -1.9588  0.4392  1.4464
 4971TIP3   OH236471   3.572   0.986   2.028 -0.5218  0.6729 -0.5339
 4971TIP3    H136472   3.653   1.038   2.027  1.5029 -2.1405  1.2929
 4971TIP3    H236473   3.563   0.958   2.120 -1.1805 -2.5109 -1.4468
 4972TIP3   OH236474   3.734   1.668   0.147 -0.4762 -0.2304  0.1592
 4972TIP3    H136475   3.711   1.586   0.102  2.3738 -0.6200 -0.7832
 4972TIP3    H236476   3.728   1.735   0.080 -0.0329 -0.1563  0.1903
 4973TIP3   OH236477   2.624   6.067   4.035 -0.1618 -0.2884  0.2193
 4973TIP3    H136478   2.700   6.016   4.065  0.5119  0.5207 -0.0594
 4973TIP3    H236479   2.558   6.054   4.103  0.2021 -1.0689  0.4304
 4974TIP3   OH236480   6.845   4.213   1.424  0.2528 -0.0348  0.6346
 4974TIP3    H136481   6.900   4.135   1.432 -0.3659 -0.5937 -0.2333
 4974TIP3    H236482   6.871   4.252   1.340 -1.0479 -0.6614 -0.1064
 4975TIP3   OH236483   3.590   4.197   3.445  0.1310  0.2014 -0.4670
 4975TIP3    H136484   3.562   4.240   3.364  1.1292 -0.4206 -1.1687
 4975TIP3    H236485   3.611   4.108   3.418 -0.4785 -0.3017  0.6832
 4976TIP3   OH236486   0.524   6.503   4.311  0.0739  0.1727  0.0091
 4976TIP3    H136487   0.616   6.488   4.332  0.0345 -0.7801 -0.4252
 4976TIP3    H236488   0.476   6.467   4.385  0.0604  2.2218  1.0660
 4977TIP3   OH236489   2.032   4.636   4.494  0.3084 -0.2367 -0.0281
 4977TIP3    H136490   2.099   4.576   4.526 -0.9589 -2.1463 -0.7422
 4977TIP3    H236491   2.001   4.596   4.413 -1.4341  0.7652  0.0868
 4978TIP3   OH236492   2.440   3.413   2.510 -0.2355 -0.2397 -0.0232
 4978TIP3    H136493   2.425   3.504   2.488  1.1710  0.2833  1.0424
 4978TIP3    H236494   2.535   3.406   2.523 -0.4234 -1.5986  0.9146
 4979TIP3   OH236495   2.566   3.440   1.538 -0.9494  0.2677  0.2630
 4979TIP3    H136496   2.530   3.453   1.450 -0.9698  0.6726  0.3306
 4979TIP3    H236497   2.661   3.443   1.526 -0.9531  1.5689  0.4330
 4980TIP3   OH236498   5.415   6.119   3.116 -0.3423 -0.6973 -0.0324
 4980TIP3    H136499   5.350   6.188   3.101 -0.4343 -0.6400  0.5763
 4980TIP3    H236500   5.471   6.154   3.186 -0.2492 -1.1438  0.1217
 4981TIP3   OH236501   3.690   4.855   8.315  0.4620 -0.2324  0.7361
 4981TIP3    H136502   3.635   4.818   8.246  0.1095 -0.3760  1.0881
 4981TIP3    H236503   3.746   4.782   8.342 -0.2941 -0.5460  1.4911
 4982TIP3   OH236504   1.808   0.916   2.985 -0.0527  0.2683 -0.3901
 4982TIP3    H136505   1.741   0.853   2.959  1.9612 -2.2747  0.1713
 4982TIP3    H236506   1.868   0.919   2.911 -0.3187  1.9088 -0.5747
 4983TIP3   OH236507   5.763   3.823   3.488 -0.5578  0.1046 -0.2862
 4983TIP3    H136508   5.757   3.878   3.410  0.5306  1.6605  0.6664
 4983TIP3    H236509   5.852   3.788   3.487 -0.1571  1.0178  0.7823
 4984TIP3   OH236510   5.467   2.437   0.824  0.4612  0.1171  0.3393
 4984TIP3    H136511   5.540   2.409   0.767  1.1711  1.8962  0.3250
 4984TIP3    H236512   5.405   2.479   0.764  0.2237  0.1293  0.5941
 4985TIP3   OH236513   5.823   6.208   2.984 -0.0207  0.2659  0.0041
 4985TIP3    H136514   5.779   6.135   3.027  0.0475  0.4319  0.3625
 4985TIP3    H236515   5.889   6.167   2.928 -0.4017  0.0315 -0.2824
 4986TIP3   OH236516   6.441   0.121   3.202 -0.1903 -0.1686  0.1163
 4986TIP3    H136517   6.480   0.109   3.289 -0.7147 -0.3850  0.3310
 4986TIP3    H236518   6.352   0.086   3.212  0.3619 -2.0503 -1.0497
 4987TIP3   OH236519   3.372   4.865   2.550 -0.1227  0.1195 -0.5977
 4987TIP3    H136520   3.408   4.777   2.542  1.5707  0.6865  0.2254
 4987TIP3    H236521   3.336   4.885   2.464 -0.2297 -1.2378 -0.8838
 4988TIP3   OH236522   4.130   1.336   1.712  0.0746 -0.4597  0.4756
 4988TIP3    H136523   4.096   1.249   1.691  0.1045 -0.6398  1.1483
 4988TIP3    H236524   4.061   1.396   1.684  0.0398 -0.6980  0.0377
 4989TIP3   OH236525   4.850   1.786   4.230  0.2798  0.4803 -0.4771
 4989TIP3    H136526   4.890   1.757   4.312  2.6894  0.7943 -1.4544
 4989TIP3    H236527   4.846   1.881   4.237 -0.4386  0.4383 -0.3251
 4990TIP3   OH236528   1.379   1.732   1.253 -0.0095 -0.4573 -0.0963
 4990TIP3    H136529   1.364   1.661   1.190 -0.7191 -1.0247  0.6983
 4990TIP3    H236530   1.388   1.810   1.198  0.4190 -1.0887 -0.9630
 4991TIP3   OH236531   5.738   5.856   2.782 -0.3905 -0.4404 -0.0173
 4991TIP3    H136532   5.663   5.893   2.828  0.0267 -0.1900  0.4663
 4991TIP3    H236533   5.757   5.774   2.828  0.8277  0.4240  1.1098
 4992TIP3   OH236534   6.874   4.714   2.425 -0.3137 -0.1548 -0.1606
 4992TIP3    H136535   6.810   4.761   2.478 -0.1815 -0.5644  0.3679
 4992TIP3    H236536   6.836   4.711   2.338 -1.1104 -0.5885  0.1985
 4993TIP3   OH236537   0.932   0.530   1.897 -0.1830  0.1165  0.3558
 4993TIP3    H136538   0.887   0.604   1.938 -0.8353  0.2403 -0.5652
 4993TIP3    H236539   0.861   0.471   1.870  0.2670 -0.2501 -0.0415
 4994TIP3   OH236540   5.328   3.793   1.310  0.5706 -0.2676  0.2888
 4994TIP3    H136541   5.343   3.764   1.399 -0.0982 -0.5216  0.3273
 4994TIP3    H236542   5.319   3.712   1.259  1.0528 -0.1252 -0.0277
 4995TIP3   OH236543   1.280   4.738   2.482  0.3063 -0.0893  0.3907
 4995TIP3    H136544   1.260   4.832   2.489  0.7444 -0.0552  1.4404
 4995TIP3    H236545   1.199   4.695   2.510  0.9601  0.0279  2.6488
 4996TIP3   OH236546   4.968   5.133   3.859 -0.1211 -0.0946 -0.4813
 4996TIP3    H136547   4.999   5.197   3.923 -0.5766 -1.0871  0.7707
 4996TIP3    H236548   4.876   5.155   3.845  0.1915  0.6467 -1.4730
 4997TIP3   OH236549   5.443   1.825   2.972  0.7694  0.6024 -0.1803
 4997TIP3    H136550   5.486   1.845   2.889  0.5381  0.1368 -0.4176
 4997TIP3    H236551   5.361   1.874   2.970  0.3313 -0.1361 -0.6392
 4998TIP3   OH236552   4.909   4.241   1.505 -0.2133 -0.7036  0.6121
 4998TIP3    H136553   4.904   4.269   1.413  1.6283 -0.4730  0.5589
 4998TIP3    H236554   4.840   4.292   1.549  0.1103  0.5793 -0.3063
 4999TIP3   OH236555   6.173   2.975   1.212 -0.6358  0.1020 -0.3816
 4999TIP3    H136556   6.101   3.038   1.213  0.6786  1.6998 -0.9664
 4999TIP3    H236557   6.249   3.027   1.186  0.9679 -1.2633  1.3420
 5000TIP3   OH236558   5.793   1.686   3.613 -0.3493  0.4035  0.4221
 5000TIP3    H136559   5.714   1.655   3.568  1.0132  0.1628 -1.9701
 5000TIP3    H236560   5.797   1.779   3.591 -0.5660  0.6790  1.5226
 5001TIP3   OH236561   3.965   1.075   1.973  0.5623 -0.2998  0.2329
 5001TIP3    H136562   3.906   1.122   2.033 -0.4428 -0.7732 -0.3577
 5001TIP3    H236563   3.912   1.059   1.895  1.6659 -0.2187 -0.5685
 5002TIP3   OH236564   3.333   2.720   2.157  0.4522 -0.3088 -0.2639
 5002TIP3    H136565   3.298   2.797   2.201  0.0688 -1.0760  0.8122
 5002TIP3    H236566   3.273   2.705   2.084 -0.0710 -0.2043  0.1415
 5003TIP3   OH236567   2.206   4.719   0.639  0.0302  0.4723  0.4027
 5003TIP3    H136568   2.131   4.659   0.643  0.3612  0.0448  0.3267
 5003TIP3    H236569   2.232   4.718   0.546 -0.3069  1.1661  0.3011
 5004TIP3   OH236570   4.153   3.242   4.150 -1.4068  0.4488  0.0810
 5004TIP3    H136571   4.240   3.279   4.167 -1.5471 -0.1478  2.4202
 5004TIP3    H236572   4.163   3.196   4.066  0.4883  0.5612  0.1921
 5005TIP3   OH236573   0.101   4.304   2.004  0.5955 -0.8449 -0.0153
 5005TIP3    H136574   0.013   4.269   2.020  0.4633 -0.3835  0.2804
 5005TIP3    H236575   0.127   4.265   1.920 -0.9393  1.0036 -1.4500
 5006TIP3   OH236576   0.720   6.691   2.808  0.2729  0.3674  0.0688
 5006TIP3    H136577   0.785   6.632   2.847  1.1157  2.8794  2.7830
 5006TIP3    H236578   0.767   6.773   2.793 -1.9440  1.9478  1.1111
 5007TIP3   OH236579   5.854   0.777   3.919 -0.0842 -0.0613  0.2444
 5007TIP3    H136580   5.833   0.689   3.888 -0.0680  0.0437 -0.0718
 5007TIP3    H236581   5.813   0.784   4.005 -2.4069  0.5642 -0.8385
 5008TIP3   OH236582   2.523   0.014   3.630 -0.2075  0.1469 -0.0123
 5008TIP3    H136583   2.581   0.045   3.560  0.2097 -0.9948 -0.1984
 5008TIP3    H236584   2.438   0.053   3.610 -0.5523 -1.4726 -2.1749
 5009TIP3   OH236585   0.128   2.947   1.551  0.3296  0.6473 -0.2145
 5009TIP3    H136586   0.130   2.854   1.533  0.7604  0.8481 -1.2798
 5009TIP3    H236587   0.053   2.959   1.610  1.2358 -0.5679  1.2727
 5010TIP3   OH236588   4.000   2.379   3.574  0.5521  0.1052 -0.1548
 5010TIP3    H136589   4.043   2.337   3.649 -0.3558 -0.5643  0.0003
 5010TIP3    H236590   3.918   2.413   3.610  0.7599  1.0376 -0.5365
 5011TIP3   OH236591   0.136   5.513   3.807 -0.0079  0.1494 -0.0355
 5011TIP3    H136592   0.214   5.529   3.861 -0.7228  1.0118  0.7692
 5011TIP3    H236593   0.080   5.457   3.861  0.4185 -1.2558 -0.9757
 5012TIP3   OH236594   2.932   5.029   1.440 -0.4594  0.0807 -0.4974
 5012TIP3    H136595   2.980   5.012   1.521 -0.0946 -1.4748 -1.0143
 5012TIP3    H236596   2.996   5.070   1.382 -0.2525 -0.3050 -0.5477
 5013TIP3   OH236597   6.178   0.858   2.651  0.2964 -0.0130  0.0678
 5013TIP3    H136598   6.100   0.891   2.697  0.3400  0.7859 -0.4009
 5013TIP3    H236599   6.227   0.811   2.718  0.5301  1.4091  0.9406
 5014TIP3   OH236600   1.744   0.563   3.256 -0.0137 -0.0534  0.8167
 5014TIP3    H136601   1.746   0.656   3.232 -0.3940  0.1195  1.4186
 5014TIP3    H236602   1.724   0.564   3.349 -0.3471 -0.7543  0.7521
 5015TIP3   OH236603   0.344   6.257   8.313  0.6373 -0.2372  0.2611
 5015TIP3    H136604   0.315   6.248   8.404  0.0626  0.0634  0.1089
 5015TIP3    H236605   0.293   6.192   8.265 -0.4608  0.8961 -0.1536
 5016TIP3   OH236606   3.484   2.857   2.985 -0.2964 -0.0721 -0.0252
 5016TIP3    H136607   3.442   2.941   2.965 -1.8743 -0.5087  1.1932
 5016TIP3    H236608   3.562   2.855   2.930 -0.5097  1.9483 -0.4814
 5017TIP3   OH236609   3.753   4.665   0.112  0.0094  0.1737 -0.4338
 5017TIP3    H136610   3.782   4.679   0.022  1.7331  0.3305  0.1106
 5017TIP3    H236611   3.672   4.715   0.119  1.4436  2.7789 -1.0398
 5018TIP3   OH236612   2.399   6.868   4.468 -0.1276  0.1385 -0.3064
 5018TIP3    H136613   2.454   6.816   4.526 -0.8767 -1.0063 -0.5960
 5018TIP3    H236614   2.363   6.937   4.524  1.3664  0.7614 -0.0589
 5019TIP3   OH236615   2.363   0.202   3.092 -0.0784  0.1468  0.2250
 5019TIP3    H136616   2.321   0.288   3.089 -1.1095 -0.3657 -0.3873
 5019TIP3    H236617   2.424   0.203   3.018 -0.3281  0.2219  0.0207
 5020TIP3   OH236618   2.280   0.762   1.927 -0.0734  0.5458 -0.1127
 5020TIP3    H136619   2.327   0.759   1.843  1.1886  1.4751  0.5192
 5020TIP3    H236620   2.307   0.681   1.971  0.6184  0.8633  0.0665
 5021TIP3   OH236621   0.565   6.359   2.854  0.1560 -0.2697 -0.0910
 5021TIP3    H136622   0.636   6.324   2.801  0.4284 -0.5984  0.4809
 5021TIP3    H236623   0.576   6.454   2.849  1.1494 -0.3326  0.6635
 5022TIP3   OH236624   0.688   2.242   2.669  0.1284 -0.4973  0.4822
 5022TIP3    H136625   0.692   2.309   2.600 -1.3940 -0.9483 -0.0919
 5022TIP3    H236626   0.775   2.204   2.670  0.9611  1.2892  0.6237
 5023TIP3   OH236627   4.558   5.256   2.239 -0.1584  0.1778 -0.4700
 5023TIP3    H136628   4.555   5.335   2.294 -1.3560  0.7129 -1.2713
 5023TIP3    H236629   4.612   5.195   2.290  0.0721  1.1908  0.5752
 5024TIP3   OH236630   4.742   3.187   3.523  0.1162 -0.7994  0.1674
 5024TIP3    H136631   4.761   3.096   3.545  2.4806 -1.1069 -2.5690
 5024TIP3    H236632   4.819   3.217   3.475 -2.1317  1.4262 -2.3924
 5025TIP3   OH236633   0.344   5.211   4.021 -0.3848  0.3055  0.7076
 5025TIP3    H136634   0.286   5.185   4.092 -0.1508  0.8723  1.1135
 5025TIP3    H236635   0.411   5.143   4.018 -1.1843 -0.4833  0.0775
 5026TIP3   OH236636   4.225   6.039   1.685  0.3326  0.6330  0.1065
 5026TIP3    H136637   4.248   5.967   1.744  0.1578  1.6913  1.5327
 5026TIP3    H236638   4.155   6.086   1.730 -0.0778  1.2594 -1.1429
 5027TIP3   OH236639   4.155   2.847   1.212  0.4905 -0.2358  0.3278
 5027TIP3    H136640   4.184   2.906   1.142  0.3772  0.7066  1.0475
 5027TIP3    H236641   4.236   2.807   1.244  0.6267 -0.0892  0.1725
 5028TIP3   OH236642   3.832   5.595   0.263  0.8991  0.3544  0.5679
 5028TIP3    H136643   3.927   5.605   0.249  0.8496  1.4994  0.9572
 5028TIP3    H236644   3.797   5.683   0.254 -0.0337  0.0639  1.2264
 5029TIP3   OH236645   1.003   6.459   4.018  0.2749  0.3342  0.0074
 5029TIP3    H136646   0.952   6.506   4.084  0.3726 -0.2514  0.5117
 5029TIP3    H236647   0.943   6.395   3.982  0.4169  0.1920  0.0206
 5030TIP3   OH236648   6.624   1.033   2.984  0.1114  0.7132 -0.5078
 5030TIP3    H136649   6.684   1.101   2.955 -0.1306  0.6952 -1.0878
 5030TIP3    H236650   6.545   1.080   3.010 -0.2547  0.6306 -1.4297
 5031TIP3   OH236651   6.568   6.249   2.300  0.1532  0.4610  0.6774
 5031TIP3    H136652   6.531   6.182   2.242 -1.1820  3.5288 -2.3957
 5031TIP3    H236653   6.662   6.242   2.287 -0.0529  0.1632 -0.9044
 5032TIP3   OH236654   3.701   3.253   3.450 -0.0932 -0.0707  0.3238
 5032TIP3    H136655   3.666   3.173   3.411  0.6739 -0.3457  0.1839
 5032TIP3    H236656   3.703   3.315   3.377 -0.4639  0.0054  0.3765
 5033TIP3   OH236657   6.437   0.219   1.394 -0.3281  0.3419  0.4030
 5033TIP3    H136658   6.487   0.291   1.356 -0.9955  0.7440  0.2748
 5033TIP3    H236659   6.373   0.195   1.326 -0.8670  0.3970  0.8857
 5034TIP3   OH236660   5.624   2.093   2.548  0.7495 -0.5873  0.0667
 5034TIP3    H136661   5.645   2.131   2.633 -0.1498  1.3199 -0.5187
 5034TIP3    H236662   5.709   2.086   2.503  1.0931 -0.5684  0.7011
 5035TIP3   OH236663   3.080   4.812   2.416  0.0804 -0.4001 -0.3014
 5035TIP3    H136664   3.143   4.767   2.361  0.5255 -0.4908  0.2869
 5035TIP3    H236665   3.106   4.792   2.505 -1.9682 -2.1258 -0.0084
 5036TIP3   OH236666   3.788   0.728   4.007  0.6130  0.2050  0.2469
 5036TIP3    H136667   3.740   0.808   4.029 -1.4237 -0.2377 -2.1340
 5036TIP3    H236668   3.780   0.673   4.085 -0.6084  1.1534  0.8351
 5037TIP3   OH236669   5.550   0.162   0.726  0.5594  0.5984  0.5606
 5037TIP3    H136670   5.591   0.127   0.806 -0.1566 -0.8645  0.3269
 5037TIP3    H236671   5.456   0.146   0.739  0.3863  0.8807 -0.3280
 5038TIP3   OH236672   6.916   0.256   1.969 -0.1232 -0.2054 -0.1664
 5038TIP3    H136673   6.872   0.240   2.052  2.3732 -2.1988  0.9186
 5038TIP3    H236674   6.967   0.335   1.984 -1.0970  0.4844 -0.4524
 5039TIP3   OH236675   3.536   0.635   0.667  0.2860  0.5597  0.3174
 5039TIP3    H136676   3.503   0.717   0.704  3.8118  1.5287  1.7628
 5039TIP3    H236677   3.520   0.570   0.736 -0.4888  0.5123  0.1016
 5040TIP3   OH236678   6.200   3.570   3.951  0.4202 -0.3157 -0.8935
 5040TIP3    H136679   6.106   3.582   3.965  0.4452 -1.5139  0.3981
 5040TIP3    H236680   6.219   3.482   3.983  2.2401  0.4190  0.1928
 5041TIP3   OH236681   6.883   3.562   1.425  0.4408 -0.7271  0.3389
 5041TIP3    H136682   6.896   3.522   1.339  1.7306 -0.3115  0.3287
 5041TIP3    H236683   6.797   3.530   1.452  0.1432 -1.1192 -0.9588
 5042TIP3   OH236684   5.943   3.212   3.587 -0.3138  0.6253 -0.3009
 5042TIP3    H136685   5.971   3.208   3.495  1.6282 -0.4170  0.2798
 5042TIP3    H236686   5.932   3.121   3.613 -1.0958  0.9182  0.4608
 5043TIP3   OH236687   6.914   2.797   2.401 -0.6647  0.3616 -0.1435
 5043TIP3    H136688   6.994   2.845   2.379 -0.0620 -0.7309 -0.4485
 5043TIP3    H236689   6.936   2.751   2.483 -0.9980  0.1082 -0.1951
 5044TIP3   OH236690   4.852   3.203   1.353  0.3393  0.3412  0.1357
 5044TIP3    H136691   4.767   3.247   1.357 -0.6105 -1.5042  0.8316
 5044TIP3    H236692   4.914   3.274   1.334 -1.4291  1.6076 -1.2667
 5045TIP3   OH236693   6.077   4.925   3.086 -0.3179 -0.2472  0.0457
 5045TIP3    H136694   6.052   4.845   3.133 -2.0383 -0.1741 -0.6635
 5045TIP3    H236695   6.019   4.992   3.120  0.7103  0.5855  0.2009
 5046TIP3   OH236696   5.234   5.458   0.820 -0.4287  0.3627  0.1453
 5046TIP3    H136697   5.224   5.553   0.813  0.5530  0.4753  0.1366
 5046TIP3    H236698   5.154   5.423   0.780  0.2106  1.1660 -1.9613
 5047TIP3   OH236699   0.425   1.189   1.106  0.6802 -0.4067  0.5138
 5047TIP3    H136700   0.410   1.120   1.171 -0.8596 -0.3993  0.2048
 5047TIP3    H236701   0.337   1.211   1.073  1.1853  1.3308  0.2213
 5048TIP3   OH236702   5.043   5.636   2.839 -0.2394  0.0045 -0.2692
 5048TIP3    H136703   4.956   5.663   2.869  0.1829  1.1220  0.0040
 5048TIP3    H236704   5.031   5.545   2.810 -1.9110  0.6614 -1.9140
 5049TIP3   OH236705   2.518   3.864   4.431  0.2826 -0.2600  0.3132
 5049TIP3    H136706   2.470   3.927   4.486  1.7041  0.5403  0.6770
 5049TIP3    H236707   2.454   3.838   4.365 -0.7209  0.6366  0.8859
 5050TIP3   OH236708   5.837   4.408   0.520 -0.6894  0.0171 -0.2553
 5050TIP3    H136709   5.780   4.340   0.554 -1.5319  0.8544  0.0625
 5050TIP3    H236710   5.893   4.432   0.594 -0.1601 -0.5517 -0.4637
 5051TIP3   OH236711   0.976   0.265   2.478 -0.1470 -0.8960  0.2676
 5051TIP3    H136712   1.004   0.223   2.559 -0.9080 -0.0517  0.9939
 5051TIP3    H236713   0.880   0.257   2.478 -0.2467  0.1147  0.0362
 5052TIP3   OH236714   3.758   3.241   1.851 -0.6855  0.6028  0.7241
 5052TIP3    H136715   3.694   3.290   1.801 -0.0917  1.9764  1.2428
 5052TIP3    H236716   3.796   3.306   1.911  0.1128 -0.5055  1.4634
 5053TIP3   OH236717   4.130   5.128   1.799 -0.2167 -0.2204 -0.1748
 5053TIP3    H136718   4.078   5.048   1.807  0.4749 -0.8719 -1.8715
 5053TIP3    H236719   4.065   5.197   1.785 -0.7467 -0.6678  0.0477
 5054TIP3   OH236720   0.655   5.402   1.696 -0.6214  0.7800  0.5372
 5054TIP3    H136721   0.734   5.349   1.702  0.5219  2.5357  2.1785
 5054TIP3    H236722   0.621   5.385   1.609  1.8743  0.3535 -0.4381
 5055TIP3   OH236723   2.092   5.475   2.427 -0.3925  0.0737 -0.6635
 5055TIP3    H136724   2.086   5.469   2.332 -1.5588  0.9853 -0.6592
 5055TIP3    H236725   2.092   5.568   2.446 -0.1041 -0.0961  0.2298
 5056TIP3   OH236726   6.853   0.652   3.228  0.0013 -0.1682 -0.0106
 5056TIP3    H136727   6.847   0.706   3.150 -1.4726  1.1610  0.9544
 5056TIP3    H236728   6.947   0.645   3.245  0.5955 -2.7518 -3.3061
 5057TIP3   OH236729   1.788   0.059   1.139 -0.1453  0.2620 -0.3798
 5057TIP3    H136730   1.785   0.133   1.200 -1.3414 -0.8769  0.9731
 5057TIP3    H236731   1.712   0.006   1.160  0.9354 -1.6313 -1.0106
 5058TIP3   OH236732   5.405   5.138   1.415  0.0105  0.3841 -0.6120
 5058TIP3    H136733   5.482   5.195   1.417  1.0459 -0.9526 -1.6940
 5058TIP3    H236734   5.366   5.153   1.329 -0.8560  0.8956 -0.1506
 5059TIP3   OH236735   0.393   2.098   8.399 -0.0102 -0.2632  0.2330
 5059TIP3    H136736   0.351   2.074   8.481 -0.5470 -0.4356 -0.0936
 5059TIP3    H236737   0.352   2.181   8.374  0.4169 -0.0196  0.3282
 5060TIP3   OH236738   3.419   6.051   0.937 -0.1136  1.0362  0.1726
 5060TIP3    H136739   3.350   6.055   1.003  0.1055  1.4485  0.3752
 5060TIP3    H236740   3.443   5.958   0.935 -1.5745  0.6360 -0.8434
 5061TIP3   OH236741   0.749   2.322   3.477 -0.0370  0.1548  0.6495
 5061TIP3    H136742   0.789   2.355   3.397 -0.1246 -0.4323  0.3519
 5061TIP3    H236743   0.812   2.259   3.512  0.8406  1.7435  2.0621
 5062TIP3   OH236744   5.348   0.391   2.558  0.3080  0.6234 -0.3184
 5062TIP3    H136745   5.425   0.404   2.503  1.2301  2.1402  1.2167
 5062TIP3    H236746   5.380   0.342   2.634 -0.7602 -0.7281 -0.6945
 5063TIP3   OH236747   4.845   6.070   0.560 -0.0845 -0.0411 -0.6320
 5063TIP3    H136748   4.828   6.163   0.549 -1.6151 -0.2039  0.1132
 5063TIP3    H236749   4.776   6.027   0.509  2.0463 -0.8353 -3.0773
 5064TIP3   OH236750   6.000   4.502   0.741  0.2360  0.4964  0.0353
 5064TIP3    H136751   5.981   4.416   0.778  0.3945  0.5961  0.3510
 5064TIP3    H236752   6.083   4.490   0.694 -0.1902  0.2603 -0.6662
 5065TIP3   OH236753   4.632   3.906   3.404 -0.5984 -0.1847 -0.0105
 5065TIP3    H136754   4.636   3.896   3.499 -0.3783  0.4100  0.0410
 5065TIP3    H236755   4.576   3.833   3.375 -0.6933 -0.3468  0.5721
 5066TIP3   OH236756   0.281   4.786   4.208  0.1040  0.2567  0.2718
 5066TIP3    H136757   0.271   4.774   4.303  0.3370  0.2867  0.3019
 5066TIP3    H236758   0.234   4.712   4.170 -0.4351  0.5313  0.3938
 5067TIP3   OH236759   0.392   0.517   2.774 -0.2853  0.2219 -0.4393
 5067TIP3    H136760   0.408   0.464   2.852 -0.0939  0.8473 -0.0495
 5067TIP3    H236761   0.304   0.491   2.745  0.2042 -1.0596 -0.8660
 5068TIP3   OH236762   5.674   3.239   1.710 -0.1286  0.3354  0.0149
 5068TIP3    H136763   5.644   3.157   1.671 -0.8657  1.1655 -1.2393
 5068TIP3    H236764   5.659   3.227   1.804 -0.6533 -0.7891 -0.1929
 5069TIP3   OH236765   3.394   4.575   3.779  0.2617 -0.3302  0.2688
 5069TIP3    H136766   3.480   4.541   3.754  0.3779  1.2312 -1.6700
 5069TIP3    H236767   3.413   4.659   3.820 -0.3708  0.3950 -0.8960
 5070TIP3   OH236768   2.649   0.517   2.322 -0.1108 -0.1959 -0.3182
 5070TIP3    H136769   2.591   0.592   2.312  0.7727  0.4657 -0.5168
 5070TIP3    H236770   2.599   0.444   2.286 -1.8689 -0.1645  1.7875
 5071TIP3   OH236771   2.262   6.346   0.701 -0.0287 -0.2803  0.5897
 5071TIP3    H136772   2.201   6.272   0.695  0.0626 -0.2963 -0.4313
 5071TIP3    H236773   2.346   6.306   0.725  0.3710 -0.7501 -1.3643
 5072TIP3   OH236774   2.863   5.629   2.973 -0.2606  0.0436  0.0725
 5072TIP3    H136775   2.851   5.718   2.939  1.7563  0.2726 -0.1730
 5072TIP3    H236776   2.862   5.639   3.068 -0.4788  0.2750  0.0445
 5073TIP3   OH236777   5.286   2.078   4.187  0.4896  0.2141  0.2646
 5073TIP3    H136778   5.246   1.994   4.209  2.5040 -0.8908 -0.1129
 5073TIP3    H236779   5.360   2.086   4.247  0.5088  1.5922  0.0883
 5074TIP3   OH236780   2.292   1.578   0.891  0.3480  0.4394 -0.6459
 5074TIP3    H136781   2.364   1.618   0.939 -0.2725  0.0943  0.6362
 5074TIP3    H236782   2.252   1.650   0.842 -0.0318  1.1726  0.6924
 5075TIP3   OH236783   6.823   0.257   2.661  0.1910 -0.3569  0.3233
 5075TIP3    H136784   6.786   0.316   2.727  0.7878 -0.3282  0.6461
 5075TIP3    H236785   6.834   0.174   2.707 -0.3014 -0.6178 -0.0253
 5076TIP3   OH236786   4.776   3.259   4.538 -0.7626 -0.1330  0.0431
 5076TIP3    H136787   4.807   3.349   4.533 -0.5003 -0.1408  1.2786
 5076TIP3    H236788   4.843   3.213   4.588 -1.5137 -0.7202  0.5336
 5077TIP3   OH236789   3.426   0.990   3.428  0.3680 -0.1568 -0.3197
 5077TIP3    H136790   3.341   0.949   3.414  1.9086 -3.8012 -0.0357
 5077TIP3    H236791   3.447   0.972   3.519  1.9107 -0.3379 -0.6809
 5078TIP3   OH236792   1.947   5.196   2.795  0.1019  0.2067 -0.6253
 5078TIP3    H136793   1.973   5.281   2.761  0.8305 -0.3407 -1.4697
 5078TIP3    H236794   1.901   5.154   2.722  1.5212 -0.9110 -0.9142
 5079TIP3   OH236795   5.375   3.790   0.715  0.1635  0.2334 -0.3133
 5079TIP3    H136796   5.316   3.764   0.644  0.3612 -1.6583  0.1635
 5079TIP3    H236797   5.394   3.882   0.698 -1.9427  0.5603 -1.1754
 5080TIP3   OH236798   3.404   5.517   3.108 -0.5432 -0.1253  0.2819
 5080TIP3    H136799   3.433   5.441   3.158  2.4066 -0.1866 -1.2904
 5080TIP3    H236800   3.364   5.480   3.029 -0.3333 -0.0326  0.1324
 5081TIP3   OH236801   6.288   1.269   2.292  0.2249 -0.2305  0.0018
 5081TIP3    H136802   6.193   1.280   2.286  0.2704  0.1010 -0.1659
 5081TIP3    H236803   6.306   1.259   2.386  0.1645  1.1333  0.1814
 5082TIP3   OH236804   6.378   6.754   3.352 -0.2428  0.4299 -0.1812
 5082TIP3    H136805   6.338   6.838   3.331 -0.2632 -0.1766 -2.9256
 5082TIP3    H236806   6.468   6.777   3.377 -0.7977  1.3873  1.0349
 5083TIP3   OH236807   0.946   0.218   3.109  0.2891  0.2848 -0.3215
 5083TIP3    H136808   0.854   0.208   3.137  0.1012  0.1562 -0.9699
 5083TIP3    H236809   0.960   0.145   3.049  1.0680 -0.1673  0.4017
 5084TIP3   OH236810   6.177   3.030   8.275 -0.0777 -0.6052  0.3524
 5084TIP3    H136811   6.105   3.083   8.241  2.3407  1.7127 -1.6088
 5084TIP3    H236812   6.192   2.964   8.209  1.7301  1.1267 -1.1120
 5085TIP3   OH236813   1.933   6.920   3.433 -0.0431 -0.3042  0.0640
 5085TIP3    H136814   1.880   6.898   3.356  0.0972  0.7358 -0.3520
 5085TIP3    H236815   1.929   7.016   3.438  2.0235 -0.1604 -0.1562
 5086TIP3   OH236816   6.205   5.017   3.721  0.2603 -0.0522 -0.0689
 5086TIP3    H136817   6.283   5.018   3.665  0.7889  1.4970  0.6437
 5086TIP3    H236818   6.236   5.044   3.807 -0.9603 -0.0359  0.3939
 5087TIP3   OH236819   3.873   2.787   0.705 -0.2924 -0.0425  0.2981
 5087TIP3    H136820   3.908   2.743   0.782  0.1437  0.6339  0.5032
 5087TIP3    H236821   3.856   2.717   0.643  1.8184 -0.4260  0.0475
 5088TIP3   OH236822   0.774   4.617   4.831  0.0151  0.2369 -0.3711
 5088TIP3    H136823   0.801   4.626   4.740  1.5352 -1.7444 -0.1804
 5088TIP3    H236824   0.831   4.549   4.867  0.0141  1.5008  2.2949
 5089TIP3   OH236825   6.257   4.133   0.626  0.0816  0.2030 -0.2582
 5089TIP3    H136826   6.179   4.105   0.577 -0.6049 -0.8829  1.3945
 5089TIP3    H236827   6.299   4.196   0.568 -2.0424  0.8562 -1.2016
 5090TIP3   OH236828   3.706   5.408   0.832 -0.5938  0.1050 -0.2088
 5090TIP3    H136829   3.630   5.466   0.823 -0.5580  0.0982 -0.5894
 5090TIP3    H236830   3.669   5.322   0.848 -0.6796  0.0288 -0.8053
 5091TIP3   OH236831   4.838   3.458   3.326 -0.7230  1.1419 -0.1393
 5091TIP3    H136832   4.827   3.487   3.236  1.0316  0.3002 -0.6864
 5091TIP3    H236833   4.909   3.394   3.322 -0.6041  1.0698  1.8435
 5092TIP3   OH236834   2.179   0.025   3.991 -0.2290  0.0198 -0.5295
 5092TIP3    H136835   2.101  -0.031   3.983 -0.1692  0.0942 -1.8178
 5092TIP3    H236836   2.222  -0.006   4.071 -0.2674 -1.6939 -1.1306
 5093TIP3   OH236837   1.153   6.310   4.195  0.5027  0.1999 -0.2440
 5093TIP3    H136838   1.166   6.230   4.144  2.5191 -0.0639  0.6056
 5093TIP3    H236839   1.128   6.376   4.130  1.5611 -0.4748 -1.3664
 5094TIP3   OH236840   1.657   2.927   2.080  0.7150 -0.1348 -0.7613
 5094TIP3    H136841   1.660   2.836   2.111  0.6748 -0.3674 -1.4119
 5094TIP3    H236842   1.589   2.968   2.134  0.5475 -0.5640 -0.6395
 5095TIP3   OH236843   0.126   4.932   2.381 -0.2211  0.2359  0.6165
 5095TIP3    H136844   0.098   5.024   2.380 -1.2594 -0.0598 -0.8232
 5095TIP3    H236845   0.048   4.883   2.356  0.4886 -0.9894  0.7471
 5096TIP3   OH236846   0.091   6.435   0.166  0.5520 -0.6579  0.4882
 5096TIP3    H136847   0.013   6.449   0.113  1.2000 -1.3121 -0.7015
 5096TIP3    H236848   0.058   6.417   0.254 -0.6844 -1.5822 -0.1299
 5097TIP3   OH236849   2.438   6.182   2.317  0.2594  0.0047  0.1473
 5097TIP3    H136850   2.435   6.262   2.263 -1.1099  0.6889  1.1754
 5097TIP3    H236851   2.529   6.178   2.348  1.2223 -0.6306 -2.4437
 5098TIP3   OH236852   4.539   6.818   0.217 -0.1385 -0.3305  0.3581
 5098TIP3    H136853   4.509   6.904   0.187  2.3817  1.5100  2.5683
 5098TIP3    H236854   4.621   6.803   0.169  0.9900  0.0014  2.0802
 5099TIP3   OH236855   6.174   4.209   0.187 -0.2448  0.4957  0.3999
 5099TIP3    H136856   6.128   4.190   0.269  0.1195 -0.4613  0.4000
 5099TIP3    H236857   6.262   4.237   0.215  0.0056 -0.2025  0.3420
 5100TIP3   OH236858   0.058   4.440   0.764  0.2070 -0.2727  0.4965
 5100TIP3    H136859  -0.031   4.474   0.772 -0.5436 -1.2804 -2.3711
 5100TIP3    H236860   0.115   4.514   0.785 -1.2866  0.7035  1.2500
 5101TIP3   OH236861   2.262   1.006   1.575  0.7466  0.2262  0.0670
 5101TIP3    H136862   2.208   1.070   1.620 -0.1818  0.1985 -0.9697
 5101TIP3    H236863   2.241   1.017   1.482  0.0942 -1.9789 -0.1113
 5102TIP3   OH236864   6.139   0.702   3.169  0.2877 -0.6669  0.3196
 5102TIP3    H136865   6.140   0.692   3.074 -0.3950  0.4193  0.1791
 5102TIP3    H236866   6.097   0.622   3.201 -0.1549 -0.7053 -0.3400
 5103TIP3   OH236867   3.277   6.690   2.030  0.3887 -0.6491 -0.5784
 5103TIP3    H136868   3.274   6.785   2.034  0.5659 -0.5999 -1.4492
 5103TIP3    H236869   3.324   6.670   1.949  1.0823 -1.4800  0.0106
 5104TIP3   OH236870   6.647   3.421   3.226 -0.2629 -0.0017 -0.0631
 5104TIP3    H136871   6.697   3.437   3.305  1.1110  1.1030 -1.1091
 5104TIP3    H236872   6.556   3.422   3.254  0.2317 -2.7638  2.0283
 5105TIP3   OH236873   2.042   6.849   4.456 -0.6469 -0.4001  0.1004
 5105TIP3    H136874   2.121   6.893   4.425 -0.5008 -0.8843 -0.2263
 5105TIP3    H236875   2.072   6.761   4.480 -0.7385 -0.0368  1.6602
 5106TIP3   OH236876   4.309   3.794   1.881  0.2843  0.1908  0.6437
 5106TIP3    H136877   4.254   3.724   1.916 -0.2682  0.0895 -0.3901
 5106TIP3    H236878   4.247   3.860   1.851  0.7030 -0.0122 -0.7177
 5107TIP3   OH236879   2.321   1.383   1.494  1.0078 -0.4583 -1.1863
 5107TIP3    H136880   2.243   1.399   1.441  1.0344  1.3451 -0.7381
 5107TIP3    H236881   2.287   1.344   1.575  0.4285  1.2030 -0.5955
 5108TIP3   OH236882   1.611   3.927   1.651 -0.0499  0.0326 -0.3861
 5108TIP3    H136883   1.547   3.894   1.714 -0.1383  1.9235  0.5949
 5108TIP3    H236884   1.562   3.992   1.600  0.8978  0.9651 -0.1161
 5109TIP3   OH236885   0.031   3.494   3.359  0.6946 -0.1607  0.0333
 5109TIP3    H136886   0.072   3.517   3.275  0.5058 -0.3511 -0.1131
 5109TIP3    H236887  -0.026   3.420   3.338  0.0103  0.3180  0.1637
 5110TIP3   OH236888   5.450   1.191   4.519 -0.4776  0.5528 -0.1344
 5110TIP3    H136889   5.360   1.222   4.522 -0.6883  0.1306 -1.4663
 5110TIP3    H236890   5.442   1.096   4.504  0.1803  0.3124  0.9224
 5111TIP3   OH236891   6.927   0.131   2.431 -0.1552  0.2614  0.7515
 5111TIP3    H136892   6.864   0.159   2.364 -1.6535  0.0360  2.0214
 5111TIP3    H236893   6.911   0.190   2.505  1.7602  0.7824  0.8021
 5112TIP3   OH236894   3.831   4.292   0.981  0.0453 -0.4317 -0.0501
 5112TIP3    H136895   3.748   4.294   1.028 -0.6741 -2.1237 -1.1189
 5112TIP3    H236896   3.896   4.316   1.046 -1.1764 -0.0532  1.0825
 5113TIP3   OH236897   0.109   2.039   2.847 -0.0529 -1.0851  0.4979
 5113TIP3    H136898   0.058   1.958   2.840  0.1653 -1.1534 -0.3946
 5113TIP3    H236899   0.172   2.035   2.775 -1.6221  0.9814 -1.1166
 5114TIP3   OH236900   5.111   1.796   1.889  0.0278 -0.2083  0.0238
 5114TIP3    H136901   5.061   1.733   1.837  2.5195 -2.5421  0.2533
 5114TIP3    H236902   5.105   1.764   1.979  1.3162 -0.1673  0.1486
 5115TIP3   OH236903   0.331   5.876   2.128  0.0024  0.1245  0.3136
 5115TIP3    H136904   0.414   5.829   2.121  1.8383  3.2191 -0.9055
 5115TIP3    H236905   0.341   5.931   2.205 -0.8054  0.6861  0.0342
 5116TIP3   OH236906   2.935   5.049   1.057 -0.7263  0.0639  0.4481
 5116TIP3    H136907   2.985   4.986   1.109 -0.2284 -1.1061 -1.3484
 5116TIP3    H236908   2.972   5.134   1.079  0.2721 -0.5301  1.1098
 5117TIP3   OH236909   6.650   1.320   3.477 -0.2589  0.7045  0.0428
 5117TIP3    H136910   6.605   1.370   3.545 -0.0450  2.7564 -1.2147
 5117TIP3    H236911   6.614   1.232   3.484 -1.1985  1.1825  1.9235
 5118TIP3   OH236912   5.462   1.234   2.971  1.0077 -0.5552 -0.0102
 5118TIP3    H136913   5.476   1.275   3.057 -2.3824  0.6243  0.1458
 5118TIP3    H236914   5.389   1.283   2.934  1.7392 -1.6853 -3.2016
 5119TIP3   OH236915   5.796   4.924   2.589 -0.1681  0.3497 -0.5523
 5119TIP3    H136916   5.812   4.964   2.675 -1.6865  0.7651 -0.4398
 5119TIP3    H236917   5.805   4.997   2.527  1.4655 -0.0568 -0.8257
 5120TIP3   OH236918   2.573   5.257   1.181  0.1892 -0.6516  0.5152
 5120TIP3    H136919   2.585   5.301   1.265  0.8770 -0.7670  0.4749
 5120TIP3    H236920   2.619   5.312   1.118 -0.9757 -0.1413  0.0773
 5121TIP3   OH236921   3.086   5.897   3.766 -0.1623 -0.2643 -0.0029
 5121TIP3    H136922   3.049   5.815   3.799  0.7874 -0.2164  1.2558
 5121TIP3    H236923   3.044   5.965   3.820 -0.3827  0.0225 -0.5291
 5122TIP3   OH236924   0.338   2.150   1.321  0.1261 -0.3432  0.3562
 5122TIP3    H136925   0.336   2.066   1.367  1.1373 -0.3635  0.3683
 5122TIP3    H236926   0.330   2.216   1.390  1.0354 -0.3886  0.5083
 5123TIP3   OH236927   0.572   2.791   2.468 -0.0832 -0.4483  0.4292
 5123TIP3    H136928   0.501   2.855   2.473  0.6957  0.3661  1.5307
 5123TIP3    H236929   0.538   2.714   2.514 -0.5176 -0.3208  0.3262
 5124TIP3   OH236930   2.710   6.336   8.366  0.1455 -0.1239  0.0253
 5124TIP3    H136931   2.770   6.376   8.304  0.7979  0.5274  1.0534
 5124TIP3    H236932   2.628   6.384   8.354  0.6743  0.9565  0.6441
 5125TIP3   OH236933   2.934   4.607   3.828  0.0634  0.1001 -0.4865
 5125TIP3    H136934   2.897   4.535   3.776  0.9600 -0.5602 -0.2397
 5125TIP3    H236935   3.018   4.573   3.860 -0.2898  0.5991  1.0982
 5126TIP3   OH236936   0.115   0.915   3.216  0.5032  0.0321  0.0386
 5126TIP3    H136937   0.052   0.986   3.202 -0.8607 -1.0404  0.4757
 5126TIP3    H236938   0.165   0.911   3.135 -0.7836  0.1805 -0.8050
 5127TIP3   OH236939   5.735   6.856   2.582  0.3237 -0.3663  0.1062
 5127TIP3    H136940   5.823   6.825   2.602  0.2731 -0.7467 -0.2240
 5127TIP3    H236941   5.681   6.825   2.654  0.0430 -2.1940 -0.8306
 5128TIP3   OH236942   4.753   5.907   2.321 -0.1686 -0.3774  0.1679
 5128TIP3    H136943   4.764   5.977   2.256  2.2537 -1.8879 -1.2594
 5128TIP3    H236944   4.828   5.918   2.380  1.5774 -2.8571 -1.3675
 5129TIP3   OH236945   3.767   3.958   4.824 -0.5133 -0.4029 -0.2846
 5129TIP3    H136946   3.858   3.945   4.798 -0.7642 -0.1990 -1.2784
 5129TIP3    H236947   3.768   4.038   4.877 -0.4952  1.2058 -2.5673
 5130TIP3   OH236948   5.871   0.168   2.459 -0.2714  0.3999 -0.1599
 5130TIP3    H136949   5.803   0.101   2.462  0.3948 -0.2823  2.8140
 5130TIP3    H236950   5.842   0.229   2.391 -4.2897  0.6046  1.4891
 5131TIP3   OH236951   5.987   2.569   1.279  0.4056  0.3840  0.2696
 5131TIP3    H136952   5.911   2.583   1.334  1.3591  0.9437  1.4876
 5131TIP3    H236953   5.967   2.489   1.230 -1.1395  0.7889  0.2024
 5132TIP3   OH236954   0.645   3.984   2.522  0.4766 -0.7685  0.3167
 5132TIP3    H136955   0.690   3.962   2.441 -0.2431 -1.2565  0.0464
 5132TIP3    H236956   0.567   3.929   2.523 -0.0767 -0.0008  0.8237
 5133TIP3   OH236957   5.514   5.519   2.242 -0.0068  0.3588  0.7244
 5133TIP3    H136958   5.484   5.503   2.153 -0.0415  0.1339  0.7767
 5133TIP3    H236959   5.608   5.534   2.233  0.2698 -1.1654  0.8185
 5134TIP3   OH236960   6.915   3.417   3.632  0.0694 -0.2178 -0.1914
 5134TIP3    H136961   6.999   3.431   3.588  0.9371  0.6289  1.6430
 5134TIP3    H236962   6.920   3.470   3.712 -2.3130  0.0310 -0.1383
 5135TIP3   OH236963   0.593   2.998   1.600  0.4864  0.4116  0.1850
 5135TIP3    H136964   0.654   3.064   1.568  0.6024  0.3019  0.1806
 5135TIP3    H236965   0.506   3.034   1.578  0.5361  0.7169  0.4832
 5136TIP3   OH236966   4.950   5.044   8.323  0.0203  0.4501  0.4705
 5136TIP3    H136967   5.006   4.969   8.345 -0.7356 -0.2376  0.0936
 5136TIP3    H236968   4.984   5.115   8.377  0.4288 -0.2913  1.2213
 5137TIP3   OH236969   4.973   2.046   3.078  0.7822  0.2020  0.3802
 5137TIP3    H136970   4.897   2.092   3.114 -0.0025  0.1539 -1.1226
 5137TIP3    H236971   4.944   2.015   2.992  1.6212 -2.1929  0.8915
 5138TIP3   OH236972   3.946   5.194   0.113  0.0366  0.0982 -0.3839
 5138TIP3    H136973   3.962   5.116   0.166 -0.2977 -1.6754 -2.7240
 5138TIP3    H236974   4.008   5.258   0.147  0.4394 -1.2047  1.5401
 5139TIP3   OH236975   3.983   3.788   1.089 -0.2448  0.2747 -0.2470
 5139TIP3    H136976   3.922   3.715   1.082  0.9330 -0.7627 -0.0563
 5139TIP3    H236977   4.047   3.773   1.019 -0.2717  1.4160 -0.5370
 5140TIP3   OH236978   5.828   5.359   2.896  0.0656  0.1241  0.3402
 5140TIP3    H136979   5.811   5.427   2.830  1.0696  1.5179  1.4570
 5140TIP3    H236980   5.751   5.302   2.892 -0.0952  0.4000 -1.7169
 5141TIP3   OH236981   0.037   1.899   0.670  0.0482 -0.4066 -0.2307
 5141TIP3    H136982   0.099   1.971   0.657 -1.6604  1.2257  0.2046
 5141TIP3    H236983  -0.006   1.889   0.585 -0.4450 -0.1825 -0.0116
 5142TIP3   OH236984   3.369   3.620   1.117  0.1582 -0.3149 -0.7127
 5142TIP3    H136985   3.406   3.582   1.196  0.7303  0.7951 -0.4296
 5142TIP3    H236986   3.291   3.666   1.147 -0.8087 -1.6029 -1.1271
 5143TIP3   OH236987   5.506   0.736   3.931 -0.6646  0.5230  0.0076
 5143TIP3    H136988   5.536   0.749   3.841  3.0747 -1.8302  0.6677
 5143TIP3    H236989   5.562   0.793   3.984 -1.3848  0.3539  1.0001
 5144TIP3   OH236990   4.657   3.002   0.699 -0.1872 -0.5222  0.4007
 5144TIP3    H136991   4.706   3.067   0.649 -1.6225  0.2245 -0.1012
 5144TIP3    H236992   4.717   2.929   0.710  1.3059  0.6848  0.5454
 5145TIP3   OH236993   6.777   4.570   4.348 -0.2253  0.2121 -0.7730
 5145TIP3    H136994   6.718   4.592   4.420  0.5985 -1.9224  0.6667
 5145TIP3    H236995   6.864   4.575   4.387  0.1701 -2.4066 -1.1131
 5146TIP3   OH236996   5.804   3.613   1.512 -0.1571 -0.1372 -0.5135
 5146TIP3    H136997   5.804   3.706   1.536  2.5937 -0.4627  1.2353
 5146TIP3    H236998   5.752   3.571   1.581  0.5626 -0.1113  0.0631
 5147TIP3   OH236999   1.216   5.684   4.130  0.7239 -0.0155 -0.4361
 5147TIP3    H137000   1.271   5.623   4.080  2.3889  1.3757 -0.3704
 5147TIP3    H237001   1.267   5.704   4.208 -0.1113  0.9271 -0.1123
 5148TIP3   OH237002   0.178   5.106   2.900  0.1915 -0.7367  0.1137
 5148TIP3    H137003   0.241   5.094   2.971  0.9420 -0.3568 -0.4790
 5148TIP3    H237004   0.207   5.185   2.855  0.0938 -1.3220 -1.0069
 5149TIP3   OH237005   1.004   4.619   1.813 -1.0470  0.8003  0.9211
 5149TIP3    H137006   1.061   4.547   1.841 -0.8649  0.3570 -0.4843
 5149TIP3    H237007   0.934   4.621   1.878 -1.1019 -0.7250  0.9465
 5150TIP3   OH237008   3.629   6.548   2.399 -0.2225 -0.2643 -0.0980
 5150TIP3    H137009   3.702   6.608   2.388  0.4294 -1.1295 -0.6330
 5150TIP3    H237010   3.551   6.602   2.386  0.3484  0.3913 -0.9082
 5151TIP3   OH237011   0.914   6.252   2.891  0.1913  0.2801 -0.0309
 5151TIP3    H137012   0.906   6.236   2.985  0.7752  1.6410  0.2731
 5151TIP3    H237013   0.987   6.197   2.863 -0.4463 -0.6907  0.1474
 5152TIP3   OH237014   5.764   5.975   4.507 -0.2746  0.5971  0.0256
 5152TIP3    H137015   5.680   6.004   4.471 -0.1899  0.2109 -0.4852
 5152TIP3    H237016   5.770   6.020   4.592 -1.8995 -0.8076  0.9608
 5153TIP3   OH237017   0.311   6.125   0.447 -0.1548 -0.1407 -0.1516
 5153TIP3    H137018   0.398   6.137   0.484 -0.6418  0.2850  0.8792
 5153TIP3    H237019   0.280   6.214   0.429 -1.1506 -0.1472  1.3503
 5154TIP3   OH237020   2.244   4.732   0.363 -0.1706 -0.3299  0.5218
 5154TIP3    H137021   2.223   4.649   0.320 -0.2896  0.5584 -1.2047
 5154TIP3    H237022   2.173   4.791   0.339  0.4269  0.5715  0.8937
 5155TIP3   OH237023   1.644   3.732   1.471 -0.0821 -0.4771 -0.2581
 5155TIP3    H137024   1.625   3.642   1.497  0.7835 -0.3335  0.9395
 5155TIP3    H237025   1.626   3.784   1.549 -1.2050  0.4990 -1.1289
 5156TIP3   OH237026   2.384   3.875   3.693  0.0433 -0.5269  0.1578
 5156TIP3    H137027   2.443   3.817   3.645 -1.4602 -1.6145 -0.4845
 5156TIP3    H237028   2.408   3.864   3.785  2.9799  1.5891 -0.2385
 5157TIP3   OH237029   4.025   6.025   1.886  0.7165  0.5011 -0.5263
 5157TIP3    H137030   3.937   6.020   1.921  0.6703  1.8472 -0.3967
 5157TIP3    H237031   4.038   5.942   1.840  0.4757 -0.9801  1.9111
 5158TIP3   OH237032   1.943   0.568   0.203 -0.3902  0.4362  0.2580
 5158TIP3    H137033   2.007   0.516   0.251 -0.7075 -0.6013 -0.3896
 5158TIP3    H237034   1.870   0.507   0.187 -0.7236  1.0467 -0.6323
 5159TIP3   OH237035   5.192   4.956   0.094 -0.4910 -0.2931  0.0705
 5159TIP3    H137036   5.212   4.871   0.133  2.8135  0.5329  0.4871
 5159TIP3    H237037   5.180   4.937   0.001 -0.2165 -1.2693  0.2216
 5160TIP3   OH237038   6.933   4.610   1.108  0.2793  0.1139 -0.4620
 5160TIP3    H137039   6.936   4.607   1.203  1.6270 -1.8323 -0.5154
 5160TIP3    H237040   6.868   4.544   1.084  1.1602 -0.5947 -0.9230
 5161TIP3   OH237041   5.743   1.045   1.198 -0.1689  0.5582  0.2463
 5161TIP3    H137042   5.734   0.973   1.261  0.1039 -1.3176 -1.7406
 5161TIP3    H237043   5.681   1.111   1.228 -1.5666 -1.1556  1.3045
 5162TIP3   OH237044   0.776   0.362   1.575 -0.1707 -0.1116 -0.3087
 5162TIP3    H137045   0.752   0.359   1.667 -1.3924 -0.7040 -0.6146
 5162TIP3    H237046   0.838   0.434   1.568 -1.7447  1.4151  0.6198
 5163TIP3   OH237047   1.966   2.386   1.646  0.0652  0.0716  0.1660
 5163TIP3    H137048   1.908   2.454   1.682  2.3624  2.2873 -0.0506
 5163TIP3    H237049   1.931   2.368   1.559  0.0884  1.9457 -0.2734
 5164TIP3   OH237050   3.995   2.092   2.927  0.0806 -0.1715 -0.1945
 5164TIP3    H137051   4.008   2.176   2.883  0.4310  0.1073  0.4251
 5164TIP3    H237052   3.950   2.115   3.009  2.2053 -0.3033  1.0664
 5165TIP3   OH237053   2.321   3.450   4.683  0.2282 -0.1196  0.0009
 5165TIP3    H137054   2.318   3.465   4.777 -0.5991 -0.7402  0.0784
 5165TIP3    H237055   2.411   3.421   4.666  0.1484 -0.8026  0.7205
 5166TIP3   OH237056   1.445   0.271   0.810  0.3497  0.1392  0.0352
 5166TIP3    H137057   1.495   0.315   0.741  1.4754 -1.5553 -0.2883
 5166TIP3    H237058   1.366   0.325   0.820  0.7623  1.1509 -1.6525
 5167TIP3   OH237059   0.499   4.846   3.507  0.0837 -0.0610  0.0208
 5167TIP3    H137060   0.450   4.929   3.508 -0.9680 -0.5699 -2.4420
 5167TIP3    H237061   0.590   4.872   3.495 -0.1218  0.7768  0.2086
 5168TIP3   OH237062   2.139   3.005   0.280  0.3541 -0.2461  0.2624
 5168TIP3    H137063   2.183   2.928   0.243  0.1438 -1.6765  2.7395
 5168TIP3    H237064   2.055   3.009   0.234  1.1920 -0.2505 -1.3163
 5169TIP3   OH237065   1.826   0.839   0.459 -0.1925 -0.5578  0.3526
 5169TIP3    H137066   1.857   0.831   0.549 -0.8380  0.5948  0.7023
 5169TIP3    H237067   1.735   0.808   0.462  0.1774 -1.7304 -0.1806
 5170TIP3   OH237068   0.430   5.584   1.694 -0.2936  0.4734 -0.2693
 5170TIP3    H137069   0.492   5.513   1.713 -0.9358  0.0475  0.2955
 5170TIP3    H237070   0.344   5.546   1.713 -0.6463  1.4084  0.0639
 5171TIP3   OH237071   2.967   2.224   1.406 -0.1781  0.0715 -0.4490
 5171TIP3    H137072   2.957   2.157   1.474 -2.0616 -0.3171 -1.0571
 5171TIP3    H237073   2.916   2.191   1.332  0.4914  1.2607 -1.4809
 5172TIP3   OH237074   3.449   5.290   2.132 -0.1806  0.0438  0.8519
 5172TIP3    H137075   3.479   5.348   2.062 -1.8464 -1.3484 -1.1590
 5172TIP3    H237076   3.358   5.316   2.147 -1.0558 -2.1020 -0.3024
 5173TIP3   OH237077   0.732   6.107   3.879  0.5931  0.1468 -0.0120
 5173TIP3    H137078   0.773   6.193   3.865  1.3148 -0.3315 -0.9699
 5173TIP3    H237079   0.639   6.122   3.864  0.8979  0.4439 -1.8784
 5174TIP3   OH237080   5.978   4.729   0.907  0.1045 -0.1678  0.4979
 5174TIP3    H137081   5.887   4.720   0.933 -0.3102  0.8554 -0.5147
 5174TIP3    H237082   5.993   4.657   0.846 -1.1116  1.6331 -2.0840
 5175TIP3   OH237083   3.015   6.627   3.350 -0.2884 -0.2381  0.3956
 5175TIP3    H137084   3.087   6.629   3.412 -1.8749 -0.6877  2.3542
 5175TIP3    H237085   3.043   6.683   3.278  1.9553 -0.3462  1.1244
 5176TIP3   OH237086   4.759   3.693   1.286  0.5676  0.5701  0.4141
 5176TIP3    H137087   4.707   3.717   1.210  1.2236 -0.6863 -0.4622
 5176TIP3    H237088   4.850   3.708   1.260  1.0882 -2.9378 -0.3559
 5177TIP3   OH237089   2.454   1.640   1.457 -0.1957 -0.5484  0.6883
 5177TIP3    H137090   2.456   1.608   1.366  1.7451 -3.6797  1.6895
 5177TIP3    H237091   2.414   1.569   1.506 -1.4634  1.2083  2.3269
 5178TIP3   OH237092   3.663   2.936   2.576  0.2266 -0.3789  0.0849
 5178TIP3    H137093   3.637   3.028   2.578 -1.8734 -0.8447 -1.7083
 5178TIP3    H237094   3.677   2.917   2.483  0.2208 -1.9510  0.3775
 5179TIP3   OH237095   0.109   4.599   3.319  0.1102  0.1097  0.1793
 5179TIP3    H137096   0.167   4.537   3.276  1.9839 -0.3435  3.0871
 5179TIP3    H237097   0.110   4.676   3.262  1.7888 -0.6886 -0.9497
 5180TIP3   OH237098   3.183   3.233   3.453  0.0950  0.1729 -0.1763
 5180TIP3    H137099   3.122   3.306   3.466 -1.3493 -0.9100 -0.6189
 5180TIP3    H237100   3.212   3.211   3.542  0.8752  1.5372 -0.0731
 5181TIP3   OH237101   2.848   0.391   0.829 -0.7317  0.1554 -0.5197
 5181TIP3    H137102   2.841   0.301   0.797  3.6915 -1.1718  1.5288
 5181TIP3    H237103   2.818   0.388   0.919  0.5506  0.3767 -0.0582
 5182TIP3   OH237104   0.033   3.625   0.588 -0.0560  0.0790 -0.0469
 5182TIP3    H137105   0.120   3.612   0.549 -0.0429  1.6368 -0.5802
 5182TIP3    H237106  -0.014   3.544   0.568  0.7441 -0.1395 -1.1494
 5183TIP3   OH237107   6.910   5.286   2.662  0.2464 -0.6557 -0.2066
 5183TIP3    H137108   6.829   5.335   2.653  0.0112 -0.8652  0.6291
 5183TIP3    H237109   6.954   5.326   2.737 -0.2541 -2.0913  0.9044
 5184TIP3   OH237110   1.826   1.543   3.160  0.5267 -0.5198 -0.2329
 5184TIP3    H137111   1.801   1.597   3.235  0.5478 -1.7109  0.6432
 5184TIP3    H237112   1.800   1.595   3.084 -2.2567 -0.5748  0.5963
 5185TIP3   OH237113   3.557   3.197   2.647  0.2441 -0.6235 -0.2991
 5185TIP3    H137114   3.534   3.248   2.724  0.3870 -0.5430 -0.3094
 5185TIP3    H237115   3.508   3.238   2.575  1.0441  0.0568 -0.4692
 5186TIP3   OH237116   0.912   4.999   3.621  0.5568  0.0292  0.1262
 5186TIP3    H137117   0.933   4.946   3.698  1.6237  0.2544  0.0001
 5186TIP3    H237118   0.921   5.089   3.651 -1.2284  0.1787  0.3358
 5187TIP3   OH237119   6.388   2.769   4.496 -0.7743  0.0228  0.1649
 5187TIP3    H137120   6.455   2.835   4.478 -1.3818  0.2201 -1.5101
 5187TIP3    H237121   6.309   2.820   4.513 -0.4645 -0.1837  2.6982
 5188TIP3   OH237122   6.893   1.466   1.091  0.2586 -0.4347  0.3887
 5188TIP3    H137123   6.840   1.516   1.029 -0.2672 -1.9558 -0.4516
 5188TIP3    H237124   6.832   1.436   1.158  0.5499 -0.0509  0.8348
 5189TIP3   OH237125   6.607   3.240   1.225  0.5711 -0.4971 -0.1034
 5189TIP3    H137126   6.611   3.149   1.254  1.0712 -1.0853 -1.8676
 5189TIP3    H237127   6.622   3.291   1.304  1.0379 -1.9677  0.7986
 5190TIP3   OH237128   0.693   4.646   1.495  0.2665 -0.4360 -0.1103
 5190TIP3    H137129   0.642   4.594   1.557 -0.6113 -0.9127 -1.1902
 5190TIP3    H237130   0.773   4.670   1.542 -0.1006 -1.3049  0.9759
 5191TIP3   OH237131   1.442   3.478   3.838  0.6454  0.6254 -0.0270
 5191TIP3    H137132   1.379   3.533   3.791  1.5555 -0.2305 -2.3655
 5191TIP3    H237133   1.494   3.541   3.888 -1.4259  1.4192  1.2876
 5192TIP3   OH237134   5.662   4.719   3.312  0.4724 -0.6932 -0.0183
 5192TIP3    H137135   5.630   4.629   3.319  0.8602 -0.8410 -0.1328
 5192TIP3    H237136   5.664   4.750   3.403 -0.9972 -0.3244 -0.0874
 5193TIP3   OH237137   4.121   3.365   2.182  0.0438  0.0291  0.3116
 5193TIP3    H137138   4.094   3.408   2.263  0.0985  1.0570 -0.2018
 5193TIP3    H237139   4.216   3.357   2.189  0.0065 -0.2640  0.5201
 5194TIP3   OH237140   1.115   1.373   0.081 -0.3540 -0.2140 -0.0890
 5194TIP3    H137141   1.019   1.369   0.076 -0.3781 -1.2048  0.9002
 5194TIP3    H237142   1.133   1.453   0.131 -0.6428  0.0492 -0.3943
 5195TIP3   OH237143   1.726   4.953   1.005 -0.1388  0.1909  0.3211
 5195TIP3    H137144   1.720   4.955   0.910 -1.0128  1.0455  0.3812
 5195TIP3    H237145   1.668   4.882   1.031 -2.4169  1.9607  0.3518
 5196TIP3   OH237146   2.366   1.235   2.729  0.1513  0.2689 -0.5511
 5196TIP3    H137147   2.344   1.262   2.818 -0.2927  0.0864 -0.6013
 5196TIP3    H237148   2.287   1.255   2.678  0.9935  1.9920 -1.2620
 5197TIP3   OH237149   0.342   2.747   1.414  0.4026  0.1254 -0.0412
 5197TIP3    H137150   0.302   2.714   1.334  1.9692  0.5302 -1.0273
 5197TIP3    H237151   0.283   2.719   1.484  0.0684 -2.0491 -1.1198
 5198TIP3   OH237152   0.685   3.577   0.807 -0.1765  0.2003 -0.3368
 5198TIP3    H137153   0.776   3.569   0.836  0.8547 -1.2812 -3.5038
 5198TIP3    H237154   0.689   3.633   0.729 -1.8310 -0.5025 -0.9824
 5199TIP3   OH237155   0.450   5.074   0.585 -0.2255  0.4746 -0.0459
 5199TIP3    H137156   0.430   5.139   0.518  2.3666  1.3232 -0.1191
 5199TIP3    H237157   0.451   4.990   0.539  0.6392  0.9406 -0.9088
 5200TIP3   OH237158   1.263   0.732   3.950 -0.0381 -0.0359 -0.1142
 5200TIP3    H137159   1.189   0.790   3.931  0.5443  0.8922  0.3877
 5200TIP3    H237160   1.252   0.658   3.890 -0.6461  0.7191 -0.9507
 5201TIP3   OH237161   1.316   5.612   1.020 -0.4787  0.2692 -0.3274
 5201TIP3    H137162   1.284   5.606   0.930 -0.2491 -0.5811 -0.3656
 5201TIP3    H237163   1.275   5.690   1.055  0.9697  1.7591 -1.7901
 5202TIP3   OH237164   5.436   2.330   1.657 -0.2590 -0.4347  0.4088
 5202TIP3    H137165   5.411   2.240   1.637  1.4068 -0.9421  0.4450
 5202TIP3    H237166   5.395   2.349   1.742 -1.6743 -0.6791 -0.1935
 5203TIP3   OH237167   4.757   3.712   1.763  0.3342  0.2321 -0.1889
 5203TIP3    H137168   4.789   3.759   1.840  0.8361 -2.7045  1.5541
 5203TIP3    H237169   4.677   3.758   1.738  1.4406  2.7139  0.5419
 5204TIP3   OH237170   1.623   3.637   1.774 -0.2503  0.0901 -0.6159
 5204TIP3    H137171   1.555   3.701   1.796  0.5620  0.3867  1.1685
 5204TIP3    H237172   1.617   3.571   1.843 -0.8437 -1.6431 -2.2328
 5205TIP3   OH237173   6.733   1.668   3.500 -0.7731  0.6403 -0.2497
 5205TIP3    H137174   6.725   1.625   3.415 -3.3394 -0.0383  0.2390
 5205TIP3    H237175   6.819   1.642   3.533 -1.1493 -1.9823 -1.1308
 5206TIP3   OH237176   6.421   2.250   2.115 -0.1815 -0.1189  0.2283
 5206TIP3    H137177   6.381   2.295   2.189 -2.1496  0.3020 -1.0065
 5206TIP3    H237178   6.476   2.316   2.074 -0.8611  0.3569  0.0507
 5207TIP3   OH237179   1.044   2.693   0.460 -0.0801  0.5553  0.4380
 5207TIP3    H137180   0.964   2.695   0.512  0.6151  0.1990  1.5885
 5207TIP3    H237181   1.060   2.784   0.437  0.0332  0.8598  1.6109
 5208TIP3   OH237182   6.012   0.003   0.102 -0.1472  0.3425  0.2013
 5208TIP3    H137183   5.954  -0.056   0.150  0.5869  1.9597  3.3541
 5208TIP3    H237184   6.083   0.022   0.164  2.7037  0.0982 -2.7219
 5209TIP3   OH237185   5.845   5.497   3.209 -0.2073 -0.3326  0.5908
 5209TIP3    H137186   5.765   5.486   3.261  0.0370 -0.9133  0.8494
 5209TIP3    H237187   5.916   5.496   3.274 -0.1036  2.3833  0.6188
 5210TIP3   OH237188   4.205   5.777   3.174 -0.7097 -0.5722 -0.0767
 5210TIP3    H137189   4.200   5.873   3.179  0.3955 -0.5196  0.2839
 5210TIP3    H237190   4.176   5.757   3.085 -0.5646  0.1357 -0.2976
 5211TIP3   OH237191   5.800   1.609   2.187 -0.6141  0.6798  0.1929
 5211TIP3    H137192   5.789   1.538   2.250  1.9087  0.2638  0.2650
 5211TIP3    H237193   5.751   1.582   2.110 -2.1758  0.3106  1.2788
 5212TIP3   OH237194   4.049   4.965   3.716  0.6829  0.0492  0.3953
 5212TIP3    H137195   4.142   4.944   3.721  0.5772 -0.3833  0.6212
 5212TIP3    H237196   4.046   5.060   3.711  1.1517  0.0449 -0.0114
 5213TIP3   OH237197   3.489   3.621   3.112 -0.1444 -0.0838  0.5688
 5213TIP3    H137198   3.454   3.569   3.184 -2.2484 -0.8152 -0.8753
 5213TIP3    H237199   3.441   3.591   3.035  0.0355  2.5448 -0.6934
 5214TIP3   OH237200   1.767   2.335   3.667 -0.0629 -0.0029 -0.3717
 5214TIP3    H137201   1.725   2.284   3.736 -0.6800  0.3305 -0.5008
 5214TIP3    H237202   1.818   2.270   3.618 -1.0740 -0.5594 -0.7153
 5215TIP3   OH237203   6.879   5.216   4.386  0.3117 -0.4316 -0.6772
 5215TIP3    H137204   6.904   5.172   4.304 -1.4601  1.0034 -2.0909
 5215TIP3    H237205   6.860   5.306   4.360  1.4139  0.5677  1.6779
 5216TIP3   OH237206   2.017   3.205   1.445  0.1352  0.6987  0.5058
 5216TIP3    H137207   2.031   3.260   1.522  1.3662  1.3442 -0.1512
 5216TIP3    H237208   2.006   3.267   1.373 -2.7414  0.1591  0.3580
 5217TIP3   OH237209   2.292   5.718   1.818 -0.5750 -0.7060  0.3349
 5217TIP3    H137210   2.350   5.691   1.889  0.4245 -1.4037 -0.6993
 5217TIP3    H237211   2.205   5.692   1.846 -0.1818 -1.0559  1.2590
 5218TIP3   OH237212   3.059   6.742   3.939  0.2037  0.3212 -0.1006
 5218TIP3    H137213   2.970   6.777   3.929 -0.3345 -1.0645 -0.3913
 5218TIP3    H237214   3.071   6.735   4.034  0.2339  1.0409 -0.0424
 5219TIP3   OH237215   2.728   3.947   1.205 -0.4919  0.8681 -0.1572
 5219TIP3    H137216   2.705   3.985   1.290 -0.0195 -0.7299  0.7245
 5219TIP3    H237217   2.777   4.016   1.161 -0.0256  1.4494  1.2103
 5220TIP3   OH237218   5.971   3.194   2.569  0.2446 -0.6398  0.2799
 5220TIP3    H137219   6.025   3.240   2.633 -0.2243 -1.6485  1.4603
 5220TIP3    H237220   5.891   3.172   2.617 -0.0616 -1.5553 -0.6074
 5221TIP3   OH237221   1.662   4.079   3.768 -0.4973  0.5434  0.1633
 5221TIP3    H137222   1.636   4.122   3.687  1.1571 -0.3194 -0.8837
 5221TIP3    H237223   1.582   4.036   3.799 -0.8039 -0.6688 -2.0497
 5222TIP3   OH237224   5.170   4.550   0.236  0.4614  0.6655 -0.0554
 5222TIP3    H137225   5.228   4.625   0.231 -0.2334  1.1990 -0.1966
 5222TIP3    H237226   5.194   4.496   0.161  0.8954  0.7878 -0.0067
 5223TIP3   OH237227   2.248   0.302   1.059  0.4440 -0.7373 -0.2932
 5223TIP3    H137228   2.182   0.236   1.081  0.4100 -1.1279 -1.4948
 5223TIP3    H237229   2.286   0.272   0.976  0.9421  0.3711 -0.4915
 5224TIP3   OH237230   5.678   0.111   0.460 -0.2616 -0.3368  0.6110
 5224TIP3    H137231   5.650   0.123   0.551  2.3539 -2.0504  1.7676
 5224TIP3    H237232   5.688   0.017   0.450  2.8740 -0.0179 -0.2667
 5225TIP3   OH237233   0.550   4.028   2.844 -0.1623 -0.2264  0.2006
 5225TIP3    H137234   0.619   4.079   2.886 -0.0358 -0.4816  0.3104
 5225TIP3    H237235   0.596   3.979   2.775 -0.6713  1.5943 -1.4951
 5226TIP3   OH237236   5.706   5.677   3.568 -0.0735 -0.5750  0.1284
 5226TIP3    H137237   5.786   5.706   3.524  0.9938 -0.8495  1.8029
 5226TIP3    H237238   5.664   5.618   3.505  0.9003 -0.2380 -0.8787
 5227TIP3   OH237239   0.001   0.362   0.249 -0.0557 -0.3706 -0.4435
 5227TIP3    H137240  -0.090   0.373   0.275 -0.2819 -1.6438 -0.6432
 5227TIP3    H237241  -0.003   0.336   0.157  0.5854  0.8925 -0.8582
 5228TIP3   OH237242   5.073   0.806   4.130 -0.3190 -0.5750 -0.0016
 5228TIP3    H137243   5.004   0.758   4.084  0.1809 -0.2151 -1.1614
 5228TIP3    H237244   5.112   0.742   4.189 -0.8779 -1.0828 -0.1705
 5229TIP3   OH237245   2.209   0.769   1.130 -0.0584 -0.0674 -0.2808
 5229TIP3    H137246   2.241   0.784   1.041  1.3130  1.2793  0.3842
 5229TIP3    H237247   2.251   0.687   1.157  2.3351  1.2532  0.2804
 5230TIP3   OH237248   6.039   5.724   2.342  0.8960  0.7089 -0.5128
 5230TIP3    H137249   6.123   5.720   2.297  0.6715  0.8048 -0.9439
 5230TIP3    H237250   5.983   5.775   2.283  1.2605  2.9193  0.9078
 5231TIP3   OH237251   1.925   6.838   2.628 -0.1002 -0.0376 -0.1269
 5231TIP3    H137252   1.976   6.916   2.608  0.4097 -0.6723 -1.4251
 5231TIP3    H237253   1.977   6.790   2.692  0.3215 -0.0551 -0.4813
 5232TIP3   OH237254   6.193   4.153   3.009  0.0344  0.0959  0.1524
 5232TIP3    H137255   6.133   4.160   3.083  0.6502 -0.2480  0.6870
 5232TIP3    H237256   6.207   4.059   2.998  0.3917  0.1724 -0.0427
 5233TIP3   OH237257   3.175   3.230   3.196  0.2189 -0.2766 -0.0184
 5233TIP3    H137258   3.268   3.214   3.177  0.6363  1.0876  0.7238
 5233TIP3    H237259   3.165   3.209   3.289 -0.4739 -1.3697 -0.3159
 5234TIP3   OH237260   2.061   5.328   3.598 -0.7305 -0.2694  0.2067
 5234TIP3    H137261   2.015   5.358   3.520 -0.0817 -0.6227 -0.3167
 5234TIP3    H237262   2.027   5.383   3.669 -1.1627  0.1993 -0.3636
 5235TIP3   OH237263   3.990   3.041   3.359 -0.0320 -0.7653 -0.7764
 5235TIP3    H137264   3.966   3.046   3.267 -1.4386  0.6783 -0.3733
 5235TIP3    H237265   4.010   3.131   3.384  0.0817 -1.0928  0.3896
 5236TIP3   OH237266   6.331   4.712   0.957 -0.7756  0.1719 -0.5853
 5236TIP3    H137267   6.403   4.719   1.020 -1.3120  0.7157 -0.0129
 5236TIP3    H237268   6.259   4.761   0.998 -1.2933  0.1034 -1.3978
 5237TIP3   OH237269   2.729   4.007   1.470  0.1381 -0.3796  0.0610
 5237TIP3    H137270   2.726   4.102   1.468 -3.1799 -0.2901 -3.4274
 5237TIP3    H237271   2.657   3.982   1.529 -0.4658 -0.6609 -0.7833
 5238TIP3   OH237272   1.973   4.652   3.747  0.0152  0.2040 -0.1880
 5238TIP3    H137273   2.049   4.704   3.772 -0.6245  0.0173  2.4474
 5238TIP3    H237274   1.897   4.704   3.775 -0.8063 -0.3604 -1.2469
 5239TIP3   OH237275   1.612   1.444   3.365 -0.4382 -0.5892  0.0888
 5239TIP3    H137276   1.570   1.370   3.321 -0.6059  0.0947 -0.9475
 5239TIP3    H237277   1.617   1.512   3.297 -0.2111  0.3137  0.9881
 5240TIP3   OH237278   3.262   1.111   3.184 -0.2588 -0.2811  0.6402
 5240TIP3    H137279   3.291   1.161   3.260 -0.1453 -0.2563  0.5803
 5240TIP3    H237280   3.338   1.109   3.126 -0.4546  0.0155  0.3631
 5241TIP3   OH237281   5.068   2.204   2.822 -0.0742  0.0647 -0.0235
 5241TIP3    H137282   5.062   2.177   2.730 -3.4070 -3.7266  1.0247
 5241TIP3    H237283   4.990   2.259   2.836  0.6497  0.9955  0.5008
 5242TIP3   OH237284   2.489   4.300   1.118  0.6801  0.1623  1.0956
 5242TIP3    H137285   2.416   4.241   1.098 -0.6042  1.3510  2.0603
 5242TIP3    H237286   2.481   4.370   1.054  0.6761  0.5410  1.5076
 5243TIP3   OH237287   4.086   2.956   2.300  0.1679 -0.8415  0.6060
 5243TIP3    H137288   4.161   2.999   2.341  0.5488  0.8970 -1.6985
 5243TIP3    H237289   4.122   2.911   2.224 -1.0334 -0.4112 -0.2575
 5244TIP3   OH237290   4.657   4.759   2.542  0.1204 -0.3504 -0.1095
 5244TIP3    H137291   4.682   4.785   2.453  1.4367 -1.9522 -0.2438
 5244TIP3    H237292   4.562   4.743   2.537 -0.4176  2.3582 -0.4656
 5245TIP3   OH237293   4.927   6.692   8.425  0.1095  0.4788  0.3691
 5245TIP3    H137294   4.851   6.746   8.441 -0.8277 -0.2962 -1.2405
 5245TIP3    H237295   4.996   6.729   8.481 -1.1720  1.7578  1.1421
 5246TIP3   OH237296   1.136   2.457   4.410  0.2537  0.0013  0.0039
 5246TIP3    H137297   1.059   2.400   4.402  1.5408 -1.6254 -1.9264
 5246TIP3    H237298   1.191   2.413   4.476  0.3033  0.1615  0.0683
 5247TIP3   OH237299   5.000   6.468   1.371 -0.1354  0.1792  0.1928
 5247TIP3    H137300   4.958   6.386   1.345 -1.8200  0.8603  0.6296
 5247TIP3    H237301   4.931   6.518   1.413  0.6998  2.0794 -0.5813
 5248TIP3   OH237302   0.707   5.870   2.477  0.2691  0.2976  0.9368
 5248TIP3    H137303   0.716   5.845   2.569 -1.4667  0.0737  1.0837
 5248TIP3    H237304   0.637   5.936   2.477  1.1426  1.2634 -0.0826
 5249TIP3   OH237305   4.590   1.961   0.311  0.0854  0.3517 -0.6582
 5249TIP3    H137306   4.603   1.869   0.291  0.9231  0.1020  0.8350
 5249TIP3    H237307   4.577   2.003   0.226  1.0045 -0.9449 -1.4797
 5250TIP3   OH237308   2.941   0.751   3.398  0.5171  0.2632  0.2925
 5250TIP3    H137309   2.863   0.800   3.425  0.6455 -0.2842  1.7453
 5250TIP3    H237310   3.007   0.818   3.382  0.4649  0.6158  1.5059
 5251TIP3   OH237311   2.413   2.021   4.285 -0.4059  0.6236 -0.0997
 5251TIP3    H137312   2.351   2.045   4.355 -1.1239 -0.5728 -0.2935
 5251TIP3    H237313   2.387   1.932   4.261  0.0619  0.8946 -1.6592
 5252TIP3   OH237314   3.002   4.975   0.804  0.1151 -0.1477  0.2892
 5252TIP3    H137315   2.982   4.999   0.895  0.3307  2.6898 -0.3090
 5252TIP3    H237316   2.956   4.892   0.790 -3.9544  1.6004  1.6213
 5253TIP3   OH237317   4.477   3.062   0.876 -0.0093 -0.8651  0.3949
 5253TIP3    H137318   4.539   3.111   0.931 -0.9138  1.0902 -0.2256
 5253TIP3    H237319   4.527   3.042   0.797  0.0588  0.1150  0.1742
 5254TIP3   OH237320   5.780   3.288   3.211 -0.1254  0.2857 -0.5013
 5254TIP3    H137321   5.816   3.276   3.123 -2.9789  0.8679 -1.8937
 5254TIP3    H237322   5.802   3.379   3.233  1.2698 -0.1006 -0.2551
 5255TIP3   OH237323   2.350   0.595   2.529 -0.1801 -0.1754 -0.0771
 5255TIP3    H137324   2.443   0.593   2.550 -0.1931  0.2734  0.0216
 5255TIP3    H237325   2.306   0.586   2.613 -0.2325  1.4844  0.0926
 5256TIP3   OH237326   4.814   2.455   1.969 -0.3778  0.3479 -0.1113
 5256TIP3    H137327   4.795   2.416   1.884 -1.3497 -2.4317  1.2393
 5256TIP3    H237328   4.906   2.434   1.985 -0.0851  1.2140 -0.6135
 5257TIP3   OH237329   0.615   3.566   1.270  0.2708  0.0422  0.4284
 5257TIP3    H137330   0.535   3.544   1.319 -0.9912  2.8976 -0.1185
 5257TIP3    H237331   0.603   3.525   1.185 -0.1646 -0.3147  0.6559
 5258TIP3   OH237332   1.303   0.844   2.111 -0.0729  0.2716 -0.1640
 5258TIP3    H137333   1.212   0.844   2.084 -0.3169  0.3848  0.6350
 5258TIP3    H237334   1.305   0.897   2.191  0.9239  1.4667 -0.9262
 5259TIP3   OH237335   0.560   5.751   2.035  0.2188  0.2184 -0.2895
 5259TIP3    H137336   0.595   5.840   2.034  0.3008  0.2314  1.2247
 5259TIP3    H237337   0.625   5.699   1.988 -0.2779  1.0774 -2.0195
 5260TIP3   OH237338   5.995   5.885   3.028 -0.0628  0.3224 -0.1488
 5260TIP3    H137339   5.916   5.931   3.057 -1.1189 -0.0857 -2.1547
 5260TIP3    H237340   5.979   5.794   3.053  0.1372  0.3748  0.1653
 5261TIP3   OH237341   1.945   3.756   3.620 -0.2988  0.2602  0.4521
 5261TIP3    H137342   1.954   3.844   3.657  0.3827  0.4678 -0.1871
 5261TIP3    H237343   1.978   3.697   3.688  0.7913  0.6237  0.2479
 5262TIP3   OH237344   0.341   2.834   3.090 -0.0683  0.3968 -1.0719
 5262TIP3    H137345   0.416   2.877   3.048  1.4434 -1.3908 -0.3445
 5262TIP3    H237346   0.379   2.788   3.165 -2.3454  1.6191  0.9564
 5263TIP3   OH237347   0.904   4.087   0.444  0.7845 -0.0993 -0.1036
 5263TIP3    H137348   0.877   4.076   0.353  0.0820 -1.9775  0.2777
 5263TIP3    H237349   0.838   4.040   0.495  0.4048  2.0324  1.5194
 5264TIP3   OH237350   2.722   4.663   1.030 -0.3713  0.4772  0.3028
 5264TIP3    H137351   2.642   4.623   0.994 -0.5785  1.7266 -0.7035
 5264TIP3    H237352   2.775   4.683   0.953  0.3191  0.8973  0.8832
 5265TIP3   OH237353   4.265   6.243   2.563 -0.1335  0.4079 -0.2196
 5265TIP3    H137354   4.313   6.177   2.614  0.9425  1.9971  0.9122
 5265TIP3    H237355   4.174   6.216   2.570  0.3170 -1.2771 -0.2909
 5266TIP3   OH237356   5.603   6.039   2.037 -0.2298 -0.1482 -0.4654
 5266TIP3    H137357   5.536   5.971   2.039 -0.4266  0.0538  0.3513
 5266TIP3    H237358   5.582   6.095   2.112 -0.0579  0.8054 -1.1193
 5267TIP3   OH237359   6.075   2.321   4.457  0.4135  0.1551 -0.2736
 5267TIP3    H137360   6.066   2.226   4.450  0.4755  0.1318 -0.0544
 5267TIP3    H237361   6.168   2.338   4.447  0.4225  0.1779 -0.1529
 5268TIP3   OH237362   2.718   4.249   0.447  0.6809  0.0453 -0.8510
 5268TIP3    H137363   2.750   4.337   0.465 -0.4422  0.0916  1.2263
 5268TIP3    H237364   2.626   4.261   0.423  0.3846 -0.5802 -0.0726
 5269TIP3   OH237365   2.505   2.531   0.661 -0.2861  0.4048 -0.3918
 5269TIP3    H137366   2.439   2.523   0.730 -0.2080  1.1035 -0.2214
 5269TIP3    H237367   2.535   2.622   0.668  0.1535  0.3075 -0.9581
 5270TIP3   OH237368   5.036   3.816   1.497 -0.0040 -0.6888  0.3452
 5270TIP3    H137369   5.106   3.760   1.532 -0.9607 -1.8995  0.3816
 5270TIP3    H237370   5.082   3.883   1.447  1.1606 -2.5727 -1.2802
 5271TIP3   OH237371   3.170   5.883   2.710 -0.5123 -0.0622  0.0736
 5271TIP3    H137372   3.154   5.977   2.701 -3.2547 -0.2219  2.0515
 5271TIP3    H237373   3.251   5.877   2.760  0.6362  1.1532 -1.5336
 5272TIP3   OH237374   2.121   6.712   3.519 -0.5315 -0.0681 -0.3563
 5272TIP3    H137375   2.196   6.741   3.468 -1.4732  0.4147 -1.5349
 5272TIP3    H237376   2.067   6.791   3.528 -0.3772 -0.1348  1.4539
 5273TIP3   OH237377   5.665   4.735   0.936 -0.3857 -0.1314  0.3887
 5273TIP3    H137378   5.573   4.713   0.923 -0.0101 -1.0196 -0.9560
 5273TIP3    H237379   5.681   4.717   1.029 -2.2983  2.9709  1.4804
 5274TIP3   OH237380   2.698   0.556   3.962  0.2482 -0.0155  0.3688
 5274TIP3    H137381   2.730   0.634   4.008 -1.6916  0.5839  0.7717
 5274TIP3    H237382   2.651   0.591   3.886 -2.3788 -0.6242  1.6220
 5275TIP3   OH237383   5.079   6.594   1.111  0.1414  0.1901 -0.2422
 5275TIP3    H137384   5.008   6.562   1.056 -1.8180  2.3082  0.8749
 5275TIP3    H237385   5.065   6.551   1.196  0.6315  0.1102 -0.1955
 5276TIP3   OH237386   0.317   1.693   4.411  0.1242 -0.1799 -0.6937
 5276TIP3    H137387   0.254   1.696   4.483  1.2202  1.0654  0.2490
 5276TIP3    H237388   0.356   1.606   4.418  0.2551 -0.0527  0.2449
 5277TIP3   OH237389   3.774   3.013   2.824  0.0864 -0.5035  0.4152
 5277TIP3    H137390   3.866   3.009   2.797  0.6138  0.1297  2.0392
 5277TIP3    H237391   3.726   2.982   2.747  1.5372  0.8331 -1.1249
 5278TIP3   OH237392   1.411   5.048   3.442  0.1521 -0.2474  0.1202
 5278TIP3    H137393   1.388   4.995   3.366  1.0646 -0.8974  0.2801
 5278TIP3    H237394   1.402   4.989   3.516 -0.5181  0.3212  0.5066
 5279TIP3   OH237395   0.030   4.097   4.206 -0.4120  0.2269 -0.0402
 5279TIP3    H137396   0.021   4.084   4.301 -2.4648 -2.3505 -0.4719
 5279TIP3    H237397  -0.024   4.174   4.188 -0.8962  0.0870  0.7529
 5280TIP3   OH237398   5.092   6.807   2.711 -0.4167 -1.2909 -0.2250
 5280TIP3    H137399   5.175   6.834   2.673 -0.5418  1.1692  1.0176
 5280TIP3    H237400   5.026   6.837   2.648 -0.5022  0.6827  0.7105
 5281TIP3   OH237401   2.227   3.349   4.318 -0.2041 -0.0684  0.0709
 5281TIP3    H137402   2.192   3.388   4.238 -2.1666 -0.2692  0.7767
 5281TIP3    H237403   2.322   3.356   4.309 -0.4168  2.7801 -0.8691
 5282TIP3   OH237404   0.449   2.222   0.982 -0.5035  0.5777 -0.3602
 5282TIP3    H137405   0.396   2.244   0.905 -0.8545  0.5580 -0.1278
 5282TIP3    H237406   0.386   2.221   1.055  0.1230  2.3940  0.2448
 5283TIP3   OH237407   3.628   0.261   2.580 -0.1942  0.6897  0.1915
 5283TIP3    H137408   3.678   0.231   2.655  0.6286  1.6070  0.0267
 5283TIP3    H237409   3.686   0.247   2.505 -0.5476  0.8862 -0.1211
 5284TIP3   OH237410   6.818   4.911   1.502  0.2383 -0.2228 -0.2379
 5284TIP3    H137411   6.900   4.933   1.457  1.3205  0.7548  2.0026
 5284TIP3    H237412   6.846   4.887   1.591 -1.9399  0.7091  0.7824
 5285TIP3   OH237413   1.625   4.614   1.700 -0.1729 -0.0469 -0.1058
 5285TIP3    H137414   1.640   4.526   1.664  0.2663  1.0273 -2.7448
 5285TIP3    H237415   1.712   4.643   1.728 -0.0074  0.1805 -0.8341
 5286TIP3   OH237416   3.437   6.637   1.832 -0.6017  0.1103  0.2827
 5286TIP3    H137417   3.394   6.666   1.751 -1.4213  0.5968  0.8772
 5286TIP3    H237418   3.436   6.542   1.827  0.3446  0.1322 -0.7829
 5287TIP3   OH237419   1.311   0.464   2.522  0.3497 -0.1197 -0.4699
 5287TIP3    H137420   1.222   0.485   2.491  0.3404  0.7156  0.0928
 5287TIP3    H237421   1.366   0.532   2.482  0.4718  0.4197  0.5920
 5288TIP3   OH237422   0.603   0.304   3.516 -0.0916 -0.2864 -0.3770
 5288TIP3    H137423   0.512   0.315   3.542 -0.1760  0.8588 -1.1261
 5288TIP3    H237424   0.653   0.326   3.595 -0.4436 -1.7262  0.2934
 5289TIP3   OH237425   2.550   3.592   5.054 -0.3300 -0.3132  0.5215
 5289TIP3    H137426   2.581   3.648   4.983 -0.5376 -1.4159 -0.4606
 5289TIP3    H237427   2.464   3.562   5.025 -0.3800 -0.8522  1.1997
 5290TIP3   OH237428   0.890   3.885   0.657  0.0304 -0.2945 -0.0753
 5290TIP3    H137429   0.907   3.860   0.747  0.7951  2.2031  0.5736
 5290TIP3    H237430   0.968   3.857   0.609 -0.2181 -1.2983  0.0851
 5291TIP3   OH237431   1.046   5.802   0.644 -0.0140  0.2242 -0.3541
 5291TIP3    H137432   0.989   5.876   0.663  0.3801 -0.1032  2.6015
 5291TIP3    H237433   1.112   5.838   0.584  0.5365  2.5147  1.4660
 5292TIP3   OH237434   2.332   4.485   4.066 -0.1070  0.6290  0.3963
 5292TIP3    H137435   2.360   4.427   4.137  0.3573 -0.1270 -0.3823
 5292TIP3    H237436   2.315   4.569   4.108 -1.0864 -0.1431  1.6042
 5293TIP3   OH237437   1.497   3.484   0.916  0.2064 -0.5624  0.0563
 5293TIP3    H137438   1.466   3.413   0.859  1.6576 -1.1384 -0.0494
 5293TIP3    H237439   1.534   3.549   0.856 -0.9640  0.2299  0.1666
 5294TIP3   OH237440   3.275   4.475   1.732 -0.0530 -0.0463 -0.1992
 5294TIP3    H137441   3.262   4.568   1.714  2.0131  0.4470  0.6223
 5294TIP3    H237442   3.331   4.445   1.661  1.0331 -0.1359  0.6763
 5295TIP3   OH237443   5.978   0.802   0.509 -0.5788 -0.2378 -0.2655
 5295TIP3    H137444   6.057   0.773   0.554 -0.6164  0.3342  0.1731
 5295TIP3    H237445   5.944   0.722   0.468 -1.6690 -1.2597  2.4103
 5296TIP3   OH237446   1.537   0.912   1.489  0.6066  0.0223 -0.5011
 5296TIP3    H137447   1.463   0.929   1.546 -0.0311 -0.7828 -1.0646
 5296TIP3    H237448   1.614   0.932   1.542  0.0676 -1.5913  0.9681
 5297TIP3   OH237449   5.012   5.959   3.272 -0.0953  0.0990 -0.0097
 5297TIP3    H137450   4.942   5.976   3.335  0.1189  0.0006  0.2616
 5297TIP3    H237451   4.987   6.008   3.194 -0.0929  0.6804  0.3456
 5298TIP3   OH237452   2.535   4.380   0.279  0.3218 -0.1678  0.1726
 5298TIP3    H137453   2.595   4.396   0.207 -0.7951  0.0029 -0.7504
 5298TIP3    H237454   2.526   4.465   0.323  1.8254 -0.5047  1.2035
 5299TIP3   OH237455   5.323   0.586   4.686 -0.2310 -1.0060 -0.0600
 5299TIP3    H137456   5.394   0.650   4.697 -0.9401 -0.0103 -0.9365
 5299TIP3    H237457   5.277   0.616   4.607 -0.5963 -2.6176 -0.4926
 5300TIP3   OH237458   0.981   3.038   3.149  0.2107  0.1457 -0.9244
 5300TIP3    H137459   0.901   3.077   3.184  0.6341 -0.3875  0.7090
 5300TIP3    H237460   1.052   3.078   3.200  0.8574 -0.7419 -1.0947
 5301TIP3   OH237461   3.624   5.601   2.476  0.0529 -0.0479  0.4146
 5301TIP3    H137462   3.551   5.627   2.532  0.3652 -0.5570  1.0768
 5301TIP3    H237463   3.597   5.517   2.438  0.4766 -0.4754  1.0362
 5302TIP3   OH237464   2.480   5.070   2.788  0.2544  1.0010  0.0687
 5302TIP3    H137465   2.492   5.147   2.733 -0.9619  1.5484  0.5493
 5302TIP3    H237466   2.386   5.056   2.791  0.4645 -1.2362 -0.9833
 5303TIP3   OH237467   2.335   3.030   3.567  0.5581 -0.7484  0.2618
 5303TIP3    H137468   2.332   3.115   3.610  0.4377 -1.3380  1.4405
 5303TIP3    H237469   2.358   3.050   3.476  0.2996  0.5549  0.4686
 5304TIP3   OH237470   2.945   0.599   3.620 -0.4062  0.1009 -0.0408
 5304TIP3    H137471   2.910   0.665   3.680  0.0764 -0.2608  0.6464
 5304TIP3    H237472   2.943   0.642   3.534 -0.8398  0.7235  0.2679
 5305TIP3   OH237473   2.469   3.973   3.374 -0.0702  0.4268 -0.3854
 5305TIP3    H137474   2.379   3.976   3.406 -0.0739 -0.8396 -0.2511
 5305TIP3    H237475   2.462   3.997   3.281 -0.8641 -1.7725 -0.9505
 5306TIP3   OH237476   2.129   0.509   0.891  0.4257 -0.1782 -0.1756
 5306TIP3    H137477   2.167   0.470   0.970  2.3556 -1.0332 -1.4578
 5306TIP3    H237478   2.073   0.440   0.855 -1.2052  0.5306  0.8623
 5307TIP3   OH237479   6.879   0.255   0.679 -0.0567 -0.2655  0.0644
 5307TIP3    H137480   6.799   0.239   0.629 -0.5427  2.1441 -0.0596
 5307TIP3    H237481   6.924   0.171   0.681 -0.5952 -0.7527 -3.3727
 5308TIP3   OH237482   0.975   4.591   3.205 -0.1467 -0.1116  0.0389
 5308TIP3    H137483   0.998   4.627   3.291  0.0663  1.1988 -0.5514
 5308TIP3    H237484   0.903   4.645   3.174 -0.4738 -0.8136 -0.4593
 5309TIP3   OH237485   0.609   1.370   4.006  0.1026 -0.1868 -0.6824
 5309TIP3    H137486   0.589   1.363   3.913  1.3903 -1.0402 -0.9269
 5309TIP3    H237487   0.636   1.282   4.031  0.8434  0.2818  0.2330
 5310TIP3   OH237488   4.744   4.370   1.794  0.0539  0.1651 -0.5249
 5310TIP3    H137489   4.670   4.401   1.847 -0.7120  0.6757 -1.8639
 5310TIP3    H237490   4.770   4.446   1.743  0.8103 -0.3175 -0.8658
 5311TIP3   OH237491   0.803   0.903   3.599 -0.5515  0.5555  0.2197
 5311TIP3    H137492   0.761   0.851   3.667 -0.8589  1.5304  0.8050
 5311TIP3    H237493   0.835   0.981   3.645  0.0730  0.7973 -0.5860
 5312TIP3   OH237494   2.007   1.431   3.757  0.8573 -0.0200 -0.3089
 5312TIP3    H137495   1.943   1.456   3.690  1.4066 -0.7234 -1.1072
 5312TIP3    H237496   2.061   1.510   3.768 -0.7688  0.9543  1.1506
 5313TIP3   OH237497   4.254   0.789   0.535 -0.3266 -0.2516  0.3784
 5313TIP3    H137498   4.259   0.881   0.511  0.7816 -0.1667  0.8637
 5313TIP3    H237499   4.232   0.743   0.454  1.6233  0.1966 -0.4502
 5314TIP3   OH237500   2.483   1.651   0.424 -0.0122 -0.0764  0.1033
 5314TIP3    H137501   2.422   1.623   0.356 -0.0244  0.5582 -0.1586
 5314TIP3    H237502   2.431   1.649   0.505 -0.1644 -0.2758  0.0005
 5315TIP3   OH237503   3.005   3.206   2.987  0.5513  0.0529 -0.3727
 5315TIP3    H137504   3.036   3.132   2.934 -0.7780 -0.3465 -0.6122
 5315TIP3    H237505   3.070   3.213   3.057  2.8586  1.1459 -2.4780
 5316TIP3   OH237506   1.967   4.065   1.285 -0.3976 -0.2663 -0.0417
 5316TIP3    H137507   1.939   4.156   1.295 -0.1239 -0.2046  0.1720
 5316TIP3    H237508   1.956   4.027   1.372 -1.3987 -0.6924 -0.3389
 5317TIP3   OH237509   2.862   5.323   2.223  0.4908  0.1300 -0.1647
 5317TIP3    H137510   2.789   5.328   2.284  1.1417  0.9430  0.5841
 5317TIP3    H237511   2.913   5.248   2.253  1.4133  1.1826  1.0406
 5318TIP3   OH237512   3.042   2.217   2.167 -0.5263  0.0028 -0.0688
 5318TIP3    H137513   2.960   2.224   2.118  0.8997 -1.6454 -2.9826
 5318TIP3    H237514   3.087   2.301   2.151 -2.4459  1.9985  3.5993
 5319TIP3   OH237515   4.107   6.053   0.544  0.1972 -0.9815 -0.7678
 5319TIP3    H137516   4.075   5.993   0.476  0.8949  0.2402 -2.2372
 5319TIP3    H237517   4.063   6.136   0.525 -0.2371 -0.8244  0.8210
 5320TIP3   OH237518   1.499   5.706   3.951 -0.2626  0.3402 -0.2397
 5320TIP3    H137519   1.576   5.654   3.973 -0.2686  0.2831 -0.3511
 5320TIP3    H237520   1.426   5.644   3.960  0.0318 -0.9242 -4.3076
 5321TIP3   OH237521   1.106   5.444   2.089  0.1529  0.4749 -0.1799
 5321TIP3    H137522   1.041   5.481   2.030 -1.6350 -1.2132  0.6173
 5321TIP3    H237523   1.066   5.448   2.175  1.2855 -0.2414  0.4131
 5322TIP3   OH237524   3.251   6.693   4.523  0.1688  0.5813  0.9188
 5322TIP3    H137525   3.309   6.744   4.579  0.2662 -1.4039  2.7725
 5322TIP3    H237526   3.169   6.685   4.573 -1.1180  1.7926 -0.8530
 5323TIP3   OH237527   0.718   0.646   1.525 -0.7487  0.0971  0.8685
 5323TIP3    H137528   0.725   0.670   1.432  0.8193  1.3456  1.2520
 5323TIP3    H237529   0.644   0.697   1.557 -2.1566 -1.3529  0.0495
 5324TIP3   OH237530   2.528   0.555   2.829  0.3978  0.7720  0.6386
 5324TIP3    H137531   2.442   0.579   2.863 -1.0615 -1.0212 -1.5080
 5324TIP3    H237532   2.536   0.602   2.747  1.1027  0.2703  0.4027
 5325TIP3   OH237533   5.726   6.497   2.750 -0.5115 -0.1560 -0.3826
 5325TIP3    H137534   5.759   6.495   2.839  0.6340  0.4657 -0.7822
 5325TIP3    H237535   5.688   6.584   2.741 -1.2137 -0.4461 -0.3088
 5326TIP3   OH237536   2.428   5.499   1.072 -0.0780  0.1942  0.1217
 5326TIP3    H137537   2.381   5.416   1.073  0.1557  0.0420 -0.7447
 5326TIP3    H237538   2.416   5.534   1.160 -1.1278 -0.2216  0.1583
 5327TIP3   OH237539   1.620   4.004   0.896  0.2588  0.2484 -0.1309
 5327TIP3    H137540   1.532   4.025   0.928 -0.4571  0.3217 -2.0576
 5327TIP3    H237541   1.678   4.029   0.968 -1.1230  2.1571  0.3948
 5328TIP3   OH237542   6.842   6.250   1.679  0.1819 -0.3863 -0.1631
 5328TIP3    H137543   6.841   6.165   1.724  1.8168 -0.8044 -0.8332
 5328TIP3    H237544   6.924   6.291   1.708  1.7150 -0.9973 -3.1950
 5329TIP3   OH237545   4.601   0.817   0.229 -0.3396  0.5052 -0.1008
 5329TIP3    H137546   4.668   0.755   0.259  1.4045  3.0632  1.7886
 5329TIP3    H237547   4.635   0.851   0.146 -0.3204  0.3348 -0.1628
 5330TIP3   OH237548   1.376   1.216   2.530 -0.4396  0.5398 -0.5380
 5330TIP3    H137549   1.342   1.228   2.618 -0.9225  1.4853 -0.8382
 5330TIP3    H237550   1.470   1.199   2.542 -0.3346  1.5004  0.1199
 5331TIP3   OH237551   0.555   4.356   3.901  0.0038 -0.5420  0.5046
 5331TIP3    H137552   0.524   4.358   3.991 -1.0935  0.4989  0.1435
 5331TIP3    H237553   0.530   4.441   3.865 -0.3191 -1.2285 -1.0024
 5332TIP3   OH237554   1.686   1.079   1.921 -0.5111 -0.0155 -0.3736
 5332TIP3    H137555   1.647   1.003   1.879 -0.2120 -1.0293  1.0867
 5332TIP3    H237556   1.628   1.097   1.995  0.1440  0.3464  0.0611
 5333TIP3   OH237557   0.390   1.281   4.839 -0.5525  0.4836 -0.1873
 5333TIP3    H137558   0.371   1.374   4.853  0.5132  0.5703  0.8031
 5333TIP3    H237559   0.397   1.271   4.744 -1.9037  1.1489 -0.3808
 5334TIP3   OH237560   1.787   4.087   4.460 -0.7800 -0.1284 -0.1570
 5334TIP3    H137561   1.766   4.156   4.523  1.1722 -0.6079  1.0804
 5334TIP3    H237562   1.876   4.061   4.481 -0.1403 -0.5351 -2.9568
 5335TIP3   OH237563   5.420   2.209   3.933 -0.0955 -0.4024  0.0021
 5335TIP3    H137564   5.500   2.181   3.887  0.3797 -1.7617  1.5305
 5335TIP3    H237565   5.419   2.155   4.012 -2.0049  0.3364  0.5231
 5336TIP3   OH237566   1.771   2.158   2.366 -0.1481 -0.4738 -0.1470
 5336TIP3    H137567   1.727   2.133   2.285 -0.3241 -0.2976 -0.1063
 5336TIP3    H237568   1.755   2.252   2.374  1.2249 -0.1618 -0.7425
 5337TIP3   OH237569   0.954   2.798   4.249 -0.2911  0.2229 -0.3101
 5337TIP3    H137570   0.994   2.884   4.248  1.3813 -0.4794  1.1515
 5337TIP3    H237571   0.937   2.780   4.342  0.2819 -1.3793 -0.4755
 5338TIP3   OH237572   6.051   2.502   2.401 -0.3410 -0.5540  0.1431
 5338TIP3    H137573   6.104   2.533   2.328 -0.0478 -1.6581 -0.1222
 5338TIP3    H237574   6.040   2.580   2.457  1.4341 -0.2654  0.1413
 5339TIP3   OH237575   3.588   4.503   3.424 -0.2804 -0.3602 -0.1839
 5339TIP3    H137576   3.567   4.596   3.419  0.5627 -0.1795 -0.5712
 5339TIP3    H237577   3.511   4.458   3.389  0.7361  0.3429 -3.7175
 5340TIP3   OH237578   1.289   3.584   3.608 -0.7112 -0.3853 -0.3873
 5340TIP3    H137579   1.371   3.595   3.560 -0.6669 -2.4030 -0.8702
 5340TIP3    H237580   1.229   3.649   3.571 -0.4548 -1.4057 -2.7079
 5341TIP3   OH237581   6.295   5.859   1.690 -0.2046 -0.1551  0.2849
 5341TIP3    H137582   6.290   5.851   1.785 -1.6480  0.6225  0.3005
 5341TIP3    H237583   6.243   5.937   1.670 -0.3346 -0.5976 -1.1778
 5342TIP3   OH237584   1.806   2.609   1.808  0.2718  0.1505  0.4559
 5342TIP3    H137585   1.737   2.561   1.763  0.3541 -0.2944  0.8007
 5342TIP3    H237586   1.800   2.698   1.772  1.8560 -0.7049 -2.2017
 5343TIP3   OH237587   2.027   6.324   0.235 -0.1952 -0.3376 -0.2050
 5343TIP3    H137588   2.020   6.230   0.217  1.5388 -0.4598 -0.3951
 5343TIP3    H237589   1.977   6.337   0.315  1.7456 -1.9514  1.3670
 5344TIP3   OH237590   0.774   2.207   4.036  0.7210 -0.4827 -0.0300
 5344TIP3    H137591   0.792   2.173   4.124  0.4897 -1.3908 -0.3266
 5344TIP3    H237592   0.679   2.223   4.036  0.7978 -0.0137  0.0423
 5345TIP3   OH237593   3.091   6.545   1.320 -0.5661 -0.1371  0.0932
 5345TIP3    H137594   3.100   6.605   1.394 -0.4561  0.7176 -0.5906
 5345TIP3    H237595   3.180   6.530   1.290 -0.6078 -0.5006  0.1514
 5346TIP3   OH237596   4.709   0.170   0.410 -0.7617 -0.0278  0.1830
 5346TIP3    H137597   4.763   0.107   0.361 -1.8830 -0.9903  0.1412
 5346TIP3    H237598   4.749   0.173   0.497 -0.6852 -0.7985  0.1843
 5347TIP3   OH237599   0.097   6.622   3.111  0.0018 -0.4080  0.0283
 5347TIP3    H137600   0.190   6.631   3.089 -0.1610 -2.9641 -2.1561
 5347TIP3    H237601   0.051   6.669   3.041 -0.3701 -1.2688 -0.3215
 5348TIP3   OH237602   2.184   1.616   3.965  0.8766  0.8433 -0.3642
 5348TIP3    H137603   2.188   1.627   4.060  3.4901  0.9973 -0.4196
 5348TIP3    H237604   2.171   1.522   3.952 -2.7462  1.1426  0.0558
 5349TIP3   OH237605   2.632   6.792   8.083 -0.0588  0.1874  0.1663
 5349TIP3    H137606   2.648   6.857   8.151 -1.6394  0.8862 -0.0748
 5349TIP3    H237607   2.573   6.728   8.124  2.1351 -1.6501  0.6774
 5350TIP3   OH237608   0.539   4.011   0.399 -0.5299 -0.4431 -0.3306
 5350TIP3    H137609   0.508   3.923   0.420  0.4047 -1.5307 -3.0222
 5350TIP3    H237610   0.514   4.023   0.307  0.4795  1.5902 -0.3803
 5351TIP3   OH237611   6.602   4.205   1.876  0.2366 -0.4354 -0.3378
 5351TIP3    H137612   6.524   4.198   1.822  0.3588 -2.2813 -0.3182
 5351TIP3    H237613   6.675   4.190   1.815  0.5603  0.6144 -0.2315
 5352TIP3   OH237614   1.229   1.137   2.319 -0.1690  0.5292 -0.0468
 5352TIP3    H137615   1.281   1.186   2.383  0.6998  0.4593 -0.6724
 5352TIP3    H237616   1.232   1.191   2.240 -1.4870  0.7652  0.0544
 5353TIP3   OH237617   1.595   2.563   4.094  0.2813  0.0923 -0.3443
 5353TIP3    H137618   1.621   2.654   4.112  0.5885 -0.0168 -0.2301
 5353TIP3    H237619   1.609   2.517   4.176  0.8802 -0.2277 -0.6214
 5354TIP3   OH237620   6.104   6.859   2.380  0.4075 -0.1116 -0.3982
 5354TIP3    H137621   6.062   6.892   2.459  0.9278 -0.4506  0.0317
 5354TIP3    H237622   6.037   6.804   2.338  0.6333 -1.2573  0.6693
 5355TIP3   OH237623   3.061   2.615   2.953 -0.4472 -0.1606  0.2106
 5355TIP3    H137624   3.066   2.617   2.858  0.8523 -0.5274  0.2417
 5355TIP3    H237625   3.073   2.523   2.976 -0.3633 -0.0240  0.7315
 5356TIP3   OH237626   4.046   6.146   2.879  0.2105 -0.5052 -0.5960
 5356TIP3    H137627   4.060   6.140   2.784  0.9268 -0.5300 -0.4949
 5356TIP3    H237628   3.954   6.173   2.888  0.8973  2.5094 -1.4063
 5357TIP3   OH237629   0.337   6.487   2.563 -0.2011 -0.1398 -0.2234
 5357TIP3    H137630   0.380   6.558   2.610 -0.0601 -0.5186  0.2275
 5357TIP3    H237631   0.403   6.456   2.501 -0.7051  1.0023 -1.3886
 5358TIP3   OH237632   4.964   5.117   2.963 -0.2114  0.0977 -0.1970
 5358TIP3    H137633   4.881   5.118   3.011  0.4798  0.0083  1.0418
 5358TIP3    H237634   5.030   5.097   3.030  0.5403 -2.4271 -1.5747
 5359TIP3   OH237635   0.119   3.288   3.865  0.4366  0.6371  0.2937
 5359TIP3    H137636   0.096   3.205   3.906 -1.2774  0.4212 -0.9634
 5359TIP3    H237637   0.106   3.273   3.771  0.5710  2.1783  0.0006
 5360TIP3   OH237638   6.525   4.495   1.318  0.0242 -0.4634 -0.1284
 5360TIP3    H137639   6.506   4.482   1.411  2.1883 -1.0586  0.2839
 5360TIP3    H237640   6.511   4.408   1.279  1.5388 -0.8720  0.1543
 5361TIP3   OH237641   5.928   0.776   2.487 -0.5637 -0.4819  0.0494
 5361TIP3    H137642   5.864   0.716   2.524 -1.8474  0.1258 -1.0939
 5361TIP3    H237643   5.934   0.749   2.395  0.5062 -0.2438  0.0383
 5362TIP3   OH237644   2.660   5.044   1.603 -0.2500 -0.2437  0.4113
 5362TIP3    H137645   2.730   5.102   1.635 -0.5349 -0.0654  0.7145
 5362TIP3    H237646   2.581   5.098   1.604 -0.5662 -0.6977  0.9394
 5363TIP3   OH237647   5.895   0.976   0.993 -0.4295  0.0920 -0.2091
 5363TIP3    H137648   5.851   1.005   1.073 -0.9374 -1.5560  0.1435
 5363TIP3    H237649   5.831   0.920   0.950  0.5163 -0.5354 -0.8243
 5364TIP3   OH237650   4.977   4.286   0.706  0.1693 -0.0235 -0.1403
 5364TIP3    H137651   4.998   4.197   0.677 -0.9761 -0.5040  0.4476
 5364TIP3    H237652   4.884   4.296   0.686  0.4683  1.3795 -1.0130
 5365TIP3   OH237653   3.634   3.598   1.884 -0.0367  0.3683  0.2428
 5365TIP3    H137654   3.725   3.621   1.869  0.0238 -0.7096 -1.1776
 5365TIP3    H237655   3.622   3.609   1.979  1.9474 -0.8614  0.6778
 5366TIP3   OH237656   1.073   4.950   0.676  0.4852  0.1561 -0.3740
 5366TIP3    H137657   0.996   4.964   0.732 -0.0563 -1.2569 -0.7008
 5366TIP3    H237658   1.143   4.927   0.737  0.5571  1.0504 -0.1048
 5367TIP3   OH237659   0.566   6.712   3.166 -0.5596 -0.1242  0.3339
 5367TIP3    H137660   0.654   6.685   3.142 -0.6841  0.2105 -0.5123
 5367TIP3    H237661   0.568   6.715   3.262  0.5428  0.5144  0.3106
 5368TIP3   OH237662   2.403   5.902   3.709  0.1884  0.2261  0.2390
 5368TIP3    H137663   2.495   5.925   3.704 -0.0695  1.0762 -0.8648
 5368TIP3    H237664   2.358   5.984   3.731 -0.3846  0.0091 -0.0889
 5369TIP3   OH237665   1.975   5.721   4.661 -0.2124 -0.5716  0.4378
 5369TIP3    H137666   1.920   5.651   4.697  0.5871 -0.9694  0.9095
 5369TIP3    H237667   2.042   5.675   4.610 -0.8606 -0.0515 -0.9413
 5370TIP3   OH237668   0.238   4.492   2.399  0.2472  0.1892  0.6129
 5370TIP3    H137669   0.187   4.412   2.402 -1.3911  1.1945  0.7945
 5370TIP3    H237670   0.194   4.546   2.334  2.2537  0.3576 -0.6699
 5371TIP3   OH237671   3.554   4.989   3.674 -0.4340 -0.3283  0.5794
 5371TIP3    H137672   3.499   5.037   3.612 -1.2288 -2.0391 -0.1158
 5371TIP3    H237673   3.643   5.010   3.647 -0.7598  0.3072 -0.0550
 5372TIP3   OH237674   4.875   4.779   1.890 -0.0625  0.7670 -0.0557
 5372TIP3    H137675   4.951   4.764   1.833  0.0479  0.6693  0.1172
 5372TIP3    H237676   4.843   4.866   1.866  1.3161  1.6781  1.2758
 5373TIP3   OH237677   1.524   1.420   0.798  0.0067 -0.7680 -0.8120
 5373TIP3    H137678   1.484   1.405   0.713 -1.9791 -0.0474 -0.0679
 5373TIP3    H237679   1.486   1.353   0.855 -0.1573 -0.0704 -0.0786
 5374TIP3   OH237680   1.747   5.706   3.134  0.0443  0.2740  0.5129
 5374TIP3    H137681   1.705   5.619   3.139  1.7016 -0.4947  2.5534
 5374TIP3    H237682   1.677   5.767   3.158 -1.0154 -0.5244 -0.4148
 5375TIP3   OH237683   2.950   3.313   1.655  0.0970  0.3589 -0.0325
 5375TIP3    H137684   3.041   3.317   1.684  0.2871  0.9996 -0.6787
 5375TIP3    H237685   2.904   3.268   1.725  0.6803  1.1813  0.9066
 5376TIP3   OH237686   6.746   5.908   3.800  0.6378 -0.3567  0.9548
 5376TIP3    H137687   6.718   5.993   3.835  1.0260 -0.4771  1.5882
 5376TIP3    H237688   6.808   5.930   3.731  1.0926 -0.1160  1.4278
 5377TIP3   OH237689   1.951   2.938   1.365  0.3398  0.2331  0.2267
 5377TIP3    H137690   2.035   2.892   1.362  0.2897  0.1117  0.7394
 5377TIP3    H237691   1.975   3.031   1.361  0.4540  0.1854 -0.4775
 5378TIP3   OH237692   0.847   2.708   0.646  0.0008 -1.0489  0.3227
 5378TIP3    H137693   0.802   2.791   0.634  0.4401 -0.8346  0.1303
 5378TIP3    H237694   0.908   2.723   0.719 -0.7730 -1.5622  1.0896
 5379TIP3   OH237695   4.204   3.934   2.176  0.0891  0.4421  0.1223
 5379TIP3    H137696   4.152   3.854   2.168  1.6273 -0.3689 -3.0147
 5379TIP3    H237697   4.279   3.909   2.230  0.0784  0.0521 -0.0422
 5380TIP3   OH237698   6.149   3.083   2.837  0.7369 -0.1094 -0.6976
 5380TIP3    H137699   6.215   3.137   2.793  1.9911 -0.8922  0.1735
 5380TIP3    H237700   6.168   2.994   2.808 -1.1476 -0.1673 -1.9062
 5381TIP3   OH237701   0.509   0.823   3.496 -0.4594 -0.0057  0.0403
 5381TIP3    H137702   0.453   0.829   3.573  0.9288 -0.9611  1.1719
 5381TIP3    H237703   0.546   0.911   3.486 -0.1161 -0.0517  0.8817
 5382TIP3   OH237704   3.121   3.410   1.210  0.1521  0.0755 -0.4028
 5382TIP3    H137705   3.183   3.465   1.260  0.6726  0.9940 -1.9901
 5382TIP3    H237706   3.153   3.414   1.120 -1.3233 -0.7488 -0.9889
 5383TIP3   OH237707   5.150   2.061   1.616 -0.2983 -0.0817 -0.2698
 5383TIP3    H137708   5.152   2.016   1.532  1.5339 -0.7611  0.0794
 5383TIP3    H237709   5.161   2.154   1.594  0.1065 -0.2489 -0.7925
 5384TIP3   OH237710   3.163   4.343   2.855  0.0617  0.2387 -0.0485
 5384TIP3    H137711   3.183   4.297   2.936  3.1746 -0.6532 -1.1864
 5384TIP3    H237712   3.226   4.309   2.792 -0.9610  2.3122 -2.3591
 5385TIP3   OH237713   2.221   1.302   0.294  0.9005 -0.9071  0.0335
 5385TIP3    H137714   2.201   1.359   0.368  2.8982 -0.4697  0.2848
 5385TIP3    H237715   2.215   1.359   0.217  1.4179 -0.7268  0.1282
 5386TIP3   OH237716   4.629   1.200   2.226  0.9692  0.0463 -0.1406
 5386TIP3    H137717   4.607   1.283   2.183 -3.4495 -1.9429 -2.4181
 5386TIP3    H237718   4.676   1.150   2.159 -1.1409 -1.0736 -0.9011
 5387TIP3   OH237719   2.466   2.210   1.003 -0.2663 -0.3243 -0.6162
 5387TIP3    H137720   2.380   2.234   1.036  0.6819  0.0470  1.7907
 5387TIP3    H237721   2.515   2.292   1.001  0.6702 -0.8395  0.1808
 5388TIP3   OH237722   6.341   0.904   1.101 -0.6420 -0.0858 -0.1259
 5388TIP3    H137723   6.257   0.929   1.140 -0.8800 -0.1037 -0.6191
 5388TIP3    H237724   6.343   0.951   1.017 -1.4001 -2.2324 -1.4071
 5389TIP3   OH237725   4.309   2.520   2.074  0.2226 -0.2908 -0.1231
 5389TIP3    H137726   4.343   2.590   2.018  0.4400  0.1970  0.6034
 5389TIP3    H237727   4.305   2.559   2.161 -1.3651 -0.6222 -0.0201
 5390TIP3   OH237728   4.283   5.823   1.851  0.3779  0.3409 -0.3007
 5390TIP3    H137729   4.283   5.846   1.944 -2.4494  1.2174 -0.4205
 5390TIP3    H237730   4.307   5.730   1.849 -0.2891  0.1015  1.3980
 5391TIP3   OH237731   4.035   1.351   3.056  0.1183  0.1776  0.0549
 5391TIP3    H137732   4.064   1.284   3.117  0.3917 -0.6671 -0.9779
 5391TIP3    H237733   3.997   1.302   2.983 -1.3738  1.1896  0.1017
 5392TIP3   OH237734   2.874   2.978   2.524  0.1450 -0.0716 -0.2748
 5392TIP3    H137735   2.839   3.009   2.440  0.0379 -0.4757 -0.3799
 5392TIP3    H237736   2.958   3.024   2.533  0.6655 -0.8342 -1.1105
 5393TIP3   OH237737   4.570   0.522   3.731 -0.1917  0.8409  0.2210
 5393TIP3    H137738   4.597   0.486   3.815 -1.3099  4.1403  2.1600
 5393TIP3    H237739   4.652   0.529   3.681  0.6782 -0.0926  1.4543
 5394TIP3   OH237740   5.694   3.079   3.881  0.3331  0.3451  0.0945
 5394TIP3    H137741   5.728   3.169   3.882  1.0411  0.1000 -0.9418
 5394TIP3    H237742   5.772   3.024   3.892  0.1828 -0.1958 -1.3476
 5395TIP3   OH237743   3.496   0.810   3.755  0.5507  0.0043  0.1733
 5395TIP3    H137744   3.587   0.782   3.749  0.9529  1.4223 -1.2047
 5395TIP3    H237745   3.501   0.904   3.775 -0.4649  0.7780 -2.6918
 5396TIP3   OH237746   3.217   3.834   1.205 -0.2748 -0.2443 -0.7053
 5396TIP3    H137747   3.300   3.833   1.253 -0.3874 -0.6403 -0.5151
 5396TIP3    H237748   3.157   3.882   1.261 -0.2963 -0.3496 -0.6390
 5397TIP3   OH237749   2.010   6.375   3.746  0.1063 -0.3664  0.0034
 5397TIP3    H137750   1.947   6.304   3.757 -0.1258 -0.2688 -0.6265
 5397TIP3    H237751   1.957   6.454   3.741  0.2428 -0.3066 -0.7665
 5398TIP3   OH237752   1.935   1.802   3.461  0.2226 -0.3171 -0.5547
 5398TIP3    H137753   2.023   1.840   3.462 -1.0622  2.9526 -0.6421
 5398TIP3    H237754   1.897   1.828   3.546 -1.3557  0.2333 -1.3899
 5399TIP3   OH237755   4.210   1.218   1.394  1.2029 -0.2629  0.0148
 5399TIP3    H137756   4.178   1.243   1.481  1.0947 -0.0693 -0.0792
 5399TIP3    H237757   4.305   1.212   1.403  1.3121  0.9476 -0.1456
 5400TIP3   OH237758   4.435   4.138   1.856  0.1896 -0.3189 -0.3765
 5400TIP3    H137759   4.417   4.182   1.773  1.5048  3.7819  1.2427
 5400TIP3    H237760   4.353   4.145   1.905  0.5610  1.1349  0.1063
 5401TIP3   OH237761   4.033   3.141   0.800  0.2330  0.8355  0.3714
 5401TIP3    H137762   3.975   3.195   0.852  0.0466 -0.0286  1.0894
 5401TIP3    H237763   4.050   3.192   0.721 -1.7034  1.0025  0.0249
 5402TIP3   OH237764   4.603   5.990   3.327  0.2074 -0.3967 -0.4088
 5402TIP3    H137765   4.656   5.918   3.292  0.8199 -0.1924  0.0680
 5402TIP3    H237766   4.582   5.964   3.416 -0.3231 -0.3804 -0.5284
 5403TIP3   OH237767   6.284   0.459   2.466 -0.0636 -0.2458  1.1502
 5403TIP3    H137768   6.249   0.524   2.527  0.2878  0.0253  1.0656
 5403TIP3    H237769   6.241   0.377   2.491  0.0730 -0.1359  1.7606
 5404TIP3   OH237770   3.883   2.180   3.170 -0.0325  0.7382  0.5189
 5404TIP3    H137771   3.853   2.240   3.101 -0.8138  0.4521  0.6018
 5404TIP3    H237772   3.802   2.145   3.208  0.3941  0.7769  1.4851
 5405TIP3   OH237773   1.804   3.036   4.742 -0.5582  1.1104 -0.0985
 5405TIP3    H137774   1.772   2.957   4.784 -1.3154  0.6036 -1.5681
 5405TIP3    H237775   1.835   3.007   4.656 -2.2795  2.5823 -1.2989
 5406TIP3   OH237776   6.885   2.494   2.850 -0.4718 -0.2935  0.3270
 5406TIP3    H137777   6.975   2.525   2.857 -0.4749  0.3548 -1.7205
 5406TIP3    H237778   6.891   2.399   2.864  0.4144 -0.1508  0.9560
 5407TIP3   OH237779   3.352   2.437   3.794  0.0702  0.1051  0.5584
 5407TIP3    H137780   3.381   2.422   3.704  1.9001  2.5927  0.6020
 5407TIP3    H237781   3.270   2.487   3.784 -1.0885 -1.7459  0.3649
 5408TIP3   OH237782   6.499   4.009   3.817  0.0015 -0.1984  0.1597
 5408TIP3    H137783   6.497   3.914   3.826  1.8799 -0.2588  0.2534
 5408TIP3    H237784   6.569   4.038   3.875 -0.5690  1.2599  0.1712
 5409TIP3   OH237785   5.741   4.972   0.794  0.2716  0.4608  0.2524
 5409TIP3    H137786   5.820   4.984   0.847  0.7879  0.8960 -0.6039
 5409TIP3    H237787   5.690   4.906   0.842  1.2187  0.0659  0.7399
 5410TIP3   OH237788   6.833   4.265   2.651 -0.3846  0.2157 -0.0650
 5410TIP3    H137789   6.801   4.183   2.615 -1.9231  1.6100 -2.1393
 5410TIP3    H237790   6.776   4.283   2.726  0.3825 -0.8733  0.8043
 5411TIP3   OH237791   3.449   0.442   2.866 -0.1206  0.1626  0.0666
 5411TIP3    H137792   3.450   0.518   2.924 -0.7404 -0.5088  1.0031
 5411TIP3    H237793   3.506   0.379   2.909  1.5077  0.5603 -1.4091
 5412TIP3   OH237794   5.547   6.544   0.309  0.2359 -0.1031 -0.0173
 5412TIP3    H137795   5.532   6.585   0.223 -0.4381  0.6778  0.4522
 5412TIP3    H237796   5.503   6.459   0.303  1.9673 -0.9977 -1.1341
 5413TIP3   OH237797   2.405   3.129   3.319  0.3837 -0.6417 -0.2376
 5413TIP3    H137798   2.383   3.211   3.276  3.8813  0.5422 -0.0907
 5413TIP3    H237799   2.473   3.090   3.265  0.4102 -2.3221  0.9137
 5414TIP3   OH237800   2.871   2.559   4.292 -0.0558 -0.6794  0.4266
 5414TIP3    H137801   2.820   2.610   4.230  0.4957 -2.9975 -2.1512
 5414TIP3    H237802   2.957   2.602   4.294 -0.0257 -0.6760 -0.5816
 5415TIP3   OH237803   6.902   6.646   2.813 -0.3161  0.3053 -0.5297
 5415TIP3    H137804   6.971   6.598   2.767  0.1654  2.5878 -2.3709
 5415TIP3    H237805   6.832   6.582   2.823  1.2606 -1.5222 -0.4144
 5416TIP3   OH237806   4.648   5.285   2.748 -0.7259  0.0151 -0.3258
 5416TIP3    H137807   4.681   5.203   2.711 -0.7457  0.2437 -0.8536
 5416TIP3    H237808   4.554   5.284   2.730 -0.7683  0.0375 -0.1089
 5417TIP3   OH237809   6.001   1.030   4.239  0.1219  0.1923 -0.4537
 5417TIP3    H137810   6.041   0.943   4.230  0.8440  0.5464 -0.7630
 5417TIP3    H237811   6.073   1.086   4.267  0.1236  1.0809 -2.1307
 5418TIP3   OH237812   6.566   6.823   0.533 -0.6034  0.2219 -0.1907
 5418TIP3    H137813   6.649   6.775   0.522 -0.8441 -0.0450 -0.9644
 5418TIP3    H237814   6.547   6.856   0.445 -1.4967 -0.0183 -0.0934
 5419TIP3   OH237815   2.496   6.117   4.468 -0.4048  0.7652  0.3447
 5419TIP3    H137816   2.433   6.139   4.536 -1.9670 -1.2380 -0.3369
 5419TIP3    H237817   2.486   6.023   4.455  1.3516  0.7111 -1.1927
 5420TIP3   OH237818   3.622   0.263   0.727  0.1067 -0.4013  0.3904
 5420TIP3    H137819   3.674   0.330   0.682 -1.4552 -0.7135 -2.0614
 5420TIP3    H237820   3.652   0.180   0.690 -0.0843 -0.8159  1.1451
 5421TIP3   OH237821   5.609   3.290   0.521 -0.2341 -0.6193  0.0536
 5421TIP3    H137822   5.620   3.196   0.532 -2.0900 -0.9359 -0.5252
 5421TIP3    H237823   5.621   3.306   0.428 -0.1939 -0.3201  0.1067
 5422TIP3   OH237824   4.300   1.778   3.497 -0.1224 -0.0070  0.4057
 5422TIP3    H137825   4.343   1.850   3.451  0.2816  0.1630  1.0287
 5422TIP3    H237826   4.207   1.790   3.478 -0.0663  0.7361  0.5666
 5423TIP3   OH237827   0.719   5.855   3.983 -0.5783  0.0765  0.3455
 5423TIP3    H137828   0.793   5.799   4.007  0.1084 -0.2119 -2.1810
 5423TIP3    H237829   0.759   5.937   3.955 -1.0870 -0.3698 -1.8421
 5424TIP3   OH237830   4.380   3.988   8.152  0.3249  0.3972 -0.4126
 5424TIP3    H137831   4.336   4.069   8.176  0.1009  0.5967 -1.4496
 5424TIP3    H237832   4.463   4.016   8.113  0.0064  0.1716 -1.2813
 5425TIP3   OH237833   0.014   6.159   4.638 -0.7438 -0.1582 -0.2184
 5425TIP3    H137834   0.096   6.195   4.604 -0.9495  0.4848 -0.0546
 5425TIP3    H237835   0.041   6.082   4.689 -0.2817 -0.1881 -0.5009
 5426TIP3   OH237836   6.893   6.074   2.355 -0.0395 -0.3268  0.2421
 5426TIP3    H137837   6.934   6.107   2.276  0.7576  0.8586  1.1189
 5426TIP3    H237838   6.962   6.024   2.399  0.0186  0.3306  0.9326
 5427TIP3   OH237839   5.102   0.473   8.432 -0.4819  0.5211  0.7485
 5427TIP3    H137840   5.016   0.498   8.399 -0.4903  1.1133  1.2040
 5427TIP3    H237841   5.158   0.474   8.354 -0.4481  2.1507  0.7567
 5428TIP3   OH237842   4.443   1.925   2.558 -0.3203 -0.1076 -0.4942
 5428TIP3    H137843   4.536   1.911   2.541 -0.5380  1.0839 -3.3296
 5428TIP3    H237844   4.414   1.846   2.603  1.3629 -2.1577 -2.7451
 5429TIP3   OH237845   6.900   2.222   2.184  0.1539 -1.2976 -0.2770
 5429TIP3    H137846   6.862   2.308   2.166 -1.7590 -2.0141  0.1138
 5429TIP3    H237847   6.973   2.240   2.244 -0.3530  0.0244 -0.0261
 5430TIP3   OH237848   4.039   1.069   3.389 -0.7707  0.4528 -0.0492
 5430TIP3    H137849   4.082   1.154   3.383 -0.9122  0.4179 -2.3279
 5430TIP3    H237850   4.110   1.005   3.387 -0.7286  0.4706  0.5667
 5431TIP3   OH237851   6.650   2.651   0.084  0.6996  0.1309  0.1720
 5431TIP3    H137852   6.652   2.684   0.174  1.1913  0.1697  0.1542
 5431TIP3    H237853   6.742   2.650   0.058  0.4797  1.2204 -0.7323
 5432TIP3   OH237854   5.314   3.160   2.773 -0.4778  0.0907 -0.2088
 5432TIP3    H137855   5.394   3.136   2.726  0.2007 -2.2161  1.9271
 5432TIP3    H237856   5.342   3.218   2.842 -0.7301 -0.1977  0.1438
 5433TIP3   OH237857   4.248   3.174   1.549  0.4146 -0.0941 -0.5252
 5433TIP3    H137858   4.267   3.267   1.540  1.5203 -0.2794 -0.3482
 5433TIP3    H237859   4.291   3.134   1.473  1.3619 -0.6165  0.2605
 5434TIP3   OH237860   2.306   0.020   1.817  0.0466  0.5040  0.0407
 5434TIP3    H137861   2.320  -0.073   1.833  1.5495  0.9663  1.9104
 5434TIP3    H237862   2.249   0.048   1.889 -0.4177  1.0343 -0.5237
 5435TIP3   OH237863   3.635   4.027   2.510  0.1134  0.4487  0.0351
 5435TIP3    H137864   3.623   4.021   2.605 -0.6302  1.7305  0.0436
 5435TIP3    H237865   3.628   4.120   2.491 -0.2272  0.1567 -1.3528
 5436TIP3   OH237866   3.878   3.540   1.061  0.2971  0.6398  0.3459
 5436TIP3    H137867   3.930   3.481   1.116 -0.4599  0.3794  0.8015
 5436TIP3    H237868   3.788   3.524   1.088 -0.3459 -0.9190 -2.3037
 5437TIP3   OH237869   0.296   3.208   2.222  0.6237 -0.5554 -0.2544
 5437TIP3    H137870   0.238   3.135   2.201  0.3878 -1.0391  1.8751
 5437TIP3    H237871   0.254   3.284   2.182 -0.4604 -1.1939 -0.3776
 5438TIP3   OH237872   5.543   3.065   2.998 -0.1024 -0.1844 -0.2437
 5438TIP3    H137873   5.566   3.157   2.983 -0.2359 -0.2421 -0.8206
 5438TIP3    H237874   5.591   3.041   3.077  0.0776  0.3308 -0.1917
 5439TIP3   OH237875   3.586   2.285   2.649 -0.0632 -0.3320 -0.4182
 5439TIP3    H137876   3.627   2.369   2.670 -3.1107  1.4645 -1.0882
 5439TIP3    H237877   3.608   2.270   2.557  1.1872 -0.7589 -0.0723
 5440TIP3   OH237878   2.452   5.605   0.683  0.0402 -0.8363 -0.0877
 5440TIP3    H137879   2.432   5.567   0.597 -0.3092  0.3273 -0.5469
 5440TIP3    H237880   2.419   5.540   0.746  0.1781 -1.6441 -0.8262
 5441TIP3   OH237881   4.020   2.342   4.249 -0.7123  0.3094 -0.1396
 5441TIP3    H137882   4.092   2.336   4.311 -0.3138  0.3663 -0.5879
 5441TIP3    H237883   3.974   2.423   4.271  0.6644  1.4304 -1.2172
 5442TIP3   OH237884   1.228   5.005   1.248  0.0084  0.3440 -0.7294
 5442TIP3    H137885   1.256   4.922   1.287  1.8316  0.6755 -1.2358
 5442TIP3    H237886   1.171   4.979   1.175 -0.7693 -0.3766  0.1015
 5443TIP3   OH237887   0.490   1.679   3.369  0.1354  0.2513 -0.3053
 5443TIP3    H137888   0.580   1.656   3.390  0.3405  0.5727 -0.8102
 5443TIP3    H237889   0.494   1.772   3.346 -0.1358  0.0063 -1.3905
 5444TIP3   OH237890   2.703   0.445   1.078 -0.1784 -0.0990  0.2141
 5444TIP3    H137891   2.623   0.497   1.083  0.6602  1.1392  1.1986
 5444TIP3    H237892   2.674   0.359   1.050 -1.6861  0.7116 -0.8139
 5445TIP3   OH237893   3.900   2.672   3.555  0.0381 -0.2710  0.0236
 5445TIP3    H137894   3.836   2.602   3.565  1.9642 -1.9532  1.5295
 5445TIP3    H237895   3.971   2.632   3.505  0.4472  1.1917 -0.6331
 5446TIP3   OH237896   3.754   6.677   3.282 -0.8007 -0.1554  0.6796
 5446TIP3    H137897   3.732   6.588   3.311 -1.2803 -0.1936  0.1925
 5446TIP3    H237898   3.733   6.732   3.357 -2.4586 -0.2036  0.2745
 5447TIP3   OH237899   2.733   0.040   2.807  0.4694  0.7166 -0.2545
 5447TIP3    H137900   2.823   0.024   2.837  0.0092 -0.4744  0.5459
 5447TIP3    H237901   2.695  -0.047   2.798 -0.0851  1.1279 -2.3088
 5448TIP3   OH237902   6.398   5.072   8.458  0.6248 -0.5462 -0.0056
 5448TIP3    H137903   6.475   5.035   8.414 -0.0701  0.1021 -1.8609
 5448TIP3    H237904   6.432   5.106   8.541  2.4446  0.1845 -0.9883
 5449TIP3   OH237905   2.189   2.242   0.999 -0.1654  0.5941  0.7506
 5449TIP3    H137906   2.164   2.196   1.079 -0.0219  2.2958  1.8352
 5449TIP3    H237907   2.113   2.235   0.942  0.7497 -3.2696 -0.3444
 5450TIP3   OH237908   2.514   4.670   1.719 -0.3424  0.3639 -0.2201
 5450TIP3    H137909   2.480   4.704   1.636  1.2718  2.2270 -0.1974
 5450TIP3    H237910   2.526   4.748   1.774  0.5232 -0.6107  1.0399
 5451TIP3   OH237911   3.136   0.221   0.674  0.2136 -0.3906  0.3096
 5451TIP3    H137912   3.205   0.156   0.658  0.3893 -0.4724  1.3787
 5451TIP3    H237913   3.082   0.217   0.595  1.6365 -0.0373 -0.7236
 5452TIP3   OH237914   1.842   5.158   3.967  0.1545  0.8294 -0.0064
 5452TIP3    H137915   1.913   5.196   3.915  0.5643  0.0014 -0.0586
 5452TIP3    H237916   1.858   5.064   3.965 -1.3156  0.5684 -0.5537
 5453TIP3   OH237917   0.350   0.830   3.717  0.1822 -0.1630 -0.3954
 5453TIP3    H137918   0.382   0.846   3.805 -3.2269 -1.7977  1.3321
 5453TIP3    H237919   0.266   0.877   3.713 -1.5363 -3.0548 -1.3214
 5454TIP3   OH237920   6.262   5.848   3.266  0.5153  0.7949 -0.5985
 5454TIP3    H137921   6.222   5.932   3.243 -0.8810  1.0270  2.2583
 5454TIP3    H237922   6.352   5.870   3.292  0.2573  1.3708 -0.1810
 5455TIP3   OH237923   1.934   4.395   3.800  0.5548 -0.3017  0.0760
 5455TIP3    H137924   1.968   4.482   3.822 -0.3960  0.3985 -1.1016
 5455TIP3    H237925   1.981   4.371   3.720  1.1693 -1.1111  0.6614
 5456TIP3   OH237926   2.225   2.733   3.138 -0.1560 -0.1229  0.3643
 5456TIP3    H137927   2.230   2.829   3.142  0.0255 -0.1195  0.0701
 5456TIP3    H237928   2.276   2.704   3.214  0.4914  0.0006 -0.0129
 5457TIP3   OH237929   0.619   1.631   2.635  0.2345  0.2337  0.6148
 5457TIP3    H137930   0.596   1.627   2.542  0.3943  1.2643  0.5261
 5457TIP3    H237931   0.714   1.618   2.636 -0.0109 -1.9796  0.8277
 5458TIP3   OH237932   2.394   3.879   2.126 -0.6081  0.5036 -0.2892
 5458TIP3    H137933   2.323   3.820   2.150 -0.8158  1.2399  0.9811
 5458TIP3    H237934   2.430   3.909   2.209  2.7563 -1.6109 -0.8202
 5459TIP3   OH237935   5.785   4.533   1.207  0.2050 -0.1611 -0.2923
 5459TIP3    H137936   5.798   4.581   1.289 -0.5710 -2.1965  1.0860
 5459TIP3    H237937   5.873   4.527   1.169  0.3993  1.8635 -0.2883
 5460TIP3   OH237938   6.485   0.650   1.148  0.2353  0.2431  0.2325
 5460TIP3    H137939   6.462   0.712   1.079 -0.6056  0.7137  0.9055
 5460TIP3    H237940   6.417   0.662   1.214  0.3510 -1.0288  0.6193
 5461TIP3   OH237941   0.324   6.696   1.376  1.1475 -0.4236 -0.3157
 5461TIP3    H137942   0.417   6.710   1.395  1.3365 -0.5356 -1.0964
 5461TIP3    H237943   0.323   6.671   1.283  0.4465 -1.6824  0.0132
 5462TIP3   OH237944   2.949   4.652   3.410 -0.2696 -0.2868  0.2508
 5462TIP3    H137945   2.936   4.712   3.483 -1.5826  0.4631 -0.5625
 5462TIP3    H237946   2.861   4.635   3.376 -0.2394 -4.1994  1.5828
 5463TIP3   OH237947   1.664   5.336   1.311 -0.4373  0.1310 -0.4190
 5463TIP3    H137948   1.700   5.270   1.252  0.1002 -2.4087  2.5041
 5463TIP3    H237949   1.585   5.367   1.268  0.3607 -0.9505 -2.8068
 5464TIP3   OH237950   4.802   6.206   3.296  0.0373 -0.7837  0.9878
 5464TIP3    H137951   4.846   6.158   3.225 -0.4830 -1.4306  1.0946
 5464TIP3    H237952   4.714   6.168   3.299 -0.9423  1.2806  0.0091
 5465TIP3   OH237953   4.682   0.134   1.170  0.0810 -0.2708  0.0436
 5465TIP3    H137954   4.759   0.175   1.129  1.6972 -2.2946  0.8986
 5465TIP3    H237955   4.670   0.053   1.121 -2.2196  0.4848 -0.7425
 5466TIP3   OH237956   5.552   3.849   2.372  0.1435  0.2997  0.3721
 5466TIP3    H137957   5.491   3.847   2.446  0.1091 -0.3977  0.3248
 5466TIP3    H237958   5.621   3.788   2.396 -0.9874 -1.6668 -1.1282
 5467TIP3   OH237959   1.835   6.207   1.801  0.2300 -0.6008  0.1826
 5467TIP3    H137960   1.760   6.148   1.790 -1.6379  1.4553  1.0391
 5467TIP3    H237961   1.849   6.209   1.895  1.2673 -0.8082  0.0372
 5468TIP3   OH237962   2.505   3.449   1.288 -0.5051 -0.2604  0.1005
 5468TIP3    H137963   2.573   3.514   1.268  1.3322 -1.3571  2.3206
 5468TIP3    H237964   2.498   3.397   1.208  0.7057  0.3844 -0.4487
 5469TIP3   OH237965   6.004   5.830   1.158  0.0412 -0.5579 -0.1922
 5469TIP3    H137966   6.087   5.829   1.206  0.5662 -2.7823 -0.9950
 5469TIP3    H237967   5.972   5.920   1.166  1.1815 -0.3011  2.4022
 5470TIP3   OH237968   5.246   2.590   1.008  0.2533  0.0390 -0.1288
 5470TIP3    H137969   5.325   2.586   1.062  0.0886 -1.1379  0.0461
 5470TIP3    H237970   5.185   2.531   1.051 -1.0128  1.5094  0.1654
 5471TIP3   OH237971   0.775   2.360   0.298 -0.4236  0.2115 -0.0700
 5471TIP3    H137972   0.743   2.450   0.307  0.9668  0.7474 -0.1584
 5471TIP3    H237973   0.824   2.360   0.216 -2.4525 -1.3142 -1.3687
 5472TIP3   OH237974   4.129   2.601   3.384 -0.3286 -0.2384 -1.0950
 5472TIP3    H137975   4.176   2.521   3.405  0.5921  0.3615 -0.7645
 5472TIP3    H237976   4.079   2.581   3.305 -2.2978 -1.9587  0.5046
 5473TIP3   OH237977   0.024   4.722   3.548 -0.7155  0.1101  0.3976
 5473TIP3    H137978   0.050   4.668   3.472 -1.2626 -0.6186  0.7153
 5473TIP3    H237979   0.086   4.795   3.547 -1.7369  1.0385 -1.7400
 5474TIP3   OH237980   1.975   4.540   0.891  0.2347  0.3533 -0.0597
 5474TIP3    H137981   1.977   4.608   0.959 -0.3800  0.2759  0.0445
 5474TIP3    H237982   1.946   4.586   0.812 -2.9208 -0.2323  0.6092
 5475TIP3   OH237983   5.717   1.149   1.803  0.2750  0.0836  0.4924
 5475TIP3    H137984   5.747   1.194   1.724 -0.0782 -0.0894  0.2556
 5475TIP3    H237985   5.641   1.200   1.832 -0.1216 -0.3518  0.2281
 5476TIP3   OH237986   5.405   4.896   0.941  0.3854  0.0241  0.6418
 5476TIP3    H137987   5.382   4.939   0.859 -2.1864  0.8330  1.6687
 5476TIP3    H237988   5.450   4.963   0.993  0.2303  0.1487  0.6171
 5477TIP3   OH237989   3.574   5.469   1.948  0.4035  0.5742  0.0184
 5477TIP3    H137990   3.651   5.439   1.997  0.0685  0.6908  0.6226
 5477TIP3    H237991   3.568   5.562   1.967 -0.3123  0.4242  0.5646
 5478TIP3   OH237992   3.814   6.887   2.794 -0.5381 -0.2750 -0.3887
 5478TIP3    H137993   3.735   6.845   2.760  0.3219 -1.2760 -1.2656
 5478TIP3    H237994   3.826   6.849   2.881 -1.5658  0.6778  0.2071
 5479TIP3   OH237995   3.657   3.709   0.852  0.1935  0.4745 -0.5924
 5479TIP3    H137996   3.574   3.669   0.878 -0.0219  0.0548 -1.8433
 5479TIP3    H237997   3.636   3.800   0.834  0.3104  0.7267  0.4539
 5480TIP3   OH237998   2.801   6.671   0.130  0.2948  0.1717 -0.1293
 5480TIP3    H137999   2.823   6.602   0.194  1.8431  0.0642 -0.7342
 5480TIP3    H238000   2.880   6.724   0.125 -0.7659  1.8283  0.0667
 5481TIP3   OH238001   3.442   3.870   2.691 -0.0104 -0.1859 -0.7204
 5481TIP3    H138002   3.391   3.898   2.615  0.4218 -0.9009 -1.2831
 5481TIP3    H238003   3.473   3.951   2.730 -1.0491  0.2320 -0.7327
 5482TIP3   OH238004   4.595   6.566   0.875  0.4455  0.0274 -0.6677
 5482TIP3    H138005   4.682   6.572   0.916 -1.0992  1.5764  2.7974
 5482TIP3    H238006   4.545   6.508   0.933 -2.0278  2.6539  0.0294
 5483TIP3   OH238007   3.767   4.521   2.458  0.7218 -0.5317 -0.2173
 5483TIP3    H138008   3.812   4.466   2.522  0.6844 -0.2934  0.0164
 5483TIP3    H238009   3.675   4.514   2.480  0.6187 -1.1723 -0.8182
 5484TIP3   OH238010   4.499   1.055   1.633 -0.0425 -0.1122 -0.1616
 5484TIP3    H138011   4.497   1.126   1.569  0.6644  0.9790  0.9699
 5484TIP3    H238012   4.589   1.021   1.627 -0.9748 -2.5591 -2.3393
 5485TIP3   OH238013   2.453   5.783   8.468 -0.3717 -0.1698  0.2970
 5485TIP3    H138014   2.520   5.845   8.439  0.3844 -0.1418  1.9829
 5485TIP3    H238015   2.397   5.770   8.391  0.3790  1.3703 -0.5542
 5486TIP3   OH238016   4.643   1.062   0.799  0.0668  0.0571 -0.1102
 5486TIP3    H138017   4.570   1.081   0.740  0.8549  0.0066 -1.1252
 5486TIP3    H238018   4.624   0.976   0.835 -1.1735  0.7103  0.8968
 5487TIP3   OH238019   5.997   3.895   1.026  0.1820 -0.2861 -0.1102
 5487TIP3    H138020   6.075   3.937   0.989 -0.1793 -0.0804 -0.6429
 5487TIP3    H238021   6.010   3.902   1.121  0.1470  1.0114 -0.1807
 5488TIP3   OH238022   1.733   4.637   1.144 -0.2250 -0.2482 -0.1166
 5488TIP3    H138023   1.822   4.670   1.133  0.3235 -1.4562  0.5166
 5488TIP3    H238024   1.695   4.692   1.213  0.2761 -0.1938  0.1171
 5489TIP3   OH238025   5.808   3.485   0.960  0.3615  0.0867 -0.3985
 5489TIP3    H138026   5.793   3.390   0.959  1.3649 -0.1060 -2.2064
 5489TIP3    H238027   5.827   3.507   0.868  0.6150  1.9673  0.0672
 5490TIP3   OH238028   0.391   6.531   3.313 -0.5765  0.3473  0.0357
 5490TIP3    H138029   0.472   6.567   3.350  1.3938 -3.7146  0.1434
 5490TIP3    H238030   0.378   6.581   3.232  1.9001  1.3091  0.1445
 5491TIP3   OH238031   5.854   0.710   0.872 -0.9055 -0.4906  0.0825
 5491TIP3    H138032   5.838   0.645   0.804 -0.0394 -1.8108  1.0844
 5491TIP3    H238033   5.948   0.725   0.870 -1.2420  1.9947 -1.1785
 5492TIP3   OH238034   1.551   3.638   3.043 -0.4182  0.1316  0.6630
 5492TIP3    H138035   1.469   3.635   3.091  0.8424  2.9175  3.2969
 5492TIP3    H238036   1.577   3.730   3.044  2.3460 -0.5129 -0.8077
 5493TIP3   OH238037   4.427   0.045   1.399 -0.3939 -0.0669 -0.0420
 5493TIP3    H138038   4.460  -0.005   1.325 -2.9362 -0.9273 -0.6848
 5493TIP3    H238039   4.467   0.132   1.389  0.1917 -0.4943 -1.7676
 5494TIP3   OH238040   4.815   6.366   1.784 -0.6520  0.4317 -0.0858
 5494TIP3    H138041   4.839   6.448   1.741  0.7833  0.1859  0.2115
 5494TIP3    H238042   4.889   6.307   1.769 -1.4839 -0.6892  0.0469
 5495TIP3   OH238043   4.552   3.320   2.220  0.5558  0.7108  0.1368
 5495TIP3    H138044   4.494   3.391   2.247  1.7627  1.6653  0.3068
 5495TIP3    H238045   4.547   3.320   2.124  1.5855  1.9516  0.0650
 5496TIP3   OH238046   6.064   1.663   3.725 -0.0283 -0.0077 -0.2411
 5496TIP3    H138047   6.033   1.581   3.689  0.6393 -0.7925  0.8866
 5496TIP3    H238048   5.991   1.724   3.713 -0.5527 -0.7688 -1.0373
 5497TIP3   OH238049   2.553   0.452   1.349  0.0635  0.3678 -0.0351
 5497TIP3    H138050   2.581   0.491   1.431 -0.0550 -0.0352  0.1983
 5497TIP3    H238051   2.530   0.362   1.371  1.1076 -0.0912 -0.7020
 5498TIP3   OH238052   1.474   5.311   0.795  1.0790 -0.3714 -0.1307
 5498TIP3    H138053   1.563   5.290   0.824  1.5282 -0.4348 -1.4786
 5498TIP3    H238054   1.468   5.406   0.804  1.8830 -0.1540 -1.5474
 5499TIP3   OH238055   2.363   2.617   1.077 -0.5165 -0.3869 -0.2286
 5499TIP3    H138056   2.436   2.667   1.042 -1.6395  1.1111 -0.5532
 5499TIP3    H238057   2.298   2.683   1.101 -0.3525 -1.3720  3.5660
 5500TIP3   OH238058   3.259   1.457   3.768 -0.2834  0.1800  0.2744
 5500TIP3    H138059   3.213   1.530   3.809  0.3814  0.9538 -0.3239
 5500TIP3    H238060   3.351   1.483   3.767  0.4044 -1.8122  2.4740
 5501TIP3   OH238061   5.984   0.200   1.072 -0.5768  0.4302  0.1581
 5501TIP3    H138062   5.963   0.119   1.118 -0.1991  1.4790  2.3179
 5501TIP3    H238063   5.899   0.239   1.051 -0.7670  0.2106  0.5078
 5502TIP3   OH238064   1.471   1.286   1.042 -0.1794 -0.6399  0.5417
 5502TIP3    H138065   1.553   1.237   1.038  0.1306 -0.0727 -0.1596
 5502TIP3    H238066   1.407   1.222   1.076  0.4026 -1.2670  0.4834
 5503TIP3   OH238067   1.916   1.895   3.179 -0.5652 -0.4619 -0.3644
 5503TIP3    H138068   1.987   1.876   3.118 -1.0642  0.4076 -1.2442
 5503TIP3    H238069   1.944   1.856   3.262  0.6954 -0.5729 -0.8278
 5504TIP3   OH238070   3.581   2.361   0.956  0.2501  0.3434  0.6615
 5504TIP3    H138071   3.527   2.439   0.947  0.2646  0.6188  2.5445
 5504TIP3    H238072   3.653   2.374   0.894 -1.2281  0.4463 -1.1430
 5505TIP3   OH238073   1.507   3.719   2.260 -0.0277  0.2653  0.0477
 5505TIP3    H138074   1.432   3.745   2.313  0.8528  0.8489  1.0581
 5505TIP3    H238075   1.583   3.757   2.306  0.8126  0.3783 -1.3778
 5506TIP3   OH238076   4.338   3.022   3.286  0.5329 -0.3091  0.0755
 5506TIP3    H138077   4.355   3.115   3.300 -2.2078  0.2845  0.0549
 5506TIP3    H238078   4.342   2.984   3.373 -0.9350  0.3689  0.4672
 5507TIP3   OH238079   4.644   3.365   1.327 -0.0531 -0.2167  0.1074
 5507TIP3    H138080   4.625   3.402   1.413 -0.9122 -0.3292 -0.0287
 5507TIP3    H238081   4.683   3.437   1.278  0.5523 -0.1829  0.6199
 5508TIP3   OH238082   6.207   6.616   4.088 -0.2447 -0.0525  0.0856
 5508TIP3    H138083   6.298   6.642   4.099  0.4182 -0.7895 -2.7556
 5508TIP3    H238084   6.199   6.535   4.138  0.3816  0.4994  1.1049
 5509TIP3   OH238085   2.280   4.701   4.215 -0.4406  1.1454 -0.0552
 5509TIP3    H138086   2.305   4.730   4.303  0.0628 -0.9967  0.5863
 5509TIP3    H238087   2.266   4.781   4.166 -1.0019  2.4184  2.0471
 5510TIP3   OH238088   2.756   0.105   2.002  1.0025  0.0897  0.3534
 5510TIP3    H138089   2.849   0.101   1.980  0.8904 -0.8305 -0.0164
 5510TIP3    H238090   2.711   0.092   1.919  0.5698 -2.4626  0.8918
 5511TIP3   OH238091   5.691   0.804   2.951 -0.1781  0.4323  0.0270
 5511TIP3    H138092   5.681   0.715   2.917  0.3700  0.2474  0.3379
 5511TIP3    H238093   5.617   0.816   3.010  0.5630 -0.3704  1.1547
 5512TIP3   OH238094   5.914   4.228   0.793 -0.0655  0.6989  0.0898
 5512TIP3    H138095   6.003   4.204   0.817  0.1748 -0.9810 -2.1314
 5512TIP3    H238096   5.860   4.156   0.825 -0.5959  1.4931  1.0332
 5513TIP3   OH238097   3.630   0.484   1.521  0.3156 -0.6886  0.0269
 5513TIP3    H138098   3.638   0.393   1.550  2.0366 -0.7134 -0.4199
 5513TIP3    H238099   3.578   0.527   1.590 -1.1559 -2.1394 -0.1188
 5514TIP3   OH238100   5.152   5.546   1.087 -0.9109  0.1637 -0.5353
 5514TIP3    H138101   5.167   5.546   1.182  2.4621  0.4354 -0.9416
 5514TIP3    H238102   5.122   5.457   1.068  0.2099 -0.4822  0.5737
 5515TIP3   OH238103   2.506   6.099   3.430 -0.7345  0.5324  0.2851
 5515TIP3    H138104   2.596   6.128   3.446 -0.0084 -1.2570 -0.3256
 5515TIP3    H238105   2.452   6.170   3.464  0.8949  1.4471  1.0979
 5516TIP3   OH238106   0.360   2.254   1.602  0.2757 -0.1225  0.4986
 5516TIP3    H138107   0.404   2.332   1.635  0.7197  0.2863 -0.9898
 5516TIP3    H238108   0.272   2.259   1.638 -0.9885  3.1235 -2.5214
 5517TIP3   OH238109   4.471   1.032   3.467  0.0560 -0.3989  0.1314
 5517TIP3    H138110   4.379   1.057   3.469 -0.6452 -2.4623 -1.8732
 5517TIP3    H238111   4.503   1.062   3.382  1.0096 -0.4096  0.4732
 5518TIP3   OH238112   4.091   5.528   2.477  0.0896  0.2892  0.0068
 5518TIP3    H138113   4.148   5.499   2.406 -0.4044  0.8343 -0.6184
 5518TIP3    H238114   4.006   5.488   2.459  0.2619 -0.5225  0.9367
 5519TIP3   OH238115   3.247   1.752   1.770  0.7716  0.4873 -0.3811
 5519TIP3    H138116   3.223   1.844   1.772 -1.3328 -0.0027 -0.6238
 5519TIP3    H238117   3.244   1.724   1.862  2.4340  0.8766 -0.1905
 5520TIP3   OH238118   0.137   3.903   3.834 -0.3556 -0.0695  0.1147
 5520TIP3    H138119   0.130   3.952   3.751  1.3103  0.4113  0.2371
 5520TIP3    H238120   0.228   3.913   3.861 -0.7992 -0.4573  1.8837
 5521TIP3   OH238121   1.695   5.504   0.968  0.3437 -0.5221 -0.2215
 5521TIP3    H138122   1.655   5.451   1.037  1.6161 -0.8172  0.3102
 5521TIP3    H238123   1.620   5.537   0.918 -0.6567  0.2176  1.6448
 5522TIP3   OH238124   2.559   0.116   1.797 -0.3769  0.2528  0.2302
 5522TIP3    H138125   2.597   0.153   1.718  0.7238  2.4509  1.6799
 5522TIP3    H238126   2.470   0.092   1.772 -0.1811  1.2166 -1.5544
 5523TIP3   OH238127   4.128   6.277   3.308 -0.3810 -0.2285 -0.3452
 5523TIP3    H138128   4.216   6.309   3.288 -1.1234  0.9771 -1.9120
 5523TIP3    H238129   4.125   6.189   3.270  0.3771 -0.5724  0.3817
 5524TIP3   OH238130   0.905   6.687   0.803 -0.1717 -0.4409 -0.0598
 5524TIP3    H138131   0.913   6.650   0.716  0.7449 -2.1431  0.6956
 5524TIP3    H238132   0.917   6.781   0.791 -1.8074 -0.4229 -1.9500
 5525TIP3   OH238133   4.058   6.059   0.250 -0.2660 -0.4421 -0.8907
 5525TIP3    H138134   4.051   5.973   0.290  0.9103  0.4317  1.3598
 5525TIP3    H238135   3.970   6.097   0.261 -1.7150 -2.3094 -4.5548
 5526TIP3   OH238136   6.215   1.699   1.477  0.1221 -0.1601  0.0989
 5526TIP3    H138137   6.171   1.619   1.448  1.9797 -1.0349 -0.4519
 5526TIP3    H238138   6.244   1.742   1.397 -1.8254  1.7450  0.3058
 5527TIP3   OH238139   5.413   0.423   4.426  0.3828  0.2053 -0.7903
 5527TIP3    H138140   5.496   0.469   4.434  0.1534  0.3719  1.3303
 5527TIP3    H238141   5.369   0.439   4.510 -1.5150 -0.4095 -1.6131
 5528TIP3   OH238142   4.010   1.814   2.508  0.3689 -0.1563 -0.5332
 5528TIP3    H138143   3.986   1.774   2.424  2.9957 -1.3060 -0.8417
 5528TIP3    H238144   4.065   1.889   2.484  1.8860 -1.0194  0.1159
 5529TIP3   OH238145   5.272   6.491   1.409  0.1085  0.2261 -0.4508
 5529TIP3    H138146   5.177   6.502   1.405  0.0788 -0.3244 -1.6327
 5529TIP3    H238147   5.285   6.423   1.475 -0.3804 -0.3409 -0.9296
 5530TIP3   OH238148   4.499   6.556   1.716  0.8241 -0.0370  0.4704
 5530TIP3    H138149   4.462   6.498   1.650  0.8197  0.6258 -0.1256
 5530TIP3    H238150   4.449   6.637   1.707  1.7583  0.5355  0.3286
 5531TIP3   OH238151   0.094   0.598   2.537 -0.5113  0.2560  0.2637
 5531TIP3    H138152   0.041   0.635   2.466 -1.5055 -1.4130  0.0665
 5531TIP3    H238153   0.045   0.617   2.616 -0.3962  0.4186  0.2966
 5532TIP3   OH238154   5.455   3.529   3.659 -0.4820 -0.1885 -0.6531
 5532TIP3    H138155   5.363   3.502   3.662 -0.1000 -1.7631 -1.7482
 5532TIP3    H238156   5.488   3.491   3.578  1.3966 -0.5024  0.2206
 5533TIP3   OH238157   4.533   6.526   3.752  0.5955 -0.3339 -0.0898
 5533TIP3    H138158   4.598   6.461   3.779 -0.4123 -1.8745 -1.1711
 5533TIP3    H238159   4.449   6.485   3.773 -0.0959  0.1096 -1.8511
 5534TIP3   OH238160   6.052   4.164   4.753  0.4675 -0.0615  0.0405
 5534TIP3    H138161   6.011   4.107   4.687  0.6412 -0.5844  0.3729
 5534TIP3    H238162   5.997   4.153   4.831 -1.0316  2.2234 -0.5996
 5535TIP3   OH238163   4.842   4.452   4.157  0.9382 -0.1879  0.1451
 5535TIP3    H138164   4.915   4.403   4.193  0.1920 -1.2579  0.2400
 5535TIP3    H238165   4.815   4.511   4.228  1.8971  0.4480 -0.0035
 5536TIP3   OH238166   4.551   3.232   4.382  0.0778  0.7547 -0.2100
 5536TIP3    H138167   4.494   3.190   4.447 -0.4910 -0.2868 -1.3366
 5536TIP3    H238168   4.633   3.248   4.430 -0.4465  0.3682  0.8661
 5537TIP3   OH238169   3.931   4.376   1.934  0.1922 -0.0298  0.4129
 5537TIP3    H138170   3.951   4.329   2.015  0.2532 -3.5989 -1.4738
 5537TIP3    H238171   3.864   4.322   1.891  1.6539  0.5300 -2.8494
 5538TIP3   OH238172   0.135   1.086   2.855  0.1988 -0.3722  0.8461
 5538TIP3    H138173   0.137   1.066   2.762  0.8462  0.6215  0.6364
 5538TIP3    H238174   0.061   1.035   2.889 -1.4526  0.9513 -0.5880
 5539TIP3   OH238175   2.117   4.428   3.417  0.1152  0.3706 -0.2461
 5539TIP3    H138176   2.099   4.522   3.422 -1.3784  0.3059 -2.8445
 5539TIP3    H238177   2.065   4.390   3.488  0.7801  1.4535  0.8735
 5540TIP3   OH238178   0.260   1.380   1.878 -0.0045  0.3070 -0.0374
 5540TIP3    H138179   0.196   1.312   1.858  1.5808 -1.6347  1.1825
 5540TIP3    H238180   0.330   1.335   1.924  2.6003  2.2021 -1.8333
 5541TIP3   OH238181   4.386   0.415   3.293  0.3548 -0.0610  0.1184
 5541TIP3    H138182   4.422   0.361   3.364  0.3039  1.6026  1.4758
 5541TIP3    H238183   4.445   0.401   3.220  0.8609 -1.2345  0.7187
 5542TIP3   OH238184   3.356   6.541   1.304  0.2928 -0.1861 -0.8355
 5542TIP3    H138185   3.369   6.618   1.360 -1.1040 -1.9391  2.1968
 5542TIP3    H238186   3.429   6.482   1.327 -0.3246 -0.9557 -0.7842
 5543TIP3   OH238187   2.536   5.842   0.744  0.3217  0.1499  0.4144
 5543TIP3    H138188   2.511   5.753   0.720  0.9600 -0.9257  3.2502
 5543TIP3    H238189   2.629   5.847   0.725  0.3485  0.0886  0.5255
 5544TIP3   OH238190   4.809   3.940   3.993 -0.9632 -0.3683 -0.6433
 5544TIP3    H138191   4.806   4.018   4.049  0.9572 -1.3927  1.0024
 5544TIP3    H238192   4.831   3.974   3.906  2.3976  0.8265  0.5215
 5545TIP3   OH238193   3.169   6.140   0.858 -0.5265 -0.4532  0.3804
 5545TIP3    H138194   3.233   6.194   0.904  1.9379 -2.4077 -0.5806
 5545TIP3    H238195   3.156   6.064   0.915 -0.2750 -1.1175 -0.4343
 5546TIP3   OH238196   6.736   0.930   1.047  0.3076 -0.4566 -0.4844
 5546TIP3    H138197   6.798   0.958   1.113  0.5986  0.3528 -1.0809
 5546TIP3    H238198   6.675   1.003   1.038  0.0005 -0.7399 -0.7897
 5547TIP3   OH238199   1.845   4.848   4.481 -0.0921 -0.3407  0.2724
 5547TIP3    H138200   1.884   4.935   4.490  0.3441 -0.6415  1.4088
 5547TIP3    H238201   1.917   4.787   4.496 -0.8769 -0.8996  2.0633
 5548TIP3   OH238202   2.781   4.063   8.153  0.0344 -0.3238  0.7537
 5548TIP3    H138203   2.858   4.104   8.116  0.5493 -1.6712  0.2590
 5548TIP3    H238204   2.798   3.969   8.145 -1.2084 -0.6439  1.5734
 5549TIP3   OH238205   5.982   2.922   1.457  0.1705 -0.4083  0.4778
 5549TIP3    H138206   5.911   2.919   1.393  0.7479 -0.8375 -0.1627
 5549TIP3    H238207   5.955   2.862   1.527 -1.3155  1.4647  1.5708
 5550TIP3   OH238208   4.658   3.765   3.657 -0.1807 -0.5878  0.1401
 5550TIP3    H138209   4.750   3.753   3.679 -0.1494 -1.0424 -0.2292
 5550TIP3    H238210   4.612   3.749   3.739  0.0387 -0.8423  0.2166
 5551TIP3   OH238211   0.129   6.264   4.225  0.2154  0.0230 -0.3289
 5551TIP3    H138212   0.131   6.185   4.279  1.3094 -0.5748 -1.2127
 5551TIP3    H238213   0.102   6.334   4.286  2.2638 -0.4618  1.2381
 5552TIP3   OH238214   1.134   0.506   8.465  0.5004  0.1469 -0.5283
 5552TIP3    H138215   1.067   0.438   8.453 -0.6486  1.2679 -0.6649
 5552TIP3    H238216   1.132   0.557   8.384  1.7340  0.0389 -0.6455
 5553TIP3   OH238217   4.272   3.403   1.744  0.1094  0.3193 -0.7928
 5553TIP3    H138218   4.363   3.382   1.767 -0.0295  0.8146  0.2648
 5553TIP3    H238219   4.277   3.492   1.710 -0.0290  0.4990 -0.3509
 5554TIP3   OH238220   2.682   4.858   3.126  0.5614  0.2281 -0.1366
 5554TIP3    H138221   2.630   4.888   3.200 -1.1111  2.0111 -1.9001
 5554TIP3    H238222   2.684   4.933   3.066  3.8367 -0.3163 -0.9179
 5555TIP3   OH238223   3.734   6.916   3.440 -0.2747  0.6155  0.2605
 5555TIP3    H138224   3.807   6.924   3.380  0.2907  2.8790  1.1222
 5555TIP3    H238225   3.756   6.976   3.512 -1.7441 -0.6423  1.8393
 5556TIP3   OH238226   6.211   2.787   3.240  0.1626  0.4162  0.0242
 5556TIP3    H138227   6.283   2.838   3.202 -0.4856  1.6597  0.4069
 5556TIP3    H238228   6.242   2.697   3.236  2.2654  0.9978  1.3033
 5557TIP3   OH238229   0.854   0.099   4.609  0.8608 -0.2810 -0.9284
 5557TIP3    H138230   0.774   0.151   4.612  0.4707 -0.9179  0.2333
 5557TIP3    H238231   0.837   0.025   4.668  3.2737  0.9599  1.5526
 5558TIP3   OH238232   1.895   0.228   1.953  0.0055 -0.1121 -0.2140
 5558TIP3    H138233   1.845   0.211   1.873 -0.6214  1.8458 -0.2936
 5558TIP3    H238234   1.929   0.317   1.941 -2.2918  1.3178  2.7448
 5559TIP3   OH238235   6.380   3.121   0.467  0.3753  0.0213  0.0109
 5559TIP3    H138236   6.455   3.078   0.426 -0.3059  0.0158 -1.2828
 5559TIP3    H238237   6.310   3.114   0.402 -0.1729  1.8202  0.3473
 5560TIP3   OH238238   2.158   3.498   0.487 -0.4833  0.2771  0.2321
 5560TIP3    H138239   2.144   3.427   0.550 -0.2785  0.1954  0.1858
 5560TIP3    H238240   2.106   3.570   0.521  0.7738  0.7252  1.2896
 5561TIP3   OH238241   6.827   6.536   1.912 -0.5302 -0.3098  0.1365
 5561TIP3    H138242   6.884   6.506   1.982 -0.9840  0.8464  1.0337
 5561TIP3    H238243   6.830   6.632   1.918 -1.1871 -0.2040 -0.9248
 5562TIP3   OH238244   4.701   1.313   1.825 -0.6652  0.2465  0.2093
 5562TIP3    H138245   4.783   1.263   1.812 -0.0136  1.5485 -0.9692
 5562TIP3    H238246   4.638   1.247   1.855  0.4781 -1.0593 -0.1085
 5563TIP3   OH238247   3.458   1.093   0.633 -0.1975 -0.1307  0.3893
 5563TIP3    H138248   3.445   1.003   0.665 -1.0362  0.1563  0.8929
 5563TIP3    H238249   3.453   1.147   0.712  1.2455  0.2973  0.2223
 5564TIP3   OH238250   2.166   6.452   3.515 -0.0695 -0.3018  0.2950
 5564TIP3    H138251   2.125   6.412   3.592 -1.0451  0.5288  0.2188
 5564TIP3    H238252   2.164   6.546   3.533 -0.4179 -0.0912 -0.7819
 5565TIP3   OH238253   3.404   0.332   0.545 -0.1016  0.1196  0.3219
 5565TIP3    H138254   3.457   0.310   0.621 -0.9324  0.8567  1.1322
 5565TIP3    H238255   3.357   0.251   0.524  0.4016 -0.1863  0.3453
 5566TIP3   OH238256   3.089   6.411   4.439  0.4605 -0.4552 -0.1228
 5566TIP3    H138257   3.010   6.420   4.385 -0.5093  0.8530  1.4038
 5566TIP3    H238258   3.076   6.329   4.486 -0.7546  0.4241  1.1786
 5567TIP3   OH238259   5.561   6.713   3.628 -0.8103  0.1755  0.1558
 5567TIP3    H138260   5.598   6.627   3.649 -2.8544 -0.8056  0.0704
 5567TIP3    H238261   5.630   6.758   3.579  0.3561 -1.3838  0.2799
 5568TIP3   OH238262   0.586   2.972   3.014 -0.0147  0.1503  0.0595
 5568TIP3    H138263   0.626   3.051   2.978 -1.7681  1.3659  0.6550
 5568TIP3    H238264   0.657   2.930   3.063  0.6475  2.0265  0.7956
 5569TIP3   OH238265   2.920   1.916   1.468  0.3330  0.1163 -0.5480
 5569TIP3    H138266   2.940   1.892   1.559  0.1036  0.4489 -0.4088
 5569TIP3    H238267   2.926   1.833   1.420 -1.1887 -0.3776  0.0583
 5570TIP3   OH238268   1.040   1.517   4.389  0.3189  0.6252  0.4511
 5570TIP3    H138269   1.080   1.442   4.432  0.3121  0.0974 -0.4375
 5570TIP3    H238270   0.973   1.479   4.331 -0.3653  1.3794  0.7228
 5571TIP3   OH238271   2.862   5.444   8.429 -0.2201 -0.9364 -0.0165
 5571TIP3    H138272   2.950   5.481   8.433 -0.4816 -0.1566 -0.8865
 5571TIP3    H238273   2.832   5.464   8.340 -0.2884 -3.5488 -0.6615
 5572TIP3   OH238274   1.653   2.260   0.626 -0.1646 -0.0890 -0.4905
 5572TIP3    H138275   1.712   2.230   0.558  1.0519  1.1629 -0.0355
 5572TIP3    H238276   1.711   2.291   0.697 -1.3599  0.2905  0.3620
 5573TIP3   OH238277   4.517   2.289   2.405 -0.2097 -0.1260  0.6665
 5573TIP3    H138278   4.552   2.258   2.488 -0.1051  2.6836  1.7736
 5573TIP3    H238279   4.449   2.351   2.429 -1.3672 -0.4772 -1.4055
 5574TIP3   OH238280   5.176   4.590   4.403 -0.1329 -0.0369  0.6188
 5574TIP3    H138281   5.140   4.538   4.331 -0.0577 -0.1814  0.6855
 5574TIP3    H238282   5.110   4.657   4.420 -0.4860 -0.4497  0.9034
 5575TIP3   OH238283   2.403   5.581   2.036  0.0609 -0.0233  0.0041
 5575TIP3    H138284   2.479   5.598   2.092  0.2122 -2.4172  0.6488
 5575TIP3    H238285   2.333   5.559   2.097 -0.5709  0.0956 -0.6681
 5576TIP3   OH238286   0.451   6.441   1.014 -0.0779  0.3930 -0.1666
 5576TIP3    H138287   0.400   6.435   0.933 -0.8632  0.9886  0.2729
 5576TIP3    H238288   0.481   6.351   1.029 -0.3543  0.1755 -0.8406
 5577TIP3   OH238289   6.163   1.060   0.941  0.4513 -0.3665 -0.0485
 5577TIP3    H138290   6.089   1.002   0.957  1.1056 -1.2623 -0.1629
 5577TIP3    H238291   6.199   1.031   0.857  1.5125 -0.6119  0.4664
 5578TIP3   OH238292   4.576   6.194   4.289  0.0114  0.5447  0.6877
 5578TIP3    H138293   4.605   6.228   4.373 -1.3588  0.4546  1.2194
 5578TIP3    H238294   4.515   6.260   4.255 -1.5975 -0.6480  1.0837
 5579TIP3   OH238295   0.872   3.463   2.816 -0.4366 -0.2422 -0.6153
 5579TIP3    H138296   0.950   3.412   2.796 -0.2857 -0.9070  1.4457
 5579TIP3    H238297   0.855   3.447   2.909 -3.9320 -1.3608 -1.2928
 5580TIP3   OH238298   0.732   3.712   3.109 -0.1013  0.0664  0.4130
 5580TIP3    H138299   0.662   3.664   3.065  0.7953 -0.4854 -0.4589
 5580TIP3    H238300   0.693   3.796   3.132 -1.1317 -0.3469  0.2168
 5581TIP3   OH238301   4.440   3.057   3.537  0.0478  0.1759  0.1376
 5581TIP3    H138302   4.487   3.012   3.608  0.7403  1.1864  0.3427
 5581TIP3    H238303   4.509   3.099   3.486 -0.6130  1.5693  0.3558
 5582TIP3   OH238304   0.946   5.871   1.754 -0.2437  0.2510  0.5778
 5582TIP3    H138305   1.032   5.834   1.772 -0.7521 -1.0430  0.4092
 5582TIP3    H238306   0.885   5.812   1.797 -1.0752  1.0002  0.4511
 5583TIP3   OH238307   2.705   6.197   2.394 -0.3065 -0.3142  0.3894
 5583TIP3    H138308   2.781   6.254   2.381 -0.8345  0.9136  2.2325
 5583TIP3    H238309   2.742   6.115   2.428  0.3240 -0.4810 -0.6541
 5584TIP3   OH238310   6.925   5.809   0.866 -0.1398 -0.0982 -0.0979
 5584TIP3    H138311   7.012   5.850   0.870  0.3916 -1.1055 -0.7332
 5584TIP3    H238312   6.905   5.787   0.957  0.7072 -0.7013 -0.0424
 5585TIP3   OH238313   0.439   0.039   3.108  0.1576 -0.9045  0.0687
 5585TIP3    H138314   0.359   0.027   3.158  1.1420 -2.5430  1.3337
 5585TIP3    H238315   0.490  -0.040   3.125  2.8446  0.8629  0.8211
 5586TIP3   OH238316   1.510   2.917   4.070 -0.8501  0.0886  0.0850
 5586TIP3    H138317   1.537   2.901   3.980 -0.7774 -1.1984  0.3164
 5586TIP3    H238318   1.532   3.008   4.086  0.2352 -0.0000 -0.8206
 5587TIP3   OH238319   1.114   4.145   4.863 -0.6785  0.3827 -0.3491
 5587TIP3    H138320   1.121   4.113   4.773  2.2279 -0.2065 -0.0082
 5587TIP3    H238321   1.178   4.217   4.868 -0.8830  0.4850  1.1982
 5588TIP3   OH238322   3.201   4.897   3.426 -0.3029 -0.0465  0.8700
 5588TIP3    H138323   3.113   4.886   3.389  0.1308 -0.8363  0.0044
 5588TIP3    H238324   3.217   4.814   3.472  0.5084 -0.4844 -0.1631
 5589TIP3   OH238325   1.502   1.874   2.466 -0.1005  0.1667  0.3102
 5589TIP3    H138326   1.502   1.965   2.495  0.7884  0.2844 -0.0423
 5589TIP3    H238327   1.443   1.830   2.528 -0.5960  0.9840  0.4389
 5590TIP3   OH238328   5.732   6.058   2.389 -0.4533 -0.4168 -0.0391
 5590TIP3    H138329   5.736   6.099   2.476 -2.7653 -0.1058 -0.0221
 5590TIP3    H238330   5.814   6.084   2.347 -0.0756  0.9192  1.4205
 5591TIP3   OH238331   0.897   0.769   1.686 -0.0530  0.0916  0.4039
 5591TIP3    H138332   0.868   0.696   1.631 -0.2556 -0.7137  1.5405
 5591TIP3    H238333   0.863   0.847   1.642 -0.1517 -0.5201 -0.6413
 5592TIP3   OH238334   4.572   4.822   8.428  0.2835  0.4531 -0.0954
 5592TIP3    H138335   4.654   4.778   8.451  0.0079  0.1273  0.2805
 5592TIP3    H238336   4.518   4.814   8.506 -0.6551 -0.6223 -0.8184
 5593TIP3   OH238337   6.777   6.033   1.863 -0.0330 -0.4539  0.2584
 5593TIP3    H138338   6.806   5.963   1.922 -1.6205 -1.2364  0.1732
 5593TIP3    H238339   6.715   5.989   1.804 -1.2825  1.0669  0.3748
 5594TIP3   OH238340   1.317   0.838   2.731 -0.8576 -0.0027 -0.1949
 5594TIP3    H138341   1.269   0.921   2.739 -0.7998  0.1585 -1.4246
 5594TIP3    H238342   1.250   0.774   2.705 -0.6685 -0.0802 -0.4925
 5595TIP3   OH238343   5.739   2.564   3.290 -0.0730  1.0367  0.0340
 5595TIP3    H138344   5.660   2.523   3.255  1.1661 -0.1932 -1.4429
 5595TIP3    H238345   5.761   2.632   3.227 -0.0354  1.4985  0.5369
 5596TIP3   OH238346   3.579   2.982   3.514  0.5963  0.1080 -0.0307
 5596TIP3    H138347   3.513   2.934   3.463  1.2420 -0.0628 -0.7320
 5596TIP3    H238348   3.533   3.009   3.594  0.3678 -2.2389  0.7046
 5597TIP3   OH238349   2.847   1.249   3.444 -0.4380 -0.3686 -0.0546
 5597TIP3    H138350   2.843   1.167   3.394 -2.1014 -0.3970  0.0955
 5597TIP3    H238351   2.941   1.263   3.459  0.0194 -1.1476 -1.8839
 5598TIP3   OH238352   5.360   3.897   4.767  0.0385 -0.0294  0.2865
 5598TIP3    H138353   5.421   3.971   4.762  1.4799 -1.0530  1.6579
 5598TIP3    H238354   5.344   3.872   4.676  0.6373  1.0854 -0.1403
 5599TIP3   OH238355   0.838   6.181   1.018  0.5512 -0.6378 -0.3627
 5599TIP3    H138356   0.835   6.264   0.971  1.1360 -1.0733 -1.2001
 5599TIP3    H238357   0.746   6.154   1.025  0.1589  1.0080  1.6783
 5600TIP3   OH238358   1.655   6.362   3.786 -0.6694 -0.4943  0.1889
 5600TIP3    H138359   1.711   6.436   3.805 -0.6237 -0.7430  1.0721
 5600TIP3    H238360   1.566   6.399   3.783 -0.5262 -0.1966 -0.6648
 5601TIP3   OH238361   3.538   0.885   1.659  0.3201 -0.2241 -0.3733
 5601TIP3    H138362   3.587   0.819   1.610  0.8016 -0.8354  0.8863
 5601TIP3    H238363   3.601   0.921   1.721 -0.9727 -1.7115  1.9568
 5602TIP3   OH238364   5.496   5.920   2.899 -0.4868  0.4415 -0.5184
 5602TIP3    H138365   5.496   5.952   2.989  0.7889  1.1230 -0.7212
 5602TIP3    H238366   5.427   5.971   2.855 -0.2818  1.0070 -0.2007
 5603TIP3   OH238367   4.002   5.930   0.957 -0.5621  0.3862 -0.2958
 5603TIP3    H138368   4.035   5.907   0.870 -2.0448 -0.5245 -0.6396
 5603TIP3    H238369   3.997   6.026   0.956  0.6096  0.4698 -0.7396
 5604TIP3   OH238370   1.783   3.239   4.560 -0.0571  0.2114 -0.2905
 5604TIP3    H138371   1.865   3.279   4.589 -0.0853  0.9983 -1.2365
 5604TIP3    H238372   1.757   3.181   4.632  2.3672 -1.6297 -0.7951
 5605TIP3   OH238373   6.507   5.884   0.261 -0.1782  0.2490 -0.0054
 5605TIP3    H138374   6.590   5.931   0.266 -0.3845  0.5207  0.9662
 5605TIP3    H238375   6.441   5.954   0.256 -0.5085  0.0921  1.7303
 5606TIP3   OH238376   3.866   4.814   2.634  0.2718  0.2528 -0.3316
 5606TIP3    H138377   3.895   4.779   2.719  2.0140  1.1700 -0.5010
 5606TIP3    H238378   3.809   4.745   2.598 -0.4028 -0.2200  1.4962
 5607TIP3   OH238379   6.246   2.594   2.726 -0.1553 -0.3830 -0.0360
 5607TIP3    H138380   6.306   2.530   2.688 -1.6096 -1.4074 -0.6986
 5607TIP3    H238381   6.177   2.541   2.767 -0.0668  0.7390  1.6415
 5608TIP3   OH238382   5.550   4.494   2.228  0.3914  0.1436  0.1872
 5608TIP3    H138383   5.484   4.551   2.267 -0.2216 -0.3957 -0.0366
 5608TIP3    H238384   5.570   4.534   2.144  0.1276  0.1490  0.1277
 5609TIP3   OH238385   4.095   3.628   2.662  0.2691  0.5063 -0.1023
 5609TIP3    H138386   4.182   3.611   2.699 -0.1567 -1.9393 -0.0223
 5609TIP3    H238387   4.034   3.587   2.724 -0.9312  1.8937 -0.3243
 5610TIP3   OH238388   5.097   3.615   4.639 -0.0155  0.0564 -0.2195
 5610TIP3    H138389   5.131   3.626   4.728 -0.8032  0.1476  0.0749
 5610TIP3    H238390   5.167   3.649   4.583 -0.0243  1.1870  0.4153
 5611TIP3   OH238391   1.547   6.127   2.270  0.6850  0.1365  0.2241
 5611TIP3    H138392   1.577   6.203   2.221  0.9854 -0.8732 -1.2367
 5611TIP3    H238393   1.611   6.059   2.249 -0.7403 -1.1140 -0.2454
 5612TIP3   OH238394   3.791   3.766   2.678 -0.2107  0.6835 -0.0966
 5612TIP3    H138395   3.874   3.721   2.662 -0.2872 -0.0294  1.3472
 5612TIP3    H238396   3.814   3.859   2.681  0.2503  0.6310 -1.2821
 5613TIP3   OH238397   5.886   1.235   0.260 -0.2461 -0.5366 -0.0252
 5613TIP3    H138398   5.879   1.160   0.319 -1.3975 -0.8310 -0.4930
 5613TIP3    H238399   5.804   1.234   0.211  0.0504  0.5811 -0.5837
 5614TIP3   OH238400   5.477   1.712   1.423 -0.5313 -0.2833 -0.3638
 5614TIP3    H138401   5.424   1.748   1.494 -0.8830 -0.0951 -0.7166
 5614TIP3    H238402   5.561   1.757   1.430  0.2222 -1.8060  1.2615
 5615TIP3   OH238403   2.187   4.529   3.095 -0.2843 -0.1043  0.1682
 5615TIP3    H138404   2.237   4.501   3.172 -1.8495  0.0441  1.2741
 5615TIP3    H238405   2.212   4.620   3.082  0.3627 -0.2720  0.1822
 5616TIP3   OH238406   6.923   5.742   3.013  0.1955 -0.0470 -0.0328
 5616TIP3    H138407   6.954   5.654   2.991 -1.2625 -0.7352  0.5413
 5616TIP3    H238408   6.939   5.794   2.934  0.0815 -1.1032 -0.7630
 5617TIP3   OH238409   6.036   5.393   4.585 -0.2760  0.1226 -0.0014
 5617TIP3    H138410   6.068   5.339   4.657  0.5445  1.1739  0.4491
 5617TIP3    H238411   6.050   5.483   4.614 -1.9967  0.6093 -0.5588
 5618TIP3   OH238412   2.420   4.477   3.579 -0.2387  0.5648 -0.4143
 5618TIP3    H138413   2.449   4.524   3.501 -1.3115 -0.6531 -1.6028
 5618TIP3    H238414   2.430   4.385   3.556 -0.6476  0.1799  0.8690
 5619TIP3   OH238415   1.241   4.534   4.239 -0.0925  0.0714 -0.0767
 5619TIP3    H138416   1.272   4.623   4.227  0.3213  0.3731  2.6442
 5619TIP3    H238417   1.187   4.538   4.318 -0.1613 -2.0565  0.0383
 5620TIP3   OH238418   4.709   3.889   1.068 -0.1669 -0.4360 -0.7441
 5620TIP3    H138419   4.793   3.919   1.034 -0.7666  0.3470 -1.5674
 5620TIP3    H238420   4.675   3.831   1.000 -0.0549 -1.1926 -0.1683
 5621TIP3   OH238421   3.206   2.979   1.892 -0.8511  0.2002 -0.0455
 5621TIP3    H138422   3.215   3.065   1.850  0.6517  1.3295  2.3898
 5621TIP3    H238423   3.255   2.920   1.835 -1.4063  1.0379 -1.4455
 5622TIP3   OH238424   1.190   1.648   3.854  0.0087 -0.1925 -0.3726
 5622TIP3    H138425   1.210   1.560   3.885  0.6515  0.0378 -0.1216
 5622TIP3    H238426   1.097   1.659   3.873  0.0811 -0.5634  0.2290
 5623TIP3   OH238427   3.966   6.904   4.334 -0.2363 -0.3049  0.2155
 5623TIP3    H138428   4.030   6.973   4.317 -0.3356  0.4772  2.7103
 5623TIP3    H238429   4.014   6.837   4.383 -1.3324  0.4776  2.4798
 5624TIP3   OH238430   6.607   5.485   3.303 -0.6987 -0.0766 -0.4819
 5624TIP3    H138431   6.662   5.481   3.226 -1.5517 -0.8151 -1.0795
 5624TIP3    H238432   6.617   5.399   3.345  1.5124  1.0583  1.5284
 5625TIP3   OH238433   0.203   3.274   4.316 -0.2603 -0.0205  0.2079
 5625TIP3    H138434   0.211   3.218   4.393  1.4873 -1.1004 -0.7133
 5625TIP3    H238435   0.292   3.303   4.297 -0.9164  1.7781 -0.3118
 5626TIP3   OH238436   5.136   5.796   2.015  0.7171  0.6575 -0.1236
 5626TIP3    H138437   5.056   5.845   2.039  1.7436  2.6534 -0.5194
 5626TIP3    H238438   5.103   5.716   1.974 -1.0652  0.0929  2.2111
 5627TIP3   OH238439   0.858   1.472   3.737 -0.1684 -0.2050 -0.0937
 5627TIP3    H138440   0.916   1.407   3.776 -1.6458  0.0292  2.7882
 5627TIP3    H238441   0.773   1.428   3.730 -0.0935 -0.0674 -2.7606
 5628TIP3   OH238442   1.945   3.585   1.276 -0.0478  0.2657  0.0504
 5628TIP3    H138443   1.898   3.643   1.216 -0.9730 -0.4567  0.0451
 5628TIP3    H238444   1.915   3.497   1.252  0.7450 -0.1514  0.5604
 5629TIP3   OH238445   3.196   1.546   4.202 -0.0171  0.3566  0.1787
 5629TIP3    H138446   3.289   1.549   4.222  0.2786  1.9712 -1.2520
 5629TIP3    H238447   3.180   1.455   4.176  1.1390  0.0500  0.4804
 5630TIP3   OH238448   1.231   6.316   2.378  0.2408  0.0818  0.2549
 5630TIP3    H138449   1.277   6.337   2.460  1.5503 -1.8238  0.0709
 5630TIP3    H238450   1.301   6.295   2.316 -0.6995 -3.9817  0.2557
 5631TIP3   OH238451   1.045   4.328   2.992  0.1203  0.0385 -0.6412
 5631TIP3    H138452   1.005   4.379   2.922  0.5196 -0.4585 -1.2465
 5631TIP3    H238453   1.030   4.379   3.071 -0.2731  0.6447 -1.0997
 5632TIP3   OH238454   6.692   4.090   4.003  0.2384 -0.1384 -0.2021
 5632TIP3    H138455   6.662   4.096   4.094  2.5999  2.4538  0.5342
 5632TIP3    H238456   6.750   4.013   4.002 -0.0971 -0.4040  0.3718
 5633TIP3   OH238457   4.461   4.475   1.619 -0.1210 -0.4343 -0.1456
 5633TIP3    H138458   4.389   4.534   1.641 -0.7835 -1.7646  1.4872
 5633TIP3    H238459   4.536   4.508   1.669 -0.0105 -0.0005 -0.5845
 5634TIP3   OH238460   1.396   0.110   1.331  0.5152  0.6786 -0.2686
 5634TIP3    H138461   1.392   0.015   1.337  0.2954  0.5420 -2.1118
 5634TIP3    H238462   1.416   0.128   1.240 -1.8828  2.4490 -0.5351
 5635TIP3   OH238463   4.575   6.580   2.185 -0.6809  0.2854  0.0103
 5635TIP3    H138464   4.519   6.514   2.144  0.2016 -0.4931  0.0158
 5635TIP3    H238465   4.549   6.579   2.277 -2.8373  2.2144 -0.4976
 5636TIP3   OH238466   5.518   3.338   2.920  0.1429 -0.7732  0.4266
 5636TIP3    H138467   5.465   3.413   2.896  0.9045 -0.0162  1.0668
 5636TIP3    H238468   5.603   3.354   2.878  0.1956 -1.4695  0.2482
 5637TIP3   OH238469   3.510   3.316   0.980  0.1618 -0.5706  0.1037
 5637TIP3    H138470   3.528   3.399   1.024 -0.5381 -0.0632 -0.5429
 5637TIP3    H238471   3.527   3.333   0.887  1.5592 -1.6149  0.1338
 5638TIP3   OH238472   2.775   2.250   2.123  0.0476 -0.0494  0.2481
 5638TIP3    H138473   2.698   2.248   2.179  0.1725  0.0970  0.4246
 5638TIP3    H238474   2.778   2.339   2.089 -0.7604 -0.4785 -1.0198
 5639TIP3   OH238475   4.048   1.051   1.049 -0.0134  0.0341 -0.5603
 5639TIP3    H138476   3.994   0.985   1.005  0.0041 -1.1866  1.1490
 5639TIP3    H238477   4.126   1.057   0.994 -0.2275 -1.0378 -1.0251
 5640TIP3   OH238478   0.433   5.766   4.046 -0.4579 -0.1878  0.1636
 5640TIP3    H138479   0.439   5.696   3.980 -1.1387  0.9201 -1.1262
 5640TIP3    H238480   0.507   5.823   4.028  0.4174 -0.8342  1.5727
 5641TIP3   OH238481   5.498   4.550   1.164 -0.5178 -0.4836  0.9727
 5641TIP3    H138482   5.483   4.470   1.215 -1.0692 -1.2521 -0.3391
 5641TIP3    H238483   5.593   4.561   1.165 -0.2515 -2.2069 -0.2859
 5642TIP3   OH238484   3.649   5.207   2.726  0.1113 -0.1008 -0.2891
 5642TIP3    H138485   3.581   5.192   2.660  0.2512  0.1373 -0.4896
 5642TIP3    H238486   3.728   5.171   2.688  0.0616 -0.5456  0.0234
 5643TIP3   OH238487   2.767   3.670   1.674 -0.2311 -0.4702 -0.3902
 5643TIP3    H138488   2.673   3.688   1.685 -0.2318 -0.7173  0.0199
 5643TIP3    H238489   2.810   3.752   1.696 -0.1400 -1.2751  2.9133
 5644TIP3   OH238490   6.017   3.905   0.736 -0.1520 -0.3019 -0.0998
 5644TIP3    H138491   5.962   3.932   0.663  1.3839 -2.8601 -2.4235
 5644TIP3    H238492   5.992   3.814   0.753  2.6701 -1.3395 -0.7913
 5645TIP3   OH238493   3.677   4.222   0.564 -0.0756  0.5088  0.3611
 5645TIP3    H138494   3.749   4.284   0.574 -0.1107  0.7853 -0.9483
 5645TIP3    H238495   3.627   4.255   0.490 -1.1184 -0.1114  0.7642
 5646TIP3   OH238496   1.582   2.187   2.118 -0.2417 -0.2847  0.0473
 5646TIP3    H138497   1.493   2.169   2.089 -0.2752 -0.0222 -0.0125
 5646TIP3    H238498   1.635   2.179   2.039 -0.3064  0.2400 -0.0470
 5647TIP3   OH238499   0.746   1.612   2.880 -0.0494  0.0559 -0.7753
 5647TIP3    H138500   0.799   1.535   2.859  1.9859  1.7888 -2.4984
 5647TIP3    H238501   0.770   1.634   2.970 -0.8033 -1.3905 -0.1937
 5648TIP3   OH238502   2.255   0.196   2.277  0.8009 -0.2060  0.0165
 5648TIP3    H138503   2.262   0.290   2.262  2.3109 -0.4135 -0.8555
 5648TIP3    H238504   2.315   0.179   2.350  0.4949 -0.4829  0.2060
 5649TIP3   OH238505   2.073   1.086   2.331 -0.8477 -0.0678  0.0123
 5649TIP3    H138506   2.119   1.168   2.348 -0.5576 -0.0587 -0.8013
 5649TIP3    H238507   1.980   1.109   2.331 -0.8104  0.1058  0.5838
 5650TIP3   OH238508   5.727   6.517   1.413 -0.2821 -0.1163 -0.0289
 5650TIP3    H138509   5.729   6.589   1.477  0.0301 -0.1555  0.0081
 5650TIP3    H238510   5.674   6.449   1.455 -1.0045  0.2808 -0.2711
 5651TIP3   OH238511   0.821   1.571   2.071  0.5746 -0.3271 -0.1585
 5651TIP3    H138512   0.781   1.523   2.143 -0.4949 -0.1105 -0.5944
 5651TIP3    H238513   0.748   1.616   2.028  1.2123 -0.3234 -1.2822
 5652TIP3   OH238514   4.301   3.809   4.745 -0.2526 -0.1877 -0.7317
 5652TIP3    H138515   4.367   3.818   4.677  0.3120 -0.2349 -0.1950
 5652TIP3    H238516   4.264   3.897   4.754  0.5746  0.1141 -0.2019
 5653TIP3   OH238517   6.769   0.460   3.673 -0.6903 -0.2504  0.2129
 5653TIP3    H138518   6.789   0.442   3.764 -2.5843 -1.2926  0.4686
 5653TIP3    H238519   6.686   0.507   3.675  0.1313  1.3627 -0.9128
 5654TIP3   OH238520   6.185   3.191   3.822 -0.1732  0.2233  0.1205
 5654TIP3    H138521   6.222   3.229   3.902 -0.4314 -0.4568  0.5704
 5654TIP3    H238522   6.091   3.185   3.840 -0.3522  0.8749 -0.5718
 5655TIP3   OH238523   6.008   2.838   1.938  0.8085 -0.6417 -0.7019
 5655TIP3    H138524   6.091   2.885   1.945  1.6553 -2.0923 -0.3780
 5655TIP3    H238525   5.944   2.895   1.980  1.6927  0.4009 -0.7362
 5656TIP3   OH238526   4.918   2.685   2.125  0.4764  0.8604  0.0057
 5656TIP3    H138527   4.898   2.602   2.082  2.0406  0.5508 -0.1754
 5656TIP3    H238528   4.917   2.750   2.054  0.3082  0.8118 -0.0354
 5657TIP3   OH238529   6.292   6.400   3.585  0.1339  0.2551  0.1057
 5657TIP3    H138530   6.260   6.367   3.669  0.5774 -0.9965 -0.1986
 5657TIP3    H238531   6.295   6.323   3.529  0.8425  0.8955 -0.7547
 5658TIP3   OH238532   6.101   0.080   3.587 -0.9631 -0.1224 -0.8356
 5658TIP3    H138533   6.153   0.057   3.663 -1.2062  0.8970 -0.3581
 5658TIP3    H238534   6.019   0.033   3.599 -1.1656  0.3813 -0.2500
 5659TIP3   OH238535   1.135   2.891   0.280  0.0750 -1.0425 -0.0332
 5659TIP3    H138536   1.142   2.949   0.205 -1.3301  0.9622  1.2882
 5659TIP3    H238537   1.041   2.881   0.295  0.3158 -1.2504  1.5323
 5660TIP3   OH238538   2.829   0.398   3.308  0.0397  0.1201  0.2368
 5660TIP3    H138539   2.807   0.341   3.234  0.6355  0.6631 -0.3712
 5660TIP3    H238540   2.874   0.473   3.269 -1.5800  1.5098  0.9027
 5661TIP3   OH238541   5.263   5.008   2.742  0.1433 -0.3834 -0.0207
 5661TIP3    H138542   5.294   5.086   2.695 -0.5033 -0.1078 -0.0117
 5661TIP3    H238543   5.274   5.029   2.834 -0.7199  0.0147  0.0073
 5662TIP3   OH238544   3.753   1.123   4.530  0.3955  0.3147  0.3585
 5662TIP3    H138545   3.659   1.109   4.541 -0.0687  1.9771 -0.9341
 5662TIP3    H238546   3.787   1.131   4.619 -0.3753 -1.8136  0.9139
 5663TIP3   OH238547   2.017   1.255   1.227 -0.1896 -0.2550  0.4529
 5663TIP3    H138548   1.958   1.181   1.215 -0.1968 -0.3487  1.0471
 5663TIP3    H238549   2.028   1.291   1.139 -1.2689 -0.1247  0.3603
 5664TIP3   OH238550   6.647   5.585   1.699  0.3591 -0.7706  0.4584
 5664TIP3    H138551   6.696   5.665   1.718  1.5606 -1.6846  1.4361
 5664TIP3    H238552   6.560   5.615   1.674  0.2258  0.8017  2.4994
 5665TIP3   OH238553   3.719   1.664   1.911 -0.3960  0.7229 -0.3358
 5665TIP3    H138554   3.662   1.611   1.967 -1.5487  1.6161 -0.6304
 5665TIP3    H238555   3.796   1.609   1.897 -1.5225 -0.8716 -0.5944
 5666TIP3   OH238556   4.183   2.006   2.409 -0.3729  0.5259 -1.0882
 5666TIP3    H138557   4.169   2.029   2.318  1.0730 -2.5671 -2.2544
 5666TIP3    H238558   4.272   1.969   2.411 -0.1593  0.9584  1.6971
 5667TIP3   OH238559   6.186   4.258   1.670  0.0506  0.6039 -0.7652
 5667TIP3    H138560   6.213   4.242   1.761  0.4260  0.6129 -0.8729
 5667TIP3    H238561   6.092   4.243   1.670  0.2347 -0.6469 -0.6450
 5668TIP3   OH238562   4.396   2.721   4.287 -0.4158  0.1943 -0.2144
 5668TIP3    H138563   4.444   2.646   4.253 -0.3292  0.6614 -1.1583
 5668TIP3    H238564   4.304   2.694   4.284 -0.2356 -0.8397  1.9440
 5669TIP3   OH238565   2.061   3.277   4.072  0.2368 -0.0638  0.0887
 5669TIP3    H138566   1.990   3.224   4.108 -0.3599  0.0644 -0.8639
 5669TIP3    H238567   2.128   3.213   4.045  0.1359 -0.2361  0.2459
 5670TIP3   OH238568   6.718   0.514   4.503 -0.1870  0.9355  0.0197
 5670TIP3    H138569   6.735   0.440   4.445 -0.2046  1.1838 -0.3063
 5670TIP3    H238570   6.755   0.590   4.457  0.5200  1.0153  0.7021
 5671TIP3   OH238571   0.020   6.200   2.826 -0.0472  0.3653 -0.4570
 5671TIP3    H138572   0.006   6.181   2.733 -2.9687  0.6937 -0.1895
 5671TIP3    H238573   0.113   6.221   2.833  0.3735 -0.2386 -3.1887
 5672TIP3   OH238574   6.668   5.752   1.010  0.3233  0.5215 -0.0547
 5672TIP3    H138575   6.632   5.824   1.061  0.0548  0.3294  0.0325
 5672TIP3    H238576   6.647   5.674   1.062  0.2406  0.3462 -0.3492
 5673TIP3   OH238577   1.709   5.340   1.622 -0.5599 -0.5277  0.3747
 5673TIP3    H138578   1.728   5.302   1.536  0.8426  0.0930  0.3863
 5673TIP3    H238579   1.645   5.409   1.604  0.2532  0.0721 -0.2902
 5674TIP3   OH238580   6.903   3.309   1.648 -0.1995 -0.1034 -0.0642
 5674TIP3    H138581   6.862   3.378   1.700  0.7062  1.0227 -0.7942
 5674TIP3    H238582   6.843   3.296   1.574 -0.3932 -0.1408  0.0973
 5675TIP3   OH238583   1.936   0.375   0.509 -0.1160  0.1589 -0.4914
 5675TIP3    H138584   1.993   0.431   0.456 -0.2857  0.2090 -0.6203
 5675TIP3    H238585   1.856   0.426   0.520 -0.4061 -0.2073 -0.9077
 5676TIP3   OH238586   1.363   4.841   4.267  0.3035  0.1034 -0.6586
 5676TIP3    H138587   1.338   4.916   4.212 -1.2552 -0.1216 -0.3276
 5676TIP3    H238588   1.457   4.850   4.279  0.2874  1.5203 -1.3511
 5677TIP3   OH238589   2.097   0.835   4.772  0.1130  0.4768 -0.0868
 5677TIP3    H138590   2.187   0.857   4.748  0.4393  0.3847  1.0250
 5677TIP3    H238591   2.101   0.744   4.802 -0.6887 -0.1496 -1.7159
 5678TIP3   OH238592   0.913   0.364   0.047  0.3490  0.2448  0.6551
 5678TIP3    H138593   0.877   0.275   0.060  0.0435  0.4085  0.9606
 5678TIP3    H238594   0.880   0.413   0.122 -0.0092  0.7782  0.1521
 5679TIP3   OH238595   2.160   5.517   2.147 -0.2087 -0.0267 -0.1561
 5679TIP3    H138596   2.190   5.430   2.124  0.2402 -0.6629  2.5240
 5679TIP3    H238597   2.104   5.544   2.074 -0.1461 -2.4300 -1.1550
 5680TIP3   OH238598   1.148   4.379   0.134 -0.2249 -0.0315 -0.0973
 5680TIP3    H138599   1.217   4.424   0.182 -1.2374  0.7847  0.6455
 5680TIP3    H238600   1.188   4.297   0.105  1.0290  0.4041  0.3430
 5681TIP3   OH238601   1.311   3.451   2.434 -0.2466 -0.4165  0.6348
 5681TIP3    H138602   1.322   3.362   2.469  0.4955 -0.3991  0.4545
 5681TIP3    H238603   1.218   3.457   2.413  0.0109 -1.8092 -1.1213
 5682TIP3   OH238604   6.783   0.273   1.680 -0.7373  0.1149 -0.2815
 5682TIP3    H138605   6.765   0.308   1.768 -0.6746 -0.0224 -0.2130
 5682TIP3    H238606   6.856   0.326   1.648  1.1059 -1.6008  0.8532
 5683TIP3   OH238607   4.385   4.040   3.222  0.1897 -0.7157  0.1603
 5683TIP3    H138608   4.317   4.058   3.158  0.0886  0.5040  0.5672
 5683TIP3    H238609   4.460   4.010   3.171 -0.3185 -1.0599 -0.3886
 5684TIP3   OH238610   0.835   4.373   3.882 -0.1459 -0.1059 -0.2334
 5684TIP3    H138611   0.746   4.341   3.896 -0.1338 -0.3313 -0.6661
 5684TIP3    H238612   0.837   4.458   3.925 -0.5431 -0.1430 -0.1402
 5685TIP3   OH238613   2.344   5.581   1.315 -0.1088 -0.2782  0.2140
 5685TIP3    H138614   2.361   5.631   1.395  0.4736 -0.3873  0.1599
 5685TIP3    H238615   2.275   5.520   1.339 -0.6054  0.3378  0.3707
 5686TIP3   OH238616   4.911   1.902   2.857  0.5458  0.1636 -0.4891
 5686TIP3    H138617   4.919   1.808   2.871 -0.8618  0.0969  0.0151
 5686TIP3    H238618   4.886   1.910   2.764 -0.4342 -0.0481 -0.2563
 5687TIP3   OH238619   0.249   2.505   2.377 -0.5784  0.2693  0.2281
 5687TIP3    H138620   0.241   2.581   2.318 -1.6019 -0.4748 -0.6370
 5687TIP3    H238621   0.321   2.527   2.435 -1.7236  2.5375  0.9235
 5688TIP3   OH238622   5.402   4.465   4.540 -0.6775  0.1091 -0.2050
 5688TIP3    H138623   5.329   4.511   4.499 -2.4391 -0.9714  1.5836
 5688TIP3    H238624   5.376   4.373   4.541  0.4361 -0.2247  1.0250
 5689TIP3   OH238625   5.997   4.105   8.462  0.1836  0.1679  0.0936
 5689TIP3    H138626   6.037   4.175   8.514 -2.3689  1.4020  0.5488
 5689TIP3    H238627   5.984   4.144   8.376  1.8033 -0.9386 -0.7041
 5690TIP3   OH238628   5.123   0.294   1.762 -0.2083 -0.7683  0.3976
 5690TIP3    H138629   5.149   0.203   1.777 -0.0512 -0.8008 -0.0591
 5690TIP3    H238630   5.093   0.325   1.848  0.2803 -1.0770  0.6848
 5691TIP3   OH238631   3.991   2.317   2.309 -0.2116  0.1594  0.5308
 5691TIP3    H138632   3.921   2.318   2.374  0.7968  0.7858  1.6550
 5691TIP3    H238633   3.952   2.357   2.231 -0.8673  1.3550  1.4260
 5692TIP3   OH238634   1.603   0.468   3.485  0.1225 -0.1560  0.6511
 5692TIP3    H138635   1.676   0.416   3.521  1.1877  1.6576  1.2706
 5692TIP3    H238636   1.561   0.507   3.562  0.5892  1.4293  0.1515
 5693TIP3   OH238637   0.948   4.175   2.523 -0.8198  0.8831 -0.1222
 5693TIP3    H138638   1.008   4.118   2.570 -1.5156  1.0784  1.0347
 5693TIP3    H238639   0.926   4.126   2.444  0.3620  0.5499 -0.2767
 5694TIP3   OH238640   3.392   5.006   4.496  0.4529 -0.1420  0.5606
 5694TIP3    H138641   3.404   5.095   4.528  0.3763 -0.2139  0.7920
 5694TIP3    H238642   3.434   4.951   4.563  0.2691 -0.2936  0.5512
 5695TIP3   OH238643   1.975   2.259   0.760 -0.4103 -0.3499 -0.3749
 5695TIP3    H138644   2.050   2.224   0.712 -0.4223 -1.5649  0.4273
 5695TIP3    H238645   1.988   2.353   0.761  1.4756 -0.5713  0.3142
 5696TIP3   OH238646   1.712   2.408   3.278 -0.3222  0.1179  0.0226
 5696TIP3    H138647   1.711   2.501   3.254 -1.9277  0.2380  0.3748
 5696TIP3    H238648   1.768   2.404   3.356 -1.0176  0.9914  0.6013
 5697TIP3   OH238649   6.320   3.626   0.768 -0.3004 -0.3230  0.2314
 5697TIP3    H138650   6.256   3.625   0.839  1.0250 -0.3885  1.4741
 5697TIP3    H238651   6.404   3.643   0.811  0.2718  1.9953 -1.5628
 5698TIP3   OH238652   2.497   6.202   2.628 -0.2972 -0.2649 -0.5942
 5698TIP3    H138653   2.487   6.162   2.541 -1.6694  0.5733 -0.8621
 5698TIP3    H238654   2.488   6.130   2.689  0.2801 -0.8070 -1.1283
 5699TIP3   OH238655   3.876   6.328   1.672 -0.0195 -0.2154  0.4497
 5699TIP3    H138656   3.916   6.372   1.747 -0.4727  0.1833  0.4649
 5699TIP3    H238657   3.843   6.245   1.707  0.2670 -0.2782  0.5678
 5700TIP3   OH238658   6.387   4.895   2.117  0.3040  0.9068 -0.0149
 5700TIP3    H138659   6.397   4.823   2.179  0.6518 -0.0431 -1.1212
 5700TIP3    H238660   6.341   4.963   2.165  1.7401  0.7449  1.6744
 5701TIP3   OH238661   6.264   0.253   4.332  0.1143 -0.7025  0.3162
 5701TIP3    H138662   6.333   0.253   4.398  2.4780 -2.2518 -1.9692
 5701TIP3    H238663   6.211   0.176   4.352 -1.2209  0.6103  2.2034
 5702TIP3   OH238664   0.117   0.869   2.667  0.3974 -0.4203  0.3943
 5702TIP3    H138665   0.060   0.842   2.739 -1.5982 -1.8708 -1.6116
 5702TIP3    H238666   0.156   0.788   2.635  1.5414  0.2498  0.0251
 5703TIP3   OH238667   1.337   3.226   3.875  0.1980 -0.1841  0.1531
 5703TIP3    H138668   1.285   3.263   3.946  0.3271  0.3525 -0.0199
 5703TIP3    H238669   1.354   3.301   3.817  0.1807 -0.5882 -0.3847
 5704TIP3   OH238670   0.187   0.073   0.828 -0.4876  0.4194 -0.2034
 5704TIP3    H138671   0.239   0.137   0.877 -0.2271 -0.4802  0.7362
 5704TIP3    H238672   0.213  -0.012   0.865 -1.1210 -0.1973 -1.1418
 5705TIP3   OH238673   3.923   1.425   2.479  0.0133  0.4641 -0.3590
 5705TIP3    H138674   3.860   1.354   2.495  1.5993 -1.1351 -0.7949
 5705TIP3    H238675   3.890   1.469   2.401 -1.0811  0.3056 -0.0083
 5706TIP3   OH238676   0.926   6.559   0.536  1.0011  0.3356 -0.4361
 5706TIP3    H138677   0.984   6.487   0.513  1.5775  0.4627  0.5737
 5706TIP3    H238678   0.968   6.638   0.501  2.1655  0.6020  1.4213
 5707TIP3   OH238679   5.122   4.049   1.364  0.6964  0.1345  0.3020
 5707TIP3    H138680   5.183   4.058   1.292  0.7390 -0.7134  0.2270
 5707TIP3    H238681   5.036   4.070   1.326  0.5975 -1.1403 -0.2161
 5708TIP3   OH238682   3.047   6.426   0.868  0.3914  0.1244  0.0837
 5708TIP3    H138683   3.139   6.427   0.895 -0.0750 -0.7053  1.8489
 5708TIP3    H238684   3.011   6.507   0.904  0.3076  0.1850 -0.1377
 5709TIP3   OH238685   1.359   4.603   1.822  0.3534 -0.3216 -0.3644
 5709TIP3    H138686   1.334   4.513   1.843  0.6530  0.0010  1.4932
 5709TIP3    H238687   1.438   4.593   1.768  1.1690 -1.1788  0.9275
 5710TIP3   OH238688   3.021   6.911   4.403  0.1237 -0.1935 -0.3831
 5710TIP3    H138689   3.105   6.942   4.371 -0.0370  0.0216 -0.6037
 5710TIP3    H238690   2.978   6.989   4.438  0.8664 -0.6551  1.6805
 5711TIP3   OH238691   5.770   6.415   0.658  0.0160 -0.0058 -0.2785
 5711TIP3    H138692   5.864   6.430   0.662 -0.2517  1.7687  3.1960
 5711TIP3    H238693   5.749   6.367   0.738 -1.9185 -1.6483 -1.6633
 5712TIP3   OH238694   2.022   4.027   4.074  0.0231 -0.2159  0.2710
 5712TIP3    H138695   1.998   4.101   4.131  0.1296  0.7785 -0.9296
 5712TIP3    H238696   1.940   3.981   4.059 -0.2864  0.4233 -0.0204
 5713TIP3   OH238697   3.465   6.202   2.798 -0.1050 -0.4551 -0.1860
 5713TIP3    H138698   3.380   6.158   2.790 -0.1218 -0.4434 -0.0650
 5713TIP3    H238699   3.454   6.263   2.870  0.0972 -0.6627  0.0210
 5714TIP3   OH238700   1.638   5.959   0.197 -0.1810 -0.1023  0.1836
 5714TIP3    H138701   1.731   5.944   0.183 -0.1898 -0.7276  0.7630
 5714TIP3    H238702   1.595   5.908   0.128 -0.0519  2.4603 -1.9377
 5715TIP3   OH238703   4.412   2.344   0.794  0.2502 -0.9225 -0.2801
 5715TIP3    H138704   4.356   2.421   0.778  1.9229  0.4589  0.2007
 5715TIP3    H238705   4.454   2.328   0.710  0.3434 -0.9433 -0.2292
 5716TIP3   OH238706   0.702   6.696   0.483 -0.2374  0.1619  0.4588
 5716TIP3    H138707   0.729   6.747   0.407 -1.4256  0.1485  0.0155
 5716TIP3    H238708   0.782   6.651   0.511  0.2199  0.1934 -0.7510
 5717TIP3   OH238709   4.270   3.237   1.105 -0.2459  0.2751  0.1608
 5717TIP3    H138710   4.362   3.230   1.080 -0.0318 -0.9299  1.2243
 5717TIP3    H238711   4.230   3.155   1.077 -1.2113  1.0959 -1.0123
 5718TIP3   OH238712   0.061   1.292   3.731  0.6054 -0.2012 -0.8511
 5718TIP3    H138713   0.154   1.274   3.744  0.5756  0.2418  0.0690
 5718TIP3    H238714   0.022   1.206   3.714  1.2324 -0.3432 -1.6371
 5719TIP3   OH238715   2.076   5.207   3.250 -0.2032  0.6014 -0.6214
 5719TIP3    H138716   2.006   5.272   3.251  0.0195  0.8403 -0.6961
 5719TIP3    H238717   2.138   5.238   3.184 -1.7784 -1.4766 -3.2953
 5720TIP3   OH238718   6.169   6.252   1.284  0.8518  0.3354 -0.2486
 5720TIP3    H138719   6.164   6.312   1.210  0.7573  0.2928 -0.2760
 5720TIP3    H238720   6.140   6.304   1.359  0.8338  0.3436 -0.2615
 5721TIP3   OH238721   6.130   5.697   3.603 -0.0030 -0.1493  0.7725
 5721TIP3    H138722   6.070   5.768   3.629 -0.4058 -0.3322  0.3556
 5721TIP3    H238723   6.140   5.707   3.509 -0.0655 -0.6523  0.7091
 5722TIP3   OH238724   5.975   3.850   3.935  0.3752  0.3929 -0.1883
 5722TIP3    H138725   5.893   3.872   3.892 -0.3353 -1.1559  0.2827
 5722TIP3    H238726   5.983   3.913   4.007  0.6987  1.8870 -1.4803
 5723TIP3   OH238727   4.197   0.297   3.069 -0.1788  0.8239 -0.3691
 5723TIP3    H138728   4.244   0.361   3.016  0.2003 -0.0294 -1.0954
 5723TIP3    H238729   4.260   0.270   3.135 -0.7199  2.0454  0.6925
 5724TIP3   OH238730   3.027   0.031   1.000  0.2094  0.0101 -0.1063
 5724TIP3    H138731   3.056  -0.057   1.025 -0.6860 -0.8457 -1.8570
 5724TIP3    H238732   2.936   0.036   1.031  0.3595  0.4587  0.2772
 5725TIP3   OH238733   5.498   6.312   3.554 -0.1161 -0.5724  0.3881
 5725TIP3    H138734   5.444   6.390   3.564 -3.1300 -2.2333 -1.3623
 5725TIP3    H238735   5.573   6.327   3.610 -1.1133  3.0632  0.9773
 5726TIP3   OH238736   5.190   6.364   1.958 -0.4366  0.0919 -0.2746
 5726TIP3    H138737   5.123   6.362   2.026 -0.7068 -0.2868 -0.5537
 5726TIP3    H238738   5.237   6.446   1.974  0.1859 -0.4874  1.0218
 5727TIP3   OH238739   0.617   0.066   0.835 -0.5681 -0.5247  0.3279
 5727TIP3    H138740   0.601   0.033   0.924  1.3478 -1.7676  0.2468
 5727TIP3    H238741   0.593  -0.007   0.778  0.0480 -0.4105 -0.0754
 5728TIP3   OH238742   6.679   4.141   3.100 -0.5996  0.0481 -0.3524
 5728TIP3    H138743   6.682   4.062   3.047 -1.2669  0.5140 -1.1051
 5728TIP3    H238744   6.769   4.174   3.101 -0.3494 -0.6330 -0.1511
 5729TIP3   OH238745   2.141   0.505   0.394  0.3707  0.0294  0.0892
 5729TIP3    H138746   2.193   0.584   0.379  1.4986 -0.3343  1.7993
 5729TIP3    H238747   2.195   0.434   0.359  0.2573 -0.1874  0.3567
 5730TIP3   OH238748   2.122   3.107   4.383 -0.0997  0.1572  0.3508
 5730TIP3    H138749   2.155   3.197   4.374 -0.0513 -0.0031 -1.3882
 5730TIP3    H238750   2.075   3.090   4.302  3.0822 -2.6783 -1.1594
 5731TIP3   OH238751   0.178   5.010   0.827  0.2823  0.0032 -0.6597
 5731TIP3    H138752   0.142   4.933   0.782 -0.8892 -0.1295  0.4411
 5731TIP3    H238753   0.159   4.994   0.920  1.5454  0.8385 -0.2383
 5732TIP3   OH238754   4.476   5.867   2.751 -0.3609 -0.5671 -0.0956
 5732TIP3    H138755   4.515   5.911   2.675  0.5548  0.6879  1.0645
 5732TIP3    H238756   4.526   5.786   2.760  0.2322 -0.2262 -0.2231
 5733TIP3   OH238757   3.509   4.568   8.415  0.5017  0.4641  0.0236
 5733TIP3    H138758   3.479   4.478   8.396 -0.5378  0.7599  0.1675
 5733TIP3    H238759   3.568   4.558   8.490  0.4876 -0.1194 -0.0337
 5734TIP3   OH238760   5.700   3.977   3.921 -0.0505  0.2292 -0.2476
 5734TIP3    H138761   5.616   4.022   3.910  0.7216  1.9613  0.6083
 5734TIP3    H238762   5.712   3.972   4.015  1.4007  1.1795 -0.3619
 5735TIP3   OH238763   2.368   3.771   8.136 -1.0223 -0.4597  0.2708
 5735TIP3    H138764   2.452   3.752   8.095 -1.2325  0.2566 -0.5211
 5735TIP3    H238765   2.390   3.824   8.212 -0.7889  0.2224 -0.2634
 5736TIP3   OH238766   2.638   0.871   1.768 -0.1937  0.0008 -0.2015
 5736TIP3    H138767   2.650   0.795   1.825 -0.7936 -0.7079 -0.9852
 5736TIP3    H238768   2.727   0.903   1.751  0.1069 -0.8494 -0.2758
 5737TIP3   OH238769   2.266   4.954   0.739  0.5496  0.1284 -0.5027
 5737TIP3    H138770   2.214   5.004   0.676 -0.5621 -0.9437 -0.4733
 5737TIP3    H238771   2.247   4.862   0.719  0.1724 -0.2429  1.3554
 5738TIP3   OH238772   2.511   6.108   1.718 -0.5690 -0.3234 -0.0289
 5738TIP3    H138773   2.476   6.148   1.638  0.5002  1.5173  0.3616
 5738TIP3    H238774   2.437   6.105   1.778 -1.3214 -1.4848 -0.9530
 5739TIP3   OH238775   3.932   6.191   1.145 -0.2471 -0.2091  0.2508
 5739TIP3    H138776   4.020   6.153   1.143 -0.6030 -1.0342 -0.3582
 5739TIP3    H238777   3.942   6.276   1.102  0.2675 -0.2669  0.2424
 5740TIP3   OH238778   3.728   5.928   2.294  0.2400 -0.7151  0.4234
 5740TIP3    H138779   3.782   5.906   2.370 -1.2071 -1.7842  1.2166
 5740TIP3    H238780   3.657   5.863   2.297 -0.7042  0.2136 -0.9362
 5741TIP3   OH238781   4.497   3.701   3.298  0.5320  0.0811 -0.1786
 5741TIP3    H138782   4.543   3.681   3.217 -0.1718 -0.5309 -0.4362
 5741TIP3    H238783   4.502   3.621   3.349 -1.5312 -0.5302 -0.8482
 5742TIP3   OH238784   3.514   0.619   3.467  0.5898 -0.0378 -0.6068
 5742TIP3    H138785   3.447   0.644   3.531  1.0178  1.6787 -0.7736
 5742TIP3    H238786   3.597   0.624   3.516  0.7105 -1.1440 -0.6710
 5743TIP3   OH238787   0.441   4.219   3.531 -0.1340 -0.0363  0.5093
 5743TIP3    H138788   0.398   4.290   3.578 -2.6178 -0.3878 -1.0901
 5743TIP3    H238789   0.519   4.260   3.492 -1.0846  1.6289  0.2598
 5744TIP3   OH238790   1.437   6.000   4.267  0.5686 -0.4061  0.0521
 5744TIP3    H138791   1.456   6.052   4.346  0.3921 -0.7279  0.3107
 5744TIP3    H238792   1.391   5.923   4.300 -0.7127  0.0936 -0.5004
 5745TIP3   OH238793   1.868   6.244   0.986 -0.0600 -0.3308 -0.1150
 5745TIP3    H138794   1.873   6.192   1.066  2.9417 -0.3784 -0.2259
 5745TIP3    H238795   1.842   6.181   0.918  1.0709 -1.1834  0.2065
 5746TIP3   OH238796   3.408   1.951   2.608 -0.3498  0.1572  0.2759
 5746TIP3    H138797   3.491   1.940   2.561  0.8841 -0.7323  2.5019
 5746TIP3    H238798   3.362   2.020   2.561  1.7545  0.8378 -0.8832
 5747TIP3   OH238799   4.021   5.829   0.376 -0.4904  0.5496 -0.1570
 5747TIP3    H138800   3.970   5.806   0.454  0.2081  2.0417  0.7836
 5747TIP3    H238801   4.063   5.747   0.351 -0.5032  0.0927  1.2215
 5748TIP3   OH238802   2.530   6.461   2.064  0.6511  0.3812  0.6044
 5748TIP3    H138803   2.515   6.415   1.981  0.3198  0.9854  0.3173
 5748TIP3    H238804   2.624   6.450   2.081  0.7956  0.5600 -0.0464
 5749TIP3   OH238805   6.183   5.273   3.124 -0.1433  0.9162  0.1069
 5749TIP3    H138806   6.231   5.347   3.088  0.2980  1.1823  1.1923
 5749TIP3    H238807   6.177   5.292   3.218 -1.1400  0.1935  0.2041
 5750TIP3   OH238808   1.494   3.477   2.670 -0.0491 -0.0340 -0.4137
 5750TIP3    H138809   1.438   3.504   2.597 -0.7008  1.3299  0.5558
 5750TIP3    H238810   1.512   3.558   2.718  1.2733 -0.7322  0.3269
 5751TIP3   OH238811   3.113   6.734   3.093  0.0142 -0.3040  0.1121
 5751TIP3    H138812   3.128   6.726   2.999 -1.5998  0.6257 -0.2714
 5751TIP3    H238813   3.083   6.824   3.105 -0.1367 -0.5101  1.4653
 5752TIP3   OH238814   6.515   5.195   0.797 -0.0689 -0.1117 -0.0805
 5752TIP3    H138815   6.602   5.197   0.837  0.0304 -1.2058 -0.1880
 5752TIP3    H238816   6.508   5.106   0.761  0.0048  0.9049 -2.8448
 5753TIP3   OH238817   2.473   6.832   2.613 -0.4390 -0.2627  0.1498
 5753TIP3    H138818   2.398   6.773   2.600 -0.8959  0.4037 -0.2718
 5753TIP3    H238819   2.549   6.779   2.589 -0.8520 -0.6595 -0.3222
 5754TIP3   OH238820   0.864   4.264   2.056 -0.2571  0.0012 -0.6265
 5754TIP3    H138821   0.946   4.241   2.011 -0.2476  0.4337 -0.8320
 5754TIP3    H238822   0.893   4.309   2.136 -0.2852 -0.3487 -0.4156
 5755TIP3   OH238823   5.096   3.140   3.810 -0.1619 -0.4944  0.2604
 5755TIP3    H138824   5.059   3.059   3.846 -0.6509  0.1358  1.2334
 5755TIP3    H238825   5.181   3.149   3.853 -1.5611  1.2929  2.9778
 5756TIP3   OH238826   1.841   1.167   3.622 -0.1442  0.7555 -0.8290
 5756TIP3    H138827   1.765   1.159   3.565 -1.3533  3.1292  0.2929
 5756TIP3    H238828   1.831   1.253   3.663  2.1851  0.3567  0.7752
 5757TIP3   OH238829   3.519   0.984   3.052 -0.4905 -0.0450 -0.4103
 5757TIP3    H138830   3.486   0.898   3.027 -0.1796  0.3860 -2.4955
 5757TIP3    H238831   3.590   0.966   3.113 -0.2078 -1.2975 -1.0824
 5758TIP3   OH238832   1.115   1.763   1.030 -0.0787 -0.1222 -0.1057
 5758TIP3    H138833   1.037   1.713   1.007  1.0311 -1.3607 -1.3794
 5758TIP3    H238834   1.109   1.844   0.978  0.0199 -0.7238 -1.0792
 5759TIP3   OH238835   3.745   5.287   3.329 -1.0989  0.5503 -0.7871
 5759TIP3    H138836   3.800   5.296   3.252 -0.1078 -2.4655 -0.5798
 5759TIP3    H238837   3.778   5.353   3.390  0.8672  0.2866 -1.4836
 5760TIP3   OH238838   3.050   6.322   3.723 -0.3448 -0.3901 -0.4360
 5760TIP3    H138839   2.981   6.299   3.785 -2.1561 -1.3881 -2.6677
 5760TIP3    H238840   3.131   6.295   3.766 -1.5932 -1.9020  1.0870
 5761TIP3   OH238841   4.172   1.033   8.495  0.0859 -0.3323  0.3797
 5761TIP3    H138842   4.195   1.014   8.404  0.6702 -1.2415  0.7026
 5761TIP3    H238843   4.216   1.116   8.514  0.3846 -0.3958 -0.0099
 5762TIP3   OH238844   4.799   1.711   3.162 -0.0727 -0.5317 -0.7507
 5762TIP3    H138845   4.811   1.689   3.070 -0.2520 -1.7169 -0.5130
 5762TIP3    H238846   4.887   1.732   3.194  0.0194 -0.3215 -1.1350
 5763TIP3   OH238847   3.918   0.410   0.100  0.6427  0.2063  0.6358
 5763TIP3    H138848   3.957   0.491   0.134  0.0163 -0.3297  2.8271
 5763TIP3    H238849   3.980   0.342   0.123  1.7835  0.1182 -2.3394
 5764TIP3   OH238850   1.375   2.671   4.647  0.0276 -0.0133 -0.3175
 5764TIP3    H138851   1.345   2.676   4.556  0.7720 -0.5727 -0.6025
 5764TIP3    H238852   1.468   2.647   4.641  0.3180  0.8293  0.5677
 5765TIP3   OH238853   1.741   3.093   2.741  0.1116  0.1634 -0.1410
 5765TIP3    H138854   1.819   3.148   2.749 -0.0485  0.9031 -2.6871
 5765TIP3    H238855   1.674   3.138   2.792  0.9194  0.3528  0.7888
 5766TIP3   OH238856   2.836   3.004   2.034  0.2052 -0.5387  0.7593
 5766TIP3    H138857   2.863   2.962   1.953  0.7530  1.1323  0.0402
 5766TIP3    H238858   2.914   3.004   2.089  0.7435  1.0799  0.0598
 5767TIP3   OH238859   1.712   4.385   1.019 -0.0751  0.2679 -0.4261
 5767TIP3    H138860   1.623   4.400   0.990  0.4031  2.7459 -0.8398
 5767TIP3    H238861   1.733   4.461   1.073  1.3149 -0.9917  0.9309
 5768TIP3   OH238862   1.326   1.508   2.393 -0.5236  0.4289 -0.2434
 5768TIP3    H138863   1.251   1.452   2.416 -0.7403 -0.1601 -2.1593
 5768TIP3    H238864   1.310   1.590   2.439 -2.1913  0.1840 -0.3206
 5769TIP3   OH238865   0.949   1.712   0.573 -0.9651 -0.1448 -0.2695
 5769TIP3    H138866   0.955   1.717   0.477  1.1452 -1.0707 -0.2412
 5769TIP3    H238867   0.868   1.758   0.594 -2.0156 -0.7755 -2.5668
 5770TIP3   OH238868   4.410   0.319   3.568 -0.5933 -0.2821 -0.5543
 5770TIP3    H138869   4.437   0.394   3.620  0.1972  0.6103 -2.1566
 5770TIP3    H238870   4.457   0.245   3.606  1.3528  0.6429 -1.0417
 5771TIP3   OH238871   6.669   2.577   4.235  0.5153  0.1257  0.4562
 5771TIP3    H138872   6.639   2.491   4.264  1.5043 -0.7010 -0.8643
 5771TIP3    H238873   6.751   2.591   4.283  0.5590  0.1552  0.3718
 5772TIP3   OH238874   1.234   0.825   1.638 -0.2318 -0.1106 -0.2383
 5772TIP3    H138875   1.192   0.899   1.680 -0.2711  0.1439 -0.7249
 5772TIP3    H238876   1.196   0.748   1.681  0.9051  0.1560  1.3419
 5773TIP3   OH238877   6.089   5.766   0.884 -0.0825 -0.7901  0.2814
 5773TIP3    H138878   6.179   5.737   0.900  0.1854  1.0371  2.6194
 5773TIP3    H238879   6.058   5.796   0.969 -1.9130  1.3262 -1.0214
 5774TIP3   OH238880   2.555   1.121   0.743  0.3568  0.2945  0.0131
 5774TIP3    H138881   2.601   1.060   0.685 -0.1893 -0.1391  0.0193
 5774TIP3    H238882   2.557   1.079   0.829 -1.4635 -0.5714 -0.2992
 5775TIP3   OH238883   0.357   3.666   1.089 -0.3364 -0.1430  0.3403
 5775TIP3    H138884   0.329   3.574   1.088 -0.4306 -0.1241 -1.4624
 5775TIP3    H238885   0.450   3.663   1.067  0.2147  0.0832  2.4171
 5776TIP3   OH238886   0.190   4.751   3.809  0.0292 -0.0689 -0.1156
 5776TIP3    H138887   0.226   4.831   3.771  0.2975  0.2503  0.7820
 5776TIP3    H238888   0.265   4.692   3.818  0.0476  0.0165  0.3091
 5777TIP3   OH238889   4.873   1.221   1.076 -0.2537 -0.4001  0.7315
 5777TIP3    H138890   4.937   1.261   1.136 -1.2094  1.3517  0.6406
 5777TIP3    H238891   4.881   1.272   0.996 -0.7525 -1.1234  0.2201
 5778TIP3   OH238892   6.747   0.769   2.994  0.4676 -0.0105  0.1547
 5778TIP3    H138893   6.700   0.852   2.993 -0.0060 -0.2759 -0.1319
 5778TIP3    H238894   6.836   0.791   2.965  0.0787  0.2418 -0.8718
 5779TIP3   OH238895   3.191   3.419   0.926 -0.7891 -0.4547  0.2876
 5779TIP3    H138896   3.222   3.329   0.916 -0.0633 -0.1771 -0.0474
 5779TIP3    H238897   3.269   3.473   0.913 -1.4419  0.2763 -0.7783
 5780TIP3   OH238898   5.159   6.765   2.193 -0.1067 -0.2388 -0.0538
 5780TIP3    H138899   5.180   6.763   2.286 -1.9721  0.9636  0.4573
 5780TIP3    H238900   5.170   6.857   2.168  0.0637 -0.4951 -0.9481
 5781TIP3   OH238901   5.312   6.381   2.667 -0.5151  0.3276 -0.1187
 5781TIP3    H138902   5.329   6.342   2.581 -0.1442  2.3764 -1.0484
 5781TIP3    H238903   5.391   6.433   2.684 -0.8803  0.4800  1.1610
 5782TIP3   OH238904   2.475   1.160   1.372  0.5166  0.1169  0.7076
 5782TIP3    H138905   2.442   1.238   1.416 -0.2080  0.6964 -0.7792
 5782TIP3    H238906   2.504   1.103   1.443 -0.7653  0.9155  1.9411
 5783TIP3   OH238907   2.768   5.434   3.422 -0.2889  0.4526 -0.3491
 5783TIP3    H138908   2.796   5.344   3.407 -0.1251  0.4928 -0.2901
 5783TIP3    H238909   2.836   5.471   3.478 -0.9085  0.2869  0.5471
 5784TIP3   OH238910   6.731   3.693   0.719  0.0576  0.5760 -0.1532
 5784TIP3    H138911   6.721   3.625   0.785  0.8732  1.3154  0.7646
 5784TIP3    H238912   6.805   3.665   0.666  0.4912  0.8014  0.3194
 5785TIP3   OH238913   4.378   5.251   2.764  0.1962 -0.7428 -0.2875
 5785TIP3    H138914   4.354   5.314   2.697  1.5260 -2.0627 -2.1080
 5785TIP3    H238915   4.294   5.219   2.798 -0.6247 -1.5406 -2.8436
 5786TIP3   OH238916   0.979   0.144   1.575 -0.8169 -0.2702  0.5069
 5786TIP3    H138917   1.024   0.217   1.617 -0.9798 -0.1571  0.4861
 5786TIP3    H238918   1.044   0.074   1.572 -0.6622 -0.1285  0.5344
 5787TIP3   OH238919   1.276   1.081   1.147 -0.6005  1.0964 -0.1728
 5787TIP3    H138920   1.194   1.071   1.197 -0.8353 -0.8298 -0.8673
 5787TIP3    H238921   1.251   1.064   1.056  1.0870 -3.1293 -0.0385
 5788TIP3   OH238922   6.019   6.631   3.170 -0.0679  0.4404 -0.4692
 5788TIP3    H138923   5.974   6.564   3.118 -0.0256 -0.3251  0.4627
 5788TIP3    H238924   6.101   6.590   3.197 -0.2146  0.7304  0.4418
 5789TIP3   OH238925   5.993   6.697   0.974 -0.3202  0.7263 -0.6501
 5789TIP3    H138926   5.952   6.769   0.925  0.7811  1.3148 -0.7486
 5789TIP3    H238927   6.011   6.735   1.060 -2.1794 -0.2797  0.2380
 5790TIP3   OH238928   2.778   2.158   1.639 -0.5587 -0.0468  0.3086
 5790TIP3    H138929   2.768   2.100   1.564  2.0461  0.0335 -0.1880
 5790TIP3    H238930   2.732   2.238   1.613 -1.0856 -0.6016 -0.5211
 5791TIP3   OH238931   5.847   6.145   3.709 -0.4254  0.2475  0.1056
 5791TIP3    H138932   5.852   6.194   3.792 -1.1465 -0.3789  0.5354
 5791TIP3    H238933   5.868   6.210   3.642  2.4596  0.2529  0.8894
 5792TIP3   OH238934   1.015   4.215   1.822 -0.6793 -0.9036  0.6671
 5792TIP3    H138935   1.047   4.126   1.833 -2.2883 -1.6953 -0.5749
 5792TIP3    H238936   0.967   4.214   1.739  1.1756  1.7204 -0.5770
 5793TIP3   OH238937   0.899   3.877   2.043  0.5713  0.0417 -0.2911
 5793TIP3    H138938   0.818   3.910   2.004  0.5198 -0.1360 -0.3388
 5793TIP3    H238939   0.943   3.831   1.971  0.3388 -0.5344 -0.0766
 5794TIP3   OH238940   4.760   6.045   3.760  0.2845 -0.5274  0.2462
 5794TIP3    H138941   4.752   6.048   3.856  0.1493  1.0960  0.2104
 5794TIP3    H238942   4.854   6.052   3.744  0.5113 -2.8117  0.2713
 5795TIP3   OH238943   3.855   5.324   2.398 -0.1962  0.6804 -0.0579
 5795TIP3    H138944   3.772   5.361   2.427 -0.1517  0.1187  0.8285
 5795TIP3    H238945   3.847   5.230   2.414  1.0294  0.7425  1.1779
 5796TIP3   OH238946   6.584   5.123   2.707  0.1800 -0.3545  0.3900
 5796TIP3    H138947   6.501   5.153   2.742 -1.3490 -3.1440 -0.4841
 5796TIP3    H238948   6.612   5.054   2.767  0.6749 -0.9832 -0.5299
 5797TIP3   OH238949   5.669   5.066   1.606 -0.2749  0.1811 -0.4228
 5797TIP3    H138950   5.687   5.151   1.647 -2.2379 -0.6021  2.3554
 5797TIP3    H238951   5.582   5.076   1.567  0.1810 -0.1137 -1.5564
 5798TIP3   OH238952   2.392   5.433   1.790  0.3233  0.1164  0.4931
 5798TIP3    H138953   2.376   5.464   1.879 -1.8785  3.2602 -0.7887
 5798TIP3    H238954   2.474   5.476   1.764  0.0684  0.6053  0.4805
 5799TIP3   OH238955   5.272   2.388   1.244 -0.0912  0.9421 -0.7344
 5799TIP3    H138956   5.351   2.358   1.199  0.2680  0.4056  0.2304
 5799TIP3    H238957   5.213   2.312   1.241  0.4516  0.4206  0.8650
 5800TIP3   OH238958   0.736   6.206   2.308  0.0039 -0.2478 -0.4933
 5800TIP3    H138959   0.688   6.151   2.371 -2.2966  3.6582  1.5709
 5800TIP3    H238960   0.821   6.221   2.349  0.1759 -1.2007 -0.4803
 5801TIP3   OH238961   4.351   2.748   1.635  0.3286 -0.7087 -0.1252
 5801TIP3    H138962   4.434   2.730   1.591  0.3971 -2.3606  0.5766
 5801TIP3    H238963   4.376   2.782   1.721  0.2567 -0.2301 -0.2930
 5802TIP3   OH238964   0.825   0.227   0.923  0.0784 -0.3148 -0.2003
 5802TIP3    H138965   0.855   0.196   1.008 -1.4342  2.1515  1.3148
 5802TIP3    H238966   0.760   0.162   0.895  0.6586 -1.1937  0.4351
 5803TIP3   OH238967   0.756   2.655   4.042 -0.3230 -0.6537  0.0883
 5803TIP3    H138968   0.789   2.745   4.041  1.8021 -1.3075 -3.1019
 5803TIP3    H238969   0.822   2.606   4.091 -1.9971 -0.4412  2.7393
 5804TIP3   OH238970   1.410   1.241   3.296  0.2971 -0.5346  0.1309
 5804TIP3    H138971   1.449   1.171   3.244 -0.2715 -1.2766  0.6591
 5804TIP3    H238972   1.341   1.277   3.240  0.9384 -0.0410 -0.3428
 5805TIP3   OH238973   4.508   4.113   2.916 -0.5179  0.1583 -0.6650
 5805TIP3    H138974   4.531   4.188   2.860 -1.0673  0.5555 -0.3705
 5805TIP3    H238975   4.415   4.126   2.936 -0.6320 -0.6405 -0.6550
 5806TIP3   OH238976   5.715   5.968   3.086  0.2984 -0.4328  0.3827
 5806TIP3    H138977   5.670   5.892   3.050 -2.0450  0.5418  1.0600
 5806TIP3    H238978   5.704   5.959   3.181 -1.7087  1.6451  0.4254
 5807TIP3   OH238979   5.634   0.696   2.356  0.0536 -0.0722 -0.3064
 5807TIP3    H138980   5.619   0.789   2.373 -0.5102 -0.0077 -1.0938
 5807TIP3    H238981   5.549   0.655   2.373  0.3055 -0.4498  0.0540
 5808TIP3   OH238982   3.783   1.486   2.253  0.0577 -0.0938 -0.0167
 5808TIP3    H138983   3.834   1.533   2.188  0.5895 -1.9187 -0.9947
 5808TIP3    H238984   3.699   1.468   2.210 -0.2454  0.1909  0.4447
 5809TIP3   OH238985   3.339   1.241   3.573 -0.2612  0.1133 -0.5662
 5809TIP3    H138986   3.393   1.209   3.645 -1.8026  0.0729  0.6465
 5809TIP3    H238987   3.400   1.261   3.503  1.1846 -1.0527  0.3074
 5810TIP3   OH238988   4.763   6.888   0.057  0.5863  0.5265 -1.2372
 5810TIP3    H138989   4.759   6.971   0.009 -1.6612  2.4852  2.0308
 5810TIP3    H238990   4.820   6.906   0.132 -0.1834 -0.8023 -0.2947
 5811TIP3   OH238991   6.623   3.764   1.819  0.0362 -0.1093  0.2473
 5811TIP3    H138992   6.570   3.744   1.895  0.5118 -2.5725  0.0209
 5811TIP3    H238993   6.569   3.739   1.744  0.2821  0.5039 -0.1488
 5812TIP3   OH238994   0.473   5.856   0.609  0.1968  0.0340  0.1287
 5812TIP3    H138995   0.502   5.946   0.593  0.5190 -0.1611 -0.3882
 5812TIP3    H238996   0.381   5.864   0.634  0.0446  0.4492 -0.5622
 5813TIP3   OH238997   6.679   5.348   1.827  0.4093  0.2954 -0.0267
 5813TIP3    H138998   6.751   5.389   1.875  1.5044 -0.3966 -1.0460
 5813TIP3    H238999   6.652   5.414   1.764  0.8858  0.1584 -0.3771
 5814TIP3   OH239000   5.613   1.249   4.264 -0.2790  0.0363  0.4429
 5814TIP3    H139001   5.545   1.239   4.330 -1.8215 -1.0689 -1.2160
 5814TIP3    H239002   5.678   1.181   4.285  1.3855  2.2656  3.1234
 5815TIP3   OH239003   4.464   6.242   2.363 -0.3369 -0.0732 -0.0766
 5815TIP3    H139004   4.379   6.261   2.403 -0.7858 -0.9995 -0.5522
 5815TIP3    H239005   4.517   6.319   2.383 -1.3236  0.5865  0.1242
 5816TIP3   OH239006   3.062   5.550   1.349  0.2574 -0.4821  0.2674
 5816TIP3    H139007   3.070   5.465   1.392 -0.0618 -0.6336  0.0288
 5816TIP3    H239008   2.985   5.590   1.390  0.4368 -0.2863  0.4160
 5817TIP3   OH239009   2.796   2.113   3.599  0.4297  0.4195 -0.0780
 5817TIP3    H139010   2.852   2.185   3.628  0.4667  0.0649  0.7289
 5817TIP3    H239011   2.827   2.037   3.646  0.9849 -0.3445 -1.5984
 5818TIP3   OH239012   4.947   0.358   1.977 -0.4357 -0.2592  0.3038
 5818TIP3    H139013   4.911   0.356   2.066  0.4284 -2.5510  0.6637
 5818TIP3    H239014   4.880   0.317   1.923  0.2049 -1.4448  0.3966
 5819TIP3   OH239015   6.680   2.655   2.951  0.2900 -0.2534 -0.6912
 5819TIP3    H139016   6.740   2.586   2.921 -0.3373 -0.6963 -0.9384
 5819TIP3    H239017   6.711   2.734   2.907  0.5804 -0.5129 -0.9606
 5820TIP3   OH239018   3.402   0.007   3.052 -0.0169  0.1793 -0.4577
 5820TIP3    H139019   3.449  -0.010   3.134 -0.1244  1.0004 -0.2213
 5820TIP3    H239020   3.329   0.063   3.078 -1.0964 -0.9950 -0.8291
 5821TIP3   OH239021   2.369   0.526   2.060 -0.0829  0.2570  0.3955
 5821TIP3    H139022   2.402   0.440   2.033  0.6985  0.4514  0.7182
 5821TIP3    H239023   2.332   0.510   2.147  0.8794  0.4279  0.8440
 5822TIP3   OH239024   6.237   6.221   1.931 -0.6085  0.7743  0.6516
 5822TIP3    H139025   6.229   6.167   2.009 -2.7586  1.7123  1.1656
 5822TIP3    H239026   6.171   6.290   1.942 -0.0205  1.7539 -1.3455
 5823TIP3   OH239027   2.993   0.127   3.896  0.8176 -0.0067  0.2061
 5823TIP3    H139028   2.911   0.077   3.889 -0.8501  2.4992  0.5363
 5823TIP3    H239029   3.042   0.083   3.965  0.2325 -2.1708 -0.6882
 5824TIP3   OH239030   6.257   5.308   0.131 -0.4193 -0.0417 -0.1541
 5824TIP3    H139031   6.242   5.317   0.037 -1.5280 -0.9226 -0.0722
 5824TIP3    H239032   6.308   5.227   0.140 -0.9175 -0.3395  0.0481
 5825TIP3   OH239033   5.466   2.641   2.309 -0.8564 -0.2192 -0.1404
 5825TIP3    H139034   5.419   2.673   2.232  0.1510 -0.9414 -1.0940
 5825TIP3    H239035   5.556   2.671   2.296 -0.4039 -1.3890  0.1189
 5826TIP3   OH239036   2.262   4.630   3.761  0.2807  0.0045  0.3092
 5826TIP3    H139037   2.300   4.712   3.793 -0.2360 -0.0309  1.0509
 5826TIP3    H239038   2.307   4.613   3.679 -1.3543  2.3652 -1.1928
 5827TIP3   OH239039   0.713   3.295   2.535  0.3293  0.0970 -0.2667
 5827TIP3    H139040   0.768   3.232   2.582 -1.6335 -2.6946 -1.4039
 5827TIP3    H239041   0.664   3.242   2.473 -1.1210  2.8995 -1.7114
 5828TIP3   OH239042   4.153   3.565   1.967 -0.4198  0.4278 -0.8298
 5828TIP3    H139043   4.120   3.503   2.031 -1.4521  1.2490 -0.5410
 5828TIP3    H239044   4.192   3.511   1.898  0.5313 -0.4685  0.3712
 5829TIP3   OH239045   3.344   2.062   0.556 -0.5045 -0.1190 -0.2449
 5829TIP3    H139046   3.392   2.142   0.535  0.2764 -0.4938  0.0899
 5829TIP3    H239047   3.256   2.077   0.521 -0.4148  0.9455 -0.0522
 5830TIP3   OH239048   4.635   3.490   2.635 -0.3195 -0.7534  0.3212
 5830TIP3    H139049   4.710   3.481   2.693  1.1530  1.5768 -1.0570
 5830TIP3    H239050   4.664   3.455   2.551 -1.0988 -0.6756  0.0023
 5831TIP3   OH239051   1.923   1.767   2.236  0.4086 -0.1828 -0.5007
 5831TIP3    H139052   1.856   1.810   2.184  0.7599 -0.6084 -1.3243
 5831TIP3    H239053   1.881   1.750   2.321 -0.0712  0.7810 -0.5319
 5832TIP3   OH239054   1.002   5.251   3.679 -0.6319  0.4605  0.5269
 5832TIP3    H139055   1.068   5.253   3.610 -2.4536 -1.9727 -1.4857
 5832TIP3    H239056   1.036   5.308   3.748  2.2972  1.2957 -1.4694
 5833TIP3   OH239057   3.343   4.366   3.354  0.5901  0.3850 -0.9245
 5833TIP3    H139058   3.277   4.432   3.332  0.6216  0.7991  0.1713
 5833TIP3    H239059   3.293   4.295   3.394  0.8145  0.7734  0.0670
 5834TIP3   OH239060   0.132   4.638   1.833 -0.1169 -0.9491 -0.4036
 5834TIP3    H139061   0.190   4.686   1.774  1.5597 -0.4122  1.5499
 5834TIP3    H239062   0.136   4.547   1.801 -0.5273 -0.4394 -2.0128
 5835TIP3   OH239063   3.910   1.110   0.031  0.0927 -0.1409  0.5411
 5835TIP3    H139064   3.991   1.066   0.006  1.0023 -0.2714  3.2892
 5835TIP3    H239065   3.937   1.173   0.098 -1.5688  2.7101 -1.2346
 5836TIP3   OH239066   3.958   5.361   1.491  0.8361 -0.0840 -0.0303
 5836TIP3    H139067   4.006   5.278   1.487 -1.6826 -1.7210 -5.0029
 5836TIP3    H239068   4.020   5.426   1.456  1.8521 -0.4742  0.9961
 5837TIP3   OH239069   0.156   6.051   4.397  0.1254 -0.6523  0.6346
 5837TIP3    H139070   0.148   5.970   4.448  1.5312 -1.2271 -0.0205
 5837TIP3    H239071   0.158   6.120   4.462 -0.9336 -1.1473  1.2154
 5838TIP3   OH239072   0.594   5.610   2.743  0.0304  0.2250  0.5467
 5838TIP3    H139073   0.525   5.638   2.804  0.0003  1.3214  0.0161
 5838TIP3    H239074   0.660   5.678   2.749 -0.2783  0.7142 -1.1481
 5839TIP3   OH239075   6.409   6.079   3.197 -0.2124  0.2140 -0.0332
 5839TIP3    H139076   6.496   6.049   3.223 -0.8834 -1.4730  0.3912
 5839TIP3    H239077   6.414   6.175   3.202  2.2221  0.3083 -2.0612
 5840TIP3   OH239078   1.693   3.713   3.698 -0.0211  0.1874  0.0496
 5840TIP3    H139079   1.668   3.622   3.682 -0.4081  0.3147 -0.0743
 5840TIP3    H239080   1.776   3.723   3.652 -0.8616  0.4067 -1.4650
 5841TIP3   OH239081   1.145   3.341   0.968 -0.4463  0.2324 -0.6732
 5841TIP3    H139082   1.140   3.284   1.045  2.0118 -1.3911 -1.5907
 5841TIP3    H239083   1.057   3.378   0.960 -1.4719 -1.5177  1.4160
 5842TIP3   OH239084   3.635   1.457   0.018  0.2909 -0.2257 -0.3871
 5842TIP3    H139085   3.662   1.400   0.090 -1.2326 -0.9571 -0.3407
 5842TIP3    H239086   3.599   1.398  -0.047 -1.3753  0.6526 -0.3271
 5843TIP3   OH239087   1.142   6.761   3.992 -0.4112  0.4376  0.0322
 5843TIP3    H139088   1.156   6.689   3.932  0.0904  0.7175 -0.1923
 5843TIP3    H239089   1.224   6.810   3.992 -1.1393  1.7214 -0.7881
 5844TIP3   OH239090   3.789   6.615   3.604  0.3918 -0.4095  0.0573
 5844TIP3    H139091   3.851   6.615   3.531  0.7527 -2.9454  0.2674
 5844TIP3    H239092   3.832   6.665   3.673  1.5970 -0.9410 -0.2896
 5845TIP3   OH239093   6.152   5.949   2.798  0.3671  0.4063 -0.6313
 5845TIP3    H139094   6.092   5.908   2.736  0.6723  2.3957 -2.3130
 5845TIP3    H239095   6.110   5.937   2.883 -0.8432 -0.9779 -1.3806
 5846TIP3   OH239096   5.172   6.277   1.033  0.0770  0.4955 -0.0882
 5846TIP3    H139097   5.254   6.240   1.067 -0.3578 -0.3283  0.0837
 5846TIP3    H239098   5.196   6.313   0.948  0.5462 -0.0351 -0.1832
 5847TIP3   OH239099   4.300   5.326   0.929 -0.2910 -0.2354 -0.5358
 5847TIP3    H139100   4.286   5.416   0.902  0.4494  0.1993  0.4376
 5847TIP3    H239101   4.396   5.317   0.934 -0.3558 -1.1089 -0.7429
 5848TIP3   OH239102   5.806   0.229   4.397  0.5247 -0.4313 -0.2601
 5848TIP3    H139103   5.769   0.150   4.358  3.5357 -1.9250 -0.3783
 5848TIP3    H239104   5.848   0.198   4.477 -0.3048  1.5333  1.0181
 5849TIP3   OH239105   0.837   4.257   1.602 -0.2537 -0.4442  0.1147
 5849TIP3    H139106   0.891   4.320   1.555  0.6236 -0.9410  0.4252
 5849TIP3    H239107   0.755   4.303   1.620  0.6059  0.8301  0.9014
 5850TIP3   OH239108   2.324   3.524   2.124 -0.3950  0.1979  0.0258
 5850TIP3    H139109   2.305   3.524   2.218  1.4128  1.0994  0.4411
 5850TIP3    H239110   2.415   3.494   2.118 -1.3954 -2.8825 -1.7155
 5851TIP3   OH239111   6.868   5.154   1.695  0.0018  0.0873  0.0670
 5851TIP3    H139112   6.898   5.110   1.774 -0.0566  0.6640  0.4140
 5851TIP3    H239113   6.799   5.213   1.724  0.5854  0.9601 -0.2656
 5852TIP3   OH239114   0.656   2.809   1.219 -0.1853 -0.1617  0.4081
 5852TIP3    H139115   0.715   2.867   1.266  0.4715 -0.2883 -0.2501
 5852TIP3    H239116   0.688   2.721   1.237  1.4806 -0.1565 -2.0233
 5853TIP3   OH239117   0.288   5.914   1.042 -0.5558  0.0236  0.2193
 5853TIP3    H139118   0.349   5.984   1.063 -0.0604 -0.3206 -0.0255
 5853TIP3    H239119   0.202   5.947   1.066 -0.4463  1.0724 -0.7642
 5854TIP3   OH239120   6.457   3.085   2.891  1.0015 -0.8780  0.0880
 5854TIP3    H139121   6.534   3.067   2.945  1.1745 -2.1416 -0.5390
 5854TIP3    H239122   6.483   3.059   2.803  0.6644  1.0042 -0.6041
 5855TIP3   OH239123   5.094   5.554   1.898  0.5231  0.3122 -0.6059
 5855TIP3    H139124   5.104   5.515   1.985 -0.7210  1.7805  0.2465
 5855TIP3    H239125   5.178   5.539   1.855  0.7372 -1.5674  0.3566
 5856TIP3   OH239126   3.225   3.043   1.184  0.1575  0.2973  0.2630
 5856TIP3    H139127   3.208   2.949   1.182 -2.3728  0.7008 -0.2381
 5856TIP3    H239128   3.189   3.072   1.268 -0.7329  1.0624 -0.3677
 5857TIP3   OH239129   1.717   3.240   0.176  0.5336 -0.4181 -0.1214
 5857TIP3    H139130   1.625   3.216   0.167  0.6655 -1.4656  1.1357
 5857TIP3    H239131   1.731   3.306   0.107 -0.7685 -1.3091 -1.2929
 5858TIP3   OH239132   1.402   3.593   4.667  0.7248 -0.7230  0.0162
 5858TIP3    H139133   1.338   3.554   4.726  1.2888  0.5325  1.5569
 5858TIP3    H239134   1.370   3.683   4.653  1.4301 -0.5098 -0.3016
 5859TIP3   OH239135   1.214   4.099   3.787  0.2610  0.0379 -0.4300
 5859TIP3    H139136   1.224   4.184   3.830  1.9050 -0.0678 -0.5502
 5859TIP3    H239137   1.245   4.114   3.697 -0.0027 -0.5464 -0.6233
 5860TIP3   OH239138   0.827   4.375   0.168  0.0977 -0.3615  0.0053
 5860TIP3    H139139   0.900   4.434   0.149  1.0700 -1.9815 -1.4996
 5860TIP3    H239140   0.791   4.353   0.083  0.6320 -2.9771  0.3739
 5861TIP3   OH239141   4.732   1.602   2.553  0.6020 -0.3343  0.2780
 5861TIP3    H139142   4.724   1.571   2.643  0.7164 -0.2168  0.3302
 5861TIP3    H239143   4.669   1.551   2.504  0.7016 -0.5604  0.3843
 5862TIP3   OH239144   3.774   0.921   1.773 -0.5716 -0.1983  0.3292
 5862TIP3    H139145   3.761   0.865   1.850  0.0388 -0.4781  0.2374
 5862TIP3    H239146   3.849   0.881   1.727 -0.0811  0.7325  0.2968
 5863TIP3   OH239147   0.488   3.390   3.390 -0.1625 -0.6030  0.2777
 5863TIP3    H139148   0.456   3.479   3.373  1.5282 -0.0804 -0.3354
 5863TIP3    H239149   0.512   3.356   3.304  1.9042 -0.5443  0.7669
 5864TIP3   OH239150   0.197   2.509   1.518 -0.2640  0.3989  0.5234
 5864TIP3    H139151   0.233   2.502   1.429 -0.4616  2.2432  0.2492
 5864TIP3    H239152   0.274   2.510   1.575 -0.1359 -0.7625  0.4010
 5865TIP3   OH239153   4.436   0.689   0.972  0.2176  0.4387  0.2827
 5865TIP3    H139154   4.454   0.671   0.879  0.8074  2.6341 -0.1035
 5865TIP3    H239155   4.343   0.670   0.983  0.2069 -0.1302 -0.6938
 5866TIP3   OH239156   4.161   5.536   1.101  0.2908 -0.1017 -0.0065
 5866TIP3    H139157   4.073   5.511   1.074  0.8924  0.8615 -3.1964
 5866TIP3    H239158   4.200   5.577   1.024  2.3707  2.6334  2.2609
 5867TIP3   OH239159   5.683   5.653   3.019  0.0573 -0.0018 -0.2143
 5867TIP3    H139160   5.743   5.578   3.022 -0.5588 -0.4730  1.0785
 5867TIP3    H239161   5.631   5.646   3.099 -0.7548  1.2100 -0.5982
 5868TIP3   OH239162   1.389   1.273   0.616  0.3655  0.3953  0.4070
 5868TIP3    H139163   1.384   1.179   0.634  1.0072 -0.0402 -1.5360
 5868TIP3    H239164   1.399   1.279   0.521 -0.2325  2.4578  0.4324
 5869TIP3   OH239165   6.395   2.724   2.467 -0.4008 -0.2871  0.4301
 5869TIP3    H139166   6.429   2.638   2.490 -1.9591 -0.7496  1.1407
 5869TIP3    H239167   6.470   2.783   2.477  1.0658 -1.7165 -1.4395
 5870TIP3   OH239168   1.212   5.730   3.207  0.3914  0.2246 -0.1175
 5870TIP3    H139169   1.220   5.647   3.254 -1.8617  0.5015  0.8825
 5870TIP3    H239170   1.137   5.717   3.148 -0.7897  1.8964  0.9317
 5871TIP3   OH239171   5.000   4.823   4.450  0.2574  0.5048 -0.1834
 5871TIP3    H139172   5.007   4.895   4.512  1.4337  0.4017 -0.1819
 5871TIP3    H239173   5.014   4.863   4.364  0.5299  0.3385 -0.2164
 5872TIP3   OH239174   6.826   5.415   2.314  0.4071 -0.6161  0.3864
 5872TIP3    H139175   6.898   5.424   2.252  0.7857 -0.6270  0.8194
 5872TIP3    H239176   6.838   5.487   2.377 -0.5425  0.0063 -0.1098
 5873TIP3   OH239177   6.451   3.626   3.447  0.0438  0.3960  0.4266
 5873TIP3    H139178   6.412   3.540   3.465  1.3230 -0.8295 -2.1767
 5873TIP3    H239179   6.545   3.611   3.452  0.3491  1.1123 -1.8834
 5874TIP3   OH239180   1.212   2.555   3.240 -0.3838  0.0748 -0.4063
 5874TIP3    H139181   1.211   2.646   3.267  0.2424  0.8554 -2.7443
 5874TIP3    H239182   1.304   2.536   3.222 -0.8071  0.0578 -3.0103
 5875TIP3   OH239183   6.358   3.339   0.211 -0.1731  0.2788  0.1610
 5875TIP3    H139184   6.307   3.273   0.258 -0.0954  0.6046  0.7059
 5875TIP3    H239185   6.423   3.288   0.162 -1.4226 -0.2083 -1.0931
 5876TIP3   OH239186   6.341   1.560   3.514  0.0317  0.3315  0.3603
 5876TIP3    H139187   6.310   1.581   3.426  0.7288  1.5324  0.3859
 5876TIP3    H239188   6.264   1.524   3.558 -0.1327 -1.0708 -0.9566
 5877TIP3   OH239189   6.391   6.119   0.301  0.2577  0.5283  0.1663
 5877TIP3    H139190   6.454   6.147   0.235  1.1401  0.6050  1.0331
 5877TIP3    H239191   6.310   6.166   0.278  0.6952  0.9450 -0.5498
 5878TIP3   OH239192   6.810   5.197   4.807  0.0589  0.1053 -0.5673
 5878TIP3    H139193   6.864   5.148   4.870  2.7068  2.7602 -0.5471
 5878TIP3    H239194   6.816   5.147   4.726  2.6207  0.2084 -0.5367
 5879TIP3   OH239195   1.847   4.726   2.901 -0.4470  0.3259  0.3494
 5879TIP3    H139196   1.940   4.723   2.877 -0.4600 -1.6780  0.3995
 5879TIP3    H239197   1.804   4.766   2.825  0.3499  0.3953 -0.0764
 5880TIP3   OH239198   1.000   5.951   1.249  0.3809 -0.2425  0.0672
 5880TIP3    H139199   0.984   5.982   1.338 -0.5990  0.3324 -0.3004
 5880TIP3    H239200   0.917   5.915   1.221 -0.5759  3.2227 -2.0522
 5881TIP3   OH239201   2.615   4.953   0.683  0.1316  0.0857 -0.0592
 5881TIP3    H139202   2.663   4.879   0.720  0.9880  0.3359 -0.6182
 5881TIP3    H239203   2.608   4.932   0.590 -1.6439 -0.3501  0.1425
 5882TIP3   OH239204   3.237   5.072   1.402 -0.1765 -0.6118  0.1629
 5882TIP3    H139205   3.322   5.030   1.394 -0.2006 -0.8764  1.1495
 5882TIP3    H239206   3.211   5.092   1.312  0.6293 -1.1095 -0.1877
 5883TIP3   OH239207   3.640   3.057   3.239  0.5232  0.2919 -0.4168
 5883TIP3    H139208   3.660   2.963   3.249  0.0043  0.3803  2.3397
 5883TIP3    H239209   3.546   3.059   3.221 -0.1047  0.2782  2.4355
 5884TIP3   OH239210   5.908   1.932   3.071  0.4718 -0.2692 -0.3595
 5884TIP3    H139211   5.970   1.875   3.023 -0.7195 -0.8649 -1.2505
 5884TIP3    H239212   5.936   1.926   3.162  2.0774 -0.0627 -0.8054
 5885TIP3   OH239213   2.768   4.468   8.190 -0.0731 -0.0668  0.5957
 5885TIP3    H139214   2.746   4.540   8.248 -1.8723  1.4472 -1.7696
 5885TIP3    H239215   2.685   4.423   8.174  0.4015 -0.5566 -0.6386
 5886TIP3   OH239216   4.122   3.965   1.845  0.7401  0.6166  0.4024
 5886TIP3    H139217   4.110   3.990   1.754  0.5562 -0.2466  0.1803
 5886TIP3    H239218   4.155   4.044   1.888 -1.5326  1.7801  0.1153
 5887TIP3   OH239219   2.061   4.228   0.567  0.1094 -0.0654  0.1969
 5887TIP3    H139220   2.019   4.284   0.501 -1.6918 -1.2192  0.2728
 5887TIP3    H239221   2.105   4.289   0.626 -0.1613  1.1341 -0.8055
 5888TIP3   OH239222   0.356   6.673   2.998  0.3414  0.2259  0.4863
 5888TIP3    H139223   0.375   6.663   2.905 -1.3935  0.6220  0.0592
 5888TIP3    H239224   0.436   6.709   3.035  1.0220  0.1691 -0.8707
 5889TIP3   OH239225   5.065   2.170   3.855 -0.0198  0.1742  0.1079
 5889TIP3    H139226   5.117   2.096   3.823  1.1565  0.4905  1.1977
 5889TIP3    H239227   5.107   2.247   3.817  1.0880  0.5192  1.8871
 5890TIP3   OH239228   4.173   0.696   1.435  0.1258  0.2440 -0.1510
 5890TIP3    H139229   4.247   0.756   1.443 -0.2270  0.5842  0.8292
 5890TIP3    H239230   4.211   0.613   1.408  0.4704  1.2180 -2.9619
 5891TIP3   OH239231   1.467   3.875   3.751  0.3937 -0.5283 -0.0424
 5891TIP3    H139232   1.518   3.795   3.762  0.7419 -0.3929 -0.6098
 5891TIP3    H239233   1.404   3.854   3.681 -0.3341 -0.6916  0.6469
 5892TIP3   OH239234   0.832   2.392   1.537 -0.1187 -0.4067  0.0769
 5892TIP3    H139235   0.926   2.407   1.538 -0.4029  1.9923 -1.0606
 5892TIP3    H239236   0.801   2.429   1.620 -0.1773 -0.0822 -0.0876
 5893TIP3   OH239237   3.052   4.473   2.634 -0.2657  0.0186 -0.0270
 5893TIP3    H139238   3.085   4.417   2.704 -0.7703  0.3222  0.4576
 5893TIP3    H239239   3.088   4.434   2.554  0.0865 -0.4922  0.3700
 5894TIP3   OH239240   0.642   6.537   4.069 -0.0219  0.3011 -0.4665
 5894TIP3    H139241   0.578   6.499   4.129  2.0430 -0.1937  1.6022
 5894TIP3    H239242   0.622   6.631   4.068  0.4861  0.5181  1.9687
 5895TIP3   OH239243   1.784   0.020   2.955 -0.0672  0.0483 -0.4836
 5895TIP3    H139244   1.863  -0.023   2.989 -2.0387 -2.3524  1.4960
 5895TIP3    H239245   1.724  -0.052   2.936 -2.0515  1.7975 -1.2912
 5896TIP3   OH239246   0.672   5.789   3.702 -0.1443 -0.3001  0.4334
 5896TIP3    H139247   0.650   5.696   3.715 -0.5747 -0.1727  0.6379
 5896TIP3    H239248   0.675   5.825   3.790  0.9815 -0.3262  0.4150
 5897TIP3   OH239249   2.239   2.082   0.020  0.5250  0.1448 -0.5483
 5897TIP3    H139250   2.322   2.124  -0.003  0.5951  2.0553  2.5187
 5897TIP3    H239251   2.187   2.153   0.059 -2.2527 -1.1860 -1.5668
 5898TIP3   OH239252   3.655   1.611   1.303 -0.5266 -0.5404 -0.1141
 5898TIP3    H139253   3.670   1.562   1.222 -0.1174  0.5246 -0.6953
 5898TIP3    H239254   3.619   1.695   1.275  2.3207  1.0234  0.5308
 5899TIP3   OH239255   5.158   4.040   0.667  0.4661 -0.0308 -0.1797
 5899TIP3    H139256   5.076   4.018   0.622 -0.2874  1.9044  0.1476
 5899TIP3    H239257   5.227   4.007   0.610 -0.5191 -0.9208 -0.8960
 5900TIP3   OH239258   6.539   6.079   1.315 -0.6500  0.5006  0.0455
 5900TIP3    H139259   6.599   6.126   1.373  0.3954 -0.5888 -0.1170
 5900TIP3    H239260   6.455   6.081   1.360 -0.0271  0.3419  1.2336
 5901TIP3   OH239261   3.499   2.766   2.677  0.1732 -0.2675  0.2249
 5901TIP3    H139262   3.577   2.804   2.637  0.9277 -2.7975 -0.8253
 5901TIP3    H239263   3.460   2.839   2.726  3.2875  1.0495  0.9942
 5902TIP3   OH239264   4.694   4.851   2.122 -0.0654  0.5511 -0.0234
 5902TIP3    H139265   4.763   4.856   2.187 -0.2858  2.1834  0.1440
 5902TIP3    H239266   4.738   4.822   2.042  0.8968  1.8124  0.0099
 5903TIP3   OH239267   2.808   0.086   2.498 -0.0328 -0.1014  0.0070
 5903TIP3    H139268   2.759   0.004   2.489  1.1100 -0.6925 -1.1356
 5903TIP3    H239269   2.746   0.146   2.540 -1.0402 -1.4117  0.4764
 5904TIP3   OH239270   5.454   2.604   1.521  0.0509  0.4034  0.3058
 5904TIP3    H139271   5.412   2.652   1.593 -1.0230  0.2071 -0.1670
 5904TIP3    H239272   5.444   2.512   1.545 -1.8851  0.2550 -0.8954
 5905TIP3   OH239273   2.010   0.891   1.709 -0.1293  0.3296 -0.1051
 5905TIP3    H139274   2.001   0.938   1.792 -0.2208 -0.3257  0.2630
 5905TIP3    H239275   2.102   0.900   1.685 -0.2442  1.0818 -0.2742
 5906TIP3   OH239276   5.231   6.677   3.807  0.2696  0.0518 -0.1932
 5906TIP3    H139277   5.162   6.726   3.762  1.1551  0.3958 -1.2229
 5906TIP3    H239278   5.238   6.718   3.893 -1.1034 -0.2793  0.0882
 5907TIP3   OH239279   6.551   3.027   0.857  0.0841 -0.1282  0.3933
 5907TIP3    H139280   6.616   3.068   0.915  1.1062 -0.4462 -0.4958
 5907TIP3    H239281   6.549   3.083   0.780 -0.4960 -0.2836  0.2921
 5908TIP3   OH239282   0.794   4.624   0.466  0.5507  0.4066 -0.0964
 5908TIP3    H139283   0.876   4.605   0.511 -0.1523 -2.0453  0.3039
 5908TIP3    H239284   0.815   4.696   0.407  2.5633  0.8910  1.1372
 5909TIP3   OH239285   3.948   6.263   0.498  0.8066 -0.7732 -0.0798
 5909TIP3    H139286   3.883   6.219   0.443  0.6094 -0.4047 -0.1465
 5909TIP3    H239287   3.942   6.355   0.474 -0.8528 -0.2344  2.0939
 5910TIP3   OH239288   3.758   6.540   2.847  0.6550  0.2755 -0.5168
 5910TIP3    H139289   3.774   6.604   2.916  0.3748 -0.3340  0.1269
 5910TIP3    H239290   3.799   6.459   2.879  0.0831 -0.1451 -0.8246
 5911TIP3   OH239291   5.848   6.487   3.007 -0.5671 -0.0014  0.0062
 5911TIP3    H139292   5.856   6.394   2.984  1.1595  0.3943 -1.1655
 5911TIP3    H239293   5.810   6.486   3.095  0.8741 -1.8927  0.6939
 5912TIP3   OH239294   1.840   0.003   0.632 -0.1084 -0.1815  0.2006
 5912TIP3    H139295   1.813  -0.036   0.549  1.4108  1.8111 -1.2976
 5912TIP3    H239296   1.760   0.003   0.685 -0.6829 -3.1970 -0.4920
 5913TIP3   OH239297   1.465   2.199   1.034 -0.0434 -0.2026  0.5321
 5913TIP3    H139298   1.470   2.227   0.943  0.3441  0.6642  0.8079
 5913TIP3    H239299   1.551   2.218   1.070 -0.9843  2.1233  1.7937
 5914TIP3   OH239300   0.083   5.463   4.096  0.1643  0.4687 -0.2125
 5914TIP3    H139301   0.072   5.368   4.103  1.7201  0.2354 -0.6499
 5914TIP3    H239302   0.017   5.490   4.032 -1.1717 -0.1025  0.8676
 5915TIP3   OH239303   2.529   4.901   1.019  0.2293 -0.0699  0.0768
 5915TIP3    H139304   2.465   4.831   1.033 -0.5124  0.4576 -0.5982
 5915TIP3    H239305   2.557   4.926   1.106 -0.9898  0.1472  0.4291
 5916TIP3   OH239306   0.802   6.755   1.645 -0.4299 -0.5150  0.2942
 5916TIP3    H139307   0.879   6.799   1.681 -0.3168 -1.1152  0.8187
 5916TIP3    H239308   0.788   6.680   1.704 -0.9393 -0.8581 -0.2549
 5917TIP3   OH239309   4.098   1.953   3.712 -0.2831 -0.0605 -0.0465
 5917TIP3    H139310   4.174   1.923   3.762 -2.1201 -2.3691  1.5253
 5917TIP3    H239311   4.112   1.916   3.624  0.9687  0.5726 -0.1383
 5918TIP3   OH239312   5.158   1.205   3.947 -0.0323  0.3903  0.5582
 5918TIP3    H139313   5.214   1.152   4.003  0.6088  0.8307  0.3492
 5918TIP3    H239314   5.068   1.183   3.974  0.1698 -1.5127 -0.1768
 5919TIP3   OH239315   6.556   4.145   1.448 -0.5153  0.2766 -0.3233
 5919TIP3    H139316   6.523   4.176   1.364  0.5840 -0.7090 -1.1422
 5919TIP3    H239317   6.555   4.223   1.504 -2.7098  0.6345 -0.7489
 5920TIP3   OH239318   5.106   3.071   2.583 -0.4862  0.1412 -0.1540
 5920TIP3    H139319   5.157   3.119   2.648 -2.9201  0.7792  1.4353
 5920TIP3    H239320   5.171   3.031   2.526  1.7323  2.9213  0.1902
 5921TIP3   OH239321   2.737   4.313   1.878  0.0730  0.6833 -0.2018
 5921TIP3    H139322   2.643   4.318   1.865  0.1491  0.9174 -0.6677
 5921TIP3    H239323   2.758   4.221   1.864 -0.1932  0.4802  0.6685
 5922TIP3   OH239324   2.091   1.044   0.738 -0.5422  0.3967  0.1352
 5922TIP3    H139325   2.176   1.021   0.699 -0.5669  0.0513  0.2739
 5922TIP3    H239326   2.104   1.131   0.776 -0.6790  0.9743 -1.1182
 5923TIP3   OH239327   5.209   1.942   3.825 -0.7339 -0.2212  0.7965
 5923TIP3    H139328   5.264   1.970   3.898 -0.3282 -1.1454  0.8601
 5923TIP3    H239329   5.152   1.876   3.863 -1.8726  0.6853  0.7147
 5924TIP3   OH239330   6.665   3.110   2.408  0.2874  0.4730  0.2175
 5924TIP3    H139331   6.584   3.115   2.460 -0.3638 -0.8463 -0.6235
 5924TIP3    H239332   6.666   3.021   2.374  2.5151  0.2071  0.8358
 5925TIP3   OH239333   2.110   1.568   2.196  0.4405  0.1632 -0.0832
 5925TIP3    H139334   2.029   1.607   2.228  0.8771  1.5317 -0.5701
 5925TIP3    H239335   2.134   1.621   2.120 -1.0542 -3.4242 -3.4258
 5926TIP3   OH239336   2.141   3.857   3.872  0.6884  0.3925 -0.4612
 5926TIP3    H139337   2.089   3.915   3.928 -0.2192  0.5682 -1.4367
 5926TIP3    H239338   2.225   3.850   3.916 -0.4266 -0.6305  1.6690
 5927TIP3   OH239339   4.714   4.559   3.651 -0.5453  0.3048  0.1645
 5927TIP3    H139340   4.693   4.620   3.580  0.2349 -0.5557 -0.8267
 5927TIP3    H239341   4.806   4.537   3.637 -0.2241  0.5264  1.7709
 5928TIP3   OH239342   4.990   5.391   3.993 -0.4042  0.1587 -0.6077
 5928TIP3    H139343   4.981   5.387   4.089  0.9251  1.1981 -0.4023
 5928TIP3    H239344   4.906   5.424   3.963 -0.7877 -0.0258  0.2113
 5929TIP3   OH239345   2.750   0.737   0.455 -0.0058 -0.6221  0.3941
 5929TIP3    H139346   2.741   0.741   0.360  0.5274 -0.1791  0.3593
 5929TIP3    H239347   2.806   0.661   0.470  1.6107  0.4829  0.2191
 5930TIP3   OH239348   3.900   4.478   3.280 -0.2049 -0.2108  0.5614
 5930TIP3    H139349   3.821   4.516   3.318  0.1933 -0.3990  1.5847
 5930TIP3    H239350   3.952   4.449   3.354  1.3213  0.8644 -0.0389
 5931TIP3   OH239351   4.786   6.897   3.224  0.2301 -0.2262 -0.2747
 5931TIP3    H139352   4.771   6.928   3.134 -1.9400 -1.5354 -0.4303
 5931TIP3    H239353   4.698   6.885   3.260  1.0577 -1.0039  1.5761
 5932TIP3   OH239354   4.704   1.055   3.625  0.5186  0.3226  0.3270
 5932TIP3    H139355   4.772   0.990   3.609 -0.7132 -1.1592  0.9347
 5932TIP3    H239356   4.630   1.027   3.571 -0.3713  0.6690  1.3219
 5933TIP3   OH239357   0.951   5.966   0.877 -0.1793 -0.2449 -0.2583
 5933TIP3    H139358   0.930   6.041   0.933  0.0003  0.2870 -0.8866
 5933TIP3    H239359   0.870   5.917   0.872 -0.1064 -0.5015  0.7524
 5934TIP3   OH239360   1.356   3.859   4.642 -0.1203  0.1565  0.0282
 5934TIP3    H139361   1.368   3.910   4.722  1.3913 -0.7330  0.3988
 5934TIP3    H239362   1.441   3.863   4.597 -0.1859 -1.4168 -0.2877
 5935TIP3   OH239363   2.918   1.028   1.838 -0.2990  0.8052 -0.0783
 5935TIP3    H139364   2.993   1.003   1.784  0.3707 -0.6015  1.3883
 5935TIP3    H239365   2.929   1.122   1.853  1.6524  0.4936  0.7532
 5936TIP3   OH239366   1.853   2.225   0.425 -0.2249  0.1525  0.0903
 5936TIP3    H139367   1.869   2.183   0.340  1.1150  2.5443 -0.9381
 5936TIP3    H239368   1.939   2.228   0.467 -0.5779  0.4732  0.8088
 5937TIP3   OH239369   3.411   4.697   1.135 -0.4377 -0.6789  0.2709
 5937TIP3    H139370   3.419   4.781   1.089 -0.9199  0.1809  1.6989
 5937TIP3    H239371   3.501   4.674   1.157 -0.3087 -0.4978 -0.0483
 5938TIP3   OH239372   2.156   5.878   3.475  0.3339 -0.2323  0.3769
 5938TIP3    H139373   2.105   5.814   3.425  2.6582 -0.0501 -2.4834
 5938TIP3    H239374   2.113   5.962   3.458  1.1799 -0.1438 -1.6320
 5939TIP3   OH239375   2.084   4.807   2.771  0.1932  0.2594 -0.4777
 5939TIP3    H139376   2.117   4.721   2.745  0.3343  0.8845 -2.5478
 5939TIP3    H239377   2.162   4.860   2.785  0.2021  1.1078 -3.1618
 5940TIP3   OH239378   1.456   2.775   3.417 -0.1254 -0.2369  0.2478
 5940TIP3    H139379   1.471   2.704   3.479  2.0321 -1.1978 -1.2491
 5940TIP3    H239380   1.516   2.845   3.445 -0.8103  0.2228  0.5746
 5941TIP3   OH239381   4.404   3.389   4.215 -0.6805 -0.0516 -0.3118
 5941TIP3    H139382   4.485   3.357   4.254 -0.2650  0.8509 -0.4279
 5941TIP3    H239383   4.428   3.414   4.126 -0.8320  1.2013 -0.0245
 5942TIP3   OH239384   4.433   0.755   3.025  0.4013 -0.4768  1.2065
 5942TIP3    H139385   4.352   0.805   3.014  0.2365 -0.9811 -0.0800
 5942TIP3    H239386   4.485   0.776   2.947  1.6898  0.1322  2.1880
 5943TIP3   OH239387   3.464   6.933   8.285 -0.2583  0.0909 -0.1499
 5943TIP3    H139388   3.489   6.924   8.377  0.0531 -0.5563 -0.2893
 5943TIP3    H239389   3.368   6.937   8.286 -0.1976  1.7861  0.3227
 5944TIP3   OH239390   0.346   1.112   3.552 -0.3827  0.3527  0.1573
 5944TIP3    H139391   0.271   1.064   3.588  0.6953 -0.9319  0.7811
 5944TIP3    H239392   0.335   1.201   3.585 -1.6998  0.2119  0.1288
 5945TIP3   OH239393   3.809   2.018   0.400 -0.1284  0.1372  0.3968
 5945TIP3    H139394   3.821   1.952   0.332 -0.7497 -1.1058  1.4607
 5945TIP3    H239395   3.733   2.069   0.371  0.2819  0.3387 -0.3653
 5946TIP3   OH239396   0.999   0.439   2.256 -0.0110 -0.7214  0.1443
 5946TIP3    H139397   1.029   0.503   2.321 -2.4436 -1.0037  1.6694
 5946TIP3    H239398   0.987   0.358   2.305  0.9907 -1.8353 -1.3359
 5947TIP3   OH239399   0.832   6.665   3.129 -0.5015 -0.1719 -0.7182
 5947TIP3    H139400   0.852   6.597   3.193 -0.2462  1.7670  1.3943
 5947TIP3    H239401   0.895   6.650   3.058  0.6911 -1.0915  0.4903
 5948TIP3   OH239402   2.767   3.484   1.118  0.0661  0.4338  0.4532
 5948TIP3    H139403   2.765   3.414   1.184  0.4502  0.3348  0.3643
 5948TIP3    H239404   2.857   3.517   1.121  0.9590 -1.4470 -1.9488
 5949TIP3   OH239405   2.215   1.872   3.842 -0.5555  0.5507 -0.7878
 5949TIP3    H139406   2.215   1.931   3.917  0.2845 -0.3292 -0.0668
 5949TIP3    H239407   2.197   1.786   3.880  1.1101 -0.1121 -1.4172
 5950TIP3   OH239408   2.628   0.318   3.673 -0.2606 -0.6331  0.5137
 5950TIP3    H139409   2.701   0.306   3.614  0.8504  1.0076  1.4675
 5950TIP3    H239410   2.659   0.285   3.757 -0.0480  1.2786  1.2454
 5951TIP3   OH239411   6.185   5.111   2.474  0.0291 -0.7046  0.4566
 5951TIP3    H139412   6.112   5.129   2.533 -0.1530 -1.9330  0.6265
 5951TIP3    H239413   6.148   5.056   2.405  0.3281  0.3859 -0.6182
 5952TIP3   OH239414   0.116   6.075   1.209 -0.1730 -0.0638  0.1814
 5952TIP3    H139415   0.029   6.097   1.244 -1.4352 -0.0842 -2.6431
 5952TIP3    H239416   0.176   6.132   1.257 -2.1220  2.1846  0.1619
 5953TIP3   OH239417   6.188   4.286   0.934  0.1908  0.0642  0.1204
 5953TIP3    H139418   6.258   4.349   0.914  0.8630 -0.4692  0.6973
 5953TIP3    H239419   6.196   4.272   1.029  0.1506 -0.9849 -0.0218
 5954TIP3   OH239420   2.180   1.822   3.036 -0.1538 -0.7560  0.0073
 5954TIP3    H139421   2.199   1.903   3.084 -3.0472  0.8847 -1.3629
 5954TIP3    H239422   2.170   1.756   3.104  1.0825  0.2873  1.2615
 5955TIP3   OH239423   6.247   0.708   0.561 -0.2466 -0.3631 -0.0681
 5955TIP3    H139424   6.265   0.670   0.646  1.2535 -0.5918 -0.4685
 5955TIP3    H239425   6.324   0.689   0.508  0.3200  2.5674 -0.5129
 5956TIP3   OH239426   0.992   4.619   2.136 -0.0602 -0.0336 -0.5536
 5956TIP3    H139427   1.013   4.540   2.186 -0.5885  0.7976  1.0293
 5956TIP3    H239428   1.077   4.655   2.112  0.3021  0.6480  1.5450
 5957TIP3   OH239429   5.013   3.763   1.185 -0.2654 -0.6935  0.6103
 5957TIP3    H139430   5.031   3.757   1.091 -0.7285  0.8978  0.3842
 5957TIP3    H239431   5.088   3.723   1.227  0.5095 -0.3745 -0.4273
 5958TIP3   OH239432   1.221   4.777   1.384 -0.0520 -0.0360  0.6699
 5958TIP3    H139433   1.207   4.718   1.311 -2.7318  2.3853 -1.0080
 5958TIP3    H239434   1.172   4.739   1.457  0.3788 -1.1051  0.4111
 5959TIP3   OH239435   1.783   1.855   2.659 -0.3924 -0.0321  0.1008
 5959TIP3    H139436   1.778   1.793   2.586  0.0477 -0.7237  0.6413
 5959TIP3    H239437   1.854   1.914   2.636  1.1225 -1.4663  0.8393
 5960TIP3   OH239438   6.823   4.350   3.955  0.8581 -0.6323  0.4317
 5960TIP3    H139439   6.772   4.429   3.939  0.2114 -1.5445 -2.8867
 5960TIP3    H239440   6.781   4.309   4.030  0.4980  1.5262  1.5053
 5961TIP3   OH239441   2.310   6.823   2.212 -0.2019 -0.3567  0.4541
 5961TIP3    H139442   2.353   6.808   2.128 -0.6008  0.3148  0.1196
 5961TIP3    H239443   2.282   6.915   2.208  0.0632 -0.2220  1.4503
 5962TIP3   OH239444   3.836   4.617   1.870  0.6286  0.1218 -0.3672
 5962TIP3    H139445   3.765   4.628   1.933  1.5915  2.2124  0.4422
 5962TIP3    H239446   3.864   4.526   1.882 -0.2754 -0.0005  1.0605
 5963TIP3   OH239447   2.491   3.609   3.053  0.2971 -0.2807  0.2601
 5963TIP3    H139448   2.441   3.690   3.049  0.4746 -0.1854 -0.0634
 5963TIP3    H239449   2.427   3.540   3.034  0.0701 -0.2487  0.9007
 5964TIP3   OH239450   5.611   5.140   3.612 -0.1575  0.0009 -0.1715
 5964TIP3    H139451   5.696   5.133   3.655  0.3720 -0.8748 -1.2910
 5964TIP3    H239452   5.555   5.182   3.677  1.5372  2.2031  0.0123
 5965TIP3   OH239453   5.908   4.446   2.567  0.1495 -0.2749 -0.0006
 5965TIP3    H139454   5.815   4.464   2.577  0.3403  0.7742 -0.0607
 5965TIP3    H239455   5.943   4.447   2.656 -0.0412 -1.5796  0.1114
 5966TIP3   OH239456   1.028   0.156   4.391 -0.4228 -0.6368  0.3993
 5966TIP3    H139457   0.989   0.167   4.478  0.7768 -1.7963  1.1296
 5966TIP3    H239458   1.078   0.074   4.397  1.6141  0.4447 -0.6282
 5967TIP3   OH239459   3.398   3.254   2.434 -0.3410 -0.1408  0.2836
 5967TIP3    H139460   3.348   3.311   2.376 -1.2366  0.6829  1.8123
 5967TIP3    H239461   3.332   3.203   2.481  0.3344 -0.2988  1.0772
 5968TIP3   OH239462   5.521   2.334   3.456  0.3470 -0.4376 -0.1645
 5968TIP3    H139463   5.523   2.405   3.520 -1.0087 -0.4043 -0.1235
 5968TIP3    H239464   5.508   2.255   3.509  0.3161 -0.5374 -0.3220
 5969TIP3   OH239465   4.906   1.229   3.295 -0.5034  0.6471  0.0468
 5969TIP3    H139466   4.907   1.143   3.253 -1.6445  0.7048 -0.1089
 5969TIP3    H239467   4.843   1.280   3.245  1.4291  2.1628 -0.9553
 5970TIP3   OH239468   5.930   6.343   3.542 -0.1448  0.0814 -0.0043
 5970TIP3    H139469   6.021   6.370   3.552 -0.8620  2.5714  0.3879
 5970TIP3    H239470   5.906   6.368   3.453 -1.7542  4.2227  1.3341
 5971TIP3   OH239471   3.828   1.991   3.784  0.4018  0.1895 -0.3685
 5971TIP3    H139472   3.804   2.073   3.826  1.6273  0.8660 -0.9527
 5971TIP3    H239473   3.923   1.991   3.783  0.4291 -1.2005 -0.4775
 5972TIP3   OH239474   0.539   6.219   3.680 -0.3571  0.0292 -1.2665
 5972TIP3    H139475   0.625   6.250   3.649  0.2527 -0.0732  0.2446
 5972TIP3    H239476   0.495   6.298   3.710 -0.9232  0.1179 -2.2812
 5973TIP3   OH239477   5.793   1.611   3.316 -0.0473  0.0712 -0.1187
 5973TIP3    H139478   5.706   1.587   3.345 -0.4194  0.2076 -1.0994
 5973TIP3    H239479   5.784   1.630   3.223  1.3226 -1.4383 -0.6268
 5974TIP3   OH239480   3.189   0.266   1.938 -0.3422  0.2375  0.0544
 5974TIP3    H139481   3.142   0.335   1.987  1.8294  1.6611  0.2631
 5974TIP3    H239482   3.252   0.314   1.884  1.7237 -1.6058  0.7126
 5975TIP3   OH239483   6.067   0.412   4.464 -0.5853  0.1790 -0.1017
 5975TIP3    H139484   6.029   0.350   4.526 -0.4287  1.1496  0.9835
 5975TIP3    H239485   6.125   0.359   4.409 -1.6528 -0.8988 -0.2272
 5976TIP3   OH239486   1.273   2.953   3.046  0.4720 -0.1996 -0.3261
 5976TIP3    H139487   1.348   2.900   3.020 -0.4470 -1.4680 -0.4742
 5976TIP3    H239488   1.259   2.932   3.138 -1.0425 -1.7120 -0.8531
 5977TIP3   OH239489   6.411   3.722   3.832 -0.1744  0.0523  0.3033
 5977TIP3    H139490   6.364   3.666   3.894  1.1097  0.0236  1.3089
 5977TIP3    H239491   6.495   3.677   3.818  0.3323  1.0369  0.0673
 5978TIP3   OH239492   5.919   0.280   3.459 -0.3432 -0.1517 -0.1486
 5978TIP3    H139493   5.999   0.228   3.463 -0.5976 -0.7466 -1.8949
 5978TIP3    H239494   5.857   0.233   3.514  0.3280  0.0172  0.7747
 5979TIP3   OH239495   0.727   6.573   0.147 -0.7281  0.1068  0.2767
 5979TIP3    H139496   0.749   6.590   0.056 -2.9124  1.4169 -0.0665
 5979TIP3    H239497   0.745   6.656   0.192 -0.1980 -0.3589  0.9481
 5980TIP3   OH239498   1.764   4.127   1.098  0.1999  0.3684 -0.2521
 5980TIP3    H139499   1.820   4.097   1.170 -0.7810 -0.8411  0.0203
 5980TIP3    H239500   1.786   4.220   1.089 -0.1180  0.7312  2.0480
 5981TIP3   OH239501   4.014   6.766   1.632  0.1194  0.0381  0.5372
 5981TIP3    H139502   4.077   6.709   1.587 -0.3690 -0.2821  0.2558
 5981TIP3    H239503   4.068   6.819   1.691  1.2641  2.6620 -2.5436
 5982TIP3   OH239504   4.523   4.080   1.194 -0.6062  0.1439  0.4051
 5982TIP3    H139505   4.600   4.029   1.169 -0.7878 -0.1278  0.3907
 5982TIP3    H239506   4.543   4.112   1.282 -0.7939 -0.5696  0.7135
 5983TIP3   OH239507   3.441   2.146   0.985  0.2497  0.3315  0.0879
 5983TIP3    H139508   3.483   2.231   0.973 -1.4225  1.2920  0.5301
 5983TIP3    H239509   3.466   2.095   0.909  2.1743  0.8335  0.3498
 5984TIP3   OH239510   4.103   0.235   2.478 -0.0248  0.1588 -0.6707
 5984TIP3    H139511   4.129   0.155   2.523 -2.1466 -0.1521  0.1401
 5984TIP3    H239512   4.185   0.276   2.451  1.1781 -1.3198  0.5835
 5985TIP3   OH239513   5.109   4.240   0.217 -0.1393 -0.0226 -0.6038
 5985TIP3    H139514   5.133   4.306   0.152 -2.2291  1.0800 -0.3321
 5985TIP3    H239515   5.109   4.157   0.168  3.0778 -0.0489 -0.8225
 5986TIP3   OH239516   5.359   1.424   1.386 -0.3919  0.5058  0.1752
 5986TIP3    H139517   5.432   1.484   1.403 -0.2902  0.1338  1.0899
 5986TIP3    H239518   5.326   1.450   1.300  1.8601 -0.3415 -1.0523
 5987TIP3   OH239519   3.012   3.283   2.115 -0.3789 -0.2167 -0.0718
 5987TIP3    H139520   3.061   3.358   2.080 -1.1630  0.3612  0.0363
 5987TIP3    H239521   2.935   3.277   2.059  0.4580 -1.9771 -1.1043
 5988TIP3   OH239522   0.540   0.520   3.707 -0.3563  0.1852 -0.1796
 5988TIP3    H139523   0.546   0.459   3.780  1.4042  0.4268 -0.0963
 5988TIP3    H239524   0.446   0.541   3.702 -0.7195 -1.0026  1.0185
 5989TIP3   OH239525   3.659   3.473   1.195  0.3452  0.2396  0.0798
 5989TIP3    H139526   3.665   3.561   1.231 -2.6976  0.3254  0.5537
 5989TIP3    H239527   3.659   3.415   1.271 -0.3586  0.0207 -0.0846
 5990TIP3   OH239528   6.266   6.197   2.766 -0.0331 -0.0526  0.2667
 5990TIP3    H139529   6.247   6.105   2.784  1.1254  0.1813  3.2927
 5990TIP3    H239530   6.350   6.196   2.719 -0.2750 -0.5546 -0.1548
 5991TIP3   OH239531   1.297   4.937   4.032  0.2942  0.1404 -0.0785
 5991TIP3    H139532   1.206   4.954   4.056  0.8531 -1.7909  4.3479
 5991TIP3    H239533   1.294   4.855   3.983 -0.4142  0.4626 -0.5810
 5992TIP3   OH239534   3.718   5.832   0.265  0.5320  0.5527  0.0605
 5992TIP3    H139535   3.630   5.866   0.248  0.0440 -0.3032  0.7924
 5992TIP3    H239536   3.768   5.856   0.187 -0.5287  0.4497 -0.6783
 5993TIP3   OH239537   6.279   5.590   2.913 -0.3838 -0.2533  0.0212
 5993TIP3    H139538   6.301   5.680   2.938 -0.6841  1.0908 -3.8538
 5993TIP3    H239539   6.193   5.574   2.950 -0.8526  1.5692 -0.1947
 5994TIP3   OH239540   3.079   4.585   8.469 -0.3533 -0.1918 -0.1499
 5994TIP3    H139541   3.068   4.506   8.416 -1.7586 -0.9188  1.1773
 5994TIP3    H239542   3.016   4.647   8.432  0.3581  0.1433 -0.8331
 5995TIP3   OH239543   2.340   0.998   0.581  0.0720  1.2652  0.1804
 5995TIP3    H139544   2.380   0.942   0.514 -0.9599 -1.6806  1.8222
 5995TIP3    H239545   2.409   1.011   0.646 -0.0426  0.8241  0.3928
 5996TIP3   OH239546   1.055   3.092   0.136  0.4091  0.0481 -0.0599
 5996TIP3    H139547   1.060   3.154   0.063 -1.0025  0.8479  0.4759
 5996TIP3    H239548   1.028   3.146   0.210  0.0334 -1.0551  0.6234
 5997TIP3   OH239549   1.175   0.831   1.375 -0.1709 -0.0923  0.4476
 5997TIP3    H139550   1.244   0.770   1.348  0.5743  0.7526  0.4133
 5997TIP3    H239551   1.197   0.854   1.465 -1.4876 -1.2794  1.1174
 5998TIP3   OH239552   2.983   0.527   0.030 -0.2955 -0.3437 -0.2097
 5998TIP3    H139553   3.003   0.619   0.015 -1.3468  0.0114  0.4928
 5998TIP3    H239554   2.921   0.504  -0.040  1.2131 -1.0057 -1.4026
 5999TIP3   OH239555   3.511   0.628   3.954 -0.3335  0.4440  0.4283
 5999TIP3    H139556   3.499   0.714   3.913 -2.9419  0.5251  1.2086
 5999TIP3    H239557   3.548   0.648   4.040 -0.9394  0.8183  0.6108
 6000TIP3   OH239558   4.865   3.011   1.655  0.1270 -0.0713  0.0510
 6000TIP3    H139559   4.900   2.976   1.573 -0.4050  0.4029 -0.3834
 6000TIP3    H239560   4.877   3.106   1.647  0.0537 -0.0217  0.5135
 6001TIP3   OH239561   2.203   4.424   0.699  0.1553  0.2900  0.2889
 6001TIP3    H139562   2.284   4.456   0.660 -0.8054  1.0629 -1.1838
 6001TIP3    H239563   2.227   4.342   0.742  1.6054  0.2251 -0.5908
 6002TIP3   OH239564   6.136   0.573   0.172 -0.4305  0.3121 -0.6744
 6002TIP3    H139565   6.158   0.666   0.179 -0.1807  0.2789 -0.9931
 6002TIP3    H239566   6.217   0.532   0.142 -0.5334 -0.0124 -0.5076
 6003TIP3   OH239567   3.759   5.467   8.246 -0.2042 -0.2951 -0.1882
 6003TIP3    H139568   3.841   5.458   8.198  0.9155  0.7442  1.4246
 6003TIP3    H239569   3.781   5.443   8.336 -1.5242  0.5860  0.4035
 6004TIP3   OH239570   5.661   3.274   2.313 -0.5614 -1.1890  0.2641
 6004TIP3    H139571   5.672   3.304   2.403 -1.1667  0.3989 -0.1561
 6004TIP3    H239572   5.731   3.318   2.265  0.7136 -3.2013  0.1673
 6005TIP3   OH239573   3.596   0.881   4.346  0.2481 -0.0657 -0.9411
 6005TIP3    H139574   3.569   0.791   4.325  1.3354 -0.4238 -0.8391
 6005TIP3    H239575   3.691   0.879   4.341  0.5048  0.2638  2.2380
 6006TIP3   OH239576   3.967   1.606   3.299 -0.4585 -0.3569 -0.0289
 6006TIP3    H139577   4.062   1.620   3.300 -0.5171  0.1139 -0.4390
 6006TIP3    H239578   3.950   1.556   3.219 -0.3645 -2.0381  0.9575
 6007TIP3   OH239579   2.945   4.286   8.094 -0.3810 -0.0170  0.2416
 6007TIP3    H139580   2.870   4.341   8.118  1.4980  3.5724 -1.2575
 6007TIP3    H239581   3.005   4.293   8.168  0.6216  1.6202 -0.6569
 6008TIP3   OH239582   6.337   5.678   0.363 -0.1299  0.5189 -0.3873
 6008TIP3    H139583   6.379   5.601   0.327  0.4165  1.1954 -1.2314
 6008TIP3    H239584   6.396   5.750   0.341 -1.4221  1.4083 -1.0706
 6009TIP3   OH239585   3.381   4.347   0.167 -0.2982  0.3042  0.1182
 6009TIP3    H139586   3.331   4.429   0.173  0.9301  1.1749 -1.0379
 6009TIP3    H239587   3.388   4.330   0.073 -0.4494 -1.0981  0.3376
 6010TIP3   OH239588   2.895   0.222   4.278  0.4323 -0.0540 -0.3273
 6010TIP3    H139589   2.856   0.171   4.349 -2.0378  0.1994 -1.3942
 6010TIP3    H239590   2.960   0.163   4.239 -0.5298 -1.4122  0.0592
 6011TIP3   OH239591   0.170   1.257   1.096  0.0257 -0.0653  0.0905
 6011TIP3    H139592   0.099   1.305   1.052 -0.3702 -1.1033 -0.4346
 6011TIP3    H239593   0.125   1.186   1.142  0.8542 -2.1365 -2.1006
 6012TIP3   OH239594   4.629   3.607   3.869  0.1525  0.2692  0.6727
 6012TIP3    H139595   4.566   3.543   3.901 -1.2084  1.5193  0.5746
 6012TIP3    H239596   4.711   3.584   3.914 -0.1602 -1.7571  0.3389
 6013TIP3   OH239597   1.881   0.423   3.558 -0.8665 -0.3133  0.4281
 6013TIP3    H139598   1.960   0.444   3.608 -0.7004 -0.2470  0.1438
 6013TIP3    H239599   1.912   0.365   3.488 -1.1964 -0.8825  0.7492
 6014TIP3   OH239600   3.621   6.138   0.530 -0.1542  0.1407  0.2439
 6014TIP3    H139601   3.556   6.185   0.582 -1.6369 -1.4264 -0.0934
 6014TIP3    H239602   3.601   6.161   0.440  0.6083  0.6520  0.1964
 6015TIP3   OH239603   1.075   2.159   2.852  0.3391  0.5233 -0.2072
 6015TIP3    H139604   1.008   2.221   2.826  0.7828  1.1340  0.0702
 6015TIP3    H239605   1.110   2.195   2.934 -0.7913 -1.1562  1.0788
 6016TIP3   OH239606   6.515   1.449   2.529  0.3475  0.8078  0.1056
 6016TIP3    H139607   6.599   1.410   2.550 -0.4231 -0.5874  0.7297
 6016TIP3    H239608   6.512   1.449   2.434  1.1329  1.0789  0.0714
 6017TIP3   OH239609   1.596   1.825   3.080  0.1861 -0.0689 -0.1449
 6017TIP3    H139610   1.576   1.762   3.149 -1.6919 -0.0655 -0.6295
 6017TIP3    H239611   1.642   1.774   3.013  1.2533 -0.2571  0.7098
 6018TIP3   OH239612   1.798   4.061   3.300  0.3458  0.0667  0.0723
 6018TIP3    H139613   1.871   4.041   3.358  0.9274 -0.3723 -0.7756
 6018TIP3    H239614   1.787   4.155   3.306  0.2518  0.0043  1.0451
 6019TIP3   OH239615   0.882   3.049   2.041 -0.1923 -0.1730 -0.9661
 6019TIP3    H139616   0.888   2.986   1.969  1.1120 -0.8599 -0.2807
 6019TIP3    H239617   0.864   3.133   1.998 -1.5398 -0.9089 -1.9283
 6020TIP3   OH239618   5.367   1.842   2.000  0.2142  0.3588  0.1682
 6020TIP3    H139619   5.273   1.843   1.977 -0.0487 -0.1188  1.1781
 6020TIP3    H239620   5.400   1.925   1.967 -0.9913  1.4208  1.4948
 6021TIP3   OH239621   1.757   2.594   1.079 -0.1155  0.9428 -0.7417
 6021TIP3    H139622   1.672   2.632   1.057  0.3191  2.3677 -0.0975
 6021TIP3    H239623   1.748   2.567   1.170 -1.2129 -2.9463 -1.8109
 6022TIP3   OH239624   2.290   6.167   4.627  0.3274  0.2177  0.5011
 6022TIP3    H139625   2.256   6.090   4.672 -1.1007  0.1514 -0.6435
 6022TIP3    H239626   2.246   6.167   4.543  0.7171  2.0011  0.2639
 6023TIP3   OH239627   4.979   3.556   3.003  0.6042  0.5086 -0.1987
 6023TIP3    H139628   4.954   3.647   2.985  0.1758  0.3248 -0.5649
 6023TIP3    H239629   4.910   3.504   2.961  0.6208  0.0232  0.3686
 6024TIP3   OH239630   5.096   6.006   2.942 -0.1285  0.1596  0.0910
 6024TIP3    H139631   5.123   5.916   2.927  0.2428  0.4036 -0.7642
 6024TIP3    H239632   5.168   6.059   2.906 -0.3641  0.7954  0.5338
 6025TIP3   OH239633   2.623   3.726   0.642 -0.3541 -0.0166 -0.2618
 6025TIP3    H139634   2.620   3.679   0.726  0.6613 -2.0374 -1.2861
 6025TIP3    H239635   2.716   3.740   0.627 -0.5310  0.2831 -1.0851
 6026TIP3   OH239636   2.511   1.324   4.140 -0.5547 -0.6850 -0.2796
 6026TIP3    H139637   2.482   1.288   4.057 -0.6143 -0.3045 -0.4267
 6026TIP3    H239638   2.438   1.379   4.169  0.0852  0.4507 -0.7561
 6027TIP3   OH239639   3.696   1.193   1.824  0.2517 -0.1834 -0.0730
 6027TIP3    H139640   3.629   1.211   1.759 -0.4754 -0.6872  0.5210
 6027TIP3    H239641   3.714   1.099   1.815  0.4532 -0.1680  0.1643
 6028TIP3   OH239642   5.129   0.915   0.362 -0.3247  0.3564 -0.0297
 6028TIP3    H139643   5.053   0.859   0.375 -0.1429  0.3133  0.8615
 6028TIP3    H239644   5.108   0.965   0.282 -0.2830 -1.2930 -1.1235
 6029TIP3   OH239645   1.493   1.829   3.821  0.2509 -0.2752 -0.4526
 6029TIP3    H139646   1.550   1.905   3.837 -0.4669  0.0206  0.8206
 6029TIP3    H239647   1.420   1.864   3.771  0.0437 -0.1772 -0.0820
 6030TIP3   OH239648   3.047   2.294   1.083 -0.4072 -0.1248 -0.1879
 6030TIP3    H139649   3.031   2.385   1.105 -0.9250 -0.6358  1.7308
 6030TIP3    H239650   2.960   2.253   1.087  0.0702 -1.0839  1.0496
 6031TIP3   OH239651   3.480   5.458   8.158 -0.1261  0.1676  0.2833
 6031TIP3    H139652   3.574   5.440   8.155 -0.2423 -0.3991  0.0705
 6031TIP3    H239653   3.475   5.547   8.193  0.5456  0.6880 -0.8717
 6032TIP3   OH239654   2.897   5.332   1.160 -0.5161  0.6840  0.4461
 6032TIP3    H139655   2.830   5.375   1.107  0.2872  1.4090 -0.0104
 6032TIP3    H239656   2.897   5.380   1.243 -2.7692 -1.3324  1.7694
 6033TIP3   OH239657   4.111   2.229   3.783  0.1470 -0.0590 -0.0458
 6033TIP3    H139658   4.138   2.150   3.737 -1.2110 -0.1072 -0.8224
 6033TIP3    H239659   4.187   2.287   3.780  0.4867 -0.5466 -1.2947
 6034TIP3   OH239660   4.578   5.460   1.587  0.1189  0.6720 -0.0043
 6034TIP3    H139661   4.614   5.373   1.572 -3.2702 -1.5562  3.1563
 6034TIP3    H239662   4.611   5.486   1.673 -0.7859  1.4260  0.1371
 6035TIP3   OH239663   0.249   0.929   4.540  0.7899 -0.9252  0.7419
 6035TIP3    H139664   0.327   0.942   4.594  1.1875  0.3022 -0.0821
 6035TIP3    H239665   0.189   0.880   4.596  2.3008 -2.2849  1.2601
 6036TIP3   OH239666   3.036   3.946   1.403  0.0467 -0.0030 -0.2416
 6036TIP3    H139667   3.004   3.856   1.398 -0.0749 -0.1658  2.2011
 6036TIP3    H239668   2.957   4.000   1.407  0.0165 -0.1091  1.7794
 6037TIP3   OH239669   0.852   4.027   2.313  0.8036  0.2261 -0.1217
 6037TIP3    H139670   0.870   3.947   2.262  1.4467  0.3110 -0.0429
 6037TIP3    H239671   0.806   4.085   2.252 -0.3274 -0.4732  0.0347
 6038TIP3   OH239672   1.464   0.985   3.137  0.3089  0.5631 -0.2129
 6038TIP3    H139673   1.485   0.947   3.222  1.4106 -1.4703 -1.3260
 6038TIP3    H239674   1.398   0.927   3.100 -0.3867  1.6023 -0.6605
 6039TIP3   OH239675   1.618   4.985   1.718 -0.6825  0.0086  0.0673
 6039TIP3    H139676   1.682   4.914   1.713 -1.4526 -0.9540  2.2944
 6039TIP3    H239677   1.539   4.949   1.677 -0.9825 -0.3262  0.9259
 6040TIP3   OH239678   4.672   4.769   3.453 -0.1842  0.8695  0.4029
 6040TIP3    H139679   4.687   4.850   3.502 -1.7953  1.6743 -0.3433
 6040TIP3    H239680   4.726   4.777   3.374  0.6359  0.6167  0.9255
 6041TIP3   OH239681   5.643   4.383   0.872 -0.2206 -0.0388 -0.2848
 6041TIP3    H139682   5.637   4.338   0.956  1.8806  0.3393  0.1242
 6041TIP3    H239683   5.729   4.358   0.837 -0.3031  1.2080 -1.4664
 6042TIP3   OH239684   0.448   0.800   2.723 -0.3828 -0.1861 -0.6739
 6042TIP3    H139685   0.464   0.732   2.789  1.7274 -1.9564 -2.8231
 6042TIP3    H239686   0.389   0.759   2.659 -1.6236  1.1629 -0.4616
 6043TIP3   OH239687   2.008   0.759   2.016 -0.0722 -0.5599 -0.5066
 6043TIP3    H139688   1.969   0.835   1.973 -2.7906 -1.6383 -0.1147
 6043TIP3    H239689   2.102   0.767   1.998 -0.6014  1.2669 -3.0070
 6044TIP3   OH239690   6.731   5.484   3.058 -0.4140  1.3170 -0.3131
 6044TIP3    H139691   6.669   5.420   3.022 -1.1013  1.9628 -0.3033
 6044TIP3    H239692   6.799   5.492   2.991  0.4464 -0.4657  0.2899
 6045TIP3   OH239693   1.194   4.607   0.942 -0.7444 -0.2930 -0.2264
 6045TIP3    H139694   1.257   4.669   0.904 -0.7819 -0.2245 -0.1766
 6045TIP3    H239695   1.198   4.530   0.885  0.4548 -0.8748  0.6004
 6046TIP3   OH239696   5.048   5.295   1.192 -0.5685  0.2029 -0.0129
 6046TIP3    H139697   5.066   5.321   1.282  1.6413 -2.2274  0.3830
 6046TIP3    H239698   4.979   5.229   1.199  1.3772 -1.9205  0.3154
 6047TIP3   OH239699   4.200   3.063   1.808  0.5226  0.0442 -0.4011
 6047TIP3    H139700   4.211   3.082   1.715  2.9017  1.6431  0.1301
 6047TIP3    H239701   4.285   3.028   1.835  0.5300  1.4732  1.5719
 6048TIP3   OH239702   4.394   0.601   0.272  0.0304  0.0264  0.3058
 6048TIP3    H139703   4.314   0.618   0.321  0.1326 -3.2069  1.8870
 6048TIP3    H239704   4.440   0.685   0.269 -1.5326  1.0719  2.9237
 6049TIP3   OH239705   6.615   2.455   2.029  0.1428 -0.3006  0.4903
 6049TIP3    H139706   6.680   2.473   2.097 -0.1685  0.5405  0.5831
 6049TIP3    H239707   6.575   2.540   2.011 -0.0607 -0.5837 -0.4629
 6050TIP3   OH239708   1.160   0.596   1.764  0.1052  0.0347 -0.9585
 6050TIP3    H139709   1.230   0.571   1.824  0.5537  1.0302 -1.0535
 6050TIP3    H239710   1.080   0.581   1.814  0.2946 -2.0475 -1.1809
 6051TIP3   OH239711   5.771   2.861   1.066  0.6078 -0.1797 -0.2041
 6051TIP3    H139712   5.691   2.884   1.113  1.1836  0.5364  0.4533
 6051TIP3    H239713   5.759   2.899   0.979  0.0179 -0.5306 -0.2804
 6052TIP3   OH239714   2.497   4.511   0.939 -0.1845 -0.5036  0.1471
 6052TIP3    H139715   2.506   4.531   0.846 -0.4246 -0.1672  0.1941
 6052TIP3    H239716   2.411   4.546   0.963  0.1908  0.0819  0.6633
 6053TIP3   OH239717   6.363   2.575   3.174  0.2100  0.2433 -0.6386
 6053TIP3    H139718   6.380   2.626   3.095 -1.4165  2.2009  0.1808
 6053TIP3    H239719   6.321   2.495   3.142  3.7635 -1.2817 -2.0407
 6054TIP3   OH239720   6.778   6.836   1.251 -0.5877  0.4994 -0.4721
 6054TIP3    H139721   6.761   6.913   1.306 -0.5429 -1.3204  2.3331
 6054TIP3    H239722   6.869   6.845   1.224 -0.9277  1.9845 -1.2137
 6055TIP3   OH239723   0.695   0.591   3.475 -0.2232 -0.2939 -0.5446
 6055TIP3    H139724   0.649   0.532   3.535  2.5624 -0.8813  1.2159
 6055TIP3    H239725   0.639   0.669   3.470 -0.5037 -0.0764  3.1343
 6056TIP3   OH239726   6.609   6.773   3.060 -0.1563  0.6768 -0.5781
 6056TIP3    H139727   6.565   6.697   3.023  0.2137 -0.3360  0.9766
 6056TIP3    H239728   6.620   6.833   2.986  0.3058 -1.1318 -2.0479
 6057TIP3   OH239729   4.185   1.550   1.515  0.2683  0.4726  1.0378
 6057TIP3    H139730   4.159   1.552   1.607  0.0633  4.4447  1.0411
 6057TIP3    H239731   4.103   1.549   1.466  0.3723 -0.7684  0.8508
 6058TIP3   OH239732   1.748   0.338   0.211 -0.6153  0.3760 -0.1569
 6058TIP3    H139733   1.800   0.267   0.249 -0.9514  0.9195  1.3892
 6058TIP3    H239734   1.682   0.294   0.157 -0.5454 -0.4578  0.4274
 6059TIP3   OH239735   2.519   4.660   0.423  0.1387  0.1084 -0.3955
 6059TIP3    H139736   2.437   4.699   0.393  0.8822 -0.6500 -3.9372
 6059TIP3    H239737   2.583   4.730   0.417  0.3200 -0.0829 -0.7247
 6060TIP3   OH239738   2.682   0.744   8.408 -0.4740  0.0540 -0.1764
 6060TIP3    H139739   2.704   0.661   8.449  0.2905  0.4875  0.3054
 6060TIP3    H239740   2.594   0.764   8.439 -0.6859 -0.5987 -0.3424
 6061TIP3   OH239741   1.715   1.294   3.828  0.4242  0.3141  0.0366
 6061TIP3    H139742   1.640   1.353   3.819  1.6980  1.9732 -0.2306
 6061TIP3    H239743   1.779   1.344   3.879  0.9395 -1.4923  1.2537
 6062TIP3   OH239744   3.373   0.809   0.468 -0.3724 -0.6242  0.0684
 6062TIP3    H139745   3.414   0.745   0.526  3.3872  0.1774 -1.4150
 6062TIP3    H239746   3.375   0.767   0.382 -1.2100  0.1370 -0.3308
 6063TIP3   OH239747   5.025   4.251   3.707  0.4646  0.2016  0.8603
 6063TIP3    H139748   4.954   4.187   3.715  0.2427  0.0713 -1.4249
 6063TIP3    H239749   5.008   4.315   3.776 -1.3321 -0.3402  0.9595
 6064TIP3   OH239750   6.286   1.697   2.527 -0.8763  0.9248  0.5952
 6064TIP3    H139751   6.327   1.779   2.500 -2.4201  1.4614 -0.1881
 6064TIP3    H239752   6.360   1.636   2.536  0.0920  1.7705 -1.0467
 6065TIP3   OH239753   3.673   3.422   1.520 -0.3165 -0.4081 -0.6366
 6065TIP3    H139754   3.613   3.398   1.590  0.3523  0.7645  0.3655
 6065TIP3    H239755   3.716   3.502   1.551  1.1173 -0.7267 -1.7099
 6066TIP3   OH239756   4.038   1.742   0.875  0.1651  0.3355  0.4704
 6066TIP3    H139757   4.015   1.781   0.959  0.3377 -2.1363  1.7383
 6066TIP3    H239758   4.127   1.773   0.858  0.7199 -0.3443  1.9985
 6067TIP3   OH239759   5.055   5.966   1.273 -0.2674  0.0510 -0.2149
 6067TIP3    H139760   5.037   5.967   1.179 -1.1113  0.2602 -0.0632
 6067TIP3    H239761   5.064   5.874   1.295  1.8078  0.0596 -0.8173
 6068TIP3   OH239762   1.784   2.935   3.130  0.4640  0.0706 -0.0427
 6068TIP3    H139763   1.880   2.938   3.136  0.3890  1.8187  1.2176
 6068TIP3    H239764   1.756   3.022   3.159 -1.5599 -0.8038  0.8212
 6069TIP3   OH239765   0.009   6.406   1.405 -0.0812 -0.1966 -0.0733
 6069TIP3    H139766  -0.023   6.494   1.388 -1.7244 -0.6328  0.6244
 6069TIP3    H239767  -0.035   6.378   1.485 -0.3182 -1.9954 -0.7683
 6070TIP3   OH239768   0.778   2.612   3.768  0.1523  0.1855  0.1542
 6070TIP3    H139769   0.742   2.606   3.856  1.7715  0.2390  0.8580
 6070TIP3    H239770   0.858   2.559   3.771 -0.6225 -1.2233 -1.7680
 6071TIP3   OH239771   6.933   5.943   3.621  0.0281 -0.0106  0.1312
 6071TIP3    H139772   6.960   6.033   3.606  2.7994 -0.6407  0.8354
 6071TIP3    H239773   6.972   5.920   3.705 -0.8867 -1.7841  0.1116
 6072TIP3   OH239774   4.779   4.628   4.362 -0.2311  0.2522 -0.3346
 6072TIP3    H139775   4.805   4.716   4.391  0.1020  0.7925 -2.1659
 6072TIP3    H239776   4.715   4.600   4.427  1.1370  0.9883  1.4272
 6073TIP3   OH239777   3.068   4.114   2.402  0.3315  0.0308 -0.3594
 6073TIP3    H139778   3.070   4.196   2.351  0.2388 -0.4396 -1.1378
 6073TIP3    H239779   3.154   4.108   2.442  0.1576  0.7843  0.1574
 6074TIP3   OH239780   4.493   2.779   2.920  0.7072  0.1746 -0.0641
 6074TIP3    H139781   4.454   2.692   2.926  1.1639  0.0143  0.7528
 6074TIP3    H239782   4.430   2.837   2.965  1.5347 -0.1439  1.5947
 6075TIP3   OH239783   6.105   3.279   0.982  0.3307 -0.1191 -0.3101
 6075TIP3    H139784   6.039   3.234   1.035 -1.0763  3.6852  1.5605
 6075TIP3    H239785   6.184   3.276   1.036  0.8123 -1.8032 -1.0454
 6076TIP3   OH239786   1.630   5.281   3.851  0.1471 -0.0830  0.2687
 6076TIP3    H139787   1.703   5.230   3.886 -0.4091 -1.4792 -0.4972
 6076TIP3    H239788   1.553   5.226   3.867 -0.5030  0.5953 -0.4313
 6077TIP3   OH239789   4.256   3.440   0.876 -0.0363 -0.0224 -0.2214
 6077TIP3    H139790   4.228   3.353   0.904  1.1087 -0.1078  0.7486
 6077TIP3    H239791   4.285   3.482   0.956  1.0457  0.6243 -0.9369
 6078TIP3   OH239792   0.746   2.548   2.718 -0.0534 -0.4226 -0.1233
 6078TIP3    H139793   0.824   2.501   2.687 -0.7493 -2.0516  0.4677
 6078TIP3    H239794   0.760   2.638   2.690  2.5473 -0.4122  0.9028
 6079TIP3   OH239795   3.337   2.385   3.292 -0.3257  0.8213  0.8411
 6079TIP3    H139796   3.300   2.409   3.207  0.3754 -1.4411 -0.1852
 6079TIP3    H239797   3.404   2.450   3.308  0.4681  0.5352 -1.0510
 6080TIP3   OH239798   5.328   6.158   3.806  0.2236 -0.1147 -0.3153
 6080TIP3    H139799   5.399   6.147   3.743  1.2477 -0.0426  0.7752
 6080TIP3    H239800   5.310   6.252   3.806 -1.6254 -0.3907 -2.3801
 6081TIP3   OH239801   2.462   2.417   3.504 -0.0453 -0.6596 -0.1035
 6081TIP3    H139802   2.553   2.403   3.477 -0.0185  1.4664 -1.3129
 6081TIP3    H239803   2.437   2.335   3.547  2.3474 -1.3875  0.0333
 6082TIP3   OH239804   0.494   6.438   1.508  0.5084 -0.7598 -0.1174
 6082TIP3    H139805   0.462   6.513   1.458 -0.5839 -1.8039 -1.0290
 6082TIP3    H239806   0.511   6.473   1.596  0.2052  0.5821 -0.5833
 6083TIP3   OH239807   3.832   5.074   2.590 -0.5899 -0.1823  0.6957
 6083TIP3    H139808   3.849   4.982   2.609  1.0668 -0.5516 -1.9618
 6083TIP3    H239809   3.919   5.115   2.589 -1.0981  0.9584 -0.0846
 6084TIP3   OH239810   0.957   1.428   3.301 -0.6488  0.2146 -0.3492
 6084TIP3    H139811   1.003   1.428   3.384  0.4551 -1.6210 -0.9040
 6084TIP3    H239812   0.873   1.385   3.320  0.6199 -2.5467 -0.6262
 6085TIP3   OH239813   6.531   1.763   1.499 -0.5860 -0.0561  0.6307
 6085TIP3    H139814   6.457   1.703   1.494 -0.3892 -0.2363 -0.2050
 6085TIP3    H239815   6.561   1.772   1.409  0.8971 -0.6088  1.0356
 6086TIP3   OH239816   2.856   4.076   3.252 -0.4827  0.0317 -0.5545
 6086TIP3    H139817   2.929   4.040   3.303 -0.8586  1.7145  1.2799
 6086TIP3    H239818   2.806   3.999   3.224  1.4680 -1.0983 -1.0719
 6087TIP3   OH239819   3.761   3.944   2.253  0.0183  0.8773  0.1225
 6087TIP3    H139820   3.672   3.907   2.247  0.6733 -1.0571  1.2996
 6087TIP3    H239821   3.755   4.009   2.323 -0.1686 -0.3817  1.3246
 6088TIP3   OH239822   5.655   1.517   1.300  0.2899  0.4897  0.2375
 6088TIP3    H139823   5.639   1.526   1.206 -0.7385  0.2832  0.3767
 6088TIP3    H239824   5.676   1.606   1.329  0.8080  0.5198 -0.2137
 6089TIP3   OH239825   3.213   1.166   1.896  0.1786 -0.3429 -0.3814
 6089TIP3    H139826   3.291   1.192   1.945 -0.4867  0.8386  0.0756
 6089TIP3    H239827   3.236   1.081   1.859  0.6813 -1.3537  2.0436
 6090TIP3   OH239828   4.843   0.822   1.347  0.8801 -0.4326  0.2468
 6090TIP3    H139829   4.905   0.772   1.294 -0.6662 -2.1021 -0.0853
 6090TIP3    H239830   4.809   0.889   1.288  0.7660 -0.9074 -0.2361
 6091TIP3   OH239831   4.877   6.406   4.315  0.1204 -0.1507 -0.7608
 6091TIP3    H139832   4.821   6.359   4.376  0.1144  0.5180 -0.2430
 6091TIP3    H239833   4.847   6.378   4.229  0.3109 -1.3144 -0.4669
 6092TIP3   OH239834   1.120   1.334   3.775  0.1325 -0.0359 -0.4883
 6092TIP3    H139835   1.214   1.315   3.780 -0.0441 -0.9205 -0.4902
 6092TIP3    H239836   1.095   1.354   3.865  0.7178  2.2006 -0.7649
 6093TIP3   OH239837   3.713   1.885   2.159 -0.7871 -0.3653  0.2724
 6093TIP3    H139838   3.663   1.815   2.116 -0.6064  0.5865 -1.6033
 6093TIP3    H239839   3.663   1.965   2.140  1.0467  0.5311 -1.1248
 6094TIP3   OH239840   4.595   1.581   0.686 -0.3931  0.0545  0.2708
 6094TIP3    H139841   4.667   1.529   0.650  0.2214 -0.4270  2.0735
 6094TIP3    H239842   4.541   1.603   0.610  3.1827  3.0562 -1.7304
 6095TIP3   OH239843   1.997   2.754   3.319 -0.1809  0.0328  0.2497
 6095TIP3    H139844   2.066   2.705   3.274 -0.4559  0.6059 -0.8222
 6095TIP3    H239845   2.045   2.816   3.374  0.2247  1.5392 -1.6991
 6096TIP3   OH239846   6.174   4.203   4.465 -0.5800  0.2256 -0.4604
 6096TIP3    H139847   6.202   4.290   4.492  1.0236 -0.5940  0.6786
 6096TIP3    H239848   6.243   4.173   4.406 -0.3611 -0.8028  0.2869
 6097TIP3   OH239849   2.593   2.718   0.137  0.1836  0.4294 -0.3425
 6097TIP3    H139850   2.593   2.775   0.060  0.2435 -0.4316 -0.9849
 6097TIP3    H239851   2.524   2.654   0.120  1.3787 -0.8542 -0.4977
 6098TIP3   OH239852   1.800   0.309   2.570  0.1724 -0.2813 -0.6225
 6098TIP3    H139853   1.780   0.260   2.650 -1.1995 -0.7768 -1.2365
 6098TIP3    H239854   1.883   0.272   2.540  0.3490 -0.5723  0.1890
 6099TIP3   OH239855   4.414   2.802   3.996  0.2309 -0.3011 -0.1755
 6099TIP3    H139856   4.423   2.827   4.088 -1.7999  0.7480 -0.2086
 6099TIP3    H239857   4.327   2.761   3.990  0.0669  0.2044 -1.7338
 6100TIP3   OH239858   2.941   5.327   0.241  0.2461  0.0321 -0.1257
 6100TIP3    H139859   2.918   5.408   0.195 -0.1630 -0.2884 -0.4927
 6100TIP3    H239860   2.878   5.322   0.313  0.7677  0.4364  0.3746
 6101TIP3   OH239861   4.709   4.798   0.217  0.6348 -0.1599  0.0385
 6101TIP3    H139862   4.709   4.748   0.298  1.3309  1.1604  0.8763
 6101TIP3    H239863   4.617   4.802   0.191  0.3621 -0.2870  0.9550
 6102TIP3   OH239864   1.089   3.219   3.333  0.0311 -0.5322 -0.0238
 6102TIP3    H139865   1.109   3.302   3.288 -1.7261  0.5426  1.0583
 6102TIP3    H239866   1.131   3.228   3.419  1.0476 -1.4105 -0.4046
 6103TIP3   OH239867   2.022   3.504   1.847  0.0739  0.3599  0.2993
 6103TIP3    H139868   1.959   3.432   1.847 -0.6792  1.0020 -0.2874
 6103TIP3    H239869   2.041   3.520   1.754 -1.8226  2.6352  0.2012
 6104TIP3   OH239870   2.261   6.106   8.500  0.0733 -0.6376  0.2117
 6104TIP3    H139871   2.172   6.120   8.466  0.2520 -0.8245 -0.3388
 6104TIP3    H239872   2.313   6.087   8.423  0.7383  0.1512  0.4563
 6105TIP3   OH239873   2.346   2.031   0.797 -0.0689  0.2216 -0.5538
 6105TIP3    H139874   2.369   2.123   0.804 -1.1364  0.4332  0.3865
 6105TIP3    H239875   2.401   1.987   0.862 -1.7701  0.6466  1.2613
 6106TIP3   OH239876   4.053   2.613   3.116  0.0109  0.2914 -0.6690
 6106TIP3    H139877   4.130   2.664   3.089 -0.5007  1.3603 -0.1949
 6106TIP3    H239878   3.987   2.680   3.138 -0.5475 -0.5774  0.3883
 6107TIP3   OH239879   1.658   1.758   0.902  0.0292  0.3003  0.2380
 6107TIP3    H139880   1.579   1.755   0.849 -1.3943  1.6169  2.1573
 6107TIP3    H239881   1.643   1.694   0.972  1.0479 -0.0479  0.1611
 6108TIP3   OH239882   5.882   2.779   3.182 -0.9427  0.5334  0.4455
 6108TIP3    H139883   5.964   2.815   3.148 -0.7130  1.7789  2.1917
 6108TIP3    H239884   5.839   2.853   3.225 -1.4442 -0.8126  2.3870
 6109TIP3   OH239885   1.222   2.396   2.323 -0.2364 -0.3617 -0.1527
 6109TIP3    H139886   1.316   2.407   2.308 -0.3755  0.5467 -0.3897
 6109TIP3    H239887   1.215   2.310   2.366  0.6388 -0.7056 -0.6681
 6110TIP3   OH239888   4.799   2.322   3.095  0.3151  0.3860  0.0412
 6110TIP3    H139889   4.888   2.340   3.065  0.5248 -1.8101 -0.8072
 6110TIP3    H239890   4.810   2.282   3.181  0.0224  1.7194  0.7158
 6111TIP3   OH239891   4.153   3.158   3.845 -0.8104  0.1965 -0.6554
 6111TIP3    H139892   4.192   3.198   3.768 -1.3384 -0.1867 -1.1273
 6111TIP3    H239893   4.142   3.066   3.822 -1.4970  0.1916 -0.3387
 6112TIP3   OH239894   4.386   6.496   1.263 -0.1061  0.3023 -0.2354
 6112TIP3    H139895   4.456   6.448   1.219 -0.9101 -0.7128 -0.4519
 6112TIP3    H239896   4.389   6.583   1.224  1.4231  0.4817  0.2068
 6113TIP3   OH239897   6.361   5.715   0.891 -0.0063  0.0800 -0.1322
 6113TIP3    H139898   6.417   5.745   0.819  0.6488  0.2799  0.4511
 6113TIP3    H239899   6.419   5.663   0.946 -0.5057 -0.0769  0.2533
 6114TIP3   OH239900   6.490   2.347   1.298  0.2959 -0.4942 -0.5895
 6114TIP3    H139901   6.404   2.377   1.326 -0.4169 -2.0450 -0.9938
 6114TIP3    H239902   6.529   2.309   1.377  0.2685 -0.5397 -0.5979
 6115TIP3   OH239903   1.411   2.012   2.743 -0.0672  0.0203 -0.1086
 6115TIP3    H139904   1.352   1.956   2.693 -0.3627 -0.1413  0.4124
 6115TIP3    H239905   1.459   2.061   2.677 -0.3950 -0.2474 -0.5518
 6116TIP3   OH239906   2.741   0.805   1.440 -0.0301 -0.1883  0.0231
 6116TIP3    H139907   2.776   0.893   1.450 -2.0667  0.6605  0.2045
 6116TIP3    H239908   2.772   0.758   1.518  0.8107  0.4307  0.0765
 6117TIP3   OH239909   6.431   4.506   3.729  0.0703  0.1860  0.6108
 6117TIP3    H139910   6.427   4.584   3.674  0.3354  0.1214  0.4999
 6117TIP3    H239911   6.341   4.474   3.731 -0.1363  0.7908  1.0840
 6118TIP3   OH239912   3.686   6.111   1.201  0.4380 -0.6464  0.3996
 6118TIP3    H139913   3.777   6.107   1.172  0.0794 -0.6901 -0.8165
 6118TIP3    H239914   3.663   6.204   1.196  0.1538 -0.7382 -0.2581
 6119TIP3   OH239915   1.312   4.292   2.134  0.3913  0.7230  0.4951
 6119TIP3    H139916   1.357   4.291   2.219  0.9635 -1.7631  0.2640
 6119TIP3    H239917   1.312   4.200   2.107  0.4105  1.4646 -2.3126
 6120TIP3   OH239918   6.094   1.104   0.064  0.1661  0.2725  0.2180
 6120TIP3    H139919   6.063   1.175   0.120  0.5613  1.0436 -0.5180
 6120TIP3    H239920   6.168   1.141   0.017  0.6296 -0.7619  0.1110
 6121TIP3   OH239921   1.339   4.603   2.217 -0.3348  0.1884  0.3753
 6121TIP3    H139922   1.346   4.507   2.226  0.2936  0.3286  1.6275
 6121TIP3    H239923   1.320   4.633   2.306  0.0212  1.2808  0.0876
 6122TIP3   OH239924   0.122   4.354   3.784  0.1754  0.1595  0.0584
 6122TIP3    H139925   0.121   4.386   3.874 -1.9102  1.6486 -0.3962
 6122TIP3    H239926   0.040   4.306   3.775  1.0512 -1.2590 -0.6612
 6123TIP3   OH239927   2.935   6.552   1.103  0.0723  0.1656  0.5422
 6123TIP3    H139928   3.000   6.621   1.088  0.9277 -0.1552  2.4630
 6123TIP3    H239929   2.958   6.515   1.189 -2.4632 -0.1894  1.1574
 6124TIP3   OH239930   5.501   4.796   1.277 -0.0268 -0.2274  0.3839
 6124TIP3    H139931   5.414   4.835   1.286  0.3848  0.9216 -0.3053
 6124TIP3    H239932   5.488   4.717   1.226 -0.5663  0.4151 -0.4989
 6125TIP3   OH239933   3.624   1.908   2.445 -0.0544  0.1117  0.0591
 6125TIP3    H139934   3.629   1.813   2.432 -0.7236 -0.1218  1.3044
 6125TIP3    H239935   3.651   1.945   2.361  0.6442 -1.1674 -0.3184
 6126TIP3   OH239936   3.356   4.070   0.151 -0.0467  0.0049  0.7542
 6126TIP3    H139937   3.378   4.031   0.235  0.3714  1.7596  1.4895
 6126TIP3    H239938   3.369   4.164   0.163  0.0753  0.3004 -1.2797
 6127TIP3   OH239939   1.682   3.794   8.130  0.5077 -0.8375 -0.4020
 6127TIP3    H139940   1.772   3.827   8.135  0.1638  0.0884 -0.1654
 6127TIP3    H239941   1.672   3.739   8.208  1.3448 -2.2098 -1.2206
 6128TIP3   OH239942   0.947   0.490   3.068  0.7720  0.0611  0.0740
 6128TIP3    H139943   0.951   0.394   3.076  1.1077 -0.1682 -2.1522
 6128TIP3    H239944   0.879   0.517   3.129  0.5826 -1.6168  0.6498
 6129TIP3   OH239945   2.908   4.815   3.613 -0.2416  0.4627  0.1434
 6129TIP3    H139946   2.921   4.906   3.640 -0.8047  0.9988 -1.3129
 6129TIP3    H239947   2.961   4.765   3.675 -0.2910  1.7309  1.2716
 6130TIP3   OH239948   2.665   2.968   1.555 -0.5927  0.1280 -0.9196
 6130TIP3    H139949   2.674   2.905   1.484 -1.2161  1.4329 -2.1947
 6130TIP3    H239950   2.627   3.045   1.515 -1.3689  0.7669  0.9255
 6131TIP3   OH239951   4.063   4.224   4.231  0.0581  0.2193 -0.2908
 6131TIP3    H139952   4.023   4.287   4.172 -0.9793  0.2507  0.4205
 6131TIP3    H239953   4.006   4.147   4.227 -1.0100  0.8229  1.9065
 6132TIP3   OH239954   4.412   0.839   1.445 -0.0057 -0.2100 -0.3924
 6132TIP3    H139955   4.475   0.799   1.385  0.7933  0.8716 -0.3092
 6132TIP3    H239956   4.464   0.902   1.496 -0.5105 -1.5150  1.8997
 6133TIP3   OH239957   1.770   1.474   3.597  0.1463  0.4998  0.0521
 6133TIP3    H139958   1.701   1.491   3.661  0.2339 -1.7918  0.8443
 6133TIP3    H239959   1.725   1.478   3.513 -1.3568 -2.1959  0.6017
 6134TIP3   OH239960   3.712   0.827   1.064 -0.3431 -0.3390 -0.4935
 6134TIP3    H139961   3.801   0.810   1.095 -0.6932 -3.2130 -0.7994
 6134TIP3    H239962   3.676   0.740   1.046 -2.7129  0.8278 -1.8270
 6135TIP3   OH239963   2.216   5.271   2.550 -0.1612 -0.2703  0.0283
 6135TIP3    H139964   2.164   5.345   2.519  0.6760  0.4016  0.1932
 6135TIP3    H239965   2.233   5.219   2.471 -0.6557 -0.2321 -0.1056
 6136TIP3   OH239966   0.538   2.226   2.400  0.5389  0.5758  0.5873
 6136TIP3    H139967   0.563   2.157   2.340  1.3609  1.3121  0.0551
 6136TIP3    H239968   0.573   2.198   2.485  0.1266 -0.0539  0.5552
 6137TIP3   OH239969   6.619   4.646   4.554 -0.2377 -0.1380 -0.4130
 6137TIP3    H139970   6.629   4.641   4.649  0.7560  1.0994 -0.4159
 6137TIP3    H239971   6.582   4.733   4.538  0.9530  0.2523 -1.2180
 6138TIP3   OH239972   6.826   0.598   1.829  0.0030  0.1820  0.1652
 6138TIP3    H139973   6.782   0.613   1.745  0.4807 -0.6410 -0.2441
 6138TIP3    H239974   6.782   0.521   1.866 -0.2660  0.5926  0.7227
 6139TIP3   OH239975   2.594   0.950   3.164 -0.5685  0.1301  0.4654
 6139TIP3    H139976   2.653   0.971   3.092 -0.5782 -1.9081 -0.1751
 6139TIP3    H239977   2.614   1.016   3.231  0.3168  1.2928 -0.8802
 6140TIP3   OH239978   6.865   0.611   2.766 -0.7798  0.4076  0.3041
 6140TIP3    H139979   6.861   0.525   2.808 -0.6891 -0.2856 -1.0304
 6140TIP3    H239980   6.777   0.626   2.732  0.3256 -1.9855 -4.6262
 6141TIP3   OH239981   4.393   1.890   2.193 -0.2414  0.3892 -0.4950
 6141TIP3    H139982   4.345   1.915   2.114  0.6536  0.4156 -1.0386
 6141TIP3    H239983   4.342   1.817   2.230 -1.0252  0.8070 -0.7233
 6142TIP3   OH239984   0.189   0.382   2.670  0.1190  0.5581 -0.1093
 6142TIP3    H139985   0.155   0.433   2.597  0.1783  0.1472 -0.4247
 6142TIP3    H239986   0.113   0.339   2.708  0.2734 -0.4281 -0.8667
 6143TIP3   OH239987   1.493   6.135   4.504  0.2028  0.3038 -0.2699
 6143TIP3    H139988   1.513   6.147   4.597 -0.9479  2.2377 -0.2264
 6143TIP3    H239989   1.573   6.163   4.459  0.1409  1.1003  0.0994
 6144TIP3   OH239990   5.110   3.260   0.162  0.1151 -0.1496 -0.0385
 6144TIP3    H139991   5.121   3.307   0.245  1.0211 -0.0643 -0.2026
 6144TIP3    H239992   5.187   3.204   0.156 -0.5778 -1.0996 -0.2186
 6145TIP3   OH239993   4.768   5.358   0.519  0.3850  0.1869  0.0989
 6145TIP3    H139994   4.756   5.263   0.523  0.5057  0.2147  1.3552
 6145TIP3    H239995   4.832   5.371   0.449 -0.4534 -0.5668 -0.8490
 6146TIP3   OH239996   1.409   4.255   1.685 -0.3237 -0.0340  0.2316
 6146TIP3    H139997   1.397   4.293   1.598  0.6265  2.6733  1.1952
 6146TIP3    H239998   1.337   4.292   1.737 -0.5593 -1.1939  0.7607
 6147TIP3   OH239999   1.640   3.828   0.035 -0.1283  0.5692 -0.6228
 6147TIP3    H140000   1.669   3.770  -0.035  1.9441 -0.4577  0.9909
 6147TIP3    H240001   1.578   3.888  -0.008  0.2165 -0.6914 -3.0565
 6148TIP3   OH240002   1.894   5.073   3.055  0.3227  0.2947  0.2668
 6148TIP3    H140003   1.871   5.126   2.979 -1.8759  0.6057  1.0616
 6148TIP3    H240004   1.966   5.120   3.097  0.2752  1.1440 -0.5669
 6149TIP3   OH240005   6.636   0.162   0.203  0.4775 -0.2313  0.1060
 6149TIP3    H140006   6.607   0.078   0.236 -0.0807  0.5364  1.6481
 6149TIP3    H240007   6.721   0.143   0.162 -1.0541 -2.0953 -2.5248
 6150TIP3   OH240008   0.149   2.648   2.991  0.8571 -0.1413  0.1988
 6150TIP3    H140009   0.222   2.605   3.036  1.3124 -0.2056 -0.5738
 6150TIP3    H240010   0.179   2.738   2.980  0.8359 -0.1744 -0.1413
 6151TIP3   OH240011   6.472   6.462   1.487  0.8234 -0.1050  0.3800
 6151TIP3    H140012   6.398   6.465   1.548  0.3079 -1.1480 -0.1931
 6151TIP3    H240013   6.533   6.527   1.523 -1.1423  2.2075 -0.1874
 6152TIP3   OH240014   0.624   1.395   3.282 -0.0343 -0.1831  0.1049
 6152TIP3    H140015   0.640   1.477   3.329 -1.6399 -0.1817  0.7160
 6152TIP3    H240016   0.624   1.328   3.349 -0.1422 -0.4881 -0.1988
 6153TIP3   OH240017   2.627   1.478   2.180  0.1699  1.0455 -0.0426
 6153TIP3    H140018   2.540   1.448   2.152  1.1470 -0.4711 -1.6925
 6153TIP3    H240019   2.624   1.476   2.275 -0.8905 -1.3052 -0.0526
 6154TIP3   OH240020   4.051   4.097   1.613  0.1485  0.0316  0.1814
 6154TIP3    H140021   4.099   4.180   1.623 -0.9475  0.6677  0.3973
 6154TIP3    H240022   4.003   4.108   1.531 -0.5009 -0.1115  0.5322
 6155TIP3   OH240023   6.544   2.351   1.011 -0.0906  0.3932  0.1822
 6155TIP3    H140024   6.517   2.366   1.102  0.6115 -0.9702  0.6375
 6155TIP3    H240025   6.629   2.393   1.004 -0.0218  0.2601  0.2267
 6156TIP3   OH240026   6.008   5.779   2.628 -0.1649  0.2722  0.1678
 6156TIP3    H140027   6.057   5.792   2.547  1.0951  0.1345  0.8821
 6156TIP3    H240028   5.919   5.809   2.607  0.4942  1.6681 -0.8120
 6157TIP3   OH240029   2.944   4.956   0.379  0.4514  0.4281 -0.7051
 6157TIP3    H140030   3.016   4.984   0.435  0.5136 -0.5495 -0.2659
 6157TIP3    H240031   2.964   4.994   0.294  0.4849  1.7297 -0.1363
 6158TIP3   OH240032   2.146   0.115   2.940 -0.0507  0.3596 -0.2513
 6158TIP3    H140033   2.210   0.144   3.005  0.1857 -0.7963  0.0451
 6158TIP3    H240034   2.197   0.108   2.859  0.4855 -1.5861  0.2067
 6159TIP3   OH240035   2.432   3.464   0.459 -0.4216  0.2107 -0.3878
 6159TIP3    H140036   2.337   3.463   0.444 -0.7651 -2.3445  1.3513
 6159TIP3    H240037   2.445   3.404   0.531  2.4796  1.2670  0.0831
 6160TIP3   OH240038   2.322   5.950   2.328 -0.2721  0.5382  0.1702
 6160TIP3    H140039   2.376   6.029   2.332  0.4848  0.0237  0.3135
 6160TIP3    H240040   2.311   5.933   2.235  1.4817 -0.4593  0.1178
 6161TIP3   OH240041   6.620   6.858   8.500 -0.1006 -0.0417 -0.2713
 6161TIP3    H140042   6.554   6.824   8.560 -0.4823  0.6578 -0.2746
 6161TIP3    H240043   6.582   6.844   8.413 -0.5567  0.9387 -0.2508
 6162TIP3   OH240044   5.028   6.157   1.765 -0.2591 -0.8685  0.2689
 6162TIP3    H140045   5.007   6.086   1.704  1.7532 -0.7494 -0.6523
 6162TIP3    H240046   5.015   6.119   1.852  0.7961 -2.4082 -0.1994
 6163TIP3   OH240047   0.930   2.046   2.321 -0.5500  0.3513  0.1595
 6163TIP3    H140048   0.922   1.952   2.334 -1.9689  0.2979 -0.8757
 6163TIP3    H240049   1.004   2.056   2.261 -1.0580 -0.1962 -0.5742
 6164TIP3   OH240050   1.334   6.069   0.041  0.0790 -0.1071  0.2257
 6164TIP3    H140051   1.330   6.054   0.136  2.5323 -0.1045  0.3973
 6164TIP3    H240052   1.354   5.983   0.005 -1.5266 -0.2425 -0.3843
 6165TIP3   OH240053   1.749   5.212   1.073 -0.0872 -0.5165  0.2037
 6165TIP3    H140054   1.783   5.257   0.996  0.0152  0.2098  0.6585
 6165TIP3    H240055   1.736   5.122   1.045  0.4460 -0.3782 -0.5096
 6166TIP3   OH240056   2.085   6.421   8.172  0.2828 -0.4971 -0.1233
 6166TIP3    H140057   2.140   6.352   8.135  0.6499 -1.0536  1.3725
 6166TIP3    H240058   2.143   6.467   8.234 -0.2866  0.4159 -0.2436
 6167TIP3   OH240059   6.362   5.659   4.239 -0.1351 -0.3581 -0.3393
 6167TIP3    H140060   6.407   5.740   4.216  0.0867 -0.8111 -1.5926
 6167TIP3    H240061   6.432   5.600   4.266 -0.3793  0.1178  1.4602
 6168TIP3   OH240062   3.130   0.887   3.243  0.5323  0.1046  0.1179
 6168TIP3    H140063   3.193   0.950   3.207  0.4967  0.3463  0.4722
 6168TIP3    H240064   3.178   0.804   3.242  0.6301  0.1619 -0.2191
 6169TIP3   OH240065   3.459   6.670   1.007 -0.2536  0.2934 -0.2850
 6169TIP3    H140066   3.478   6.723   1.085 -0.5477  0.1732 -0.1281
 6169TIP3    H240067   3.480   6.727   0.933  2.2652 -0.3744 -0.1449
 6170TIP3   OH240068   5.332   4.172   4.575 -0.2940  0.0571 -0.2059
 6170TIP3    H140069   5.390   4.155   4.649 -1.2846 -3.9674 -0.1529
 6170TIP3    H240070   5.372   4.126   4.502 -0.9445  1.3755 -1.4515
 6171TIP3   OH240071   3.985   4.113   1.347 -0.8913  0.5632 -0.0707
 6171TIP3    H140072   3.914   4.161   1.305 -0.4334  0.2433 -1.2546
 6171TIP3    H240073   4.057   4.116   1.283 -0.4819 -0.7481  0.2928
 6172TIP3   OH240074   3.569   4.273   2.452 -0.6983 -0.4587 -0.2366
 6172TIP3    H140075   3.547   4.250   2.362 -1.2408 -0.2233 -0.1676
 6172TIP3    H240076   3.518   4.352   2.469  1.4391  1.1005 -0.6260
 6173TIP3   OH240077   1.992   5.168   4.241 -0.2598 -0.1637 -0.5797
 6173TIP3    H140078   1.943   5.190   4.320  0.2476 -0.1907 -0.2599
 6173TIP3    H240079   1.953   5.224   4.173 -0.9896 -0.4546 -0.4171
 6174TIP3   OH240080   2.904   6.025   2.487  0.3160 -0.1298  0.2111
 6174TIP3    H140081   2.999   6.012   2.495  0.0489 -2.0325  0.6480
 6174TIP3    H240082   2.882   6.084   2.560  1.2480  0.9803 -0.3711
 6175TIP3   OH240083   4.289   4.661   1.679 -0.4758 -0.3578  0.4263
 6175TIP3    H140084   4.338   4.704   1.610  1.0457 -0.5369  1.3569
 6175TIP3    H240085   4.201   4.700   1.674  0.1894  1.1256 -0.2579
 6176TIP3   OH240086   5.970   6.766   3.644 -0.4450  0.6800 -0.1922
 6176TIP3    H140087   6.043   6.738   3.588  0.8288  2.1627  0.6494
 6176TIP3    H240088   5.995   6.736   3.731 -0.5996  1.6216  0.1857
 6177TIP3   OH240089   6.031   5.329   2.174  0.3067  0.0509 -0.5261
 6177TIP3    H140090   6.017   5.350   2.267  0.7751 -0.4769 -0.3302
 6177TIP3    H240091   6.105   5.385   2.149  0.4782 -0.1439 -0.4558
 6178TIP3   OH240092   2.630   2.192   2.895 -0.1587 -0.3556  0.0630
 6178TIP3    H140093   2.563   2.124   2.892  0.6206 -1.1290 -1.2648
 6178TIP3    H240094   2.709   2.147   2.925  0.0729  0.2536  0.3900
 6179TIP3   OH240095   1.814   3.298   1.860 -0.1032  0.1685  0.1341
 6179TIP3    H140096   1.831   3.204   1.866 -0.3735  0.1555  0.8793
 6179TIP3    H240097   1.723   3.307   1.889 -0.2992  0.5870 -0.5956
 6180TIP3   OH240098   3.098   2.462   3.521  0.3511  0.4938 -0.1142
 6180TIP3    H140099   3.136   2.549   3.532 -0.7168  1.1151 -1.0762
 6180TIP3    H240100   3.069   2.460   3.430  1.3295 -1.2915 -0.4188
 6181TIP3   OH240101   0.337   3.742   4.893 -0.5693  0.5225  0.5684
 6181TIP3    H140102   0.290   3.807   4.840 -1.1289 -0.6453 -0.4252
 6181TIP3    H240103   0.427   3.746   4.862 -0.3929  1.4410  1.1520
 6182TIP3   OH240104   1.665   1.837   0.286 -0.7041 -0.5841 -0.4080
 6182TIP3    H140105   1.662   1.743   0.302 -0.1299 -0.7615 -1.2861
 6182TIP3    H240106   1.639   1.847   0.195 -2.7674  0.3013  0.2106
 6183TIP3   OH240107   1.636   2.873   2.905  0.1895 -0.4210  0.3028
 6183TIP3    H140108   1.661   2.926   2.830 -2.1169  1.4101  0.7125
 6183TIP3    H240109   1.686   2.909   2.978  0.3518 -0.3249  0.1438
 6184TIP3   OH240110   1.835   0.988   4.702  0.0805  0.2622  0.6010
 6184TIP3    H140111   1.900   0.965   4.769  0.2498  0.2234  0.4244
 6184TIP3    H240112   1.869   1.067   4.661  0.2527 -0.0220  0.1907
 6185TIP3   OH240113   5.792   4.851   2.103  0.3364 -0.5642 -0.4623
 6185TIP3    H140114   5.784   4.805   2.186  1.5293  0.6741  0.3824
 6185TIP3    H240115   5.765   4.941   2.122  0.8518 -0.2089 -1.3529
 6186TIP3   OH240116   3.026   0.974   2.530 -0.7886  0.3778 -0.2643
 6186TIP3    H140117   2.998   1.014   2.448 -1.6981  2.2134  0.8794
 6186TIP3    H240118   2.945   0.958   2.578 -0.1546  2.3950  1.6149
 6187TIP3   OH240119   6.924   6.921   3.409 -0.1670 -0.2515  0.5833
 6187TIP3    H140120   6.866   6.994   3.429 -0.7621 -0.3173 -0.7893
 6187TIP3    H240121   6.865   6.848   3.389  0.3613 -0.2725 -1.0047
 6188TIP3   OH240122   0.013   1.927   2.303 -0.2418 -0.1502  0.5054
 6188TIP3    H140123  -0.024   1.975   2.229  0.5792  0.6497  0.5898
 6188TIP3    H240124  -0.020   1.975   2.380  0.1771 -0.0175  0.6049
 6189TIP3   OH240125   4.177   2.149   2.191 -0.5011 -0.2922 -0.4104
 6189TIP3    H140126   4.148   2.208   2.260  1.0601  0.1226 -0.0684
 6189TIP3    H240127   4.261   2.185   2.163 -1.2533 -0.2152 -2.8203
 6190TIP3   OH240128   1.934   4.271   0.878  0.1886 -0.7215 -0.3534
 6190TIP3    H140129   1.856   4.276   0.933  0.3892  0.3713 -0.1435
 6190TIP3    H240130   1.964   4.362   0.871  0.3136 -0.8674 -2.0527
 6191TIP3   OH240131   0.729   4.695   3.678 -0.7761 -0.2801 -0.2315
 6191TIP3    H140132   0.796   4.639   3.717 -0.5947  0.7017  0.8954
 6191TIP3    H240133   0.778   4.752   3.618 -0.6558  0.1238  0.2447
 6192TIP3   OH240134   2.544   2.264   2.273 -0.0278 -0.1569  0.3560
 6192TIP3    H140135   2.499   2.181   2.287  0.8990 -0.6281  0.6010
 6192TIP3    H240136   2.583   2.285   2.357  0.3822  0.1460  0.0949
 6193TIP3   OH240137   1.763   6.227   2.445  0.2613  0.2668  0.4715
 6193TIP3    H140138   1.819   6.255   2.517  3.2774 -0.6260 -1.3285
 6193TIP3    H240139   1.703   6.301   2.431  0.8717  1.2531  2.5770
 6194TIP3   OH240140   0.574   3.668   3.889  0.3837 -0.2172  0.0430
 6194TIP3    H140141   0.501   3.606   3.894  0.1104  0.1946  1.3495
 6194TIP3    H240142   0.538   3.745   3.846  0.6812 -0.8499 -1.4342
 6195TIP3   OH240143   5.074   1.077   0.126 -0.0813 -0.2151  0.5324
 6195TIP3    H140144   5.130   1.065   0.049  0.9076  0.5187  1.1031
 6195TIP3    H240145   5.071   1.172   0.138 -0.2297 -0.3180  1.3892
 6196TIP3   OH240146   2.522   6.283   3.059  0.4326 -0.3802 -0.2731
 6196TIP3    H140147   2.526   6.310   3.150  0.9339 -1.1638 -0.0459
 6196TIP3    H240148   2.431   6.255   3.046  0.7005 -1.6314  0.4125
 6197TIP3   OH240149   4.108   5.548   1.689 -0.3955  0.5610  0.1398
 6197TIP3    H140150   4.077   5.485   1.755  0.3343 -0.3314 -0.3452
 6197TIP3    H240151   4.178   5.501   1.643  0.9632  2.1377  0.5113
 6198TIP3   OH240152   1.101   6.364   0.475 -0.5786 -0.0936 -0.2531
 6198TIP3    H140153   1.181   6.360   0.528 -0.2047 -0.1411 -0.8077
 6198TIP3    H240154   1.075   6.272   0.464  0.3114 -0.2295 -1.5594
 6199TIP3   OH240155   2.136   6.158   2.111  0.0438 -0.0497 -0.4041
 6199TIP3    H140156   2.124   6.076   2.063 -2.5418  0.0787 -0.0988
 6199TIP3    H240157   2.228   6.157   2.137  0.5856 -1.8888 -2.1162
 6200TIP3   OH240158   4.800   2.281   2.255  0.1321  0.5103  0.5256
 6200TIP3    H140159   4.888   2.246   2.249 -0.1787 -0.0954 -0.8324
 6200TIP3    H240160   4.798   2.328   2.339  0.8063 -2.0512  2.0908
 6201TIP3   OH240161   1.184   2.126   1.078 -0.2640  0.4961  0.5933
 6201TIP3    H140162   1.142   2.083   1.153 -0.2436 -0.9051 -0.1601
 6201TIP3    H240163   1.274   2.092   1.078  0.1678  1.5927  0.7580
 6202TIP3   OH240164   0.310   0.581   1.484  0.3544  0.2324  0.6878
 6202TIP3    H140165   0.279   0.669   1.462  1.3969  0.5500  0.4286
 6202TIP3    H240166   0.233   0.536   1.519 -0.3981  0.9734  0.0226
 6203TIP3   OH240167   0.334   6.352   3.776 -0.2953  0.8086 -0.1925
 6203TIP3    H140168   0.342   6.321   3.866 -0.3919  1.7308  0.1339
 6203TIP3    H240169   0.262   6.414   3.777 -1.0420  0.0091 -1.1415
 6204TIP3   OH240170   1.511   0.644   2.366 -0.0959 -0.2249 -0.3075
 6204TIP3    H140171   1.556   0.728   2.367  2.2484 -1.4199  0.0551
 6204TIP3    H240172   1.579   0.579   2.351 -1.2824 -2.3506  2.4372
 6205TIP3   OH240173   4.926   4.588   0.652 -0.3485  0.8061  0.3054
 6205TIP3    H140174   4.977   4.509   0.663 -1.3161  0.0244 -0.6092
 6205TIP3    H240175   4.973   4.639   0.587 -1.3940 -0.5489 -1.6021
 6206TIP3   OH240176   5.066   3.211   3.015 -0.4829 -0.0796  0.3311
 6206TIP3    H140177   5.134   3.149   3.039 -0.1781 -0.0584 -0.4639
 6206TIP3    H240178   5.112   3.281   2.969 -0.9490  0.2692  0.3830
 6207TIP3   OH240179   0.841   3.364   0.092 -0.3586  0.1326 -0.0131
 6207TIP3    H140180   0.893   3.360   0.012 -0.2726  0.4235  0.0250
 6207TIP3    H240181   0.889   3.426   0.148 -0.2226 -0.3478  0.4016
 6208TIP3   OH240182   1.812   5.958   2.334 -0.3806 -0.2875 -0.7320
 6208TIP3    H140183   1.829   5.916   2.418  3.1889  0.3380 -1.0126
 6208TIP3    H240184   1.787   6.047   2.357 -1.8511 -0.7788 -0.3203
 6209TIP3   OH240185   6.567   4.642   2.378 -0.2006 -0.0506 -0.1005
 6209TIP3    H140186   6.658   4.625   2.352 -0.4382 -0.5705 -0.6073
 6209TIP3    H240187   6.546   4.571   2.438  0.4173  1.2643  1.7628
 6210TIP3   OH240188   1.916   3.544   3.835 -1.0169  0.5450 -0.0244
 6210TIP3    H140189   1.996   3.526   3.885  0.0843  2.2689 -1.0757
 6210TIP3    H240190   1.888   3.459   3.802  0.3003 -0.1083  0.4952
 6211TIP3   OH240191   3.808   5.967   2.031  0.2410 -0.0005 -0.1121
 6211TIP3    H140192   3.793   5.980   2.125 -0.6216 -1.7203  0.0320
 6211TIP3    H240193   3.737   6.016   1.989 -0.6419 -0.9144  0.2530
 6212TIP3   OH240194   2.714   5.462   0.999 -0.2424 -0.0763 -0.2253
 6212TIP3    H140195   2.729   5.468   0.905  1.4589 -0.3523 -0.0103
 6212TIP3    H240196   2.645   5.526   1.017 -0.1123  0.4661 -1.5595
 6213TIP3   OH240197   1.707   6.835   3.272  0.0292  0.4075  0.2012
 6213TIP3    H140198   1.644   6.763   3.271  0.3605  0.0927  0.8882
 6213TIP3    H240199   1.690   6.884   3.192  0.4069 -0.9753 -0.7572
 6214TIP3   OH240200   0.384   2.499   3.383 -0.1847 -0.4522 -0.1730
 6214TIP3    H140201   0.337   2.416   3.372  0.7660 -1.1015  0.5486
 6214TIP3    H240202   0.424   2.493   3.470  1.7960 -0.2160 -1.0128
 6215TIP3   OH240203   3.803   1.741   0.726  0.2324 -0.3650 -0.1267
 6215TIP3    H140204   3.816   1.812   0.664 -2.7449 -0.7418 -1.3876
 6215TIP3    H240205   3.882   1.739   0.779  1.6782  1.8668 -2.0398
 6216TIP3   OH240206   5.193   1.263   3.228 -0.7653  0.0414  0.6014
 6216TIP3    H140207   5.102   1.261   3.259 -0.8186  1.1866  0.5903
 6216TIP3    H240208   5.185   1.276   3.133 -0.6305  1.9178  0.7981
 6217TIP3   OH240209   0.868   2.916   3.912  0.0063 -0.3037 -0.0401
 6217TIP3    H140210   0.779   2.950   3.904  0.2162  0.0277 -1.1271
 6217TIP3    H240211   0.910   2.937   3.828  1.0829 -0.5291  0.4195
 6218TIP3   OH240212   1.237   4.842   3.639 -0.6638 -0.2969 -0.2299
 6218TIP3    H140213   1.256   4.787   3.715  0.8450  2.4642  1.5896
 6218TIP3    H240214   1.213   4.927   3.677  0.2941  1.2466 -2.8314
 6219TIP3   OH240215   3.335   1.018   1.531 -0.0755  0.1581  0.2823
 6219TIP3    H140216   3.335   1.031   1.436 -2.5144 -3.7676 -0.4640
 6219TIP3    H240217   3.426   0.995   1.551  0.8963  2.7462 -0.6379
 6220TIP3   OH240218   2.479   6.664   3.618  0.2642 -0.6587 -0.1912
 6220TIP3    H140219   2.428   6.657   3.698  0.0983 -0.5286 -0.2845
 6220TIP3    H240220   2.474   6.757   3.594  0.5109 -0.6519 -0.2237
 6221TIP3   OH240221   2.424   3.974   1.270  0.3235 -0.1559 -0.1640
 6221TIP3    H140222   2.412   3.916   1.346 -1.2057 -0.4002 -0.5507
 6221TIP3    H240223   2.367   4.049   1.289 -0.6707 -0.5724 -1.3924
 6222TIP3   OH240224   2.650   4.184   0.735 -0.1126 -0.8717 -0.0739
 6222TIP3    H140225   2.658   4.218   0.646 -3.0025  0.2418 -0.0258
 6222TIP3    H240226   2.601   4.102   0.725 -3.1459  0.7111  0.5678
 6223TIP3   OH240227   3.974   5.781   1.315 -0.1035  0.9329  0.5447
 6223TIP3    H140228   3.983   5.739   1.229 -2.6010  1.9270 -0.3048
 6223TIP3    H240229   4.050   5.750   1.365 -0.5890 -2.8591 -0.6895
 6224TIP3   OH240230   5.379   6.719   2.657  0.0590  0.6419 -0.0505
 6224TIP3    H140231   5.376   6.669   2.739  0.3690  2.1834  0.9520
 6224TIP3    H240232   5.396   6.809   2.685  1.5171  1.0116 -1.9027
 6225TIP3   OH240233   4.053   4.732   1.499 -0.3460  0.6839  0.0621
 6225TIP3    H140234   4.027   4.786   1.424 -0.5447  1.3686  0.6135
 6225TIP3    H240235   3.979   4.673   1.513 -0.1694  0.3263 -0.4808
 6226TIP3   OH240236   3.850   6.016   1.419  0.2080  0.3868 -0.0435
 6226TIP3    H140237   3.881   5.936   1.375 -0.0415  0.7332 -0.8701
 6226TIP3    H240238   3.762   6.030   1.384 -0.2430  0.3381  1.0391
 6227TIP3   OH240239   0.840   5.523   0.657 -0.0992 -1.0428  0.0605
 6227TIP3    H140240   0.779   5.465   0.702  0.8016 -1.1372  1.2048
 6227TIP3    H240241   0.880   5.575   0.726 -0.0165  0.1196 -0.8242
 6228TIP3   OH240242   5.400   4.006   0.534 -0.6025  0.4827  0.2445
 6228TIP3    H140243   5.490   3.997   0.503  0.0679  2.8304  1.2498
 6228TIP3    H240244   5.348   3.953   0.474  1.4917 -1.4252  0.0108
 6229TIP3   OH240245   0.029   2.820   0.289  0.3277 -0.5109  0.2635
 6229TIP3    H140246  -0.013   2.743   0.327 -1.1175  0.4787  0.7690
 6229TIP3    H240247  -0.011   2.894   0.335  0.4053  0.6137 -1.4013
 6230TIP3   OH240248   4.473   6.646   2.892  0.1861 -0.4770  0.1042
 6230TIP3    H140249   4.466   6.554   2.868  0.5962 -0.1605 -1.3336
 6230TIP3    H240250   4.469   6.646   2.988 -1.1757 -1.8429  0.0819
 6231TIP3   OH240251   6.771   4.394   3.313 -0.4850  0.0896 -1.1961
 6231TIP3    H140252   6.864   4.401   3.335 -0.1057 -1.2437 -2.3005
 6231TIP3    H240253   6.746   4.307   3.342 -0.8895 -0.3026 -2.6834
 6232TIP3   OH240254   5.596   5.924   1.139 -0.4286  0.0979  0.1475
 6232TIP3    H140255   5.610   5.830   1.130 -0.3918  0.1393 -0.2956
 6232TIP3    H240256   5.605   5.958   1.049 -0.2794  0.5432  0.3271
 6233TIP3   OH240257   0.087   0.402   3.576 -0.0108 -0.1706  0.7074
 6233TIP3    H140258   0.148   0.453   3.630  0.0633 -0.1632  0.6171
 6233TIP3    H240259   0.002   0.443   3.592  0.4304  1.8689 -1.5561
 6234TIP3   OH240260   2.596   1.011   3.927  0.5346 -0.0900  0.4699
 6234TIP3    H140261   2.552   0.953   3.989  2.5111 -0.5816  1.4816
 6234TIP3    H240262   2.614   0.954   3.852  0.8588 -0.3073  0.7109
 6235TIP3   OH240263   2.141   0.117   2.042 -0.2471  0.0270  0.0394
 6235TIP3    H140264   2.137   0.163   2.126  0.4945  0.3271 -0.0880
 6235TIP3    H240265   2.069   0.155   1.991 -0.2871  0.3116  0.3024
 6236TIP3   OH240266   0.294   1.428   4.368  0.1446  0.1510 -0.2552
 6236TIP3    H140267   0.244   1.349   4.385 -0.7022  0.6918 -0.1846
 6236TIP3    H240268   0.303   1.431   4.273 -1.5309  0.9834 -0.4128
 6237TIP3   OH240269   2.005   3.677   0.113 -0.3909 -0.1230 -0.3357
 6237TIP3    H140270   1.957   3.755   0.087  0.6641  1.3713  1.9020
 6237TIP3    H240271   1.965   3.606   0.062 -2.3446  1.6247 -1.3799
 6238TIP3   OH240272   6.602   6.223   1.556  0.3352  0.2732 -0.6801
 6238TIP3    H140273   6.547   6.300   1.543 -0.8976 -0.4484 -0.0362
 6238TIP3    H240274   6.670   6.252   1.616 -1.2621  0.4094  1.1787
 6239TIP3   OH240275   1.409   6.420   2.555 -0.0267  0.3377 -0.1528
 6239TIP3    H140276   1.438   6.491   2.611 -3.4571 -0.1956  2.6035
 6239TIP3    H240277   1.457   6.343   2.587 -2.0238  0.0136  2.3340
 6240TIP3   OH240278   1.178   1.716   3.269  0.3162  0.0161 -0.3563
 6240TIP3    H140279   1.246   1.759   3.320  0.6492  1.7918 -2.1687
 6240TIP3    H240280   1.097   1.762   3.294 -0.1563 -1.5158  1.1513
 6241TIP3   OH240281   4.716   1.542   1.642 -0.5252 -0.0702 -0.3811
 6241TIP3    H140282   4.716   1.464   1.697  2.5129 -0.9536 -1.3883
 6241TIP3    H240283   4.706   1.508   1.553 -0.8486  0.8548 -0.7075
 6242TIP3   OH240284   5.213   5.894   1.525  0.0372  0.0066 -0.6011
 6242TIP3    H140285   5.218   5.955   1.451 -0.7652 -1.3160 -1.8087
 6242TIP3    H240286   5.304   5.872   1.543  0.4545  2.4677  0.7183
 6243TIP3   OH240287   4.213   4.052   2.632 -0.3961  0.1756  0.2168
 6243TIP3    H140288   4.253   3.969   2.608  0.5053  0.5565  0.3585
 6243TIP3    H240289   4.200   4.097   2.549 -0.2895  0.1577  0.1904
 6244TIP3   OH240290   1.627   4.140   2.307 -0.5831  0.1590 -0.1267
 6244TIP3    H140291   1.578   4.216   2.337 -0.3531  0.2496  0.0270
 6244TIP3    H240292   1.698   4.130   2.371  0.7412  1.1872 -1.3514
 6245TIP3   OH240293   6.509   4.394   4.507  0.5046 -0.0444  0.5666
 6245TIP3    H140294   6.525   4.488   4.506  0.5105 -0.0476 -0.0182
 6245TIP3    H240295   6.414   4.385   4.514  0.4111  0.0204 -0.5176
 6246TIP3   OH240296   6.508   6.189   2.613 -0.3519 -0.2555 -0.6138
 6246TIP3    H140297   6.504   6.172   2.519 -2.3922  1.5191 -0.9214
 6246TIP3    H240298   6.591   6.149   2.640 -0.6671 -2.6533 -2.7303
 6247TIP3   OH240299   4.702   0.637   3.303  0.3193  0.0069  0.2079
 6247TIP3    H140300   4.624   0.690   3.284 -0.5038 -0.9004  0.9167
 6247TIP3    H240301   4.685   0.553   3.260  1.0526 -0.1092  0.1279
 6248TIP3   OH240302   2.900   1.990   1.833  0.0038  0.3172  0.4783
 6248TIP3    H140303   2.992   2.009   1.816  0.2737  0.4463  1.9508
 6248TIP3    H240304   2.852   2.046   1.771  0.8895  1.9241  1.1790
 6249TIP3   OH240305   6.894   3.258   2.330 -0.2212 -0.3445  0.1585
 6249TIP3    H140306   6.972   3.204   2.319 -0.4552 -0.4141 -1.3233
 6249TIP3    H240307   6.822   3.196   2.341 -0.7476 -0.5119 -3.1569
 6250TIP3   OH240308   4.668   6.833   4.651  0.5288  0.4245  0.5911
 6250TIP3    H140309   4.737   6.871   4.597  1.2871  0.2144  1.3887
 6250TIP3    H240310   4.675   6.739   4.635 -0.1023  0.4591  0.0697
 6251TIP3   OH240311   6.296   0.033   4.037 -0.0523 -0.3756  0.2115
 6251TIP3    H140312   6.348   0.111   4.057  0.1235 -0.8909  1.9582
 6251TIP3    H240313   6.348  -0.040   4.070  0.4343 -1.4262 -2.6499
 6252TIP3   OH240314   5.007   6.493   2.459  0.8725 -0.3623 -0.3634
 6252TIP3    H140315   5.012   6.481   2.554  2.1646  0.4995 -0.2920
 6252TIP3    H240316   5.093   6.529   2.435  1.2281 -2.1938 -2.1266
 6253TIP3   OH240317   5.094   0.141   0.608  0.3252 -0.1009 -0.1888
 6253TIP3    H140318   5.088   0.052   0.572  0.5972 -0.5613  0.8666
 6253TIP3    H240319   5.177   0.175   0.574  0.1654 -0.1932 -0.6908
 6254TIP3   OH240320   3.271   0.884   3.980 -0.0451  0.3833  0.1310
 6254TIP3    H140321   3.347   0.941   3.971 -0.7045  1.4044  0.7880
 6254TIP3    H240322   3.223   0.919   4.055 -0.1696 -1.4184  0.9620
 6255TIP3   OH240323   5.247   5.840   0.604 -0.5826  0.0580  0.5798
 6255TIP3    H140324   5.159   5.835   0.567 -1.1876  3.2353  1.2905
 6255TIP3    H240325   5.232   5.847   0.699  0.6921 -2.6821  1.0911
 6256TIP3   OH240326   1.678   2.927   1.422 -0.4742  0.3009 -0.3795
 6256TIP3    H140327   1.772   2.914   1.429 -0.5042  0.2600 -0.0098
 6256TIP3    H240328   1.667   3.022   1.422 -0.5077  0.3197  0.8576
 6257TIP3   OH240329   4.047   3.392   1.195  0.2726  0.6147 -0.1373
 6257TIP3    H140330   4.022   3.303   1.170 -0.4245  1.0424 -0.9687
 6257TIP3    H240331   4.143   3.389   1.199  0.2312 -0.3718  0.6376
 6258TIP3   OH240332   2.039   0.878   3.650  0.1773 -0.1976 -0.7109
 6258TIP3    H140333   1.999   0.960   3.677  1.5251  0.2525  0.0142
 6258TIP3    H240334   1.977   0.810   3.677 -0.3377  0.4993 -0.1192
 6259TIP3   OH240335   2.859   2.507   1.232 -0.0314  0.0343 -0.0647
 6259TIP3    H140336   2.872   2.515   1.327 -2.0556  2.1601  0.1107
 6259TIP3    H240337   2.924   2.565   1.194  0.8655 -0.9142 -0.0313
 6260TIP3   OH240338   4.639   0.114   2.594  0.0351  0.4941  0.7659
 6260TIP3    H140339   4.544   0.109   2.605  0.0195  1.9828  1.7449
 6260TIP3    H240340   4.675   0.065   2.668  0.1324 -2.7376 -1.2467
 6261TIP3   OH240341   4.737   4.137   3.122 -0.2176 -0.0462  0.2586
 6261TIP3    H140342   4.777   4.217   3.156 -1.2227  0.6901 -0.2107
 6261TIP3    H240343   4.661   4.168   3.072 -0.0165 -1.2281 -0.8451
 6262TIP3   OH240344   6.378   5.876   2.976  0.3713  0.0930  0.2896
 6262TIP3    H140345   6.453   5.834   3.017 -0.8762 -1.8446  0.7343
 6262TIP3    H240346   6.345   5.936   3.043 -0.8196 -2.0274  1.7185
 6263TIP3   OH240347   1.963   0.942   3.972  0.0836  0.3631  0.2537
 6263TIP3    H140348   1.961   1.035   3.952 -1.2848  0.1895 -0.5873
 6263TIP3    H240349   1.998   0.901   3.893 -0.5028  0.0725  0.1405
 6264TIP3   OH240350   1.017   4.566   4.048 -0.4015  0.0873 -0.3426
 6264TIP3    H140351   1.098   4.594   4.091  0.3009 -1.1690 -0.7850
 6264TIP3    H240352   1.044   4.541   3.960 -1.5827  1.2414 -1.0554
 6265TIP3   OH240353   1.771   2.744   4.838  0.6467  0.5605 -0.5966
 6265TIP3    H140354   1.689   2.725   4.793 -0.4748  1.3231  1.0410
 6265TIP3    H240355   1.838   2.700   4.785 -0.9678 -1.4727 -1.0817
 6266TIP3   OH240356   2.999   0.040   3.565 -0.2332 -0.3295 -0.0428
 6266TIP3    H140357   3.014   0.134   3.576  0.5704 -0.4932  0.3511
 6266TIP3    H240358   3.032   0.001   3.646  0.5715 -1.0631 -0.7077
 6267TIP3   OH240359   0.232   4.250   0.049 -0.1137  0.3426  0.2129
 6267TIP3    H140360   0.304   4.302   0.083 -0.0868 -0.4433  1.4071
 6267TIP3    H240361   0.236   4.168   0.097  0.2367 -1.0662 -2.0552
 6268TIP3   OH240362   0.684   2.919   1.835  0.1606 -0.3271 -0.4587
 6268TIP3    H140363   0.637   2.979   1.892  2.2876  1.7229 -0.6941
 6268TIP3    H240364   0.659   2.945   1.746 -1.6380 -2.2245 -0.5749
 6269TIP3   OH240365   2.694   5.120   3.037 -0.0785  0.0722  0.0981
 6269TIP3    H140366   2.711   5.112   2.944  1.1339 -0.9240  0.3821
 6269TIP3    H240367   2.736   5.202   3.063 -1.1091  0.7685 -0.3509
 6270TIP3   OH240368   1.669   3.475   3.546 -0.2553 -0.2302 -0.0168
 6270TIP3    H140369   1.601   3.409   3.539  0.9770 -1.7107  1.3090
 6270TIP3    H240370   1.745   3.436   3.502  0.2909  0.5997  0.1625
 6271TIP3   OH240371   3.501   4.303   4.239 -0.3841 -0.2899 -0.0123
 6271TIP3    H140372   3.447   4.243   4.290  1.1623 -0.8645  1.0019
 6271TIP3    H240373   3.506   4.382   4.292  0.4486 -0.5444  0.2964
 6272TIP3   OH240374   3.587   2.162   0.372  0.1742 -0.0080  0.1137
 6272TIP3    H140375   3.581   2.249   0.411 -0.9583 -0.5203  1.1729
 6272TIP3    H240376   3.511   2.157   0.314 -0.6374 -0.7903  1.1932
 6273TIP3   OH240377   6.469   4.258   0.490 -0.4893 -0.0638  0.4241
 6273TIP3    H140378   6.564   4.264   0.505 -0.7107  1.8461  1.3520
 6273TIP3    H240379   6.460   4.260   0.395  0.3409  1.3774  0.3492
 6274TIP3   OH240380   1.107   2.612   4.735 -0.3731  0.2347  0.0176
 6274TIP3    H140381   1.102   2.662   4.817  1.2284 -2.5206  1.9659
 6274TIP3    H240382   1.186   2.643   4.692 -0.5652  0.8512  0.1056
 6275TIP3   OH240383   6.618   2.185   3.419  0.2378  0.2846 -0.5984
 6275TIP3    H140384   6.576   2.145   3.495  1.8488  0.6462  0.5323
 6275TIP3    H240385   6.655   2.267   3.452  0.7244  0.5936 -1.8467
 6276TIP3   OH240386   0.277   2.261   2.247  0.2084 -0.4190  0.2560
 6276TIP3    H140387   0.252   2.299   2.163 -1.8896 -0.9510  0.5973
 6276TIP3    H240388   0.303   2.337   2.300  0.2721  0.0625 -0.4474
 6277TIP3   OH240389   0.298   3.902   3.238  0.0085  0.4060  0.0678
 6277TIP3    H140390   0.285   3.984   3.190  0.0337  1.7611  2.1941
 6277TIP3    H240391   0.327   3.931   3.325 -1.9693 -1.7399  1.5694
 6278TIP3   OH240392   6.309   0.955   0.723  0.4353  0.4643 -0.0047
 6278TIP3    H140393   6.383   0.978   0.667 -0.2944  0.3934 -1.0409
 6278TIP3    H240394   6.271   0.877   0.681 -0.6929  0.9674  0.0382
 6279TIP3   OH240395   1.273   2.181   3.237 -0.0438  0.4506  0.2534
 6279TIP3    H140396   1.350   2.227   3.272  0.8767 -1.1237  0.4092
 6279TIP3    H240397   1.307   2.130   3.164 -1.2215  0.7407 -0.5139
 6280TIP3   OH240398   4.161   5.340   2.301 -0.2994  0.3385  0.6107
 6280TIP3    H140399   4.134   5.296   2.221  0.6193 -0.4297  0.7063
 6280TIP3    H240400   4.120   5.290   2.371 -1.1548  1.0476  0.6416
 6281TIP3   OH240401   2.315   6.316   1.537  0.8493  0.3872  0.1451
 6281TIP3    H140402   2.321   6.398   1.488 -0.1579  0.5760  0.3096
 6281TIP3    H240403   2.223   6.312   1.564  1.1574 -0.2320  1.1209
 6282TIP3   OH240404   5.639   3.206   4.154 -0.1233  0.7282  0.2125
 6282TIP3    H140405   5.551   3.214   4.191 -0.4336 -1.5211  0.0588
 6282TIP3    H240406   5.661   3.114   4.163  2.0188  1.1387 -0.2793
 6283TIP3   OH240407   5.653   3.011   3.244  1.2375 -0.3982  0.4067
 6283TIP3    H140408   5.644   2.998   3.339 -0.1451 -1.5101  0.1449
 6283TIP3    H240409   5.688   3.100   3.236  1.4275 -0.2958  1.9508
 6284TIP3   OH240410   3.941   0.973   3.797  0.4764  0.6743 -0.3213
 6284TIP3    H140411   3.916   1.008   3.883 -0.5010 -0.0552 -0.2876
 6284TIP3    H240412   4.011   1.031   3.767  1.0216  0.7930  1.0839
 6285TIP3   OH240413   1.532   5.215   3.181  0.2009  0.0348  0.5989
 6285TIP3    H140414   1.610   5.180   3.224 -0.1447 -0.2564  1.0008
 6285TIP3    H240415   1.460   5.162   3.214 -0.2179  0.5322  0.5123
 6286TIP3   OH240416   6.082   0.843   0.222  0.5018 -0.2358 -0.7199
 6286TIP3    H140417   6.106   0.916   0.165  1.3733  1.0229  1.1278
 6286TIP3    H240418   6.011   0.877   0.277  2.1419 -0.0318  1.4247
 6287TIP3   OH240419   2.647   0.263   4.410  0.4679  0.6656 -0.1425
 6287TIP3    H140420   2.653   0.172   4.438 -2.8722  0.4151  0.1880
 6287TIP3    H240421   2.711   0.271   4.340  1.5188 -1.6492  0.4555
 6288TIP3   OH240422   1.714   5.422   2.601 -0.3330 -0.7417 -0.1852
 6288TIP3    H140423   1.726   5.452   2.691  0.4144 -3.8758  0.8972
 6288TIP3    H240424   1.648   5.480   2.565  1.4274  2.4933  1.3532
 6289TIP3   OH240425   3.878   0.148   1.752 -1.0436 -0.2174  0.8347
 6289TIP3    H140426   3.885   0.091   1.829 -2.6232 -0.1323  1.0692
 6289TIP3    H240427   3.904   0.092   1.679 -0.1501 -0.4899  1.3389
 6290TIP3   OH240428   6.837   6.143   1.368  0.1395 -0.6990 -0.0741
 6290TIP3    H140429   6.787   6.205   1.420  0.4911  1.6909 -2.4081
 6290TIP3    H240430   6.904   6.111   1.428  0.5273  1.9069  1.0227
 6291TIP3   OH240431   3.004   6.609   0.459 -0.0423 -0.0375  0.2461
 6291TIP3    H140432   3.041   6.538   0.408  1.1429  0.3907  0.4925
 6291TIP3    H240433   3.059   6.685   0.440 -0.4732  0.4901  1.0238
 6292TIP3   OH240434   4.001   2.710   2.573  0.0584  0.4153  0.1010
 6292TIP3    H140435   4.040   2.758   2.501 -2.0327  2.0322 -0.0446
 6292TIP3    H240436   4.040   2.748   2.652  1.0531 -0.1746 -0.0787
 6293TIP3   OH240437   4.678   2.873   2.750  0.2898  0.0138 -0.5829
 6293TIP3    H140438   4.616   2.841   2.816  1.0525 -0.9118 -0.2915
 6293TIP3    H240439   4.668   2.968   2.752 -0.9104 -0.1071 -0.3404
 6294TIP3   OH240440   1.991   2.834   3.969  0.2312  0.2484  0.0222
 6294TIP3    H140441   1.950   2.759   4.013  0.8715 -0.1261 -0.0002
 6294TIP3    H240442   1.995   2.902   4.035  0.0933  0.0946  0.1899
 6295TIP3   OH240443   3.289   2.421   1.110  0.0432  0.1857 -0.0386
 6295TIP3    H140444   3.291   2.336   1.067 -0.9683  0.5843 -0.9247
 6295TIP3    H240445   3.374   2.428   1.154  0.8786 -0.5043 -1.4744
 6296TIP3   OH240446   4.096   2.990   4.322 -0.1311 -0.0974 -0.1660
 6296TIP3    H140447   4.110   3.043   4.400  1.5749 -0.1383 -0.4213
 6296TIP3    H240448   4.151   3.031   4.255  0.2408 -1.4436 -0.7041
 6297TIP3   OH240449   0.008   0.256   0.009 -0.2578 -0.2941  0.4566
 6297TIP3    H140450  -0.003   0.167   0.043  1.2777 -1.0526 -0.8763
 6297TIP3    H240451   0.101   0.274   0.020 -0.2659  0.5465 -0.7039
 6298TIP3   OH240452   4.589   4.908   3.680  0.3734  0.9006  0.1161
 6298TIP3    H140453   4.501   4.898   3.646  0.2649 -1.6460  0.9306
 6298TIP3    H240454   4.581   4.892   3.774  1.9166 -1.2109 -0.0464
 6299TIP3   OH240455   2.063   0.490   1.286 -0.1701 -0.8626  0.0171
 6299TIP3    H140456   2.027   0.573   1.318 -0.2748 -0.9342  0.0850
 6299TIP3    H240457   2.009   0.469   1.210  1.5324  0.4986 -1.6743
 6300TIP3   OH240458   1.407   1.315   4.030 -0.4536  0.7959 -0.3281
 6300TIP3    H140459   1.322   1.276   4.048 -0.1477  0.5947  0.7595
 6300TIP3    H240460   1.462   1.242   4.000 -0.4085  0.7453 -0.1251
 6301TIP3   OH240461   2.050   3.004   2.939 -0.1141 -0.1808  0.1558
 6301TIP3    H140462   2.062   3.009   3.034 -0.1799 -0.3755  0.1747
 6301TIP3    H240463   2.120   2.945   2.910  0.7235  0.8992 -0.0740
 6302TIP3   OH240464   3.244   4.412   0.494 -0.2172 -0.4977  0.5056
 6302TIP3    H140465   3.292   4.347   0.546  0.1861  0.0783  0.8661
 6302TIP3    H240466   3.199   4.360   0.427  0.6229 -1.0900  0.3761
 6303TIP3   OH240467   2.610   1.828   3.606 -0.7467  0.5723 -0.5440
 6303TIP3    H140468   2.674   1.835   3.535 -0.1258  1.2125  0.0616
 6303TIP3    H240469   2.533   1.787   3.566  0.3148 -0.9245 -1.1091
 6304TIP3   OH240470   1.372   5.883   3.539 -0.0481 -0.4889  0.5803
 6304TIP3    H140471   1.277   5.895   3.545 -0.0318 -0.0140 -0.0088
 6304TIP3    H240472   1.382   5.791   3.516 -0.4265 -0.2888 -0.4544
 6305TIP3   OH240473   0.572   2.123   0.296 -0.0517  0.8198 -0.6485
 6305TIP3    H140474   0.619   2.057   0.346 -2.5925 -0.0275  0.8029
 6305TIP3    H240475   0.628   2.201   0.302  1.7096 -0.4119 -0.0715
 6306TIP3   OH240476   5.311   1.726   0.846 -0.0390  0.2342  0.0831
 6306TIP3    H140477   5.350   1.652   0.799 -0.0695  0.2019  0.1083
 6306TIP3    H240478   5.370   1.742   0.919 -0.7617 -0.6793  0.8984
 6307TIP3   OH240479   0.520   5.523   4.831  0.4561 -0.7055 -0.0654
 6307TIP3    H140480   0.537   5.616   4.815  1.2530 -0.6224  1.1302
 6307TIP3    H240481   0.445   5.521   4.890  2.4075 -0.6066  2.6186
 6308TIP3   OH240482   1.097   1.968   0.833 -0.1947  0.1327 -0.0903
 6308TIP3    H140483   1.002   1.964   0.825 -0.2248  0.2283  0.2274
 6308TIP3    H240484   1.115   2.055   0.869  0.1766  1.2536 -2.7353
 6309TIP3   OH240485   4.589   2.473   2.110 -0.4720  0.2630  0.0582
 6309TIP3    H140486   4.505   2.483   2.065 -0.7719 -2.6413 -0.1997
 6309TIP3    H240487   4.654   2.484   2.040 -0.4409  3.6027  0.4355
 6310TIP3   OH240488   5.375   2.241   1.016  0.5962  0.1152  0.4011
 6310TIP3    H140489   5.400   2.308   0.952  1.1095  0.2557  0.7476
 6310TIP3    H240490   5.351   2.165   0.963 -1.0868  0.9042 -0.0589
 6311TIP3   OH240491   1.943   5.577   1.655  0.0668 -0.0867 -0.1316
 6311TIP3    H140492   2.029   5.536   1.645  0.2845  0.2458  0.3230
 6311TIP3    H240493   1.882   5.504   1.664  0.2199 -0.3405 -1.0125
 6312TIP3   OH240494   6.930   5.176   4.111 -0.3748 -0.6420  0.0036
 6312TIP3    H140495   6.892   5.177   4.023  1.2550  0.4941 -0.7232
 6312TIP3    H240496   6.961   5.086   4.122  0.4941 -0.5003 -1.0877
 6313TIP3   OH240497   4.652   6.559   4.603  0.0962  0.1907 -0.2679
 6313TIP3    H140498   4.690   6.524   4.683 -1.9333 -0.4133  0.5080
 6313TIP3    H240499   4.645   6.483   4.545  0.2191  0.3275 -0.4620
 6314TIP3   OH240500   1.925   1.806   3.988  0.3093 -0.1177 -0.0463
 6314TIP3    H140501   1.843   1.800   4.037  0.0107  1.7695 -0.2421
 6314TIP3    H240502   1.990   1.830   4.055  0.5287 -0.6649 -0.0575
 6315TIP3   OH240503   1.755   1.037   0.264  0.8694 -0.3492  0.3628
 6315TIP3    H140504   1.744   1.126   0.230 -1.5966 -0.7389 -0.0088
 6315TIP3    H240505   1.818   1.048   0.336  0.7857  1.6622  0.2081
 6316TIP3   OH240506   4.715   4.206   3.525 -0.0726 -1.0656 -0.5109
 6316TIP3    H140507   4.751   4.268   3.462 -0.0292  1.0091  1.4468
 6316TIP3    H240508   4.643   4.163   3.478  0.5251 -0.2632 -2.2360
 6317TIP3   OH240509   6.628   6.651   1.135  0.9178  0.0227  0.4204
 6317TIP3    H140510   6.614   6.693   1.051  0.8771  0.5996  0.7134
 6317TIP3    H240511   6.653   6.722   1.194  2.1734 -0.5462  0.6115
 6318TIP3   OH240512   0.031   6.263   2.562  0.2750 -0.0810 -0.6303
 6318TIP3    H140513   0.056   6.350   2.530  1.8501  0.1284  0.9944
 6318TIP3    H240514   0.023   6.210   2.483  0.4923  1.2458 -1.5731
 6319TIP3   OH240515   4.145   2.050   1.132  0.1093  0.7206  0.7531
 6319TIP3    H140516   4.189   2.048   1.047  2.1191  0.4472  1.7479
 6319TIP3    H240517   4.145   1.959   1.161  0.2510  0.9269  1.4297
 6320TIP3   OH240518   4.442   6.794   0.541 -0.0153 -0.2675  0.0998
 6320TIP3    H140519   4.372   6.729   0.540  0.0497 -0.3384 -1.4026
 6320TIP3    H240520   4.412   6.863   0.482  0.2737  0.7121  1.0581
 6321TIP3   OH240521   5.689   3.934   3.251  0.0260 -0.4603 -0.4020
 6321TIP3    H140522   5.603   3.924   3.292  0.9967  0.7593  2.1600
 6321TIP3    H240523   5.673   3.985   3.172 -1.4679  0.9479  0.7510
 6322TIP3   OH240524   6.687   6.685   1.465  0.3535  0.3397  0.2954
 6322TIP3    H140525   6.726   6.707   1.380 -0.1413  0.0535 -0.0086
 6322TIP3    H240526   6.762   6.676   1.524  0.7050  0.4623 -0.1272
 6323TIP3   OH240527   0.770   5.959   3.510  0.5232 -0.3509 -0.3435
 6323TIP3    H140528   0.676   5.970   3.493  0.3789 -1.8768 -0.6301
 6323TIP3    H240529   0.775   5.886   3.572  1.5832 -0.9805 -1.1508
 6324TIP3   OH240530   2.466   0.896   0.375  0.0627 -0.2691  0.5032
 6324TIP3    H140531   2.423   0.927   0.296 -1.4867 -1.6967  0.7370
 6324TIP3    H240532   2.478   0.803   0.361  2.2981 -0.0771  0.8512
 6325TIP3   OH240533   3.445   4.281   1.647 -0.6820  0.1968 -0.1231
 6325TIP3    H140534   3.384   4.220   1.689 -0.9956  0.3838 -0.3090
 6325TIP3    H240535   3.472   4.236   1.567 -1.6756  0.7187 -0.7615
 6326TIP3   OH240536   4.734   6.607   3.519  0.0157 -0.4447 -0.3473
 6326TIP3    H140537   4.798   6.557   3.569 -0.0936 -0.0701  0.1717
 6326TIP3    H240538   4.652   6.559   3.528  0.4059 -1.4547 -1.8068
 6327TIP3   OH240539   0.486   0.807   1.532 -0.2518  0.2385  0.1273
 6327TIP3    H140540   0.457   0.853   1.610  1.3991  0.0317  0.9138
 6327TIP3    H240541   0.427   0.732   1.525  0.0194 -0.1487  1.6208
 6328TIP3   OH240542   1.135   2.477   3.877  0.0819  0.1768 -0.3901
 6328TIP3    H140543   1.069   2.520   3.932 -0.1611 -0.1160 -0.4511
 6328TIP3    H240544   1.086   2.410   3.830  0.9690 -2.4022  2.0793
 6329TIP3   OH240545   0.636   2.690   4.619 -0.4116  0.0656 -0.3763
 6329TIP3    H140546   0.656   2.619   4.558  3.3833  1.8855 -1.5439
 6329TIP3    H240547   0.559   2.733   4.580 -1.4623 -2.0585 -0.7804
 6330TIP3   OH240548   2.873   6.684   8.001 -0.4100  0.0843 -0.3707
 6330TIP3    H140549   2.837   6.611   7.950  0.5122 -1.3490  0.9665
 6330TIP3    H240550   2.796   6.736   8.025 -1.2877 -1.3280 -0.0070
 6331TIP3   OH240551   2.072   5.972   1.242 -0.3509 -0.3446  0.0426
 6331TIP3    H140552   2.098   5.899   1.186 -1.7419 -0.5404 -0.3719
 6331TIP3    H240553   1.982   5.993   1.216  0.0105  1.5398  0.1304
 6332TIP3   OH240554   0.974   2.183   0.356  0.0259  0.1983 -0.3002
 6332TIP3    H140555   0.964   2.151   0.266 -0.3127  1.3483 -0.6855
 6332TIP3    H240556   0.903   2.246   0.367 -1.0771 -1.2338  1.4049
 6333TIP3   OH240557   1.431   2.884   0.317 -0.2515  0.0961 -0.6075
 6333TIP3    H140558   1.448   2.800   0.361  0.6434  0.3864 -0.3727
 6333TIP3    H240559   1.336   2.890   0.312 -0.3368 -1.5790 -1.8537
 6334TIP3   OH240560   0.267   0.929   0.799 -0.1370 -0.2728  0.1176
 6334TIP3    H140561   0.326   0.873   0.747  0.1571  0.9863 -0.9782
 6334TIP3    H240562   0.260   0.885   0.883  0.1528 -1.8981 -0.6691
 6335TIP3   OH240563   2.142   5.059   3.672 -0.2162  0.6809  0.3132
 6335TIP3    H140564   2.158   5.026   3.761 -4.0036  0.2376  0.9799
 6335TIP3    H240565   2.128   5.153   3.683  0.2170  0.7833  0.0206
 6336TIP3   OH240566   0.425   2.667   1.074 -0.3284  0.7492 -0.2721
 6336TIP3    H140567   0.494   2.732   1.090 -1.2381  1.5347  0.6042
 6336TIP3    H240568   0.388   2.691   0.989 -0.7689  1.5058  0.1177
 6337TIP3   OH240569   2.772   5.794   3.589 -0.3732 -0.0220 -0.5565
 6337TIP3    H140570   2.679   5.789   3.613  0.2639 -0.4438  2.1794
 6337TIP3    H240571   2.804   5.872   3.635  0.9518 -0.7885 -0.1168
 6338TIP3   OH240572   1.288   0.728   0.749 -0.4246 -0.0803  0.4367
 6338TIP3    H140573   1.201   0.688   0.748 -0.2497 -0.4750  0.9114
 6338TIP3    H240574   1.316   0.723   0.841 -0.3981  1.1164  0.5157
 6339TIP3   OH240575   4.511   1.478   3.829 -0.1672  0.3532 -0.2487
 6339TIP3    H140576   4.593   1.442   3.864 -0.0404 -0.7589 -1.6129
 6339TIP3    H240577   4.443   1.426   3.871 -0.0036 -1.1923 -1.7863
 6340TIP3   OH240578   6.052   5.361   3.340 -0.0382 -0.2315  0.3148
 6340TIP3    H140579   6.120   5.395   3.398 -1.2947  1.9946  0.5874
 6340TIP3    H240580   5.980   5.338   3.398 -1.0166  1.2842 -0.2530
 6341TIP3   OH240581   0.564   6.840   4.520 -0.4512 -0.3696  0.8624
 6341TIP3    H140582   0.622   6.791   4.462 -0.8799 -0.7318  0.7364
 6341TIP3    H240583   0.489   6.783   4.534 -1.9680  1.0124 -0.9811
 6342TIP3   OH240584   1.856   1.713   1.563  0.5169 -0.3470  0.4150
 6342TIP3    H140585   1.940   1.730   1.520  0.6969  0.0581  0.9138
 6342TIP3    H240586   1.852   1.618   1.571  1.1955 -0.3354  0.9126
 6343TIP3   OH240587   0.507   6.487   1.774 -0.0851 -0.2438  0.3995
 6343TIP3    H140588   0.584   6.499   1.829  0.5074  1.1643 -0.6659
 6343TIP3    H240589   0.442   6.448   1.832  0.8958  0.0604  1.7585
 6344TIP3   OH240590   2.316   3.177   2.375  0.0031 -0.1057 -0.1785
 6344TIP3    H140591   2.373   3.253   2.389  1.9791 -1.7843  1.4450
 6344TIP3    H240592   2.245   3.189   2.438  0.4733  0.2283  0.2969
 6345TIP3   OH240593   3.651   5.030   3.344  0.0961 -0.0925  0.0300
 6345TIP3    H140594   3.656   4.985   3.260 -0.0834 -0.2268  0.0916
 6345TIP3    H240595   3.659   5.123   3.321  0.1663 -0.1351 -0.1230
 6346TIP3   OH240596   4.198   6.215   1.478  0.0580  0.8112 -0.3756
 6346TIP3    H140597   4.185   6.142   1.416  1.0949  1.1860 -1.0607
 6346TIP3    H240598   4.228   6.173   1.558  1.6735  0.5196 -1.0862
 6347TIP3   OH240599   5.574   0.505   3.529  0.1714  0.0749  0.3593
 6347TIP3    H140600   5.579   0.508   3.625  1.4882 -0.5275  0.3407
 6347TIP3    H240601   5.502   0.445   3.510  1.0768 -1.2928  1.0246
 6348TIP3   OH240602   6.683   1.156   3.764  0.4521 -0.2272  0.0067
 6348TIP3    H140603   6.598   1.131   3.730  1.8899 -1.8172 -2.7156
 6348TIP3    H240604   6.685   1.252   3.757  0.0822 -0.3690 -3.1397
 6349TIP3   OH240605   3.543   4.300   1.099 -0.4753  0.0719  0.3846
 6349TIP3    H140606   3.513   4.334   1.014 -0.0818  0.1353  0.2676
 6349TIP3    H240607   3.471   4.244   1.129  0.6445 -2.6128 -1.5431
 6350TIP3   OH240608   0.887   1.580   1.027 -0.2267 -0.2855 -0.3103
 6350TIP3    H140609   0.864   1.609   1.115 -1.6057 -0.4180 -0.6171
 6350TIP3    H240610   0.926   1.493   1.041 -1.8405 -0.9961  0.0678
 6351TIP3   OH240611   6.672   4.882   1.262 -0.2087 -0.2770  0.0752
 6351TIP3    H140612   6.741   4.914   1.319 -2.0423  1.4648  1.4876
 6351TIP3    H240613   6.663   4.949   1.194 -0.5421 -0.4574 -0.0670
 6352TIP3   OH240614   2.929   0.318   1.372 -0.2940  0.0194  0.0606
 6352TIP3    H140615   2.855   0.379   1.362 -0.6288 -0.6321 -1.9721
 6352TIP3    H240616   2.894   0.233   1.346  0.9289 -0.4840 -0.0265
 6353TIP3   OH240617   5.559   3.554   3.393  0.2348 -0.2428 -0.2221
 6353TIP3    H140618   5.522   3.470   3.366 -0.0823  0.1971 -1.2255
 6353TIP3    H240619   5.508   3.619   3.344  0.8053  0.5018  0.1568
 6354TIP3   OH240620   2.921   2.920   0.752 -0.0141  0.2973 -0.2274
 6354TIP3    H140621   2.977   2.846   0.729  0.8063 -0.0608  2.6330
 6354TIP3    H240622   2.973   2.998   0.729  0.7905 -0.0309  0.4535
 6355TIP3   OH240623   4.356   0.152   1.882  0.8550 -0.1141 -0.2147
 6355TIP3    H140624   4.273   0.172   1.925  0.0679 -3.0883 -0.1519
 6355TIP3    H240625   4.357   0.210   1.806  0.3551  2.3285  1.4885
 6356TIP3   OH240626   2.394   3.697   0.885  0.5430 -0.4165 -0.3333
 6356TIP3    H140627   2.436   3.763   0.940 -0.3551 -1.2132  1.3849
 6356TIP3    H240628   2.456   3.623   0.886  0.7090 -0.2879 -0.7505
 6357TIP3   OH240629   1.583   5.433   0.299 -0.6206 -0.5478 -0.0132
 6357TIP3    H140630   1.566   5.345   0.264  0.0779 -0.3684 -0.8266
 6357TIP3    H240631   1.630   5.478   0.229 -0.7320  0.3940  0.5040
 6358TIP3   OH240632   4.188   2.482   0.721 -0.2368 -0.2168 -0.1338
 6358TIP3    H140633   4.151   2.488   0.633  0.3830  0.9952 -0.3233
 6358TIP3    H240634   4.134   2.416   0.765 -2.1775  0.9571 -0.6347
 6359TIP3   OH240635   3.755   3.017   1.020  0.1216 -0.4128  0.5036
 6359TIP3    H140636   3.730   3.009   0.928 -0.6381 -0.7448  0.7344
 6359TIP3    H240637   3.685   3.068   1.060  0.3088 -0.5007  0.9567
 6360TIP3   OH240638   3.026   4.257   0.735  0.3458  0.1005 -0.3173
 6360TIP3    H140639   3.049   4.253   0.642 -1.7176 -0.5018 -0.8562
 6360TIP3    H240640   3.033   4.166   0.765  0.0343  0.1292 -0.1550
 6361TIP3   OH240641   2.798   6.426   2.116 -0.0503  0.2929  0.5384
 6361TIP3    H140642   2.838   6.505   2.153  1.8428  0.0812 -0.8876
 6361TIP3    H240643   2.838   6.418   2.029  0.7655 -2.9020  1.0871
 6362TIP3   OH240644   4.545   6.801   1.228  0.4890 -0.6873 -0.9726
 6362TIP3    H140645   4.471   6.786   1.169 -0.0444  0.9535 -0.7815
 6362TIP3    H240646   4.616   6.748   1.191 -0.1293 -0.5091 -2.4950
 6363TIP3   OH240647   4.496   4.137   0.930 -0.1052 -0.1024 -0.2769
 6363TIP3    H140648   4.512   4.099   1.016 -0.7306 -0.0615 -0.1381
 6363TIP3    H240649   4.427   4.202   0.944  0.1690  0.2934 -0.7140
 6364TIP3   OH240650   0.571   3.217   2.276  0.1509 -0.5519 -0.3452
 6364TIP3    H140651   0.477   3.231   2.262  0.2517  0.2899 -0.2213
 6364TIP3    H240652   0.613   3.288   2.227  0.6705 -0.1905  0.6069
 6365TIP3   OH240653   0.989   5.157   0.922 -0.8495  0.1937 -0.2831
 6365TIP3    H140654   1.078   5.175   0.893  0.0268 -0.5286  1.7361
 6365TIP3    H240655   0.994   5.159   1.018 -2.9196 -0.2497 -0.1076
 6366TIP3   OH240656   2.893   0.705   2.055  0.0485  0.7600 -0.3824
 6366TIP3    H140657   2.858   0.621   2.085  1.1204 -0.7029 -2.8402
 6366TIP3    H240658   2.821   0.767   2.066 -1.7918 -1.1320 -1.0698
 6367TIP3   OH240659   3.827   4.643   1.034 -0.1982 -0.4934 -0.1608
 6367TIP3    H140660   3.796   4.596   0.957 -0.1501  0.3521 -0.7145
 6367TIP3    H240661   3.760   4.627   1.101 -0.9759 -0.0764 -0.8220
 6368TIP3   OH240662   6.900   4.911   4.197 -0.2328 -0.0480  0.4003
 6368TIP3    H140663   6.954   4.846   4.153  0.6747  1.1699 -0.3517
 6368TIP3    H240664   6.917   4.897   4.290  0.3572 -0.5455  0.2228
 6369TIP3   OH240665   5.268   3.693   1.578 -0.1736 -0.4428  0.3694
 6369TIP3    H140666   5.286   3.699   1.672 -0.0397 -0.4665  0.3454
 6369TIP3    H240667   5.254   3.600   1.562  0.3632 -0.5128  0.2651
 6370TIP3   OH240668   0.667   6.466   3.501  0.3118  0.2915 -0.1363
 6370TIP3    H140669   0.725   6.400   3.538 -0.8476 -1.0960 -0.6881
 6370TIP3    H240670   0.617   6.499   3.576  0.7530  0.3925  0.1126
 6371TIP3   OH240671   3.798   3.139   2.292  0.3327  0.1829 -0.4108
 6371TIP3    H140672   3.842   3.127   2.208  0.3570 -0.1752 -0.3492
 6371TIP3    H240673   3.726   3.075   2.292  0.4633  0.0307 -0.0717
 6372TIP3   OH240674   5.494   4.898   3.500 -0.5458 -0.4762  0.0710
 6372TIP3    H140675   5.541   4.979   3.520 -0.8214 -0.2650 -0.1188
 6372TIP3    H240676   5.488   4.852   3.584  2.0723 -1.6439 -0.3005
 6373TIP3   OH240677   1.727   0.540   1.319 -0.2388 -0.0378 -0.2724
 6373TIP3    H140678   1.709   0.494   1.401 -1.1360 -1.7438 -1.3581
 6373TIP3    H240679   1.818   0.570   1.327 -0.1660 -0.5689  1.1443
 6374TIP3   OH240680   0.014   2.381   2.446  0.3274  0.1631  0.7193
 6374TIP3    H140681   0.046   2.301   2.487 -0.0381 -0.4210 -0.1099
 6374TIP3    H240682   0.093   2.427   2.418  0.5091 -1.5494 -1.8432
 6375TIP3   OH240683   3.835   1.543   3.033 -0.2162 -0.0483  0.4260
 6375TIP3    H140684   3.916   1.492   3.040  0.1188  0.5776  1.1421
 6375TIP3    H240685   3.795   1.512   2.951  1.1911  0.2822 -0.4141
 6376TIP3   OH240686   1.922   6.254   3.069 -0.1897 -0.3849 -0.7538
 6376TIP3    H140687   1.924   6.190   3.140 -1.9526  2.0287  1.6465
 6376TIP3    H240688   1.953   6.335   3.108  1.4629  0.4861 -3.5508
 6377TIP3   OH240689   2.507   5.738   2.387  0.0580 -0.2574 -0.2236
 6377TIP3    H140690   2.427   5.790   2.380  0.5647  0.6413  0.4876
 6377TIP3    H240691   2.549   5.745   2.301 -0.5734 -0.6594 -0.5693
 6378TIP3   OH240692   2.106   5.762   2.408 -0.2904 -0.1724 -0.3727
 6378TIP3    H140693   2.027   5.760   2.463 -0.1341  0.1261 -0.1367
 6378TIP3    H240694   2.144   5.848   2.424  0.3660 -0.5099 -0.0854
 6379TIP3   OH240695   5.932   4.847   0.160  0.4427 -0.3566  0.2899
 6379TIP3    H140696   5.927   4.771   0.218 -0.3424 -0.8379 -0.3901
 6379TIP3    H240697   6.023   4.876   0.166  1.3800 -2.7443 -1.1774
 6380TIP3   OH240698   6.251   6.008   2.110 -0.2581 -0.1633 -0.6601
 6380TIP3    H140699   6.346   6.000   2.126 -0.1033  1.0711 -0.8700
 6380TIP3    H240700   6.220   6.064   2.181 -0.5827  0.5781 -1.3783
 6381TIP3   OH240701   0.844   1.256   0.890  0.2768 -0.6603 -0.2034
 6381TIP3    H140702   0.818   1.228   0.978 -1.6646 -0.5980 -0.7107
 6381TIP3    H240703   0.769   1.235   0.836  0.4711  1.5558 -1.4168
 6382TIP3   OH240704   1.295   4.958   0.946  0.3992  0.6670 -0.2914
 6382TIP3    H140705   1.380   4.915   0.937 -0.0749  0.0668 -2.6174
 6382TIP3    H240706   1.298   5.031   0.883 -0.5461  1.0895  0.1297
 6383TIP3   OH240707   4.901   1.549   1.099 -0.1393  0.8850 -0.1631
 6383TIP3    H140708   4.965   1.478   1.097 -0.4579  0.6073 -1.1760
 6383TIP3    H240709   4.832   1.518   1.157 -0.8445 -0.1734 -1.4945
 6384TIP3   OH240710   1.638   3.192   1.416 -0.0352 -0.0305 -0.0473
 6384TIP3    H140711   1.626   3.218   1.324 -0.5678 -2.4582 -0.7411
 6384TIP3    H240712   1.606   3.266   1.466 -2.1265  0.3872 -1.8403
 6385TIP3   OH240713   3.937   0.769   1.272  0.0769 -0.3408 -0.5513
 6385TIP3    H140714   3.918   0.682   1.237  2.2776 -1.1515  0.1326
 6385TIP3    H240715   4.012   0.757   1.329  0.6929  2.0788 -0.7124
 6386TIP3   OH240716   1.595   6.497   2.369  0.1421 -0.4920  0.6646
 6386TIP3    H140717   1.520   6.489   2.427  0.0384  0.2949  0.6613
 6386TIP3    H240718   1.562   6.470   2.283  0.4609 -2.2514  1.0541
 6387TIP3   OH240719   5.780   1.034   4.091  0.3757 -0.7895  0.3622
 6387TIP3    H140720   5.843   1.033   4.162  1.4043 -4.2743 -0.3746
 6387TIP3    H240721   5.733   0.951   4.100 -3.4228  1.1128  0.1904
 6388TIP3   OH240722   5.756   5.608   1.806  0.3267 -0.0628  0.0982
 6388TIP3    H140723   5.831   5.654   1.844  0.5849  0.0580 -0.5352
 6388TIP3    H240724   5.794   5.557   1.734 -0.4472  1.5685 -1.5403
 6389TIP3   OH240725   5.904   5.480   1.602 -0.5821  0.5972 -0.3920
 6389TIP3    H140726   5.916   5.412   1.535  1.0728 -0.2309  0.6701
 6389TIP3    H240727   5.897   5.561   1.552  0.4638 -0.0205 -1.6103
 6390TIP3   OH240728   2.766   0.449   0.231 -0.5682  0.4301  0.1517
 6390TIP3    H140729   2.712   0.483   0.160 -0.4903  0.5928  0.1706
 6390TIP3    H240730   2.704   0.432   0.302 -1.0467 -2.1624 -0.8046
 6391TIP3   OH240731   6.640   5.179   2.381 -0.3239 -0.1567 -0.0664
 6391TIP3    H140732   6.673   5.269   2.376  0.2915 -0.2503  1.5265
 6391TIP3    H240733   6.614   5.168   2.473  0.4729 -1.8801 -0.0028
 6392TIP3   OH240734   6.048   4.132   0.440  0.2716  0.3313 -0.4858
 6392TIP3    H140735   5.992   4.205   0.464 -1.6029 -1.0825 -0.2875
 6392TIP3    H240736   5.992   4.055   0.450  2.7247 -1.3749  1.2953
 6393TIP3   OH240737   3.573   0.239   3.033  0.0183 -0.1806 -0.4208
 6393TIP3    H140738   3.512   0.293   3.084  0.6847  1.0931 -0.9250
 6393TIP3    H240739   3.544   0.149   3.048 -0.1976  0.1888  1.6889
 6394TIP3   OH240740   0.029   2.199   4.234 -0.5291  0.2566  0.2142
 6394TIP3    H140741   0.111   2.213   4.186 -1.8118  2.5214 -1.5012
 6394TIP3    H240742  -0.024   2.145   4.175  0.2719 -2.8324  2.0909
 6395TIP3   OH240743   3.832   6.311   1.407  0.3637  0.0475  0.2730
 6395TIP3    H140744   3.854   6.220   1.386  0.0513  0.0489 -0.0735
 6395TIP3    H240745   3.870   6.326   1.493 -0.1165 -0.6080  0.6103
 6396TIP3   OH240746   1.273   3.616   1.639  0.5364 -0.3087  0.2596
 6396TIP3    H140747   1.211   3.627   1.567  1.3304 -0.1075 -0.4163
 6396TIP3    H240748   1.297   3.523   1.636  0.9617 -0.1935 -0.0818
 6397TIP3   OH240749   6.254   1.504   3.083  0.1211  0.0832 -0.0367
 6397TIP3    H140750   6.265   1.449   3.161  1.6012  0.2352 -0.1261
 6397TIP3    H240751   6.208   1.447   3.021  1.8760 -1.1949 -0.2420
 6398TIP3   OH240752   5.074   5.137   3.612 -0.6172  0.5821  0.0713
 6398TIP3    H140753   5.034   5.118   3.697 -0.8073  1.8929  0.2914
 6398TIP3    H240754   5.114   5.054   3.586 -3.2687 -0.7600 -0.0702
 6399TIP3   OH240755   6.142   1.914   2.349 -0.0496 -0.2114 -0.0354
 6399TIP3    H140756   6.162   1.990   2.403 -1.2241 -1.2431  1.9697
 6399TIP3    H240757   6.179   1.935   2.263 -0.2085  2.5271  0.4864
 6400TIP3   OH240758   0.285   0.160   2.120 -0.5953  0.6120 -0.3109
 6400TIP3    H140759   0.353   0.162   2.052  0.2352  0.2180  0.4912
 6400TIP3    H240760   0.219   0.223   2.090 -0.3604  0.2690 -1.6019
 6401TIP3   OH240761   0.923   0.110   3.845  0.0237 -0.3170 -0.3393
 6401TIP3    H140762   0.917   0.029   3.794  0.7407 -0.9040  0.4835
 6401TIP3    H240763   0.932   0.081   3.936  1.0074  0.6603 -0.1049
 6402TIP3   OH240764   0.767   0.409   1.308 -0.0017  0.6663 -0.8231
 6402TIP3    H140765   0.781   0.412   1.403  0.0288 -0.7561 -0.7602
 6402TIP3    H240766   0.794   0.495   1.277  0.6744  0.9140  0.3819
 6403TIP3   OH240767   3.458   5.738   1.549 -0.4069  0.6351 -0.4557
 6403TIP3    H140768   3.467   5.656   1.499 -1.1794 -0.1858  0.7079
 6403TIP3    H240769   3.364   5.755   1.550 -0.4051  0.6635  0.6382
 6404TIP3   OH240770   5.100   0.156   4.590 -0.1754 -0.0871  0.1870
 6404TIP3    H140771   5.149   0.078   4.617  0.0279  0.7242  2.3585
 6404TIP3    H240772   5.013   0.143   4.628 -0.8852 -0.3017 -1.4334
 6405TIP3   OH240773   6.796   0.405   3.270  0.4141  0.2502 -0.4670
 6405TIP3    H140774   6.758   0.372   3.189  0.4766  0.5749 -0.6343
 6405TIP3    H240775   6.809   0.499   3.253  2.1947 -0.0043 -0.7991
 6406TIP3   OH240776   2.804   4.127   4.696  0.2467  0.1566 -0.1361
 6406TIP3    H140777   2.713   4.153   4.682  0.1784  0.8382  1.3695
 6406TIP3    H240778   2.799   4.058   4.763  0.8133 -0.1420 -0.3911
 6407TIP3   OH240779   0.670   3.976   3.681 -0.2418 -0.0264 -0.0064
 6407TIP3    H140780   0.684   4.011   3.593 -0.3089  0.3436  0.1274
 6407TIP3    H240781   0.745   4.007   3.732 -0.4019  0.0939  0.1616
 6408TIP3   OH240782   0.659   5.021   2.951  0.3841  0.1214  0.1034
 6408TIP3    H140783   0.710   5.102   2.947 -0.9725  0.9724 -1.4187
 6408TIP3    H240784   0.688   4.971   2.874  0.3740 -0.3140  0.3787
 6409TIP3   OH240785   2.686   6.748   2.429  0.1991 -0.2036  0.0831
 6409TIP3    H140786   2.616   6.684   2.421 -0.3218 -0.1807  3.1703
 6409TIP3    H240787   2.725   6.752   2.341 -2.1042 -1.9480 -1.1437
 6410TIP3   OH240788   0.123   4.325   3.427 -0.2907 -0.3385 -0.4287
 6410TIP3    H140789   0.076   4.307   3.509  1.2109 -1.0914  0.2977
 6410TIP3    H240790   0.167   4.408   3.442 -2.7112  1.3156 -1.7629
 6411TIP3   OH240791   2.955   5.532   3.615  0.2163 -0.2044 -0.3482
 6411TIP3    H140792   2.896   5.605   3.633 -0.1496 -0.1952 -1.5234
 6411TIP3    H240793   3.002   5.519   3.698  0.8843  1.8676 -0.3355
 6412TIP3   OH240794   4.173   6.244   2.015  0.3254 -0.5381 -0.1592
 6412TIP3    H140795   4.236   6.186   2.057 -1.5244 -2.5627 -0.0448
 6412TIP3    H240796   4.131   6.190   1.948 -1.6435  0.5899  0.0907
 6413TIP3   OH240797   3.711   3.961   1.897  0.0848  0.6610 -0.5065
 6413TIP3    H140798   3.781   3.898   1.881  0.8717  1.4831 -0.3214
 6413TIP3    H240799   3.739   4.041   1.854 -1.4474  0.5832 -1.7242
 6414TIP3   OH240800   2.032   2.833   7.951 -0.2717  0.4952 -0.0960
 6414TIP3    H140801   2.001   2.849   8.040 -1.1379 -0.6491 -0.1690
 6414TIP3    H240802   2.043   2.738   7.947  1.3563  0.6875 -0.7061
 6415TIP3   OH240803   6.904   1.852   3.186  0.9742 -0.8273  0.5056
 6415TIP3    H140804   6.942   1.780   3.236  3.4964  1.3526  1.9770
 6415TIP3    H240805   6.847   1.897   3.248 -0.9085 -1.6778 -0.5214
 6416TIP3   OH240806   5.889   3.016   2.108 -0.4254 -0.1893 -0.4969
 6416TIP3    H140807   5.928   3.040   2.192 -2.0145 -0.6464  0.4194
 6416TIP3    H240808   5.902   3.093   2.052  2.4716 -0.6177 -0.5573
 6417TIP3   OH240809   3.848   1.929   0.155 -0.3919  0.3013  0.2353
 6417TIP3    H140810   3.790   1.964   0.087  2.1646 -0.0070 -2.3318
 6417TIP3    H240811   3.913   1.999   0.169  0.2358 -0.3966  0.8823
 6418TIP3   OH240812   2.863   0.008   3.125  0.2831  0.2053 -0.0850
 6418TIP3    H140813   2.817   0.090   3.104  1.4544  0.6447 -1.0819
 6418TIP3    H240814   2.810  -0.060   3.084 -0.0879  0.5800 -0.2412
 6419TIP3   OH240815   3.361   3.489   1.366 -0.1053  0.2735 -0.3445
 6419TIP3    H140816   3.412   3.408   1.375 -1.1672 -0.4519 -0.6193
 6419TIP3    H240817   3.322   3.502   1.452  1.3403  1.4240  0.1899
 6420TIP3   OH240818   3.169   1.389   3.140 -0.3922 -0.2065 -0.4113
 6420TIP3    H140819   3.255   1.351   3.123 -1.0309 -1.2956 -1.3042
 6420TIP3    H240820   3.145   1.359   3.228 -0.0493 -0.2422 -0.3312
 6421TIP3   OH240821   5.336   2.741   1.730 -0.5803 -0.1232  0.1960
 6421TIP3    H140822   5.376   2.794   1.799  0.0026 -0.4987  0.1603
 6421TIP3    H240823   5.265   2.695   1.774 -0.7314  0.2623  0.3578
 6422TIP3   OH240824   2.655   2.566   2.895 -0.0526  0.4976  0.2402
 6422TIP3    H140825   2.658   2.655   2.861  0.1110 -0.2084 -1.6922
 6422TIP3    H240826   2.593   2.521   2.838  0.6688 -0.8877  0.5237
 6423TIP3   OH240827   2.501   1.457   0.757 -0.1541 -0.0955 -0.4820
 6423TIP3    H140828   2.478   1.364   0.751 -0.6247  0.0477 -0.9487
 6423TIP3    H240829   2.428   1.497   0.803 -0.9798  0.3896 -2.1302
 6424TIP3   OH240830   3.653   3.503   0.616 -0.1043  0.0397  0.7830
 6424TIP3    H140831   3.745   3.479   0.610 -0.4717 -1.2316 -0.4867
 6424TIP3    H240832   3.643   3.576   0.555  0.1351  0.4465  1.2276
 6425TIP3   OH240833   4.105   0.420   3.362  0.5967 -0.0924  0.0909
 6425TIP3    H140834   4.186   0.412   3.311  0.4322 -2.6438  0.1004
 6425TIP3    H240835   4.046   0.355   3.323  0.3110 -1.8985  3.1833
 6426TIP3   OH240836   1.463   1.847   0.594 -0.2836 -0.4780  0.2288
 6426TIP3    H140837   1.459   1.756   0.564  0.4403  0.0684 -1.6606
 6426TIP3    H240838   1.373   1.879   0.584 -0.4921 -0.9202  0.6737
 6427TIP3   OH240839   5.275   1.072   0.533  0.6039  0.4265 -0.3690
 6427TIP3    H140840   5.208   1.037   0.476 -0.6830  1.9874  0.1034
 6427TIP3    H240841   5.315   1.143   0.482  1.6923 -0.2710 -0.5212
 6428TIP3   OH240842   2.180   2.400   3.318  0.1574 -0.0941 -0.1461
 6428TIP3    H140843   2.212   2.323   3.365  0.0325  0.6079  1.1154
 6428TIP3    H240844   2.258   2.452   3.299  0.4492 -1.2026 -2.3524
 6429TIP3   OH240845   0.821   5.671   4.767 -0.4312 -0.5927  0.3736
 6429TIP3    H140846   0.758   5.679   4.839 -0.5263 -2.0863  0.4753
 6429TIP3    H240847   0.905   5.653   4.810 -0.2518 -0.2623  0.1639
 6430TIP3   OH240848   5.773   1.327   4.012 -0.3729  0.2692  0.1773
 6430TIP3    H140849   5.854   1.367   3.979 -0.4485  0.2689 -0.0091
 6430TIP3    H240850   5.800   1.243   4.048 -0.2857  0.2834  0.1440
 6431TIP3   OH240851   5.703   3.837   2.812  0.0206  0.0478  0.3369
 6431TIP3    H140852   5.622   3.887   2.826 -1.4566 -1.3504 -2.4108
 6431TIP3    H240853   5.694   3.760   2.867 -0.1630  0.2489  0.5901
 6432TIP3   OH240854   5.923   2.454   3.928  0.0159  0.1954  0.0474
 6432TIP3    H140855   5.960   2.487   4.010  0.8907 -1.4907  0.3776
 6432TIP3    H240856   5.902   2.532   3.878  3.1394  1.2716  0.2449
 6433TIP3   OH240857   2.682   4.069   3.019 -0.3744  0.1625 -0.5094
 6433TIP3    H140858   2.776   4.070   3.038 -0.6637 -0.3684  1.1653
 6433TIP3    H240859   2.659   3.976   3.019 -0.7377  0.2387 -1.8832
 6434TIP3   OH240860   4.327   0.821   2.152  0.0789 -0.0637  0.4745
 6434TIP3    H140861   4.300   0.773   2.230  0.0733 -1.4730 -0.3786
 6434TIP3    H240862   4.422   0.810   2.149 -0.0474 -1.0291 -0.3585
 6435TIP3   OH240863   2.833   1.675   2.118  0.0856 -0.1343  0.2460
 6435TIP3    H140864   2.842   1.720   2.034  2.4679  1.6779  1.3490
 6435TIP3    H240865   2.751   1.627   2.110  0.7071 -0.9277 -3.4955
 6436TIP3   OH240866   3.181   0.412   0.884 -0.0351 -0.1757  0.2366
 6436TIP3    H140867   3.139   0.353   0.822 -1.0734 -1.4937  2.0768
 6436TIP3    H240868   3.132   0.399   0.966  1.7147  0.9328  1.5319
 6437TIP3   OH240869   4.330   0.356   2.377 -0.1042  0.4229 -0.7534
 6437TIP3    H140870   4.348   0.450   2.380  2.7288 -0.0281  1.0374
 6437TIP3    H240871   4.411   0.317   2.344 -1.2606 -1.4277 -1.5958
 6438TIP3   OH240872   5.721   2.417   1.538 -0.3865  0.9150  0.1516
 6438TIP3    H140873   5.705   2.377   1.453 -1.5417 -0.7751  1.0971
 6438TIP3    H240874   5.642   2.398   1.589  0.5681  1.2081  1.8211
 6439TIP3   OH240875   0.065   6.197   3.555  0.1403 -0.2907  0.4214
 6439TIP3    H140876   0.158   6.195   3.530  0.8673 -2.4461  2.8568
 6439TIP3    H240877   0.056   6.278   3.606  0.0262  1.1302 -1.7212
 6440TIP3   OH240878   0.901   5.896   3.287 -0.3001  0.1790 -0.1487
 6440TIP3    H140879   0.936   5.808   3.298  0.2147  0.4171  0.1608
 6440TIP3    H240880   0.865   5.918   3.373 -0.2130  0.3678 -0.1619
 6441TIP3   OH240881   1.337   4.667   0.419  0.1570 -0.0763  0.4139
 6441TIP3    H140882   1.321   4.704   0.332 -1.0796  0.7738  0.9848
 6441TIP3    H240883   1.359   4.575   0.402 -0.7957 -0.1089 -0.7559
 6442TIP3   OH240884   3.244   5.461   1.640  0.4294  0.1975  0.2102
 6442TIP3    H140885   3.249   5.496   1.729  1.5132  0.4690  0.0535
 6442TIP3    H240886   3.227   5.538   1.586 -1.0163 -0.0643  0.2285
 6443TIP3   OH240887   6.730   5.759   2.213  0.5371  0.2225 -0.4128
 6443TIP3    H140888   6.752   5.736   2.304  0.6232 -2.4168 -1.0299
 6443TIP3    H240889   6.814   5.755   2.167  0.3231  0.4761 -0.8261
 6444TIP3   OH240890   6.635   2.727   1.453 -0.1924  0.1668 -0.2089
 6444TIP3    H140891   6.570   2.707   1.385  0.5790 -0.3186 -0.8182
 6444TIP3    H240892   6.709   2.670   1.432  0.0226 -0.0498  1.0965
 6445TIP3   OH240893   2.782   4.421   0.790 -0.0151  0.0599 -0.4843
 6445TIP3    H140894   2.703   4.379   0.823 -0.6230  1.2908 -0.3185
 6445TIP3    H240895   2.850   4.353   0.797 -0.9387 -0.8574 -0.1815
 6446TIP3   OH240896   5.907   0.885   3.107 -0.2921  0.6663  0.4448
 6446TIP3    H140897   5.959   0.826   3.160 -0.4300 -0.0910 -0.2423
 6446TIP3    H240898   5.838   0.830   3.070 -0.9509  1.4373  0.4993
 6447TIP3   OH240899   6.275   0.694   2.079  0.5315 -0.2453  0.1375
 6447TIP3    H140900   6.273   0.602   2.052  1.4422  0.6425 -3.6689
 6447TIP3    H240901   6.360   0.704   2.121  1.1961 -0.8556 -0.9856
 6448TIP3   OH240902   6.561   0.581   3.362  0.1647  0.4800 -0.1540
 6448TIP3    H140903   6.651   0.568   3.332  0.9300  0.8550  1.8177
 6448TIP3    H240904   6.545   0.510   3.423 -0.8196  0.5245 -0.3419
 6449TIP3   OH240905   1.185   2.149   4.118  0.3347  0.6352 -0.1175
 6449TIP3    H140906   1.214   2.240   4.120  2.8183 -0.0667 -0.8988
 6449TIP3    H240907   1.261   2.099   4.148 -1.3861 -1.1341  1.5315
 6450TIP3   OH240908   2.755   6.682   3.687 -0.1282  0.0111 -0.0619
 6450TIP3    H140909   2.747   6.742   3.613  2.5436  0.2202 -0.2792
 6450TIP3    H240910   2.671   6.637   3.690 -0.2699 -0.2374 -3.4164
 6451TIP3   OH240911   0.765   0.727   4.175 -0.3864  0.5398 -0.3067
 6451TIP3    H140912   0.699   0.764   4.117  1.1124  0.6149 -2.0822
 6451TIP3    H240913   0.810   0.803   4.212  1.0684  0.6125 -2.0300
 6452TIP3   OH240914   5.353   6.853   2.922  0.1816 -0.0876  0.1595
 6452TIP3    H140915   5.323   6.890   3.005 -0.1177  0.0352 -0.0030
 6452TIP3    H240916   5.368   6.760   2.941 -1.1055 -0.3391  0.0372
 6453TIP3   OH240917   5.689   2.902   3.532  0.2244 -0.0510 -0.3108
 6453TIP3    H140918   5.758   2.921   3.595 -0.0867 -0.0901  0.0512
 6453TIP3    H240919   5.677   2.807   3.537 -0.5918  0.0706  0.4366
 6454TIP3   OH240920   2.301   4.179   0.761  0.8302 -0.0692  0.0416
 6454TIP3    H140921   2.385   4.134   0.750  0.2163 -1.1879 -0.2221
 6454TIP3    H240922   2.242   4.136   0.699 -0.6285 -1.1320  2.0322
 6455TIP3   OH240923   5.238   3.776   3.044 -0.8020 -0.3059  0.4518
 6455TIP3    H140924   5.222   3.768   2.950 -0.6599  1.8856  0.1852
 6455TIP3    H240925   5.211   3.865   3.065  0.8328 -0.1427  2.1315
 6456TIP3   OH240926   0.756   6.544   1.352 -0.2835  0.2205 -0.1945
 6456TIP3    H140927   0.706   6.614   1.393 -0.3757  1.0775 -1.7193
 6456TIP3    H240928   0.825   6.589   1.303  0.2934 -0.8072 -0.3544
 6457TIP3   OH240929   0.908   6.885   2.777 -0.0648  0.2684  0.7779
 6457TIP3    H140930   0.985   6.888   2.833 -0.7835  1.9613  1.7549
 6457TIP3    H240931   0.894   6.976   2.750 -0.3102 -0.3473 -1.3937
 6458TIP3   OH240932   1.338   2.253   1.974 -0.0970 -0.2108 -0.3740
 6458TIP3    H140933   1.292   2.225   1.895 -1.8941  4.5700 -1.3229
 6458TIP3    H240934   1.371   2.340   1.953 -0.8014  1.4114  4.1777
 6459TIP3   OH240935   0.029   3.729   3.628 -0.1355  0.2808  0.2930
 6459TIP3    H140936   0.071   3.815   3.631 -1.1577  0.9056 -1.6684
 6459TIP3    H240937   0.101   3.668   3.614  0.6375  0.7546  2.0183
 6460TIP3   OH240938   5.170   3.978   0.956  0.2801 -0.3021 -0.1084
 6460TIP3    H140939   5.177   3.978   0.861  1.8483 -2.5982 -0.0692
 6460TIP3    H240940   5.076   3.987   0.973  0.0551  1.0086 -1.8080
 6461TIP3   OH240941   2.438   1.538   3.022 -0.2079 -0.2735  0.2838
 6461TIP3    H140942   2.355   1.489   3.023 -0.6878  0.5214  1.3634
 6461TIP3    H240943   2.506   1.470   3.026 -0.7516 -0.9809 -1.3127
 6462TIP3   OH240944   2.979   6.493   8.464  0.1451 -0.0658  0.1638
 6462TIP3    H140945   3.014   6.406   8.448  1.6287  0.4474  0.4781
 6462TIP3    H240946   2.922   6.483   8.540 -1.0049 -1.0569 -0.7979
 6463TIP3   OH240947   5.888   5.075   3.733 -0.4767  0.7720  0.2500
 6463TIP3    H140948   5.949   5.030   3.676 -1.4504  0.5621 -0.6582
 6463TIP3    H240949   5.935   5.085   3.816 -1.0880 -4.4662  1.5906
 6464TIP3   OH240950   6.472   5.627   1.176  0.1261 -0.8018  0.4914
 6464TIP3    H140951   6.408   5.681   1.222  2.2309  0.3789  2.2795
 6464TIP3    H240952   6.468   5.542   1.219 -0.7686 -0.9931  0.0443
 6465TIP3   OH240953   5.189   1.842   4.292  0.3637  0.0341  0.6179
 6465TIP3    H140954   5.119   1.804   4.346  0.3101 -0.8404 -0.0432
 6465TIP3    H240955   5.270   1.821   4.339  0.1802  1.4057  1.5979
 6466TIP3   OH240956   0.728   1.654   0.808 -0.2201 -0.2379  0.0176
 6466TIP3    H140957   0.669   1.724   0.836  1.3980  1.2059 -0.0218
 6466TIP3    H240958   0.780   1.633   0.885  1.4774  0.8932 -0.7740
 6467TIP3   OH240959   0.693   0.238   2.517  0.4001 -0.4062 -0.3716
 6467TIP3    H140960   0.648   0.179   2.456 -0.2582  0.3454 -0.6226
 6467TIP3    H240961   0.626   0.301   2.543  1.2476  0.6033 -0.5832
 6468TIP3   OH240962   5.496   2.899   1.884  0.4903 -0.1231 -0.2328
 6468TIP3    H140963   5.565   2.921   1.821  0.4321  2.2014  0.4053
 6468TIP3    H240964   5.434   2.972   1.877 -1.0349 -1.3063  0.4356
 6469TIP3   OH240965   0.141   0.677   1.731  0.2914 -0.0415 -0.6924
 6469TIP3    H140966   0.166   0.768   1.747  0.2467  0.0994 -1.3692
 6469TIP3    H240967   0.064   0.663   1.786 -0.5107  0.7499 -1.5786
 6470TIP3   OH240968   6.875   3.440   1.971 -0.3830 -0.6844 -0.4203
 6470TIP3    H140969   6.802   3.448   1.909  1.8565 -0.5264 -3.2651
 6470TIP3    H240970   6.905   3.530   1.984 -0.4497 -0.7794  0.4493
 6471TIP3   OH240971   6.242   6.179   3.411  0.0143  0.3507  0.1836
 6471TIP3    H140972   6.274   6.116   3.346  0.5402  0.6927  0.1004
 6471TIP3    H240973   6.208   6.252   3.359 -0.6014  0.1346  0.2800
 6472TIP3   OH240974   6.777   5.568   1.301  0.6099  0.4438 -0.0152
 6472TIP3    H140975   6.727   5.511   1.360  1.8406 -0.0323  0.6130
 6472TIP3    H240976   6.746   5.656   1.321  2.4217  0.5548  2.9409
 6473TIP3   OH240977   6.813   4.252   1.688  0.8507 -0.2066  0.0765
 6473TIP3    H140978   6.894   4.296   1.713  0.1232  1.6232 -0.5994
 6473TIP3    H240979   6.820   4.241   1.593 -0.1785  1.1385 -0.1984
 6474TIP3   OH240980   4.857   1.577   2.317  0.4787  0.0229  0.8149
 6474TIP3    H140981   4.773   1.595   2.273  0.6124 -1.0509  0.1066
 6474TIP3    H240982   4.836   1.582   2.411 -0.4545 -0.5760  0.6472
 6475TIP3   OH240983   3.026   6.546   2.469  0.0642 -0.4465 -0.2066
 6475TIP3    H140984   3.004   6.515   2.557 -2.1585  0.6752 -0.2940
 6475TIP3    H240985   3.120   6.530   2.461  0.3902 -0.3671  2.4541
 6476TIP3   OH240986   5.827   5.716   0.790  0.4849  0.2631  0.3252
 6476TIP3    H140987   5.883   5.693   0.864  1.6427 -0.2249 -0.6593
 6476TIP3    H240988   5.887   5.715   0.715  0.0977  4.0149 -0.1957
 6477TIP3   OH240989   5.041   1.784   1.193 -0.2854 -0.6196 -0.2993
 6477TIP3    H140990   5.053   1.705   1.141 -1.1379 -0.3495 -0.9406
 6477TIP3    H240991   4.954   1.772   1.233 -0.3198 -0.1116 -0.2226
 6478TIP3   OH240992   5.699   3.609   3.783  0.1672 -0.1924 -0.6951
 6478TIP3    H140993   5.741   3.683   3.740 -2.8444  1.7119 -0.6365
 6478TIP3    H240994   5.627   3.584   3.725 -1.5468 -0.1682  1.3059
 6479TIP3   OH240995   2.284   6.423   1.169 -0.5991  0.1187  0.7235
 6479TIP3    H140996   2.259   6.330   1.165 -1.0793  0.2681 -0.0024
 6479TIP3    H240997   2.285   6.443   1.262 -1.2763 -0.4115  0.8556
 6480TIP3   OH240998   1.051   5.612   2.535 -0.2483  0.3650 -0.4679
 6480TIP3    H140999   0.962   5.585   2.514  0.2089 -1.9553  0.3392
 6480TIP3    H241000   1.045   5.649   2.623 -0.5008  0.9082 -0.7034
 6481TIP3   OH241001   1.660   6.820   2.579  0.3991  0.2248 -0.3560
 6481TIP3    H141002   1.743   6.833   2.624  0.3197  1.4571 -0.5393
 6481TIP3    H241003   1.623   6.908   2.571 -1.5839 -0.4325  0.9382
 6482TIP3   OH241004   2.982   3.299   3.909  0.1621  0.0945  1.0041
 6482TIP3    H141005   3.036   3.376   3.924 -1.7595  1.8153 -0.2998
 6482TIP3    H241006   2.945   3.278   3.995  1.5432 -0.0810  1.5780
 6483TIP3   OH241007   0.761   4.774   3.180 -0.7455  0.7039  0.0035
 6483TIP3    H141008   0.755   4.818   3.265 -1.9415 -0.2939  0.4657
 6483TIP3    H241009   0.678   4.794   3.137 -1.4722 -1.3489  0.3758
 6484TIP3   OH241010   1.827   5.379   3.462  0.1179 -0.4234 -0.0084
 6484TIP3    H141011   1.839   5.391   3.368 -0.1384 -0.9186 -0.1064
 6484TIP3    H241012   1.770   5.302   3.469 -1.0044  0.4181  0.5043
 6485TIP3   OH241013   1.043   5.183   1.195  0.9704  0.2846  0.4856
 6485TIP3    H141014   1.103   5.124   1.240  2.0385 -0.4892 -1.7910
 6485TIP3    H241015   1.093   5.263   1.182  1.3570 -0.1511 -0.8933
 6486TIP3   OH241016   3.273   2.510   1.446  0.4184  0.2176  0.3718
 6486TIP3    H141017   3.197   2.563   1.423 -0.1091 -0.7150 -0.1212
 6486TIP3    H241018   3.345   2.548   1.396 -0.0718  0.1411 -0.4180
 6487TIP3   OH241019   6.126   0.792   4.235  0.0781 -0.2682 -0.2549
 6487TIP3    H141020   6.080   0.720   4.192 -0.6991 -0.1155  0.3013
 6487TIP3    H241021   6.169   0.751   4.311  0.5779 -0.3491 -0.5809
 6488TIP3   OH241022   0.296   5.404   2.690  0.2604 -0.4058  0.1783
 6488TIP3    H141023   0.276   5.411   2.597 -0.6624 -2.1225  0.2143
 6488TIP3    H241024   0.224   5.448   2.734  1.6007  2.0498  0.1035
 6489TIP3   OH241025   1.457   4.047   4.831 -0.5112  0.2308 -0.1137
 6489TIP3    H141026   1.489   4.080   4.915 -0.5403 -0.5297  0.2041
 6489TIP3    H241027   1.472   4.118   4.770  2.0492 -0.1654 -0.0562
 6490TIP3   OH241028   5.775   5.391   0.364  0.5012  0.1417  0.1713
 6490TIP3    H141029   5.860   5.423   0.333  0.6445 -0.0726  0.3438
 6490TIP3    H241030   5.719   5.392   0.286  1.0817 -1.1515 -0.2922
 6491TIP3   OH241031   2.426   5.520   3.310  0.2187  0.3344 -0.0321
 6491TIP3    H141032   2.515   5.538   3.338  0.5396 -0.3246 -0.5744
 6491TIP3    H241033   2.370   5.565   3.373  0.9362  2.2723 -0.7107
 6492TIP3   OH241034   0.428   0.564   0.509 -0.6532  0.0216 -0.0198
 6492TIP3    H141035   0.337   0.535   0.497 -1.1236  1.7188 -0.9813
 6492TIP3    H241036   0.462   0.572   0.420 -0.1008  0.9886  0.2659
 6493TIP3   OH241037   0.487   2.236   1.896  0.4459 -0.1288  0.1196
 6493TIP3    H141038   0.560   2.216   1.837  0.5987 -0.5714  0.4483
 6493TIP3    H241039   0.518   2.309   1.949  0.0495  0.7305 -0.8004
 6494TIP3   OH241040   1.120   3.810   0.540 -0.1470  0.0171  0.0257
 6494TIP3    H141041   1.125   3.715   0.529 -2.0951 -0.1130 -0.1776
 6494TIP3    H241042   1.204   3.842   0.509  0.0182 -1.5357 -1.2894
 6495TIP3   OH241043   2.623   2.271   0.692  0.7359  0.5970 -0.2994
 6495TIP3    H141044   2.587   2.263   0.781 -1.6177 -0.4308 -1.2435
 6495TIP3    H241045   2.587   2.354   0.659  0.6087  0.3917 -0.6844
 6496TIP3   OH241046   3.364   2.288   3.571 -0.5372  0.7296 -0.0483
 6496TIP3    H141047   3.286   2.242   3.603 -1.5130  1.2650 -1.5477
 6496TIP3    H241048   3.333   2.337   3.495  1.3129  0.8244 -0.7891
 6497TIP3   OH241049   3.413   3.242   1.474  0.4000  0.7667  0.0947
 6497TIP3    H141050   3.364   3.244   1.556  1.8858 -0.6443  1.1049
 6497TIP3    H241051   3.433   3.150   1.461  0.2558  0.9777 -1.8580
 6498TIP3   OH241052   3.524   2.490   0.437 -0.2961  0.3197  0.1775
 6498TIP3    H141053   3.478   2.488   0.353  0.8171  0.4818 -0.4535
 6498TIP3    H241054   3.455   2.508   0.501 -0.7219  3.7514 -1.0354
 6499TIP3   OH241055   3.788   5.374   2.094 -0.5403  0.1061  0.0677
 6499TIP3    H141056   3.826   5.409   2.175 -0.1368  0.1898 -0.1551
 6499TIP3    H241057   3.801   5.280   2.101 -0.1514  0.1469 -0.0755
 6500TIP3   OH241058   6.520   1.059   3.454 -0.7878  0.4244  0.2991
 6500TIP3    H141059   6.428   1.037   3.441 -0.9502  1.4948 -0.4835
 6500TIP3    H241060   6.566   1.015   3.383 -0.6728 -0.2203  0.7684
 6501TIP3   OH241061   4.600   0.179   3.871 -0.9333 -0.4491 -0.6361
 6501TIP3    H141062   4.605   0.088   3.901  0.2306 -0.1590  0.1277
 6501TIP3    H241063   4.636   0.177   3.782 -0.7778 -0.7192 -0.5691
 6502TIP3   OH241064   2.966   1.689   4.305  0.0480  0.7247  0.3915
 6502TIP3    H141065   3.053   1.678   4.268  1.1634  3.1197  2.0266
 6502TIP3    H241066   2.972   1.770   4.356 -3.2912  1.2731  0.1290
 6503TIP3   OH241067   5.874   6.708   0.199  0.1066  0.0116  0.4602
 6503TIP3    H141068   5.854   6.654   0.123  2.0502 -0.0162 -0.0852
 6503TIP3    H241069   5.938   6.656   0.249  0.5158  0.9529  0.9526
 6504TIP3   OH241070   1.613   0.744   2.813 -0.0359 -1.0236 -0.4460
 6504TIP3    H141071   1.542   0.774   2.757  0.0184 -0.4433 -0.2173
 6504TIP3    H241072   1.681   0.714   2.752  0.1145 -0.1889 -0.7039
 6505TIP3   OH241073   6.136   4.061   3.527  0.5111 -0.2052 -0.3622
 6505TIP3    H141074   6.196   3.994   3.560  1.5634  0.6124 -0.5709
 6505TIP3    H241075   6.055   4.046   3.575  1.2041 -0.6780  0.7040
 6506TIP3   OH241076   5.800   0.371   8.429  0.2972 -0.0190 -0.3409
 6506TIP3    H141077   5.707   0.382   8.449  0.3058 -0.7426  0.1305
 6506TIP3    H241078   5.841   0.453   8.459 -0.1954  0.3495 -0.6617
 6507TIP3   OH241079   0.423   6.025   2.323 -0.5248  0.0351  0.1838
 6507TIP3    H141080   0.464   6.061   2.402  0.4112 -1.5891  0.4874
 6507TIP3    H241081   0.438   6.091   2.256  2.8431 -0.4948  0.2461
 6508TIP3   OH241082   5.251   5.910   3.936 -0.8362  0.3541 -0.7193
 6508TIP3    H141083   5.173   5.938   3.890 -0.5296  1.2329 -0.7224
 6508TIP3    H241084   5.315   5.980   3.920 -0.8185  0.8676  1.2991
 6509TIP3   OH241085   0.608   4.648   2.866 -0.5740 -0.3769  0.0266
 6509TIP3    H141086   0.519   4.620   2.846  0.1579 -2.8639 -0.1692
 6509TIP3    H241087   0.625   4.721   2.806 -2.1784 -0.4330 -0.5329
 6510TIP3   OH241088   4.454   4.069   4.139  0.0325  0.4435 -0.5519
 6510TIP3    H141089   4.475   4.038   4.227 -0.6513  0.6906 -0.2947
 6510TIP3    H241090   4.519   4.136   4.121  0.3159  0.2315 -0.3257
 6511TIP3   OH241091   1.545   4.085   1.427 -0.3141 -0.1151  0.1224
 6511TIP3    H141092   1.498   4.154   1.381 -2.8844 -1.1933  0.9344
 6511TIP3    H241093   1.576   4.027   1.357 -0.3808  0.5094 -0.4351
 6512TIP3   OH241094   4.638   0.416   3.982  0.6172 -0.4341  0.0861
 6512TIP3    H141095   4.604   0.327   3.972  1.1082 -0.5796 -0.3583
 6512TIP3    H241096   4.653   0.426   4.076 -1.4293 -0.0614  0.4077
 6513TIP3   OH241097   3.861   5.586   4.348  0.0936 -0.5968  0.0500
 6513TIP3    H141098   3.947   5.623   4.328 -0.1017  0.2777  0.7517
 6513TIP3    H241099   3.802   5.660   4.343 -0.3683 -0.8731  1.1410
 6514TIP3   OH241100   0.319   6.341   0.081 -0.0925  0.5775 -0.0994
 6514TIP3    H141101   0.383   6.402   0.118 -1.3025  1.6069  0.3555
 6514TIP3    H241102   0.236   6.366   0.120 -0.7431 -0.9423 -0.4380
 6515TIP3   OH241103   0.994   6.204   2.414  0.1994  0.4050  0.4166
 6515TIP3    H141104   1.084   6.236   2.419  0.3137 -0.0727  2.1101
 6515TIP3    H241105   0.998   6.114   2.447 -0.9378  0.5062  0.8992
 6516TIP3   OH241106   0.238   6.532   8.388 -0.3236 -0.0553 -0.1419
 6516TIP3    H141107   0.171   6.506   8.451 -0.1642  0.3137  0.1912
 6516TIP3    H241108   0.293   6.455   8.378 -0.4187 -0.1548  0.0876
 6517TIP3   OH241109   5.940   3.363   1.491  0.1784  0.1590  0.0029
 6517TIP3    H141110   5.899   3.446   1.514 -0.4066  0.1854 -1.1045
 6517TIP3    H241111   6.012   3.388   1.432 -0.6998 -0.1862 -1.2469
 6518TIP3   OH241112   5.282   2.937   2.424 -0.5031 -0.2179 -0.2364
 6518TIP3    H141113   5.334   2.972   2.351 -0.2178 -0.3639 -0.1028
 6518TIP3    H241114   5.264   2.847   2.399 -0.5745 -0.2099 -0.2149
 6519TIP3   OH241115   5.981   0.476   1.990  0.0923 -0.6539 -0.2816
 6519TIP3    H141116   5.963   0.432   1.907 -0.2904 -0.1394 -0.4756
 6519TIP3    H241117   6.049   0.423   2.031  1.0313 -0.3313 -1.3953
 6520TIP3   OH241118   2.544   6.847   3.882  0.2914  0.0573 -0.3989
 6520TIP3    H141119   2.503   6.897   3.811 -1.7294  1.3708  1.5483
 6520TIP3    H241120   2.628   6.891   3.896  0.4934  0.0946 -1.6414
 6521TIP3   OH241121   4.972   2.852   2.674  0.4524 -0.1055  0.5945
 6521TIP3    H141122   5.000   2.933   2.632 -0.2332 -0.7448 -1.1906
 6521TIP3    H241123   4.996   2.863   2.766  3.9361  0.5066 -0.2647
 6522TIP3   OH241124   3.577   6.789   2.653 -0.1292  0.2606  1.2862
 6522TIP3    H141125   3.494   6.825   2.683 -0.6749 -1.1014  1.4805
 6522TIP3    H241126   3.563   6.694   2.651  1.8093 -0.1120  2.5582
 6523TIP3   OH241127   3.621   3.962   0.664 -0.1635 -0.2092 -0.1374
 6523TIP3    H141128   3.589   3.933   0.579 -0.2420  0.2662 -0.2759
 6523TIP3    H241129   3.676   4.038   0.644 -0.5078  0.1506  0.2717
 6524TIP3   OH241130   2.784   6.228   2.694 -0.1661  0.3047  0.3091
 6524TIP3    H141131   2.702   6.253   2.651  0.0339  1.5338  0.6090
 6524TIP3    H241132   2.766   6.239   2.787 -0.2177 -1.1966  0.5069
 6525TIP3   OH241133   1.302   6.111   2.178  0.4700  0.1413 -0.0127
 6525TIP3    H141134   1.392   6.132   2.204  0.9936  1.0961 -2.3751
 6525TIP3    H241135   1.278   6.036   2.234  1.6938  1.5524  2.5778
 6526TIP3   OH241136   1.111   2.938   4.037 -0.7051 -0.8005  0.3493
 6526TIP3    H141137   1.092   2.994   4.112 -0.5682 -1.7642  1.1280
 6526TIP3    H241138   1.025   2.916   4.001 -0.7467  2.3883 -1.9381
 6527TIP3   OH241139   2.498   3.685   2.554 -0.5761 -0.1392  0.5460
 6527TIP3    H141140   2.558   3.745   2.509 -0.0613 -1.0688 -0.0252
 6527TIP3    H241141   2.555   3.632   2.610 -1.0337 -0.0951  1.0604
 6528TIP3   OH241142   5.323   0.003   3.523 -0.0109  0.0556 -0.7796
 6528TIP3    H141143   5.327   0.049   3.607  0.0628  1.0549 -1.3090
 6528TIP3    H241144   5.270  -0.074   3.540  1.0802 -0.4399  0.4848
 6529TIP3   OH241145   0.981   2.299   1.203 -0.4321  0.4677  0.4269
 6529TIP3    H141146   1.025   2.243   1.139 -1.2044 -0.3406  0.5843
 6529TIP3    H241147   0.893   2.261   1.211  0.2742 -0.7960  3.5419
 6530TIP3   OH241148   0.725   1.886   0.628 -0.0966  0.1808 -0.1222
 6530TIP3    H141149   0.706   1.804   0.674  1.0247 -1.1847 -1.9747
 6530TIP3    H241150   0.641   1.933   0.628 -1.3432 -1.9220 -0.8474
 6531TIP3   OH241151   0.158   0.357   4.024 -0.4355  0.0995 -0.3138
 6531TIP3    H141152   0.153   0.396   4.110 -0.2965 -0.2093 -0.1631
 6531TIP3    H241153   0.245   0.380   3.992 -0.2543 -0.2939 -0.1192
 6532TIP3   OH241154   2.640   1.319   1.739  0.5802  0.1282  0.2505
 6532TIP3    H141155   2.590   1.248   1.699 -0.0706  0.4509  0.4955
 6532TIP3    H241156   2.708   1.339   1.674 -1.3116  1.6272 -1.3775
 6533TIP3   OH241157   6.089   1.388   3.585 -0.1305  0.3647  0.1299
 6533TIP3    H141158   6.131   1.314   3.628  0.0205 -0.6131 -1.5945
 6533TIP3    H241159   6.027   1.348   3.524 -0.6762  1.6922 -0.2330
 6534TIP3   OH241160   5.173   5.285   3.104 -0.3412 -0.0208  0.2331
 6534TIP3    H141161   5.155   5.294   3.198  0.2637  0.4166  0.3148
 6534TIP3    H241162   5.092   5.312   3.061  0.3203  2.8450  0.5626
 6535TIP3   OH241163   6.577   0.354   2.439 -0.1390 -0.3487 -0.3958
 6535TIP3    H141164   6.520   0.311   2.503 -1.3580 -0.4142 -1.4726
 6535TIP3    H241165   6.542   0.443   2.431  1.3871  0.3744  0.6437
 6536TIP3   OH241166   5.318   1.853   2.557  0.5536  0.0996  0.3507
 6536TIP3    H141167   5.243   1.890   2.604 -0.3852 -0.4791 -0.6354
 6536TIP3    H241168   5.280   1.813   2.479  1.6261 -2.2268  0.9397
 6537TIP3   OH241169   3.104   4.853   1.221  0.1259 -0.3915 -0.2677
 6537TIP3    H141170   3.161   4.791   1.175  0.6186 -1.5598  1.7750
 6537TIP3    H241171   3.158   4.888   1.291 -1.2615 -0.5006  0.8997
 6538TIP3   OH241172   1.412   4.405   1.417 -0.8073 -0.1123 -0.2615
 6538TIP3    H141173   1.467   4.482   1.431 -1.7801  0.1965  2.2411
 6538TIP3    H241174   1.454   4.359   1.344  1.2231  1.4753 -0.1824
 6539TIP3   OH241175   3.867   6.172   8.433 -0.4360 -0.2485  0.0293
 6539TIP3    H141176   3.943   6.145   8.382 -0.1761  0.1029  0.2217
 6539TIP3    H241177   3.843   6.257   8.397 -0.8687 -0.4550 -0.1692
 6540TIP3   OH241178   4.020   4.237   2.378  0.0450 -0.1395 -0.1087
 6540TIP3    H141179   4.112   4.226   2.354  0.2288  0.1157  0.4594
 6540TIP3    H241180   3.973   4.232   2.295  0.4251 -1.7967 -0.2636
 6541TIP3   OH241181   4.143   0.432   1.843  0.0310  0.7909  0.6124
 6541TIP3    H141182   4.174   0.426   1.934  0.6110  0.6190  0.4095
 6541TIP3    H241183   4.056   0.472   1.849  0.9679  2.8418  1.0667
 6542TIP3   OH241184   0.786   4.371   0.843 -0.7804  1.1242 -0.1118
 6542TIP3    H141185   0.721   4.340   0.779  0.2190  1.2624 -1.2256
 6542TIP3    H241186   0.776   4.467   0.842 -2.3664  1.0411  1.7171
 6543TIP3   OH241187   0.330   5.223   1.920 -0.2125 -0.2136  0.2030
 6543TIP3    H141188   0.307   5.137   1.886 -0.2172  0.2404 -0.9777
 6543TIP3    H241189   0.426   5.227   1.913 -0.1010 -0.5515  1.3382
 6544TIP3   OH241190   3.143   3.206   1.383 -0.1592  0.4048  0.1103
 6544TIP3    H141191   3.144   3.285   1.328  0.6436  0.6296  0.4331
 6544TIP3    H241192   3.118   3.238   1.470  1.5051  0.5479  0.5679
 6545TIP3   OH241193   1.935   4.675   4.047 -0.5994  0.1007 -0.5076
 6545TIP3    H141194   1.841   4.656   4.044 -0.8453  1.1045  0.0615
 6545TIP3    H241195   1.939   4.770   4.062  0.4537 -0.2294  1.8266
 6546TIP3   OH241196   3.945   0.409   2.643 -0.2450  0.3856  0.1386
 6546TIP3    H141197   3.988   0.349   2.582 -0.7866  0.3892 -0.2589
 6546TIP3    H241198   3.901   0.352   2.706 -0.6406  0.3553 -0.1557
 6547TIP3   OH241199   3.957   4.690   2.860  0.0069 -0.0769  0.3208
 6547TIP3    H141200   3.978   4.702   2.952 -0.1979 -0.8665  0.4815
 6547TIP3    H241201   3.918   4.602   2.856  1.6857 -0.8145 -0.7964
 6548TIP3   OH241202   4.919   6.037   1.036  0.0409 -0.0220  0.4846
 6548TIP3    H141203   4.901   5.990   0.954  0.0730 -1.3625  1.2143
 6548TIP3    H241204   4.959   6.119   1.008  0.3139 -0.5744 -0.8419
 6549TIP3   OH241205   5.055   4.776   3.428 -0.0895  0.3043  0.1543
 6549TIP3    H141206   5.143   4.778   3.391  0.3074  0.3011  1.0938
 6549TIP3    H241207   5.052   4.851   3.488 -0.4934 -0.0960  0.6428
 6550TIP3   OH241208   0.801   0.825   2.791 -0.2663 -0.3234  0.4607
 6550TIP3    H141209   0.765   0.895   2.844  1.8563  1.6826 -0.5666
 6550TIP3    H241210   0.810   0.864   2.704 -0.8276 -2.5393 -0.6565
 6551TIP3   OH241211   5.962   3.136   1.142 -0.3289  0.0293 -0.7478
 6551TIP3    H141212   5.919   3.127   1.227  0.5465 -0.7797 -0.3667
 6551TIP3    H241213   5.893   3.120   1.078 -1.2700  1.8292 -0.2389
 6552TIP3   OH241214   4.224   5.492   0.554  0.0885 -0.1999 -0.6584
 6552TIP3    H141215   4.236   5.399   0.574 -2.1028  0.0467  2.7418
 6552TIP3    H241216   4.136   5.498   0.517  0.0500  0.5164 -0.4734
 6553TIP3   OH241217   1.852   2.854   1.665  0.4176  0.1981  0.2092
 6553TIP3    H141218   1.814   2.924   1.718  0.2910  0.1694  0.1572
 6553TIP3    H241219   1.908   2.900   1.602  1.1323  0.1926  0.8159
 6554TIP3   OH241220   2.399   0.800   0.879 -0.3553 -0.3931 -0.4483
 6554TIP3    H141221   2.421   0.890   0.902  0.5245 -0.2188 -1.8755
 6554TIP3    H241222   2.482   0.752   0.887 -0.9711 -1.2882  1.1067
 6555TIP3   OH241223   2.809   5.881   2.839  0.2431  0.1658  0.2586
 6555TIP3    H141224   2.875   5.944   2.811  0.9413  0.6160  2.6834
 6555TIP3    H241225   2.739   5.934   2.875  0.0595 -0.4096  0.7582
 6556TIP3   OH241226   2.651   6.533   1.410  0.2771  0.0577 -0.5574
 6556TIP3    H141227   2.558   6.519   1.394  0.2206  0.1739 -0.3316
 6556TIP3    H241228   2.694   6.491   1.335  0.1312 -1.6398  0.2486
 6557TIP3   OH241229   3.517   1.700   3.584  0.5287  0.2189 -0.1428
 6557TIP3    H141230   3.504   1.638   3.656  1.7502  0.8972  0.7122
 6557TIP3    H241231   3.494   1.651   3.505  2.4779 -1.7416  0.3870
 6558TIP3   OH241232   6.397   3.361   3.481 -0.3738  0.2806 -0.3220
 6558TIP3    H141233   6.316   3.309   3.482  1.3694 -2.8372 -2.6457
 6558TIP3    H241234   6.435   3.349   3.568 -0.3398 -1.9948 -0.5857
 6559TIP3   OH241235   0.458   0.679   1.141 -0.1000  0.0765  0.2086
 6559TIP3    H141236   0.532   0.687   1.202 -0.9152  0.8892  1.1192
 6559TIP3    H241237   0.490   0.620   1.072  1.1374 -0.1750  0.9706
 6560TIP3   OH241238   6.168   2.288   4.172  0.0866  0.1208 -0.1026
 6560TIP3    H141239   6.217   2.284   4.254  0.3776  0.4835 -0.2533
 6560TIP3    H241240   6.113   2.366   4.181 -1.0612 -0.7180  0.3862
 6561TIP3   OH241241   5.866   3.188   2.972  1.1752  0.3167  0.5096
 6561TIP3    H141242   5.823   3.173   2.887  1.4529  2.7166 -0.1314
 6561TIP3    H241243   5.940   3.128   2.972  0.6102 -0.4193 -0.5086
 6562TIP3   OH241244   3.793   0.668   1.938 -0.1447  0.2346  0.6551
 6562TIP3    H141245   3.768   0.576   1.933  1.9543 -0.3304 -0.8791
 6562TIP3    H241246   3.863   0.670   2.004  0.6027  0.4887 -0.1203
 6563TIP3   OH241247   3.440   2.616   0.914  0.3464 -0.1483  0.6255
 6563TIP3    H141248   3.357   2.646   0.949  1.8909  1.0237  3.6775
 6563TIP3    H241249   3.496   2.694   0.915  0.8223 -0.1659 -4.1031
 6564TIP3   OH241250   4.568   2.643   2.346  0.0469 -0.4441  0.3270
 6564TIP3    H141251   4.614   2.590   2.281 -2.0457 -2.0690  0.0706
 6564TIP3    H241252   4.585   2.600   2.429  0.5695  0.1003  0.5088
 6565TIP3   OH241253   5.683   0.202   3.228  0.8781 -0.2699 -0.3630
 6565TIP3    H141254   5.613   0.157   3.276 -0.5326  1.0444 -1.1060
 6565TIP3    H241255   5.749   0.221   3.294  0.2977 -1.0606  0.4735
 6566TIP3   OH241256   4.681   6.889   0.627  0.1949 -0.4918 -0.4259
 6566TIP3    H141257   4.593   6.872   0.593  0.4008 -0.3509 -1.0456
 6566TIP3    H241258   4.739   6.866   0.555  0.6799 -0.7965  0.0613
 6567TIP3   OH241259   0.078   3.705   3.204  0.0898 -0.1752 -0.2941
 6567TIP3    H141260   0.019   3.719   3.129  0.4676  1.6686 -0.2884
 6567TIP3    H241261   0.136   3.780   3.203  1.8293 -1.4479  0.3172
 6568TIP3   OH241262   5.816   0.520   2.576 -0.5372 -0.2074  0.1341
 6568TIP3    H141263   5.868   0.483   2.504 -0.5929  1.0702 -0.5957
 6568TIP3    H241264   5.745   0.567   2.532 -0.6321  0.4981  1.0344
 6569TIP3   OH241265   5.874   2.374   2.562  0.2883  0.5738  0.4291
 6569TIP3    H141266   5.854   2.306   2.498  1.5245 -0.1975  0.8333
 6569TIP3    H241267   5.927   2.438   2.513 -1.0318  1.3821 -0.0013
 6570TIP3   OH241268   1.838   3.736   1.031 -0.6019 -0.7261 -0.3027
 6570TIP3    H141269   1.798   3.724   0.945  1.2996  1.7924 -1.6553
 6570TIP3    H241270   1.932   3.736   1.014 -0.1594 -0.8827  1.8983
 6571TIP3   OH241271   5.205   2.843   1.489 -0.5149 -0.4080  0.2503
 6571TIP3    H141272   5.178   2.764   1.444 -2.1716  1.2375 -1.8785
 6571TIP3    H241273   5.247   2.812   1.569 -0.8494 -3.3925 -0.6083
 6572TIP3   OH241274   5.580   4.107   2.586  0.2314  0.1907  0.1383
 6572TIP3    H141275   5.497   4.114   2.634  1.1328  1.7907  1.5382
 6572TIP3    H241276   5.561   4.043   2.517 -2.3357  0.9207  0.0464
 6573TIP3   OH241277   6.133   3.385   2.747 -0.0445  0.8302  0.5648
 6573TIP3    H141278   6.188   3.348   2.817  1.1416  0.8877 -0.3047
 6573TIP3    H241279   6.096   3.464   2.784  1.4309  1.4351  0.7965
 6574TIP3   OH241280   1.235   4.346   3.922 -0.9503 -0.0455  0.1043
 6574TIP3    H141281   1.220   4.433   3.886 -0.2654 -0.6593 -1.7409
 6574TIP3    H241282   1.290   4.362   3.999 -1.2335  1.1844  0.0770
 6575TIP3   OH241283   2.805   4.585   1.987 -0.4840 -0.6525 -0.3875
 6575TIP3    H141284   2.764   4.607   2.071 -1.8446  0.2592 -1.2426
 6575TIP3    H241285   2.754   4.511   1.954 -2.7702  1.5644 -2.2634
 6576TIP3   OH241286   6.370   3.407   0.496  0.3795  0.5247 -0.1906
 6576TIP3    H141287   6.451   3.380   0.540  1.0802 -0.0191 -1.7530
 6576TIP3    H241288   6.390   3.401   0.403 -0.6455  2.9058 -0.6244
 6577TIP3   OH241289   1.093   3.560   2.109 -0.8316 -0.5151  0.7236
 6577TIP3    H141290   1.010   3.539   2.066 -1.2710  1.8746  0.2596
 6577TIP3    H241291   1.078   3.537   2.201 -2.2108  0.3265  0.7434
 6578TIP3   OH241292   2.519   3.877   1.028  0.4919 -0.1318  0.4392
 6578TIP3    H141293   2.607   3.890   1.065  0.6888  3.3526 -0.8986
 6578TIP3    H241294   2.461   3.929   1.084 -0.3022 -0.3240 -0.1810
 6579TIP3   OH241295   0.093   1.688   2.883 -0.3513 -0.0844 -0.4776
 6579TIP3    H141296   0.162   1.721   2.940 -1.7938 -0.0683  1.3257
 6579TIP3    H241297   0.043   1.627   2.937 -2.4259  0.7336 -1.3497
 6580TIP3   OH241298   4.504   0.328   1.248  0.4016 -0.3109  0.3246
 6580TIP3    H141299   4.417   0.363   1.228  0.4576  0.7041  1.6795
 6580TIP3    H241300   4.534   0.290   1.166 -1.0733 -0.1560 -0.3294
 6581TIP3   OH241301   3.746   2.381   0.734  0.8463 -0.3462  0.4964
 6581TIP3    H141302   3.820   2.329   0.703  1.9418  1.2217  0.3857
 6581TIP3    H241303   3.750   2.462   0.684 -0.3868  0.1690  1.1744
 6582TIP3   OH241304   5.219   0.946   0.996  0.1323  0.4775 -0.6015
 6582TIP3    H141305   5.225   0.979   0.906  1.9169 -1.0999 -1.1393
 6582TIP3    H241306   5.138   0.897   0.998 -0.3943  1.2997 -1.0578
 6583TIP3   OH241307   5.026   5.220   3.368 -0.1466  0.0701  0.5088
 6583TIP3    H141308   5.062   5.308   3.370  1.3361 -0.4828  0.1404
 6583TIP3    H241309   5.045   5.184   3.455  0.1766 -0.2022  0.3331
 6584TIP3   OH241310   0.312   4.408   3.164  0.2398 -0.0553 -0.8057
 6584TIP3    H141311   0.319   4.314   3.185 -0.1365 -0.9723 -4.2015
 6584TIP3    H241312   0.401   4.441   3.178  0.2975 -0.8015  0.8129
 6585TIP3   OH241313   2.707   2.973   2.871  0.0503  0.3862 -0.4641
 6585TIP3    H141314   2.803   2.974   2.878  0.0336 -0.4357 -0.0672
 6585TIP3    H241315   2.681   3.063   2.894  0.7632  0.8032 -1.2410
 6586TIP3   OH241316   1.778   5.996   3.096  0.1389  0.1610 -0.2589
 6586TIP3    H141317   1.799   5.997   3.189 -0.1829  1.8210 -0.1756
 6586TIP3    H241318   1.690   5.959   3.092  0.0101  0.4226  0.1273
 6587TIP3   OH241319   6.302   3.969   1.539  0.1202  0.2148 -0.2023
 6587TIP3    H141320   6.391   3.956   1.506 -0.8872  0.6488 -3.4530
 6587TIP3    H241321   6.304   4.054   1.582  1.0610  0.6528 -1.0820
 6588TIP3   OH241322   4.037   0.050   2.702 -0.5085 -0.3115 -0.0506
 6588TIP3    H141323   3.958   0.013   2.740  0.0835 -0.7795  0.7389
 6588TIP3    H241324   4.075  -0.020   2.649 -0.6075 -0.0939 -0.4161
 6589TIP3   OH241325   6.814   0.375   3.957  0.1913 -0.4981 -0.2646
 6589TIP3    H141326   6.770   0.399   4.038  0.7490  0.5863 -0.2555
 6589TIP3    H241327   6.906   0.367   3.981  0.8539  2.6850 -1.2526
 6590TIP3   OH241328   2.440   4.420   1.791 -0.0348  0.3783 -0.2601
 6590TIP3    H141329   2.462   4.497   1.737  0.0070  1.2695  0.9968
 6590TIP3    H241330   2.443   4.452   1.881  1.5683 -1.5004  0.4034
 6591TIP3   OH241331   4.924   3.866   1.901  0.7658 -0.1999 -0.1472
 6591TIP3    H141332   4.938   3.798   1.836 -1.0036  1.4725 -2.4563
 6591TIP3    H241333   4.920   3.947   1.851  1.1095  1.4218  2.2834
 6592TIP3   OH241334   4.678   5.577   4.811  0.1731 -0.7281  0.3062
 6592TIP3    H141335   4.737   5.611   4.878  0.4292  1.5650 -0.9818
 6592TIP3    H241336   4.735   5.550   4.740 -0.2593  0.6373 -0.5821
 6593TIP3   OH241337   0.745   2.009   3.678  0.3294  0.2745 -0.8147
 6593TIP3    H141338   0.665   2.062   3.683  0.5638  0.6093 -0.5914
 6593TIP3    H241339   0.777   2.006   3.768 -0.2921 -1.2004 -0.6095
 6594TIP3   OH241340   3.204   6.663   0.001 -0.4711 -0.0725 -0.3328
 6594TIP3    H141341   3.131   6.615  -0.039  0.3974 -1.0202 -0.8394
 6594TIP3    H241342   3.277   6.600   0.000  0.3040  0.7926  0.3116
 6595TIP3   OH241343   6.269   5.794   1.952  0.1882  0.4328 -0.3005
 6595TIP3    H141344   6.238   5.857   2.017 -1.6997 -0.9890  0.2606
 6595TIP3    H241345   6.347   5.755   1.990 -0.0133  0.7182  0.4092
 6596TIP3   OH241346   2.369   0.233   1.323 -0.1147  0.0312  0.6276
 6596TIP3    H141347   2.298   0.226   1.259  1.5932 -0.8135 -1.3130
 6596TIP3    H241348   2.367   0.151   1.371  0.4563 -0.6671 -0.4933
 6597TIP3   OH241349   2.493   4.198   3.508 -0.0060  0.2589  0.3191
 6597TIP3    H141350   2.561   4.162   3.566 -0.2407 -0.3822  0.2066
 6597TIP3    H241351   2.467   4.124   3.453 -0.7180  0.5281  0.2875
 6598TIP3   OH241352   2.067   6.114   3.274 -0.5380  0.1045  0.4069
 6598TIP3    H141353   2.137   6.177   3.283  0.4298 -1.0277  1.0645
 6598TIP3    H241354   2.099   6.051   3.209 -1.7116  0.5455 -0.6644
 6599TIP3   OH241355   5.213   3.837   3.943  0.0884 -0.0606  0.2445
 6599TIP3    H141356   5.214   3.834   3.847  0.6874 -0.5568  0.2628
 6599TIP3    H241357   5.196   3.929   3.963  2.4315  0.5584 -0.3377
 6600TIP3   OH241358   2.727   0.005   4.398 -0.1956  0.1676  0.2497
 6600TIP3    H141359   2.715  -0.060   4.329 -0.6028  0.0632  0.4174
 6600TIP3    H241360   2.682  -0.032   4.474 -0.2773  0.5630  0.3953
 6601TIP3   OH241361   0.421   4.021   1.597 -0.3360  0.5337  1.0347
 6601TIP3    H141362   0.467   4.038   1.514 -1.3148  1.0962  0.5885
 6601TIP3    H241363   0.444   4.095   1.653  2.4095 -1.0708  2.2677
 6602TIP3   OH241364   5.474   3.951   1.646 -0.0133  0.3153  0.2644
 6602TIP3    H141365   5.543   3.912   1.593  0.2945  1.6723 -0.3766
 6602TIP3    H241366   5.448   3.882   1.707  1.2147 -0.5343 -0.1459
 6603TIP3   OH241367   3.285   0.130   0.980  0.4647  0.0463 -0.2523
 6603TIP3    H141368   3.282   0.210   1.033  0.7350  0.1108 -0.3377
 6603TIP3    H241369   3.193   0.110   0.962  0.4105  0.4884 -0.4624
 6604TIP3   OH241370   1.329   6.874   4.577 -0.0182  0.4267 -0.4705
 6604TIP3    H141371   1.341   6.898   4.485 -0.3700 -0.2610 -0.6966
 6604TIP3    H241372   1.239   6.842   4.582  0.4582 -0.9045 -0.1812
 6605TIP3   OH241373   4.611   4.366   1.115  0.3615  0.2750 -0.5368
 6605TIP3    H141374   4.581   4.325   1.034  1.2703 -0.3004 -0.5935
 6605TIP3    H241375   4.536   4.358   1.175 -0.7744  1.8121 -1.6652
 6606TIP3   OH241376   3.575   4.093   2.792  0.4578  0.7428 -0.0172
 6606TIP3    H141377   3.598   4.184   2.777  1.0754  1.0467  2.3410
 6606TIP3    H241378   3.555   4.088   2.886  2.1219 -1.8542  0.3116
 6607TIP3   OH241379   5.010   0.630   1.915 -0.1240  0.4261  0.9139
 6607TIP3    H141380   5.104   0.613   1.903 -0.9769 -3.0297 -2.9104
 6607TIP3    H241381   4.975   0.548   1.951 -2.1111  0.2667 -1.2007
 6608TIP3   OH241382   5.322   2.244   1.886 -0.2607  0.3601  0.3736
 6608TIP3    H141383   5.352   2.316   1.940  0.3938  0.0206  0.4686
 6608TIP3    H241384   5.283   2.182   1.948  1.3873 -0.4961  0.6174
 6609TIP3   OH241385   1.083   0.329   2.006  0.0528 -0.2358  0.0263
 6609TIP3    H141386   1.038   0.399   1.959  0.6463 -0.4027 -0.8101
 6609TIP3    H241387   1.056   0.340   2.098 -1.1613  0.0546 -0.3557
 6610TIP3   OH241388   3.803   0.264   3.514  0.1089  0.5066 -0.1254
 6610TIP3    H141389   3.707   0.266   3.504  0.0020 -2.5543 -0.6430
 6610TIP3    H241390   3.836   0.270   3.425  0.2436 -1.0292 -0.2046
 6611TIP3   OH241391   0.233   2.838   2.332 -0.4507 -0.0908 -0.1153
 6611TIP3    H141392   0.212   2.783   2.256  0.7487 -0.4156 -0.2353
 6611TIP3    H241393   0.315   2.881   2.308 -0.9133  1.0873  0.3431
 6612TIP3   OH241394   2.654   5.488   3.679 -0.3339  0.0840 -0.4883
 6612TIP3    H141395   2.698   5.464   3.598  0.1255 -1.4254  0.1633
 6612TIP3    H241396   2.651   5.407   3.729 -0.1718  1.0816  1.2113
 6613TIP3   OH241397   2.506   5.745   4.061  0.1615  0.2335 -0.0963
 6613TIP3    H141398   2.484   5.810   4.128 -1.4379  1.0451 -1.3260
 6613TIP3    H241399   2.462   5.665   4.091 -0.1528  0.4623  0.0702
 6614TIP3   OH241400   5.007   6.858   4.172 -0.3551 -0.3510 -0.5309
 6614TIP3    H141401   4.918   6.887   4.151  0.4271  1.3263 -1.7023
 6614TIP3    H241402   4.994   6.788   4.236 -2.5980 -1.3304 -1.9090
 6615TIP3   OH241403   0.818   0.723   1.268 -0.0734  0.2646  0.0625
 6615TIP3    H141404   0.797   0.796   1.209 -0.5005  0.1001  0.0051
 6615TIP3    H241405   0.890   0.678   1.225 -1.2198 -0.6172 -1.0177
 6616TIP3   OH241406   1.380   1.814   3.430 -0.2941 -0.0680  0.0921
 6616TIP3    H141407   1.298   1.863   3.433 -0.8939 -1.0394  0.1878
 6616TIP3    H241408   1.443   1.868   3.477 -0.7813  0.8774 -0.3348
 6617TIP3   OH241409   6.521   3.049   3.846 -0.2497 -0.5105  0.2957
 6617TIP3    H141410   6.614   3.042   3.869 -0.9168 -2.0927  2.9927
 6617TIP3    H241411   6.486   3.113   3.907 -1.4340 -2.0886  1.3399
 6618TIP3   OH241412   3.557   2.064   1.229  0.1850  0.0882  0.2250
 6618TIP3    H141413   3.496   2.061   1.155  0.5192 -0.5718 -0.0382
 6618TIP3    H241414   3.601   2.149   1.220 -0.6445  0.5417  0.3854
 6619TIP3   OH241415   1.281   0.691   3.519 -0.4208 -0.1905 -0.2086
 6619TIP3    H141416   1.209   0.733   3.472  0.1525  0.8866 -0.1764
 6619TIP3    H241417   1.344   0.668   3.451 -0.0268  0.4759 -0.0801
 6620TIP3   OH241418   6.098   5.201   2.816  0.3568  0.0803 -0.0281
 6620TIP3    H141419   6.007   5.224   2.795  0.2655 -1.5114 -1.6215
 6620TIP3    H241420   6.108   5.223   2.909 -1.5817  0.4968  0.1205
 6621TIP3   OH241421   6.462   3.905   2.507  0.3049 -0.4077 -0.0391
 6621TIP3    H141422   6.409   3.884   2.430  2.0648 -0.0567 -1.3891
 6621TIP3    H241423   6.467   3.823   2.556 -1.3027 -0.4924  0.0532
 6622TIP3   OH241424   5.313   6.631   2.028  0.1797  0.4691 -0.6062
 6622TIP3    H141425   5.381   6.667   2.085 -1.1658 -1.2533  2.3441
 6622TIP3    H241426   5.232   6.674   2.057 -0.7838 -1.6072 -0.0413
 6623TIP3   OH241427   2.198   0.852   2.306  0.2725  0.3283 -0.2665
 6623TIP3    H141428   2.133   0.798   2.261  0.6609  0.6639 -1.2621
 6623TIP3    H241429   2.165   0.941   2.298  0.1661  0.3583  0.4421
 6624TIP3   OH241430   3.320   6.095   1.373  0.3635 -0.2964  0.1316
 6624TIP3    H141431   3.227   6.114   1.381  0.4676 -0.2215  1.3200
 6624TIP3    H241432   3.331   6.066   1.282 -0.7565 -0.0234 -0.1027
 6625TIP3   OH241433   5.263   2.987   3.063 -0.0924 -0.5610 -0.8496
 6625TIP3    H141434   5.263   2.973   3.158  0.2248  0.0872 -0.7459
 6625TIP3    H241435   5.353   3.013   3.043 -0.1045 -0.9062 -1.3623
 6626TIP3   OH241436   5.886   1.867   0.574  0.1445  0.0679  0.7849
 6626TIP3    H141437   5.897   1.900   0.664  2.1869 -2.6756  1.6929
 6626TIP3    H241438   5.798   1.830   0.573 -0.2036  0.8532  1.4061
 6627TIP3   OH241439   1.481   2.430   0.229 -0.5481 -0.0104 -0.2632
 6627TIP3    H141440   1.528   2.349   0.214  0.1068 -0.4911  3.5445
 6627TIP3    H241441   1.389   2.403   0.237 -0.7456  0.1027 -1.8015
 6628TIP3   OH241442   3.812   2.074   8.236  0.0294 -0.7840  0.5087
 6628TIP3    H141443   3.881   2.140   8.233 -0.4703 -0.2671  0.1672
 6628TIP3    H241444   3.809   2.038   8.147  0.6361 -1.6406  0.8117
 6629TIP3   OH241445   3.965   0.670   2.146  0.2288  0.3241  0.5110
 6629TIP3    H141446   4.039   0.684   2.086 -1.1875  1.7183 -1.0197
 6629TIP3    H241447   3.965   0.748   2.202  0.1695  0.1226  0.7916
 6630TIP3   OH241448   1.687   1.205   0.705 -0.0669 -0.1397 -0.3728
 6630TIP3    H141449   1.652   1.293   0.708  1.7333  0.6842 -1.5343
 6630TIP3    H241450   1.699   1.180   0.797 -1.1182  0.5784 -0.0278
 6631TIP3   OH241451   1.721   3.554   2.128 -0.1521 -0.7521  0.2765
 6631TIP3    H141452   1.642   3.573   2.177 -0.5359 -0.2081 -0.5418
 6631TIP3    H241453   1.691   3.501   2.054  0.1313  0.1252 -0.4721
 6632TIP3   OH241454   2.844   5.514   4.201 -0.0285  0.0734 -0.4401
 6632TIP3    H141455   2.935   5.502   4.172 -0.7590 -4.3639 -1.4919
 6632TIP3    H241456   2.798   5.546   4.123  0.1436 -0.2718 -0.6845
 6633TIP3   OH241457   0.545   6.478   2.380 -0.0582 -0.5817 -0.6519
 6633TIP3    H141458   0.587   6.392   2.370  1.3628  0.0637 -0.5999
 6633TIP3    H241459   0.610   6.530   2.427 -0.4977  0.8040 -1.5268
 6634TIP3   OH241460   3.301   4.440   1.420  0.2452  0.1137 -0.3318
 6634TIP3    H141461   3.278   4.457   1.328 -0.1932 -1.8592 -0.6289
 6634TIP3    H241462   3.240   4.372   1.448 -0.0475  1.1199  1.6596
 6635TIP3   OH241463   6.634   5.252   3.992 -0.0147  0.1741  0.0463
 6635TIP3    H141464   6.691   5.280   4.063 -0.7883  1.8233  0.0742
 6635TIP3    H241465   6.585   5.179   4.028  0.1698  0.4765  0.9477
 6636TIP3   OH241466   2.121   2.184   2.721 -0.5459 -0.3334 -0.0808
 6636TIP3    H141467   2.063   2.203   2.795  0.8258  2.9568  0.3047
 6636TIP3    H241468   2.190   2.129   2.758  0.1831  1.3574  1.1872
 6637TIP3   OH241469   1.675   5.332   4.463  0.6461  0.2625 -0.3294
 6637TIP3    H141470   1.619   5.400   4.426 -0.4689 -0.5806 -0.2321
 6637TIP3    H241471   1.695   5.275   4.389  0.5096 -0.0173 -0.1510
 6638TIP3   OH241472   3.291   3.142   0.916 -0.0625  0.7948  0.0958
 6638TIP3    H141473   3.251   3.093   0.988 -1.5686 -0.1667 -1.3246
 6638TIP3    H241474   3.383   3.113   0.915 -0.2336  0.1813  1.0770
 6639TIP3   OH241475   4.555   5.785   4.331  0.3397  0.1172  0.2865
 6639TIP3    H141476   4.465   5.775   4.361 -0.3100 -1.1921 -1.8396
 6639TIP3    H241477   4.547   5.806   4.238  2.2428  0.8973  0.2510
 6640TIP3   OH241478   3.645   5.782   1.234  0.0353  0.0734 -0.2248
 6640TIP3    H141479   3.624   5.865   1.191 -0.5034  0.7492  1.2771
 6640TIP3    H241480   3.736   5.765   1.212  0.6507  1.9091  0.7427
 6641TIP3   OH241481   1.521   4.642   1.432  0.0158  0.4438 -0.1936
 6641TIP3    H141482   1.475   4.704   1.375 -0.8747 -0.5489 -0.5733
 6641TIP3    H241483   1.610   4.677   1.438 -0.4128  1.6460 -0.5663
 6642TIP3   OH241484   4.936   3.301   1.663  0.4729 -0.2665 -0.2978
 6642TIP3    H141485   4.903   3.375   1.612  0.4308  1.2290  1.7682
 6642TIP3    H241486   5.018   3.333   1.701  0.6883 -1.4653  0.2833
 6643TIP3   OH241487   5.496   1.976   2.319  0.0043  0.5303  0.4460
 6643TIP3    H141488   5.523   2.044   2.381  1.3739  1.2203 -0.8432
 6643TIP3    H241489   5.460   1.907   2.374  1.1742  1.1026  2.0295
 6644TIP3   OH241490   5.355   0.166   2.776 -0.3905 -0.0305  0.2139
 6644TIP3    H141491   5.262   0.185   2.765 -0.7359 -1.7407 -0.1049
 6644TIP3    H241492   5.357   0.079   2.816  1.0730 -0.8671 -1.5422
 6645TIP3   OH241493   3.155   5.176   1.153 -0.1359  0.3859 -0.1584
 6645TIP3    H141494   3.241   5.192   1.114  0.4711  2.4877  1.8005
 6645TIP3    H241495   3.115   5.262   1.160 -1.2804 -0.2076  1.3846
 6646TIP3   OH241496   3.107   0.760   1.864  0.0352 -0.3772  0.4565
 6646TIP3    H141497   3.193   0.742   1.902 -0.1736  0.7887  1.5530
 6646TIP3    H241498   3.045   0.729   1.930 -0.4254 -1.5509 -0.4842
 6647TIP3   OH241499   0.664   1.917   3.425  1.3129 -0.3980 -0.7065
 6647TIP3    H141500   0.571   1.933   3.434  1.1500 -0.4062 -2.0764
 6647TIP3    H241501   0.702   1.944   3.508 -0.1163 -2.1593  0.5956
 6648TIP3   OH241502   4.842   0.574   2.945  0.2798  0.4136 -0.1194
 6648TIP3    H141503   4.920   0.607   2.991  0.2447  2.3985 -1.3519
 6648TIP3    H241504   4.788   0.652   2.931 -0.3362 -0.3400 -2.2961
 6649TIP3   OH241505   6.158   1.367   1.747 -0.5031  0.1583  0.4492
 6649TIP3    H141506   6.125   1.455   1.729 -0.3027  0.0695 -0.3632
 6649TIP3    H241507   6.250   1.370   1.723  0.0209  0.2810  2.2991
 6650TIP3   OH241508   2.165   3.517   4.055 -0.1050  0.2271 -0.5192
 6650TIP3    H141509   2.123   3.432   4.039 -1.4347  0.6444  0.5372
 6650TIP3    H241510   2.250   3.494   4.092 -0.4524 -0.6679 -0.2234
 6651TIP3   OH241511   4.778   0.986   1.151 -0.1120 -0.2800 -0.3046
 6651TIP3    H141512   4.754   0.933   1.075  0.9822 -1.7002  0.2787
 6651TIP3    H241513   4.834   1.055   1.115 -0.8357 -0.0270 -0.9732
 6652TIP3   OH241514   6.071   0.456   2.706 -0.1168  0.3471 -0.3804
 6652TIP3    H141515   5.977   0.452   2.690 -0.0298 -3.0564 -0.7161
 6652TIP3    H241516   6.108   0.390   2.648  2.2057 -0.0854  1.4594
 6653TIP3   OH241517   1.560   4.006   2.087  0.4968  0.1595  0.5772
 6653TIP3    H141518   1.617   3.930   2.081 -1.2624 -1.1866  0.3119
 6653TIP3    H241519   1.594   4.056   2.161  1.1247 -1.3387  1.3261
 6654TIP3   OH241520   3.718   5.069   0.886  0.3534 -0.1909 -0.1937
 6654TIP3    H141521   3.792   5.009   0.896  0.6037 -0.0758 -1.1795
 6654TIP3    H241522   3.686   5.052   0.798 -1.3085 -0.7832  0.4946
 6655TIP3   OH241523   2.959   6.689   1.910  0.0048  0.0519  0.4353
 6655TIP3    H141524   3.047   6.698   1.947  0.8411  1.3635 -1.6352
 6655TIP3    H241525   2.956   6.599   1.878  0.6738  0.0411  0.3843
 6656TIP3   OH241526   5.289   4.485   1.874  0.7128 -0.8629 -0.2012
 6656TIP3    H141527   5.250   4.398   1.864  0.4833 -0.9131  0.9504
 6656TIP3    H241528   5.223   4.535   1.921  1.3467 -0.4402  0.2591
 6657TIP3   OH241529   4.187   1.869   2.741  0.6920 -0.0893  0.0819
 6657TIP3    H141530   4.247   1.884   2.814  1.3326 -1.5993 -0.0997
 6657TIP3    H241531   4.228   1.800   2.689 -0.0148  0.5743 -1.4267
 6658TIP3   OH241532   5.569   2.591   2.572  0.1682  0.1878 -0.1560
 6658TIP3    H141533   5.646   2.637   2.538  0.0213  1.6130  1.3088
 6658TIP3    H241534   5.505   2.596   2.501  0.9514  0.1445 -0.8929
 6659TIP3   OH241535   4.993   4.980   0.321 -0.0609  1.0340  0.1072
 6659TIP3    H141536   4.915   4.952   0.273  0.5447  0.0481 -0.3251
 6659TIP3    H241537   5.043   5.031   0.257  0.3603  0.3979 -0.0791
 6660TIP3   OH241538   3.684   1.962   0.897 -0.0086  0.1889  0.2577
 6660TIP3    H141539   3.709   1.986   0.808  0.2845 -1.2706 -0.0759
 6660TIP3    H241540   3.735   2.021   0.953  0.1515  0.8068 -0.5179
 6661TIP3   OH241541   2.480   1.493   2.717 -0.7377 -0.1011 -0.4357
 6661TIP3    H141542   2.488   1.557   2.788  0.5170  0.7137 -1.2751
 6661TIP3    H241543   2.416   1.429   2.749  1.5617 -1.1368  2.4378
 6662TIP3   OH241544   4.858   0.288   0.613 -0.0266  0.0915  0.1264
 6662TIP3    H141545   4.936   0.231   0.614  0.3081  0.5239  1.9651
 6662TIP3    H241546   4.862   0.331   0.528 -0.8340 -3.2969 -1.8275
 6663TIP3   OH241547   0.272   2.547   4.254  0.3572  0.0297 -0.0985
 6663TIP3    H141548   0.287   2.460   4.217  0.8489 -0.5673  1.4185
 6663TIP3    H241549   0.183   2.544   4.288 -0.7505  1.1518 -2.6331
 6664TIP3   OH241550   4.263   5.605   0.814  0.9243 -0.4130 -0.1829
 6664TIP3    H141551   4.255   5.589   0.720  1.7388  1.4209 -0.6201
 6664TIP3    H241552   4.203   5.678   0.830  2.2406  0.6116  0.2920
 6665TIP3   OH241553   0.749   4.149   1.035  0.3367  0.5996  0.3999
 6665TIP3    H141554   0.681   4.215   1.051 -0.9097 -0.7731  1.0105
 6665TIP3    H241555   0.744   4.132   0.941 -2.0981 -1.3695  0.7602
 6666TIP3   OH241556   0.678   3.969   3.227  0.5735 -0.0310  0.3240
 6666TIP3    H141557   0.721   4.026   3.291 -1.2038  1.8202 -0.0256
 6666TIP3    H241558   0.636   3.901   3.280  0.9414  0.1992  0.9250
 6667TIP3   OH241559   5.656   6.636   2.091  0.0239  0.1989 -0.0341
 6667TIP3    H141560   5.653   6.553   2.045 -1.2445  1.3942 -2.2503
 6667TIP3    H241561   5.587   6.629   2.157 -1.7856  0.3282 -1.8309
 6668TIP3   OH241562   6.144   5.195   4.758 -0.1040  0.0568  0.1265
 6668TIP3    H141563   6.163   5.185   4.851 -0.0904 -1.1875  0.0058
 6668TIP3    H241564   6.095   5.116   4.735  0.1613  0.2033 -0.9894
 6669TIP3   OH241565   4.892   5.547   4.634  0.5781  0.2628  0.5013
 6669TIP3    H141566   4.943   5.472   4.605  0.1449  0.2773 -0.3249
 6669TIP3    H241567   4.957   5.609   4.667  0.8937 -0.7371  1.8474
 6670TIP3   OH241568   0.978   5.912   4.332 -0.4245  0.2280  0.1109
 6670TIP3    H141569   0.947   5.910   4.423  0.9830  1.3464  0.6470
 6670TIP3    H241570   1.044   5.842   4.328 -0.8094 -0.1246 -0.1945
 6671TIP3   OH241571   3.787   0.245   2.825 -0.2961 -0.1541 -0.0579
 6671TIP3    H141572   3.808   0.152   2.812 -0.9340 -0.4132  0.6781
 6671TIP3    H241573   3.745   0.248   2.911  1.5820  1.1331  0.8746
 6672TIP3   OH241574   3.589   6.801   4.325 -0.2843 -0.2966 -0.3377
 6672TIP3    H141575   3.649   6.869   4.296  1.6787 -2.1501 -0.9214
 6672TIP3    H241576   3.606   6.793   4.419 -0.1689 -0.2823 -0.3567
 6673TIP3   OH241577   3.630   1.686   8.368 -0.4708 -0.1976 -0.5769
 6673TIP3    H141578   3.726   1.679   8.367 -0.4856 -0.3733 -1.0882
 6673TIP3    H241579   3.602   1.617   8.428 -0.1965  1.0850  1.0918
 6674TIP3   OH241580   3.151   1.027   0.791 -0.8418  0.1647 -0.2489
 6674TIP3    H141581   3.058   1.024   0.813 -0.8152  0.4607 -0.0986
 6674TIP3    H241582   3.194   1.048   0.873 -0.7067  0.8338 -0.4884
 6675TIP3   OH241583   3.321   3.610   0.758  0.1440 -0.2960  0.1298
 6675TIP3    H141584   3.371   3.605   0.677 -0.5352  0.0290 -0.3107
 6675TIP3    H241585   3.351   3.691   0.800  0.8672 -0.7198  0.4679
 6676TIP3   OH241586   0.351   1.247   1.581 -0.3706  0.1201 -0.0638
 6676TIP3    H141587   0.290   1.217   1.513 -0.2660 -0.3979  0.0658
 6676TIP3    H241588   0.308   1.222   1.663  0.0542 -0.3324  0.0264
 6677TIP3   OH241589   4.177   2.022   3.139 -0.1254 -0.1044 -0.5293
 6677TIP3    H141590   4.111   2.012   3.071 -0.3209  3.6260 -1.0961
 6677TIP3    H241591   4.140   2.086   3.199  1.3643 -0.9571  1.4160
 6678TIP3   OH241592   5.080   1.407   3.798  0.0891 -0.0641 -0.0419
 6678TIP3    H141593   5.067   1.365   3.713 -0.1918 -0.2312  0.0812
 6678TIP3    H241594   5.109   1.337   3.856 -1.7170 -0.4176  0.5099
 6679TIP3   OH241595   6.751   4.458   1.859 -0.5171  0.0107 -0.0421
 6679TIP3    H141596   6.767   4.450   1.765 -1.7533  1.7165 -0.4645
 6679TIP3    H241597   6.684   4.391   1.877 -2.0300  1.1993 -0.9300
 6680TIP3   OH241598   1.917   1.996   0.765  0.5017  0.4057  0.4602
 6680TIP3    H141599   1.879   1.977   0.679  1.3405 -0.2660  0.2334
 6680TIP3    H241600   1.938   2.090   0.761  0.5383  0.3790 -0.0693
 6681TIP3   OH241601   6.686   2.516   3.255  0.1555 -0.1232 -0.0660
 6681TIP3    H141602   6.641   2.544   3.175 -1.8162 -0.0102  1.0416
 6681TIP3    H241603   6.651   2.573   3.324  0.8105 -1.1208  1.1219
 6682TIP3   OH241604   6.615   5.095   3.741  0.8800 -0.4647 -0.0559
 6682TIP3    H141605   6.631   5.009   3.781 -1.4256 -0.1996  1.6340
 6682TIP3    H241606   6.633   5.158   3.811 -0.1213  0.2274 -0.3889
 6683TIP3   OH241607   5.809   6.902   3.861  0.1405 -0.0099 -0.3216
 6683TIP3    H141608   5.814   6.807   3.859 -1.2816 -0.0923 -2.2457
 6683TIP3    H241609   5.756   6.922   3.938  0.1458 -0.7854 -0.1096
 6684TIP3   OH241610   6.365   2.521   3.717 -0.6847  0.2762 -0.1685
 6684TIP3    H141611   6.298   2.498   3.652 -0.1664  1.5771 -1.2060
 6684TIP3    H241612   6.393   2.609   3.692  2.0891 -0.5579 -0.3695
 6685TIP3   OH241613   1.669   3.745   0.797  0.1740  0.0046 -0.3634
 6685TIP3    H141614   1.639   3.834   0.815  1.6917  0.4674  0.0248
 6685TIP3    H241615   1.683   3.742   0.703  0.5154  0.3054 -0.3224
 6686TIP3   OH241616   2.897   2.609   3.765  0.2309  0.4013 -0.3979
 6686TIP3    H141617   2.922   2.522   3.798  0.1453  1.2166  2.0040
 6686TIP3    H241618   2.978   2.644   3.727  1.2291  0.5465  1.6775
 6687TIP3   OH241619   6.807   6.702   3.272  0.4492  0.1346 -0.1929
 6687TIP3    H141620   6.748   6.709   3.197 -0.4855 -1.4736  0.3581
 6687TIP3    H241621   6.884   6.657   3.238  0.3444  0.0847 -0.3645
 6688TIP3   OH241622   0.031   2.534   3.212  0.3965  0.1642 -0.7700
 6688TIP3    H141623  -0.054   2.506   3.176 -0.0861  1.5445 -0.7491
 6688TIP3    H241624   0.070   2.586   3.142  1.8250 -1.4639 -1.2635
 6689TIP3   OH241625   1.476   0.241   2.244 -0.3628  0.0147  0.0420
 6689TIP3    H141626   1.476   0.268   2.152  1.3045 -0.8856 -0.2592
 6689TIP3    H241627   1.384   0.231   2.266 -0.7711 -0.8574 -1.8753
 6690TIP3   OH241628   5.025   5.079   0.583 -0.5187 -0.1658  0.0151
 6690TIP3    H141629   5.076   5.033   0.516  1.0516  0.4558  0.7427
 6690TIP3    H241630   4.935   5.053   0.565  0.0639 -1.6414 -1.0606
 6691TIP3   OH241631   4.889   6.516   0.924  0.0552  0.1467  0.3343
 6691TIP3    H141632   4.881   6.422   0.907  0.7918  0.2083 -0.4267
 6691TIP3    H241633   4.938   6.550   0.849 -1.1112  1.3271  0.0741
 6692TIP3   OH241634   2.039   3.545   1.569 -0.3210  0.3923  0.3285
 6692TIP3    H141635   1.986   3.536   1.489  0.6371 -1.7371 -0.1070
 6692TIP3    H241636   2.056   3.639   1.575 -0.4554  0.6107 -1.9485
 6693TIP3   OH241637   3.712   3.486   3.743  0.4028  0.6661 -0.0384
 6693TIP3    H141638   3.754   3.417   3.794 -1.0530 -0.4275 -0.2622
 6693TIP3    H241639   3.765   3.564   3.760  1.1407 -0.1326  1.5062
 6694TIP3   OH241640   4.662   0.612   1.516 -0.2128 -0.9265 -0.0001
 6694TIP3    H141641   4.693   0.664   1.442 -2.8230 -0.5720 -0.9524
 6694TIP3    H241642   4.706   0.650   1.592  0.5407  0.4448 -1.0789
 6695TIP3   OH241643   6.692   1.242   0.808  0.2111  0.0959  0.1725
 6695TIP3    H141644   6.683   1.202   0.721 -0.1637  1.4704 -0.4370
 6695TIP3    H241645   6.766   1.301   0.800  0.0679  0.3631  0.7499
 6696TIP3   OH241646   2.582   2.690   0.915  0.0909 -0.4339  0.1837
 6696TIP3    H141647   2.570   2.777   0.952 -0.9416 -0.8961  0.9745
 6696TIP3    H241648   2.622   2.706   0.829  1.6618  0.7066  1.0728
 6697TIP3   OH241649   4.345   3.368   1.376 -0.2483  0.4892 -0.2420
 6697TIP3    H141650   4.345   3.298   1.312  0.7126  0.0631  0.1956
 6697TIP3    H241651   4.437   3.393   1.384 -0.0334 -0.7417  2.2900
 6698TIP3   OH241652   4.830   2.321   2.805  0.3479  0.1784  0.5358
 6698TIP3    H141653   4.812   2.408   2.843 -0.0706  0.5499 -0.4910
 6698TIP3    H241654   4.749   2.272   2.817  0.0471  0.4565 -0.2849
 6699TIP3   OH241655   2.908   6.004   1.838  0.3009 -0.3226  0.3396
 6699TIP3    H141656   2.863   6.046   1.912 -1.1126 -0.8502 -0.1772
 6699TIP3    H241657   2.880   6.054   1.762  1.7630  0.2250  0.1362
 6700TIP3   OH241658   0.947   4.751   3.472  0.2287  0.5198 -0.5275
 6700TIP3    H141659   0.975   4.678   3.527  2.0908  0.2087 -1.7826
 6700TIP3    H241660   1.007   4.822   3.494  0.5716  0.5969 -1.6222
 6701TIP3   OH241661   1.293   4.007   2.037 -0.4938 -0.2957  0.3510
 6701TIP3    H141662   1.388   4.002   2.050 -0.6941 -0.7018  1.7898
 6701TIP3    H241663   1.276   3.951   1.961  0.1532 -2.1343  1.5081
 6702TIP3   OH241664   0.424   4.337   4.172  0.0648 -0.4586 -0.3754
 6702TIP3    H141665   0.434   4.325   4.266 -0.5991 -1.4310 -0.4154
 6702TIP3    H241666   0.329   4.349   4.160  0.0740 -0.9771 -0.9834
 6703TIP3   OH241667   5.907   5.221   1.818 -0.3609  0.6866 -0.4111
 6703TIP3    H141668   5.852   5.298   1.805 -1.6353 -0.1280 -0.0133
 6703TIP3    H241669   5.867   5.175   1.892  0.3610 -0.3805 -0.6612
 6704TIP3   OH241670   4.783   5.780   3.257  0.0252  0.2327 -0.1626
 6704TIP3    H141671   4.761   5.688   3.271  0.0349  0.0242 -1.4229
 6704TIP3    H241672   4.868   5.778   3.213  1.2262  0.9436  2.0051
 6705TIP3   OH241673   2.248   5.304   8.487 -0.2404  0.0161 -0.4077
 6705TIP3    H141674   2.189   5.240   8.449  0.1436 -2.1020  2.2581
 6705TIP3    H241675   2.309   5.252   8.540  1.6680  2.4124 -0.0787
 6706TIP3   OH241676   5.922   3.603   4.066 -0.2373  0.3860  0.1960
 6706TIP3    H141677   5.942   3.685   4.020  2.0241  0.0541  0.4650
 6706TIP3    H241678   5.910   3.629   4.157 -2.5944  0.7565 -0.1469
 6707TIP3   OH241679   3.181   3.616   0.328  0.4438  0.3797 -0.0289
 6707TIP3    H141680   3.116   3.681   0.353 -0.0944  0.6055 -1.8967
 6707TIP3    H241681   3.137   3.559   0.265  1.4569 -0.7019  0.1857
 6708TIP3   OH241682   0.125   2.181   1.740 -0.2657 -0.1944  0.0982
 6708TIP3    H141683   0.049   2.191   1.796 -0.2682 -0.8599  0.2232
 6708TIP3    H241684   0.107   2.103   1.688  0.1663 -0.1444 -0.1378
 6709TIP3   OH241685   2.879   3.249   4.176  0.4111 -0.3929  0.0360
 6709TIP3    H141686   2.928   3.301   4.240 -0.0537 -0.1419  0.1936
 6709TIP3    H241687   2.812   3.309   4.143  1.9700  0.2000 -2.3186
 6710TIP3   OH241688   6.134   6.279   0.244 -0.1784 -0.2885 -0.2055
 6710TIP3    H141689   6.185   6.350   0.204  1.7633 -1.1649  0.5541
 6710TIP3    H241690   6.152   6.286   0.337  2.5487 -3.4485 -0.3095
 6711TIP3   OH241691   5.496   6.802   1.021  0.1005 -0.2362 -0.1726
 6711TIP3    H141692   5.549   6.866   1.070  0.2398 -1.2651  1.0894
 6711TIP3    H241693   5.550   6.781   0.945  2.2511 -2.2232  1.7185
 6712TIP3   OH241694   5.224   4.822   3.009 -0.0697 -0.3210  0.6508
 6712TIP3    H141695   5.167   4.854   3.079  0.3436  0.0285  0.8301
 6712TIP3    H241696   5.293   4.888   3.001 -0.0727 -0.3925 -0.0422
 6713TIP3   OH241697   4.300   2.677   2.295  0.1207  0.2332 -0.1445
 6713TIP3    H141698   4.393   2.669   2.315  0.2136  0.0330 -0.6449
 6713TIP3    H241699   4.295   2.752   2.236 -0.1663  0.9025  0.7038
 6714TIP3   OH241700   2.932   2.307   3.697 -0.2638 -0.4743 -0.2673
 6714TIP3    H141701   2.940   2.289   3.790 -1.2635  0.3116 -0.0031
 6714TIP3    H241702   3.015   2.349   3.673 -0.4776  0.4773  0.5714
 6715TIP3   OH241703   6.635   4.822   3.820  0.2448 -0.0280  0.3787
 6715TIP3    H141704   6.562   4.839   3.760  1.4246  1.9472 -0.6095
 6715TIP3    H241705   6.683   4.750   3.780 -1.3599 -1.7003  1.3023
 6716TIP3   OH241706   0.707   0.582   3.202  0.7185 -0.0909 -0.9026
 6716TIP3    H141707   0.735   0.601   3.292 -0.3162  0.9065 -0.7691
 6716TIP3    H241708   0.629   0.528   3.213  0.2910  0.4632 -1.1929
 6717TIP3   OH241709   6.317   3.211   1.163  0.2221 -0.3459  0.0383
 6717TIP3    H141710   6.412   3.224   1.167 -0.0129  1.4185  0.6382
 6717TIP3    H241711   6.281   3.274   1.225 -1.4606  0.5075 -1.6843
 6718TIP3   OH241712   3.556   5.947   2.675 -0.3735  0.0929 -0.0626
 6718TIP3    H141713   3.582   5.990   2.593 -1.5541  1.0047  0.0152
 6718TIP3    H241714   3.505   6.013   2.722 -1.1726 -0.9859  0.6394
 6719TIP3   OH241715   6.299   0.695   1.335  0.6267 -0.2545  0.0943
 6719TIP3    H141716   6.285   0.773   1.388  1.6313 -0.2434  0.3804
 6719TIP3    H241717   6.264   0.623   1.388 -0.3035 -0.0098 -0.1734
 6720TIP3   OH241718   6.819   4.154   3.439 -0.2902 -0.2697  0.0672
 6720TIP3    H141719   6.805   4.059   3.439 -1.6155 -0.0811  0.5495
 6720TIP3    H241720   6.822   4.179   3.531  1.5223 -0.0102 -0.0063
 6721TIP3   OH241721   6.020   2.528   4.176  0.3533 -0.1846 -0.6563
 6721TIP3    H141722   6.020   2.621   4.153 -1.2306 -0.0387 -0.1677
 6721TIP3    H241723   5.960   2.521   4.249  2.0497 -1.3111  0.7076
 6722TIP3   OH241724   6.061   3.917   0.170 -0.1937 -0.0377  0.3463
 6722TIP3    H141725   6.060   3.977   0.096  1.0872  0.8627  1.0346
 6722TIP3    H241726   5.969   3.912   0.198 -0.7301 -0.5315 -1.3740
 6723TIP3   OH241727   5.348   1.639   3.909 -0.1955  0.0285  0.1559
 6723TIP3    H141728   5.326   1.595   3.827 -2.7288  0.4033  0.5427
 6723TIP3    H241729   5.443   1.650   3.906 -0.0847 -0.9751 -2.1961
 6724TIP3   OH241730   4.918   5.254   0.151  0.4815 -0.1632  0.2276
 6724TIP3    H141731   4.955   5.292   0.072 -0.7262 -0.3797 -0.4614
 6724TIP3    H241732   4.900   5.328   0.208 -0.9994  0.2400 -0.7329
 6725TIP3   OH241733   6.494   3.159   3.211 -0.2188 -0.2346 -0.5620
 6725TIP3    H141734   6.494   3.128   3.301  2.6644  0.4928 -0.1864
 6725TIP3    H241735   6.583   3.194   3.198 -0.5904 -0.1221 -3.6144
 6726TIP3   OH241736   4.336   4.471   2.160 -0.1042 -0.0393  0.8456
 6726TIP3    H141737   4.277   4.531   2.114  2.9347  1.2997 -1.7073
 6726TIP3    H241738   4.346   4.510   2.247  0.9731  2.7138 -0.4023
 6727TIP3   OH241739   1.369   1.681   2.875  0.1273 -0.5440  0.3780
 6727TIP3    H141740   1.344   1.746   2.809  0.5725 -2.8630 -2.3169
 6727TIP3    H241741   1.288   1.635   2.895  0.3801 -1.4245 -0.5141
 6728TIP3   OH241742   0.921   1.877   3.284 -0.5632  0.4826  0.0089
 6728TIP3    H141743   0.926   1.824   3.364 -0.1069  1.4731  0.6523
 6728TIP3    H241744   0.831   1.908   3.282 -0.8284 -0.2827 -0.3607
 6729TIP3   OH241745   6.307   3.757   1.734  0.1310  0.5944  0.2714
 6729TIP3    H141746   6.291   3.784   1.643  0.1077  1.5149  0.5326
 6729TIP3    H241747   6.224   3.775   1.779  0.5346  1.3686  0.7369
 6730TIP3   OH241748   1.305   2.518   1.331  0.0298 -0.6412  0.9303
 6730TIP3    H141749   1.277   2.514   1.240  0.7736 -0.9144  0.7083
 6730TIP3    H241750   1.278   2.605   1.361 -0.1627 -0.5294  0.4377
 6731TIP3   OH241751   6.604   0.645   2.788 -0.0860  0.6175 -0.9791
 6731TIP3    H141752   6.627   0.700   2.862 -1.4316 -1.2312  0.9188
 6731TIP3    H241753   6.529   0.593   2.817  0.6632 -1.7472 -2.8355
 6732TIP3   OH241754   2.162   3.569   3.198 -0.1725  0.1320  0.1431
 6732TIP3    H141755   2.201   3.598   3.116 -0.3597  0.6311  0.2264
 6732TIP3    H241756   2.106   3.642   3.225 -0.2209 -0.0846  0.6381
 6733TIP3   OH241757   2.839   4.017   4.424 -0.3010  0.0374 -0.5386
 6733TIP3    H141758   2.859   4.060   4.507 -0.1113  0.7918 -0.9610
 6733TIP3    H241759   2.777   4.076   4.381  1.3750  0.8763 -1.9464
 6734TIP3   OH241760   3.713   3.140   0.755  0.4388  0.0714  0.1813
 6734TIP3    H141761   3.768   3.150   0.678  1.3438  0.2205  0.8272
 6734TIP3    H241762   3.751   3.200   0.819 -0.1848 -0.1841  0.8044
 6735TIP3   OH241763   2.954   6.036   3.942 -0.1680  0.3501 -1.1474
 6735TIP3    H141764   2.978   6.124   3.968  4.1801 -1.0154  0.2523
 6735TIP3    H241765   2.922   5.995   4.023 -0.3010  0.0834 -1.3336
 6736TIP3   OH241766   1.629   4.646   3.245 -0.0103  0.0738  0.6002
 6736TIP3    H141767   1.718   4.625   3.216  0.2818  2.1960 -0.2434
 6736TIP3    H241768   1.579   4.653   3.163 -1.0756 -1.4072  1.0780
 6737TIP3   OH241769   1.837   6.297   8.435  0.3376 -0.2221 -0.1140
 6737TIP3    H141770   1.892   6.343   8.371  0.0488  1.1697  0.5918
 6737TIP3    H241771   1.760   6.271   8.386  0.8958 -0.7639 -0.7343
 6738TIP3   OH241772   1.594   1.155   2.957  0.1634  0.3561  0.0667
 6738TIP3    H141773   1.508   1.195   2.944  0.2729  0.5554 -0.0630
 6738TIP3    H241774   1.576   1.073   3.002  0.0455  1.2455  1.7250
 6739TIP3   OH241775   6.087   6.180   0.873 -0.0850 -0.4891 -0.0854
 6739TIP3    H141776   6.166   6.144   0.913 -0.3610 -1.2048 -0.1671
 6739TIP3    H241777   6.017   6.121   0.902 -0.2797 -1.1155 -1.7102
 6740TIP3   OH241778   3.410   6.711   2.303  0.5277  0.1506 -0.3763
 6740TIP3    H141779   3.371   6.790   2.339  1.9237  0.7730 -0.1764
 6740TIP3    H241780   3.347   6.680   2.239 -0.5543  0.7814  0.3530
 6741TIP3   OH241781   5.302   1.806   1.625 -0.4533  0.2789 -0.5369
 6741TIP3    H141782   5.258   1.749   1.687 -1.0538  0.5369 -0.7186
 6741TIP3    H241783   5.231   1.846   1.574  0.0378 -0.0598 -1.5066
 6742TIP3   OH241784   4.350   4.292   2.664  0.0789  0.1547  0.3794
 6742TIP3    H141785   4.334   4.200   2.688  2.5507 -0.3173  0.4063
 6742TIP3    H241786   4.370   4.334   2.747 -0.7836  0.6953  0.3268
 6743TIP3   OH241787   3.299   1.849   1.000 -0.0826 -0.3281 -0.0445
 6743TIP3    H141788   3.332   1.895   0.923 -0.5233  0.0252 -0.0278
 6743TIP3    H241789   3.376   1.813   1.043  0.3527  1.0882  0.4007
 6744TIP3   OH241790   2.590   2.082   3.340  0.3004 -0.1225 -0.7772
 6744TIP3    H141791   2.534   2.073   3.417  0.2115 -3.0479 -1.0400
 6744TIP3    H241792   2.642   2.161   3.356  1.1189 -1.1975  2.8655
 6745TIP3   OH241793   1.675   0.451   1.581 -0.3595 -0.7873  0.8647
 6745TIP3    H141794   1.739   0.507   1.625 -0.3834  0.1244 -0.2392
 6745TIP3    H241795   1.590   0.490   1.604 -0.3226  0.4752 -0.9890
 6746TIP3   OH241796   1.027   2.575   1.102  0.1847 -0.6444  0.8059
 6746TIP3    H141797   1.039   2.483   1.125  4.0646 -0.3052  0.8456
 6746TIP3    H241798   1.029   2.621   1.186 -1.0433 -0.4146  0.7335
 6747TIP3   OH241799   0.882   5.398   3.332 -0.1576 -0.0956 -0.1619
 6747TIP3    H141800   0.967   5.442   3.334  0.2690 -0.8981 -0.4633
 6747TIP3    H241801   0.826   5.452   3.389  0.8458 -0.1767  0.9412
 6748TIP3   OH241802   4.803   5.057   2.704  0.1848  0.1887 -0.1672
 6748TIP3    H141803   4.819   5.016   2.619  1.2965  0.9038 -0.3264
 6748TIP3    H241804   4.873   5.024   2.760  1.0932  1.8092 -0.2942
 6749TIP3   OH241805   1.854   4.862   0.057 -0.2547 -0.2142  0.0814
 6749TIP3    H141806   1.809   4.780   0.077 -1.1585  0.3249  0.3310
 6749TIP3    H241807   1.791   4.930   0.082  0.2435  0.5432 -0.6814
 6750TIP3   OH241808   5.939   3.138   1.637  0.1456 -0.2141 -0.0138
 6750TIP3    H141809   5.930   3.219   1.587  1.0839 -0.2083 -0.1999
 6750TIP3    H241810   5.969   3.074   1.572 -0.6420 -0.7258  0.1193
 6751TIP3   OH241811   1.551   0.978   1.227  0.2281  0.3032 -1.3221
 6751TIP3    H141812   1.466   1.012   1.199 -0.2864 -1.6766 -2.3724
 6751TIP3    H241813   1.536   0.943   1.315 -0.0074  0.1286 -1.4312
 6752TIP3   OH241814   3.321   4.941   0.803 -0.3670 -0.5813  0.3425
 6752TIP3    H141815   3.288   4.939   0.713 -1.2611 -0.8706  0.6602
 6752TIP3    H241816   3.300   5.029   0.834  1.6160  0.1729 -0.3062
 6753TIP3   OH241817   0.529   2.308   3.176 -0.5661  0.2517 -0.0142
 6753TIP3    H141818   0.600   2.269   3.228 -1.3820 -1.5160 -0.1323
 6753TIP3    H241819   0.507   2.241   3.112 -1.1735  1.4772 -1.1306
 6754TIP3   OH241820   0.687   1.545   0.403  0.1508  0.5199 -0.1712
 6754TIP3    H141821   0.651   1.582   0.322  0.0822  0.3055 -0.2420
 6754TIP3    H241822   0.647   1.458   0.408  0.9781  0.1075 -0.4697
 6755TIP3   OH241823   5.809   5.427   1.035  1.0454 -0.1824  0.2445
 6755TIP3    H141824   5.737   5.405   0.975  0.8202 -1.2175  0.8613
 6755TIP3    H241825   5.842   5.342   1.063  2.7478  0.2785 -0.2745
 6756TIP3   OH241826   5.436   0.560   2.832 -0.0557  0.2149  0.0346
 6756TIP3    H141827   5.378   0.635   2.846 -1.2863 -0.6175 -0.4422
 6756TIP3    H241828   5.391   0.487   2.874  0.4247 -0.5467 -0.7553
 6757TIP3   OH241829   3.144   0.914   0.331  0.3447 -0.8201 -0.1048
 6757TIP3    H141830   3.217   0.863   0.296  1.2629  0.4892 -0.1399
 6757TIP3    H241831   3.139   0.991   0.275  0.7251  0.4598  1.5404
 6758TIP3   OH241832   2.688   3.228   0.917 -0.4327 -0.2594  0.1287
 6758TIP3    H141833   2.763   3.271   0.956 -0.1653 -1.2784  0.7816
 6758TIP3    H241834   2.709   3.134   0.920 -1.0692 -0.4708 -1.0699
 6759TIP3   OH241835   6.075   1.765   1.012  0.2507  0.2699 -0.0925
 6759TIP3    H141836   6.123   1.759   0.930 -0.0287 -2.6182 -0.1669
 6759TIP3    H241837   6.130   1.720   1.076  0.5030  2.5361  1.4024
 6760TIP3   OH241838   0.240   1.995   0.938  0.0779 -0.0178 -0.5030
 6760TIP3    H141839   0.198   1.908   0.938 -2.2048  0.9991 -1.1366
 6760TIP3    H241840   0.276   2.003   1.026 -2.3968 -0.4550  0.6611
 6761TIP3   OH241841   0.262   2.503   1.254 -0.8683 -0.1417  0.8211
 6761TIP3    H141842   0.313   2.427   1.226 -1.6636 -0.3108 -0.2641
 6761TIP3    H241843   0.255   2.557   1.175  0.3298  1.4610  1.7632
 6762TIP3   OH241844   5.481   1.204   2.443 -0.1995  0.1439  0.5868
 6762TIP3    H141845   5.503   1.130   2.499  2.0522  0.4460  0.1920
 6762TIP3    H241846   5.446   1.164   2.364  0.0046 -0.4536  0.7884
 6763TIP3   OH241847   2.504   6.833   1.613 -0.3739 -0.1521 -0.4414
 6763TIP3    H141848   2.450   6.903   1.578  0.6895  0.7340 -0.3406
 6763TIP3    H241849   2.449   6.792   1.680 -0.3436  1.8376  0.8907
 6764TIP3   OH241850   6.232   2.851   8.480  0.4350 -0.0797  0.4687
 6764TIP3    H141851   6.146   2.809   8.475  0.2764  0.0175  1.9957
 6764TIP3    H241852   6.229   2.919   8.413  0.5851 -2.2300 -1.8909
 6765TIP3   OH241853   2.609   5.387   4.320 -0.1082  0.3246 -0.1345
 6765TIP3    H141854   2.629   5.295   4.336 -0.2706  0.7452  3.2167
 6765TIP3    H241855   2.688   5.423   4.280  0.0507 -1.1774 -1.2550
 6766TIP3   OH241856   4.669   6.307   3.850  0.5813  0.0438  0.3596
 6766TIP3    H141857   4.654   6.221   3.888 -0.9346  0.4869  0.8195
 6766TIP3    H241858   4.691   6.290   3.759 -1.5575 -0.7613 -0.0426
 6767TIP3   OH241859   0.489   0.403   1.610 -0.2588  0.4892 -0.0456
 6767TIP3    H141860   0.430   0.448   1.549 -0.5916 -0.9383 -0.8057
 6767TIP3    H241861   0.575   0.409   1.567 -0.4240 -0.1810 -0.4748
 6768TIP3   OH241862   6.294   4.370   3.494 -0.6806 -0.1701  0.1352
 6768TIP3    H141863   6.299   4.307   3.565 -1.3255 -1.6470 -1.0673
 6768TIP3    H241864   6.357   4.339   3.429 -0.9522  0.4628 -0.4450
 6769TIP3   OH241865   5.870   1.558   0.553 -0.0767 -0.1643  0.3278
 6769TIP3    H141866   5.848   1.480   0.605 -1.6267  0.0805  0.0889
 6769TIP3    H241867   5.824   1.545   0.470  0.3560  0.6204 -0.0519
 6770TIP3   OH241868   4.782   5.302   1.540 -0.7167  0.1318  0.6677
 6770TIP3    H141869   4.750   5.217   1.568 -1.9525  1.0732  2.2647
 6770TIP3    H241870   4.835   5.333   1.614 -0.5445  0.8931  0.2366
 6771TIP3   OH241871   1.483   4.278   4.432  0.3313 -0.0125  0.3235
 6771TIP3    H141872   1.491   4.238   4.519  2.1097 -0.4749 -0.0168
 6771TIP3    H241873   1.389   4.283   4.417 -0.0268  0.4290  2.4208
 6772TIP3   OH241874   6.143   2.028   0.556 -0.1717  0.4138 -0.0823
 6772TIP3    H141875   6.068   1.968   0.555  0.0006  0.1494  1.0551
 6772TIP3    H241876   6.146   2.061   0.646 -0.1859  2.0534 -0.6591
 6773TIP3   OH241877   5.119   4.625   8.453  0.3304  0.0589  0.6676
 6773TIP3    H141878   5.187   4.693   8.457 -0.0032  0.5524 -1.1885
 6773TIP3    H241879   5.043   4.665   8.495  0.2492  0.7085 -0.0834
 6774TIP3   OH241880   3.807   4.932   3.888 -0.2795  0.1044 -0.0209
 6774TIP3    H141881   3.775   5.013   3.928 -3.4320  0.4565 -2.7938
 6774TIP3    H241882   3.882   4.960   3.836 -1.1267  1.2665 -0.6793
 6775TIP3   OH241883   3.539   1.310   1.606  0.0836 -0.1181  0.5074
 6775TIP3    H141884   3.553   1.395   1.565  0.8187 -0.6738 -0.4389
 6775TIP3    H241885   3.446   1.293   1.595  0.3666 -0.5153 -1.4999
 6776TIP3   OH241886   2.461   1.707   0.008  0.0980  0.0861 -0.4544
 6776TIP3    H141887   2.388   1.769   0.012  0.2964  0.3608  3.6569
 6776TIP3    H241888   2.422   1.626  -0.023 -1.4012  0.8625 -0.6812
 6777TIP3   OH241889   4.297   1.612   2.252  0.4960 -0.0813  0.7832
 6777TIP3    H141890   4.332   1.570   2.174  0.0468  1.5294 -0.3593
 6777TIP3    H241891   4.276   1.541   2.311 -1.1106 -1.5437 -1.3948
 6778TIP3   OH241892   0.599   2.308   0.636  0.2037  0.3625  0.4003
 6778TIP3    H141893   0.681   2.356   0.650 -0.2191  0.6614  2.0734
 6778TIP3    H241894   0.533   2.377   0.624  0.1453  0.1239 -0.8265
 6779TIP3   OH241895   4.035   5.208   3.507 -0.1369 -0.3312  0.4418
 6779TIP3    H141896   4.110   5.234   3.560 -0.3897 -1.6752  1.5288
 6779TIP3    H241897   4.042   5.260   3.427  0.6830  1.1834  1.4695
 6780TIP3   OH241898   6.652   0.038   2.534  0.8593 -0.2388  0.4429
 6780TIP3    H141899   6.728   0.096   2.524  1.9356 -1.0759  2.9837
 6780TIP3    H241900   6.652  -0.016   2.455  1.3523  1.4417 -0.7784
 6781TIP3   OH241901   2.913   1.843   3.626 -0.5904  0.5976 -0.2688
 6781TIP3    H141902   2.927   1.754   3.658 -1.1260  1.2077  1.7839
 6781TIP3    H241903   2.866   1.832   3.544  0.9683 -1.0522 -1.0125
 6782TIP3   OH241904   2.500   4.927   1.842  0.4670 -0.1104 -0.0892
 6782TIP3    H141905   2.431   4.993   1.849  0.0208 -0.3315 -1.9282
 6782TIP3    H241906   2.544   4.946   1.759 -0.7854 -3.0990 -1.5799
 6783TIP3   OH241907   6.752   4.432   2.364 -0.2417 -0.0842  0.0256
 6783TIP3    H141908   6.844   4.451   2.346  0.2786 -1.9366  0.5181
 6783TIP3    H241909   6.750   4.409   2.457 -1.4759  1.3698  0.3910
 6784TIP3   OH241910   1.330   4.062   2.580  0.3377 -0.0113  0.7043
 6784TIP3    H141911   1.282   4.051   2.662 -0.8188 -0.5482 -0.0189
 6784TIP3    H241912   1.304   4.149   2.549 -2.0158 -1.1504 -0.7931
 6785TIP3   OH241913   5.941   4.913   1.608  0.1023  0.2438 -0.2043
 6785TIP3    H141914   5.965   4.888   1.697  3.5984 -1.1275 -1.3452
 6785TIP3    H241915   5.850   4.940   1.614 -0.9888 -3.3017  3.1263
 6786TIP3   OH241916   4.409   6.153   1.209  0.3369  0.4650  0.4883
 6786TIP3    H141917   4.443   6.076   1.254  2.4197  2.0008  1.7098
 6786TIP3    H241918   4.319   6.161   1.241  1.0915  0.2927  2.8496
 6787TIP3   OH241919   4.055   3.946   3.603 -0.1972 -0.0113 -0.0220
 6787TIP3    H141920   4.072   4.037   3.579  0.0181  0.0457  0.3536
 6787TIP3    H241921   4.071   3.942   3.697 -2.3744  0.0898  0.4059
 6788TIP3   OH241922   3.853   2.149   1.681 -0.1301 -0.6040  0.0126
 6788TIP3    H141923   3.765   2.174   1.656  0.0985  1.5921  1.1366
 6788TIP3    H241924   3.841   2.087   1.753 -0.7514 -1.0009 -0.4289
 6789TIP3   OH241925   4.489   3.998   3.895 -0.5139 -0.0004 -0.2321
 6789TIP3    H141926   4.581   3.987   3.918 -0.1590 -0.7312 -1.8855
 6789TIP3    H241927   4.444   4.009   3.979  0.9189 -0.8073  0.6666
 6790TIP3   OH241928   4.499   2.767   0.964  0.2051 -0.2966 -0.2489
 6790TIP3    H141929   4.441   2.762   0.887 -1.3736  0.4013  0.8271
 6790TIP3    H241930   4.508   2.861   0.980 -0.4624 -0.4382  1.0917
 6791TIP3   OH241931   1.966   6.627   1.808 -0.0333  0.3838 -0.2703
 6791TIP3    H141932   2.001   6.546   1.846  0.6745  0.5662 -0.5060
 6791TIP3    H241933   1.966   6.690   1.881 -0.8867  0.0813 -0.0106
 6792TIP3   OH241934   0.890   1.638   4.110 -0.3151  0.0897  0.2420
 6792TIP3    H141935   0.889   1.709   4.174  0.1394  1.0741 -0.7973
 6792TIP3    H241936   0.816   1.657   4.052  0.2520  0.1324 -0.4766
 6793TIP3   OH241937   3.043   0.591   0.337 -0.3612 -0.4035 -0.1232
 6793TIP3    H141938   3.093   0.578   0.417 -1.9085 -1.6039  0.6967
 6793TIP3    H241939   3.043   0.686   0.324  2.4014 -0.3690 -0.3929
 6794TIP3   OH241940   6.380   4.854   2.679 -0.6235  0.2671  0.0781
 6794TIP3    H141941   6.402   4.889   2.593  0.8691 -2.1337 -0.6307
 6794TIP3    H241942   6.327   4.776   2.659 -0.5052 -0.1477  1.3251
 6795TIP3   OH241943   0.639   3.931   1.930  0.2830 -0.3576 -0.0374
 6795TIP3    H141944   0.567   3.989   1.952 -0.0786 -1.1168  0.8611
 6795TIP3    H241945   0.657   3.948   1.838  0.3825  1.3661  0.2805
 6796TIP3   OH241946   1.048   4.331   3.284  0.2522  0.2513 -0.2137
 6796TIP3    H141947   1.047   4.303   3.376 -1.3092  0.9997  0.0252
 6796TIP3    H241948   1.030   4.425   3.288  1.3452  0.5169 -1.2326
 6797TIP3   OH241949   3.299   4.764   8.466 -0.3403  0.2274 -0.1892
 6797TIP3    H141950   3.367   4.704   8.438 -1.0817 -0.4805 -0.5052
 6797TIP3    H241951   3.225   4.708   8.490 -0.6689  0.9580  0.5401
 6798TIP3   OH241952   1.918   3.801   1.552 -0.0053  0.5112 -0.4459
 6798TIP3    H141953   1.861   3.851   1.611 -0.5938  0.3249 -0.8425
 6798TIP3    H241954   1.857   3.750   1.498  0.5354  0.4049 -0.9671
 6799TIP3   OH241955   2.060   0.050   1.526  0.0111  0.1853 -0.3866
 6799TIP3    H141956   1.975   0.008   1.543 -0.3233  1.4747  1.5777
 6799TIP3    H241957   2.037   0.136   1.491  0.4756  0.5243  0.1138
 6800TIP3   OH241958   2.948   4.879   3.233 -0.3349 -0.0169 -0.6962
 6800TIP3    H141959   2.863   4.879   3.187 -0.9345 -0.7231  0.3733
 6800TIP3    H241960   2.933   4.824   3.310  1.4004 -0.9916 -1.0198
 6801TIP3   OH241961   5.441   1.180   4.039 -0.1287  0.9957 -0.4928
 6801TIP3    H141962   5.503   1.189   4.112  0.2641 -0.2526 -0.6456
 6801TIP3    H241963   5.387   1.259   4.044 -0.6259  0.5983  1.6524
 6802TIP3   OH241964   1.889   3.141   2.282  0.3106 -0.0061 -0.6848
 6802TIP3    H141965   1.807   3.125   2.235  0.5557  0.6582 -1.3479
 6802TIP3    H241966   1.871   3.110   2.371  0.1040 -2.0195 -1.3811
 6803TIP3   OH241967   1.619   3.897   4.539  0.1729 -0.4521  0.1502
 6803TIP3    H141968   1.689   3.861   4.594  3.1098 -0.0967 -2.9899
 6803TIP3    H241969   1.660   3.970   4.493 -2.8968  1.0021 -0.5437
 6804TIP3   OH241970   0.101   0.997   3.681 -0.3375 -0.0032 -0.0922
 6804TIP3    H141971   0.062   0.942   3.750  0.2989  0.7204  0.8715
 6804TIP3    H241972   0.049   0.977   3.603  0.1263 -2.2913  0.1113
 6805TIP3   OH241973   6.360   6.765   2.391  0.3035 -0.1099  0.4593
 6805TIP3    H141974   6.267   6.783   2.402 -0.1258 -2.0165  0.2330
 6805TIP3    H241975   6.370   6.672   2.412  2.3432  0.2834  1.5098
 6806TIP3   OH241976   6.698   6.254   4.577 -0.3796  0.7234  0.9052
 6806TIP3    H141977   6.642   6.177   4.572  1.0866 -0.3171 -1.7968
 6806TIP3    H241978   6.773   6.225   4.629  0.1383  0.2701 -0.0513
 6807TIP3   OH241979   0.788   2.577   1.717 -0.7630 -0.4685 -0.3009
 6807TIP3    H141980   0.749   2.618   1.640  0.4098  2.5621  0.5502
 6807TIP3    H241981   0.741   2.616   1.791  2.5565  2.1455  0.6877
 6808TIP3   OH241982   4.621   2.020   2.259  0.2832  0.9536 -0.6489
 6808TIP3    H141983   4.536   1.980   2.239  0.1590  1.5158 -1.2708
 6808TIP3    H241984   4.644   1.985   2.345 -0.3725  0.4550 -0.6694
 6809TIP3   OH241985   1.817   1.111   2.235  0.2260 -0.0734 -0.0085
 6809TIP3    H141986   1.844   1.019   2.229  1.4986  0.3316 -0.8899
 6809TIP3    H241987   1.723   1.110   2.216  0.4724 -1.0581 -1.2768
 6810TIP3   OH241988   3.337   6.573   3.216 -0.5418  0.0569 -0.8204
 6810TIP3    H141989   3.268   6.624   3.174 -1.2818 -0.3664 -0.1222
 6810TIP3    H241990   3.297   6.537   3.294  1.0938  1.7092  0.9023
 6811TIP3   OH241991   6.689   2.211   3.852  0.4368  0.6546  0.3005
 6811TIP3    H141992   6.600   2.193   3.823  0.2202  2.0163  0.0744
 6811TIP3    H241993   6.730   2.257   3.779  1.5686 -0.5670  0.1248
 6812TIP3   OH241994   5.961   6.527   2.543 -0.0696 -0.5134 -0.4244
 6812TIP3    H141995   6.002   6.544   2.628  0.5497  1.3498 -1.0412
 6812TIP3    H241996   5.929   6.437   2.549  2.3905 -1.4023  0.7896
 6813TIP3   OH241997   4.106   0.123   0.905  0.1793 -0.1737  0.0503
 6813TIP3    H141998   4.199   0.146   0.910 -0.0806  1.3101 -1.2174
 6813TIP3    H241999   4.105   0.032   0.874  1.1950 -0.6969  1.4401
 6814TIP3   OH242000   4.026   3.943   4.697 -0.1218 -0.0009 -0.2120
 6814TIP3    H142001   4.058   3.971   4.783 -1.6284  1.3117 -0.0371
 6814TIP3    H242002   4.064   4.006   4.636  0.2853 -0.4391 -0.4140
 6815TIP3   OH242003   4.107   2.442   0.451  0.7230  0.4112  0.2605
 6815TIP3    H142004   4.106   2.382   0.376  3.3159  0.0964  0.3902
 6815TIP3    H242005   4.068   2.523   0.418  1.1771  0.0493 -1.2207
 6816TIP3   OH242006   4.463   5.054   4.331  0.4275  0.1511  0.5170
 6816TIP3    H142007   4.385   5.094   4.369  0.8509  1.5816 -0.0395
 6816TIP3    H242008   4.536   5.102   4.372  0.9119  1.2344 -1.5051
 6817TIP3   OH242009   4.894   2.290   0.571  0.0004 -0.1894  0.0534
 6817TIP3    H142010   4.855   2.312   0.486 -0.0177  1.8458  0.5327
 6817TIP3    H242011   4.931   2.203   0.558  0.3957  0.2304 -2.2108
 6818TIP3   OH242012   4.699   4.117   0.363  0.6556  0.3519  0.0211
 6818TIP3    H142013   4.618   4.168   0.355  0.8421  0.8436  1.1568
 6818TIP3    H242014   4.669   4.027   0.379  0.3368  0.3575 -0.5240
 6819TIP3   OH242015   6.279   4.482   0.584  0.2023  0.3292  0.2056
 6819TIP3    H142016   6.322   4.448   0.506  0.0819  2.6992 -0.9882
 6819TIP3    H242017   6.321   4.437   0.657  2.6942  0.4561 -1.0532
 6820TIP3   OH242018   5.315   1.117   1.998  0.5851 -0.0993  0.1630
 6820TIP3    H142019   5.278   1.097   1.912 -0.3067 -1.5245  0.8340
 6820TIP3    H242020   5.384   1.052   2.011  2.5376  1.7270 -0.5149
 6821TIP3   OH242021   4.221   4.653   1.262  0.3828 -0.2800 -0.8588
 6821TIP3    H142022   4.212   4.574   1.316 -0.5461 -0.3290 -1.0523
 6821TIP3    H242023   4.296   4.699   1.299  0.2381 -0.6904 -0.0126
 6822TIP3   OH242024   2.120   2.179   0.497  0.1788 -0.1049 -0.2727
 6822TIP3    H142025   2.155   2.144   0.415  2.2416  0.2459  0.3946
 6822TIP3    H242026   2.164   2.263   0.508 -0.0002 -0.1773  1.2063
 6823TIP3   OH242027   0.716   3.306   3.960  0.1176 -0.0335 -0.1159
 6823TIP3    H142028   0.791   3.255   3.931  1.1833  0.5028  1.5454
 6823TIP3    H242029   0.754   3.385   3.999 -1.4022  1.1808 -0.9492
 6824TIP3   OH242030   4.930   0.970   3.488 -0.6825 -0.6069 -0.7142
 6824TIP3    H142031   4.886   0.944   3.407  0.6309 -1.1374 -1.2950
 6824TIP3    H242032   5.015   1.002   3.459 -0.2685 -0.6148  0.4491
 6825TIP3   OH242033   4.914   3.575   3.569  0.4823  0.1942 -0.1482
 6825TIP3    H142034   5.004   3.544   3.573  0.4003 -0.1196 -0.6836
 6825TIP3    H242035   4.885   3.554   3.480 -0.7742 -1.5293  0.6226
 6826TIP3   OH242036   5.505   2.287   2.317  0.5075 -0.6080 -0.4558
 6826TIP3    H142037   5.537   2.377   2.306 -1.1510 -0.0876 -1.4628
 6826TIP3    H242038   5.547   2.256   2.397  2.6836  0.3329 -1.1444
 6827TIP3   OH242039   3.263   0.387   2.413 -0.7030  0.0870  0.1648
 6827TIP3    H142040   3.168   0.395   2.425 -0.4542  1.3643  1.6000
 6827TIP3    H242041   3.280   0.433   2.331 -1.1348  1.6003  0.8784
 6828TIP3   OH242042   5.019   5.104   1.971  0.2150 -0.2106  0.1902
 6828TIP3    H142043   5.059   5.043   1.909 -1.6388  0.5443 -1.9117
 6828TIP3    H242044   5.029   5.061   2.056 -1.0612 -3.5627 -1.1531
 6829TIP3   OH242045   5.444   6.835   1.762  0.1273  0.9533  0.5401
 6829TIP3    H142046   5.365   6.888   1.774 -0.4067 -0.3852  3.6911
 6829TIP3    H242047   5.422   6.775   1.690 -0.8865  1.9923 -0.0492
 6830TIP3   OH242048   2.252   4.222   3.291 -0.4962 -0.3205 -0.0258
 6830TIP3    H142049   2.232   4.298   3.345 -2.1361 -0.2767 -0.6314
 6830TIP3    H242050   2.301   4.258   3.216  0.1088 -0.1108  0.4600
 6831TIP3   OH242051   5.271   4.886   4.013 -0.1959  0.3730  0.9911
 6831TIP3    H142052   5.299   4.976   4.029 -1.4708  0.7236  1.3506
 6831TIP3    H242053   5.176   4.892   3.998 -0.3080 -0.9124  1.0310
 6832TIP3   OH242054   0.725   2.673   1.953  0.0816 -0.3480  0.7483
 6832TIP3    H142055   0.803   2.660   2.007 -0.4806  0.8809  1.9041
 6832TIP3    H242056   0.715   2.768   1.947 -1.8020 -0.4662  1.3578
 6833TIP3   OH242057   6.868   3.751   2.539 -0.1608  0.9261 -0.6299
 6833TIP3    H142058   6.910   3.727   2.622  1.8187  2.9139 -0.9526
 6833TIP3    H242059   6.894   3.682   2.478 -0.9915 -0.1342  0.1750
 6834TIP3   OH242060   6.467   6.338   4.020 -0.5853 -0.8078  0.2539
 6834TIP3    H142061   6.528   6.329   4.093 -0.7619  0.9284  0.6639
 6834TIP3    H242062   6.392   6.384   4.057 -0.4710  0.5556 -1.0926
 6835TIP3   OH242063   0.318   1.398   3.642 -0.3631 -0.4048  0.2612
 6835TIP3    H142064   0.305   1.445   3.724 -0.6933  1.1262 -0.6437
 6835TIP3    H242065   0.253   1.435   3.582  1.0274 -0.2345 -1.2102
 6836TIP3   OH242066   2.810   0.474   8.320  0.2207  0.1559 -0.2256
 6836TIP3    H142067   2.742   0.454   8.255  2.1223  1.5943 -2.8478
 6836TIP3    H242068   2.879   0.410   8.303  0.8208  0.6505  0.2762
 6837TIP3   OH242069   5.217   4.891   8.332  0.2571  0.5353  0.5564
 6837TIP3    H142070   5.215   4.816   8.273 -0.1309  0.0709  1.1503
 6837TIP3    H242071   5.304   4.930   8.319  0.1467  0.5031 -0.3807
 6838TIP3   OH242072   0.352   2.069   0.154  0.2494  0.3900  0.5110
 6838TIP3    H142073   0.429   2.111   0.192 -0.7362  0.5671  2.4205
 6838TIP3    H242074   0.277   2.108   0.200 -0.8344 -1.7943  0.7783
 6839TIP3   OH242075   2.670   1.778   0.162 -0.0542  0.2421 -0.0871
 6839TIP3    H142076   2.616   1.776   0.083  0.0162 -1.0309 -0.1308
 6839TIP3    H242077   2.607   1.781   0.234 -0.1159  2.7388 -0.1571
 6840TIP3   OH242078   3.159   0.530   0.599  0.0951 -0.4129 -0.4177
 6840TIP3    H142079   3.142   0.473   0.674 -1.7238 -1.0561 -1.2520
 6840TIP3    H242080   3.231   0.487   0.552  0.4362 -0.6501  0.3161
 6841TIP3   OH242081   6.472   2.782   0.958 -0.2014  0.2165  0.2283
 6841TIP3    H142082   6.563   2.754   0.966 -0.4711 -2.8227 -3.9596
 6841TIP3    H242083   6.478   2.874   0.931  1.7998 -0.2383 -1.1357
 6842TIP3   OH242084   0.069   1.549   4.171 -0.3507  0.0608 -0.4662
 6842TIP3    H142085   0.012   1.508   4.106 -0.1292  0.1935 -0.7448
 6842TIP3    H242086   0.157   1.539   4.136 -0.0853 -1.0592  0.4494
 6843TIP3   OH242087   2.237   4.617   0.959  0.4189  0.0689  0.0089
 6843TIP3    H142088   2.205   4.626   0.869  2.8770  0.1255 -0.9275
 6843TIP3    H242089   2.170   4.564   1.003 -0.1156 -1.2900 -2.2786
 6844TIP3   OH242090   2.666   5.324   1.935 -0.0237 -0.1307 -0.2346
 6844TIP3    H142091   2.606   5.270   1.985  1.0523 -1.0634  0.0919
 6844TIP3    H242092   2.734   5.349   1.998  0.5682 -0.0939 -0.8798
 6845TIP3   OH242093   5.982   2.288   0.960  0.5604  0.0116  0.5438
 6845TIP3    H142094   5.904   2.333   0.929  1.4480  1.2097 -0.0654
 6845TIP3    H242095   5.950   2.224   1.023 -0.8939  0.5145  0.3520
 6846TIP3   OH242096   1.711   1.945   4.574  0.0709 -0.2082 -0.1408
 6846TIP3    H142097   1.706   2.040   4.567  0.5730 -0.1683  0.0161
 6846TIP3    H242098   1.669   1.925   4.658 -0.2855 -0.1529 -0.3027
 6847TIP3   OH242099   6.773   2.853   3.372 -0.1532 -0.2491 -0.0122
 6847TIP3    H142100   6.685   2.825   3.346  0.0768  0.1933 -1.3732
 6847TIP3    H242101   6.759   2.905   3.451 -1.1082 -0.3314 -0.1161
 6848TIP3   OH242102   4.581   4.129   1.492 -0.6904 -0.2929  0.0785
 6848TIP3    H142103   4.632   4.050   1.476 -0.1736  0.5658 -3.0681
 6848TIP3    H242104   4.642   4.187   1.539 -0.0178 -0.6130 -0.3879
 6849TIP3   OH242105   6.798   2.609   3.846  0.8430  0.4280  0.4304
 6849TIP3    H142106   6.836   2.678   3.901  0.0358  0.2782  1.1803
 6849TIP3    H242107   6.836   2.528   3.880  1.4795  0.4509 -0.1938
 6850TIP3   OH242108   4.282   1.488   0.780 -0.3528 -0.3344 -0.0308
 6850TIP3    H142109   4.213   1.463   0.841 -0.8202  0.4961 -0.2014
 6850TIP3    H242110   4.352   1.523   0.835  0.1891 -1.6954  0.1869
 6851TIP3   OH242111   2.909   4.423   2.944  0.0537  0.2092 -0.2064
 6851TIP3    H142112   2.978   4.375   2.899  0.3030 -0.3093  0.7128
 6851TIP3    H242113   2.935   4.515   2.937 -0.3241  0.2200 -1.7962
 6852TIP3   OH242114   2.425   3.745   1.431  0.1489 -0.1003  0.0839
 6852TIP3    H142115   2.354   3.714   1.374 -0.8154  1.2905  0.4858
 6852TIP3    H242116   2.505   3.726   1.382 -0.5419 -0.9853 -0.7301
 6853TIP3   OH242117   4.570   4.358   2.823  0.0846 -0.1721 -0.0239
 6853TIP3    H142118   4.591   4.361   2.729  0.5684 -0.5193  0.0716
 6853TIP3    H242119   4.562   4.450   2.848 -2.3661 -0.0625 -0.8945
 6854TIP3   OH242120   5.582   5.601   0.774 -0.1108 -0.0711 -0.3783
 6854TIP3    H142121   5.566   5.587   0.681  0.1636  0.5521 -0.5200
 6854TIP3    H242122   5.674   5.626   0.779 -0.1066 -0.1714  0.0672
 6855TIP3   OH242123   6.889   1.372   2.838  0.3151 -0.3418  0.1834
 6855TIP3    H142124   6.823   1.312   2.803 -0.2200  0.5993 -0.4445
 6855TIP3    H242125   6.860   1.390   2.928 -1.3888  1.5859 -0.6968
 6856TIP3   OH242126   4.710   3.650   4.333 -0.8646  0.0996 -0.2361
 6856TIP3    H142127   4.654   3.638   4.409 -0.9686 -0.3475 -0.3841
 6856TIP3    H242128   4.667   3.719   4.283 -1.0803  0.0249 -0.1575
 6857TIP3   OH242129   3.962   0.867   3.198  0.6916 -0.1831 -0.6953
 6857TIP3    H142130   3.931   0.949   3.234  0.5259  0.2242 -1.7291
 6857TIP3    H242131   3.989   0.816   3.274  0.4210  0.6659 -0.0148
 6858TIP3   OH242132   2.879   1.411   3.955  0.2759 -0.3731 -0.4207
 6858TIP3    H142133   2.943   1.420   4.025 -1.0486  0.9553  0.6964
 6858TIP3    H242134   2.815   1.348   3.989  0.1037 -0.4148 -0.8125
 6859TIP3   OH242135   5.417   0.900   3.401 -0.5827  0.4574  0.1128
 6859TIP3    H142136   5.479   0.926   3.469 -0.0393 -0.9014  0.1680
 6859TIP3    H242137   5.469   0.894   3.321 -0.7943  0.0687 -0.0012
 6860TIP3   OH242138   4.069   3.486   1.492 -0.1249 -0.0693  0.2781
 6860TIP3    H142139   4.065   3.479   1.396  0.4911 -1.1253  0.3195
 6860TIP3    H242140   4.160   3.507   1.511  0.0122 -0.9684  0.6818
 6861TIP3   OH242141   2.072   2.117   3.843  0.2679  0.1492 -0.2999
 6861TIP3    H142142   2.030   2.032   3.832 -0.2376  0.2374  0.8164
 6861TIP3    H242143   2.100   2.119   3.934  0.5274  1.0614 -0.3872
 6862TIP3   OH242144   5.241   5.776   2.959 -0.3022 -0.6656 -0.2496
 6862TIP3    H142145   5.190   5.701   2.928 -0.5963 -2.1410  3.3082
 6862TIP3    H242146   5.327   5.764   2.919 -0.7930 -1.9984 -1.0079
 6863TIP3   OH242147   1.391   2.603   2.489  0.3648 -0.0909 -0.1564
 6863TIP3    H142148   1.415   2.639   2.575  3.1147  1.3246 -1.3847
 6863TIP3    H242149   1.295   2.607   2.487  0.2920  1.1192  2.3146
 6864TIP3   OH242150   1.189   0.376   1.170 -0.1025 -0.4923  0.9443
 6864TIP3    H142151   1.183   0.388   1.075 -0.8752  1.2929  1.1741
 6864TIP3    H242152   1.252   0.305   1.181  1.4131  0.4792 -0.8491
 6865TIP3   OH242153   6.135   0.225   2.530  0.5126  0.1904  0.0345
 6865TIP3    H142154   6.178   0.159   2.477  0.2738  1.1749 -1.4391
 6865TIP3    H242155   6.042   0.214   2.512  0.3212 -0.1769  1.1360
 6866TIP3   OH242156   4.475   6.511   3.416  0.7000 -0.1563  0.2507
 6866TIP3    H142157   4.449   6.420   3.407 -1.8367  0.5705 -0.6176
 6866TIP3    H242158   4.540   6.525   3.347 -0.5686 -0.7717 -1.1118
 6867TIP3   OH242159   5.718   5.795   2.496  0.2114 -0.6520  0.3185
 6867TIP3    H142160   5.709   5.883   2.460 -1.7986 -0.8225  0.2912
 6867TIP3    H242161   5.658   5.793   2.571 -0.9042 -2.3970 -0.5483
 6868TIP3   OH242162   0.228   5.060   4.254 -0.1389 -0.2894  0.0080
 6868TIP3    H142163   0.242   4.981   4.203  1.1514 -1.0042  1.4042
 6868TIP3    H242164   0.224   5.031   4.345  1.2184  1.2969  0.6415
 6869TIP3   OH242165   0.491   5.185   2.528 -0.0838  0.4728 -0.3348
 6869TIP3    H142166   0.453   5.272   2.544 -0.1629  0.3776 -0.0127
 6869TIP3    H242167   0.423   5.124   2.557  0.8097  0.2815  1.4964
 6870TIP3   OH242168   1.531   6.670   4.044 -0.2319 -0.3185 -0.3428
 6870TIP3    H142169   1.536   6.578   4.068  0.3918 -0.0337  0.7134
 6870TIP3    H242170   1.446   6.679   4.001 -0.4523 -1.3126 -0.1435
 6871TIP3   OH242171   5.130   3.418   0.389  0.1722 -0.0126 -0.0587
 6871TIP3    H142172   5.050   3.396   0.438  1.9337 -2.4988  1.9600
 6871TIP3    H242173   5.178   3.476   0.448  0.4298  0.4811 -0.7436
 6872TIP3   OH242174   3.511   0.821   2.778 -0.3378  0.3227 -0.2788
 6872TIP3    H142175   3.555   0.736   2.772  0.0286  0.5524 -0.8291
 6872TIP3    H242176   3.422   0.804   2.748 -1.2942 -0.6000  2.7008
 6873TIP3   OH242177   5.615   2.550   2.952  0.3822  0.2107  0.3499
 6873TIP3    H142178   5.692   2.503   2.920 -0.7585 -1.7185  0.2401
 6873TIP3    H242179   5.603   2.519   3.041 -0.2855  0.4729  0.3557
 6874TIP3   OH242180   6.143   4.549   2.175  0.0053 -0.3121  0.1931
 6874TIP3    H142181   6.142   4.455   2.189 -2.4549 -0.7466 -2.1647
 6874TIP3    H242182   6.102   4.586   2.253  0.8490 -1.1541  1.0674
 6875TIP3   OH242183   1.933   1.357   0.948  0.5475  0.0804 -0.0636
 6875TIP3    H142184   2.024   1.385   0.957  0.2679  0.9462  0.1680
 6875TIP3    H242185   1.903   1.401   0.868 -0.0608  0.9077  0.6062
 6876TIP3   OH242186   6.232   5.026   1.002 -0.0853 -0.0176  0.2761
 6876TIP3    H142187   6.325   5.006   0.996 -0.0225  0.3040  0.1706
 6876TIP3    H242188   6.228   5.109   1.051 -0.2214  0.7579 -1.0018
 6877TIP3   OH242189   5.171   6.423   3.619 -0.8128 -0.2702 -0.6312
 6877TIP3    H142190   5.166   6.380   3.534 -0.0771 -0.2507 -0.6885
 6877TIP3    H242191   5.215   6.506   3.601 -0.2912 -0.4458 -0.1642
 6878TIP3   OH242192   4.878   3.046   3.232 -0.0257  0.2099  0.0612
 6878TIP3    H142193   4.910   2.957   3.215  0.2542  0.5029 -1.0319
 6878TIP3    H242194   4.824   3.067   3.155 -0.0051  1.0230  0.2626
 6879TIP3   OH242195   1.572   2.988   2.528  0.8281 -0.2858 -0.1014
 6879TIP3    H142196   1.597   2.925   2.460  1.0497 -0.6243  0.2854
 6879TIP3    H242197   1.568   2.935   2.608  0.3871  0.0715  0.1142
 6880TIP3   OH242198   6.083   3.195   3.331 -0.4310 -0.1982  0.3692
 6880TIP3    H142199   6.081   3.153   3.245 -1.6812  0.7549 -0.1104
 6880TIP3    H242200   6.108   3.286   3.312 -0.4048 -0.0595  1.0424
 6881TIP3   OH242201   6.520   6.487   3.292  0.2378  0.0571 -0.2251
 6881TIP3    H142202   6.467   6.563   3.313 -0.9809 -0.6565 -0.6676
 6881TIP3    H242203   6.558   6.461   3.376  0.2373  0.8191  0.0197
 6882TIP3   OH242204   4.357   3.355   0.623  0.1818  0.1094 -0.0116
 6882TIP3    H142205   4.265   3.340   0.601  0.3135  1.3958 -1.7119
 6882TIP3    H242206   4.355   3.409   0.702 -0.6234  1.5135 -0.9405
 6883TIP3   OH242207   5.106   1.366   2.964  0.3684 -0.2421 -0.1299
 6883TIP3    H142208   5.035   1.429   2.950  0.6530  0.0563 -0.2477
 6883TIP3    H242209   5.176   1.396   2.906 -0.2960 -1.9979 -1.9665
 6884TIP3   OH242210   4.584   5.360   0.775  0.4024 -0.6462  0.2093
 6884TIP3    H142211   4.554   5.381   0.864 -0.4707  1.2708 -0.4945
 6884TIP3    H242212   4.551   5.271   0.760  0.5569 -1.0041  1.7810
 6885TIP3   OH242213   4.974   5.980   4.523 -0.0474  0.0792  0.0187
 6885TIP3    H142214   4.970   6.066   4.565  0.9416 -0.4428  1.2200
 6885TIP3    H242215   5.064   5.972   4.492 -0.1043 -0.5813  0.0119
 6886TIP3   OH242216   1.715   2.451   0.833 -1.0432 -0.5341  0.0445
 6886TIP3    H142217   1.755   2.521   0.781 -0.3785 -1.3321 -0.5555
 6886TIP3    H242218   1.726   2.479   0.924 -1.1066  0.3031 -0.2047
 6887TIP3   OH242219   1.535   4.680   2.985  0.2178 -0.0249 -0.0383
 6887TIP3    H142220   1.449   4.715   2.960  0.5656  0.9203  0.0345
 6887TIP3    H242221   1.550   4.606   2.926  0.3797  1.2402 -1.6578
 6888TIP3   OH242222   4.380   1.170   2.368  0.4872  0.4233  0.0497
 6888TIP3    H142223   4.457   1.174   2.311 -0.0053  0.9967 -0.5884
 6888TIP3    H242224   4.374   1.078   2.393  2.5817  0.6703  1.8075
 6889TIP3   OH242225   3.823   5.793   2.498  0.0970 -0.0168  0.2140
 6889TIP3    H142226   3.741   5.745   2.510 -0.9672  1.8121  0.6639
 6889TIP3    H242227   3.869   5.782   2.581 -0.9146  1.0897  0.9528
 6890TIP3   OH242228   5.549   6.665   0.667 -0.2733 -0.1928  0.1000
 6890TIP3    H142229   5.530   6.713   0.586 -0.1009 -0.2291  0.0379
 6890TIP3    H242230   5.619   6.604   0.643  1.0617  1.0274  0.6909
 6891TIP3   OH242231   1.537   4.240   2.617 -0.3451 -0.0078 -0.3480
 6891TIP3    H142232   1.498   4.153   2.613 -0.9499  0.2257  0.2328
 6891TIP3    H242233   1.623   4.226   2.656 -0.4794 -0.3366 -0.1694
 6892TIP3   OH242234   4.034   3.116   2.054  0.2984  0.1777 -0.0542
 6892TIP3    H142235   4.064   3.204   2.074  1.1660 -0.4842  1.8372
 6892TIP3    H242236   4.056   3.065   2.132  0.9561 -1.9757 -1.5330
 6893TIP3   OH242237   1.468   4.382   2.375 -0.6906  0.9417 -0.3894
 6893TIP3    H142238   1.480   4.342   2.461 -0.0368 -0.8268 -1.2573
 6893TIP3    H242239   1.500   4.471   2.386  0.5677  0.3745  0.8869
 6894TIP3   OH242240   0.982   2.530   3.576 -0.4066 -0.7031  0.2904
 6894TIP3    H142241   0.915   2.469   3.606  0.6384 -0.6535  2.9363
 6894TIP3    H242242   1.053   2.474   3.544  0.0257 -0.8667  1.5139
 6895TIP3   OH242243   2.375   0.417   3.834  0.1155 -0.0665 -0.0798
 6895TIP3    H142244   2.394   0.372   3.917  0.2115  0.8528  0.4148
 6895TIP3    H242245   2.446   0.390   3.776  0.6143  0.0555  0.4560
 6896TIP3   OH242246   5.090   2.087   1.936  0.4831 -0.0629 -0.1160
 6896TIP3    H142247   5.019   2.049   1.990  0.3782  0.1178 -0.1257
 6896TIP3    H242248   5.075   2.052   1.849 -0.5068  1.1536 -0.4743
 6897TIP3   OH242249   5.407   5.737   3.434 -0.6013  0.5167  0.2014
 6897TIP3    H142250   5.355   5.795   3.378 -0.7404  0.2982  0.0982
 6897TIP3    H242251   5.349   5.715   3.507 -0.0890  1.5659  0.9428
 6898TIP3   OH242252   0.965   3.907   4.271 -0.3251 -0.5656 -0.6156
 6898TIP3    H142253   1.043   3.880   4.319 -0.6782 -1.4239 -0.5113
 6898TIP3    H242254   0.897   3.847   4.300 -1.8119  1.9184  1.4951
 6899TIP3   OH242255   1.224   0.549   3.746 -0.5553  0.4671  0.9113
 6899TIP3    H142256   1.241   0.606   3.671 -0.0605 -0.3989  0.3456
 6899TIP3    H242257   1.162   0.483   3.713  0.3109 -0.4189  0.9991
 6900TIP3   OH242258   3.834   5.649   3.978 -0.2168 -0.1352  0.2678
 6900TIP3    H142259   3.848   5.576   4.038  1.5113 -0.0109  0.0666
 6900TIP3    H242260   3.802   5.720   4.034 -0.6417 -0.6427  0.6763
 6901TIP3   OH242261   3.223   6.906   8.359  0.1939 -0.5002 -0.1877
 6901TIP3    H142262   3.134   6.898   8.326  0.8180 -2.8232 -1.5388
 6901TIP3    H242263   3.227   6.846   8.434  0.2941  0.6291  0.7529
 6902TIP3   OH242264   1.151   6.387   1.069 -0.0076  0.1585 -0.6087
 6902TIP3    H142265   1.066   6.393   1.026  0.0853  1.7804 -0.6161
 6902TIP3    H242266   1.193   6.472   1.051  1.5480 -0.5524 -0.4777
 6903TIP3   OH242267   1.375   0.407   0.081  0.0941  0.5296 -0.5932
 6903TIP3    H142268   1.298   0.463   0.071  0.0251  0.2140 -2.0596
 6903TIP3    H242269   1.353   0.328   0.031  0.9236 -0.0441 -0.0781
 6904TIP3   OH242270   1.825   5.765   2.539  0.1677  0.0614  0.0790
 6904TIP3    H142271   1.832   5.670   2.541  0.7042 -0.0354 -2.6515
 6904TIP3    H242272   1.733   5.781   2.517 -0.2211  0.2619  1.7162
 6905TIP3   OH242273   4.728   0.791   3.731  0.0241  0.6298 -0.0840
 6905TIP3    H142274   4.726   0.729   3.658 -0.0496 -0.2208  0.6244
 6905TIP3    H242275   4.812   0.775   3.774  1.0182  2.5448 -1.1438
 6906TIP3   OH242276   4.699   6.067   4.050 -0.0270  0.2442  0.4856
 6906TIP3    H142277   4.727   5.986   4.093 -0.5009 -0.2332 -0.0875
 6906TIP3    H242278   4.669   6.122   4.121 -1.6776 -0.8902  0.7159
 6907TIP3   OH242279   1.787   5.192   1.825 -0.5490  0.3967  0.6388
 6907TIP3    H142280   1.733   5.118   1.796 -0.9618  1.3748 -1.2500
 6907TIP3    H242281   1.765   5.263   1.764  0.0472  2.0049  2.2052
 6908TIP3   OH242282   6.312   5.970   2.405 -0.2135  0.2215 -0.6926
 6908TIP3    H142283   6.260   5.899   2.370 -3.1077  0.7415  2.0241
 6908TIP3    H242284   6.341   5.939   2.491  1.0399  1.2575 -0.6998
 6909TIP3   OH242285   1.896   0.789   1.040  0.2665  0.1038  0.0255
 6909TIP3    H142286   1.885   0.867   1.095 -0.1888  1.1639 -1.5104
 6909TIP3    H242287   1.965   0.739   1.083  0.1806  1.0685  1.3579
 6910TIP3   OH242288   2.570   1.576   1.041 -0.0086 -0.1724 -0.0300
 6910TIP3    H142289   2.623   1.651   1.013 -1.1461  0.6759  0.0408
 6910TIP3    H242290   2.605   1.502   0.991  1.0355  0.4213 -0.2081
 6911TIP3   OH242291   4.306   6.007   3.742  0.0702  0.0171 -0.7351
 6911TIP3    H142292   4.313   6.038   3.833  1.6523 -1.8698 -0.1497
 6911TIP3    H242293   4.215   5.979   3.734  0.4970 -2.2688  1.1996
 6912TIP3   OH242294   2.389   3.108   0.795  0.5591 -0.5095 -0.0349
 6912TIP3    H142295   2.448   3.063   0.856 -0.2781 -0.7793  0.5946
 6912TIP3    H242296   2.302   3.078   0.820 -0.0584  1.5643  0.4756
 6913TIP3   OH242297   0.887   3.218   1.817  0.1498 -0.1900  0.0963
 6913TIP3    H142298   0.933   3.281   1.761 -1.6244  0.9362 -0.1744
 6913TIP3    H242299   0.795   3.227   1.793 -0.4212 -1.2111  1.7239
 6914TIP3   OH242300   1.624   0.107   3.669  0.6057  0.4931  0.5206
 6914TIP3    H142301   1.644   0.119   3.762  1.5569  0.9242  0.2776
 6914TIP3    H242302   1.696   0.152   3.623 -0.1812  0.8251 -0.4207
 6915TIP3   OH242303   2.204   5.103   2.770 -0.1732  0.5565  0.6913
 6915TIP3    H142304   2.119   5.113   2.813 -0.5112 -0.1086  0.2082
 6915TIP3    H242305   2.199   5.159   2.692 -0.2790  0.3055  0.5151
 6916TIP3   OH242306   2.572   4.944   2.374  0.1175 -0.4295  0.0463
 6916TIP3    H142307   2.597   4.982   2.290  0.5982 -1.1498 -0.1458
 6916TIP3    H242308   2.654   4.939   2.423 -0.1326 -0.1769  0.4923
 6917TIP3   OH242309   5.524   1.919   3.803 -0.1589  0.1604  0.5770
 6917TIP3    H142310   5.591   1.987   3.812 -1.0281  1.3001 -0.9848
 6917TIP3    H242311   5.516   1.881   3.890  0.2334  2.2141  1.5647
 6918TIP3   OH242312   6.033   0.454   3.265  0.1571 -0.0932  0.2040
 6918TIP3    H142313   6.006   0.364   3.285  0.8323 -0.5943 -1.0299
 6918TIP3    H242314   6.098   0.475   3.331 -1.7684  0.4415  2.0586
 6919TIP3   OH242315   5.639   5.094   2.236 -0.6141 -0.0012 -0.2644
 6919TIP3    H142316   5.702   5.108   2.306 -1.6494  0.4485  0.6097
 6919TIP3    H242317   5.568   5.044   2.276 -2.3219  2.2164 -0.3078
 6920TIP3   OH242318   2.820   0.482   2.965 -0.2727  0.2455  0.7609
 6920TIP3    H142319   2.782   0.409   3.015 -0.3502 -0.1217  0.1732
 6920TIP3    H242320   2.869   0.532   3.030  0.8744 -1.0598  0.9524
 6921TIP3   OH242321   3.050   6.667   4.239 -0.6364 -0.1995  0.2362
 6921TIP3    H142322   2.980   6.608   4.265 -0.4620  0.1891  1.6569
 6921TIP3    H242323   3.034   6.748   4.288  0.7302 -0.0654  0.5201
 6922TIP3   OH242324   0.615   1.980   3.094 -0.2775  0.1585 -0.3139
 6922TIP3    H142325   0.583   2.056   3.045 -1.2828 -0.6631 -0.9556
 6922TIP3    H242326   0.693   2.013   3.139  0.0582  1.2308 -1.5973
 6923TIP3   OH242327   3.930   6.025   3.408 -0.6671  0.0392 -0.6623
 6923TIP3    H142328   4.020   5.991   3.409 -0.5865  0.2239 -1.2803
 6923TIP3    H242329   3.886   5.975   3.477 -0.8941 -2.3179 -2.3753
 6924TIP3   OH242330   3.155   3.391   2.362 -0.4916  0.6341  1.0141
 6924TIP3    H142331   3.120   3.312   2.404  0.6841 -0.5402 -0.1392
 6924TIP3    H242332   3.172   3.451   2.435 -0.2743 -0.6361  2.0455
 6925TIP3   OH242333   3.091   4.396   3.512 -0.1393  0.1378  0.4532
 6925TIP3    H142334   3.124   4.308   3.496  1.0262  0.5907  0.2981
 6925TIP3    H242335   3.023   4.408   3.446  0.7145 -0.1073 -0.4860
 6926TIP3   OH242336   6.800   1.731   0.830 -0.1397  0.1035  0.2964
 6926TIP3    H142337   6.795   1.784   0.910 -0.6134  1.2074 -0.4497
 6926TIP3    H242338   6.860   1.779   0.773 -2.8879  1.5275 -1.5940
 6927TIP3   OH242339   6.760   5.978   0.282 -0.0446 -0.4101 -0.2121
 6927TIP3    H142340   6.773   6.000   0.375 -1.0769  1.1986 -0.4128
 6927TIP3    H242341   6.790   5.888   0.275  1.3210 -0.1343  1.4034
 6928TIP3   OH242342   4.447   4.719   1.967 -0.5463  0.0461  0.3359
 6928TIP3    H142343   4.368   4.703   1.916 -0.6571  0.3176  0.4220
 6928TIP3    H242344   4.458   4.640   2.020 -0.1016 -0.4957 -0.5263
 6929TIP3   OH242345   1.534   0.905   2.386  0.4276  0.3627 -0.1444
 6929TIP3    H142346   1.584   0.973   2.431  0.1924 -0.0454  0.7624
 6929TIP3    H242347   1.478   0.868   2.455 -1.5952  1.2307 -1.2170
 6930TIP3   OH242348   4.194   1.938   1.985  0.3733 -0.3304 -0.0048
 6930TIP3    H142349   4.222   1.955   1.895  1.1840  0.0412  0.3012
 6930TIP3    H242350   4.145   2.017   2.010 -0.5569 -0.7735 -0.3765
 6931TIP3   OH242351   1.731   5.163   2.612 -0.3815  0.0116 -0.2391
 6931TIP3    H142352   1.742   5.258   2.604  0.9937 -0.0949  0.1595
 6931TIP3    H242353   1.763   5.128   2.528 -1.7489 -0.0614 -0.7515
 6932TIP3   OH242354   2.184   5.768   1.071 -0.3523  0.5087 -0.6000
 6932TIP3    H142355   2.137   5.703   1.124  1.2724 -0.5739 -0.3938
 6932TIP3    H242356   2.197   5.724   0.987 -1.4557  1.5784 -1.3476
 6933TIP3   OH242357   1.878   1.936   3.741 -0.1645 -0.1227  0.5512
 6933TIP3    H142358   1.822   2.004   3.778 -1.7434 -1.0164 -0.0938
 6933TIP3    H242359   1.913   1.889   3.817  0.7898  1.2464  0.9947
 6934TIP3   OH242360   5.957   5.375   2.440  0.2684  0.3034  0.3925
 6934TIP3    H142361   5.894   5.391   2.510  1.5464 -1.4391  2.0252
 6934TIP3    H242362   6.037   5.420   2.468  1.3571 -1.9282  1.0265
 6935TIP3   OH242363   4.464   4.979   8.213 -0.3113  0.1283 -0.0211
 6935TIP3    H142364   4.543   5.022   8.182 -0.5941  0.4637 -0.2804
 6935TIP3    H242365   4.494   4.919   8.281  0.2946 -0.4741 -0.8083
 6936TIP3   OH242366   0.346   0.236   1.002 -0.1699  0.0103  0.2797
 6936TIP3    H142367   0.333   0.331   1.013 -0.4850  0.0798 -0.5573
 6936TIP3    H242368   0.292   0.196   1.070 -0.0963  0.4342  0.5897
 6937TIP3   OH242369   1.662   2.461   2.873 -0.1917 -0.6110 -0.0026
 6937TIP3    H142370   1.686   2.457   2.781 -0.4745 -2.4895 -0.0321
 6937TIP3    H242371   1.741   2.493   2.917 -0.3327  1.1519 -0.9579
 6938TIP3   OH242372   0.752   6.019   4.854  0.1377  0.0475  0.9640
 6938TIP3    H142373   0.658   6.006   4.871 -0.2988  2.3021  0.5789
 6938TIP3    H242374   0.778   6.087   4.915  0.6009  2.0711 -1.3145
 6939TIP3   OH242375   3.859   2.474   2.126 -0.0824 -0.4655  0.2050
 6939TIP3    H142376   3.827   2.539   2.189 -1.8484 -0.0495 -1.0385
 6939TIP3    H242377   3.821   2.500   2.042  1.4560 -1.5278 -0.8899
 6940TIP3   OH242378   2.249   5.376   0.802  0.5248  0.0819 -0.5316
 6940TIP3    H142379   2.275   5.397   0.892 -0.4672  0.2491 -0.2701
 6940TIP3    H242380   2.164   5.332   0.811  0.6018 -0.2482 -1.3618
 6941TIP3   OH242381   5.796   6.003   0.893  0.2769 -0.0041 -0.8158
 6941TIP3    H142382   5.758   6.012   0.805  1.1890 -1.7648 -1.4519
 6941TIP3    H242383   5.822   5.911   0.898  1.9214  0.4871  0.6132
 6942TIP3   OH242384   5.015   3.252   3.327 -0.6305  0.1222 -0.5028
 6942TIP3    H142385   5.104   3.246   3.292 -0.5470  0.7914 -0.4235
 6942TIP3    H242386   4.963   3.196   3.269 -0.5001  1.2296 -1.7503
 6943TIP3   OH242387   6.703   4.567   4.100  0.4334  0.0790 -0.1836
 6943TIP3    H142388   6.716   4.567   4.195 -1.1342 -1.4067  0.0875
 6943TIP3    H242389   6.631   4.629   4.086 -1.0148 -1.4937 -0.0554
 6944TIP3   OH242390   3.225   1.440   2.238 -0.3561  0.3962 -0.0589
 6944TIP3    H142391   3.296   1.474   2.184  0.8195  0.8247  1.6709
 6944TIP3    H242392   3.185   1.518   2.277  0.3713  0.0116  1.5352
 6945TIP3   OH242393   0.669   2.437   0.998 -0.0496 -0.3970  0.8143
 6945TIP3    H142394   0.587   2.454   1.044  0.4461 -1.0248  1.9659
 6945TIP3    H242395   0.667   2.344   0.977 -0.5665 -0.0040 -1.1026
 6946TIP3   OH242396   4.559   3.217   1.972  0.4799 -0.3563 -0.0129
 6946TIP3    H142397   4.627   3.158   2.002  2.0086  0.8850 -0.8623
 6946TIP3    H242398   4.589   3.247   1.886 -1.3935 -0.1478 -0.6478
 6947TIP3   OH242399   2.591   2.351   1.540 -0.3844  0.0024 -0.5214
 6947TIP3    H142400   2.524   2.285   1.521  0.0386 -0.6060  0.0396
 6947TIP3    H242401   2.576   2.420   1.475 -0.7179 -0.7302 -1.2446
 6948TIP3   OH242402   0.199   4.840   0.466 -0.0503  0.0697 -0.5137
 6948TIP3    H142403   0.115   4.853   0.424  0.1359 -0.4104 -1.0540
 6948TIP3    H242404   0.183   4.858   0.559 -0.7839 -0.1754 -0.5885
 6949TIP3   OH242405   0.316   2.755   1.920 -1.0832 -0.4906 -0.0666
 6949TIP3    H142406   0.338   2.670   1.882 -1.2628 -1.5428  2.0833
 6949TIP3    H242407   0.295   2.737   2.011 -1.1849  1.8635  0.4512
 6950TIP3   OH242408   3.319   6.435   1.073 -0.8171 -0.5252  0.1339
 6950TIP3    H142409   3.337   6.454   1.165  0.6001  0.7628 -0.3744
 6950TIP3    H242410   3.372   6.498   1.024  0.0669 -2.5017 -1.6079
 6951TIP3   OH242411   4.133   5.177   1.076  0.6506  0.1768 -0.2172
 6951TIP3    H142412   4.199   5.136   1.132  0.9167  0.6518 -0.1769
 6951TIP3    H242413   4.180   5.246   1.029  0.2494  0.3263 -0.4103
 6952TIP3   OH242414   5.271   4.506   3.497  0.0766 -0.6822 -0.3881
 6952TIP3    H142415   5.235   4.562   3.566 -0.0029 -0.0869 -0.9088
 6952TIP3    H242416   5.222   4.529   3.418  0.1677 -1.3601 -0.6542
 6953TIP3   OH242417   4.976   2.622   2.495 -0.1385  0.3816 -0.1336
 6953TIP3    H142418   4.956   2.700   2.546  0.8154  0.3919  0.2541
 6953TIP3    H242419   4.904   2.562   2.512 -0.1000  0.5904  0.8060
 6954TIP3   OH242420   5.662   0.808   3.254  0.3522 -0.0647 -0.3468
 6954TIP3    H142421   5.665   0.712   3.251  0.2874 -0.0589 -0.6440
 6954TIP3    H242422   5.753   0.835   3.267  0.0428 -0.2657  3.2787
 6955TIP3   OH242423   2.412   5.144   1.561  0.5986  0.3384 -0.1077
 6955TIP3    H142424   2.360   5.155   1.640  0.5031 -0.6779 -0.0102
 6955TIP3    H242425   2.356   5.091   1.503  0.9316  0.5086 -0.5932
 6956TIP3   OH242426   0.038   3.671   1.666  0.5667 -0.5068  0.8691
 6956TIP3    H142427   0.015   3.629   1.583 -1.2076  1.0762  0.4795
 6956TIP3    H242428   0.128   3.702   1.653  0.7352 -1.3040 -0.0115
 6957TIP3   OH242429   3.950   0.337   2.269 -0.2384  0.5400 -0.8085
 6957TIP3    H142430   4.021   0.393   2.238  0.4477  0.1323 -0.0281
 6957TIP3    H242431   3.987   0.291   2.344 -1.4171  0.5100 -0.2195
 6958TIP3   OH242432   1.438   5.097   3.839  0.4503  0.0034  0.3354
 6958TIP3    H142433   1.397   5.053   3.913  1.0157 -2.3999 -0.6791
 6958TIP3    H242434   1.494   5.030   3.799  4.0281  2.5823  0.5887
 6959TIP3   OH242435   1.468   3.292   3.557  0.6283 -1.0560  0.5979
 6959TIP3    H142436   1.415   3.216   3.581 -0.9001 -0.1944  0.0809
 6959TIP3    H242437   1.416   3.338   3.491  0.5436  1.5460  2.3439
 6960TIP3   OH242438   3.074   3.710   0.841  0.1695  0.1008 -0.0021
 6960TIP3    H142439   3.041   3.700   0.930 -1.0335  0.2168 -0.4177
 6960TIP3    H242440   3.141   3.642   0.832  0.3526  0.1394  1.0042
 6961TIP3   OH242441   0.095   4.557   2.102 -0.3281 -0.5933 -0.3040
 6961TIP3    H142442   0.136   4.602   2.028  0.8904  0.4861  0.9641
 6961TIP3    H242443   0.091   4.465   2.075 -0.1474 -0.1883 -1.7914
 6962TIP3   OH242444   0.035   1.721   3.673  0.1255 -0.1446  0.0304
 6962TIP3    H142445   0.051   1.752   3.584 -0.9135  0.1709 -0.0576
 6962TIP3    H242446  -0.034   1.778   3.707 -1.5445 -2.0635  0.0270
 6963TIP3   OH242447   2.305   5.162   1.816 -0.7092 -0.3982  0.3548
 6963TIP3    H142448   2.218   5.154   1.855 -1.4297  0.5984 -0.9524
 6963TIP3    H242449   2.323   5.256   1.817  0.2726 -0.5763  0.4183
 6964TIP3   OH242450   3.310   1.984   2.120 -0.3976  0.3139  0.3756
 6964TIP3    H142451   3.374   2.016   2.184 -2.1080 -0.9040  2.8484
 6964TIP3    H242452   3.228   2.027   2.144 -0.8451  0.8672 -1.9216
 6965TIP3   OH242453   2.576   1.442   3.322 -0.4073 -0.0831 -0.8313
 6965TIP3    H142454   2.486   1.455   3.295 -0.4716  0.4661 -0.3802
 6965TIP3    H242455   2.629   1.478   3.251 -0.5594  0.4631 -0.6692
 6966TIP3   OH242456   0.582   0.753   2.168  0.1343  0.8343  0.2344
 6966TIP3    H142457   0.522   0.680   2.152  0.7955  0.3813 -0.2755
 6966TIP3    H242458   0.669   0.717   2.147  0.2869  2.3494 -2.0106
 6967TIP3   OH242459   0.840   6.919   3.263  0.3544 -0.3291  0.6019
 6967TIP3    H142460   0.749   6.927   3.293  0.0191 -0.5173 -0.3285
 6967TIP3    H242461   0.843   6.836   3.217  1.0277 -0.3639  0.6985
 6968TIP3   OH242462   6.590   2.180   2.937  0.3246 -0.2699  0.1612
 6968TIP3    H142463   6.685   2.188   2.929  0.7809 -3.0684  1.3197
 6968TIP3    H242464   6.571   2.210   3.026  0.2425 -0.2999  0.1538
 6969TIP3   OH242465   3.768   1.509   0.544  0.8307  0.2617  0.1137
 6969TIP3    H142466   3.830   1.440   0.566  1.1792  0.2731 -0.7902
 6969TIP3    H242467   3.793   1.583   0.600 -0.0533 -0.5884  1.6666
 6970TIP3   OH242468   1.491   6.427   4.382  0.0383 -0.6777 -0.0704
 6970TIP3    H142469   1.515   6.458   4.469  2.3348 -1.1070 -0.4959
 6970TIP3    H242470   1.535   6.343   4.373 -2.8624 -2.2939 -0.4483
 6971TIP3   OH242471   2.796   2.185   0.928 -0.0984 -0.6639 -0.0729
 6971TIP3    H142472   2.803   2.273   0.893 -1.1157 -0.7578 -0.5451
 6971TIP3    H242473   2.814   2.128   0.854 -1.7422 -0.8591 -0.3513
 6972TIP3   OH242474   3.481   3.845   1.784  0.4001 -0.2932 -0.5444
 6972TIP3    H142475   3.564   3.891   1.794  0.4382 -0.3870 -0.4215
 6972TIP3    H242476   3.498   3.758   1.821 -0.3461  0.3404  1.4616
 6973TIP3   OH242477   0.985   2.836   2.708 -0.1273 -0.5215  0.5226
 6973TIP3    H142478   1.010   2.892   2.782 -0.3533  1.5553 -0.8849
 6973TIP3    H242479   0.891   2.825   2.717  0.0521 -1.5984  1.3605
 6974TIP3   OH242480   5.776   1.307   0.971 -0.3437  0.1580 -0.7328
 6974TIP3    H142481   5.861   1.350   0.980  0.5155 -1.3217 -1.4633
 6974TIP3    H242482   5.779   1.235   1.034 -1.4118  0.6023 -0.1519
 6975TIP3   OH242483   3.242   1.461   1.769  0.1024  0.1273  0.1023
 6975TIP3    H142484   3.312   1.424   1.824 -1.0913 -0.4268  1.3315
 6975TIP3    H242485   3.262   1.554   1.764  0.7146  0.0455  0.7794
 6976TIP3   OH242486   4.239   4.893   2.107 -0.0919  0.3798  0.0677
 6976TIP3    H142487   4.232   4.799   2.089 -1.4463  0.2303  1.2069
 6976TIP3    H242488   4.329   4.915   2.084 -0.1342 -0.9002 -1.5226
 6977TIP3   OH242489   2.855   1.177   2.359  0.3703 -0.1826  0.2117
 6977TIP3    H142490   2.772   1.218   2.380 -0.1624 -1.3205  0.4033
 6977TIP3    H242491   2.921   1.239   2.390 -0.4029 -0.1442  1.8387
 6978TIP3   OH242492   5.417   1.184   1.594  0.6482  0.0926  0.2727
 6978TIP3    H142493   5.449   1.269   1.623  2.5278 -0.2506 -0.6353
 6978TIP3    H242494   5.425   1.128   1.672 -0.6404  0.7131  0.8847
 6979TIP3   OH242495   2.995   1.932   0.622 -0.1767 -0.0849  0.1904
 6979TIP3    H142496   3.040   1.960   0.702  0.9452 -1.9168  0.2660
 6979TIP3    H242497   2.907   1.907   0.652  0.2798 -0.8867  0.8930
 6980TIP3   OH242498   5.987   1.006   3.890  0.0900  0.0556 -0.1278
 6980TIP3    H142499   5.945   0.929   3.854 -1.1513 -0.1058  1.5358
 6980TIP3    H242500   5.924   1.041   3.954  2.1605  0.1486  2.0352
 6981TIP3   OH242501   6.783   3.386   2.775 -0.3515  0.0240  0.3899
 6981TIP3    H142502   6.844   3.398   2.702 -1.5950  1.7115 -0.4424
 6981TIP3    H242503   6.761   3.476   2.802 -2.4587 -0.5175  0.6345
 6982TIP3   OH242504   1.589   4.267   3.565  0.0643 -0.7477 -0.2244
 6982TIP3    H142505   1.596   4.345   3.620  0.6789  0.6791 -2.1678
 6982TIP3    H242506   1.567   4.302   3.478 -1.1115 -2.8884 -0.8557
 6983TIP3   OH242507   1.876   5.842   1.700  0.4103  0.2745  0.1793
 6983TIP3    H142508   1.793   5.850   1.653  1.0639 -0.6551 -1.1960
 6983TIP3    H242509   1.894   5.748   1.701  0.0765  0.1720  2.9789
 6984TIP3   OH242510   6.115   5.330   1.673  0.2724 -0.1039  0.4302
 6984TIP3    H142511   6.045   5.393   1.654  1.4797  1.3814  0.7140
 6984TIP3    H242512   6.075   5.267   1.733 -1.1256  0.0572 -0.2740
 6985TIP3   OH242513   0.404   1.503   1.476 -0.0957 -0.3273  0.3349
 6985TIP3    H142514   0.343   1.489   1.403 -0.7216  1.4375  0.4639
 6985TIP3    H242515   0.411   1.418   1.518  0.9645 -1.6519 -2.2624
 6986TIP3   OH242516   0.606   3.580   2.896 -0.4858  0.3767  0.0093
 6986TIP3    H142517   0.557   3.550   2.819 -0.4160  1.1394 -0.3318
 6986TIP3    H242518   0.688   3.531   2.891 -0.6857  0.0420 -0.1149
 6987TIP3   OH242519   2.024   6.817   2.940  0.7129 -0.0505 -0.0617
 6987TIP3    H142520   2.054   6.906   2.919  1.2993 -0.3689 -0.5851
 6987TIP3    H242521   2.075   6.793   3.017  0.2429  0.2183  0.3474
 6988TIP3   OH242522   5.519   1.305   3.239  0.0783 -0.0616 -0.4613
 6988TIP3    H142523   5.454   1.370   3.265 -0.8692 -0.9376 -0.6181
 6988TIP3    H242524   5.517   1.240   3.309  0.8699 -0.0530 -0.4174
 6989TIP3   OH242525   0.549   6.934   2.671 -0.4297 -0.4389 -0.1375
 6989TIP3    H142526   0.516   7.017   2.636  0.4942 -0.0961 -0.2408
 6989TIP3    H242527   0.643   6.938   2.655 -0.2276 -1.0383  0.8278
 6990TIP3   OH242528   5.142   6.244   4.870 -0.5728  0.0809 -0.1432
 6990TIP3    H142529   5.054   6.236   4.832 -0.5346 -0.1852 -0.1792
 6990TIP3    H242530   5.146   6.334   4.902 -0.7765  0.1663 -0.3500
 6991TIP3   OH242531   6.276   5.404   3.484  0.0721 -0.2919 -0.2267
 6991TIP3    H142532   6.310   5.459   3.413  2.4578  0.0744  1.1258
 6991TIP3    H242533   6.343   5.408   3.552 -2.3843 -0.1342  2.3536
 6992TIP3   OH242534   2.911   3.868   2.339 -0.1994 -0.4032  0.2835
 6992TIP3    H142535   2.966   3.944   2.355 -1.7897  0.8386  0.0148
 6992TIP3    H242536   2.973   3.796   2.327  1.3695 -0.2401  5.2226
 6993TIP3   OH242537   1.446   5.674   3.018  0.3537  0.5727 -0.0474
 6993TIP3    H142538   1.392   5.595   3.030  1.0381 -0.1694 -1.6301
 6993TIP3    H242539   1.399   5.742   3.066 -1.2837 -0.3560 -0.2537
 6994TIP3   OH242540   1.309   0.410   1.484  0.1004 -0.1021  0.3264
 6994TIP3    H142541   1.370   0.425   1.557  0.5632  0.6468 -0.1982
 6994TIP3    H242542   1.343   0.332   1.440 -0.0475 -0.4217  0.7745
 6995TIP3   OH242543   1.063   3.961   2.669 -0.1865  0.3649 -0.2817
 6995TIP3    H142544   1.102   3.987   2.752 -1.2377  0.5080  0.1868
 6995TIP3    H242545   1.094   3.872   2.654  0.1677  0.4133  0.1623
 6996TIP3   OH242546   4.349   0.629   2.356  0.6355 -0.3225 -0.3887
 6996TIP3    H142547   4.270   0.649   2.407  0.7132  0.1325 -0.4491
 6996TIP3    H242548   4.418   0.681   2.397  0.9362 -0.8283 -0.2494
 6997TIP3   OH242549   2.588   3.689   4.790  0.4726 -0.3767  0.5955
 6997TIP3    H142550   2.641   3.727   4.719 -0.6305  0.8726  0.3985
 6997TIP3    H242551   2.549   3.611   4.751 -0.2598  0.3891 -0.2854
 6998TIP3   OH242552   5.300   0.948   3.961 -0.5867  0.0939  0.1587
 6998TIP3    H142553   5.354   0.873   3.936 -0.6196 -0.3088  1.2189
 6998TIP3    H242554   5.360   1.009   4.003 -1.2528 -1.5671  3.9451
 6999TIP3   OH242555   1.294   6.579   3.875  0.3796  0.2731 -0.0381
 6999TIP3    H142556   1.339   6.592   3.791 -0.6611  0.7152 -0.5508
 6999TIP3    H242557   1.293   6.484   3.888  2.4356  0.2846  0.5613
 7000TIP3   OH242558   3.231   0.102   1.408 -0.1732 -0.0863  0.3101
 7000TIP3    H142559   3.214   0.196   1.413  0.6676  0.0309  1.8778
 7000TIP3    H242560   3.213   0.070   1.497  0.2419 -1.2834 -0.0170
 7001TIP3   OH242561   5.023   1.280   4.726  0.4747  0.1733  0.3947
 7001TIP3    H142562   4.933   1.280   4.758  1.1247 -2.6060  2.5365
 7001TIP3    H242563   5.050   1.372   4.732 -1.5361  0.7354  1.7882
 7002TIP3   OH242564   1.897   4.234   4.220 -0.0945  0.0169  0.1723
 7002TIP3    H142565   1.909   4.311   4.275 -0.6991  1.0979 -1.1335
 7002TIP3    H242566   1.841   4.265   4.149  0.9152 -1.2116 -1.2205
 7003TIP3   OH242567   3.682   2.729   0.870 -0.3719  0.0120 -0.0901
 7003TIP3    H142568   3.712   2.640   0.850 -0.9714 -0.6209  1.6136
 7003TIP3    H242569   3.745   2.786   0.828 -0.0179 -1.2226 -1.2857
 7004TIP3   OH242570   5.625   4.619   4.021  0.0653  0.4855  0.4232
 7004TIP3    H142571   5.696   4.586   3.967  0.2060 -0.0001  0.8984
 7004TIP3    H242572   5.630   4.714   4.013 -0.9823  0.3990 -1.7940
 7005TIP3   OH242573   4.262   4.114   1.257 -0.1166 -0.4138 -0.2362
 7005TIP3    H142574   4.344   4.087   1.216  0.6141  1.1769  0.0858
 7005TIP3    H242575   4.196   4.098   1.190  0.7265 -0.0119 -1.1984
 7006TIP3   OH242576   0.205   5.387   1.744  0.0423  0.1804 -0.6101
 7006TIP3    H142577   0.225   5.319   1.680  0.7161 -0.0775 -0.1306
 7006TIP3    H242578   0.236   5.352   1.827 -1.3096  0.2785 -0.0324
 7007TIP3   OH242579   6.182   0.264   1.634 -0.4395 -0.0861 -0.5818
 7007TIP3    H142580   6.224   0.178   1.638 -0.4726 -0.0424  1.9398
 7007TIP3    H242581   6.249   0.325   1.664 -0.8987  0.5947 -0.9084
 7008TIP3   OH242582   1.197   1.518   1.139  0.4449  0.5106  0.0911
 7008TIP3    H142583   1.171   1.600   1.097 -0.2316 -0.2233 -0.9697
 7008TIP3    H242584   1.258   1.478   1.077 -0.9977 -0.8533 -0.5078
 7009TIP3   OH242585   0.751   5.846   2.757  1.0539 -0.2003 -0.3865
 7009TIP3    H142586   0.838   5.831   2.795  1.3816  2.5550  0.1259
 7009TIP3    H242587   0.708   5.904   2.819 -2.3060 -3.5635  0.8174
 7010TIP3   OH242588   6.798   2.529   2.221 -0.1486  0.0599 -0.6006
 7010TIP3    H142589   6.872   2.584   2.195 -0.8992  0.2669 -2.4793
 7010TIP3    H242590   6.831   2.475   2.293  1.3443  1.2189 -0.3726
 7011TIP3   OH242591   1.131   5.339   2.557  0.1777  0.4523 -0.2704
 7011TIP3    H142592   1.223   5.347   2.585 -0.4304 -0.7444  2.3437
 7011TIP3    H242593   1.084   5.402   2.612 -0.6500  0.7372 -1.2774
 7012TIP3   OH242594   2.727   4.276   2.817  0.4163 -0.0501 -0.1256
 7012TIP3    H142595   2.685   4.224   2.886  1.7233  0.3912  1.0341
 7012TIP3    H242596   2.785   4.336   2.864 -0.4204  1.9142 -1.4667
 7013TIP3   OH242597   0.361   4.323   1.475  0.5261  0.2325 -0.1720
 7013TIP3    H142598   0.322   4.359   1.396 -0.8545  0.6671  0.6708
 7013TIP3    H242599   0.398   4.239   1.447  0.2093  0.4523 -1.3087
 7014TIP3   OH242600   1.226   2.191   1.735 -0.2668  0.1808 -0.6136
 7014TIP3    H142601   1.233   2.244   1.656 -1.7282  0.3658 -0.6386
 7014TIP3    H242602   1.133   2.167   1.740  0.2931 -2.2375 -0.5285
 7015TIP3   OH242603   2.658   4.888   0.414 -0.0711 -0.2889  0.0969
 7015TIP3    H142604   2.750   4.907   0.435  0.3917 -1.6614 -0.5556
 7015TIP3    H242605   2.624   4.970   0.380  1.2117  0.0047 -0.5815
 7016TIP3   OH242606   1.645   0.831   4.166 -0.1685  0.8492  0.5127
 7016TIP3    H142607   1.599   0.758   4.207 -1.0369  1.6111  0.9198
 7016TIP3    H242608   1.576   0.884   4.127  0.6613 -0.6255 -3.4246
 7017TIP3   OH242609   1.046   5.528   0.481  0.0098 -0.2170 -0.0519
 7017TIP3    H142610   1.122   5.583   0.462  0.7175 -1.9522 -2.9005
 7017TIP3    H242611   0.992   5.581   0.541  2.7166  1.6491  0.9233
 7018TIP3   OH242612   5.185   1.242   4.485  0.2329 -0.0474  0.0957
 7018TIP3    H142613   5.165   1.334   4.472  1.0077  0.0057 -0.7863
 7018TIP3    H242614   5.163   1.225   4.577  1.3553  1.3409  0.6508
 7019TIP3   OH242615   0.793   4.129   3.445  0.2014 -0.2604 -0.4144
 7019TIP3    H142616   0.725   4.195   3.433 -1.1014 -1.0388  1.8698
 7019TIP3    H242617   0.865   4.176   3.486 -0.3986 -0.0689  0.4504
 7020TIP3   OH242618   0.165   4.777   3.099  0.3573  0.4084  0.2925
 7020TIP3    H142619   0.105   4.842   3.062 -0.9581  1.5078  3.9459
 7020TIP3    H242620   0.251   4.803   3.067 -0.4055  2.6471 -0.1054
 7021TIP3   OH242621   3.848   4.013   0.899  0.0109  0.1285  0.8820
 7021TIP3    H142622   3.871   3.993   0.808 -1.4613  0.8044  0.3152
 7021TIP3    H242623   3.844   4.109   0.902 -0.8530  0.0908  1.3918
 7022TIP3   OH242624   6.545   2.960   0.313  0.4122  0.6173 -0.2788
 7022TIP3    H142625   6.574   2.872   0.288 -2.3128 -0.1570 -1.0688
 7022TIP3    H242626   6.621   3.016   0.298  1.9751 -1.4467 -0.5455
 7023TIP3   OH242627   1.323   4.396   3.140 -0.3591  0.0426  0.4577
 7023TIP3    H142628   1.234   4.363   3.147  0.3171 -1.5445  2.3026
 7023TIP3    H242629   1.349   4.375   3.050 -0.9627 -1.8696  0.6901
 7024TIP3   OH242630   1.771   3.476   3.163 -0.1800 -0.4894 -0.3222
 7024TIP3    H142631   1.688   3.501   3.122 -1.5494 -1.8069  1.4116
 7024TIP3    H242632   1.797   3.553   3.213  1.2385  0.9444 -3.0628
 7025TIP3   OH242633   2.874   4.666   0.743 -0.5690  0.3045  0.1802
 7025TIP3    H142634   2.845   4.574   0.742 -1.1441  0.4691  0.7264
 7025TIP3    H242635   2.944   4.670   0.679 -0.1419 -0.6532  0.5736
 7026TIP3   OH242636   2.378   0.174   4.688  0.3120 -0.4396  0.7459
 7026TIP3    H142637   2.317   0.147   4.757  0.5004 -0.0548  1.0631
 7026TIP3    H242638   2.335   0.248   4.645 -0.6772 -1.8163 -0.7885
 7027TIP3   OH242639   0.071   2.124   1.194 -0.0293  0.2127 -0.1537
 7027TIP3    H142640   0.157   2.094   1.222  0.5341  1.5610 -0.3311
 7027TIP3    H242641   0.088   2.208   1.150 -1.4909  0.8129  0.3492
 7028TIP3   OH242642   5.748   3.453   2.817 -0.3405  0.0049  0.6622
 7028TIP3    H142643   5.824   3.498   2.781 -3.2293  4.2421 -0.8437
 7028TIP3    H242644   5.731   3.496   2.901 -0.7695 -1.3578  1.3165
 7029TIP3   OH242645   5.655   4.897   3.114  0.1108 -0.4790 -0.2150
 7029TIP3    H142646   5.697   4.863   3.194  0.5785  0.2248 -0.1534
 7029TIP3    H242647   5.605   4.823   3.080  1.4358 -1.3652 -0.3110
 7030TIP3   OH242648   1.194   2.427   0.485 -0.6987  0.5008  0.3667
 7030TIP3    H142649   1.133   2.500   0.501 -0.8653  0.3975  0.1992
 7030TIP3    H242650   1.175   2.365   0.556 -2.0078 -0.3318 -0.6763
 7031TIP3   OH242651   5.917   3.480   3.547  0.0150  0.0842  0.4061
 7031TIP3    H142652   5.901   3.386   3.547  1.4241 -0.1690  0.4809
 7031TIP3    H242653   6.004   3.491   3.586 -0.3046  1.4501  0.8086
 7032TIP3   OH242654   6.894   5.896   2.603  0.0561  0.1382  0.4933
 7032TIP3    H142655   6.951   5.837   2.554  2.3324  2.3196  0.3017
 7032TIP3    H242656   6.868   5.962   2.539  0.7093  1.4165  1.4983
 7033TIP3   OH242657   4.579   1.992   3.111  0.4890  0.4685 -0.3817
 7033TIP3    H142658   4.656   1.961   3.064 -0.3110  0.7875 -1.9467
 7033TIP3    H242659   4.586   2.087   3.108 -0.2236  0.5105 -1.0076
 7034TIP3   OH242660   6.319   4.833   3.235  0.1383  0.2087  0.2008
 7034TIP3    H142661   6.380   4.783   3.181 -1.7672 -1.0562 -0.8945
 7034TIP3    H242662   6.295   4.774   3.306 -0.0504  0.5651  0.4366
 7035TIP3   OH242663   2.349   3.563   1.671 -0.6273 -0.1436  0.2338
 7035TIP3    H142664   2.392   3.520   1.597 -1.8655 -0.6010 -0.2455
 7035TIP3    H242665   2.316   3.491   1.725 -0.3012  0.1949  0.9033
 7036TIP3   OH242666   5.263   5.814   0.297 -0.1519 -0.1630  0.0239
 7036TIP3    H142667   5.204   5.739   0.291  1.0437 -1.1550  0.2747
 7036TIP3    H242668   5.350   5.776   0.307  0.3450  1.2578  1.6493
 7037TIP3   OH242669   1.626   6.009   1.306  0.6966 -0.1004 -0.1159
 7037TIP3    H142670   1.642   6.102   1.325  1.1578  0.1527 -1.6097
 7037TIP3    H242671   1.535   6.006   1.279  0.9770  0.1282 -1.1407
 7038TIP3   OH242672   1.800   3.160   0.444 -0.5277 -0.1640  0.0651
 7038TIP3    H142673   1.796   3.182   0.351 -0.4217 -0.0993  0.0756
 7038TIP3    H242674   1.836   3.238   0.486 -3.3645  1.0281  0.5760
 7039TIP3   OH242675   0.853   1.256   1.497  0.5698  0.6093  0.4985
 7039TIP3    H142676   0.788   1.307   1.450  0.7390 -0.2550 -0.7221
 7039TIP3    H242677   0.922   1.239   1.433  0.5361 -1.1035  0.8652
 7040TIP3   OH242678   6.024   4.010   2.076  0.3452  0.6850 -0.0633
 7040TIP3    H142679   5.959   4.080   2.066 -0.4242  0.0673  0.4769
 7040TIP3    H242680   5.999   3.966   2.157  1.5368  0.5173  0.2240
 7041TIP3   OH242681   3.705   5.266   3.020  0.1299 -0.5631  0.3436
 7041TIP3    H142682   3.687   5.273   2.926  0.9526 -0.3640  0.1977
 7041TIP3    H242683   3.724   5.173   3.034  2.5740 -0.2083 -0.1825
 7042TIP3   OH242684   3.676   2.522   2.699  0.3896 -1.1222 -0.0082
 7042TIP3    H142685   3.736   2.539   2.773 -0.4235 -0.6373  0.5546
 7042TIP3    H242686   3.618   2.598   2.698  0.9486 -0.6744 -1.7353
 7043TIP3   OH242687   4.718   4.203   0.766  0.2738  0.0399  0.2943
 7043TIP3    H142688   4.711   4.297   0.778  1.0920  0.2785 -0.8704
 7043TIP3    H242689   4.639   4.167   0.806 -0.9114  1.3736 -0.7454
 7044TIP3   OH242690   1.212   5.750   1.813  0.1410  0.3817  0.8822
 7044TIP3    H142691   1.254   5.665   1.797 -1.7110 -0.5134  0.5248
 7044TIP3    H242692   1.254   5.809   1.751  0.6200 -0.5529  0.2956
 7045TIP3   OH242693   3.833   5.501   3.451 -0.0176 -0.6193  0.0463
 7045TIP3    H142694   3.856   5.551   3.529 -0.2183  0.8701 -0.8219
 7045TIP3    H242695   3.914   5.492   3.402  0.1997 -1.9315  0.5984
 7046TIP3   OH242696   0.532   3.304   3.132 -0.0559  0.1016 -0.5220
 7046TIP3    H142697   0.602   3.297   3.067  0.5973  1.6147 -0.0219
 7046TIP3    H242698   0.470   3.365   3.093  0.5356  1.3411  0.3941
 7047TIP3   OH242699   5.767   5.176   8.470  0.5362  0.4615  0.1075
 7047TIP3    H142700   5.815   5.093   8.466  1.1527  0.7851  0.6448
 7047TIP3    H242701   5.692   5.163   8.412  1.9779  0.4112 -1.8516
 7048TIP3   OH242702   1.184   6.100   3.425  0.7870  0.1144  0.2558
 7048TIP3    H142703   1.181   6.149   3.507  1.5001 -0.0022  0.3560
 7048TIP3    H242704   1.144   6.016   3.446 -1.6838  1.0742 -0.2474
 7049TIP3   OH242705   4.428   5.200   1.757 -0.2908 -0.0408  0.7457
 7049TIP3    H142706   4.398   5.110   1.756  0.0054 -0.1433  0.7727
 7049TIP3    H242707   4.424   5.226   1.849  0.3552 -0.2846  0.8522
 7050TIP3   OH242708   6.243   6.501   2.460  0.2368  0.5327  0.3153
 7050TIP3    H142709   6.266   6.513   2.367  1.5947  1.4958  0.7490
 7050TIP3    H242710   6.149   6.517   2.463  0.4716  2.4282 -0.6231
 7051TIP3   OH242711   2.179   3.653   2.948 -0.2618  0.3562  0.0454
 7051TIP3    H142712   2.168   3.622   2.858 -0.1788  0.0933  0.1263
 7051TIP3    H242713   2.100   3.705   2.965 -0.1507  0.6369 -0.2739
 7052TIP3   OH242714   4.310   0.154   3.831 -0.1503  0.4988 -0.0197
 7052TIP3    H142715   4.321   0.067   3.870 -0.1974 -0.0717 -1.2330
 7052TIP3    H242716   4.394   0.197   3.846 -0.7951  1.0526  2.4283
 7053TIP3   OH242717   1.613   6.369   0.973 -0.3461  0.2293 -0.2387
 7053TIP3    H142718   1.602   6.426   0.897 -0.3612  1.2366  0.4965
 7053TIP3    H242719   1.703   6.338   0.967 -0.9663 -1.4159 -1.8032
 7054LIG     O142720   3.461   2.310   4.141  1.0193 -0.0039  0.4877
 7054LIG     O242721   3.321   2.094   4.061 -0.3229 -0.0135 -0.6927
 7054LIG     O342722   3.736   2.164   4.152 -0.3406 -0.3322  0.4060
 7054LIG     O442723   3.229   2.102   3.845 -0.7199 -1.0672 -0.1711
 7054LIG     O542724   3.534   2.089   3.765 -0.3221 -0.2073  0.7169
 7054LIG     O642725   3.495   1.780   3.876  0.1545 -0.3433 -0.2740
 7054LIG     O742726   3.214   1.732   3.870  0.4270  0.7866 -0.3197
 7054LIG     O842727   2.944   2.059   3.903 -0.4906 -0.3342 -0.5797
 7054LIG     O942728   3.020   1.866   3.999 -0.0091 -0.1696 -0.4007
 7054LIG      N42729   3.257   2.450   4.590  0.4641 -0.3814  1.1801
 7054LIG     C142730   3.329   2.338   4.324  0.6898 -0.2898  0.2800
 7054LIG     C242731   3.206   2.280   4.399  0.0693 -0.8546  0.0441
 7054LIG     C342732   3.316   2.318   4.170 -0.1592  0.0924 -0.2706
 7054LIG     C442733   3.248   2.302   4.551  0.0545  0.2843 -0.4822
 7054LIG     C542734   3.356   2.484   4.354 -0.5274  0.1955  0.3218
 7054LIG     C642735   3.458   2.281   4.371  0.6838 -0.2024 -0.7925
 7054LIG     C742736   3.368   2.219   4.591  0.3259  0.8110  0.5386
 7054LIG     C842737   3.362   2.513   4.507  0.0859  0.3727 -0.7599
 7054LIG     C942738   3.238   2.185   4.127 -0.6497 -0.9063 -0.1029
 7054LIG    C1042739   3.484   2.222   4.486 -0.6945  0.4879 -0.1468
 7054LIG    C1142740   3.178   2.141   4.355 -0.4074 -0.0285 -0.4391
 7054LIG    C1242741   3.530   2.257   4.252  0.0206  0.5293 -0.7870
 7054LIG    C1342742   3.191   2.096   4.232  0.1053  0.6343  0.6986
 7054LIG    C1442743   3.128   2.520   4.585 -0.2975  0.4910  0.6303
 7054LIG    C1542744   3.597   2.138   4.495  0.3995  1.2413  0.1887
 7054LIG    C1642745   3.654   2.191   4.266  0.5664  0.3446  0.0277
 7054LIG    C1742746   3.684   2.133   4.389 -0.8383  0.3185  0.4668
 7054LIG    C1842747   3.347   2.119   3.927  0.3079 -0.2032 -0.0681
 7054LIG    C1942748   3.463   2.022   3.868  0.5806  0.1648  0.1329
 7054LIG    C2042749   3.404   1.884   3.834 -0.5557  1.1968 -0.0948
 7054LIG    C2142750   3.271   1.864   3.898 -0.3668  1.1688  1.0694
 7054LIG    C2242751   3.177   1.967   3.848 -0.0465  0.6080  0.1637
 7054LIG    C2342752   3.036   1.959   3.924 -0.2380  0.1344 -0.0534
 7054LIG     H142753   3.125   2.350   4.369  0.5294 -1.1052 -1.9201
 7054LIG     H242754   3.290   2.401   4.101  2.0147  1.4072  0.3931
 7054LIG     H342755   3.165   2.267   4.615  0.0284  1.0314 -0.0952
 7054LIG     H442756   3.270   2.547   4.322 -0.6093  0.2639  0.6821
 7054LIG     H542757   3.450   2.517   4.305  0.3156 -0.8962  1.1770
 7054LIG     H642758   3.343   2.112   4.603  0.3398  0.6795 -0.5639
 7054LIG     H742759   3.397   2.247   4.695 -1.0819  1.0208  0.8974
 7054LIG     H842760   3.459   2.473   4.543 -0.2763 -0.7699 -1.0052
 7054LIG     H942761   3.378   2.623   4.518  0.3540  0.1694  1.3072
 7054LIG    H1042762   3.156   2.218   4.060  0.7824  0.0622 -1.4343
 7054LIG    H1142763   3.134   2.076   4.433  1.3321  0.7538  1.2875
 7054LIG    H1242764   3.121   2.017   4.200  0.1219 -0.0665  2.2987
 7054LIG    H1342765   3.048   2.450   4.617 -0.0616 -0.5202 -0.9166
 7054LIG    H1442766   3.105   2.547   4.480  4.1736 -1.3320 -1.0640
 7054LIG    H1542767   3.128   2.607   4.654  0.9574  1.0636 -0.0652
 7054LIG    H1642768   3.620   2.086   4.587  0.9663  0.1044 -0.5738
 7054LIG    H1742769   3.764   2.062   4.390 -0.0370  1.1946 -0.0621
 7054LIG    H1842770   3.383   2.223   3.916  0.8535 -0.2093  1.3988
 7054LIG    H1942771   3.528   2.021   3.958  1.6435 -1.4055 -0.6112
 7054LIG    H2042772   3.390   1.869   3.725  4.1981 -0.9698 -0.6722
 7054LIG    H2142773   3.824   2.152   4.189 -0.6723  1.7712  2.0837
 7054LIG    H2242774   3.279   1.878   4.008  2.8617  1.7796  0.8743
 7054LIG    H2342775   3.158   1.944   3.741  0.7165  1.2072 -0.1162
 7054LIG    H2442776   3.628   2.080   3.783  0.2482 -0.9604 -2.2380
 7054LIG    H2542777   3.452   1.700   3.845 -1.1073 -0.1532  0.8645
 7054LIG    H2642778   3.131   1.750   3.914 -0.4785  0.5681 -1.8440
 7054LIG    H2742779   2.878   2.071   3.972  0.2382  0.2957  0.0301
   6.93578   6.93578   8.50534
