Title
42779
    1SAPS     N    1   5.379   6.039   0.327 -0.2917 -0.1804  0.3080
    1SAPS   HN1    2   5.418   5.979   0.251 -0.5816 -1.4296  1.1224
    1SAPS   HN2    3   5.277   6.057   0.321  0.1636  2.7180 -0.2790
    1SAPS   HN3    4   5.417   6.135   0.313 -0.6275 -0.4786 -3.8788
    1SAPS   C12    5   5.410   5.967   0.454 -0.3461 -0.2771 -0.3529
    1SAPS  H12A    6   5.375   5.865   0.449 -0.4704 -0.2848  0.4679
    1SAPS   C13    7   5.559   5.944   0.480  0.1181  0.3276  0.6162
    1SAPS  O13A    8   5.644   5.959   0.387  0.1389 -0.4015  0.7337
    1SAPS  O13B    9   5.600   5.895   0.590  0.8095 -0.2812  0.2136
    1SAPS   C11   10   5.351   6.028   0.584  0.0093 -0.2931  0.0063
    1SAPS  H11A   11   5.408   6.119   0.612  1.6582 -1.3818  0.3823
    1SAPS  H11B   12   5.370   5.952   0.663  0.8068 -1.4046 -1.2015
    1SAPS     P   13   5.109   5.953   0.545 -0.1065 -0.5586 -0.1989
    1SAPS   O13   14   5.150   5.823   0.602  0.2638  0.0382 -0.1602
    1SAPS   O14   15   4.972   6.003   0.582 -0.0805  0.1148  0.1686
    1SAPS   O12   16   5.213   6.062   0.575 -0.2820  0.2385  0.1374
    1SAPS   O11   17   5.119   5.953   0.383 -0.1797  0.4804  0.1098
    1SAPS    C1   18   5.110   5.836   0.309  0.0592 -0.7624 -0.0060
    1SAPS    HA   19   5.191   5.767   0.340  0.7220  0.0378  0.0514
    1SAPS    HB   20   5.008   5.795   0.329 -0.7753  1.3831  0.3372
    1SAPS    C2   21   5.132   5.855   0.160  0.0627  0.3565  0.5445
    1SAPS    HS   22   5.238   5.887   0.150  0.5527  0.0324  3.7747
    1SAPS   O21   23   5.040   5.945   0.095  0.2110 -0.0180  0.3642
    1SAPS   C21   24   5.078   6.074   0.087  0.2041 -0.2130  1.3421
    1SAPS   O22   25   5.175   6.123   0.142  0.0116  0.4486  0.2017
    1SAPS   C22   26   4.974   6.149   0.011 -0.4666 -0.4907  0.3500
    1SAPS   H2R   27   4.914   6.077  -0.048  0.2383  0.2288 -1.3303
    1SAPS   H2S   28   4.913   6.193   0.093 -0.2033  1.1688 -0.3034
    1SAPS    C3   29   5.129   5.723   0.079  0.1857 -0.2538  0.2536
    1SAPS    HX   30   5.022   5.699   0.064  0.1926 -0.2789  0.2459
    1SAPS    HY   31   5.175   5.637   0.132 -0.9317 -1.9720 -1.4644
    1SAPS   O31   32   5.190   5.735  -0.050 -0.1493 -0.3202  0.4046
    1SAPS   C31   33   5.110   5.728  -0.153  0.3218  0.1154  0.6229
    1SAPS   O32   34   4.992   5.704  -0.151 -0.4285  0.0067 -0.1633
    1SAPS   C32   35   5.204   5.742  -0.279  0.1161 -0.2088  0.1081
    1SAPS   H2X   36   5.301   5.692  -0.258 -0.8006 -1.2848  2.0419
    1SAPS   H2Y   37   5.221   5.851  -0.293 -0.2144 -0.2892 -1.0498
    1SAPS   C23   38   5.038   6.263  -0.068 -0.3594 -0.4230 -0.5210
    1SAPS   H3R   39   5.148   6.254  -0.079 -0.2541  0.5886 -0.3360
    1SAPS   H3S   40   5.013   6.357  -0.016  0.2745 -0.2373 -0.5461
    1SAPS   C24   41   4.993   6.263  -0.216 -0.3170  0.6293  0.0307
    1SAPS   H4R   42   4.882   6.264  -0.223 -0.2207  0.8069 -2.7492
    1SAPS   H4S   43   5.025   6.170  -0.269  1.3680  0.8831  0.5374
    1SAPS   C25   44   5.039   6.371  -0.306 -1.0579  0.2677  0.0514
    1SAPS   H5R   45   5.028   6.473  -0.266  1.6974  0.8774 -0.5415
    1SAPS   C26   46   5.100   6.357  -0.431 -0.5031 -0.3958 -0.0949
    1SAPS   H6R   47   5.132   6.447  -0.485 -0.9833  0.5636  1.1643
    1SAPS   C27   48   5.120   6.217  -0.493 -0.6715 -0.2821  0.3420
    1SAPS   H7R   49   5.042   6.141  -0.470 -0.9866 -0.4416 -1.1643
    1SAPS   H7S   50   5.217   6.182  -0.450  0.4691  3.3164  1.0233
    1SAPS   C28   51   5.117   6.225  -0.641 -0.0702  0.3329  0.4511
    1SAPS   H8R   52   5.036   6.288  -0.681 -0.2932 -0.6445 -0.6747
    1SAPS   C29   53   5.218   6.185  -0.728 -0.0627  0.4673 -0.4344
    1SAPS   H9R   54   5.195   6.196  -0.835 -0.5227 -1.1292 -0.5242
    1SAPS  C210   55   5.357   6.122  -0.708  0.1768 -0.5317 -0.3523
    1SAPS  H10R   56   5.395   6.127  -0.603  2.5936  1.9157 -1.2061
    1SAPS  H10S   57   5.431   6.180  -0.768  1.2807 -1.8154 -0.2800
    1SAPS  C211   58   5.376   5.993  -0.769 -0.9985  0.1305  0.0612
    1SAPS  H11R   59   5.400   5.901  -0.713  0.0132 -0.3816 -1.1485
    1SAPS  C212   60   5.402   5.967  -0.901 -0.5271 -0.5425  0.0488
    1SAPS  H12R   61   5.414   5.863  -0.934 -1.0560  0.3250 -3.1459
    1SAPS  C213   62   5.405   6.067  -1.013 -0.1411  0.7755 -0.2825
    1SAPS  H13R   63   5.508   6.076  -1.054  0.2370  3.5064  1.0674
    1SAPS  H13S   64   5.382   6.171  -0.981  0.7914  0.7793  0.4205
    1SAPS  C214   65   5.305   6.037  -1.122  0.1751  0.6812 -0.5046
    1SAPS  H14R   66   5.202   6.052  -1.086  0.8009  0.4280  1.5849
    1SAPS  C215   67   5.326   5.980  -1.244 -0.4459 -0.0281  0.0940
    1SAPS  H15R   68   5.242   5.942  -1.302  0.8673 -0.8775 -1.3292
    1SAPS  C216   69   5.464   5.954  -1.294 -0.6588 -0.2766  0.4662
    1SAPS  H16R   70   5.499   5.867  -1.235 -0.4195 -0.7688 -0.3771
    1SAPS  H16S   71   5.541   6.031  -1.275 -1.7160  1.2478 -1.0740
    1SAPS  C217   72   5.451   5.928  -1.441  0.5356 -0.3941 -0.0695
    1SAPS  H17R   73   5.366   5.859  -1.463  1.4482 -1.1629 -1.3485
    1SAPS  H17S   74   5.538   5.867  -1.473  0.3718 -1.4591  1.3865
    1SAPS  C218   75   5.449   6.059  -1.522  0.1121  0.0175  0.6713
    1SAPS  H18R   76   5.544   6.104  -1.486  0.6472 -0.9502  0.5110
    1SAPS  H18S   77   5.354   6.107  -1.491 -0.1110 -0.0264  0.0859
    1SAPS  C219   78   5.468   6.041  -1.678 -0.1284  0.4231 -0.0577
    1SAPS  H19R   79   5.556   5.974  -1.685 -0.1685  0.1991  1.3211
    1SAPS  H19S   80   5.480   6.145  -1.715 -0.4401 -0.0113 -1.4243
    1SAPS  C220   81   5.347   5.970  -1.742  0.4865 -0.0230 -0.0831
    1SAPS  H20R   82   5.255   6.025  -1.714 -0.0060  0.2018 -1.9985
    1SAPS  H20S   83   5.341   5.865  -1.708  0.5072 -0.4792 -1.4089
    1SAPS  H20T   84   5.354   5.974  -1.853 -2.4631 -1.8250 -0.4329
    1SAPS   C33   85   5.132   5.673  -0.401  0.9817  0.5552 -0.2944
    1SAPS   H3X   86   5.047   5.734  -0.437 -0.2109 -1.6647 -1.4425
    1SAPS   H3Y   87   5.084   5.577  -0.373 -1.7146  1.2819 -2.0654
    1SAPS   C34   88   5.212   5.639  -0.523  0.6606  0.2593 -0.0171
    1SAPS   H4X   89   5.283   5.556  -0.503 -2.5371 -3.0541 -1.2801
    1SAPS   H4Y   90   5.263   5.735  -0.544 -0.4987  0.7309 -0.7905
    1SAPS   C35   91   5.128   5.610  -0.652  0.1703 -0.2609 -0.3434
    1SAPS   H5X   92   5.070   5.701  -0.676 -1.8500 -1.7014 -1.1542
    1SAPS   H5Y   93   5.063   5.520  -0.649 -0.5247  0.2529  0.3899
    1SAPS   C36   94   5.228   5.584  -0.767  0.5355 -0.1853  0.0325
    1SAPS   H6X   95   5.298   5.504  -0.736 -0.1043 -0.9399 -0.4208
    1SAPS   H6Y   96   5.281   5.679  -0.784  1.4761 -0.6163  0.5096
    1SAPS   C37   97   5.154   5.548  -0.901  0.2230  0.1210 -0.2463
    1SAPS   H7X   98   5.089   5.460  -0.883  1.0586 -0.2378  1.1962
    1SAPS   H7Y   99   5.235   5.533  -0.976  2.1176  0.5131  1.6249
    1SAPS   C38  100   5.066   5.669  -0.946 -0.8952 -0.0610 -0.2580
    1SAPS   H8X  101   5.125   5.763  -0.952  0.2890 -0.8833 -2.2939
    1SAPS   H8Y  102   4.979   5.707  -0.888 -1.4601 -0.8378 -0.5687
    1SAPS   C39  103   5.000   5.640  -1.082 -0.0563 -0.1556 -0.4352
    1SAPS   H9X  104   4.939   5.730  -1.105  1.2112  1.2600  1.4504
    1SAPS   H9Y  105   4.931   5.553  -1.079  0.6450 -0.7181 -0.3109
    1SAPS  C310  106   5.099   5.620  -1.204 -0.0712 -0.6108  0.1336
    1SAPS  H10X  107   5.150   5.525  -1.177  0.0201 -0.6589 -0.2049
    1SAPS  H10Y  108   5.166   5.707  -1.189  2.4357 -2.3750 -0.1988
    1SAPS  C311  109   5.028   5.626  -1.339 -0.5177 -0.3521  0.7658
    1SAPS  H11X  110   4.961   5.537  -1.339 -1.5769  0.4283  0.3154
    1SAPS  H11Y  111   5.107   5.619  -1.417 -0.9416  3.1674 -0.1347
    1SAPS  C312  112   4.945   5.753  -1.363  0.6091  0.2838 -0.1144
    1SAPS  H12X  113   5.003   5.846  -1.379 -0.3400  0.6791 -1.4682
    1SAPS  H12Y  114   4.872   5.767  -1.281 -1.4451 -1.1871 -1.5760
    1SAPS  C313  115   4.847   5.743  -1.486  0.5083  0.9437 -0.7447
    1SAPS  H13X  116   4.804   5.845  -1.497 -4.1449 -0.6875  0.2350
    1SAPS  H13Y  117   4.767   5.675  -1.450  2.3485 -0.1623  1.5510
    1SAPS  C314  118   4.911   5.711  -1.619  0.6338 -0.0261 -0.0131
    1SAPS  H14X  119   4.834   5.693  -1.697 -1.5763  0.6425  1.9005
    1SAPS  H14Y  120   4.964   5.614  -1.610  2.0300  0.6758 -0.4204
    1SAPS  C315  121   5.018   5.808  -1.672  0.3396 -0.3342 -0.4249
    1SAPS  H15X  122   5.118   5.781  -1.634  0.3118 -0.3032 -0.3273
    1SAPS  H15Y  123   4.992   5.905  -1.624  0.0871 -1.5643  2.1014
    1SAPS  C316  124   5.014   5.812  -1.824  0.3679  0.1368  0.4653
    1SAPS  H16X  125   5.056   5.910  -1.858  2.1500 -0.9046 -0.4934
    1SAPS  H16Y  126   4.909   5.828  -1.856  1.1252  3.1732 -0.8956
    1SAPS  C317  127   5.094   5.690  -1.891  0.4854 -0.7277 -0.3409
    1SAPS  H17X  128   5.026   5.603  -1.884 -3.1749  1.9866  1.0207
    1SAPS  H17Y  129   5.183   5.666  -1.830  1.4501  2.5860 -0.2050
    1SAPS  C318  130   5.140   5.712  -2.034 -0.1971 -0.1563 -0.5965
    1SAPS  H18X  131   5.074   5.782  -2.091  3.9662  1.7970 -3.5044
    1SAPS  H18Y  132   5.141   5.616  -2.089  0.6934 -1.2034  1.1827
    1SAPS  H18Z  133   5.240   5.761  -2.036  0.1723 -0.5731  2.4674
    2SAPS     N  134   4.945   2.306   0.128 -0.0763 -0.1421  0.4069
    2SAPS   HN1  135   4.912   2.210   0.102  0.3947  0.2247 -1.7058
    2SAPS   HN2  136   4.862   2.359   0.160  0.1797  0.5705 -0.0977
    2SAPS   HN3  137   4.971   2.338   0.033  1.3964 -1.3216  0.3556
    2SAPS   C12  138   5.049   2.297   0.232 -0.0849 -0.2935  0.3137
    2SAPS  H12A  139   5.113   2.383   0.218 -1.4626  1.0084  1.6229
    2SAPS   C13  140   5.002   2.275   0.380  0.1906 -0.4249  0.1521
    2SAPS  O13A  141   4.883   2.280   0.408 -0.5744 -0.2392 -0.0010
    2SAPS  O13B  142   5.094   2.253   0.469  0.6222 -0.5033  0.1513
    2SAPS   C11  143   5.148   2.175   0.202 -0.0305 -0.4921  0.3061
    2SAPS  H11A  144   5.112   2.071   0.216  1.4495 -1.2354 -1.1106
    2SAPS  H11B  145   5.237   2.183   0.268  0.1342 -1.7843  0.2548
    2SAPS     P  146   5.295   2.267   0.004  0.0184 -0.3382  0.2136
    2SAPS   O13  147   5.234   2.399  -0.003  0.1564 -0.1501 -0.5075
    2SAPS   O14  148   5.421   2.275   0.082 -1.0804 -0.4240  0.7867
    2SAPS   O12  149   5.197   2.166   0.071 -0.3126  0.4564 -0.0860
    2SAPS   O11  150   5.330   2.219  -0.140 -0.5803  0.3700 -0.1056
    2SAPS    C1  151   5.258   2.130  -0.218  0.7937  0.1786  0.4175
    2SAPS    HA  152   5.149   2.130  -0.198  0.6692 -0.1161 -0.2211
    2SAPS    HB  153   5.268   2.150  -0.327 -0.5588 -1.7105 -0.1079
    2SAPS    C2  154   5.307   1.984  -0.190  0.5596 -0.0997 -0.3521
    2SAPS    HS  155   5.292   1.970  -0.081 -1.8150 -1.0851 -0.7517
    2SAPS   O21  156   5.443   1.980  -0.224 -0.0666  0.1996  0.6124
    2SAPS   C21  157   5.526   1.894  -0.171  0.4521  0.7650 -0.1402
    2SAPS   O22  158   5.492   1.827  -0.074 -0.0331  0.1530  0.1286
    2SAPS   C22  159   5.649   1.882  -0.260 -0.0634  0.5817 -0.1307
    2SAPS   H2R  160   5.621   1.818  -0.346  3.3071  0.6710 -1.4743
    2SAPS   H2S  161   5.664   1.989  -0.286  1.3600  0.4719  0.1184
    2SAPS    C3  162   5.225   1.873  -0.258 -0.5741 -0.8050  0.9190
    2SAPS    HX  163   5.120   1.877  -0.222 -0.6667 -1.2674  0.7112
    2SAPS    HY  164   5.271   1.774  -0.238  2.6008  0.2845 -0.4495
    2SAPS   O31  165   5.227   1.896  -0.397  0.5836  0.5030 -0.1906
    2SAPS   C31  166   5.314   1.821  -0.464 -0.1801  0.6349  0.5898
    2SAPS   O32  167   5.387   1.733  -0.424  0.2082 -0.4635  0.1797
    2SAPS   C32  168   5.297   1.873  -0.608 -0.1975 -0.0991 -0.8913
    2SAPS   H2X  169   5.295   1.983  -0.595  1.1359 -0.0871 -0.6345
    2SAPS   H2Y  170   5.196   1.835  -0.636  0.0211 -2.0788  0.7840
    2SAPS   C23  171   5.772   1.829  -0.182  0.4282  0.0811 -0.0883
    2SAPS   H3R  172   5.742   1.725  -0.158  1.2081 -0.4176 -1.1768
    2SAPS   H3S  173   5.773   1.888  -0.087 -2.2181  0.6647 -0.3521
    2SAPS   C24  174   5.902   1.832  -0.274  0.1372  0.9556 -0.0404
    2SAPS   H4R  175   5.894   1.781  -0.372 -1.2857 -0.1052  0.5844
    2SAPS   H4S  176   5.980   1.769  -0.223 -1.0162 -0.6445 -0.1704
    2SAPS   C25  177   5.952   1.973  -0.291  0.2840  0.9903  0.4226
    2SAPS   H5R  178   5.965   2.023  -0.193 -0.6271 -1.2166  1.7594
    2SAPS   C26  179   5.982   2.035  -0.407 -0.2840 -0.5144 -0.5114
    2SAPS   H6R  180   6.010   2.141  -0.401 -0.4009 -0.5572  2.4114
    2SAPS   C27  181   5.978   1.971  -0.543 -0.1259 -0.0007 -0.6406
    2SAPS   H7R  182   6.012   1.865  -0.539  2.1037  0.6736  0.5136
    2SAPS   H7S  183   6.056   2.024  -0.603 -0.3816  0.0569 -0.9263
    2SAPS   C28  184   5.848   1.985  -0.616  0.5002 -0.6020 -0.3093
    2SAPS   H8R  185   5.754   1.993  -0.560  0.6199 -2.0148  0.1451
    2SAPS   C29  186   5.842   1.991  -0.754  0.3953 -0.7964  0.8108
    2SAPS   H9R  187   5.745   2.000  -0.806  0.7638 -1.6455 -0.0602
    2SAPS  C210  188   5.961   1.968  -0.845  0.3927 -0.0784  0.1667
    2SAPS  H10R  189   5.927   1.895  -0.922 -0.2410  0.7020 -0.3124
    2SAPS  H10S  190   6.047   1.920  -0.793 -0.4668 -1.1299  0.6703
    2SAPS  C211  191   6.008   2.094  -0.921 -0.4540  0.0967  0.4829
    2SAPS  H11R  192   6.111   2.122  -0.897 -0.7375  1.4590  0.1655
    2SAPS  C212  193   5.936   2.146  -1.024 -0.3878 -0.1322  0.4600
    2SAPS  H12R  194   5.966   2.226  -1.094 -2.1080  0.5472  0.4370
    2SAPS  C213  195   5.808   2.073  -1.076  0.4788  0.8053 -0.2335
    2SAPS  H13R  196   5.764   1.990  -1.016 -1.2571  1.7276 -0.1890
    2SAPS  H13S  197   5.818   2.034  -1.180 -0.7310  0.1722 -0.1313
    2SAPS  C214  198   5.700   2.174  -1.071  0.7040 -0.2455  0.1545
    2SAPS  H14R  199   5.636   2.172  -0.981  1.2925  0.7813  0.6156
    2SAPS  C215  200   5.684   2.271  -1.166  0.4386  0.2436  0.3877
    2SAPS  H15R  201   5.610   2.351  -1.156  0.0785  0.0262 -0.4515
    2SAPS  C216  202   5.780   2.292  -1.280 -0.1822 -0.8063 -0.0646
    2SAPS  H16R  203   5.857   2.213  -1.291 -0.3793 -0.9306 -0.5836
    2SAPS  H16S  204   5.834   2.388  -1.267  0.6117 -1.2125 -0.3221
    2SAPS  C217  205   5.709   2.311  -1.418 -0.0745 -0.2668 -0.6203
    2SAPS  H17R  206   5.646   2.403  -1.413  0.7094  0.2652 -0.3475
    2SAPS  H17S  207   5.645   2.224  -1.443  0.0545  0.0134 -1.9967
    2SAPS  C218  208   5.810   2.320  -1.532 -0.1605 -0.8307  0.2539
    2SAPS  H18R  209   5.855   2.220  -1.547  1.9086 -0.3647  2.7028
    2SAPS  H18S  210   5.887   2.392  -1.498 -0.8450  0.7234 -1.2964
    2SAPS  C219  211   5.745   2.386  -1.650 -0.3667  0.4446 -0.3192
    2SAPS  H19R  212   5.692   2.481  -1.626  0.5940  0.4046  2.2899
    2SAPS  H19S  213   5.673   2.312  -1.692  0.9101 -1.1402  0.1793
    2SAPS  C220  214   5.849   2.416  -1.762 -0.2009 -0.0652 -0.0152
    2SAPS  H20R  215   5.907   2.325  -1.789  0.2237  1.1522 -3.7826
    2SAPS  H20S  216   5.913   2.496  -1.721 -0.8464  0.0795  0.7400
    2SAPS  H20T  217   5.793   2.450  -1.851 -0.0703  2.0456  0.6601
    2SAPS   C33  218   5.403   1.825  -0.705 -0.2354 -0.1565  0.6019
    2SAPS   H3X  219   5.412   1.714  -0.702 -0.9388 -0.5181 -3.9209
    2SAPS   H3Y  220   5.506   1.866  -0.695  0.2549 -0.9726 -0.7686
    2SAPS   C34  221   5.358   1.871  -0.845  0.4834  0.1337  0.8447
    2SAPS   H4X  222   5.353   1.981  -0.832  2.8086  0.1584  2.0047
    2SAPS   H4Y  223   5.256   1.830  -0.859  0.8803 -0.6199 -0.0681
    2SAPS   C35  224   5.443   1.850  -0.981  0.3635  0.2057  0.3278
    2SAPS   H5X  225   5.429   1.747  -1.021  1.9550  1.1445 -3.0046
    2SAPS   H5Y  226   5.552   1.855  -0.962  0.6934 -3.3069  0.0534
    2SAPS   C36  227   5.396   1.949  -1.089 -0.2449  0.2960 -0.7835
    2SAPS   H6X  228   5.416   2.057  -1.071  0.0874 -0.1756  2.2991
    2SAPS   H6Y  229   5.285   1.941  -1.094 -0.4660  1.4406  1.2604
    2SAPS   C37  230   5.444   1.915  -1.230  0.2730  0.3211  0.6405
    2SAPS   H7X  231   5.430   1.809  -1.260 -0.4183  0.3233  0.9619
    2SAPS   H7Y  232   5.553   1.938  -1.222  0.0598  1.5566  0.2604
    2SAPS   C38  233   5.387   2.019  -1.336  0.0343 -0.4140  0.3732
    2SAPS   H8X  234   5.391   2.126  -1.307  1.5238 -0.8659  2.0422
    2SAPS   H8Y  235   5.283   1.988  -1.359  0.2961 -1.7155  0.8472
    2SAPS   C39  236   5.457   1.996  -1.468 -0.0334  0.7486 -0.1034
    2SAPS   H9X  237   5.433   1.892  -1.499  2.3445 -0.4555  1.7622
    2SAPS   H9Y  238   5.568   2.001  -1.459  0.1205 -0.7808 -0.8159
    2SAPS  C310  239   5.420   2.103  -1.576  0.0128 -0.2171 -0.3057
    2SAPS  H10X  240   5.510   2.111  -1.641  1.4601 -1.9449  1.3892
    2SAPS  H10Y  241   5.403   2.203  -1.530 -1.4884 -0.8675  0.6053
    2SAPS  C311  242   5.301   2.063  -1.656  0.2403 -0.5497  0.0766
    2SAPS  H11X  243   5.236   2.008  -1.584  0.8061  0.7082  1.6159
    2SAPS  H11Y  244   5.321   1.980  -1.727 -0.1745 -0.9054  0.3680
    2SAPS  C312  245   5.226   2.167  -1.726  0.5794 -0.1413  1.0290
    2SAPS  H12X  246   5.205   2.246  -1.651  1.1024 -0.7110  1.7912
    2SAPS  H12Y  247   5.128   2.124  -1.754  0.2533  0.2461  1.5605
    2SAPS  C313  248   5.288   2.229  -1.854  0.2955  0.4376 -0.4189
    2SAPS  H13X  249   5.311   2.143  -1.921  3.4531 -1.1697  2.4091
    2SAPS  H13Y  250   5.392   2.262  -1.834  0.1641  1.1983 -0.9668
    2SAPS  C314  251   5.203   2.347  -1.908 -0.6746 -0.3454  0.0820
    2SAPS  H14X  252   5.267   2.401  -1.981  1.4956 -1.3107  1.1851
    2SAPS  H14Y  253   5.170   2.413  -1.825  0.9423  2.5202 -1.3871
    2SAPS  C315  254   5.070   2.309  -1.979  0.3489  0.8156  0.6406
    2SAPS  H15X  255   5.023   2.407  -2.000  3.3837  2.3101  0.2094
    2SAPS  H15Y  256   5.010   2.252  -1.905 -1.2208  1.2146 -0.2842
    2SAPS  C316  257   5.084   2.233  -2.108  0.7951 -0.7015  0.2742
    2SAPS  H16X  258   5.115   2.129  -2.084 -0.2319 -0.5834  2.3052
    2SAPS  H16Y  259   5.144   2.290  -2.182 -0.8807  1.4226  0.4722
    2SAPS  C317  260   4.953   2.206  -2.182  0.4167  0.2684 -1.0417
    2SAPS  H17X  261   4.873   2.196  -2.106  1.2644 -3.3608 -0.4761
    2SAPS  H17Y  262   4.950   2.110  -2.237  1.4150  0.1169 -0.8457
    2SAPS  C318  263   4.911   2.323  -2.277  0.0613 -0.0584  0.1171
    2SAPS  H18X  264   4.954   2.327  -2.379 -2.7237 -0.8203 -1.1820
    2SAPS  H18Y  265   4.945   2.416  -2.228  0.5715  1.1227 -2.3300
    2SAPS  H18Z  266   4.801   2.322  -2.296  0.1586  2.7768 -1.1111
    3SAPS     N  267   4.168   2.104   0.461  0.4287 -0.0043  0.0736
    3SAPS   HN1  268   4.102   2.158   0.519  0.4270 -0.3988  0.4467
    3SAPS   HN2  269   4.261   2.099   0.508 -0.2073  0.3755  1.3973
    3SAPS   HN3  270   4.174   2.154   0.370  0.4350 -0.6763 -0.3029
    3SAPS   C12  271   4.103   1.978   0.438  0.0936 -0.4837 -0.3991
    3SAPS  H12A  272   4.170   1.905   0.481 -0.1106 -1.5365 -1.7957
    3SAPS   C13  273   3.965   1.958   0.506 -0.8973 -0.0333 -0.0522
    3SAPS  O13A  274   3.906   2.065   0.547  0.2945  0.1298 -0.3657
    3SAPS  O13B  275   3.903   1.853   0.479  0.1879  0.4086  0.4218
    3SAPS   C11  276   4.086   1.951   0.290 -0.6576 -0.1098 -0.6922
    3SAPS  H11A  277   4.016   2.030   0.255  1.3860  2.2175  0.1823
    3SAPS  H11B  278   4.044   1.849   0.277 -0.0441 -0.5884  0.8209
    3SAPS     P  279   4.310   1.838   0.191 -0.1806  0.6921  0.0693
    3SAPS   O13  280   4.434   1.899   0.140 -0.0290 -0.1165 -0.4694
    3SAPS   O14  281   4.323   1.755   0.310  0.4175  0.1305  0.5098
    3SAPS   O12  282   4.211   1.956   0.221  0.0398 -0.4807  0.5099
    3SAPS   O11  283   4.232   1.762   0.081 -0.5472 -0.4507  0.1279
    3SAPS    C1  284   4.172   1.830  -0.029  0.0290 -0.0679 -0.9944
    3SAPS    HA  285   4.063   1.844  -0.013  0.4995  3.4793  0.0717
    3SAPS    HB  286   4.215   1.933  -0.036 -0.8809  0.4097  0.1650
    3SAPS    C2  287   4.192   1.772  -0.168  0.1032 -0.0731  0.3623
    3SAPS    HS  288   4.142   1.837  -0.243 -0.1667  0.6380  1.1405
    3SAPS   O21  289   4.138   1.640  -0.180  0.4416  0.0327  0.4456
    3SAPS   C21  290   4.110   1.593  -0.304  0.3456  0.9756  0.1098
    3SAPS   O22  291   4.112   1.654  -0.409 -0.1692  0.5433  0.1659
    3SAPS   C22  292   4.075   1.444  -0.292  0.2574 -0.1426 -0.5204
    3SAPS   H2R  293   4.106   1.382  -0.380  0.3541 -0.6071 -0.1622
    3SAPS   H2S  294   4.125   1.410  -0.199 -0.5702  2.3830  0.9230
    3SAPS    C3  295   4.345   1.763  -0.191 -0.4587  0.5705 -0.0204
    3SAPS    HX  296   4.406   1.696  -0.127 -0.1755 -0.8950 -1.7231
    3SAPS    HY  297   4.382   1.866  -0.169 -0.8946  1.1643 -1.8773
    3SAPS   O31  298   4.366   1.733  -0.325  0.6391  0.6283 -0.0143
    3SAPS   C31  299   4.440   1.811  -0.392  0.4079 -0.6378  0.2229
    3SAPS   O32  300   4.530   1.883  -0.351 -0.1039 -0.3705  0.0657
    3SAPS   C32  301   4.401   1.803  -0.537  0.0241 -0.0015  0.2136
    3SAPS   H2X  302   4.291   1.820  -0.541 -0.6119 -3.4501  0.2822
    3SAPS   H2Y  303   4.406   1.701  -0.580 -0.4849  0.7931 -1.8782
    3SAPS   C23  304   3.925   1.415  -0.269 -0.1394  0.5337  0.6941
    3SAPS   H3R  305   3.857   1.496  -0.304 -0.9920 -0.3734  0.2005
    3SAPS   H3S  306   3.906   1.412  -0.160 -2.7583  0.8505  0.3106
    3SAPS   C24  307   3.891   1.285  -0.347 -0.0672 -0.3339  0.3956
    3SAPS   H4R  308   3.936   1.196  -0.299 -0.3941 -1.0887 -0.6815
    3SAPS   H4S  309   3.939   1.292  -0.447  0.5839 -0.4495  0.6978
    3SAPS   C25  310   3.742   1.261  -0.356  0.0967  0.0664 -0.7592
    3SAPS   H5R  311   3.708   1.212  -0.264 -2.1962  1.9095 -0.5372
    3SAPS   C26  312   3.654   1.284  -0.460 -0.6089 -0.3326 -0.2783
    3SAPS   H6R  313   3.548   1.260  -0.443 -0.5769  0.7013  1.6437
    3SAPS   C27  314   3.688   1.360  -0.590 -0.1098  0.5197 -1.0317
    3SAPS   H7R  315   3.793   1.393  -0.606  0.1493 -0.1441 -0.7207
    3SAPS   H7S  316   3.635   1.458  -0.597 -1.3270  0.2604  2.7437
    3SAPS   C28  317   3.659   1.272  -0.714 -0.1758  0.1219 -0.2644
    3SAPS   H8R  318   3.653   1.164  -0.694  1.3477  0.1548  0.5383
    3SAPS   C29  319   3.672   1.311  -0.839  0.2757  0.1903  0.8179
    3SAPS   H9R  320   3.637   1.246  -0.920  0.4865  0.9418  0.1047
    3SAPS  C210  321   3.693   1.452  -0.891  0.7835  0.1181  0.4164
    3SAPS  H10R  322   3.730   1.437  -0.995 -1.3095 -1.1227 -0.2229
    3SAPS  H10S  323   3.777   1.497  -0.835 -0.0307  2.2263  0.0161
    3SAPS  C211  324   3.573   1.538  -0.887 -0.4010  0.1779 -0.0468
    3SAPS  H11R  325   3.557   1.580  -0.787  0.8870  0.8866 -0.1055
    3SAPS  C212  326   3.494   1.571  -0.990 -0.0507 -0.1306  0.7951
    3SAPS  H12R  327   3.412   1.644  -0.980 -1.0855 -0.9723 -1.0356
    3SAPS  C213  328   3.507   1.522  -1.136 -0.3390 -0.2373  0.3272
    3SAPS  H13R  329   3.610   1.532  -1.177 -1.4547  2.4377 -2.2312
    3SAPS  H13S  330   3.445   1.585  -1.203 -0.9766 -0.3188  0.8251
    3SAPS  C214  331   3.476   1.374  -1.154 -0.0241  0.2129 -0.0521
    3SAPS  H14R  332   3.390   1.339  -1.094 -0.6987 -0.2358 -1.2441
    3SAPS  C215  333   3.531   1.282  -1.233 -0.1992  1.0321  0.2725
    3SAPS  H15R  334   3.506   1.176  -1.218 -1.1698  1.3672  1.1982
    3SAPS  C216  335   3.645   1.302  -1.331  0.6653 -0.4840 -0.0985
    3SAPS  H16R  336   3.693   1.402  -1.325 -0.9878  0.2995  0.9640
    3SAPS  H16S  337   3.605   1.299  -1.435 -2.9069  1.4334  1.0343
    3SAPS  C217  338   3.755   1.194  -1.332 -0.1565 -0.3275 -0.2618
    3SAPS  H17R  339   3.721   1.091  -1.353  0.4088 -0.5647 -0.0339
    3SAPS  H17S  340   3.802   1.165  -1.235 -0.6753 -2.4636 -0.5981
    3SAPS  C218  341   3.861   1.220  -1.434  0.0233  0.1735  0.4268
    3SAPS  H18R  342   3.861   1.329  -1.453 -0.1629 -0.0132 -0.6896
    3SAPS  H18S  343   3.828   1.175  -1.530  0.7087  0.5413  0.0062
    3SAPS  C219  344   4.001   1.176  -1.397  0.4650 -0.0761  0.0761
    3SAPS  H19R  345   4.077   1.208  -1.472 -0.1357 -0.0622 -0.5353
    3SAPS  H19S  346   4.029   1.208  -1.294  3.6072 -1.1532 -0.3283
    3SAPS  C220  347   4.010   1.015  -1.393 -0.3504 -0.2220 -0.4689
    3SAPS  H20R  348   4.115   0.986  -1.370 -0.8234 -0.9797  0.8710
    3SAPS  H20S  349   3.993   0.974  -1.494  1.6972  0.5445 -1.1769
    3SAPS  H20T  350   3.938   0.966  -1.324  2.0930 -0.2161  2.3076
    3SAPS   C33  351   4.484   1.896  -0.631  0.2758  0.1132  0.0716
    3SAPS   H3X  352   4.588   1.859  -0.614 -0.0870 -0.0530  2.1751
    3SAPS   H3Y  353   4.481   2.002  -0.600  0.2217 -0.4780  2.2471
    3SAPS   C34  354   4.444   1.871  -0.778 -0.2092 -0.2174 -0.3070
    3SAPS   H4X  355   4.439   1.762  -0.794 -0.6683 -0.2061 -0.2439
    3SAPS   H4Y  356   4.523   1.912  -0.844 -2.1156  2.5538 -1.0525
    3SAPS   C35  357   4.314   1.944  -0.824 -0.1133  0.8250  0.2160
    3SAPS   H5X  358   4.229   1.929  -0.754 -0.0652 -3.0310 -0.3750
    3SAPS   H5Y  359   4.326   2.055  -0.822  0.0672  0.7988  0.8563
    3SAPS   C36  360   4.271   1.913  -0.963  0.2173 -0.2367 -0.4947
    3SAPS   H6X  361   4.249   1.804  -0.970 -1.0897 -0.0377  0.2241
    3SAPS   H6Y  362   4.359   1.951  -1.020 -1.4484  0.7591 -2.5304
    3SAPS   C37  363   4.161   2.005  -1.000  0.0401  0.2607  0.4049
    3SAPS   H7X  364   4.202   2.109  -1.006  0.7314 -0.0867 -1.8521
    3SAPS   H7Y  365   4.074   1.998  -0.932 -0.1502 -3.3090 -0.0497
    3SAPS   C38  366   4.105   1.980  -1.142  0.0753 -0.8180  0.2498
    3SAPS   H8X  367   4.021   2.051  -1.155 -1.2251 -2.0998  1.3010
    3SAPS   H8Y  368   4.067   1.876  -1.145 -0.9991 -0.4144 -0.8839
    3SAPS   C39  369   4.207   2.002  -1.253 -0.2147  0.2163  0.2767
    3SAPS   H9X  370   4.294   1.939  -1.229  0.4562  1.3361  0.8386
    3SAPS   H9Y  371   4.233   2.110  -1.246  1.4593 -0.0940 -0.6015
    3SAPS  C310  372   4.161   1.987  -1.401  0.1888  0.2886 -0.6230
    3SAPS  H10X  373   4.075   2.053  -1.426 -0.7606 -0.3602  0.8198
    3SAPS  H10Y  374   4.136   1.882  -1.428 -0.3734 -0.2135  1.6932
    3SAPS  C311  375   4.278   2.043  -1.481 -0.2732 -0.1742 -0.0500
    3SAPS  H11X  376   4.357   1.965  -1.487  1.1900  0.9851  2.4336
    3SAPS  H11Y  377   4.329   2.128  -1.431  1.0958 -1.3985  0.7183
    3SAPS  C312  378   4.233   2.062  -1.629 -0.6299  0.6546 -0.2677
    3SAPS  H12X  379   4.174   1.973  -1.662  1.2752 -0.1227 -1.7508
    3SAPS  H12Y  380   4.324   2.067  -1.693  0.1779  0.7014  0.8569
    3SAPS  C313  381   4.158   2.190  -1.646 -0.7293 -0.2512  0.4133
    3SAPS  H13X  382   4.243   2.262  -1.651 -1.6007  0.7991  0.1811
    3SAPS  H13Y  383   4.103   2.232  -1.559 -2.3233  2.2152 -1.6003
    3SAPS  C314  384   4.070   2.201  -1.768  0.6760  0.1157 -0.1849
    3SAPS  H14X  385   3.978   2.146  -1.738  0.6808  0.8224  1.2241
    3SAPS  H14Y  386   4.099   2.158  -1.866  4.0646 -0.1742  0.8072
    3SAPS  C315  387   4.030   2.347  -1.795  0.5540 -0.7724 -0.3014
    3SAPS  H15X  388   4.120   2.399  -1.835 -1.0031  0.3228 -2.5412
    3SAPS  H15Y  389   3.995   2.395  -1.701  0.0048  0.5668 -1.1719
    3SAPS  C316  390   3.916   2.364  -1.905 -0.3462 -0.3338  0.0916
    3SAPS  H16X  391   3.852   2.274  -1.893  0.8204 -1.5548 -2.0916
    3SAPS  H16Y  392   3.969   2.346  -2.001  0.9359 -1.2615  0.9435
    3SAPS  C317  393   3.837   2.495  -1.901 -0.2581 -0.4073 -0.4308
    3SAPS  H17X  394   3.904   2.580  -1.877 -0.7398 -0.4518  1.2198
    3SAPS  H17Y  395   3.781   2.496  -1.805  1.3520  3.7184  0.6617
    3SAPS  C318  396   3.741   2.531  -2.013 -0.1663  0.4767  0.4931
    3SAPS  H18X  397   3.796   2.558  -2.106 -1.1851 -0.8174 -0.5431
    3SAPS  H18Y  398   3.694   2.629  -1.990  2.0419  1.8144 -0.4059
    3SAPS  H18Z  399   3.676   2.443  -2.033  0.6376  0.4389 -2.4526
    4SAPS     N  400   3.175   4.245   0.467  0.2754  0.3210  0.8981
    4SAPS   HN1  401   3.258   4.267   0.525  0.0925  1.3088  0.8002
    4SAPS   HN2  402   3.163   4.142   0.473  0.9522  0.2786  1.7045
    4SAPS   HN3  403   3.191   4.273   0.368 -1.4575  0.8146  0.7301
    4SAPS   C12  404   3.055   4.315   0.519  0.0689 -0.8372 -0.0926
    4SAPS  H12A  405   2.963   4.284   0.469  0.5396 -1.8485 -0.3696
    4SAPS   C13  406   3.024   4.272   0.666  0.9063 -0.5966 -0.0126
    4SAPS  O13A  407   3.096   4.193   0.731 -0.3625  0.2706  0.8057
    4SAPS  O13B  408   2.904   4.300   0.700 -0.1370 -0.2415  0.5567
    4SAPS   C11  409   3.075   4.466   0.505 -0.0898 -0.1539 -0.1085
    4SAPS  H11A  410   3.153   4.511   0.570 -0.3116  1.0697 -0.6524
    4SAPS  H11B  411   2.986   4.519   0.545 -0.9418 -0.8448 -1.0450
    4SAPS     P  412   2.983   4.524   0.263  0.1353  0.3919  0.1714
    4SAPS   O13  413   2.893   4.403   0.254  0.0730  0.0653 -0.1539
    4SAPS   O14  414   2.930   4.658   0.295  0.6264  0.1140 -0.6770
    4SAPS   O12  415   3.102   4.492   0.362  0.1470  0.6048 -0.8092
    4SAPS   O11  416   3.063   4.527   0.123  0.1223  0.3121  0.3729
    4SAPS    C1  417   3.135   4.646   0.095 -0.0071  0.4980  0.4813
    4SAPS    HA  418   3.165   4.706   0.184  1.3711 -0.0919  0.4488
    4SAPS    HB  419   3.231   4.609   0.053 -0.9468 -1.5080  0.0220
    4SAPS    C2  420   3.067   4.733  -0.009 -0.1861 -0.4813  0.4266
    4SAPS    HS  421   2.968   4.760   0.034 -1.3600  1.0224 -2.9206
    4SAPS   O21  422   3.059   4.667  -0.138 -0.0624 -0.1655 -0.2204
    4SAPS   C21  423   2.941   4.601  -0.163  0.4362  0.6283 -0.0358
    4SAPS   O22  424   2.840   4.607  -0.095  0.3181 -0.3736  0.5145
    4SAPS   C22  425   2.954   4.519  -0.284 -0.0450 -0.3558  0.5436
    4SAPS   H2R  426   3.039   4.448  -0.277 -0.2724 -0.5776  1.1092
    4SAPS   H2S  427   2.862   4.463  -0.311 -0.4230  0.8222 -0.7041
    4SAPS    C3  428   3.143   4.872  -0.023 -0.2486  0.3285  0.0637
    4SAPS    HX  429   3.110   4.934   0.063  2.8858 -1.2399  2.6196
    4SAPS    HY  430   3.114   4.907  -0.125  3.7876 -1.5110 -1.9671
    4SAPS   O31  431   3.289   4.851  -0.024  0.1257 -0.0916 -0.2623
    4SAPS   C31  432   3.349   4.969  -0.029 -0.4545 -0.5696 -0.0617
    4SAPS   O32  433   3.295   5.078  -0.028  0.3717 -0.4247 -0.1552
    4SAPS   C32  434   3.505   4.952  -0.023 -0.0063 -0.0705 -0.0050
    4SAPS   H2X  435   3.535   4.846  -0.042 -1.1647 -0.5361  0.6976
    4SAPS   H2Y  436   3.549   4.975   0.076  0.8657  1.0466 -0.6335
    4SAPS   C23  437   2.978   4.611  -0.412  0.1207  0.0336  0.2979
    4SAPS   H3R  438   3.002   4.543  -0.496  0.6977  0.1543  0.3621
    4SAPS   H3S  439   3.068   4.673  -0.394  1.5338 -2.6833  3.8102
    4SAPS   C24  440   2.861   4.693  -0.449 -0.0708 -0.3742 -0.2963
    4SAPS   H4R  441   2.841   4.777  -0.379 -0.5646 -0.7601  0.0342
    4SAPS   H4S  442   2.769   4.630  -0.444  0.9852 -2.2793 -2.6369
    4SAPS   C25  443   2.864   4.752  -0.589 -0.1768 -0.2366  0.1032
    4SAPS   H5R  444   2.915   4.848  -0.606 -2.5379  0.8314 -1.7200
    4SAPS   C26  445   2.806   4.687  -0.700 -0.1737 -0.0782  0.1381
    4SAPS   H6R  446   2.828   4.730  -0.799 -0.0659 -0.4247  0.0078
    4SAPS   C27  447   2.738   4.550  -0.715 -0.1452  0.1710 -0.2413
    4SAPS   H7R  448   2.659   4.547  -0.638 -0.9332 -1.0779 -1.0583
    4SAPS   H7S  449   2.811   4.472  -0.686  0.4961  0.9349  0.2512
    4SAPS   C28  450   2.680   4.530  -0.854  0.0673 -0.4653 -0.7219
    4SAPS   H8R  451   2.571   4.535  -0.864  0.2265  1.1988 -2.1099
    4SAPS   C29  452   2.750   4.497  -0.965 -0.2317  0.8068 -0.4833
    4SAPS   H9R  453   2.697   4.498  -1.062  0.2007 -2.0378 -0.8608
    4SAPS  C210  454   2.897   4.479  -0.979  0.2827 -0.6869  0.4007
    4SAPS  H10R  455   2.955   4.551  -0.918 -1.0684  0.1569  0.7343
    4SAPS  H10S  456   2.929   4.506  -1.082  3.5247 -2.5900  0.7662
    4SAPS  C211  457   2.955   4.349  -0.949  0.0772  0.1458 -0.1877
    4SAPS  H11R  458   2.957   4.336  -0.840 -1.4054 -0.7571 -0.2372
    4SAPS  C212  459   2.990   4.248  -1.029 -0.5158  0.0222 -0.3047
    4SAPS  H12R  460   3.021   4.151  -0.989 -0.4563 -0.2854 -1.0865
    4SAPS  C213  461   2.968   4.255  -1.186 -0.5798 -0.8986 -0.2970
    4SAPS  H13R  462   2.890   4.324  -1.226  0.1572 -0.2822 -0.7099
    4SAPS  H13S  463   2.928   4.155  -1.214 -0.9926 -1.0043  0.6386
    4SAPS  C214  464   3.096   4.301  -1.251  0.0402 -0.2609  0.7732
    4SAPS  H14R  465   3.124   4.405  -1.233 -0.3402  0.6710 -3.1834
    4SAPS  C215  466   3.177   4.218  -1.323 -0.4498 -0.4920  0.4286
    4SAPS  H15R  467   3.279   4.251  -1.348 -0.8803  0.1120 -0.5882
    4SAPS  C216  468   3.155   4.075  -1.363  0.0017  0.0379 -0.4502
    4SAPS  H16R  469   3.098   4.028  -1.280 -0.2890  0.8622 -0.1648
    4SAPS  H16S  470   3.257   4.032  -1.354 -0.2175 -0.4438 -0.2651
    4SAPS  C217  471   3.095   4.047  -1.498 -0.6119 -0.4193 -0.4894
    4SAPS  H17R  472   3.168   4.073  -1.577  0.8477 -1.2284  0.5394
    4SAPS  H17S  473   2.999   4.100  -1.516 -1.6005 -2.0810 -0.3028
    4SAPS  C218  474   3.072   3.899  -1.501 -0.3199  0.0382 -0.1720
    4SAPS  H18R  475   3.002   3.864  -1.423  0.2560  0.7905  0.7047
    4SAPS  H18S  476   3.168   3.849  -1.474  0.5871  0.8814 -1.6601
    4SAPS  C219  477   3.000   3.851  -1.636 -0.5236 -0.7032  0.2762
    4SAPS  H19R  478   2.992   3.740  -1.638 -0.1964 -0.7155 -1.1494
    4SAPS  H19S  479   3.063   3.883  -1.722  0.3189 -0.3332  1.0126
    4SAPS  C220  480   2.860   3.899  -1.639  0.0471 -0.5073 -0.2049
    4SAPS  H20R  481   2.798   3.853  -1.560  0.4639  0.7317  0.8915
    4SAPS  H20S  482   2.817   3.873  -1.738  0.6319 -0.6126 -0.4403
    4SAPS  H20T  483   2.848   4.007  -1.616  2.0613 -0.4943  1.0460
    4SAPS   C33  484   3.579   5.036  -0.128  0.7013  0.4727 -0.1994
    4SAPS   H3X  485   3.683   4.998  -0.130  0.9264  1.0885 -0.7935
    4SAPS   H3Y  486   3.581   5.142  -0.095  0.8141  0.6432 -0.7301
    4SAPS   C34  487   3.514   5.025  -0.267  0.9203 -0.1355  0.3363
    4SAPS   H4X  488   3.437   5.101  -0.291  1.7955 -0.2801 -3.5905
    4SAPS   H4Y  489   3.460   4.927  -0.272  1.0409 -0.2034  0.3619
    4SAPS   C35  490   3.625   5.034  -0.372  0.2309 -0.2084  0.7470
    4SAPS   H5X  491   3.673   4.935  -0.360  1.4210  0.2225 -0.1651
    4SAPS   H5Y  492   3.695   5.118  -0.354  1.0909 -0.0741 -2.5938
    4SAPS   C36  493   3.565   5.053  -0.515 -0.3717 -0.2923 -0.0714
    4SAPS   H6X  494   3.505   5.146  -0.504 -0.6727 -0.5340  0.3878
    4SAPS   H6Y  495   3.505   4.961  -0.531 -2.3258  0.9024  0.0919
    4SAPS   C37  496   3.669   5.062  -0.631 -0.0839  0.2757  0.1100
    4SAPS   H7X  497   3.748   4.985  -0.624  0.3316  0.6592 -0.3005
    4SAPS   H7Y  498   3.727   5.156  -0.616 -0.5016  0.1415  3.2987
    4SAPS   C38  499   3.598   5.043  -0.763 -0.3429 -0.2079 -0.1330
    4SAPS   H8X  500   3.509   5.109  -0.765 -0.2685  0.1363  3.0397
    4SAPS   H8Y  501   3.564   4.937  -0.763 -1.7807  0.2322 -0.3903
    4SAPS   C39  502   3.690   5.060  -0.884  0.3250 -0.0426 -0.1564
    4SAPS   H9X  503   3.775   4.993  -0.857  1.7406  1.9343  0.4630
    4SAPS   H9Y  504   3.719   5.167  -0.879 -2.8426  0.9337 -0.2590
    4SAPS  C310  505   3.635   5.022  -1.018 -0.2478  0.3551  0.2426
    4SAPS  H10X  506   3.549   5.090  -1.034 -1.9554 -1.4014  1.4557
    4SAPS  H10Y  507   3.584   4.924  -1.029  2.5063 -1.0566 -1.3116
    4SAPS  C311  508   3.747   5.038  -1.128 -0.2483  0.3330 -0.4328
    4SAPS  H11X  509   3.835   4.973  -1.105  0.2490  1.1239 -0.0459
    4SAPS  H11Y  510   3.770   5.146  -1.121 -2.0493  0.6423  1.7230
    4SAPS  C312  511   3.690   5.015  -1.263 -0.0666  0.2249  0.2832
    4SAPS  H12X  512   3.616   5.094  -1.290  0.2165  0.4973  0.3068
    4SAPS  H12Y  513   3.642   4.916  -1.275  0.1953  0.1046  0.2203
    4SAPS  C313  514   3.802   5.023  -1.366 -0.1560  0.0190 -0.0977
    4SAPS  H13X  515   3.877   4.943  -1.346  0.7532  0.9852  0.4291
    4SAPS  H13Y  516   3.858   5.118  -1.362  2.7444 -1.5039 -1.4877
    4SAPS  C314  517   3.759   5.003  -1.514  0.4992 -0.2206  0.3710
    4SAPS  H14X  518   3.681   4.923  -1.521 -0.5596  0.7821  0.2949
    4SAPS  H14Y  519   3.845   4.970  -1.576  1.1659  0.5296  0.8975
    4SAPS  C315  520   3.689   5.133  -1.568  0.6631  0.5359 -0.1353
    4SAPS  H15X  521   3.769   5.209  -1.575  0.9954  0.3671  1.4567
    4SAPS  H15Y  522   3.603   5.164  -1.504 -2.1512 -2.4980 -2.0959
    4SAPS  C316  523   3.632   5.108  -1.711 -0.3675 -0.7320 -0.1666
    4SAPS  H16X  524   3.587   5.007  -1.705  2.6888 -2.0812  2.4893
    4SAPS  H16Y  525   3.718   5.109  -1.781  0.6118 -1.9625  0.9885
    4SAPS  C317  526   3.521   5.204  -1.753 -0.3395 -0.0964  0.5949
    4SAPS  H17X  527   3.442   5.204  -1.675  1.2641 -0.1576  2.2796
    4SAPS  H17Y  528   3.472   5.158  -1.842  1.2250 -0.2845 -0.2059
    4SAPS  C318  529   3.562   5.348  -1.785  0.2177 -0.8376  0.3508
    4SAPS  H18X  530   3.480   5.407  -1.831  0.4855 -1.7479 -1.3959
    4SAPS  H18Y  531   3.637   5.361  -1.866  0.8179 -1.1698  0.8398
    4SAPS  H18Z  532   3.592   5.398  -1.690 -1.9230  2.5084 -0.5817
    5SAPS     N  533   6.701   5.961   0.625  0.5119  0.3252 -0.6101
    5SAPS   HN1  534   6.745   6.020   0.698 -1.6490  0.9284  0.2622
    5SAPS   HN2  535   6.773   5.903   0.577  0.6206  1.2410 -1.5895
    5SAPS   HN3  536   6.648   6.015   0.553 -1.2844 -0.0872  0.3464
    5SAPS   C12  537   6.606   5.862   0.696 -0.3552  0.0457  0.2006
    5SAPS  H12A  538   6.666   5.785   0.741  0.5733  0.9360  0.5232
    5SAPS   C13  539   6.509   5.929   0.800 -0.7947 -0.4919  0.2242
    5SAPS  O13A  540   6.509   6.055   0.807 -0.5886 -0.2761  0.2749
    5SAPS  O13B  541   6.451   5.855   0.883 -0.2619 -0.3619 -0.2805
    5SAPS   C11  542   6.514   5.791   0.588 -0.3016 -0.3219 -0.8489
    5SAPS  H11A  543   6.461   5.874   0.536  1.2048  0.3180 -1.4375
    5SAPS  H11B  544   6.443   5.732   0.649  0.8292  0.9505  1.8943
    5SAPS     P  545   6.507   5.651   0.376  0.0823 -0.2065  0.0662
    5SAPS   O13  546   6.391   5.571   0.433  0.5063  0.0472 -0.1648
    5SAPS   O14  547   6.476   5.752   0.272  0.1037 -0.6011 -0.1127
    5SAPS   O12  548   6.591   5.723   0.493 -0.4472  0.1051 -0.1969
    5SAPS   O11  549   6.613   5.554   0.307 -0.2235  0.0042 -0.5029
    5SAPS    C1  550   6.747   5.587   0.295 -0.1023 -0.5436 -0.6597
    5SAPS    HA  551   6.777   5.648   0.383 -0.3402 -1.3275 -0.0335
    5SAPS    HB  552   6.807   5.494   0.301 -0.7217 -0.8581  0.9468
    5SAPS    C2  553   6.777   5.668   0.169  0.9652 -0.2024 -0.3261
    5SAPS    HS  554   6.736   5.771   0.178  3.0798  0.5538  1.5448
    5SAPS   O21  555   6.722   5.610   0.056 -0.3080  0.2509 -0.0382
    5SAPS   C21  556   6.670   5.691  -0.039  0.4301  0.0636 -0.2613
    5SAPS   O22  557   6.685   5.813  -0.039  0.5557  0.4417  0.1859
    5SAPS   C22  558   6.591   5.616  -0.146 -0.2728 -0.0905 -0.6573
    5SAPS   H2R  559   6.602   5.675  -0.239 -0.6469  0.0741 -0.6002
    5SAPS   H2S  560   6.648   5.523  -0.166  1.1134  0.8154 -1.0934
    5SAPS    C3  561   6.931   5.695   0.154 -0.0452 -0.1026  0.3793
    5SAPS    HX  562   6.974   5.594   0.137  2.0542  1.2014 -3.1313
    5SAPS    HY  563   6.970   5.728   0.252 -2.3883  0.5430  1.1561
    5SAPS   O31  564   6.956   5.774   0.033  0.2735  0.1958  0.0628
    5SAPS   C31  565   6.969   5.907   0.043 -1.0719  0.6195  0.4169
    5SAPS   O32  566   6.981   5.967   0.150  0.4506  0.6202 -0.4684
    5SAPS   C32  567   6.967   5.976  -0.088  0.3733 -0.3494  0.9397
    5SAPS   H2X  568   7.028   6.069  -0.081 -0.5447  0.3759 -0.2173
    5SAPS   H2Y  569   6.864   6.016  -0.102  1.0172  1.4916  1.2408
    5SAPS   C23  570   6.450   5.580  -0.096 -0.1999  0.1279  0.7392
    5SAPS   H3R  571   6.462   5.542   0.008  1.5360 -1.1763  0.1273
    5SAPS   H3S  572   6.432   5.489  -0.157  0.9430 -0.4179  1.1837
    5SAPS   C24  573   6.346   5.694  -0.096 -0.6004 -0.0123  0.0453
    5SAPS   H4R  574   6.335   5.749  -0.192 -0.6075  1.1134  0.6670
    5SAPS   H4S  575   6.375   5.776  -0.026 -0.4099  0.1376 -0.2068
    5SAPS   C25  576   6.209   5.636  -0.056 -0.0112  0.1131  0.4616
    5SAPS   H5R  577   6.214   5.592   0.045  1.7982  1.1301  0.8752
    5SAPS   C26  578   6.098   5.642  -0.133  0.0585 -0.2195 -0.1835
    5SAPS   H6R  579   6.008   5.584  -0.107  0.5962 -0.5176  1.1271
    5SAPS   C27  580   6.083   5.708  -0.265  0.1807 -0.5938 -0.3058
    5SAPS   H7R  581   5.992   5.672  -0.318  0.5034  0.2869 -1.4893
    5SAPS   H7S  582   6.167   5.684  -0.333 -0.1576  0.1428 -0.9971
    5SAPS   C28  583   6.071   5.853  -0.270 -0.3946  0.4819  0.0810
    5SAPS   H8R  584   6.102   5.906  -0.179 -3.4865  1.2004  0.8256
    5SAPS   C29  585   6.036   5.921  -0.380 -0.3556  0.5721  0.3988
    5SAPS   H9R  586   6.038   6.031  -0.375 -3.0187  0.6502  2.6200
    5SAPS  C210  587   5.992   5.855  -0.510  0.0488 -0.3508  0.1845
    5SAPS  H10R  588   5.894   5.903  -0.535  0.5157 -0.4510 -2.1042
    5SAPS  H10S  589   5.996   5.745  -0.522 -2.1755 -0.4438 -0.0644
    5SAPS  C211  590   6.083   5.919  -0.612 -0.2382  0.2398 -0.0390
    5SAPS  H11R  591   6.089   6.029  -0.609  0.0901  0.2032  0.9698
    5SAPS  C212  592   6.168   5.855  -0.700  0.5704  0.3244 -0.2796
    5SAPS  H12R  593   6.242   5.916  -0.752  2.9969 -1.1519  1.2537
    5SAPS  C213  594   6.181   5.706  -0.722  0.9504  0.6486  0.3844
    5SAPS  H13R  595   6.164   5.667  -0.619  1.6840  0.4679  0.4390
    5SAPS  H13S  596   6.287   5.681  -0.739  2.5139  4.4246  3.0494
    5SAPS  C214  597   6.083   5.626  -0.801  0.1145 -0.5603 -0.1102
    5SAPS  H14R  598   5.980   5.624  -0.763  0.4332 -0.8457  0.7558
    5SAPS  C215  599   6.097   5.565  -0.927 -0.0720  1.2298 -0.9090
    5SAPS  H15R  600   6.008   5.507  -0.955  1.4272 -0.3928 -2.6058
    5SAPS  C216  601   6.228   5.555  -1.001 -0.2227 -0.4995  0.4033
    5SAPS  H16R  602   6.265   5.450  -1.007  0.7177 -0.1958  0.6075
    5SAPS  H16S  603   6.307   5.609  -0.944  0.9168  1.1604 -2.4859
    5SAPS  C217  604   6.218   5.621  -1.137 -0.2686 -0.2731 -0.0959
    5SAPS  H17R  605   6.321   5.633  -1.177 -0.1251 -2.7334 -0.6147
    5SAPS  H17S  606   6.180   5.725  -1.128 -1.4934 -0.7545  0.5654
    5SAPS  C218  607   6.135   5.541  -1.237  0.1571  0.5845  0.4856
    5SAPS  H18R  608   6.027   5.556  -1.216 -0.4045 -1.6848 -0.5578
    5SAPS  H18S  609   6.152   5.433  -1.221  0.8349  0.3674 -1.4263
    5SAPS  C219  610   6.168   5.569  -1.385  0.3612 -0.3902 -0.5590
    5SAPS  H19R  611   6.184   5.679  -1.392 -1.5586  0.0395  1.1238
    5SAPS  H19S  612   6.084   5.535  -1.449  0.1669 -0.2426 -0.3833
    5SAPS  C220  613   6.297   5.515  -1.427  0.4267  0.2445  0.3566
    5SAPS  H20R  614   6.310   5.568  -1.524 -1.5339  0.2378  0.0434
    5SAPS  H20S  615   6.305   5.405  -1.443 -1.5978  0.2867 -1.4303
    5SAPS  H20T  616   6.383   5.539  -1.361  0.7226  0.9531 -0.2736
    5SAPS   C33  617   6.994   5.895  -0.214 -1.0065 -0.5053 -0.3699
    5SAPS   H3X  618   6.919   5.813  -0.218 -1.6319 -0.0863  1.6080
    5SAPS   H3Y  619   7.097   5.854  -0.217 -1.3365 -1.3634 -3.2273
    5SAPS   C34  620   6.989   5.989  -0.339  0.2450 -0.2918  0.0896
    5SAPS   H4X  621   7.080   6.051  -0.325  0.1883 -0.6109  2.1570
    5SAPS   H4Y  622   6.903   6.058  -0.350  0.9021  0.3338 -1.5352
    5SAPS   C35  623   6.993   5.906  -0.466 -0.1558 -0.3051 -0.1569
    5SAPS   H5X  624   6.902   5.845  -0.448  0.3208 -0.7260  0.8472
    5SAPS   H5Y  625   7.086   5.848  -0.481  0.1032  0.3302 -1.1184
    5SAPS   C36  626   6.983   5.992  -0.590  0.6416 -0.9831 -0.0938
    5SAPS   H6X  627   7.072   6.059  -0.600 -1.4943  1.9011 -1.4618
    5SAPS   H6Y  628   6.889   6.047  -0.568  0.3054 -1.9051  0.8161
    5SAPS   C37  629   6.963   5.907  -0.721 -0.0154 -0.8636 -0.1096
    5SAPS   H7X  630   6.891   5.823  -0.712 -2.9264  1.5529  0.6783
    5SAPS   H7Y  631   7.058   5.851  -0.735  0.0767 -0.5863 -0.6093
    5SAPS   C38  632   6.939   6.001  -0.840  0.2719  0.0305 -0.0418
    5SAPS   H8X  633   7.020   6.077  -0.836 -0.2219  0.5309  1.0985
    5SAPS   H8Y  634   6.837   6.044  -0.826 -0.6918 -1.6745 -1.4561
    5SAPS   C39  635   6.957   5.925  -0.976  0.9856  0.2842 -0.4486
    5SAPS   H9X  636   6.880   5.844  -0.981  1.0927  0.2335 -1.4398
    5SAPS   H9Y  637   7.048   5.862  -0.974  0.2436 -0.8104  0.3848
    5SAPS  C310  638   6.955   6.010  -1.104  0.2936 -0.1586 -0.1664
    5SAPS  H10X  639   7.045   6.074  -1.106 -1.8183  3.0747  0.8996
    5SAPS  H10Y  640   6.871   6.082  -1.098 -1.0259 -1.5455 -1.0754
    5SAPS  C311  641   6.938   5.932  -1.232  0.3303  0.8364  0.2547
    5SAPS  H11X  642   6.832   5.901  -1.249  1.0894 -1.2417 -1.1321
    5SAPS  H11Y  643   6.994   5.837  -1.219 -0.4836  0.4263  0.8395
    5SAPS  C312  644   7.006   6.005  -1.354 -0.4687  0.3875 -0.6596
    5SAPS  H12X  645   7.090   6.069  -1.318  0.9490 -1.4705 -0.5174
    5SAPS  H12Y  646   6.928   6.066  -1.403 -2.1090 -0.5796  0.6562
    5SAPS  C313  647   7.058   5.902  -1.455 -0.3546 -0.3118  0.0408
    5SAPS  H13X  648   6.981   5.824  -1.473  0.3416 -0.5632 -2.2672
    5SAPS  H13Y  649   7.145   5.850  -1.410 -1.2732 -1.5058  0.4760
    5SAPS  C314  650   7.093   5.954  -1.592  0.1835  0.5556 -0.2988
    5SAPS  H14X  651   7.173   6.031  -1.591  2.3297 -1.5605 -0.5053
    5SAPS  H14Y  652   7.001   5.997  -1.638 -0.8605 -2.1294 -0.9608
    5SAPS  C315  653   7.134   5.846  -1.690  0.4075 -0.3773 -0.3720
    5SAPS  H15X  654   7.114   5.894  -1.788 -0.6803  0.7958  0.3935
    5SAPS  H15Y  655   7.075   5.752  -1.697 -0.8084  0.4220 -1.4436
    5SAPS  C316  656   7.282   5.813  -1.680  0.5256 -0.0512 -0.1042
    5SAPS  H16X  657   7.312   5.760  -1.587 -2.6437  2.5393  2.6359
    5SAPS  H16Y  658   7.333   5.912  -1.685  3.5268 -1.4037  1.2654
    5SAPS  C317  659   7.328   5.733  -1.804  0.0616 -1.0216 -0.0373
    5SAPS  H17X  660   7.429   5.755  -1.845  0.2884  0.3626  1.1755
    5SAPS  H17Y  661   7.259   5.755  -1.889  1.0552 -1.7810 -1.0735
    5SAPS  C318  662   7.333   5.577  -1.786 -0.2599  0.3221  0.0697
    5SAPS  H18X  663   7.379   5.531  -1.876  2.7239 -0.0655  1.6811
    5SAPS  H18Y  664   7.228   5.542  -1.769 -0.4216  0.3298 -0.8249
    5SAPS  H18Z  665   7.392   5.550  -1.697  2.9501  3.1605 -0.9942
    6SAPS     N  666   3.670   1.920   0.353 -0.2139  0.0606 -0.1996
    6SAPS   HN1  667   3.648   2.008   0.404 -0.6371 -1.2555  2.0187
    6SAPS   HN2  668   3.751   1.880   0.404 -0.3472  0.7796  0.6038
    6SAPS   HN3  669   3.702   1.944   0.257  0.3766  0.7552  0.1584
    6SAPS   C12  670   3.560   1.822   0.366 -0.5652 -0.7754  0.2731
    6SAPS  H12A  671   3.583   1.735   0.306  0.4709 -0.4539  0.1832
    6SAPS   C13  672   3.524   1.759   0.507 -0.5111  0.2788 -0.5556
    6SAPS  O13A  673   3.590   1.789   0.610  0.3177  0.5866  0.0886
    6SAPS  O13B  674   3.434   1.670   0.510 -0.1991 -0.3305 -0.2061
    6SAPS   C11  675   3.432   1.889   0.304  0.0856  0.0092  0.2544
    6SAPS  H11A  676   3.395   1.974   0.366 -0.4804  1.2937 -1.7651
    6SAPS  H11B  677   3.360   1.805   0.310  2.2440 -2.0039 -0.2029
    6SAPS     P  678   3.351   1.919   0.053 -0.0580  0.1676  0.5450
    6SAPS   O13  679   3.218   1.867   0.093  0.0662  0.6158 -0.0854
    6SAPS   O14  680   3.350   2.048  -0.016  0.1362  0.2976 -0.5229
    6SAPS   O12  681   3.455   1.927   0.172  0.7719  0.2902  0.2562
    6SAPS   O11  682   3.394   1.808  -0.054 -0.3276 -0.1603 -0.2774
    6SAPS    C1  683   3.527   1.760  -0.058 -0.1534 -0.4882  0.1913
    6SAPS    HA  684   3.581   1.785   0.035 -0.0972 -1.3022  0.3891
    6SAPS    HB  685   3.525   1.649  -0.060 -0.3624 -0.5098  1.0279
    6SAPS    C2  686   3.604   1.814  -0.180 -0.0825  0.4020 -0.5445
    6SAPS    HS  687   3.619   1.923  -0.161  0.8248  0.4823 -1.6044
    6SAPS   O21  688   3.531   1.788  -0.301  0.9077  0.2399 -0.7193
    6SAPS   C21  689   3.445   1.880  -0.347  0.2979 -0.4524  0.1252
    6SAPS   O22  690   3.452   1.998  -0.319  0.3123  0.2556 -0.3695
    6SAPS   C22  691   3.354   1.828  -0.450 -0.0157 -0.1186  0.2832
    6SAPS   H2R  692   3.268   1.898  -0.461 -1.1355 -1.1283  2.0337
    6SAPS   H2S  693   3.409   1.821  -0.545  1.5165  1.1984  1.0138
    6SAPS    C3  694   3.757   1.758  -0.196  0.8078 -0.3617 -0.0592
    6SAPS    HX  695   3.774   1.668  -0.134 -2.3899  0.6758  2.6937
    6SAPS    HY  696   3.807   1.843  -0.145 -2.0332  0.9702  0.7472
    6SAPS   O31  697   3.799   1.733  -0.331 -0.0087 -0.0997 -0.4403
    6SAPS   C31  698   3.812   1.842  -0.406  0.2399 -0.3002  0.1026
    6SAPS   O32  699   3.787   1.956  -0.363  1.4136  0.2336  0.4831
    6SAPS   C32  700   3.857   1.805  -0.549 -0.7908  0.3670 -0.2586
    6SAPS   H2X  701   3.884   1.697  -0.548  0.1222  0.5759  1.6162
    6SAPS   H2Y  702   3.949   1.858  -0.581 -0.9324  1.2686  0.7746
    6SAPS   C23  703   3.284   1.690  -0.416  0.8464 -0.3694  0.1619
    6SAPS   H3R  704   3.234   1.712  -0.320 -0.6973  1.2801 -0.9445
    6SAPS   H3S  705   3.356   1.609  -0.393  1.6949 -0.1666 -1.6130
    6SAPS   C24  706   3.167   1.645  -0.509  0.0037  0.0638  0.1599
    6SAPS   H4R  707   3.099   1.731  -0.527 -1.5810 -0.4963  2.8566
    6SAPS   H4S  708   3.110   1.564  -0.460  0.5131 -1.1389 -1.1603
    6SAPS   C25  709   3.219   1.587  -0.638  0.9950  0.6698 -0.0587
    6SAPS   H5R  710   3.295   1.508  -0.630  2.6225  1.8718 -2.4169
    6SAPS   C26  711   3.209   1.634  -0.764  0.2776  0.7868 -0.4526
    6SAPS   H6R  712   3.239   1.565  -0.845 -1.6466 -1.3341  0.5187
    6SAPS   C27  713   3.139   1.750  -0.822 -0.8416  0.1271  0.4562
    6SAPS   H7R  714   3.100   1.810  -0.737  2.4497  1.4937  1.1622
    6SAPS   H7S  715   3.064   1.712  -0.895  0.3317  1.8970 -1.7774
    6SAPS   C28  716   3.248   1.828  -0.886 -0.3516 -0.5533 -0.8703
    6SAPS   H8R  717   3.329   1.847  -0.814 -1.3155 -0.7546  0.3036
    6SAPS   C29  718   3.251   1.873  -1.011  0.5437  0.4734  0.5234
    6SAPS   H9R  719   3.347   1.917  -1.043  0.4482 -0.3678 -1.0256
    6SAPS  C210  720   3.155   1.853  -1.120  0.0453  0.5867  0.2774
    6SAPS  H10R  721   3.057   1.880  -1.077 -0.9740 -0.4385 -1.2911
    6SAPS  H10S  722   3.150   1.745  -1.146  0.9058  0.5909  0.0422
    6SAPS  C211  723   3.184   1.944  -1.238  0.0870 -0.1249  0.2277
    6SAPS  H11R  724   3.209   2.047  -1.210  2.0354 -0.6443  0.5549
    6SAPS  C212  725   3.205   1.911  -1.367 -0.2956  0.0288  0.8996
    6SAPS  H12R  726   3.228   1.988  -1.442 -0.6679  0.9369  1.6955
    6SAPS  C213  727   3.204   1.770  -1.412 -0.1199  0.3060 -1.0306
    6SAPS  H13R  728   3.105   1.728  -1.382 -0.7906  2.2090 -0.3942
    6SAPS  H13S  729   3.293   1.723  -1.366 -0.0550  2.1404  0.8934
    6SAPS  C214  730   3.205   1.771  -1.564 -0.1763  0.2598 -0.3980
    6SAPS  H14R  731   3.133   1.837  -1.615  1.4461  0.9722 -1.8169
    6SAPS  C215  732   3.290   1.700  -1.638  0.0614  0.4746 -0.2146
    6SAPS  H15R  733   3.295   1.719  -1.746  2.1817  0.4324 -0.1777
    6SAPS  C216  734   3.402   1.603  -1.593  0.0410  0.2171  0.2973
    6SAPS  H16R  735   3.412   1.602  -1.482  0.1122  0.7364  0.3007
    6SAPS  H16S  736   3.499   1.648  -1.623  1.4421 -2.1695  1.0528
    6SAPS  C217  737   3.410   1.466  -1.654  0.4598 -0.1256 -0.6201
    6SAPS  H17R  738   3.517   1.435  -1.647  0.3376 -0.7172 -1.1967
    6SAPS  H17S  739   3.384   1.470  -1.762  2.3778 -0.4244 -1.1398
    6SAPS  C218  740   3.334   1.364  -1.569 -0.2903  1.4892  0.5737
    6SAPS  H18R  741   3.228   1.399  -1.561 -0.4695  1.5079 -1.3287
    6SAPS  H18S  742   3.384   1.365  -1.470  1.4575  2.1127 -0.2904
    6SAPS  C219  743   3.323   1.236  -1.656 -0.0786  0.9067 -0.7901
    6SAPS  H19R  744   3.272   1.245  -1.754  2.4725 -0.0231 -2.2780
    6SAPS  H19S  745   3.264   1.164  -1.597  0.2170  1.1680 -0.1644
    6SAPS  C220  746   3.466   1.178  -1.674  0.4606 -0.1486 -0.1730
    6SAPS  H20R  747   3.515   1.238  -1.753  0.4511 -1.0987 -0.9168
    6SAPS  H20S  748   3.455   1.070  -1.696 -3.2429 -0.0244  0.3981
    6SAPS  H20T  749   3.526   1.162  -1.582 -0.4988 -0.3967  0.4223
    6SAPS   C33  750   3.740   1.829  -0.648 -0.1694 -0.5995  0.0113
    6SAPS   H3X  751   3.709   1.935  -0.635  1.7161 -0.1087  0.9044
    6SAPS   H3Y  752   3.645   1.774  -0.632 -0.1512 -0.1166  1.9664
    6SAPS   C34  753   3.784   1.837  -0.794  0.2691 -0.9630 -0.2182
    6SAPS   H4X  754   3.793   1.735  -0.836  0.5185 -1.0063 -0.0574
    6SAPS   H4Y  755   3.877   1.898  -0.788 -2.5885  3.9229 -0.5359
    6SAPS   C35  756   3.687   1.913  -0.885  0.1471  0.2690  0.2063
    6SAPS   H5X  757   3.665   2.016  -0.850 -1.3132 -0.5752  1.9192
    6SAPS   H5Y  758   3.589   1.861  -0.878 -1.3074  2.7982 -0.1443
    6SAPS   C36  759   3.733   1.922  -1.032  0.5832 -0.3145 -0.2302
    6SAPS   H6X  760   3.820   1.991  -1.043  0.7602 -0.3705  0.7695
    6SAPS   H6Y  761   3.650   1.968  -1.090  0.9429 -1.1407 -1.4523
    6SAPS   C37  762   3.765   1.793  -1.108 -0.0906  0.2922 -0.3329
    6SAPS   H7X  763   3.688   1.720  -1.076  0.4719  0.2689  1.0050
    6SAPS   H7Y  764   3.868   1.765  -1.077  0.3618 -0.0846 -2.0824
    6SAPS   C38  765   3.758   1.800  -1.264 -0.1476 -0.4513  0.2633
    6SAPS   H8X  766   3.827   1.884  -1.288  1.2315 -1.8645 -0.9374
    6SAPS   H8Y  767   3.654   1.828  -1.291  0.6374  1.0221 -1.4926
    6SAPS   C39  768   3.808   1.684  -1.342  0.5707 -0.3172 -0.3443
    6SAPS   H9X  769   3.753   1.595  -1.305  0.7492  0.1796  1.2179
    6SAPS   H9Y  770   3.916   1.665  -1.322  0.1475 -0.2873  2.4416
    6SAPS  C310  771   3.775   1.703  -1.489  0.6671  0.0627 -0.0853
    6SAPS  H10X  772   3.866   1.759  -1.518  0.7489 -0.9917 -2.0164
    6SAPS  H10Y  773   3.682   1.762  -1.503  0.9145  1.3690  2.9033
    6SAPS  C311  774   3.780   1.567  -1.569 -0.0837  0.5201 -0.3803
    6SAPS  H11X  775   3.699   1.513  -1.516 -0.4502  3.0912  1.8886
    6SAPS  H11Y  776   3.871   1.508  -1.544 -2.1323 -3.1759 -1.0563
    6SAPS  C312  777   3.764   1.579  -1.722 -0.2269  0.1485 -0.3881
    6SAPS  H12X  778   3.800   1.674  -1.769 -2.0932  0.5938 -0.9962
    6SAPS  H12Y  779   3.656   1.576  -1.748 -0.4526 -1.5121  0.5802
    6SAPS  C313  780   3.831   1.467  -1.792 -0.1152 -0.3628  0.1811
    6SAPS  H13X  781   3.819   1.370  -1.741 -0.9627 -1.4043 -1.8478
    6SAPS  H13Y  782   3.938   1.492  -1.804 -0.7820  1.9677 -1.9667
    6SAPS  C314  783   3.783   1.445  -1.941  0.2833 -0.0147  0.5743
    6SAPS  H14X  784   3.680   1.404  -1.939  0.2031  0.0463 -0.9812
    6SAPS  H14Y  785   3.843   1.363  -1.985 -1.3557  0.6255 -3.2609
    6SAPS  C315  786   3.788   1.560  -2.039 -0.4960 -0.2705  0.1491
    6SAPS  H15X  787   3.891   1.601  -2.035 -0.9103  0.7268  1.1610
    6SAPS  H15Y  788   3.728   1.636  -1.983  1.2685 -1.0125  3.2837
    6SAPS  C316  789   3.746   1.529  -2.177  0.3390  0.1570 -0.0250
    6SAPS  H16X  790   3.645   1.482  -2.173 -0.0808  1.1089  1.5162
    6SAPS  H16Y  791   3.818   1.459  -2.225 -0.2737 -0.0798 -0.6165
    6SAPS  C317  792   3.750   1.646  -2.273 -0.2786 -0.2779 -0.5962
    6SAPS  H17X  793   3.856   1.667  -2.296 -0.2781  1.0197  0.4675
    6SAPS  H17Y  794   3.709   1.731  -2.215  1.2190 -0.2978  0.5632
    6SAPS  C318  795   3.685   1.636  -2.414  0.2916 -0.2072 -0.2125
    6SAPS  H18X  796   3.722   1.547  -2.469  0.6196  0.2830 -0.7977
    6SAPS  H18Y  797   3.720   1.721  -2.476 -0.2458 -0.1444 -0.4337
    6SAPS  H18Z  798   3.575   1.633  -2.399  0.2612  1.2659  0.0292
    7SAPS     N  799   3.668   3.167   0.912 -0.6045  0.2260 -0.4340
    7SAPS   HN1  800   3.665   3.090   0.842 -3.2688 -0.6548  0.5332
    7SAPS   HN2  801   3.727   3.142   0.995 -0.5901 -0.6379 -0.6889
    7SAPS   HN3  802   3.570   3.184   0.942 -1.2697 -2.0007 -1.1111
    7SAPS   C12  803   3.739   3.279   0.857 -0.1700 -0.2130  1.1836
    7SAPS  H12A  804   3.676   3.366   0.842 -3.9341 -2.9926 -0.5858
    7SAPS   C13  805   3.846   3.332   0.959 -0.5020 -0.7154 -0.1256
    7SAPS  O13A  806   3.845   3.285   1.080  0.1791 -0.3664  0.5914
    7SAPS  O13B  807   3.922   3.432   0.932  0.2483  0.0383  0.2269
    7SAPS   C11  808   3.808   3.249   0.714  0.3897  0.8376  0.0656
    7SAPS  H11A  809   3.888   3.172   0.720 -0.1590  0.1668 -0.8483
    7SAPS  H11B  810   3.854   3.342   0.674  0.5145  0.4181 -0.8082
    7SAPS     P  811   3.676   3.275   0.490 -0.1580  0.3802 -0.0445
    7SAPS   O13  812   3.620   3.184   0.388 -0.7143  0.2329  0.2254
    7SAPS   O14  813   3.594   3.387   0.536  0.3696 -0.6027 -0.0153
    7SAPS   O12  814   3.711   3.199   0.625 -0.9639  0.4000 -0.8520
    7SAPS   O11  815   3.805   3.342   0.436 -0.4783  0.4609  0.1972
    7SAPS    C1  816   3.921   3.269   0.397  0.0842 -0.6554  0.2875
    7SAPS    HA  817   4.007   3.304   0.457  0.0306 -2.2742  1.3954
    7SAPS    HB  818   3.910   3.161   0.421 -2.4011 -0.2484  1.3098
    7SAPS    C2  819   3.961   3.301   0.257  0.0557  0.5155 -0.7033
    7SAPS    HS  820   3.995   3.407   0.265  0.7769  0.1805  1.3137
    7SAPS   O21  821   3.857   3.286   0.152  0.0123  0.5026  0.7758
    7SAPS   C21  822   3.885   3.345   0.036 -0.3911 -0.1863 -0.2637
    7SAPS   O22  823   3.986   3.406   0.009 -0.2522 -0.2106  0.2256
    7SAPS   C22  824   3.764   3.343  -0.058  0.6335 -0.4565 -0.6374
    7SAPS   H2R  825   3.761   3.444  -0.104  1.0837 -0.1559 -0.0269
    7SAPS   H2S  826   3.784   3.275  -0.144 -0.3731 -0.5490 -0.8056
    7SAPS    C3  827   4.100   3.229   0.221  0.4753  0.6707 -0.0044
    7SAPS    HX  828   4.174   3.264   0.297  2.8368  0.9709 -2.3083
    7SAPS    HY  829   4.142   3.270   0.127  2.3155  0.8514  0.8438
    7SAPS   O31  830   4.086   3.088   0.213  0.0536  0.1532  0.8778
    7SAPS   C31  831   4.184   3.025   0.144 -0.1905  0.3539  0.2099
    7SAPS   O32  832   4.275   3.086   0.093  0.1366  0.3098  0.0930
    7SAPS   C32  833   4.150   2.878   0.134 -0.3009 -0.6444  0.1143
    7SAPS   H2X  834   4.100   2.852   0.229  0.7103 -0.6705  0.6538
    7SAPS   H2Y  835   4.250   2.833   0.118  0.2592  1.4775 -3.4996
    7SAPS   C23  836   3.635   3.307   0.008  0.3063 -0.1282 -0.5681
    7SAPS   H3R  837   3.636   3.220   0.078  4.0252  0.0331 -0.1989
    7SAPS   H3S  838   3.562   3.282  -0.071  0.5877  0.7131 -1.1035
    7SAPS   C24  839   3.584   3.430   0.078  0.0750  0.8715  0.7465
    7SAPS   H4R  840   3.593   3.516   0.007  1.8038 -0.0465 -0.2081
    7SAPS   H4S  841   3.652   3.471   0.155  1.7977  1.1597 -0.8487
    7SAPS   C25  842   3.451   3.414   0.146  0.9705 -0.5238 -0.3035
    7SAPS   H5R  843   3.458   3.373   0.247 -0.7809  0.1981  0.1504
    7SAPS   C26  844   3.330   3.449   0.091 -0.2051  0.0982  0.0579
    7SAPS   H6R  845   3.241   3.439   0.155 -0.1346  0.4546  0.2155
    7SAPS   C27  846   3.312   3.512  -0.050 -0.2440 -0.3183  0.5585
    7SAPS   H7R  847   3.250   3.445  -0.113  1.0460  1.6258 -3.1309
    7SAPS   H7S  848   3.406   3.523  -0.109 -0.6421  1.9206  0.2665
    7SAPS   C28  849   3.244   3.644  -0.032  0.4500 -0.4501 -0.0253
    7SAPS   H8R  850   3.314   3.713   0.017  0.1042 -0.5094  0.5604
    7SAPS   C29  851   3.118   3.686  -0.070  0.2635 -0.3112  0.0302
    7SAPS   H9R  852   3.078   3.784  -0.042 -1.2870 -0.6674 -0.8312
    7SAPS  C210  853   3.018   3.604  -0.149  0.2168 -0.4342 -0.3316
    7SAPS  H10R  854   2.936   3.577  -0.079 -0.2423  1.5403 -0.0425
    7SAPS  H10S  855   3.064   3.507  -0.175  1.2454 -0.5082  1.6124
    7SAPS  C211  856   2.958   3.678  -0.272  0.1399  0.3193  0.0363
    7SAPS  H11R  857   2.943   3.786  -0.257 -0.2011  0.5216 -1.6268
    7SAPS  C212  858   2.919   3.616  -0.390 -0.1757 -0.5827  0.2818
    7SAPS  H12R  859   2.884   3.675  -0.476 -1.7228 -1.3137  0.3798
    7SAPS  C213  860   2.920   3.471  -0.430 -0.3524 -0.8300  0.1631
    7SAPS  H13R  861   2.831   3.429  -0.379 -0.4170  1.4068  2.0834
    7SAPS  H13S  862   3.008   3.418  -0.387  0.8495 -0.5447 -1.8568
    7SAPS  C214  863   2.925   3.435  -0.577 -0.2316 -0.2237 -0.1814
    7SAPS  H14R  864   3.025   3.409  -0.615  0.9233  0.7940  2.0075
    7SAPS  C215  865   2.825   3.434  -0.665  0.1948 -0.2704  0.3474
    7SAPS  H15R  866   2.843   3.393  -0.765 -0.7205 -1.4362  0.6280
    7SAPS  C216  867   2.686   3.479  -0.641 -0.9094 -0.3094 -0.1899
    7SAPS  H16R  868   2.658   3.469  -0.534  1.9945 -0.3718  0.6621
    7SAPS  H16S  869   2.615   3.422  -0.704  0.4267  0.3978 -2.4467
    7SAPS  C217  870   2.662   3.628  -0.674  0.1118  0.0340 -0.6634
    7SAPS  H17R  871   2.745   3.689  -0.632 -0.9135 -0.1100  1.7288
    7SAPS  H17S  872   2.567   3.659  -0.624  1.0911  0.2014  1.2076
    7SAPS  C218  873   2.668   3.646  -0.821  0.2752 -0.4763  0.5353
    7SAPS  H18R  874   2.600   3.575  -0.873 -0.7384 -1.4705  3.0971
    7SAPS  H18S  875   2.772   3.634  -0.857  0.6163  0.7667  1.0448
    7SAPS  C219  876   2.626   3.778  -0.878  0.0718  0.2983 -0.1249
    7SAPS  H19R  877   2.524   3.793  -0.835 -1.4701 -0.3515 -3.2409
    7SAPS  H19S  878   2.618   3.774  -0.989  0.9940 -1.4158 -0.1622
    7SAPS  C220  879   2.710   3.896  -0.818 -0.1756  0.4029  0.0010
    7SAPS  H20R  880   2.686   3.991  -0.871  1.4244  0.4390 -0.7271
    7SAPS  H20S  881   2.816   3.875  -0.843 -0.2903 -0.8323  0.5038
    7SAPS  H20T  882   2.687   3.906  -0.709  3.3165 -0.6644  0.9782
    7SAPS   C33  883   4.058   2.853   0.013  0.5550 -0.4727  0.1900
    7SAPS   H3X  884   3.963   2.907   0.034  2.1985  2.5114  0.5019
    7SAPS   H3Y  885   4.036   2.745  -0.003 -0.5983 -0.1461 -0.5937
    7SAPS   C34  886   4.127   2.903  -0.125 -0.2867  0.4047  0.2547
    7SAPS   H4X  887   4.216   2.838  -0.140 -1.7333 -1.5634 -0.0649
    7SAPS   H4Y  888   4.158   3.010  -0.117  0.2065  0.3233 -0.5234
    7SAPS   C35  889   4.041   2.891  -0.250 -0.2587  0.0073  0.4372
    7SAPS   H5X  890   3.968   2.975  -0.254 -1.3415 -0.8698  1.1733
    7SAPS   H5Y  891   3.981   2.798  -0.254 -1.0907  0.5671 -2.4638
    7SAPS   C36  892   4.133   2.886  -0.377  0.5271  0.5556  0.4723
    7SAPS   H6X  893   4.208   2.805  -0.362 -0.5639 -0.4654  0.6072
    7SAPS   H6Y  894   4.194   2.978  -0.378  1.5274 -0.0784  1.3161
    7SAPS   C37  895   4.059   2.866  -0.510  0.8352  0.5452  0.5987
    7SAPS   H7X  896   4.021   2.964  -0.546 -0.3456  0.8056  2.4624
    7SAPS   H7Y  897   3.969   2.810  -0.479  1.9617 -0.7157  1.7035
    7SAPS   C38  898   4.131   2.790  -0.626  0.3283  0.2869  0.7817
    7SAPS   H8X  899   4.157   2.684  -0.605  1.0355 -0.3384 -2.5318
    7SAPS   H8Y  900   4.230   2.839  -0.641 -0.1125  1.2204  0.8783
    7SAPS   C39  901   4.060   2.803  -0.759  0.0614  0.3876  0.4867
    7SAPS   H9X  902   4.027   2.907  -0.776  0.5807  0.3632 -0.7832
    7SAPS   H9Y  903   3.965   2.744  -0.758  0.8113 -0.9114 -0.4585
    7SAPS  C310  904   4.128   2.756  -0.890  0.0201  0.3614  1.1870
    7SAPS  H10X  905   4.169   2.653  -0.886 -0.9028  0.0309  3.0110
    7SAPS  H10Y  906   4.221   2.814  -0.909  0.3532 -0.6928 -0.6203
    7SAPS  C311  907   4.031   2.765  -1.014  0.1543 -0.0967 -0.2030
    7SAPS  H11X  908   4.005   2.873  -1.019  2.6966  0.5126 -2.6298
    7SAPS  H11Y  909   3.943   2.702  -0.985  0.0027 -0.0852 -0.6408
    7SAPS  C312  910   4.096   2.727  -1.145  0.3558  0.3324  0.2351
    7SAPS  H12X  911   4.113   2.618  -1.160 -0.5282  0.5222 -2.7825
    7SAPS  H12Y  912   4.197   2.774  -1.144  1.1886 -1.3647 -0.3558
    7SAPS  C313  913   4.027   2.780  -1.274  0.7186  0.0305 -0.7308
    7SAPS  H13X  914   4.090   2.755  -1.362 -0.2907 -1.3273 -1.1182
    7SAPS  H13Y  915   4.021   2.891  -1.271 -0.1161 -0.0216  0.2608
    7SAPS  C314  916   3.891   2.699  -1.302  0.0020 -0.1461 -0.3020
    7SAPS  H14X  917   3.832   2.720  -1.210  0.5633  0.7969 -0.1523
    7SAPS  H14Y  918   3.918   2.593  -1.321  1.5997  0.3456 -0.9726
    7SAPS  C315  919   3.824   2.751  -1.434 -0.1615 -0.2868  0.0157
    7SAPS  H15X  920   3.905   2.754  -1.510 -0.2063  2.5817 -0.0216
    7SAPS  H15Y  921   3.775   2.850  -1.424 -1.2651 -0.7141 -0.9445
    7SAPS  C316  922   3.713   2.659  -1.478 -0.8305  0.1864  0.0422
    7SAPS  H16X  923   3.638   2.654  -1.396  0.3718  1.1333  1.2316
    7SAPS  H16Y  924   3.751   2.555  -1.489  0.4067  0.5195  1.0519
    7SAPS  C317  925   3.635   2.706  -1.602  0.1867  0.6287 -0.3880
    7SAPS  H17X  926   3.703   2.703  -1.690  1.5972  0.5828  0.6729
    7SAPS  H17Y  927   3.611   2.814  -1.589  0.7588  0.8202 -0.8749
    7SAPS  C318  928   3.517   2.622  -1.635 -0.1534  0.1812  0.2042
    7SAPS  H18X  929   3.481   2.655  -1.735 -1.1535 -0.8619  0.2045
    7SAPS  H18Y  930   3.443   2.650  -1.557  1.5158  0.7285  1.6416
    7SAPS  H18Z  931   3.530   2.512  -1.636 -1.4447  0.0026  1.1635
    8SAPS     N  932   4.711   2.068   0.376  0.2238  0.6127  0.8456
    8SAPS   HN1  933   4.788   2.137   0.390  2.6323 -1.7077 -0.2257
    8SAPS   HN2  934   4.731   1.979   0.426  0.1565 -1.2293 -2.1903
    8SAPS   HN3  935   4.720   2.031   0.280  1.2136 -0.1306  1.2075
    8SAPS   C12  936   4.563   2.114   0.409 -0.8340  0.2238 -0.0530
    8SAPS  H12A  937   4.500   2.050   0.348  2.4220 -2.4201 -0.9500
    8SAPS   C13  938   4.525   2.092   0.559 -0.6281  0.0992 -0.2756
    8SAPS  O13A  939   4.606   2.018   0.627  0.0050 -0.3413 -0.7908
    8SAPS  O13B  940   4.411   2.128   0.599  0.2579  0.4855  0.0550
    8SAPS   C11  941   4.544   2.261   0.368  0.0604  0.4379 -0.0339
    8SAPS  H11A  942   4.593   2.329   0.441  1.1961  0.7144 -1.0227
    8SAPS  H11B  943   4.437   2.287   0.382 -0.0288  0.7588 -1.2839
    8SAPS     P  944   4.590   2.431   0.177 -0.0525  0.3440 -0.2232
    8SAPS   O13  945   4.510   2.523   0.258  0.3699 -0.3171 -0.3528
    8SAPS   O14  946   4.737   2.465   0.164 -0.2041  0.3282  0.1558
    8SAPS   O12  947   4.573   2.288   0.233  0.3774  0.2158 -0.4329
    8SAPS   O11  948   4.531   2.419   0.031 -0.3528  0.4629  0.3721
    8SAPS    C1  949   4.588   2.325  -0.059 -0.4869 -0.4375  0.6152
    8SAPS    HA  950   4.697   2.346  -0.067 -0.6484  1.0906  1.8244
    8SAPS    HB  951   4.581   2.220  -0.024  2.0395 -0.6265  0.7367
    8SAPS    C2  952   4.530   2.340  -0.200 -0.0880  1.0207  0.0677
    8SAPS    HS  953   4.597   2.326  -0.287  0.1074  4.8516 -0.5652
    8SAPS   O21  954   4.471   2.469  -0.228 -0.4137  0.1548  0.7341
    8SAPS   C21  955   4.560   2.567  -0.210 -0.4923 -0.6493 -0.0925
    8SAPS   O22  956   4.682   2.557  -0.197 -0.2063 -0.4204  0.3292
    8SAPS   C22  957   4.485   2.699  -0.225  0.3732  0.3741 -0.4072
    8SAPS   H2R  958   4.405   2.689  -0.301 -0.9853 -0.2854  1.0493
    8SAPS   H2S  959   4.452   2.710  -0.119 -0.5238 -0.9761 -0.5185
    8SAPS    C3  960   4.421   2.228  -0.210  0.3528 -0.3079  0.2189
    8SAPS    HX  961   4.356   2.230  -0.121 -2.4005  0.8312 -1.6927
    8SAPS    HY  962   4.470   2.128  -0.209  0.5852 -0.1935  0.6521
    8SAPS   O31  963   4.352   2.245  -0.335 -0.6151  0.4876 -0.3308
    8SAPS   C31  964   4.261   2.155  -0.360 -0.0954  0.3159 -0.3050
    8SAPS   O32  965   4.230   2.055  -0.294  0.4615 -0.6591 -0.0827
    8SAPS   C32  966   4.200   2.174  -0.499 -0.0168 -0.0510 -0.5607
    8SAPS   H2X  967   4.224   2.076  -0.544  0.3760 -0.3666  0.3171
    8SAPS   H2Y  968   4.252   2.258  -0.551 -0.9168 -0.7096 -2.6348
    8SAPS   C23  969   4.581   2.809  -0.271  0.0566 -0.4415  0.0779
    8SAPS   H3R  970   4.662   2.832  -0.199 -0.3056  4.2848 -0.7492
    8SAPS   H3S  971   4.517   2.900  -0.273 -2.0428 -1.7446  2.0582
    8SAPS   C24  972   4.642   2.792  -0.410 -0.2857  0.2289 -0.5911
    8SAPS   H4R  973   4.692   2.696  -0.431  0.5687  0.4818  0.2308
    8SAPS   H4S  974   4.710   2.878  -0.430  2.8380 -1.4732  1.9678
    8SAPS   C25  975   4.539   2.807  -0.514 -0.1591  0.8599 -0.1694
    8SAPS   H5R  976   4.496   2.908  -0.510  1.1644  1.4012  1.7429
    8SAPS   C26  977   4.491   2.712  -0.599  0.1280 -0.4355  0.5192
    8SAPS   H6R  978   4.408   2.736  -0.668  1.4032 -1.1142 -1.3165
    8SAPS   C27  979   4.533   2.570  -0.606  0.2038  0.0824 -0.3312
    8SAPS   H7R  980   4.573   2.543  -0.506 -2.1594 -0.4281  0.5400
    8SAPS   H7S  981   4.617   2.554  -0.677 -2.2783 -1.9601 -3.0493
    8SAPS   C28  982   4.411   2.486  -0.626 -0.3995  0.5725  0.2209
    8SAPS   H8R  983   4.348   2.480  -0.536  0.4503  1.8373  0.9234
    8SAPS   C29  984   4.377   2.422  -0.742 -0.2964 -1.0828  0.8112
    8SAPS   H9R  985   4.282   2.367  -0.736 -0.5175 -0.7753  0.2027
    8SAPS  C210  986   4.437   2.437  -0.885  0.2027 -0.0299 -0.2212
    8SAPS  H10R  987   4.531   2.489  -0.856 -1.0030  0.6010  2.9837
    8SAPS  H10S  988   4.374   2.501  -0.950 -0.4016 -2.2008 -1.8545
    8SAPS  C211  989   4.462   2.296  -0.946  0.3723 -0.3709 -0.0252
    8SAPS  H11R  990   4.501   2.221  -0.876  0.9931 -1.2239 -1.2589
    8SAPS  C212  991   4.444   2.278  -1.085 -0.6832  0.0123 -0.0591
    8SAPS  H12R  992   4.450   2.184  -1.142  1.9719  0.9754 -1.5444
    8SAPS  C213  993   4.418   2.392  -1.179 -0.5706 -0.5676  0.4661
    8SAPS  H13R  994   4.474   2.482  -1.146 -0.9578 -1.0940  2.7533
    8SAPS  H13S  995   4.312   2.419  -1.161 -0.0666  0.7219  1.6431
    8SAPS  C214  996   4.443   2.363  -1.327  0.2657 -0.4355  0.4377
    8SAPS  H14R  997   4.488   2.263  -1.337  0.7754 -0.0984 -0.8832
    8SAPS  C215  998   4.426   2.447  -1.426  0.0209  0.2976  0.6888
    8SAPS  H15R  999   4.448   2.416  -1.529  0.2844  0.1351  0.7906
    8SAPS  C216 1000   4.350   2.577  -1.420  0.0761  0.3512  0.2988
    8SAPS  H16R 1001   4.413   2.668  -1.425 -1.4298  1.4449  0.5300
    8SAPS  H16S 1002   4.302   2.575  -1.320 -0.6859 -2.6726 -0.0268
    8SAPS  C217 1003   4.245   2.586  -1.535  0.1542 -0.1720  0.1859
    8SAPS  H17R 1004   4.185   2.678  -1.523  1.1585  0.3648  1.2749
    8SAPS  H17S 1005   4.172   2.502  -1.534  0.0562 -0.0858  0.3652
    8SAPS  C218 1006   4.308   2.592  -1.679  0.0346  0.5016  0.3417
    8SAPS  H18R 1007   4.325   2.492  -1.723  1.8689  1.5633 -1.4891
    8SAPS  H18S 1008   4.410   2.632  -1.665 -0.2574  1.5666 -0.4471
    8SAPS  C219 1009   4.223   2.673  -1.777 -0.4441  0.1612 -0.0162
    8SAPS  H19R 1010   4.200   2.770  -1.728 -0.2202 -1.1737  2.9172
    8SAPS  H19S 1011   4.126   2.629  -1.809 -0.8301 -1.1186  2.6568
    8SAPS  C220 1012   4.291   2.699  -1.911 -0.5739  0.5652  0.7736
    8SAPS  H20R 1013   4.402   2.698  -1.905 -0.3711 -3.1773 -0.5562
    8SAPS  H20S 1014   4.259   2.796  -1.953  1.2327  0.1601 -1.8192
    8SAPS  H20T 1015   4.263   2.613  -1.976 -1.1513 -1.0590  3.0515
    8SAPS   C33 1016   4.048   2.185  -0.497  0.1002  0.1959 -0.6526
    8SAPS   H3X 1017   4.022   2.285  -0.457  0.2143 -0.1707  0.3624
    8SAPS   H3Y 1018   4.006   2.113  -0.423  0.3946  1.6499  0.9844
    8SAPS   C34 1019   3.988   2.153  -0.631  0.3353 -0.6312 -0.2774
    8SAPS   H4X 1020   3.878   2.151  -0.618  0.1810  1.9007 -0.7241
    8SAPS   H4Y 1021   4.013   2.054  -0.674  0.0503 -1.2933  1.0464
    8SAPS   C35 1022   4.009   2.269  -0.725  0.6098 -0.1018 -0.1492
    8SAPS   H5X 1023   4.114   2.262  -0.761 -0.1662  1.1013 -2.9267
    8SAPS   H5Y 1024   4.006   2.366  -0.672  2.4463 -0.8960  1.5361
    8SAPS   C36 1025   3.924   2.275  -0.855 -0.6401  0.3598  0.9357
    8SAPS   H6X 1026   3.817   2.287  -0.828 -0.5675  2.4108  0.4594
    8SAPS   H6Y 1027   3.935   2.181  -0.914  0.5780  1.0244  0.0575
    8SAPS   C37 1028   3.966   2.394  -0.943 -0.4382 -0.1950  0.2539
    8SAPS   H7X 1029   4.070   2.370  -0.973 -0.3729 -0.5959  0.7646
    8SAPS   H7Y 1030   3.981   2.479  -0.874  0.4813 -0.7963  0.8162
    8SAPS   C38 1031   3.875   2.419  -1.068  0.6859  0.0076 -0.5971
    8SAPS   H8X 1032   3.935   2.484  -1.134  0.1006 -2.3501 -3.6878
    8SAPS   H8Y 1033   3.785   2.475  -1.036  1.0392 -0.0158  0.4954
    8SAPS   C39 1034   3.846   2.290  -1.149  0.4251  0.0531 -0.5470
    8SAPS   H9X 1035   3.778   2.224  -1.091  1.4073 -1.8301 -1.4589
    8SAPS   H9Y 1036   3.947   2.244  -1.142 -0.1452 -0.9550  3.2512
    8SAPS  C310 1037   3.778   2.304  -1.285  0.1188  0.4442 -0.4693
    8SAPS  H10X 1038   3.850   2.349  -1.356  3.3371  1.3515  3.0716
    8SAPS  H10Y 1039   3.690   2.373  -1.288 -0.2698 -0.0506 -0.6888
    8SAPS  C311 1040   3.741   2.164  -1.342  0.2919  0.2740 -0.2122
    8SAPS  H11X 1041   3.675   2.118  -1.266 -0.7620  3.1339  0.7441
    8SAPS  H11Y 1042   3.826   2.092  -1.347 -0.9752 -1.2284 -0.7824
    8SAPS  C312 1043   3.683   2.177  -1.486 -0.0481  0.0603  0.1931
    8SAPS  H12X 1044   3.761   2.229  -1.546 -2.0412  3.2240  0.1268
    8SAPS  H12Y 1045   3.594   2.242  -1.470  0.2494 -0.3906  4.9009
    8SAPS  C313 1046   3.646   2.047  -1.555  0.0058  0.9656 -0.2587
    8SAPS  H13X 1047   3.553   2.001  -1.515 -0.4390  0.1544 -2.1475
    8SAPS  H13Y 1048   3.727   1.972  -1.543 -0.0039  1.1055  0.8430
    8SAPS  C314 1049   3.625   2.079  -1.707 -0.2323 -0.4964  0.5551
    8SAPS  H14X 1050   3.710   2.140  -1.742  0.0018 -0.2493  1.5093
    8SAPS  H14Y 1051   3.528   2.129  -1.726 -0.2378 -1.2656 -1.7299
    8SAPS  C315 1052   3.630   1.957  -1.794  0.8514  0.4652  0.8119
    8SAPS  H15X 1053   3.590   1.866  -1.743 -0.5253  0.4651 -0.2022
    8SAPS  H15Y 1054   3.736   1.940  -1.822  0.8767  0.2527  1.0365
    8SAPS  C316 1055   3.568   1.986  -1.931 -0.3557  0.5406 -0.2388
    8SAPS  H16X 1056   3.632   2.062  -1.980  1.4092 -0.0911  0.9742
    8SAPS  H16Y 1057   3.464   2.019  -1.912 -1.1206 -0.8982 -1.6177
    8SAPS  C317 1058   3.550   1.864  -2.032  0.2727 -0.3646 -0.3964
    8SAPS  H17X 1059   3.651   1.828  -2.062 -0.3906 -0.9481 -2.0561
    8SAPS  H17Y 1060   3.505   1.899  -2.127 -1.6092 -0.3465  0.4686
    8SAPS  C318 1061   3.459   1.743  -1.991  1.2516 -0.2146  0.4137
    8SAPS  H18X 1062   3.358   1.790  -1.981  0.4598 -1.7809  0.1185
    8SAPS  H18Y 1063   3.496   1.696  -1.898 -1.9737 -1.2447  1.3289
    8SAPS  H18Z 1064   3.442   1.664  -2.067 -1.3531  1.9297 -1.4573
    9SAPS     N 1065   0.987   0.714   0.020 -0.4493 -1.1415 -0.4824
    9SAPS   HN1 1066   1.028   0.740  -0.072  0.1805 -2.9696 -0.7582
    9SAPS   HN2 1067   0.926   0.631   0.008 -1.1763 -0.8106  0.7058
    9SAPS   HN3 1068   0.927   0.790   0.057  0.4879  0.2857 -1.7644
    9SAPS   C12 1069   1.086   0.678   0.123 -0.2038 -0.1963 -0.6461
    9SAPS  H12A 1070   1.169   0.748   0.119  0.6074 -1.1096 -0.1716
    9SAPS   C13 1071   1.037   0.670   0.262  0.0650 -0.3979 -0.0928
    9SAPS  O13A 1072   0.924   0.713   0.297  0.2156 -0.4668  0.0491
    9SAPS  O13B 1073   1.107   0.601   0.343 -0.1104 -0.5049 -0.4838
    9SAPS   C11 1074   1.149   0.542   0.069 -0.2400 -0.2702 -0.6410
    9SAPS  H11A 1075   1.069   0.466   0.065 -1.3653  0.7217  1.4059
    9SAPS  H11B 1076   1.208   0.496   0.152  0.2587 -0.8919 -1.3270
    9SAPS     P 1077   1.294   0.455  -0.139  0.0463 -0.4133 -0.2559
    9SAPS   O13 1078   1.392   0.535  -0.221  0.3205 -0.2007  0.2075
    9SAPS   O14 1079   1.346   0.348  -0.048  0.3295  0.1877 -0.1288
    9SAPS   O12 1080   1.212   0.558  -0.052 -0.1530 -0.6685 -0.7433
    9SAPS   O11 1081   1.190   0.393  -0.240  0.0168  0.2246 -0.2872
    9SAPS    C1 1082   1.099   0.488  -0.289 -0.7768  0.5804 -0.3624
    9SAPS    HA 1083   1.028   0.526  -0.213  0.8815  0.2210  1.4361
    9SAPS    HB 1084   1.158   0.569  -0.337  1.3025  0.0038  1.0685
    9SAPS    C2 1085   1.011   0.417  -0.388  0.0860  0.3950  0.7655
    9SAPS    HS 1086   0.956   0.337  -0.333 -0.0316  0.2257  0.4078
    9SAPS   O21 1087   1.074   0.367  -0.507  0.9793 -0.3587 -0.3712
    9SAPS   C21 1088   1.003   0.280  -0.579 -0.5263 -0.4005  0.1669
    9SAPS   O22 1089   0.901   0.229  -0.541 -0.0437  0.0597 -0.0011
    9SAPS   C22 1090   1.079   0.257  -0.713  0.0206  0.1361 -0.7229
    9SAPS   H2R 1091   1.113   0.354  -0.757  0.7892 -0.9628 -2.6641
    9SAPS   H2S 1092   1.175   0.213  -0.680  0.4551  1.8563  0.4688
    9SAPS    C3 1093   0.887   0.509  -0.426 -0.2627 -0.5559  0.7356
    9SAPS    HX 1094   0.818   0.515  -0.339  1.4739  0.4055  2.1069
    9SAPS    HY 1095   0.839   0.474  -0.520 -0.6446 -0.1200  0.7671
    9SAPS   O31 1096   0.940   0.650  -0.445 -0.0034  0.2819  0.5315
    9SAPS   C31 1097   0.982   0.678  -0.569  0.5609 -0.4787 -0.0581
    9SAPS   O32 1098   0.966   0.612  -0.671 -0.1337 -0.0509  0.2309
    9SAPS   C32 1099   1.056   0.810  -0.560  0.8234 -0.3010  0.3510
    9SAPS   H2X 1100   1.125   0.815  -0.474  1.5515  1.1445 -0.2755
    9SAPS   H2Y 1101   0.979   0.889  -0.542  1.7554 -0.0273  3.5601
    9SAPS   C23 1102   1.017   0.162  -0.815 -0.0526 -0.1558  0.6908
    9SAPS   H3R 1103   0.992   0.066  -0.765 -0.6900  0.1197  0.9101
    9SAPS   H3S 1104   1.095   0.145  -0.891 -0.0988  1.2072  0.3219
    9SAPS   C24 1105   0.893   0.227  -0.877  0.2371 -0.2218  0.8736
    9SAPS   H4R 1106   0.843   0.273  -0.788 -1.5472 -5.8376  3.2529
    9SAPS   H4S 1107   0.823   0.146  -0.907 -1.2370  0.9122  1.1303
    9SAPS   C25 1108   0.924   0.317  -0.993 -1.2636  0.1545  0.2292
    9SAPS   H5R 1109   0.955   0.421  -0.981 -0.6218 -0.0559  0.4612
    9SAPS   C26 1110   0.911   0.294  -1.127  0.1892  0.8470  0.1847
    9SAPS   H6R 1111   0.943   0.367  -1.203  2.5406 -0.7590 -0.4783
    9SAPS   C27 1112   0.873   0.162  -1.192  0.5144 -0.5426 -0.1199
    9SAPS   H7R 1113   0.801   0.179  -1.275 -0.1812 -0.1805  0.5524
    9SAPS   H7S 1114   0.820   0.096  -1.120  0.7265  0.9787  1.4725
    9SAPS   C28 1115   0.988   0.090  -1.254  0.2252 -0.2317  0.5324
    9SAPS   H8R 1116   1.060   0.058  -1.178  1.5365 -0.0682 -0.6210
    9SAPS   C29 1117   0.999   0.040  -1.378  0.7229  0.2377 -0.2064
    9SAPS   H9R 1118   1.089  -0.009  -1.416  1.4735  0.4018  1.2952
    9SAPS  C210 1119   0.899   0.059  -1.493  0.0584 -1.1300  0.0520
    9SAPS  H10R 1120   0.795   0.056  -1.453  0.1182  0.8666  0.4921
    9SAPS  H10S 1121   0.901  -0.024  -1.567 -0.9292 -2.1393  1.1171
    9SAPS  C211 1122   0.913   0.192  -1.563  0.5505 -0.3401  0.3562
    9SAPS  H11R 1123   0.906   0.276  -1.493 -0.1514 -0.3926  0.3618
    9SAPS  C212 1124   0.941   0.224  -1.691 -0.1304 -0.0293  0.2744
    9SAPS  H12R 1125   0.946   0.330  -1.717  0.3245 -0.1978 -0.3505
    9SAPS  C213 1126   0.969   0.131  -1.803 -0.3702 -0.3450  0.4235
    9SAPS  H13R 1127   0.945   0.182  -1.899 -1.1002  1.4001  1.4889
    9SAPS  H13S 1128   0.895   0.048  -1.804 -0.8535  0.0626 -1.3616
    9SAPS  C214 1129   1.111   0.077  -1.801  0.1113  0.1860 -0.0555
    9SAPS  H14R 1130   1.194   0.147  -1.785  0.6002  0.0711 -1.8782
    9SAPS  C215 1131   1.144  -0.052  -1.793 -0.1625  0.6872  0.3473
    9SAPS  H15R 1132   1.249  -0.077  -1.776  0.0026  1.1041 -0.0586
    9SAPS  C216 1133   1.054  -0.173  -1.802 -0.0506  0.2078  0.8779
    9SAPS  H16R 1134   0.969  -0.146  -1.736  0.5458  1.9376  0.9776
    9SAPS  H16S 1135   1.104  -0.266  -1.766 -0.1542  0.4350  1.6126
    9SAPS  C217 1136   0.995  -0.208  -1.944  0.1663  0.1300  0.6228
    9SAPS  H17R 1137   0.970  -0.115  -1.998  1.2892  0.4298  0.6142
    9SAPS  H17S 1138   0.903  -0.269  -1.927 -0.8428  1.5832  0.5003
    9SAPS  C218 1139   1.092  -0.287  -2.033  0.8507  0.6731  0.2912
    9SAPS  H18R 1140   1.113  -0.383  -1.982 -1.1809  0.4329  0.7587
    9SAPS  H18S 1141   1.192  -0.240  -2.043  1.2741  0.3674  2.5616
    9SAPS  C219 1142   1.043  -0.323  -2.183 -0.0083 -0.3406 -0.3523
    9SAPS  H19R 1143   1.054  -0.226  -2.236 -0.2935 -0.1222 -0.0186
    9SAPS  H19S 1144   0.933  -0.338  -2.177 -0.1452  0.8366  0.5877
    9SAPS  C220 1145   1.112  -0.441  -2.236  0.1819 -0.2989 -0.3843
    9SAPS  H20R 1146   1.051  -0.476  -2.322 -0.2563  1.7315 -0.9590
    9SAPS  H20S 1147   1.113  -0.531  -2.170 -2.2651 -0.1157 -0.0171
    9SAPS  H20T 1148   1.216  -0.418  -2.269  0.4985 -0.3789  0.5149
    9SAPS   C33 1149   1.129   0.853  -0.691  0.0827  0.5107  0.2319
    9SAPS   H3X 1150   1.135   0.964  -0.680 -1.1488  0.4113  2.3625
    9SAPS   H3Y 1151   1.060   0.829  -0.775  0.8388 -2.8561  0.4650
    9SAPS   C34 1152   1.261   0.787  -0.721  0.1071  0.0211 -0.5463
    9SAPS   H4X 1153   1.253   0.677  -0.707  0.1934 -0.0267 -0.8646
    9SAPS   H4Y 1154   1.332   0.835  -0.649 -1.0870  0.6881  0.2258
    9SAPS   C35 1155   1.298   0.816  -0.869  0.2945  0.7326 -0.2830
    9SAPS   H5X 1156   1.391   0.761  -0.897 -0.3693 -0.7222  0.2529
    9SAPS   H5Y 1157   1.334   0.920  -0.877 -0.8192  1.1228 -0.3778
    9SAPS   C36 1158   1.191   0.784  -0.971  0.2416 -0.2197  0.4471
    9SAPS   H6X 1159   1.104   0.853  -0.966  0.7769  0.5738 -0.7326
    9SAPS   H6Y 1160   1.141   0.685  -0.963 -0.8192  0.1424 -1.3667
    9SAPS   C37 1161   1.249   0.767  -1.105 -0.4506 -0.0035  0.5797
    9SAPS   H7X 1162   1.346   0.712  -1.112  0.1204  0.9807  0.6049
    9SAPS   H7Y 1163   1.270   0.871  -1.138  0.3104  0.3211  1.9849
    9SAPS   C38 1164   1.165   0.689  -1.205  0.4354  0.0151  0.3794
    9SAPS   H8X 1165   1.077   0.742  -1.248  0.0936 -0.7911  0.0608
    9SAPS   H8Y 1166   1.124   0.598  -1.158  0.3307  0.0882  0.4300
    9SAPS   C39 1167   1.244   0.640  -1.333 -0.4564 -0.5963 -0.2185
    9SAPS   H9X 1168   1.317   0.558  -1.310 -0.7872 -0.9055 -0.2584
    9SAPS   H9Y 1169   1.299   0.726  -1.376  0.7050 -0.3826  1.5742
    9SAPS  C310 1170   1.152   0.570  -1.436 -0.3414  0.4282 -0.1331
    9SAPS  H10X 1171   1.089   0.651  -1.478 -0.4863  0.2432 -0.2743
    9SAPS  H10Y 1172   1.087   0.502  -1.376  0.7198  0.9692  1.7210
    9SAPS  C311 1173   1.224   0.500  -1.557 -0.8514  0.7873 -0.1355
    9SAPS  H11X 1174   1.291   0.575  -1.606  0.0261  0.7380  0.9483
    9SAPS  H11Y 1175   1.149   0.453  -1.624  0.8437 -2.6812  0.1829
    9SAPS  C312 1176   1.323   0.390  -1.519 -0.3000  0.2548 -0.9207
    9SAPS  H12X 1177   1.394   0.430  -1.444 -2.9718  2.4320  0.6721
    9SAPS  H12Y 1178   1.389   0.364  -1.605 -0.3014  0.0273 -0.8534
    9SAPS  C313 1179   1.265   0.254  -1.473  0.0299  0.0698  0.0396
    9SAPS  H13X 1180   1.217   0.213  -1.564  1.3682  0.7840 -1.0269
    9SAPS  H13Y 1181   1.192   0.276  -1.392  0.5868 -0.1219  0.5975
    9SAPS  C314 1182   1.364   0.153  -1.407  0.2227 -0.3707  0.4726
    9SAPS  H14X 1183   1.446   0.125  -1.478  0.3491  1.0105  0.0492
    9SAPS  H14Y 1184   1.313   0.058  -1.380  0.2603 -0.1622  1.2927
    9SAPS  C315 1185   1.419   0.215  -1.284 -0.2221 -0.0617  0.0574
    9SAPS  H15X 1186   1.477   0.309  -1.294  0.2109 -0.3200  0.1420
    9SAPS  H15Y 1187   1.495   0.144  -1.245  0.1434  1.0787  1.4790
    9SAPS  C316 1188   1.308   0.210  -1.173  0.0214  0.0719  0.2413
    9SAPS  H16X 1189   1.285   0.105  -1.145  0.3921 -0.7097 -2.1722
    9SAPS  H16Y 1190   1.209   0.253  -1.200 -0.2436 -0.6222  0.0910
    9SAPS  C317 1191   1.350   0.282  -1.047  0.6058 -0.0603 -0.3069
    9SAPS  H17X 1192   1.454   0.249  -1.025  0.7892  1.0485  0.5532
    9SAPS  H17Y 1193   1.285   0.252  -0.962 -1.2764  1.8390 -0.9958
    9SAPS  C318 1194   1.348   0.431  -1.046 -0.9554  0.1475  0.6572
    9SAPS  H18X 1195   1.374   0.475  -1.144 -3.8317 -1.1274 -0.7997
    9SAPS  H18Y 1196   1.407   0.468  -0.959 -0.4125 -0.0107  0.3603
    9SAPS  H18Z 1197   1.245   0.472  -1.034 -0.3722  1.5805  0.9699
   10SAPS     N 1198   6.394   2.760   0.827 -0.1228  0.1248 -0.2691
   10SAPS   HN1 1199   6.435   2.823   0.755 -1.5359  1.8697  0.3853
   10SAPS   HN2 1200   6.318   2.712   0.774  0.7914 -0.7943 -0.7960
   10SAPS   HN3 1201   6.357   2.813   0.908 -0.4817  1.6513 -1.3809
   10SAPS   C12 1202   6.493   2.662   0.876  0.2928  0.0883  0.7250
   10SAPS  H12A 1203   6.541   2.711   0.959  0.2017  1.6310 -0.1132
   10SAPS   C13 1204   6.441   2.525   0.933  0.2855 -0.4995 -0.0567
   10SAPS  O13A 1205   6.316   2.519   0.946  0.6713 -0.2357 -0.1115
   10SAPS  O13B 1206   6.519   2.456   1.003  0.0779  0.0961  0.2714
   10SAPS   C11 1207   6.602   2.640   0.772 -0.0335 -0.5827 -0.3158
   10SAPS  H11A 1208   6.560   2.584   0.686  0.1073 -0.3086 -0.5624
   10SAPS  H11B 1209   6.684   2.583   0.820 -1.7048 -1.5580  1.5572
   10SAPS     P 1210   6.743   2.795   0.606  0.3109  0.0737  0.2263
   10SAPS   O13 1211   6.737   2.938   0.575 -0.4185  0.0711  0.0479
   10SAPS   O14 1212   6.878   2.741   0.627  0.1622 -0.4270 -0.0165
   10SAPS   O12 1213   6.651   2.769   0.731 -0.2729 -0.3838  0.1308
   10SAPS   O11 1214   6.679   2.716   0.483 -0.4679  0.5823 -0.0575
   10SAPS    C1 1215   6.550   2.740   0.437 -0.6500 -0.1155 -0.2797
   10SAPS    HA 1216   6.481   2.671   0.489 -0.0361  0.5669  1.5140
   10SAPS    HB 1217   6.516   2.844   0.459 -0.9856 -0.4686  0.9251
   10SAPS    C2 1218   6.543   2.728   0.281  0.0633  0.0628 -0.2863
   10SAPS    HS 1219   6.446   2.754   0.234 -0.5874 -0.7821  0.5297
   10SAPS   O21 1220   6.584   2.596   0.240  0.3066  0.4828  0.2241
   10SAPS   C21 1221   6.497   2.507   0.258 -0.0623 -0.1053  0.1499
   10SAPS   O22 1222   6.381   2.523   0.299  0.0361 -0.3201  0.4620
   10SAPS   C22 1223   6.557   2.372   0.217 -0.0986  0.8126 -0.0173
   10SAPS   H2R 1224   6.664   2.368   0.246 -0.1197  0.8022  0.0598
   10SAPS   H2S 1225   6.513   2.288   0.275  1.2861  0.5551  0.6811
   10SAPS    C3 1226   6.646   2.832   0.215  0.2744 -0.5455 -0.2182
   10SAPS    HX 1227   6.734   2.845   0.282 -2.0492  0.1852  2.9828
   10SAPS    HY 1228   6.608   2.936   0.218  2.0188  0.1451 -1.1389
   10SAPS   O31 1229   6.687   2.803   0.087 -0.0924 -0.1056  0.0594
   10SAPS   C31 1230   6.587   2.829  -0.007 -0.0410  0.5503  0.2893
   10SAPS   O32 1231   6.476   2.866   0.011 -0.1590  0.0508  0.3072
   10SAPS   C32 1232   6.647   2.804  -0.148  0.0985  0.5915 -0.6347
   10SAPS   H2X 1233   6.699   2.707  -0.159  3.7153  2.4891 -1.9014
   10SAPS   H2Y 1234   6.718   2.887  -0.167 -0.0061  0.8397  0.0177
   10SAPS   C23 1235   6.524   2.336   0.067  0.2744 -0.4258 -0.0886
   10SAPS   H3R 1236   6.459   2.411   0.018 -0.7991  0.2070  2.1600
   10SAPS   H3S 1237   6.473   2.238   0.068  1.1536 -0.9865 -2.9276
   10SAPS   C24 1238   6.655   2.319  -0.017 -0.4107  0.4718  0.0531
   10SAPS   H4R 1239   6.647   2.228  -0.081 -2.0537  1.5771 -1.4050
   10SAPS   H4S 1240   6.733   2.294   0.059 -1.1583  1.6884  1.2588
   10SAPS   C25 1241   6.699   2.440  -0.095 -0.7096  0.5478  0.0827
   10SAPS   H5R 1242   6.743   2.520  -0.033  0.1875  1.0649 -1.1633
   10SAPS   C26 1243   6.702   2.443  -0.229  0.1104 -0.1413  0.0398
   10SAPS   H6R 1244   6.746   2.532  -0.277 -0.1019 -1.1020 -2.0187
   10SAPS   C27 1245   6.671   2.332  -0.322 -0.1785  0.4120 -0.5907
   10SAPS   H7R 1246   6.604   2.254  -0.280  1.6444 -1.2149 -0.5859
   10SAPS   H7S 1247   6.767   2.278  -0.336  0.1899  1.3732 -2.0995
   10SAPS   C28 1248   6.623   2.385  -0.458  0.1822 -0.7741  0.0538
   10SAPS   H8R 1249   6.514   2.380  -0.467 -0.0149  1.5623  0.7067
   10SAPS   C29 1250   6.702   2.424  -0.571  0.9197 -0.1630  0.3160
   10SAPS   H9R 1251   6.637   2.465  -0.651 -1.0006 -1.4645  1.1281
   10SAPS  C210 1252   6.848   2.444  -0.587 -0.6301  0.1278 -0.8538
   10SAPS  H10R 1253   6.867   2.466  -0.694  0.9569  1.1567 -0.3997
   10SAPS  H10S 1254   6.897   2.345  -0.570  1.5185  1.0257 -1.5654
   10SAPS  C211 1255   6.911   2.550  -0.494  0.7604  0.3719  0.4212
   10SAPS  H11R 1256   6.909   2.527  -0.386 -0.4546  0.0008  0.3411
   10SAPS  C212 1257   6.950   2.672  -0.532 -0.0810  0.3399  0.3814
   10SAPS  H12R 1258   6.992   2.740  -0.456 -0.6617 -0.3370  1.3381
   10SAPS  C213 1259   6.945   2.722  -0.676 -0.2915 -1.0364 -0.2231
   10SAPS  H13R 1260   6.989   2.824  -0.681  1.0958 -1.6734 -2.5929
   10SAPS  H13S 1261   6.838   2.734  -0.703  0.0660  0.5327 -1.0906
   10SAPS  C214 1262   7.024   2.633  -0.771 -0.4671 -0.3776 -0.0744
   10SAPS  H14R 1263   7.104   2.574  -0.724  0.1270 -0.0924 -0.7179
   10SAPS  C215 1264   7.000   2.618  -0.906 -0.0412  0.0140 -0.7208
   10SAPS  H15R 1265   7.059   2.548  -0.968 -1.9960  0.0164 -2.7075
   10SAPS  C216 1266   6.901   2.696  -0.989  0.0305  0.1776 -0.0181
   10SAPS  H16R 1267   6.942   2.796  -1.015 -1.5503  0.6732 -0.7355
   10SAPS  H16S 1268   6.810   2.722  -0.930 -0.1500 -1.1725  0.3447
   10SAPS  C217 1269   6.871   2.624  -1.119  0.0059  0.3260 -0.5250
   10SAPS  H17R 1270   6.846   2.518  -1.098  1.9562  0.0424  0.6711
   10SAPS  H17S 1271   6.963   2.630  -1.181  0.9541 -0.0718  0.7963
   10SAPS  C218 1272   6.768   2.686  -1.213 -0.7400  0.4354 -0.2186
   10SAPS  H18R 1273   6.821   2.775  -1.256 -0.0609 -0.2394 -0.8166
   10SAPS  H18S 1274   6.678   2.709  -1.153 -0.8377 -0.0813 -0.1640
   10SAPS  C219 1275   6.733   2.585  -1.321  0.9836 -0.1479  0.4119
   10SAPS  H19R 1276   6.627   2.600  -1.353  1.4207  3.2796  0.1662
   10SAPS  H19S 1277   6.726   2.480  -1.284 -2.0937  0.0054  0.5728
   10SAPS  C220 1278   6.822   2.595  -1.441 -0.1528 -0.3974  0.2832
   10SAPS  H20R 1279   6.928   2.568  -1.422 -0.0629  0.5033  1.1229
   10SAPS  H20S 1280   6.823   2.696  -1.488 -0.3188 -0.1313  0.8547
   10SAPS  H20T 1281   6.785   2.527  -1.521  0.2817 -1.8798  1.2912
   10SAPS   C33 1282   6.540   2.821  -0.251 -0.0078  0.5551 -0.5779
   10SAPS   H3X 1283   6.478   2.912  -0.235 -0.7734 -0.5080  3.8123
   10SAPS   H3Y 1284   6.463   2.741  -0.253  1.0991 -0.5295 -1.2510
   10SAPS   C34 1285   6.602   2.809  -0.393  0.4613 -0.7242  0.1580
   10SAPS   H4X 1286   6.640   2.705  -0.404  1.8568 -0.2564  0.3375
   10SAPS   H4Y 1287   6.688   2.879  -0.398  0.2184 -0.2839  1.6780
   10SAPS   C35 1288   6.491   2.835  -0.495 -0.7417  0.2066 -0.0184
   10SAPS   H5X 1289   6.452   2.938  -0.487 -2.2656 -0.4192  1.0458
   10SAPS   H5Y 1290   6.407   2.768  -0.467  0.1954 -0.0851  2.2418
   10SAPS   C36 1291   6.530   2.810  -0.642  0.8125  0.3540  0.1319
   10SAPS   H6X 1292   6.549   2.701  -0.656 -0.2729  0.1628  0.0460
   10SAPS   H6Y 1293   6.620   2.866  -0.673 -0.0115  2.4211  1.2978
   10SAPS   C37 1294   6.417   2.851  -0.732 -0.5631 -0.0103  0.0575
   10SAPS   H7X 1295   6.380   2.952  -0.705 -3.3281 -0.8322 -0.3666
   10SAPS   H7Y 1296   6.340   2.772  -0.714  2.5500 -3.0255  1.2961
   10SAPS   C38 1297   6.444   2.850  -0.885  0.0351  0.8058 -0.0723
   10SAPS   H8X 1298   6.483   2.752  -0.921 -0.4677  0.9913 -1.1442
   10SAPS   H8Y 1299   6.527   2.925  -0.889  0.9351  0.2092  3.4406
   10SAPS   C39 1300   6.320   2.896  -0.953  0.3681 -0.2919  0.7246
   10SAPS   H9X 1301   6.295   2.995  -0.910 -1.3199  0.9878 -2.7609
   10SAPS   H9Y 1302   6.235   2.829  -0.932 -0.3763 -0.2617 -1.7881
   10SAPS  C310 1303   6.343   2.904  -1.101  0.0752  0.1504 -0.5299
   10SAPS  H10X 1304   6.384   2.812  -1.148 -0.1852  0.4168 -1.2953
   10SAPS  H10Y 1305   6.416   2.987  -1.109  0.0725  0.2989  0.7119
   10SAPS  C311 1306   6.208   2.948  -1.166  0.2397 -0.1365 -0.4362
   10SAPS  H11X 1307   6.168   3.032  -1.106 -0.2728 -0.6827  0.0042
   10SAPS  H11Y 1308   6.125   2.875  -1.155 -0.3164  0.5248 -0.2226
   10SAPS  C312 1309   6.207   2.995  -1.308 -0.5033  0.0873 -0.6060
   10SAPS  H12X 1310   6.295   3.058  -1.333  0.7114 -0.9244  0.8999
   10SAPS  H12Y 1311   6.117   3.059  -1.309  0.7567  2.1326  2.2845
   10SAPS  C313 1312   6.209   2.883  -1.414 -0.3751 -0.4599 -0.5389
   10SAPS  H13X 1313   6.106   2.843  -1.414 -0.0920 -1.2303  0.5721
   10SAPS  H13Y 1314   6.284   2.809  -1.378  1.6927  1.6277 -0.3321
   10SAPS  C314 1315   6.256   2.937  -1.548  0.3996  0.2310  1.1238
   10SAPS  H14X 1316   6.273   2.848  -1.613 -0.1228  0.7214  0.3002
   10SAPS  H14Y 1317   6.356   2.985  -1.546  0.5258  0.1513 -0.9700
   10SAPS  C315 1318   6.149   3.029  -1.615 -0.5059 -0.3903  0.6731
   10SAPS  H15X 1319   6.139   3.122  -1.554 -0.4504  0.1973 -0.1939
   10SAPS  H15Y 1320   6.048   2.983  -1.619 -0.3471 -1.0491  2.8589
   10SAPS  C316 1321   6.193   3.075  -1.757 -0.0630 -0.2788  0.1772
   10SAPS  H16X 1322   6.201   2.982  -1.817  1.2800 -0.4492  0.5974
   10SAPS  H16Y 1323   6.298   3.111  -1.751 -0.4562  1.0700 -0.6702
   10SAPS  C317 1324   6.105   3.181  -1.819 -0.0499 -1.0616  0.7161
   10SAPS  H17X 1325   6.104   3.278  -1.767 -0.0717  1.7612 -3.9391
   10SAPS  H17Y 1326   6.003   3.142  -1.839  0.7609 -1.6459 -3.0422
   10SAPS  C318 1327   6.167   3.230  -1.949  0.8434 -0.0760  1.3613
   10SAPS  H18X 1328   6.190   3.141  -2.012  1.7707 -0.4069  2.1424
   10SAPS  H18Y 1329   6.261   3.288  -1.931  0.4706  0.8446  0.4543
   10SAPS  H18Z 1330   6.102   3.300  -2.006  0.6965  1.5844  3.4543
   11SAPS     N 1331   2.769   4.462   4.414 -0.5330 -0.0575 -0.1733
   11SAPS   HN1 1332   2.712   4.376   4.398 -1.0477  0.0890  0.7693
   11SAPS   HN2 1333   2.703   4.538   4.438  0.7254  0.8294  0.6076
   11SAPS   HN3 1334   2.806   4.493   4.322  0.3632  0.0796  0.2236
   11SAPS   C12 1335   2.879   4.445   4.515 -0.1877  0.4224  0.1515
   11SAPS  H12A 1336   2.842   4.464   4.614 -2.1861  0.2718 -0.5215
   11SAPS   C13 1337   2.935   4.301   4.505 -0.4280 -0.2820  1.1660
   11SAPS  O13A 1338   2.915   4.230   4.399  0.7777  0.5878 -0.6933
   11SAPS  O13B 1339   3.028   4.263   4.587 -0.1048 -0.8121  0.3389
   11SAPS   C11 1340   2.991   4.538   4.480 -0.3453  0.0330  0.2723
   11SAPS  H11A 1341   3.017   4.538   4.372 -2.7745  2.3745 -0.4230
   11SAPS  H11B 1342   3.086   4.511   4.530  1.3956  1.9975 -1.7437
   11SAPS     P 1343   2.999   4.799   4.441  0.0057  0.1190  0.1928
   11SAPS   O13 1344   3.145   4.799   4.458 -0.0813  0.2577  0.4278
   11SAPS   O14 1345   2.950   4.802   4.298  0.7777 -0.5809  0.1206
   11SAPS   O12 1346   2.957   4.667   4.515 -0.3783  0.1676 -0.2985
   11SAPS   O11 1347   2.930   4.916   4.527  0.0404 -0.1382  0.3709
   11SAPS    C1 1348   2.932   4.901   4.662 -0.4460  0.0718 -0.5161
   11SAPS    HA 1349   2.829   4.910   4.703 -0.8628  0.6909 -1.6731
   11SAPS    HB 1350   2.965   4.803   4.705 -2.4372  0.2773  1.7356
   11SAPS    C2 1351   3.022   5.006   4.731  0.9856 -0.1672  0.2057
   11SAPS    HS 1352   3.130   4.983   4.719  0.9104  0.4451 -2.0442
   11SAPS   O21 1353   2.988   5.021   4.867  0.1153 -0.0513 -0.3347
   11SAPS   C21 1354   3.019   4.920   4.951  0.4254 -0.3756 -0.5225
   11SAPS   O22 1355   3.083   4.821   4.921 -0.1400  0.5330  0.1121
   11SAPS   C22 1356   2.964   4.962   5.092 -0.3544 -0.3724 -0.6427
   11SAPS   H2R 1357   2.997   5.068   5.098 -1.2452 -0.0396 -1.4099
   11SAPS   H2S 1358   2.853   4.966   5.098 -0.2751  0.2258  2.3804
   11SAPS    C3 1359   2.980   5.144   4.669 -0.2448  0.3603 -0.4417
   11SAPS    HX 1360   2.870   5.159   4.670 -0.5238 -0.7034 -3.6500
   11SAPS    HY 1361   3.008   5.136   4.562 -0.4965  0.0152 -0.4847
   11SAPS   O31 1362   3.057   5.246   4.734  0.5802 -0.2640 -0.6659
   11SAPS   C31 1363   2.992   5.363   4.771  0.4188 -0.0316 -0.4827
   11SAPS   O32 1364   2.883   5.393   4.742  0.0804  0.0677 -0.1123
   11SAPS   C32 1365   3.086   5.447   4.848  0.2060  0.0239  0.0295
   11SAPS   H2X 1366   3.183   5.450   4.793 -0.3580 -0.2034 -1.0024
   11SAPS   H2Y 1367   3.112   5.412   4.950  1.5553 -0.9552 -0.6099
   11SAPS   C23 1368   3.027   4.878   5.215 -0.0990  0.3200 -0.8541
   11SAPS   H3R 1369   3.132   4.912   5.215 -0.6595  2.4922  2.3868
   11SAPS   H3S 1370   3.007   4.768   5.213  1.0161  0.0185  1.4420
   11SAPS   C24 1371   2.967   4.921   5.343 -0.1541  0.2273 -0.4553
   11SAPS   H4R 1372   2.965   5.032   5.343 -0.6698  0.2437  0.9173
   11SAPS   H4S 1373   3.029   4.886   5.429 -1.1816  1.8694  1.0302
   11SAPS   C25 1374   2.831   4.874   5.357 -0.0633  0.1779  0.1108
   11SAPS   H5R 1375   2.786   4.798   5.291 -0.8937  1.5127 -0.9150
   11SAPS   C26 1376   2.750   4.913   5.464  0.2253  0.1654 -0.0202
   11SAPS   H6R 1377   2.653   4.863   5.479  0.0838  0.6264  0.7133
   11SAPS   C27 1378   2.791   5.007   5.573  0.1291  0.2219 -0.1583
   11SAPS   H7R 1379   2.892   4.981   5.611  0.3052 -1.0912 -1.4354
   11SAPS   H7S 1380   2.710   4.975   5.641  0.5903 -2.4817 -0.7843
   11SAPS   C28 1381   2.778   5.156   5.548 -0.6120 -0.2799  0.2535
   11SAPS   H8R 1382   2.759   5.198   5.448  0.7868  0.0435  0.1044
   11SAPS   C29 1383   2.814   5.242   5.646 -0.2195 -0.6084  0.5474
   11SAPS   H9R 1384   2.801   5.348   5.623  0.0618 -0.6191  0.3249
   11SAPS  C210 1385   2.855   5.212   5.793  0.1366  0.0303 -0.0601
   11SAPS  H10R 1386   2.892   5.303   5.845  0.7737  0.0811 -0.5839
   11SAPS  H10S 1387   2.935   5.137   5.808 -0.4396 -0.2517  1.8740
   11SAPS  C211 1388   2.732   5.171   5.869 -0.3505 -0.4031 -0.7545
   11SAPS  H11R 1389   2.641   5.148   5.812 -2.5425  0.9749  1.9081
   11SAPS  C212 1390   2.714   5.169   6.003  0.0140 -0.6915  0.0655
   11SAPS  H12R 1391   2.623   5.124   6.044 -1.4291  0.0270 -2.1645
   11SAPS  C213 1392   2.829   5.203   6.107 -0.3282 -0.2492  0.3427
   11SAPS  H13R 1393   2.797   5.274   6.186 -1.5598  0.5164 -0.7962
   11SAPS  H13S 1394   2.917   5.254   6.063  0.2070 -2.0077 -0.7630
   11SAPS  C214 1395   2.887   5.076   6.173  0.3635  0.6180 -0.4616
   11SAPS  H14R 1396   2.816   4.992   6.183 -1.3678  2.1652  0.9733
   11SAPS  C215 1397   3.005   5.055   6.231  0.4300  0.5901 -0.1554
   11SAPS  H15R 1398   3.030   4.963   6.285  0.6509  1.0260  0.5136
   11SAPS  C216 1399   3.123   5.144   6.229 -0.4001 -0.6976  0.0738
   11SAPS  H16R 1400   3.087   5.247   6.207  1.3058  0.3257  1.7999
   11SAPS  H16S 1401   3.188   5.115   6.144  3.8006  2.1719  1.9790
   11SAPS  C217 1402   3.209   5.148   6.362 -0.0900 -0.0480  0.9475
   11SAPS  H17R 1403   3.296   5.209   6.331 -1.8574  0.7698 -3.0477
   11SAPS  H17S 1404   3.245   5.046   6.388 -0.4586 -1.2919 -2.8252
   11SAPS  C218 1405   3.141   5.213   6.474 -0.2356  0.2223 -0.1619
   11SAPS  H18R 1406   3.046   5.157   6.488  0.1401 -0.7298 -1.2846
   11SAPS  H18S 1407   3.111   5.310   6.431 -1.0829  0.4020  0.7822
   11SAPS  C219 1408   3.223   5.226   6.602 -0.1010 -0.2454  0.5493
   11SAPS  H19R 1409   3.332   5.243   6.584 -0.5519  1.0815 -1.2753
   11SAPS  H19S 1410   3.218   5.126   6.649  0.8481 -0.1070  0.9728
   11SAPS  C220 1411   3.171   5.333   6.691  0.0305 -0.7073 -0.1539
   11SAPS  H20R 1412   3.226   5.341   6.787  1.2552 -0.4152 -0.8613
   11SAPS  H20S 1413   3.066   5.312   6.724  0.5609  1.5252  3.5543
   11SAPS  H20T 1414   3.175   5.430   6.638  1.3058 -1.4271 -1.4612
   11SAPS   C33 1415   3.032   5.590   4.868 -0.5068 -0.3968 -0.2014
   11SAPS   H3X 1416   3.011   5.640   4.771 -0.3114 -0.8208 -0.4669
   11SAPS   H3Y 1417   3.118   5.647   4.910  0.5952 -3.4559  2.0818
   11SAPS   C34 1418   2.919   5.617   4.974  0.1695 -0.2080  0.2073
   11SAPS   H4X 1419   2.827   5.568   4.935 -0.7863 -0.6298  2.7735
   11SAPS   H4Y 1420   2.889   5.723   4.980 -2.2061 -0.6822 -1.7325
   11SAPS   C35 1421   2.914   5.558   5.115 -0.1276 -0.0633  0.6678
   11SAPS   H5X 1422   3.016   5.577   5.155  0.7681 -1.6399 -0.7361
   11SAPS   H5Y 1423   2.902   5.449   5.100  1.1412 -0.1024 -0.2186
   11SAPS   C36 1424   2.810   5.640   5.209  0.1875 -0.4261  0.0453
   11SAPS   H6X 1425   2.709   5.648   5.162  0.6789  1.5192 -0.7960
   11SAPS   H6Y 1426   2.842   5.747   5.218 -0.8038 -0.2113  1.1743
   11SAPS   C37 1427   2.798   5.592   5.354  0.1360  0.2295  0.5477
   11SAPS   H7X 1428   2.754   5.491   5.361  2.2284 -0.9912 -2.0933
   11SAPS   H7Y 1429   2.730   5.664   5.405 -1.1569  0.2627 -1.1333
   11SAPS   C38 1430   2.928   5.597   5.435 -0.1198 -0.1862 -0.2025
   11SAPS   H8X 1431   2.994   5.678   5.399 -1.6335  0.5988 -1.3117
   11SAPS   H8Y 1432   2.987   5.504   5.424 -1.0225 -0.9240  0.9125
   11SAPS   C39 1433   2.906   5.615   5.583 -0.3841 -0.3575 -0.0926
   11SAPS   H9X 1434   2.851   5.532   5.632 -1.7456  1.2066  1.1677
   11SAPS   H9Y 1435   2.842   5.705   5.598  1.2660  0.4378  3.1806
   11SAPS  C310 1436   3.033   5.666   5.663  0.1661 -0.0026 -0.2229
   11SAPS  H10X 1437   3.100   5.729   5.601  1.5510  1.7030  2.7525
   11SAPS  H10Y 1438   3.086   5.570   5.682  1.5988  0.3841 -1.9830
   11SAPS  C311 1439   3.003   5.727   5.801 -0.4019 -0.3291 -0.4737
   11SAPS  H11X 1440   2.960   5.829   5.791 -1.1040 -0.6801 -1.1665
   11SAPS  H11Y 1441   3.092   5.754   5.861 -2.4125  2.5001  1.4940
   11SAPS  C312 1442   2.908   5.639   5.883 -0.1857 -0.5204  0.1929
   11SAPS  H12X 1443   2.919   5.531   5.856 -0.6621 -0.0643 -2.0237
   11SAPS  H12Y 1444   2.805   5.649   5.840  0.0361 -0.0134 -0.2385
   11SAPS  C313 1445   2.918   5.676   6.037 -0.4770 -0.0320  0.6055
   11SAPS  H13X 1446   2.923   5.784   6.062 -1.7927 -0.2592  1.9882
   11SAPS  H13Y 1447   3.016   5.635   6.069 -0.3111 -0.6741 -0.6509
   11SAPS  C314 1448   2.818   5.602   6.122 -0.2333  0.3505  1.0690
   11SAPS  H14X 1449   2.813   5.497   6.085 -1.4124  1.1525 -1.2503
   11SAPS  H14Y 1450   2.721   5.646   6.090  0.7956  1.1917 -1.1193
   11SAPS  C315 1451   2.853   5.609   6.269  0.1307 -0.3310  0.1915
   11SAPS  H15X 1452   2.889   5.709   6.301  1.8961  0.3854 -3.4972
   11SAPS  H15Y 1453   2.948   5.554   6.288 -0.5376 -0.6238  3.2394
   11SAPS  C316 1454   2.744   5.560   6.358  0.0845 -0.6986 -0.4054
   11SAPS  H16X 1455   2.788   5.557   6.460  4.1710  1.8168 -1.8649
   11SAPS  H16Y 1456   2.722   5.453   6.338 -0.8323 -0.2878 -1.7425
   11SAPS  C317 1457   2.617   5.638   6.359 -0.5603 -0.1818  0.0495
   11SAPS  H17X 1458   2.557   5.598   6.274 -0.2761  0.5822 -0.5239
   11SAPS  H17Y 1459   2.637   5.741   6.322  1.5305 -0.6745 -0.3173
   11SAPS  C318 1460   2.543   5.646   6.493  0.7584  0.2064 -0.3780
   11SAPS  H18X 1461   2.448   5.702   6.476  0.6343  0.1720  0.1921
   11SAPS  H18Y 1462   2.603   5.706   6.565 -0.4692 -1.0177  1.7701
   11SAPS  H18Z 1463   2.528   5.543   6.532  0.0542  0.0383 -1.0736
   12SAPS     N 1464   1.921   6.233   4.220  0.5467 -0.7298 -0.2495
   12SAPS   HN1 1465   1.973   6.322   4.234  2.3507 -2.2420  4.1336
   12SAPS   HN2 1466   1.863   6.229   4.305 -2.0510  2.1034 -1.7077
   12SAPS   HN3 1467   1.993   6.158   4.213  0.3827 -0.9562  0.4445
   12SAPS   C12 1468   1.838   6.207   4.101  0.4186 -0.3459  0.3792
   12SAPS  H12A 1469   1.765   6.287   4.089  2.0901  1.4405  1.4852
   12SAPS   C13 1470   1.908   6.203   3.967 -0.4044  0.1760 -0.9684
   12SAPS  O13A 1471   2.033   6.213   3.958 -0.6059 -0.1579  0.3390
   12SAPS  O13B 1472   1.836   6.184   3.862  0.2350  0.1598 -0.0658
   12SAPS   C11 1473   1.756   6.073   4.110 -0.0834  0.1268 -0.0637
   12SAPS  H11A 1474   1.830   5.993   4.134  1.2292  0.9667 -1.1824
   12SAPS  H11B 1475   1.694   6.046   4.022  0.8562  1.4155 -1.1559
   12SAPS     P 1476   1.667   5.985   4.340  0.0490  0.5041 -0.2894
   12SAPS   O13 1477   1.590   6.035   4.454 -0.2718 -0.3854 -0.1909
   12SAPS   O14 1478   1.621   5.854   4.291  0.6580  0.7011 -0.0010
   12SAPS   O12 1479   1.670   6.084   4.220 -0.7550  0.2645 -0.7799
   12SAPS   O11 1480   1.814   5.977   4.384 -0.6739 -0.5587 -0.1061
   12SAPS    C1 1481   1.882   5.849   4.418  0.0154 -0.0780 -0.4351
   12SAPS    HA 1482   1.822   5.762   4.383  1.9240 -2.5608  2.0034
   12SAPS    HB 1483   1.983   5.843   4.373 -0.4245 -1.6860 -1.2650
   12SAPS    C2 1484   1.890   5.829   4.568  0.1768 -0.1947 -1.0018
   12SAPS    HS 1485   1.951   5.740   4.593  1.3948  1.2118  1.5006
   12SAPS   O21 1486   1.755   5.820   4.625  0.3932  0.3416  0.1791
   12SAPS   C21 1487   1.694   5.696   4.615 -0.3353  0.2212  0.7379
   12SAPS   O22 1488   1.746   5.596   4.565  0.2591 -0.1578  0.0281
   12SAPS   C22 1489   1.552   5.709   4.672 -0.3613  0.2311 -0.4462
   12SAPS   H2R 1490   1.552   5.771   4.765 -0.2280  0.8423 -0.8467
   12SAPS   H2S 1491   1.500   5.770   4.595 -2.1334 -3.2513 -2.2399
   12SAPS    C3 1492   1.958   5.956   4.639  0.5321 -0.3078  0.0185
   12SAPS    HX 1493   1.900   6.047   4.615 -0.0402  0.1162  2.7292
   12SAPS    HY 1494   2.058   5.967   4.591  0.4563 -3.0169 -0.9202
   12SAPS   O31 1495   1.977   5.926   4.776  0.5866  0.0386 -0.2492
   12SAPS   C31 1496   1.879   5.974   4.857 -0.4195  0.9876 -0.1987
   12SAPS   O32 1497   1.803   6.066   4.823  0.2665 -0.1008 -0.0376
   12SAPS   C32 1498   1.879   5.903   4.983 -0.3549  0.1328 -0.0758
   12SAPS   H2X 1499   1.784   5.943   5.025 -0.8604  0.4733 -1.4904
   12SAPS   H2Y 1500   1.961   5.933   5.052 -0.0040 -1.8281  0.4190
   12SAPS   C23 1501   1.480   5.576   4.679 -0.6239 -0.5689  0.3442
   12SAPS   H3R 1502   1.504   5.526   4.583  0.1769 -0.9075  0.7112
   12SAPS   H3S 1503   1.372   5.598   4.694 -0.9864 -1.0178 -1.3898
   12SAPS   C24 1504   1.530   5.493   4.796 -0.1471 -0.3082 -0.1858
   12SAPS   H4R 1505   1.540   5.557   4.886  0.9521 -1.4004  0.5079
   12SAPS   H4S 1506   1.637   5.472   4.772  0.2686  1.2223  0.2496
   12SAPS   C25 1507   1.470   5.357   4.830 -0.2611  0.1466  0.0468
   12SAPS   H5R 1508   1.476   5.288   4.745  0.1720 -0.0966  0.2770
   12SAPS   C26 1509   1.397   5.324   4.939 -0.2587  0.8924  0.0546
   12SAPS   H6R 1510   1.372   5.218   4.958  0.6027  0.6947  0.1314
   12SAPS   C27 1511   1.371   5.421   5.051  0.2240  0.0109 -0.6344
   12SAPS   H7R 1512   1.353   5.521   5.006 -0.3215 -1.1459 -3.1017
   12SAPS   H7S 1513   1.453   5.435   5.125 -0.2538  1.2285 -0.3090
   12SAPS   C28 1514   1.241   5.378   5.127 -0.3178  0.1277 -0.3384
   12SAPS   H8R 1515   1.155   5.347   5.065 -0.3455 -0.8713  0.1715
   12SAPS   C29 1516   1.221   5.382   5.261 -0.4535 -0.1035  0.6366
   12SAPS   H9R 1517   1.127   5.346   5.305 -0.0252 -2.2488 -0.0706
   12SAPS  C210 1518   1.318   5.418   5.363  0.2624 -0.5432  0.2993
   12SAPS  H10R 1519   1.426   5.415   5.337  0.9813  0.5929  2.7694
   12SAPS  H10S 1520   1.313   5.342   5.444 -0.6187  0.5612  1.3247
   12SAPS  C211 1521   1.292   5.558   5.427 -0.3934 -0.1697  0.1654
   12SAPS  H11R 1522   1.321   5.640   5.359  1.3348 -1.9282 -1.3226
   12SAPS  C212 1523   1.271   5.579   5.557  1.0782  0.1254 -0.0171
   12SAPS  H12R 1524   1.246   5.681   5.591 -1.3505 -0.4383  0.0632
   12SAPS  C213 1525   1.257   5.463   5.656 -0.0487 -0.1604  0.2272
   12SAPS  H13R 1526   1.191   5.381   5.622 -1.7534  1.1111  0.3500
   12SAPS  H13S 1527   1.204   5.502   5.746  1.7573  0.8030  0.9443
   12SAPS  C214 1528   1.389   5.389   5.692  0.4440 -0.3957 -0.3691
   12SAPS  H14R 1529   1.479   5.441   5.654  0.6449  0.3644  1.0712
   12SAPS  C215 1530   1.403   5.290   5.779 -0.1053 -0.2504 -0.0168
   12SAPS  H15R 1531   1.500   5.237   5.787  1.1986  2.0118  0.0049
   12SAPS  C216 1532   1.291   5.232   5.859 -0.0129  0.5295  0.0914
   12SAPS  H16R 1533   1.252   5.135   5.819 -1.3849  0.9220  0.4097
   12SAPS  H16S 1534   1.199   5.293   5.870 -2.5675 -2.1512 -3.7178
   12SAPS  C217 1535   1.352   5.202   5.994 -0.6246  0.0837 -0.2409
   12SAPS  H17R 1536   1.387   5.299   6.034 -2.5767  0.5637  0.4304
   12SAPS  H17S 1537   1.433   5.126   5.991 -2.2210 -1.7363  0.4469
   12SAPS  C218 1538   1.238   5.156   6.094 -0.3618 -0.3150 -0.1350
   12SAPS  H18R 1539   1.183   5.074   6.043  0.1191 -1.0671  0.5406
   12SAPS  H18S 1540   1.176   5.246   6.114  0.7810  0.4839 -0.1419
   12SAPS  C219 1541   1.281   5.107   6.230 -0.2517 -0.2299  0.1764
   12SAPS  H19R 1542   1.339   5.193   6.271 -0.2091  0.2666 -0.8930
   12SAPS  H19S 1543   1.350   5.021   6.219  0.1390 -0.0768  1.2419
   12SAPS  C220 1544   1.165   5.058   6.331 -0.3013 -0.2312 -0.6213
   12SAPS  H20R 1545   1.134   4.968   6.273  2.3078  1.0147 -4.3301
   12SAPS  H20S 1546   1.081   5.130   6.333 -0.6255 -0.5000  3.2353
   12SAPS  H20T 1547   1.209   5.030   6.429  0.4094  0.2943 -0.7827
   12SAPS   C33 1548   1.868   5.753   4.972 -0.1487  0.1941 -0.2926
   12SAPS   H3X 1549   1.954   5.710   4.916  0.6364  1.0110  0.2633
   12SAPS   H3Y 1550   1.784   5.713   4.912 -0.2146 -0.1641  0.0365
   12SAPS   C34 1551   1.860   5.674   5.110 -0.9301  0.0665  0.2627
   12SAPS   H4X 1552   1.931   5.725   5.179 -1.1542 -0.1825  0.6818
   12SAPS   H4Y 1553   1.892   5.568   5.100 -0.5716  0.2469 -0.6565
   12SAPS   C35 1554   1.721   5.670   5.175 -0.0911 -0.1424 -0.3379
   12SAPS   H5X 1555   1.642   5.636   5.105 -0.6595 -1.0159  0.6892
   12SAPS   H5Y 1556   1.704   5.770   5.219 -1.6222  0.0583 -1.3033
   12SAPS   C36 1557   1.718   5.560   5.288 -0.3754  0.1447  0.4923
   12SAPS   H6X 1558   1.721   5.470   5.225 -0.9321  0.6007 -0.1957
   12SAPS   H6Y 1559   1.621   5.574   5.340 -1.2220 -1.1087 -0.7169
   12SAPS   C37 1560   1.831   5.560   5.401  1.0061  0.0221  0.4121
   12SAPS   H7X 1561   1.928   5.550   5.347  2.1086 -0.9843  2.4866
   12SAPS   H7Y 1562   1.803   5.474   5.466 -2.3650  1.7628  1.5090
   12SAPS   C38 1563   1.842   5.684   5.486  0.5284  0.5666  0.2320
   12SAPS   H8X 1564   1.851   5.773   5.420  0.5874  0.8688  0.6441
   12SAPS   H8Y 1565   1.924   5.679   5.561 -0.0893 -0.9555  0.8443
   12SAPS   C39 1566   1.720   5.702   5.575 -0.6472  0.2275  1.0887
   12SAPS   H9X 1567   1.628   5.697   5.512 -2.1557 -1.0977  3.2478
   12SAPS   H9Y 1568   1.735   5.806   5.613 -1.0024  0.3915  0.7890
   12SAPS  C310 1569   1.704   5.596   5.677  0.0831  0.0980 -0.1522
   12SAPS  H10X 1570   1.658   5.504   5.636 -0.7767  0.1831  0.5945
   12SAPS  H10Y 1571   1.623   5.633   5.744  0.8673 -0.1734  0.9643
   12SAPS  C311 1572   1.828   5.541   5.744  0.2078 -0.0122 -0.2245
   12SAPS  H11X 1573   1.878   5.609   5.816  0.1765  0.2162 -0.4193
   12SAPS  H11Y 1574   1.900   5.489   5.678  0.1365 -2.2723  1.3553
   12SAPS  C312 1575   1.785   5.436   5.853  0.5005 -1.3938  0.1071
   12SAPS  H12X 1576   1.725   5.354   5.807 -1.9118  0.4549 -0.2184
   12SAPS  H12Y 1577   1.707   5.488   5.912  0.7887 -0.0224 -0.6837
   12SAPS  C313 1578   1.905   5.377   5.937 -0.4730  0.5243 -0.2954
   12SAPS  H13X 1579   1.974   5.460   5.964  3.0419 -1.2068 -3.2504
   12SAPS  H13Y 1580   1.954   5.318   5.857 -0.3705  1.5321 -0.9972
   12SAPS  C314 1581   1.860   5.280   6.046 -0.2513 -0.9912  0.0582
   12SAPS  H14X 1582   1.945   5.218   6.081  0.9672  0.0225 -0.9938
   12SAPS  H14Y 1583   1.794   5.206   5.998 -1.7774  0.2371  0.1991
   12SAPS  C315 1584   1.789   5.352   6.163 -0.2450 -0.1088  0.3996
   12SAPS  H15X 1585   1.727   5.441   6.137 -0.8500 -0.9949 -1.3492
   12SAPS  H15Y 1586   1.873   5.388   6.227 -0.3844 -1.8493  1.6002
   12SAPS  C316 1587   1.690   5.260   6.237  0.1559  0.3518  0.2477
   12SAPS  H16X 1588   1.726   5.155   6.241 -1.4057 -0.1947  0.3567
   12SAPS  H16Y 1589   1.594   5.256   6.183 -0.0780 -1.0690  0.7176
   12SAPS  C317 1590   1.669   5.316   6.377 -0.1083 -0.3570 -0.2739
   12SAPS  H17X 1591   1.623   5.417   6.364  1.8431  0.3325 -2.5860
   12SAPS  H17Y 1592   1.765   5.333   6.429 -0.7773  1.9407  0.3241
   12SAPS  C318 1593   1.595   5.230   6.481 -0.4896 -0.7675 -0.2406
   12SAPS  H18X 1594   1.590   5.280   6.580 -1.0407  1.1715 -1.1949
   12SAPS  H18Y 1595   1.636   5.128   6.494  1.5020 -0.0623 -0.7118
   12SAPS  H18Z 1596   1.493   5.221   6.437 -0.8092 -2.5474  0.7780
   13SAPS     N 1597   0.216   3.126   4.505  1.1630 -0.2917  0.1178
   13SAPS   HN1 1598   0.314   3.094   4.519  1.7244  0.9101 -0.8918
   13SAPS   HN2 1599   0.187   3.159   4.599  1.9323  1.2548 -0.1714
   13SAPS   HN3 1600   0.144   3.055   4.479 -2.1202  2.1831  1.6939
   13SAPS   C12 1601   0.197   3.243   4.411 -0.3748 -0.1584 -0.1820
   13SAPS  H12A 1602   0.247   3.221   4.318  1.7844  1.0110  0.6287
   13SAPS   C13 1603   0.052   3.279   4.389  0.1142 -0.4591 -0.3019
   13SAPS  O13A 1604  -0.041   3.216   4.449 -0.1270 -0.2312  0.3435
   13SAPS  O13B 1605   0.017   3.368   4.303 -0.5299  0.3467  0.0084
   13SAPS   C11 1606   0.269   3.364   4.473  0.1900 -0.9350  0.1348
   13SAPS  H11A 1607   0.237   3.375   4.579 -3.1440 -2.5921 -0.5766
   13SAPS  H11B 1608   0.223   3.458   4.436  0.9497 -0.8957 -0.7575
   13SAPS     P 1609   0.512   3.453   4.523  0.1205  0.2651 -0.0762
   13SAPS   O13 1610   0.649   3.391   4.516  0.6057  0.5516 -0.4684
   13SAPS   O14 1611   0.496   3.573   4.445 -0.0609 -0.2190 -0.5238
   13SAPS   O12 1612   0.409   3.337   4.464  0.1138 -0.3792  0.1366
   13SAPS   O11 1613   0.475   3.474   4.674 -0.3471 -0.3860  0.1373
   13SAPS    C1 1614   0.494   3.375   4.770 -0.0308  0.2346 -0.1675
   13SAPS    HA 1615   0.425   3.289   4.754  0.6945 -0.3317 -0.2902
   13SAPS    HB 1616   0.602   3.348   4.768  0.5425  2.2997  0.1520
   13SAPS    C2 1617   0.490   3.441   4.909  0.4278  0.6154  0.0115
   13SAPS    HS 1618   0.383   3.459   4.934  0.7076  0.7645  1.1362
   13SAPS   O21 1619   0.560   3.566   4.904 -0.2492 -0.3956 -0.1174
   13SAPS   C21 1620   0.517   3.658   4.988  1.1995  0.5644 -0.9791
   13SAPS   O22 1621   0.415   3.655   5.056  0.0524  1.0216  0.3622
   13SAPS   C22 1622   0.600   3.791   4.969 -0.9512 -0.0611  0.7897
   13SAPS   H2R 1623   0.584   3.827   4.865 -0.0158 -1.8264 -0.0230
   13SAPS   H2S 1624   0.558   3.864   5.041 -2.5257  0.9502 -1.0632
   13SAPS    C3 1625   0.547   3.360   5.028  0.5784 -0.0288 -0.7290
   13SAPS    HX 1626   0.657   3.376   5.027  0.6737  0.0860  2.1899
   13SAPS    HY 1627   0.525   3.252   5.018 -1.5643  0.0479  2.0166
   13SAPS   O31 1628   0.505   3.401   5.161 -0.3699  0.1991 -0.6591
   13SAPS   C31 1629   0.386   3.366   5.203 -0.4438 -0.0720  0.1156
   13SAPS   O32 1630   0.320   3.267   5.165 -0.0326 -0.6836  0.3652
   13SAPS   C32 1631   0.339   3.466   5.306  0.9858  0.4428 -0.0661
   13SAPS   H2X 1632   0.286   3.551   5.257 -1.0675 -0.5225  0.3900
   13SAPS   H2Y 1633   0.431   3.516   5.343  1.7965 -0.7048 -0.4771
   13SAPS   C23 1634   0.752   3.782   4.998  0.1577  0.3971 -0.1101
   13SAPS   H3R 1635   0.801   3.872   4.955  0.0345 -0.0263 -1.1448
   13SAPS   H3S 1636   0.798   3.690   4.957 -0.8233 -0.3480  0.3923
   13SAPS   C24 1637   0.791   3.797   5.148  0.1187  0.4111  0.7495
   13SAPS   H4R 1638   0.732   3.886   5.180 -0.9770  0.6344 -1.6491
   13SAPS   H4S 1639   0.898   3.814   5.170  0.3096  1.1318 -0.6390
   13SAPS   C25 1640   0.758   3.668   5.224  0.7921 -0.2041 -0.1542
   13SAPS   H5R 1641   0.763   3.570   5.174  0.1735 -0.5095  0.3787
   13SAPS   C26 1642   0.705   3.667   5.346  0.5585 -0.2459 -1.0335
   13SAPS   H6R 1643   0.668   3.568   5.378 -1.9736  1.1165  0.4913
   13SAPS   C27 1644   0.690   3.778   5.441 -0.6574  0.0650 -0.5869
   13SAPS   H7R 1645   0.742   3.870   5.409 -0.5858  0.9263  1.8136
   13SAPS   H7S 1646   0.750   3.761   5.533  0.3305  4.1210 -0.3168
   13SAPS   C28 1647   0.547   3.812   5.482  0.2625  0.1222 -0.0138
   13SAPS   H8R 1648   0.474   3.820   5.400 -0.8920 -0.3410  0.9404
   13SAPS   C29 1649   0.497   3.820   5.608 -0.3371 -0.1466 -0.1128
   13SAPS   H9R 1650   0.389   3.836   5.624 -0.4190 -0.3582 -0.4407
   13SAPS  C210 1651   0.570   3.806   5.742  0.7422  0.5718 -0.7790
   13SAPS  H10R 1652   0.516   3.862   5.822 -0.5760 -0.9768 -0.5273
   13SAPS  H10S 1653   0.670   3.852   5.730  0.1291  2.3925  0.4702
   13SAPS  C211 1654   0.575   3.661   5.784 -0.4712  0.1718  0.6887
   13SAPS  H11R 1655   0.607   3.591   5.705  0.1602  0.8159  0.3592
   13SAPS  C212 1656   0.559   3.610   5.908 -0.5590 -0.0235 -0.6214
   13SAPS  H12R 1657   0.575   3.502   5.922  0.6730  0.1832 -0.3074
   13SAPS  C213 1658   0.510   3.679   6.037  0.0319 -1.0472  0.2231
   13SAPS  H13R 1659   0.436   3.752   5.999  1.2423 -0.0263 -0.2629
   13SAPS  H13S 1660   0.587   3.736   6.093  0.2148 -1.1493  0.0797
   13SAPS  C214 1661   0.434   3.584   6.131 -0.4442  0.2800  0.3085
   13SAPS  H14R 1662   0.349   3.535   6.082 -1.2954  2.1244 -0.1579
   13SAPS  C215 1663   0.437   3.568   6.262  0.0550  0.4916  0.4048
   13SAPS  H15R 1664   0.373   3.490   6.304  0.5795 -0.2128 -0.0754
   13SAPS  C216 1665   0.538   3.626   6.359 -0.1065  0.0354 -0.7994
   13SAPS  H16R 1666   0.606   3.701   6.312 -0.5302  1.0889  0.2331
   13SAPS  H16S 1667   0.613   3.553   6.397  0.3349 -0.6526 -2.8658
   13SAPS  C217 1668   0.487   3.707   6.481  0.9001 -0.4471  0.1827
   13SAPS  H17R 1669   0.435   3.799   6.444  0.2190 -0.7800  0.2936
   13SAPS  H17S 1670   0.573   3.733   6.547 -0.8787 -1.1132  2.9432
   13SAPS  C218 1671   0.370   3.644   6.555  0.9596 -0.0349  0.0929
   13SAPS  H18R 1672   0.275   3.623   6.500 -0.9613  2.4828  2.1951
   13SAPS  H18S 1673   0.335   3.704   6.641 -1.7921 -1.9416  0.4374
   13SAPS  C219 1674   0.420   3.516   6.632  0.1016 -0.1641  0.2342
   13SAPS  H19R 1675   0.506   3.546   6.695 -0.1066  0.4535  0.2315
   13SAPS  H19S 1676   0.462   3.440   6.563 -0.4426 -1.5494  1.3728
   13SAPS  C220 1677   0.312   3.441   6.712  0.0877 -0.6707 -0.7032
   13SAPS  H20R 1678   0.259   3.516   6.774  1.8956  1.1354 -1.2065
   13SAPS  H20S 1679   0.363   3.362   6.770 -0.8644 -0.6883  0.1373
   13SAPS  H20T 1680   0.243   3.390   6.642  0.8732  1.0983 -2.8909
   13SAPS   C33 1681   0.270   3.397   5.420  0.1656  0.1129 -0.0655
   13SAPS   H3X 1682   0.307   3.295   5.443  1.7716  0.7376  0.2910
   13SAPS   H3Y 1683   0.163   3.383   5.396 -0.1327 -1.9754  2.0573
   13SAPS   C34 1684   0.270   3.485   5.545  0.2078 -0.2193  0.2793
   13SAPS   H4X 1685   0.278   3.590   5.507 -1.1479  0.3128  1.4092
   13SAPS   H4Y 1686   0.361   3.472   5.607 -0.0628  2.9360  1.5464
   13SAPS   C35 1687   0.143   3.471   5.624  0.1161 -0.2067 -0.4004
   13SAPS   H5X 1688   0.142   3.368   5.667 -0.2487 -1.5975 -3.4854
   13SAPS   H5Y 1689   0.050   3.477   5.564 -0.5743 -0.9294  0.5594
   13SAPS   C36 1690   0.139   3.571   5.740 -0.7663  0.1731 -0.3119
   13SAPS   H6X 1691   0.133   3.667   5.685  0.7568  0.5309  0.0828
   13SAPS   H6Y 1692   0.231   3.554   5.801  0.0430 -0.8451 -1.7732
   13SAPS   C37 1693   0.013   3.549   5.825  0.0972  0.3857  0.1803
   13SAPS   H7X 1694  -0.031   3.448   5.809 -0.0444  0.5816 -0.7145
   13SAPS   H7Y 1695  -0.066   3.616   5.784  0.6998 -0.6906 -3.0140
   13SAPS   C38 1696   0.034   3.579   5.974 -0.0636  0.1476  0.7426
   13SAPS   H8X 1697   0.094   3.672   5.973 -1.7744  1.3812 -2.5436
   13SAPS   H8Y 1698   0.090   3.492   6.013  1.6566  1.2984  0.9625
   13SAPS   C39 1699  -0.089   3.631   6.045 -0.3652  0.4358 -0.1526
   13SAPS   H9X 1700  -0.164   3.550   6.056  0.5756 -0.9368 -2.8229
   13SAPS   H9Y 1701  -0.133   3.706   5.975 -0.1475  0.4445 -0.2828
   13SAPS  C310 1702  -0.057   3.711   6.177  0.1377 -0.2265  0.5004
   13SAPS  H10X 1703  -0.154   3.741   6.223  0.9462 -0.2262  2.2862
   13SAPS  H10Y 1704   0.013   3.795   6.158  0.4384 -0.7649 -0.9688
   13SAPS  C311 1705   0.002   3.616   6.280 -0.4086 -0.3534  0.1057
   13SAPS  H11X 1706   0.112   3.626   6.270 -0.1756 -1.2228  1.6244
   13SAPS  H11Y 1707  -0.043   3.515   6.287 -1.1798 -0.0363 -0.1130
   13SAPS  C312 1708  -0.032   3.666   6.425  0.1477  0.4317 -0.2117
   13SAPS  H12X 1709  -0.012   3.585   6.498 -4.2245  0.5096  1.3912
   13SAPS  H12Y 1710  -0.142   3.682   6.427  0.1226  0.3324 -0.7588
   13SAPS  C313 1711   0.043   3.788   6.481  0.1874 -0.6598  0.0119
   13SAPS  H13X 1712   0.012   3.885   6.437  0.7593 -0.7433 -0.5829
   13SAPS  H13Y 1713   0.153   3.788   6.466  0.2534  0.5392  0.4430
   13SAPS  C314 1714   0.024   3.793   6.638  0.4937  0.1479 -0.2457
   13SAPS  H14X 1715   0.092   3.865   6.688  2.5944 -2.0524  0.3172
   13SAPS  H14Y 1716   0.063   3.694   6.673  0.7905  1.1070  2.3632
   13SAPS  C315 1717  -0.127   3.808   6.690 -0.8759 -0.1726 -0.2669
   13SAPS  H15X 1718  -0.130   3.805   6.801 -0.8130  1.6945 -0.1866
   13SAPS  H15Y 1719  -0.194   3.728   6.652 -0.8022 -1.0069  1.2876
   13SAPS  C316 1720  -0.175   3.947   6.659  0.4619  0.2430 -0.0076
   13SAPS  H16X 1721  -0.148   3.970   6.554 -0.2795  2.2946  0.2087
   13SAPS  H16Y 1722  -0.122   4.024   6.719  2.1494 -0.2212 -0.8413
   13SAPS  C317 1723  -0.325   3.960   6.683  0.5921 -0.0204 -0.3951
   13SAPS  H17X 1724  -0.341   3.953   6.793 -1.3070 -2.9733 -0.7449
   13SAPS  H17Y 1725  -0.379   3.874   6.637  3.0470 -1.2644 -1.1108
   13SAPS  C318 1726  -0.372   4.097   6.633  0.5654  0.1400 -0.1570
   13SAPS  H18X 1727  -0.482   4.113   6.643  0.5480 -0.1560  0.1375
   13SAPS  H18Y 1728  -0.344   4.117   6.527  0.0278  0.1869 -0.2954
   13SAPS  H18Z 1729  -0.339   4.183   6.694 -2.7612  0.9695  0.6827
   14SAPS     N 1730   6.707   3.010   4.480  0.1368  0.3962 -0.4470
   14SAPS   HN1 1731   6.782   3.078   4.457  0.1017  0.6290  0.0976
   14SAPS   HN2 1732   6.684   2.984   4.382  1.7766 -1.1441 -0.4665
   14SAPS   HN3 1733   6.623   3.057   4.519  1.4674  0.9973  1.9146
   14SAPS   C12 1734   6.763   2.906   4.573 -0.4538 -0.4289  0.1452
   14SAPS  H12A 1735   6.707   2.816   4.553 -0.8559 -0.4618  1.3150
   14SAPS   C13 1736   6.912   2.869   4.552  0.1494 -0.3861 -0.7842
   14SAPS  O13A 1737   6.967   2.904   4.439 -0.6557  0.0365  0.6105
   14SAPS  O13B 1738   6.973   2.797   4.637  0.4373  0.1949  0.1892
   14SAPS   C11 1739   6.731   2.937   4.722 -0.2158 -0.2610  0.7464
   14SAPS  H11A 1740   6.771   3.036   4.752  1.8628 -0.6313 -0.5647
   14SAPS  H11B 1741   6.794   2.869   4.783 -3.5950 -0.6968  4.0775
   14SAPS     P 1742   6.473   3.022   4.742 -0.0666 -0.0435  0.7327
   14SAPS   O13 1743   6.490   3.093   4.617 -0.1882 -0.7005  0.1916
   14SAPS   O14 1744   6.348   2.941   4.745  0.5107 -0.0530  0.2203
   14SAPS   O12 1745   6.595   2.922   4.762  0.2067 -0.3023  0.5219
   14SAPS   O11 1746   6.481   3.139   4.852 -0.0753  0.6362  0.4389
   14SAPS    C1 1747   6.562   3.120   4.969  0.7600  0.4208 -1.0157
   14SAPS    HA 1748   6.664   3.078   4.953  1.7331  0.6245  3.3970
   14SAPS    HB 1749   6.584   3.222   5.008  0.1203 -0.1872  1.0660
   14SAPS    C2 1750   6.480   3.064   5.089 -0.0398 -0.4463 -0.0521
   14SAPS    HS 1751   6.549   3.080   5.175 -0.5206  0.2832  0.2088
   14SAPS   O21 1752   6.455   2.925   5.067 -0.2145  0.2809  0.1983
   14SAPS   C21 1753   6.556   2.836   5.065 -0.2583  0.2732  0.2842
   14SAPS   O22 1754   6.675   2.860   5.072  0.1913 -0.2179  0.9555
   14SAPS   C22 1755   6.500   2.694   5.085  0.6942 -0.1875  0.0453
   14SAPS   H2R 1756   6.479   2.665   4.980  0.1181  0.9465 -0.1705
   14SAPS   H2S 1757   6.583   2.630   5.122 -1.7610 -2.9150  1.2101
   14SAPS    C3 1758   6.351   3.148   5.120 -0.7492 -0.4698  0.1120
   14SAPS    HX 1759   6.301   3.154   5.021  0.1613  1.7902 -0.2802
   14SAPS    HY 1760   6.373   3.254   5.145 -1.4569 -0.6149  1.4723
   14SAPS   O31 1761   6.273   3.095   5.229  0.1808 -0.4218 -0.1840
   14SAPS   C31 1762   6.160   3.033   5.200 -0.0372  0.5950  0.0296
   14SAPS   O32 1763   6.132   2.979   5.093  0.4051  0.4102  0.6150
   14SAPS   C32 1764   6.067   3.009   5.326 -0.0906  0.2706  0.1797
   14SAPS   H2X 1765   6.080   3.091   5.400 -3.4423  1.7009 -0.6257
   14SAPS   H2Y 1766   6.097   2.914   5.376 -3.1785  0.0604  1.9412
   14SAPS   C23 1767   6.371   2.680   5.176 -0.1017 -0.4076 -0.4497
   14SAPS   H3R 1768   6.332   2.577   5.162  0.5126 -0.9884  1.6745
   14SAPS   H3S 1769   6.300   2.757   5.139  1.3946  1.2775  0.0305
   14SAPS   C24 1770   6.389   2.689   5.326 -0.4314 -0.0846 -0.3651
   14SAPS   H4R 1771   6.450   2.605   5.367 -0.8652  1.3166  3.6087
   14SAPS   H4S 1772   6.295   2.660   5.378 -1.0096  1.8308 -0.2818
   14SAPS   C25 1773   6.423   2.823   5.376 -0.0078 -0.1636 -0.8714
   14SAPS   H5R 1774   6.457   2.897   5.302 -0.9006  2.0187  0.7887
   14SAPS   C26 1775   6.386   2.859   5.497 -0.2631  0.2466 -0.5735
   14SAPS   H6R 1776   6.411   2.963   5.523  2.1980 -0.3829 -0.1580
   14SAPS   C27 1777   6.322   2.775   5.609 -0.0945  0.2658  0.1866
   14SAPS   H7R 1778   6.243   2.708   5.568  1.0042  0.3577 -2.2360
   14SAPS   H7S 1779   6.272   2.848   5.676 -1.1919  1.5871 -1.9530
   14SAPS   C28 1780   6.437   2.705   5.677 -0.2331 -0.2428 -0.4810
   14SAPS   H8R 1781   6.530   2.756   5.707  0.1250 -0.4772 -1.1706
   14SAPS   C29 1782   6.424   2.587   5.722 -0.5609  0.6121 -0.1308
   14SAPS   H9R 1783   6.512   2.538   5.766 -0.3711  2.1403  1.2745
   14SAPS  C210 1784   6.306   2.494   5.701  0.8971 -0.1878  0.1426
   14SAPS  H10R 1785   6.258   2.513   5.603  1.9369  0.3017 -0.2833
   14SAPS  H10S 1786   6.231   2.530   5.775  0.8342 -0.9121  0.4347
   14SAPS  C211 1787   6.346   2.350   5.735  0.0553  0.1135 -0.2134
   14SAPS  H11R 1788   6.433   2.313   5.680  1.2342  3.2273 -0.6145
   14SAPS  C212 1789   6.271   2.265   5.812 -0.5116  0.8583  0.0783
   14SAPS  H12R 1790   6.321   2.168   5.830  0.6868  1.4009 -0.1901
   14SAPS  C213 1791   6.144   2.298   5.883 -0.7691 -0.5075 -0.2148
   14SAPS  H13R 1792   6.058   2.302   5.813 -1.5829 -2.4098  0.6031
   14SAPS  H13S 1793   6.151   2.390   5.945 -0.2115  0.3453 -1.5032
   14SAPS  C214 1794   6.098   2.176   5.955  0.2842  0.0101  0.2212
   14SAPS  H14R 1795   6.133   2.080   5.916 -0.6232  0.6064 -2.2770
   14SAPS  C215 1796   6.019   2.174   6.062 -0.3483 -0.7681 -1.0038
   14SAPS  H15R 1797   5.984   2.083   6.113 -3.1994  0.9130  0.2983
   14SAPS  C216 1798   5.951   2.295   6.118  0.3415  0.0082  0.1629
   14SAPS  H16R 1799   5.846   2.268   6.093  0.3889  0.9434 -1.1687
   14SAPS  H16S 1800   5.981   2.394   6.078  0.9736 -0.2273  0.0473
   14SAPS  C217 1801   5.972   2.299   6.276 -0.2584  0.0352  0.0853
   14SAPS  H17R 1802   5.928   2.204   6.315  0.9142 -0.8013 -0.5622
   14SAPS  H17S 1803   5.914   2.386   6.313  0.2873  0.7527 -0.7130
   14SAPS  C218 1804   6.111   2.325   6.319 -0.6868 -0.4452 -0.1198
   14SAPS  H18R 1805   6.133   2.429   6.286 -1.3598  0.0048  0.8163
   14SAPS  H18S 1806   6.169   2.243   6.271  0.2460  0.8970 -1.3743
   14SAPS  C219 1807   6.131   2.325   6.468  0.5181  0.2433 -0.0547
   14SAPS  H19R 1808   6.066   2.241   6.500 -1.4230  2.2573  1.7190
   14SAPS  H19S 1809   6.085   2.417   6.511  1.6789  0.0569  1.6738
   14SAPS  C220 1810   6.275   2.315   6.514 -0.1796 -0.7254 -0.6142
   14SAPS  H20R 1811   6.265   2.302   6.623 -3.4150 -4.6119 -1.1725
   14SAPS  H20S 1812   6.331   2.407   6.485  0.6160 -0.8234  0.5866
   14SAPS  H20T 1813   6.335   2.225   6.490  1.0951 -0.7142  2.1998
   14SAPS   C33 1814   5.924   3.001   5.293 -0.1532  0.4678 -0.4518
   14SAPS   H3X 1815   5.914   2.931   5.207  1.4727 -3.7629  2.4852
   14SAPS   H3Y 1816   5.891   3.106   5.279 -1.8089  0.2774  1.5725
   14SAPS   C34 1817   5.835   2.950   5.403 -0.0557 -0.7577 -0.3932
   14SAPS   H4X 1818   5.728   2.950   5.371 -1.6590  7.1227  2.7161
   14SAPS   H4Y 1819   5.841   3.018   5.490 -0.2536 -2.9734  1.4266
   14SAPS   C35 1820   5.857   2.810   5.452  0.7358  0.2494 -0.4208
   14SAPS   H5X 1821   5.952   2.799   5.508  0.5470  1.0149  0.0643
   14SAPS   H5Y 1822   5.853   2.741   5.365 -2.4133 -1.7098  1.0796
   14SAPS   C36 1823   5.746   2.762   5.564 -1.3686 -0.1570 -0.7413
   14SAPS   H6X 1824   5.719   2.656   5.541  0.1253 -1.1720  1.7960
   14SAPS   H6Y 1825   5.655   2.825   5.555 -0.9727  0.3168 -1.4586
   14SAPS   C37 1826   5.803   2.763   5.719  0.5008  1.0222  0.2357
   14SAPS   H7X 1827   5.894   2.699   5.716 -0.0131  0.2484  0.6910
   14SAPS   H7Y 1828   5.728   2.714   5.785  0.7035  1.0871  0.5133
   14SAPS   C38 1829   5.832   2.910   5.757  0.7331  0.0676 -0.0717
   14SAPS   H8X 1830   5.740   2.971   5.740  0.3480 -0.2189  0.9166
   14SAPS   H8Y 1831   5.907   2.939   5.680  0.6835 -0.8082 -0.4568
   14SAPS   C39 1832   5.883   2.933   5.903  0.6149 -0.5199 -0.3886
   14SAPS   H9X 1833   5.807   2.887   5.969  2.0168  1.1445  2.5847
   14SAPS   H9Y 1834   5.882   3.041   5.930  0.7602 -1.3603  3.5842
   14SAPS  C310 1835   6.024   2.880   5.934  0.1980 -0.4279 -0.5137
   14SAPS  H10X 1836   6.042   2.779   5.891  2.6007  0.4683 -1.8391
   14SAPS  H10Y 1837   6.016   2.845   6.039 -0.5265  2.7775  0.6280
   14SAPS  C311 1838   6.146   2.972   5.921  0.0973 -0.6430  0.0326
   14SAPS  H11X 1839   6.133   3.067   5.978 -0.8311 -0.3093 -0.7140
   14SAPS  H11Y 1840   6.157   2.996   5.813  3.8154 -0.9503  0.1970
   14SAPS  C312 1841   6.281   2.907   5.962 -1.0251  0.7388 -0.1604
   14SAPS  H12X 1842   6.364   2.975   5.934 -0.4987  0.0151 -0.3975
   14SAPS  H12Y 1843   6.299   2.813   5.905 -1.6304  0.2843  0.3761
   14SAPS  C313 1844   6.286   2.901   6.118 -0.8140 -0.0886 -0.2887
   14SAPS  H13X 1845   6.196   2.848   6.156 -2.5847  2.4324 -0.6996
   14SAPS  H13Y 1846   6.281   3.004   6.159 -0.7258 -0.4570  0.6515
   14SAPS  C314 1847   6.405   2.824   6.173  0.1195  0.0080 -0.7715
   14SAPS  H14X 1848   6.500   2.862   6.129  0.9716  0.6587  1.4623
   14SAPS  H14Y 1849   6.391   2.717   6.146 -1.3058  0.5854 -2.4903
   14SAPS  C315 1850   6.418   2.850   6.332 -0.4186  0.5789 -0.4971
   14SAPS  H15X 1851   6.391   2.957   6.343 -2.6262  0.2966 -2.3672
   14SAPS  H15Y 1852   6.522   2.817   6.352 -0.6279 -0.7536 -1.4820
   14SAPS  C316 1853   6.321   2.767   6.407  0.2903  0.2340 -0.4781
   14SAPS  H16X 1854   6.368   2.666   6.411  0.1433  0.1368 -1.0363
   14SAPS  H16Y 1855   6.228   2.769   6.346  0.0120  1.2734 -0.0384
   14SAPS  C317 1856   6.313   2.807   6.553  0.2396 -0.2151  0.3009
   14SAPS  H17X 1857   6.271   2.908   6.570  0.4805 -0.1851  0.7111
   14SAPS  H17Y 1858   6.415   2.807   6.597  0.3146  0.0373  0.1290
   14SAPS  C318 1859   6.229   2.726   6.648  0.5734  0.6082  0.9459
   14SAPS  H18X 1860   6.122   2.753   6.633  1.0320  1.4833 -1.0484
   14SAPS  H18Y 1861   6.252   2.729   6.756 -1.3361  0.5403  1.3888
   14SAPS  H18Z 1862   6.244   2.621   6.615  0.8366  0.8297  0.3463
   15SAPS     N 1863   6.414   5.830   4.136  0.1151 -0.2077  0.6296
   15SAPS   HN1 1864   6.335   5.890   4.104  2.0867  1.5578 -1.2581
   15SAPS   HN2 1865   6.397   5.809   4.237 -1.4572  1.8748  0.8714
   15SAPS   HN3 1866   6.507   5.875   4.126  1.7053 -3.0916  1.2600
   15SAPS   C12 1867   6.419   5.706   4.054 -0.2693  0.1575 -0.2960
   15SAPS  H12A 1868   6.324   5.656   4.064  0.6600 -1.4492  0.9244
   15SAPS   C13 1869   6.431   5.732   3.903 -0.6968  0.3853 -0.0306
   15SAPS  O13A 1870   6.486   5.839   3.865  0.3150 -0.2620 -0.1324
   15SAPS  O13B 1871   6.437   5.634   3.821  0.0992  0.5442  0.1251
   15SAPS   C11 1872   6.538   5.609   4.098  0.3353 -0.6447  0.2381
   15SAPS  H11A 1873   6.635   5.659   4.079  0.5647 -1.4005 -0.7007
   15SAPS  H11B 1874   6.546   5.522   4.029 -0.3544 -1.0134  0.6128
   15SAPS     P 1875   6.469   5.435   4.282  0.2448  0.4143 -0.2869
   15SAPS   O13 1876   6.354   5.411   4.196 -0.6894  0.7651  0.2646
   15SAPS   O14 1877   6.569   5.326   4.273  0.3069 -0.3827 -0.3574
   15SAPS   O12 1878   6.536   5.569   4.230 -0.1327 -0.5309 -0.0858
   15SAPS   O11 1879   6.424   5.461   4.436 -0.6639  0.2638 -0.2098
   15SAPS    C1 1880   6.340   5.566   4.477 -0.1014  0.1333  0.0994
   15SAPS    HA 1881   6.318   5.565   4.586 -0.1375 -1.4069  0.1111
   15SAPS    HB 1882   6.381   5.666   4.451 -2.1813  0.4495 -2.4345
   15SAPS    C2 1883   6.195   5.553   4.419 -1.3980 -0.3069  1.0496
   15SAPS    HS 1884   6.176   5.561   4.310 -0.1300 -1.2910  0.7282
   15SAPS   O21 1885   6.115   5.654   4.487  0.0812  0.1204 -0.0492
   15SAPS   C21 1886   6.147   5.775   4.453 -0.0851  0.6246  0.6231
   15SAPS   O22 1887   6.239   5.809   4.373  0.4291 -0.3622  0.2466
   15SAPS   C22 1888   6.071   5.866   4.535 -0.3142  0.6194  0.2099
   15SAPS   H2R 1889   6.089   5.967   4.493 -0.5555  1.9401  3.0142
   15SAPS   H2S 1890   5.962   5.854   4.513 -0.2818  0.5151  0.1057
   15SAPS    C3 1891   6.150   5.405   4.454 -0.7122 -0.1740  0.0048
   15SAPS    HX 1892   6.226   5.336   4.412  0.2796  1.1826 -0.5128
   15SAPS    HY 1893   6.052   5.384   4.406 -0.2815  0.8035 -1.3558
   15SAPS   O31 1894   6.148   5.386   4.599 -0.0436  0.1730  0.5023
   15SAPS   C31 1895   6.031   5.340   4.645  0.0816 -0.2730  0.9152
   15SAPS   O32 1896   5.940   5.305   4.572 -0.1686  0.1782  0.2637
   15SAPS   C32 1897   6.027   5.345   4.794  1.1083  0.0576  0.1784
   15SAPS   H2X 1898   6.078   5.440   4.823  1.3379 -0.0952  0.2753
   15SAPS   H2Y 1899   6.086   5.257   4.826 -0.0002 -0.4160  0.9568
   15SAPS   C23 1900   6.115   5.871   4.680 -0.2608  0.3480  0.2324
   15SAPS   H3R 1901   6.220   5.840   4.696 -0.2310  0.0273 -0.5507
   15SAPS   H3S 1902   6.051   5.801   4.738 -0.1911 -0.1637 -0.3018
   15SAPS   C24 1903   6.106   6.010   4.745  0.4222 -0.1142  0.7332
   15SAPS   H4R 1904   6.093   5.996   4.854 -0.8377 -1.8702  0.3939
   15SAPS   H4S 1905   6.011   6.055   4.707  1.0543 -0.0447 -0.8516
   15SAPS   C25 1906   6.219   6.110   4.708  0.4490 -0.2449  0.0857
   15SAPS   H5R 1907   6.212   6.180   4.624  1.6877  0.7213  0.7645
   15SAPS   C26 1908   6.330   6.144   4.784 -0.0737  1.0427 -0.0234
   15SAPS   H6R 1909   6.404   6.213   4.741 -0.0999  2.1378  1.6156
   15SAPS   C27 1910   6.372   6.082   4.914  0.5602  0.3864  0.0039
   15SAPS   H7R 1911   6.291   6.021   4.960  1.6630  0.9334  2.8530
   15SAPS   H7S 1912   6.374   6.170   4.981 -0.3598  0.0481  0.4932
   15SAPS   C28 1913   6.505   6.012   4.917 -0.4093  0.5989 -0.5634
   15SAPS   H8R 1914   6.561   6.009   4.823  1.3451  1.7410  0.3749
   15SAPS   C29 1915   6.559   5.955   5.024 -0.2731  0.2104  1.0094
   15SAPS   H9R 1916   6.657   5.912   4.999 -0.5948  0.0812 -0.0556
   15SAPS  C210 1917   6.504   5.947   5.161 -0.9849  0.2362 -0.1011
   15SAPS  H10R 1918   6.473   5.841   5.177 -0.8950  0.1576 -0.4324
   15SAPS  H10S 1919   6.416   6.011   5.182 -0.6419  1.0460 -1.0264
   15SAPS  C211 1920   6.605   5.991   5.263 -0.7011  0.0546  0.4688
   15SAPS  H11R 1921   6.639   6.095   5.256 -3.7693  1.0993 -0.9506
   15SAPS  C212 1922   6.649   5.900   5.353 -1.1204 -0.0025 -0.4317
   15SAPS  H12R 1923   6.721   5.933   5.430  0.3211 -1.8358 -0.9089
   15SAPS  C213 1924   6.607   5.753   5.360  0.2745  0.1251  0.2942
   15SAPS  H13R 1925   6.632   5.703   5.264 -2.0485 -0.1895 -0.1964
   15SAPS  H13S 1926   6.497   5.752   5.374  0.0628 -0.7128 -1.2677
   15SAPS  C214 1927   6.677   5.686   5.474  0.4042  0.7735  0.5588
   15SAPS  H14R 1928   6.779   5.648   5.459  0.1034  0.5884 -1.1805
   15SAPS  C215 1929   6.645   5.689   5.603  0.2325 -0.0372 -0.2409
   15SAPS  H15R 1930   6.711   5.626   5.665 -1.2309 -1.0048  0.4102
   15SAPS  C216 1931   6.511   5.713   5.670 -0.4388  0.4586 -0.2710
   15SAPS  H16R 1932   6.428   5.708   5.596 -0.2083 -2.7009 -0.4459
   15SAPS  H16S 1933   6.523   5.814   5.715  0.0402  1.7541 -3.0908
   15SAPS  C217 1934   6.498   5.603   5.782  0.6702 -0.0276 -0.2153
   15SAPS  H17R 1935   6.538   5.506   5.746  1.6270  0.6246 -0.9876
   15SAPS  H17S 1936   6.391   5.584   5.804  0.7784  0.0601  0.3874
   15SAPS  C218 1937   6.545   5.644   5.922  0.4083  0.0548 -0.4474
   15SAPS  H18R 1938   6.522   5.752   5.939  2.1115  0.2854  0.6851
   15SAPS  H18S 1939   6.655   5.635   5.921  0.4040 -0.4874  0.8299
   15SAPS  C219 1940   6.481   5.562   6.038  0.1952 -0.2639 -0.2502
   15SAPS  H19R 1941   6.559   5.559   6.118  0.5412 -0.5811 -0.5920
   15SAPS  H19S 1942   6.464   5.458   6.005 -0.5371  0.8627 -3.7714
   15SAPS  C220 1943   6.349   5.624   6.086 -0.1012  0.4175 -0.0760
   15SAPS  H20R 1944   6.308   5.674   5.996  2.0666 -0.1820 -1.4848
   15SAPS  H20S 1945   6.373   5.707   6.157  1.6861  0.3097 -0.4964
   15SAPS  H20T 1946   6.278   5.551   6.130  1.6765 -0.0827  2.1770
   15SAPS   C33 1947   5.882   5.338   4.841 -0.0819  0.2009 -0.4403
   15SAPS   H3X 1948   5.829   5.245   4.810 -0.4218 -0.0374  0.8184
   15SAPS   H3Y 1949   5.831   5.426   4.798  1.8550  1.4695 -0.2819
   15SAPS   C34 1950   5.888   5.340   4.994  0.4474  0.1803  0.2058
   15SAPS   H4X 1951   5.923   5.444   5.016 -0.2579  0.3008  0.8111
   15SAPS   H4Y 1952   5.969   5.273   5.028  1.9213  0.9456 -1.6283
   15SAPS   C35 1953   5.754   5.325   5.072  0.4335  0.5429  0.3713
   15SAPS   H5X 1954   5.710   5.234   5.026  0.1109  1.0396 -0.3322
   15SAPS   H5Y 1955   5.691   5.414   5.049  2.0223  1.5161 -0.4511
   15SAPS   C36 1956   5.772   5.309   5.224  1.0859  0.1214  1.0732
   15SAPS   H6X 1957   5.811   5.406   5.260 -2.1874  1.6521  0.8274
   15SAPS   H6Y 1958   5.840   5.225   5.253  0.0412 -1.0966  0.1161
   15SAPS   C37 1959   5.632   5.290   5.294 -0.3312 -0.3913  0.2632
   15SAPS   H7X 1960   5.567   5.223   5.234  1.3410 -0.4699 -1.5350
   15SAPS   H7Y 1961   5.592   5.393   5.298 -0.0621 -0.2704 -0.1243
   15SAPS   C38 1962   5.637   5.229   5.441  0.8157  0.3985 -0.3968
   15SAPS   H8X 1963   5.678   5.127   5.427 -0.2232 -0.1214  0.2303
   15SAPS   H8Y 1964   5.534   5.222   5.484  0.1723 -0.0259 -1.9238
   15SAPS   C39 1965   5.732   5.305   5.534 -0.1434  0.6494  0.5388
   15SAPS   H9X 1966   5.690   5.400   5.573 -1.6859 -0.7494  2.4963
   15SAPS   H9Y 1967   5.821   5.337   5.477  0.1755 -0.7888  0.1866
   15SAPS  C310 1968   5.787   5.218   5.656  0.5153  0.8837  0.8771
   15SAPS  H10X 1969   5.858   5.271   5.723 -0.0848 -0.3350  2.5485
   15SAPS  H10Y 1970   5.852   5.135   5.621  3.0784  2.8687  0.7014
   15SAPS  C311 1971   5.680   5.143   5.735  0.2148  0.0304  0.4364
   15SAPS  H11X 1972   5.623   5.071   5.673 -2.4905  1.3632  1.2267
   15SAPS  H11Y 1973   5.600   5.215   5.763  0.1238  0.2193 -0.2783
   15SAPS  C312 1974   5.729   5.068   5.856  0.2929  0.1568 -0.0799
   15SAPS  H12X 1975   5.800   5.142   5.899 -0.4442  0.8943 -0.1089
   15SAPS  H12Y 1976   5.788   4.977   5.829 -2.0244 -1.7618  0.9150
   15SAPS  C313 1977   5.613   5.042   5.949 -0.4842  0.0553  0.5470
   15SAPS  H13X 1978   5.573   4.939   5.939  0.9492 -0.4083 -0.8945
   15SAPS  H13Y 1979   5.529   5.114   5.937 -0.5631  0.4836  3.0964
   15SAPS  C314 1980   5.666   5.076   6.090  0.5586  0.0525  0.0764
   15SAPS  H14X 1981   5.651   5.186   6.098 -1.7823 -0.2769  0.6756
   15SAPS  H14Y 1982   5.775   5.061   6.109  0.2245 -1.0675  1.2584
   15SAPS  C315 1983   5.587   5.007   6.202 -0.1162  0.0700 -0.4181
   15SAPS  H15X 1984   5.600   4.899   6.179  0.6693 -0.1462  0.9162
   15SAPS  H15Y 1985   5.477   5.009   6.194 -0.2126 -2.2941 -0.6005
   15SAPS  C316 1986   5.641   5.033   6.341 -0.1540  0.3714  0.8096
   15SAPS  H16X 1987   5.751   5.043   6.344 -0.2394  2.2560 -0.5171
   15SAPS  H16Y 1988   5.610   4.953   6.412  0.9656  1.2081  2.2722
   15SAPS  C317 1989   5.589   5.174   6.390  0.5099  0.4870  0.4630
   15SAPS  H17X 1990   5.487   5.177   6.345 -0.4444 -0.1697  2.4499
   15SAPS  H17Y 1991   5.645   5.267   6.366 -1.0804  1.9422  2.0891
   15SAPS  C318 1992   5.561   5.189   6.538  0.0964 -0.3502 -0.0898
   15SAPS  H18X 1993   5.468   5.130   6.557  0.3253 -1.0059 -0.9042
   15SAPS  H18Y 1994   5.512   5.284   6.569 -0.7585 -0.8635  0.1709
   15SAPS  H18Z 1995   5.648   5.167   6.603  0.2169  1.4093  0.3769
   16SAPS     N 1996   1.430   6.762   4.431 -0.6954  0.2830 -0.5812
   16SAPS   HN1 1997   1.355   6.690   4.434 -1.2251  0.8481  1.5335
   16SAPS   HN2 1998   1.501   6.729   4.499 -0.9367 -2.7164 -1.6665
   16SAPS   HN3 1999   1.384   6.850   4.464  0.4564  1.0927 -1.0480
   16SAPS   C12 2000   1.494   6.774   4.300  0.7584  0.1013 -0.0396
   16SAPS  H12A 2001   1.508   6.674   4.262 -1.3955 -0.7272  1.1740
   16SAPS   C13 2002   1.425   6.858   4.191 -0.0466  0.0834 -0.8035
   16SAPS  O13A 2003   1.320   6.921   4.225 -0.5786  0.1703 -0.0536
   16SAPS  O13B 2004   1.486   6.890   4.085  0.2390  0.1252  0.1865
   16SAPS   C11 2005   1.640   6.818   4.318  0.3977 -0.8319 -0.1678
   16SAPS  H11A 2006   1.640   6.922   4.356 -0.3011 -1.1893  0.8691
   16SAPS  H11B 2007   1.694   6.827   4.221  2.2214  1.0876  0.9408
   16SAPS     P 2008   1.851   6.773   4.481  0.0503  0.3678 -0.0210
   16SAPS   O13 2009   1.902   6.660   4.549 -0.1199  0.0643 -0.0176
   16SAPS   O14 2010   1.944   6.852   4.390 -0.1420  0.4897 -0.0781
   16SAPS   O12 2011   1.724   6.729   4.395 -0.0972 -0.1824  0.3426
   16SAPS   O11 2012   1.791   6.876   4.578  0.0240  0.0514 -0.3093
   16SAPS    C1 2013   1.866   6.971   4.666  0.1407  0.4585  0.2220
   16SAPS    HA 2014   1.976   6.979   4.651  0.1641  0.5892  0.4584
   16SAPS    HB 2015   1.825   7.073   4.647 -3.1335 -1.0472 -1.7682
   16SAPS    C2 2016   1.845   6.942   4.819 -0.6450  0.1917  0.8531
   16SAPS    HS 2017   1.743   6.976   4.846 -0.3492  0.7354  1.3147
   16SAPS   O21 2018   1.946   7.027   4.892 -0.0458 -0.1309  0.3240
   16SAPS   C21 2019   1.902   7.144   4.926  0.2187 -0.0083 -0.0243
   16SAPS   O22 2020   1.787   7.188   4.910  0.4958  0.3466 -0.2302
   16SAPS   C22 2021   2.008   7.209   5.007 -0.0828 -0.1260 -0.3455
   16SAPS   H2R 2022   2.071   7.138   5.067 -0.8324  1.2992  2.3008
   16SAPS   H2S 2023   2.076   7.251   4.930 -2.3940 -0.1769 -2.5308
   16SAPS    C3 2024   1.866   6.791   4.848 -0.1522  0.4310 -0.1974
   16SAPS    HX 2025   1.973   6.779   4.820 -1.0070 -2.5308 -2.8221
   16SAPS    HY 2026   1.802   6.728   4.782 -3.2965  2.3073  0.8175
   16SAPS   O31 2027   1.841   6.763   4.990 -0.1942 -0.4785 -0.0687
   16SAPS   C31 2028   1.714   6.734   5.024 -0.0331 -0.3217  0.1776
   16SAPS   O32 2029   1.620   6.731   4.945 -0.3439  0.1015  0.7615
   16SAPS   C32 2030   1.699   6.728   5.176  0.0789 -0.3369  0.2992
   16SAPS   H2X 2031   1.795   6.691   5.218  1.7016  1.8651 -1.2171
   16SAPS   H2Y 2032   1.613   6.666   5.210 -0.8261  0.4934 -0.3932
   16SAPS   C23 2033   1.971   7.329   5.103  0.1182  0.5784  0.1718
   16SAPS   H3R 2034   1.916   7.398   5.036  1.2095  0.1873 -1.1817
   16SAPS   H3S 2035   2.058   7.389   5.137 -2.1869  4.1792  0.2287
   16SAPS   C24 2036   1.874   7.292   5.216 -0.0991 -0.0564 -0.5422
   16SAPS   H4R 2037   1.789   7.233   5.176  1.2019 -1.4018 -1.3906
   16SAPS   H4S 2038   1.831   7.389   5.251 -0.4308 -0.4181  0.0871
   16SAPS   C25 2039   1.934   7.202   5.325  0.1546  0.3622  0.5449
   16SAPS   H5R 2040   1.989   7.110   5.301  1.3002  1.0838  0.3052
   16SAPS   C26 2041   1.935   7.238   5.457 -0.2453  0.1811  0.2369
   16SAPS   H6R 2042   1.975   7.170   5.534 -0.2492 -1.9463 -1.5381
   16SAPS   C27 2043   1.873   7.359   5.523  0.1940 -0.0269 -0.5723
   16SAPS   H7R 2044   1.768   7.359   5.485  0.2209 -2.7945 -0.8597
   16SAPS   H7S 2045   1.915   7.456   5.488  2.8945  0.0578  2.3943
   16SAPS   C28 2046   1.877   7.362   5.671  0.3079  0.1489 -0.0186
   16SAPS   H8R 2047   1.966   7.310   5.707 -0.0911  0.6415  1.7351
   16SAPS   C29 2048   1.774   7.381   5.754  0.5935  0.8546  0.0442
   16SAPS   H9R 2049   1.791   7.349   5.858  0.5208  1.4120  0.2331
   16SAPS  C210 2050   1.642   7.443   5.727  0.4217  0.5612  0.0101
   16SAPS  H10R 2051   1.575   7.369   5.677  1.5542 -0.1802 -0.4576
   16SAPS  H10S 2052   1.644   7.522   5.649 -1.3048  2.7850  2.0747
   16SAPS  C211 2053   1.592   7.496   5.856  0.2671 -1.2127 -0.6020
   16SAPS  H11R 2054   1.670   7.550   5.913 -1.7985  1.2608  0.0466
   16SAPS  C212 2055   1.457   7.504   5.893  0.3561  0.1923  0.2965
   16SAPS  H12R 2056   1.444   7.555   5.990  0.7388  0.2655  0.3105
   16SAPS  C213 2057   1.337   7.428   5.835  0.4472 -0.1131 -0.3055
   16SAPS  H13R 2058   1.341   7.443   5.725  1.9901 -1.7441 -0.5341
   16SAPS  H13S 2059   1.244   7.478   5.868  0.1414 -0.7432 -0.2001
   16SAPS  C214 2060   1.328   7.276   5.852 -0.7991  0.1610  0.2640
   16SAPS  H14R 2061   1.423   7.226   5.874  0.4429  1.8956 -0.8283
   16SAPS  C215 2062   1.219   7.205   5.826 -0.1155 -0.0052 -0.4816
   16SAPS  H15R 2063   1.223   7.096   5.840 -1.2327  0.0667  0.6407
   16SAPS  C216 2064   1.090   7.255   5.775  0.2146 -0.0947  0.3809
   16SAPS  H16R 2065   1.094   7.221   5.669  1.8844 -2.4336  1.1167
   16SAPS  H16S 2066   1.071   7.365   5.771 -1.0853 -0.3004  0.4098
   16SAPS  C217 2067   0.986   7.180   5.853  0.0771 -0.1620 -0.3200
   16SAPS  H17R 2068   0.997   7.070   5.865  0.4483  0.0878  2.3473
   16SAPS  H17S 2069   0.886   7.205   5.811  0.0964  0.3658 -0.0676
   16SAPS  C218 2070   0.976   7.229   5.999  0.7290  0.0563 -0.4182
   16SAPS  H18R 2071   1.072   7.230   6.056  0.6697  1.1816 -0.3166
   16SAPS  H18S 2072   0.907   7.159   6.051  0.2068 -0.5333 -1.8658
   16SAPS  C219 2073   0.916   7.372   6.003  0.1458 -0.7975 -0.0780
   16SAPS  H19R 2074   0.816   7.374   5.954 -0.2509 -0.0219  0.7301
   16SAPS  H19S 2075   0.987   7.442   5.953 -0.5006 -0.2188 -0.2016
   16SAPS  C220 2076   0.883   7.434   6.139 -0.2458 -0.0741 -0.3724
   16SAPS  H20R 2077   0.805   7.376   6.192  1.6945 -0.7802  1.9033
   16SAPS  H20S 2078   0.858   7.543   6.140  1.0105  0.2464 -1.4192
   16SAPS  H20T 2079   0.975   7.420   6.201  0.0214 -3.1171 -1.3259
   16SAPS   C33 2080   1.671   6.868   5.231 -0.9482 -0.1419  0.7015
   16SAPS   H3X 2081   1.586   6.906   5.170 -0.7017 -2.0649 -0.9500
   16SAPS   H3Y 2082   1.747   6.941   5.197 -2.3647  0.4125 -1.5043
   16SAPS   C34 2083   1.643   6.880   5.377 -0.2130  1.4722 -0.0113
   16SAPS   H4X 2084   1.730   6.854   5.442 -0.9270 -2.1087 -0.3166
   16SAPS   H4Y 2085   1.566   6.805   5.403 -0.5063  2.7781  3.4197
   16SAPS   C35 2086   1.586   7.016   5.416  0.0640  0.1826  0.7881
   16SAPS   H5X 2087   1.508   7.046   5.343  2.4462  1.9542 -1.1833
   16SAPS   H5Y 2088   1.668   7.090   5.399  1.2806 -1.9007 -3.8815
   16SAPS   C36 2089   1.538   7.032   5.560  0.1780 -0.0682 -0.5034
   16SAPS   H6X 2090   1.448   6.967   5.573 -0.5748  0.8544 -0.9773
   16SAPS   H6Y 2091   1.505   7.138   5.564  1.2911  0.2658  1.1593
   16SAPS   C37 2092   1.648   7.010   5.657  0.0331  0.6749 -0.1643
   16SAPS   H7X 2093   1.735   7.074   5.630  0.5724 -0.5090 -1.3700
   16SAPS   H7Y 2094   1.685   6.905   5.658  0.2518  0.7309 -1.0012
   16SAPS   C38 2095   1.609   7.035   5.801 -0.2380 -0.2651  0.6955
   16SAPS   H8X 2096   1.501   7.013   5.810 -0.2623  0.0017  1.0904
   16SAPS   H8Y 2097   1.635   7.141   5.824  4.1442 -0.9906 -0.0351
   16SAPS   C39 2098   1.688   6.953   5.907 -0.2148  0.0735  0.2387
   16SAPS   H9X 2099   1.795   6.964   5.879 -0.5907  0.2487 -1.1731
   16SAPS   H9Y 2100   1.658   6.848   5.887  0.3839 -0.8395  3.4503
   16SAPS  C310 2101   1.652   6.994   6.052 -0.5207 -0.1405 -0.9567
   16SAPS  H10X 2102   1.694   6.925   6.128  0.6757  1.9726  0.4172
   16SAPS  H10Y 2103   1.541   6.994   6.051 -0.5473 -0.2383  0.2456
   16SAPS  C311 2104   1.700   7.137   6.094 -0.0884 -0.3783  0.4924
   16SAPS  H11X 2105   1.647   7.206   6.025 -1.5041 -0.6691  1.2524
   16SAPS  H11Y 2106   1.811   7.135   6.097 -0.0288 -0.9023 -1.2312
   16SAPS  C312 2107   1.647   7.185   6.231  0.1685 -0.1474 -0.4982
   16SAPS  H12X 2108   1.540   7.153   6.236  0.3449 -0.5757  1.3618
   16SAPS  H12Y 2109   1.643   7.296   6.235 -1.9375 -0.1320 -1.5476
   16SAPS  C313 2110   1.724   7.128   6.348  0.0719  0.5511  0.1829
   16SAPS  H13X 2111   1.822   7.104   6.301 -0.7085 -0.2229 -1.1028
   16SAPS  H13Y 2112   1.684   7.032   6.387  1.0807  0.3911  0.8544
   16SAPS  C314 2113   1.736   7.229   6.459  0.7988 -0.2478 -0.6217
   16SAPS  H14X 2114   1.788   7.313   6.408  2.0804 -0.7287 -0.1536
   16SAPS  H14Y 2115   1.809   7.197   6.536  1.8463 -1.3467 -2.0013
   16SAPS  C315 2116   1.610   7.278   6.527 -0.6891  0.2781 -0.2857
   16SAPS  H15X 2117   1.560   7.189   6.572 -1.9953  1.2300  0.2125
   16SAPS  H15Y 2118   1.535   7.322   6.458  1.1551  0.4017 -2.2824
   16SAPS  C316 2119   1.641   7.376   6.644  0.2206  0.6139  0.1877
   16SAPS  H16X 2120   1.723   7.445   6.614  2.0536 -1.6482 -0.3115
   16SAPS  H16Y 2121   1.682   7.320   6.732 -1.8891  0.2381  0.9867
   16SAPS  C317 2122   1.516   7.462   6.677 -0.8366  0.4288  0.6917
   16SAPS  H17X 2123   1.442   7.406   6.738 -1.6984  1.3545  0.5271
   16SAPS  H17Y 2124   1.469   7.506   6.587  0.9663  1.4382  0.1900
   16SAPS  C318 2125   1.553   7.578   6.767  0.7659 -0.9082  0.6440
   16SAPS  H18X 2126   1.622   7.551   6.850 -0.4299 -2.0316  1.2994
   16SAPS  H18Y 2127   1.473   7.635   6.818  1.6238  1.2816 -0.3113
   16SAPS  H18Z 2128   1.598   7.657   6.703 -1.5720 -0.7102 -0.8759
   17SAPS     N 2129   5.950   6.171   4.095  0.1940  0.2787  0.7673
   17SAPS   HN1 2130   5.949   6.167   4.199  0.5936  0.6988  0.7913
   17SAPS   HN2 2131   6.035   6.218   4.057 -1.1083  0.7948 -1.7551
   17SAPS   HN3 2132   5.868   6.224   4.061  0.2703  0.1529  0.3797
   17SAPS   C12 2133   5.954   6.034   4.026 -0.2218 -0.1682 -0.7366
   17SAPS  H12A 2134   5.932   6.040   3.921  0.2165  0.0451 -0.8169
   17SAPS   C13 2135   6.094   5.968   4.034  0.4137 -0.0530 -0.2790
   17SAPS  O13A 2136   6.191   6.029   4.076  0.0415  0.1374 -0.1991
   17SAPS  O13B 2137   6.102   5.842   4.014  0.4689 -0.0891  0.4775
   17SAPS   C11 2138   5.857   5.941   4.091 -0.6492  0.2216  0.7828
   17SAPS  H11A 2139   5.884   5.930   4.198  0.6826 -2.7424  0.2547
   17SAPS  H11B 2140   5.875   5.838   4.054  2.7877  1.2277 -0.7321
   17SAPS     P 2141   5.608   5.877   4.128  0.1126 -0.0529  0.3591
   17SAPS   O13 2142   5.500   5.875   4.027  0.2152 -0.3616  0.0268
   17SAPS   O14 2143   5.664   5.743   4.167  0.7940 -0.1311 -0.9352
   17SAPS   O12 2144   5.722   5.983   4.081 -0.0310 -0.2699 -0.1047
   17SAPS   O11 2145   5.551   5.944   4.253  0.3279  0.0734  0.3416
   17SAPS    C1 2146   5.608   5.937   4.384 -0.8567  0.2113 -0.1410
   17SAPS    HA 2147   5.719   5.941   4.379 -0.7833  0.1045  1.0541
   17SAPS    HB 2148   5.579   6.034   4.431  0.7371  0.1626  1.0261
   17SAPS    C2 2149   5.548   5.830   4.474  0.4156  0.3685  0.5294
   17SAPS    HS 2150   5.544   5.736   4.415  0.2309 -1.1895  2.9255
   17SAPS   O21 2151   5.415   5.875   4.521  0.8281  0.2611  0.0772
   17SAPS   C21 2152   5.332   5.769   4.539  0.4197  0.0746  0.0347
   17SAPS   O22 2153   5.360   5.651   4.516  0.5621  0.3584 -0.5762
   17SAPS   C22 2154   5.199   5.821   4.590  0.3165  0.4042 -0.7714
   17SAPS   H2R 2155   5.213   5.864   4.692  0.4913 -0.5953 -0.3625
   17SAPS   H2S 2156   5.165   5.910   4.533 -0.3378  1.1571  0.7378
   17SAPS    C3 2157   5.648   5.811   4.591  0.2492 -0.6664 -0.6296
   17SAPS    HX 2158   5.750   5.789   4.554  0.7606 -0.5524  0.6590
   17SAPS    HY 2159   5.620   5.719   4.646 -0.6052  0.2124  0.4730
   17SAPS   O31 2160   5.656   5.930   4.670 -0.5691  0.0771 -0.4604
   17SAPS   C31 2161   5.581   5.923   4.774 -0.1196  0.2360  0.1867
   17SAPS   O32 2162   5.499   5.833   4.795  0.0426 -0.3276  0.1364
   17SAPS   C32 2163   5.605   6.053   4.855  0.1998  0.3678  0.1142
   17SAPS   H2X 2164   5.512   6.105   4.886  1.4975  4.2621 -1.8203
   17SAPS   H2Y 2165   5.665   6.123   4.792  0.0808 -1.8258 -2.6635
   17SAPS   C23 2166   5.090   5.713   4.585 -0.1971  0.2591 -0.1723
   17SAPS   H3R 2167   5.120   5.636   4.659  0.9175  0.8853  0.0426
   17SAPS   H3S 2168   5.076   5.663   4.487 -1.5929  1.0699 -0.4126
   17SAPS   C24 2169   4.960   5.771   4.644  0.2322  0.5111  0.4896
   17SAPS   H4R 2170   4.907   5.838   4.572 -0.4806  1.2271  1.6631
   17SAPS   H4S 2171   4.989   5.825   4.736  1.4972  0.4155  0.1670
   17SAPS   C25 2172   4.864   5.654   4.670  0.0482  0.4093 -0.4488
   17SAPS   H5R 2173   4.834   5.593   4.584 -2.0687 -2.3906  2.0409
   17SAPS   C26 2174   4.823   5.601   4.791  0.3741 -0.3721  0.7975
   17SAPS   H6R 2175   4.762   5.509   4.785 -1.6241  1.0047 -1.5127
   17SAPS   C27 2176   4.835   5.663   4.925  0.6788 -0.0752 -0.1436
   17SAPS   H7R 2177   4.890   5.759   4.925  2.1907 -0.8297  2.8655
   17SAPS   H7S 2178   4.894   5.594   4.989 -1.8579  0.3379  2.8614
   17SAPS   C28 2179   4.702   5.697   4.993 -0.4115  0.1499  0.1409
   17SAPS   H8R 2180   4.621   5.730   4.925 -0.1564  1.0465  0.2599
   17SAPS   C29 2181   4.682   5.693   5.124  0.1652  0.5873  0.1655
   17SAPS   H9R 2182   4.577   5.712   5.152 -0.8126 -4.6608  1.2639
   17SAPS  C210 2183   4.777   5.651   5.228 -0.2215  0.0605 -0.0955
   17SAPS  H10R 2184   4.875   5.664   5.176 -1.0674  0.5943 -1.6182
   17SAPS  H10S 2185   4.767   5.541   5.240 -0.7179 -0.0732 -1.6416
   17SAPS  C211 2186   4.769   5.732   5.354  0.1122 -0.2945 -0.5115
   17SAPS  H11R 2187   4.751   5.839   5.339  2.1589  0.1765  0.0818
   17SAPS  C212 2188   4.798   5.681   5.477  0.3642  0.6590  0.0058
   17SAPS  H12R 2189   4.823   5.753   5.556  1.5383 -0.4421  0.6839
   17SAPS  C213 2190   4.815   5.537   5.524 -0.4087  0.1557 -0.0176
   17SAPS  H13R 2191   4.832   5.541   5.634 -0.1525 -0.8368 -0.0177
   17SAPS  H13S 2192   4.911   5.506   5.478 -0.7636 -1.3366  0.1913
   17SAPS  C214 2193   4.708   5.442   5.476 -0.5326 -0.2315  0.8903
   17SAPS  H14R 2194   4.616   5.482   5.434  0.7056 -0.5913 -2.4236
   17SAPS  C215 2195   4.716   5.309   5.504 -0.6854 -0.5014 -0.3109
   17SAPS  H15R 2196   4.639   5.238   5.471 -0.9910 -0.1909 -0.2763
   17SAPS  C216 2197   4.825   5.242   5.587 -0.9721 -0.3093 -0.1958
   17SAPS  H16R 2198   4.910   5.308   5.614 -1.6917  0.8630 -0.7040
   17SAPS  H16S 2199   4.870   5.157   5.531 -0.3600 -0.6774  0.8336
   17SAPS  C217 2200   4.772   5.169   5.715  0.1174  0.2282  0.1541
   17SAPS  H17R 2201   4.835   5.083   5.746  1.6657  0.7275 -1.4619
   17SAPS  H17S 2202   4.670   5.129   5.699  0.6344 -0.9663 -0.3130
   17SAPS  C218 2203   4.759   5.266   5.841  0.0677 -0.4657 -0.0178
   17SAPS  H18R 2204   4.714   5.361   5.806 -1.0146  0.3848  3.3268
   17SAPS  H18S 2205   4.862   5.290   5.877 -0.0337  1.7801 -1.0951
   17SAPS  C219 2206   4.668   5.214   5.960  0.7086  0.1718  0.4082
   17SAPS  H19R 2207   4.709   5.115   5.988 -1.1986 -0.1318  2.4454
   17SAPS  H19S 2208   4.571   5.186   5.914  2.1786 -1.8037 -1.7080
   17SAPS  C220 2209   4.658   5.303   6.086 -0.0465  0.5395 -0.3463
   17SAPS  H20R 2210   4.622   5.403   6.050 -2.4536 -0.7154 -1.6911
   17SAPS  H20S 2211   4.754   5.308   6.140  0.9495  0.3366 -2.0121
   17SAPS  H20T 2212   4.581   5.266   6.156  0.4226  0.5154  0.1609
   17SAPS   C33 2213   5.709   6.019   4.968 -0.0501 -0.0774 -0.4493
   17SAPS   H3X 2214   5.743   6.119   5.003  1.4478 -0.6659 -0.1742
   17SAPS   H3Y 2215   5.796   5.968   4.923 -0.6319  0.6427 -2.4921
   17SAPS   C34 2216   5.650   5.942   5.094  0.3428 -0.7091 -0.0713
   17SAPS   H4X 2217   5.585   5.860   5.057  0.7973 -0.0968 -2.4105
   17SAPS   H4Y 2218   5.576   6.007   5.146  0.0119 -2.9406  2.4564
   17SAPS   C35 2219   5.760   5.902   5.185  0.7322 -0.3975 -0.9105
   17SAPS   H5X 2220   5.812   5.999   5.202  1.7594 -1.1971  0.8850
   17SAPS   H5Y 2221   5.833   5.826   5.151  1.6667  0.3519 -0.6282
   17SAPS   C36 2222   5.701   5.859   5.325 -0.2959 -0.7842 -0.1014
   17SAPS   H6X 2223   5.643   5.948   5.357  0.5155 -0.4006  0.3409
   17SAPS   H6Y 2224   5.785   5.849   5.397 -2.2034 -1.4886  2.1615
   17SAPS   C37 2225   5.610   5.734   5.314  0.0814  0.0551  0.1717
   17SAPS   H7X 2226   5.663   5.673   5.238  0.3516  1.3749 -0.7450
   17SAPS   H7Y 2227   5.513   5.771   5.272 -1.1580  0.0260  2.8036
   17SAPS   C38 2228   5.575   5.669   5.447 -1.2067 -0.2368  0.5829
   17SAPS   H8X 2229   5.651   5.593   5.473 -1.1573 -0.6335 -0.6318
   17SAPS   H8Y 2230   5.487   5.602   5.435 -1.1637 -0.3870  1.1097
   17SAPS   C39 2231   5.566   5.778   5.563 -0.4555  0.1221 -0.1233
   17SAPS   H9X 2232   5.495   5.853   5.523 -1.7347 -0.8415  0.2547
   17SAPS   H9Y 2233   5.671   5.812   5.572  0.5419 -2.7365  0.2589
   17SAPS  C310 2234   5.533   5.725   5.706 -0.3814 -0.0729  0.0002
   17SAPS  H10X 2235   5.594   5.633   5.709  0.7291  0.5150 -2.2445
   17SAPS  H10Y 2236   5.428   5.688   5.705 -0.8320  1.1060  0.8700
   17SAPS  C311 2237   5.563   5.831   5.807 -0.5909 -0.3343 -0.6182
   17SAPS  H11X 2238   5.487   5.912   5.813  1.6101  1.7288  3.3668
   17SAPS  H11Y 2239   5.656   5.889   5.786 -1.2529  1.2081  0.4696
   17SAPS  C312 2240   5.575   5.777   5.948 -0.7821  0.1086 -0.5791
   17SAPS  H12X 2241   5.616   5.858   6.012 -0.2160 -0.4644 -0.2008
   17SAPS  H12Y 2242   5.656   5.701   5.944 -0.2501  0.7353 -2.4417
   17SAPS  C313 2243   5.445   5.732   6.021  0.7037  0.8503  0.0892
   17SAPS  H13X 2244   5.394   5.647   5.970 -0.9982 -0.0328  3.0132
   17SAPS  H13Y 2245   5.377   5.820   6.020  0.3995  0.6375  1.1966
   17SAPS  C314 2246   5.470   5.698   6.168  0.4936  0.1522 -0.6506
   17SAPS  H14X 2247   5.566   5.642   6.157  0.5231  0.4241 -1.9636
   17SAPS  H14Y 2248   5.388   5.629   6.198  0.5716  0.1808 -0.3724
   17SAPS  C315 2249   5.450   5.824   6.256 -0.4479 -0.4007 -0.1542
   17SAPS  H15X 2250   5.343   5.850   6.239  0.1447  1.0480 -2.0471
   17SAPS  H15Y 2251   5.513   5.908   6.220 -0.6139 -0.5531 -0.8067
   17SAPS  C316 2252   5.479   5.798   6.402 -0.2360 -0.2299 -0.5676
   17SAPS  H16X 2253   5.423   5.706   6.431  2.4975 -1.6749  0.4930
   17SAPS  H16Y 2254   5.433   5.888   6.448 -1.6394 -0.9901 -0.4304
   17SAPS  C317 2255   5.627   5.783   6.439 -0.7361  0.0411  0.3246
   17SAPS  H17X 2256   5.670   5.876   6.396  0.6181 -0.3569  0.7663
   17SAPS  H17Y 2257   5.678   5.691   6.402 -0.0633  0.5594 -0.0462
   17SAPS  C318 2258   5.665   5.798   6.588 -0.3605  0.7606  0.2243
   17SAPS  H18X 2259   5.773   5.786   6.614 -0.9079 -1.8623  1.6268
   17SAPS  H18Y 2260   5.611   5.723   6.650 -1.0723 -1.4179 -2.8312
   17SAPS  H18Z 2261   5.637   5.902   6.615 -0.7036  0.6562  0.2706
   18SAPS     N 2262   0.688   2.314   4.703  0.9774  0.3948 -0.6113
   18SAPS   HN1 2263   0.654   2.405   4.742 -0.6890 -1.0914  1.6456
   18SAPS   HN2 2264   0.599   2.261   4.697  1.6205 -1.3174  2.5148
   18SAPS   HN3 2265   0.740   2.280   4.787  0.1103  2.9170  1.0698
   18SAPS   C12 2266   0.776   2.335   4.580  0.5291 -0.3465 -0.8689
   18SAPS  H12A 2267   0.800   2.236   4.543  0.3570 -0.8967  0.4066
   18SAPS   C13 2268   0.705   2.414   4.463  0.1340 -0.4182 -0.7709
   18SAPS  O13A 2269   0.585   2.444   4.471  0.4541  0.2788  0.0983
   18SAPS  O13B 2270   0.766   2.421   4.349  0.5029  0.0727  0.4377
   18SAPS   C11 2271   0.906   2.409   4.632  0.3109 -0.2849 -0.6634
   18SAPS  H11A 2272   0.953   2.440   4.537 -0.8925  1.0581 -0.8574
   18SAPS  H11B 2273   0.977   2.354   4.697  0.3858 -2.5452 -2.5221
   18SAPS     P 2274   0.900   2.594   4.827  0.2834  0.0349  0.2048
   18SAPS   O13 2275   0.885   2.744   4.828 -0.2948  0.2275 -0.3648
   18SAPS   O14 2276   0.819   2.513   4.927  0.0126 -0.1279  0.0492
   18SAPS   O12 2277   0.867   2.535   4.687  0.1560 -0.1865 -1.5673
   18SAPS   O11 2278   1.057   2.548   4.826 -0.6155 -0.0992 -0.3512
   18SAPS    C1 2279   1.130   2.572   4.951 -0.2011  0.3357 -0.5935
   18SAPS    HA 2280   1.239   2.583   4.930  0.1214 -0.7929  0.3859
   18SAPS    HB 2281   1.110   2.667   5.004  1.6391  0.5436 -0.2230
   18SAPS    C2 2282   1.126   2.450   5.056 -0.5181  0.3912  0.6536
   18SAPS    HS 2283   1.131   2.356   4.996 -1.1079 -0.5721  2.0616
   18SAPS   O21 2284   1.007   2.464   5.137 -0.5109 -0.1394  0.5069
   18SAPS   C21 2285   0.942   2.353   5.162  0.1886 -0.2749  0.2629
   18SAPS   O22 2286   0.966   2.246   5.110  0.5059  0.2392  0.6566
   18SAPS   C22 2287   0.819   2.372   5.251  0.5723  0.3355  0.3359
   18SAPS   H2R 2288   0.814   2.481   5.272 -2.5213  1.1381 -3.4816
   18SAPS   H2S 2289   0.722   2.351   5.201 -0.0200 -0.8008  1.8712
   18SAPS    C3 2290   1.259   2.450   5.152 -0.2586 -0.3343  0.3116
   18SAPS    HX 2291   1.269   2.556   5.184 -2.5175 -0.3647  1.2921
   18SAPS    HY 2292   1.346   2.422   5.088 -1.6860 -0.5370 -1.6465
   18SAPS   O31 2293   1.231   2.371   5.271  0.1264  0.1400 -0.0187
   18SAPS   C31 2294   1.322   2.288   5.305 -0.1738  0.3895 -0.5422
   18SAPS   O32 2295   1.435   2.284   5.262  0.2632  0.4257 -0.0829
   18SAPS   C32 2296   1.269   2.196   5.417 -0.6370  0.6612  0.1933
   18SAPS   H2X 2297   1.281   2.092   5.379  0.5920  0.6743  0.5240
   18SAPS   H2Y 2298   1.159   2.208   5.427 -0.9354  1.6360 -3.0808
   18SAPS   C23 2299   0.829   2.295   5.392  0.1618  0.0358 -0.0245
   18SAPS   H3R 2300   0.935   2.270   5.412  0.3993  1.8126  1.1873
   18SAPS   H3S 2301   0.765   2.204   5.396 -1.1866  0.9662  0.3605
   18SAPS   C24 2302   0.779   2.378   5.509 -0.3547  0.5247  0.2410
   18SAPS   H4R 2303   0.685   2.428   5.478  0.2402  1.1837 -0.5829
   18SAPS   H4S 2304   0.848   2.466   5.507 -0.3949  0.5924 -2.7081
   18SAPS   C25 2305   0.770   2.307   5.643 -0.1447  0.3519 -0.1124
   18SAPS   H5R 2306   0.732   2.204   5.640  0.8995 -0.2078  2.7346
   18SAPS   C26 2307   0.819   2.357   5.757  0.2434 -0.2249 -0.1173
   18SAPS   H6R 2308   0.823   2.287   5.842  0.9341 -1.1366 -0.8784
   18SAPS   C27 2309   0.887   2.493   5.769  0.4006 -0.0015  0.1542
   18SAPS   H7R 2310   0.933   2.527   5.673 -0.9036 -3.3745 -1.8554
   18SAPS   H7S 2311   0.967   2.490   5.846 -0.1142 -0.4089  0.6717
   18SAPS   C28 2312   0.783   2.593   5.811  0.2237  0.3692 -0.3608
   18SAPS   H8R 2313   0.706   2.616   5.736 -0.2685  1.3790  0.4473
   18SAPS   C29 2314   0.773   2.641   5.939 -0.1053 -0.3105  0.2551
   18SAPS   H9R 2315   0.690   2.710   5.963 -0.3086 -0.0403 -1.1282
   18SAPS  C210 2316   0.863   2.613   6.057 -0.0344 -0.1620  0.8595
   18SAPS  H10R 2317   0.924   2.703   6.080  0.3576 -0.3647  0.6251
   18SAPS  H10S 2318   0.934   2.530   6.038  0.6753  0.0953  2.1803
   18SAPS  C211 2319   0.782   2.564   6.172 -0.1491  0.0964  0.0024
   18SAPS  H11R 2320   0.677   2.550   6.143  0.4412 -1.7841 -1.4619
   18SAPS  C212 2321   0.827   2.546   6.290  0.3719 -0.4858  0.4044
   18SAPS  H12R 2322   0.757   2.500   6.362 -0.1668 -0.1829  0.0833
   18SAPS  C213 2323   0.974   2.565   6.330  0.0514  0.0451 -0.2809
   18SAPS  H13R 2324   1.007   2.660   6.284  0.8175 -1.1862 -2.4191
   18SAPS  H13S 2325   1.030   2.479   6.287 -0.6640  0.0931 -1.3342
   18SAPS  C214 2326   0.980   2.572   6.476  1.0377  0.5951  0.4329
   18SAPS  H14R 2327   0.966   2.673   6.517 -1.0446  0.6790 -0.3517
   18SAPS  C215 2328   0.996   2.464   6.558  0.1249  0.1824 -0.1689
   18SAPS  H15R 2329   0.996   2.480   6.667  2.6737 -2.2178  0.2878
   18SAPS  C216 2330   1.020   2.326   6.516 -0.6599  0.2145 -0.8779
   18SAPS  H16R 2331   0.971   2.310   6.418 -0.8257 -1.1036 -0.6029
   18SAPS  H16S 2332   0.981   2.264   6.601  0.6113  0.9067  0.2555
   18SAPS  C217 2333   1.168   2.281   6.506 -0.5344  0.3561 -0.4187
   18SAPS  H17R 2334   1.225   2.375   6.489  0.2039  0.2036  1.0268
   18SAPS  H17S 2335   1.184   2.213   6.420  2.0858 -3.7575  2.9360
   18SAPS  C218 2336   1.229   2.205   6.622  0.2386  0.7048  0.0992
   18SAPS  H18R 2337   1.161   2.118   6.635  1.7377 -0.5204  0.0367
   18SAPS  H18S 2338   1.220   2.255   6.721  0.0106  3.1462 -1.0835
   18SAPS  C219 2339   1.366   2.141   6.585 -0.0213 -0.6861 -0.6357
   18SAPS  H19R 2340   1.434   2.225   6.560 -1.4569  0.9877  0.7794
   18SAPS  H19S 2341   1.368   2.092   6.485 -0.3488  1.4533 -1.7703
   18SAPS  C220 2342   1.418   2.053   6.694 -0.7085 -0.0078  0.2549
   18SAPS  H20R 2343   1.472   2.109   6.774  1.3825 -0.1353 -0.9964
   18SAPS  H20S 2344   1.499   1.987   6.656 -0.3638  0.1320  0.7335
   18SAPS  H20T 2345   1.332   2.005   6.746 -1.6040  1.4222  0.1253
   18SAPS   C33 2346   1.332   2.216   5.554 -0.4273  0.0788 -0.4347
   18SAPS   H3X 2347   1.442   2.213   5.540 -0.0564 -0.1634  1.9972
   18SAPS   H3Y 2348   1.321   2.135   5.629 -2.1678 -0.3975 -1.1589
   18SAPS   C34 2349   1.291   2.347   5.635  0.1888  0.5935  0.2435
   18SAPS   H4X 2350   1.181   2.349   5.627  0.1541 -1.2577 -0.3147
   18SAPS   H4Y 2351   1.349   2.431   5.592  0.5260  0.4324  0.3730
   18SAPS   C35 2352   1.319   2.324   5.783  0.8172  0.4913 -0.0070
   18SAPS   H5X 2353   1.430   2.316   5.780  0.6854 -1.8727 -1.1618
   18SAPS   H5Y 2354   1.283   2.226   5.822  0.4229  1.3285  1.8448
   18SAPS   C36 2355   1.277   2.440   5.864 -0.2142  0.4332 -0.2055
   18SAPS   H6X 2356   1.168   2.463   5.867 -0.3274  0.9112 -3.5733
   18SAPS   H6Y 2357   1.312   2.534   5.817  0.6315  1.5579  2.4693
   18SAPS   C37 2358   1.328   2.423   6.013  0.8353  0.5086 -0.0771
   18SAPS   H7X 2359   1.426   2.371   6.010  0.2806 -0.5847  0.2672
   18SAPS   H7Y 2360   1.252   2.355   6.058  0.9200  0.5776  0.1717
   18SAPS   C38 2361   1.333   2.552   6.094 -0.4366  0.1782  0.6958
   18SAPS   H8X 2362   1.245   2.616   6.071 -0.4089  0.6348  1.7775
   18SAPS   H8Y 2363   1.423   2.610   6.062 -0.0490 -1.4586 -1.3978
   18SAPS   C39 2364   1.364   2.532   6.244  0.1830  0.2962 -0.0872
   18SAPS   H9X 2365   1.471   2.506   6.257 -0.2976 -0.9996  1.8029
   18SAPS   H9Y 2366   1.297   2.455   6.287 -1.1851  0.1509 -2.3151
   18SAPS  C310 2367   1.326   2.652   6.325  0.1730  0.3697 -0.4030
   18SAPS  H10X 2368   1.216   2.667   6.325  0.2426  0.9897  0.6826
   18SAPS  H10Y 2369   1.377   2.739   6.278  0.5651  1.3787  1.7351
   18SAPS  C311 2370   1.389   2.628   6.464  0.9058 -0.0140  0.2455
   18SAPS  H11X 2371   1.498   2.646   6.454  0.6883  1.3407  0.0987
   18SAPS  H11Y 2372   1.379   2.526   6.505  1.4047  0.3102  1.1957
   18SAPS  C312 2373   1.360   2.725   6.583 -0.5944 -0.6071 -0.0826
   18SAPS  H12X 2374   1.264   2.694   6.628 -1.1700  0.2367 -0.6835
   18SAPS  H12Y 2375   1.356   2.831   6.548  0.1901 -0.6445 -0.3195
   18SAPS  C313 2376   1.476   2.732   6.684 -0.4409 -0.0398 -0.3838
   18SAPS  H13X 2377   1.567   2.758   6.626 -0.8314  0.2202 -0.8909
   18SAPS  H13Y 2378   1.485   2.633   6.734 -0.6847 -0.2463 -0.7434
   18SAPS  C314 2379   1.456   2.836   6.792 -0.0079 -0.2426  0.3693
   18SAPS  H14X 2380   1.366   2.810   6.853 -0.4681 -0.8565 -0.5550
   18SAPS  H14Y 2381   1.440   2.935   6.744  0.4114 -1.2240 -1.8931
   18SAPS  C315 2382   1.573   2.849   6.884 -0.4033  0.5443 -0.3234
   18SAPS  H15X 2383   1.656   2.895   6.826  1.8182  0.4863  2.5744
   18SAPS  H15Y 2384   1.603   2.747   6.917 -0.4349  0.0236 -1.7992
   18SAPS  C316 2385   1.555   2.943   7.003  0.4424  0.3890 -0.2209
   18SAPS  H16X 2386   1.456   2.924   7.051  1.4434 -0.8347  1.4757
   18SAPS  H16Y 2387   1.560   3.047   6.966 -0.0860  1.1318  1.6971
   18SAPS  C317 2388   1.663   2.933   7.117  0.8927 -0.1046  0.6455
   18SAPS  H17X 2389   1.658   2.840   7.178  1.9530 -0.4616  0.2121
   18SAPS  H17Y 2390   1.635   3.016   7.185  0.7324  0.4005 -0.0363
   18SAPS  C318 2391   1.803   2.959   7.073 -0.5491 -0.1638 -0.5320
   18SAPS  H18X 2392   1.836   2.884   6.997 -0.7916 -0.5994 -0.2118
   18SAPS  H18Y 2393   1.869   2.958   7.162 -1.6542  1.1067  0.3339
   18SAPS  H18Z 2394   1.813   3.060   7.028 -1.5340  0.0545 -0.2683
   19SAPS     N 2395   2.220   6.019   3.927 -0.1854  0.1785 -0.2845
   19SAPS   HN1 2396   2.235   5.958   3.844  1.0097  0.0498  0.0055
   19SAPS   HN2 2397   2.178   5.958   4.000 -3.4519 -0.1669 -2.2371
   19SAPS   HN3 2398   2.144   6.088   3.911  0.2362  1.1264  1.5082
   19SAPS   C12 2399   2.349   6.075   3.949 -0.0805 -0.3265  0.1791
   19SAPS  H12A 2400   2.428   6.002   3.956  2.3361  1.8702 -2.0695
   19SAPS   C13 2401   2.399   6.169   3.837  0.0144  0.1223 -0.2972
   19SAPS  O13A 2402   2.321   6.211   3.745  0.2097 -0.3760 -0.3768
   19SAPS  O13B 2403   2.526   6.170   3.820  0.0175  0.0809 -0.1453
   19SAPS   C11 2404   2.345   6.159   4.081 -0.8868 -0.3009 -0.3111
   19SAPS  H11A 2405   2.263   6.232   4.063 -0.0351  0.3374 -1.8340
   19SAPS  H11B 2406   2.444   6.210   4.082 -0.2175 -1.5795  1.0784
   19SAPS     P 2407   2.221   6.058   4.292 -0.3294  0.0890 -0.1933
   19SAPS   O13 2408   2.106   6.021   4.204 -0.3296 -0.0759 -0.9108
   19SAPS   O14 2409   2.257   5.971   4.407 -0.3156 -0.0352  0.6338
   19SAPS   O12 2410   2.346   6.082   4.196 -0.1003  1.1440  0.2344
   19SAPS   O11 2411   2.178   6.202   4.350  0.1736  0.0232  0.1501
   19SAPS    C1 2412   2.262   6.276   4.437  0.2248 -0.5210 -0.1362
   19SAPS    HA 2413   2.362   6.233   4.456 -0.7181 -1.6860  2.7153
   19SAPS    HB 2414   2.278   6.375   4.391  1.7166 -1.1668 -1.0628
   19SAPS    C2 2415   2.209   6.301   4.579 -0.3771  0.5530  0.8227
   19SAPS    HS 2416   2.274   6.371   4.635  0.6994  0.7500 -0.6076
   19SAPS   O21 2417   2.195   6.173   4.652  0.3399 -0.3068  0.0452
   19SAPS   C21 2418   2.313   6.134   4.698 -0.6250  1.2472  0.5822
   19SAPS   O22 2419   2.410   6.205   4.713 -0.6601 -0.1543 -0.1246
   19SAPS   C22 2420   2.312   5.988   4.742  0.4070 -0.3297 -0.6701
   19SAPS   H2R 2421   2.237   5.982   4.823  2.0868 -1.3075  0.8855
   19SAPS   H2S 2422   2.274   5.929   4.656 -1.1834 -0.0522 -0.1762
   19SAPS    C3 2423   2.077   6.377   4.572 -0.7213 -0.2336 -0.0774
   19SAPS    HX 2424   2.021   6.330   4.489 -1.5843 -1.0919  0.9535
   19SAPS    HY 2425   2.106   6.480   4.543 -1.8121 -0.0540 -0.5367
   19SAPS   O31 2426   2.000   6.374   4.688 -0.0662 -0.4540 -0.1653
   19SAPS   C31 2427   2.047   6.446   4.787 -0.1119  0.5052  0.0672
   19SAPS   O32 2428   2.148   6.519   4.792 -0.2322  0.1205 -0.5927
   19SAPS   C32 2429   1.963   6.410   4.917  1.0681  0.4648  0.3133
   19SAPS   H2X 2430   1.899   6.325   4.886  1.1354 -0.0137  1.4347
   19SAPS   H2Y 2431   1.899   6.499   4.936 -0.9575 -0.5164 -1.5479
   19SAPS   C23 2432   2.457   5.955   4.794  0.4496 -0.1139  0.0979
   19SAPS   H3R 2433   2.537   5.969   4.718  0.4174  1.0187  0.2571
   19SAPS   H3S 2434   2.461   5.845   4.804  1.2409 -0.0781  0.1691
   19SAPS   C24 2435   2.480   6.017   4.932 -0.0254  1.1067 -0.0210
   19SAPS   H4R 2436   2.402   5.977   5.001 -0.4084 -1.3295 -1.7167
   19SAPS   H4S 2437   2.485   6.127   4.943  2.9985  1.0620 -0.1216
   19SAPS   C25 2438   2.615   5.972   4.974 -1.1112  0.2520  0.0972
   19SAPS   H5R 2439   2.681   5.922   4.901 -1.0347 -0.2505  0.5068
   19SAPS   C26 2440   2.656   5.974   5.099  0.5401  0.3163 -0.9386
   19SAPS   H6R 2441   2.758   5.942   5.123  0.6860  2.4470  1.6839
   19SAPS   C27 2442   2.584   6.039   5.218  0.0238 -0.4549  0.2668
   19SAPS   H7R 2443   2.548   6.135   5.175  1.7347  1.0999  2.0848
   19SAPS   H7S 2444   2.662   6.075   5.289 -0.2402  0.1247  0.2679
   19SAPS   C28 2445   2.486   5.944   5.283  0.1536  0.5078 -0.0606
   19SAPS   H8R 2446   2.439   5.868   5.219  0.7112 -1.5274  1.8495
   19SAPS   C29 2447   2.432   5.952   5.408 -0.0379 -0.2124  0.2168
   19SAPS   H9R 2448   2.362   5.877   5.447 -0.0468  0.2454  1.1108
   19SAPS  C210 2449   2.475   6.057   5.506 -0.8535  0.2088  0.2877
   19SAPS  H10R 2450   2.387   6.095   5.563 -0.7046 -0.1887  0.7978
   19SAPS  H10S 2451   2.506   6.151   5.456 -3.5839  0.3146 -1.3793
   19SAPS  C211 2452   2.595   6.012   5.586 -0.1668 -1.1745 -0.2569
   19SAPS  H11R 2453   2.679   5.979   5.522  1.1171  0.8431  0.2968
   19SAPS  C212 2454   2.610   6.024   5.716  0.4998 -0.6515 -0.0924
   19SAPS  H12R 2455   2.703   5.979   5.752  1.5875  0.8586 -0.9384
   19SAPS  C213 2456   2.518   6.067   5.832 -0.1751 -0.3816  0.0750
   19SAPS  H13R 2457   2.417   6.073   5.787  0.1205 -1.3416 -0.7486
   19SAPS  H13S 2458   2.546   6.172   5.857 -0.8445 -0.0193 -0.6515
   19SAPS  C214 2459   2.503   5.970   5.953  0.1914  0.0698  0.3261
   19SAPS  H14R 2460   2.435   5.886   5.933  0.0036  0.5154 -1.0569
   19SAPS  C215 2461   2.575   5.968   6.061 -0.4720 -0.3201 -0.4458
   19SAPS  H15R 2462   2.546   5.889   6.132  1.1890 -1.8193 -1.3528
   19SAPS  C216 2463   2.694   6.066   6.087  0.2083 -0.4163 -0.4005
   19SAPS  H16R 2464   2.702   6.150   6.015  2.3643 -0.6886 -0.5459
   19SAPS  H16S 2465   2.795   6.021   6.079  1.4127  2.1241 -0.5415
   19SAPS  C217 2466   2.671   6.126   6.229  0.6788  0.0987 -0.2739
   19SAPS  H17R 2467   2.569   6.169   6.239  1.0522  0.6947  1.2415
   19SAPS  H17S 2468   2.743   6.209   6.247  3.1594 -2.0825  0.5181
   19SAPS  C218 2469   2.704   6.032   6.351  1.1404  0.2915  0.7428
   19SAPS  H18R 2470   2.641   5.942   6.333  0.6057  0.6191  0.9493
   19SAPS  H18S 2471   2.659   6.085   6.438 -2.3467 -2.3600  0.7768
   19SAPS  C219 2472   2.852   6.010   6.364  0.0802  0.6567  0.0230
   19SAPS  H19R 2473   2.902   6.109   6.366 -1.2012  1.4259 -2.0033
   19SAPS  H19S 2474   2.893   5.966   6.271 -1.6170  1.0863 -0.9951
   19SAPS  C220 2475   2.900   5.929   6.486  0.0395  0.9929  0.0563
   19SAPS  H20R 2476   2.863   5.974   6.581 -2.6737 -1.9889  0.5650
   19SAPS  H20S 2477   3.011   5.922   6.479 -0.1235 -1.1446 -1.0571
   19SAPS  H20T 2478   2.869   5.823   6.485  1.6812  0.4818 -1.2085
   19SAPS   C33 2479   2.032   6.386   5.049 -0.9813  0.6742 -0.3793
   19SAPS   H3X 2480   1.963   6.399   5.135 -0.7184 -1.8224  0.3038
   19SAPS   H3Y 2481   2.117   6.455   5.065 -0.3021 -0.5945  1.9944
   19SAPS   C34 2482   2.083   6.239   5.062 -0.0956 -0.1584  1.0786
   19SAPS   H4X 2483   2.169   6.224   4.993  0.5668  0.0504  1.8498
   19SAPS   H4Y 2484   2.022   6.179   4.990  1.4777 -1.7602  0.9910
   19SAPS   C35 2485   2.104   6.182   5.196  0.0099  0.0850  0.6470
   19SAPS   H5X 2486   2.195   6.233   5.235  0.3317  0.2345 -0.2737
   19SAPS   H5Y 2487   2.138   6.079   5.174  2.4569  0.9294  0.1598
   19SAPS   C36 2488   1.980   6.163   5.284  0.0252 -0.4671  0.1914
   19SAPS   H6X 2489   1.901   6.112   5.226 -0.0348 -0.8852  0.6286
   19SAPS   H6Y 2490   1.938   6.262   5.311 -0.7756 -0.6738 -0.2671
   19SAPS   C37 2491   2.001   6.078   5.418 -0.0562  0.1296  0.0392
   19SAPS   H7X 2492   2.066   5.996   5.381 -0.1988  1.0310 -2.3442
   19SAPS   H7Y 2493   1.908   6.030   5.456 -1.1097  2.1948  0.1861
   19SAPS   C38 2494   2.059   6.161   5.527 -0.5915 -0.3141 -0.5155
   19SAPS   H8X 2495   1.990   6.245   5.543  0.8150  0.9258 -0.7032
   19SAPS   H8Y 2496   2.165   6.196   5.520 -0.1376 -1.7782 -1.7668
   19SAPS   C39 2497   2.049   6.082   5.660 -0.0127 -0.0351  0.0471
   19SAPS   H9X 2498   1.942   6.066   5.684  0.5598 -1.9009  1.7434
   19SAPS   H9Y 2499   2.099   6.142   5.739 -1.1666  0.8749  0.1078
   19SAPS  C310 2500   2.105   5.934   5.651  0.6015  1.7249  0.1288
   19SAPS  H10X 2501   2.201   5.947   5.596  0.9089 -2.2181 -0.5319
   19SAPS  H10Y 2502   2.036   5.865   5.598  1.8336  0.9883 -0.5677
   19SAPS  C311 2503   2.149   5.888   5.788  0.3932 -0.6783 -0.5089
   19SAPS  H11X 2504   2.233   5.952   5.825  0.9141 -1.5650 -0.1316
   19SAPS  H11Y 2505   2.169   5.779   5.794 -0.2470 -0.7609  0.1571
   19SAPS  C312 2506   2.030   5.902   5.896 -0.1771 -0.0689  0.0574
   19SAPS  H12X 2507   1.944   5.858   5.841  0.5394 -0.9907 -0.3496
   19SAPS  H12Y 2508   2.022   6.009   5.925  0.8306  0.0948 -0.2411
   19SAPS  C313 2509   2.047   5.817   6.022  0.1485 -0.1989 -0.3562
   19SAPS  H13X 2510   2.138   5.845   6.079  0.1461 -2.2418  0.7493
   19SAPS  H13Y 2511   2.071   5.714   5.988  3.1514 -0.0483  0.9824
   19SAPS  C314 2512   1.911   5.816   6.088  0.1898 -0.3294 -0.4293
   19SAPS  H14X 2513   1.844   5.772   6.012 -0.0558  1.6657 -1.4543
   19SAPS  H14Y 2514   1.873   5.918   6.112  2.8856  0.5850  0.4142
   19SAPS  C315 2515   1.895   5.717   6.194 -0.0718  0.7967 -0.5527
   19SAPS  H15X 2516   1.968   5.635   6.177  1.0926  1.5881  0.4374
   19SAPS  H15Y 2517   1.788   5.686   6.198 -0.4155  1.8690 -1.0442
   19SAPS  C316 2518   1.931   5.773   6.337  0.4972 -0.1046 -0.1452
   19SAPS  H16X 2519   1.867   5.864   6.345  1.4789  0.5324  0.7474
   19SAPS  H16Y 2520   2.040   5.795   6.338  1.0582 -2.6181 -0.5919
   19SAPS  C317 2521   1.915   5.690   6.464 -0.2739 -0.3098  0.2640
   19SAPS  H17X 2522   1.932   5.587   6.427  3.0078  0.4065 -0.5349
   19SAPS  H17Y 2523   1.807   5.710   6.482  0.6233  4.6421  1.6784
   19SAPS  C318 2524   2.005   5.748   6.577  0.3933 -0.1527  0.3437
   19SAPS  H18X 2525   2.115   5.746   6.563  0.2021 -0.2556 -1.2436
   19SAPS  H18Y 2526   1.994   5.683   6.667  2.7785  0.0685  0.8394
   19SAPS  H18Z 2527   1.973   5.851   6.603 -1.6440 -0.9409  1.2254
   20SAPS     N 2528   2.343   2.516   4.322  0.1407 -0.9340 -0.1008
   20SAPS   HN1 2529   2.348   2.534   4.220 -0.6457 -0.7488 -0.1121
   20SAPS   HN2 2530   2.268   2.580   4.355  0.4848  0.0682 -1.1866
   20SAPS   HN3 2531   2.434   2.533   4.371 -0.6636  1.4579  0.7335
   20SAPS   C12 2532   2.312   2.364   4.323  0.3204  0.6144  0.4262
   20SAPS  H12A 2533   2.222   2.350   4.264  0.5183  1.2942 -0.0488
   20SAPS   C13 2534   2.421   2.283   4.256  0.8566  0.7326  0.7863
   20SAPS  O13A 2535   2.524   2.340   4.209  0.2670  0.0120 -0.6215
   20SAPS  O13B 2536   2.399   2.166   4.223  0.0398  0.1363 -0.1053
   20SAPS   C11 2537   2.298   2.313   4.469  0.4916 -0.1894 -0.6236
   20SAPS  H11A 2538   2.396   2.328   4.519 -0.2593  1.1523  0.5229
   20SAPS  H11B 2539   2.261   2.208   4.468  1.0626 -0.5872  3.5664
   20SAPS     P 2540   2.212   2.459   4.663  0.0788 -0.3105 -0.2494
   20SAPS   O13 2541   2.345   2.524   4.661 -0.5835  0.9205 -0.8908
   20SAPS   O14 2542   2.094   2.542   4.702 -0.2321  0.1803  0.3626
   20SAPS   O12 2543   2.197   2.394   4.518  0.2136  0.6369  0.0033
   20SAPS   O11 2544   2.223   2.341   4.762 -0.7188 -0.0643  0.1675
   20SAPS    C1 2545   2.109   2.276   4.815  0.2557  0.1933 -0.1830
   20SAPS    HA 2546   2.028   2.261   4.739 -0.6664  3.2078  0.0749
   20SAPS    HB 2547   2.147   2.177   4.848  0.0886  0.3439  0.4556
   20SAPS    C2 2548   2.048   2.332   4.945  0.7508  0.3245  0.0676
   20SAPS    HS 2549   2.007   2.433   4.927  0.5741  0.2287 -0.0737
   20SAPS   O21 2550   2.150   2.332   5.042 -0.1819  0.3923  0.2934
   20SAPS   C21 2551   2.157   2.434   5.125 -0.7182  0.4105 -0.0293
   20SAPS   O22 2552   2.085   2.533   5.124  0.1698 -0.5314 -0.8945
   20SAPS   C22 2553   2.271   2.424   5.225  0.4658 -0.3658  0.0422
   20SAPS   H2R 2554   2.227   2.432   5.326 -1.0816 -0.4149 -0.5960
   20SAPS   H2S 2555   2.320   2.326   5.206 -0.9281 -1.6356  2.5173
   20SAPS    C3 2556   1.929   2.241   4.988 -0.3819 -1.5734 -0.6818
   20SAPS    HX 2557   1.976   2.141   4.996  0.7340 -0.9418  1.5271
   20SAPS    HY 2558   1.851   2.243   4.909 -1.0219  0.5411 -0.0748
   20SAPS   O31 2559   1.868   2.293   5.115 -0.2200  0.5210  0.0491
   20SAPS   C31 2560   1.789   2.403   5.114 -0.3688 -0.3425  0.0885
   20SAPS   O32 2561   1.757   2.465   5.012 -0.0621 -0.1470  0.1416
   20SAPS   C32 2562   1.761   2.451   5.258 -0.5707 -0.2571  1.3470
   20SAPS   H2X 2563   1.651   2.467   5.264 -0.7505 -0.4581 -0.7319
   20SAPS   H2Y 2564   1.811   2.550   5.265 -1.7604  0.2322  4.5134
   20SAPS   C23 2565   2.352   2.550   5.198 -0.2050  0.5381 -0.1383
   20SAPS   H3R 2566   2.295   2.638   5.234 -0.7756  1.7030 -3.5211
   20SAPS   H3S 2567   2.382   2.563   5.092  1.6359 -1.6033  0.0314
   20SAPS   C24 2568   2.487   2.531   5.282  0.4781  0.0950 -0.0424
   20SAPS   H4R 2569   2.466   2.525   5.391 -0.1092  1.7127 -0.0281
   20SAPS   H4S 2570   2.528   2.634   5.281  0.2838  0.1709 -0.5276
   20SAPS   C25 2571   2.577   2.436   5.213  0.1032 -0.1014 -0.1667
   20SAPS   H5R 2572   2.621   2.490   5.128  2.1682 -0.2353  0.7398
   20SAPS   C26 2573   2.613   2.309   5.248  0.3021 -0.0362 -0.3574
   20SAPS   H6R 2574   2.688   2.257   5.188  0.0074 -0.6122 -0.2337
   20SAPS   C27 2575   2.581   2.235   5.374 -0.3097  0.2252 -0.4968
   20SAPS   H7R 2576   2.502   2.286   5.433 -0.1414  0.1751 -0.2264
   20SAPS   H7S 2577   2.675   2.235   5.434 -0.4638  1.0138 -0.2416
   20SAPS   C28 2578   2.545   2.094   5.348 -0.2450 -0.3170  0.0367
   20SAPS   H8R 2579   2.620   2.047   5.283  0.8378  1.6807 -0.2372
   20SAPS   C29 2580   2.450   2.013   5.408 -0.1206 -0.1802 -1.4746
   20SAPS   H9R 2581   2.439   1.911   5.369  0.8625 -0.9359  0.1081
   20SAPS  C210 2582   2.344   2.066   5.504  0.4557  0.0456 -0.1498
   20SAPS  H10R 2583   2.392   2.094   5.600  0.0958  1.4482 -0.3510
   20SAPS  H10S 2584   2.283   1.981   5.539 -2.9988  1.9344 -1.1197
   20SAPS  C211 2585   2.239   2.172   5.464 -0.7396  0.6402  0.1797
   20SAPS  H11R 2586   2.204   2.148   5.363  2.0144 -1.3930 -0.3874
   20SAPS  C212 2587   2.203   2.280   5.539 -0.2884 -0.3389  0.0311
   20SAPS  H12R 2588   2.115   2.333   5.502 -0.9868 -0.7396  1.0795
   20SAPS  C213 2589   2.233   2.297   5.686  0.0030  0.0239  0.2751
   20SAPS  H13R 2590   2.326   2.356   5.706  0.5257 -0.5292 -0.4762
   20SAPS  H13S 2591   2.260   2.199   5.730 -0.0252 -1.9339 -3.6490
   20SAPS  C214 2592   2.117   2.351   5.768 -0.7131  0.5886 -0.7735
   20SAPS  H14R 2593   2.056   2.271   5.812 -0.4998  0.3788 -0.8531
   20SAPS  C215 2594   2.116   2.468   5.822 -0.1844 -0.6073  0.3369
   20SAPS  H15R 2595   2.027   2.488   5.884 -0.7096 -0.2675 -0.5089
   20SAPS  C216 2596   2.207   2.587   5.801  0.2514 -0.8044 -0.2276
   20SAPS  H16R 2597   2.299   2.572   5.740  1.4825  2.4455  0.5874
   20SAPS  H16S 2598   2.248   2.626   5.897  0.4357  3.1648 -1.7180
   20SAPS  C217 2599   2.138   2.712   5.735  0.6585  0.0658  1.8276
   20SAPS  H17R 2600   2.193   2.804   5.765  1.0122  0.2793  0.5932
   20SAPS  H17S 2601   2.037   2.726   5.778  0.1132  0.6267  0.4010
   20SAPS  C218 2602   2.132   2.693   5.581  0.3709 -0.0980 -0.5555
   20SAPS  H18R 2603   2.089   2.594   5.556  1.7535 -1.0794  0.7626
   20SAPS  H18S 2604   2.233   2.707   5.535 -0.0638  2.6935 -0.8637
   20SAPS  C219 2605   2.037   2.802   5.519  0.1560 -0.2657  0.2657
   20SAPS  H19R 2606   2.063   2.897   5.569 -0.2396 -1.9538  4.0297
   20SAPS  H19S 2607   1.934   2.767   5.542 -0.2879  0.1977 -0.9358
   20SAPS  C220 2608   2.059   2.828   5.372  0.3004 -0.2937 -1.3323
   20SAPS  H20R 2609   1.994   2.763   5.310  0.2308 -1.5594  0.0149
   20SAPS  H20S 2610   2.160   2.814   5.327 -0.4106 -1.4490 -2.6477
   20SAPS  H20T 2611   2.032   2.934   5.357 -0.1771 -0.0842  0.7860
   20SAPS   C33 2612   1.817   2.351   5.364 -0.4514 -0.1000 -0.0227
   20SAPS   H3X 2613   1.926   2.335   5.349 -0.5328 -0.8450  0.1305
   20SAPS   H3Y 2614   1.766   2.252   5.360 -3.3041  1.2778  0.0371
   20SAPS   C34 2615   1.795   2.408   5.508 -0.0194  0.5186  0.9951
   20SAPS   H4X 2616   1.707   2.474   5.511 -1.0832 -0.8573  1.2165
   20SAPS   H4Y 2617   1.891   2.457   5.536  2.1650 -3.1071  0.4972
   20SAPS   C35 2618   1.764   2.289   5.607 -0.3484 -0.9122  0.3633
   20SAPS   H5X 2619   1.843   2.212   5.599 -1.5167 -2.0543 -0.5632
   20SAPS   H5Y 2620   1.669   2.236   5.585 -0.0548 -1.5365  0.5779
   20SAPS   C36 2621   1.760   2.328   5.753  0.0843 -0.0476  0.2246
   20SAPS   H6X 2622   1.674   2.397   5.771 -0.3952 -0.7253  0.5638
   20SAPS   H6Y 2623   1.850   2.383   5.789  0.0491 -1.3819  2.5675
   20SAPS   C37 2624   1.720   2.220   5.853  0.0467  0.7732 -0.3064
   20SAPS   H7X 2625   1.787   2.132   5.843 -1.6149 -0.5060 -0.5432
   20SAPS   H7Y 2626   1.616   2.195   5.824  0.3603 -1.7135  0.5080
   20SAPS   C38 2627   1.710   2.276   5.999  0.0725 -0.6596  0.4674
   20SAPS   H8X 2628   1.648   2.368   5.992 -1.7361 -1.8499  0.1952
   20SAPS   H8Y 2629   1.814   2.302   6.029 -0.1165  0.6892  0.0467
   20SAPS   C39 2630   1.646   2.179   6.095  0.0288 -0.5292  0.2734
   20SAPS   H9X 2631   1.701   2.083   6.098 -1.6530 -1.5130  0.9514
   20SAPS   H9Y 2632   1.541   2.155   6.069 -0.5599  0.5884  1.5292
   20SAPS  C310 2633   1.631   2.245   6.235 -0.2144  0.8345 -0.5054
   20SAPS  H10X 2634   1.533   2.231   6.285 -0.0228 -1.1209 -0.6209
   20SAPS  H10Y 2635   1.632   2.355   6.219 -2.4683  0.9098 -0.4589
   20SAPS  C311 2636   1.740   2.188   6.328  0.4822 -0.3779 -0.1463
   20SAPS  H11X 2637   1.834   2.183   6.269  2.4487  2.7810  2.3853
   20SAPS  H11Y 2638   1.716   2.086   6.366  0.0698 -0.2489 -0.0509
   20SAPS  C312 2639   1.752   2.274   6.459 -0.6114  0.4182  0.2916
   20SAPS  H12X 2640   1.653   2.285   6.509 -1.2146  0.0500 -0.7833
   20SAPS  H12Y 2641   1.791   2.374   6.430  0.0704  0.8839  2.6021
   20SAPS  C313 2642   1.853   2.216   6.557 -0.3227 -0.0390 -0.2152
   20SAPS  H13X 2643   1.886   2.289   6.634  0.8829 -0.9199  0.1279
   20SAPS  H13Y 2644   1.942   2.190   6.495  0.5195 -0.3486  1.0910
   20SAPS  C314 2645   1.810   2.091   6.637 -0.5892 -0.0956  0.3226
   20SAPS  H14X 2646   1.749   2.028   6.569 -0.1658 -0.0976 -0.0598
   20SAPS  H14Y 2647   1.753   2.131   6.724  0.0779  1.4782  0.0604
   20SAPS  C315 2648   1.940   2.020   6.694  0.2278 -0.2882 -0.2653
   20SAPS  H15X 2649   1.996   2.093   6.756  0.3640 -0.2148 -0.4726
   20SAPS  H15Y 2650   2.013   2.010   6.611  0.7555  0.4180  0.0991
   20SAPS  C316 2651   1.910   1.894   6.775 -0.8420  0.1919  0.3596
   20SAPS  H16X 2652   1.878   1.809   6.713 -1.1771  0.7196 -0.1961
   20SAPS  H16Y 2653   1.829   1.917   6.848 -2.3176  1.8854 -1.6616
   20SAPS  C317 2654   2.037   1.849   6.853  0.0963  0.9781 -0.4468
   20SAPS  H17X 2655   2.001   1.760   6.908 -2.4627  1.9074 -0.5010
   20SAPS  H17Y 2656   2.059   1.931   6.925 -1.6187 -0.9640  2.5256
   20SAPS  C318 2657   2.152   1.804   6.761  0.2334  0.4073 -0.8170
   20SAPS  H18X 2658   2.231   1.881   6.746  0.0185  1.5496  2.9398
   20SAPS  H18Y 2659   2.116   1.770   6.662  0.2607 -3.9173  0.4186
   20SAPS  H18Z 2660   2.200   1.712   6.803  2.0361  1.0331 -1.4003
   21CHL1    C3 2661   1.557   5.979   7.867 -0.2260 -0.0064 -0.3914
   21CHL1    H3 2662   1.456   5.970   7.823  0.0672 -0.4484 -0.9837
   21CHL1    O3 2663   1.550   5.984   8.015 -0.7365  0.0347 -0.4064
   21CHL1   H3' 2664   1.597   6.066   8.031  0.4095 -0.4225 -1.2986
   21CHL1    C4 2665   1.645   5.861   7.822  0.1945 -0.0670 -0.3358
   21CHL1   H4A 2666   1.745   5.874   7.867 -1.0399  0.3614  2.4680
   21CHL1   H4B 2667   1.595   5.774   7.870  0.7733 -1.6251 -2.3871
   21CHL1    C5 2668   1.653   5.854   7.670  0.5355  0.0799 -0.5100
   21CHL1    C6 2669   1.611   5.747   7.603  0.3657 -0.2766  0.1371
   21CHL1    H6 2670   1.565   5.662   7.656 -0.5269 -0.9272 -1.6114
   21CHL1    C7 2671   1.632   5.737   7.455 -0.8483  0.7131 -0.3412
   21CHL1   H7A 2672   1.661   5.635   7.422  0.8366  0.9899  0.2104
   21CHL1   H7B 2673   1.534   5.752   7.404 -1.1606  1.3270  0.4325
   21CHL1    C8 2674   1.718   5.842   7.386 -1.1295  1.0832 -0.3928
   21CHL1    H8 2675   1.828   5.827   7.395 -1.3772 -1.0230 -0.5690
   21CHL1   C14 2676   1.686   5.854   7.239  0.1415  0.4798  0.2223
   21CHL1   H14 2677   1.580   5.882   7.222  0.4286  0.7635 -1.2396
   21CHL1   C15 2678   1.699   5.722   7.151  0.4738 -0.5252 -0.9379
   21CHL1  H15A 2679   1.795   5.669   7.169 -0.0923 -1.1295  0.4901
   21CHL1  H15B 2680   1.620   5.646   7.172  0.8366 -1.3207 -2.3384
   21CHL1   C16 2681   1.687   5.779   7.010  0.3333  0.3491 -1.1677
   21CHL1  H16A 2682   1.770   5.729   6.957  2.6882 -0.3338  2.7913
   21CHL1  H16B 2683   1.593   5.757   6.955 -0.0264  2.0794 -1.3256
   21CHL1   C17 2684   1.709   5.934   7.009  0.7470  0.1728 -0.3939
   21CHL1   H17 2685   1.608   5.977   6.994 -0.4887 -2.7072 -1.0121
   21CHL1   C13 2686   1.767   5.956   7.156 -0.1456  0.1403 -0.3713
   21CHL1   C18 2687   1.919   5.938   7.164 -0.3731 -0.0107  0.3690
   21CHL1  H18A 2688   1.962   5.848   7.116 -1.7293 -1.4785  1.7793
   21CHL1  H18B 2689   1.968   6.030   7.126 -1.1802 -0.2078 -1.2601
   21CHL1  H18C 2690   1.964   5.928   7.265 -1.4844  3.9050  1.4227
   21CHL1   C12 2691   1.729   6.098   7.217  0.0035 -0.0202  0.0666
   21CHL1  H12A 2692   1.777   6.191   7.179  0.2158 -0.4141 -0.6388
   21CHL1  H12B 2693   1.626   6.123   7.182  0.0855  0.6021  0.2462
   21CHL1   C11 2694   1.754   6.100   7.366 -0.5566  0.4434  0.0069
   21CHL1  H11A 2695   1.863   6.086   7.384 -0.0082  1.4820 -2.1528
   21CHL1  H11B 2696   1.712   6.196   7.402 -0.2226  1.4325 -2.1079
   21CHL1    C9 2697   1.690   5.982   7.446  0.7598  0.7610 -0.0070
   21CHL1    H9 2698   1.579   5.984   7.434  0.3200 -3.4700  1.5448
   21CHL1   C10 2699   1.700   5.987   7.603  0.1788  0.6731  0.5856
   21CHL1   C19 2700   1.847   6.017   7.644  0.2354  0.1739  0.4053
   21CHL1  H19A 2701   1.873   6.119   7.609 -0.0157 -0.4389 -1.6794
   21CHL1  H19B 2702   1.860   6.031   7.754 -2.1475  2.9009  0.4594
   21CHL1  H19C 2703   1.914   5.936   7.608  1.0155  0.3279  1.4639
   21CHL1    C1 2704   1.607   6.103   7.654 -0.4743 -0.7377 -0.1246
   21CHL1   H1A 2705   1.638   6.204   7.619 -2.3831  0.9803  2.7002
   21CHL1   H1B 2706   1.503   6.103   7.614  0.1156 -0.6809 -1.7140
   21CHL1    C2 2707   1.602   6.115   7.809 -0.3268  0.4418 -0.1416
   21CHL1   H2A 2708   1.521   6.184   7.838  1.2435  1.8415  1.0942
   21CHL1   H2B 2709   1.700   6.147   7.850 -0.4407 -0.0825  0.5570
   21CHL1   C20 2710   1.780   5.995   6.891  0.0547  0.3161  0.0884
   21CHL1   H20 2711   1.882   5.951   6.891 -1.4275 -3.5226  0.3365
   21CHL1   C21 2712   1.807   6.147   6.894  0.7133 -0.1186 -0.2447
   21CHL1  H21A 2713   1.718   6.198   6.935  1.3872  1.3874 -0.5971
   21CHL1  H21B 2714   1.827   6.189   6.793 -1.9736 -0.4363 -1.0037
   21CHL1  H21C 2715   1.884   6.174   6.969  1.1713  0.2436 -0.8337
   21CHL1   C22 2716   1.727   5.944   6.758 -0.3217 -0.1718  0.2975
   21CHL1  H22A 2717   1.804   5.950   6.679 -1.0355 -0.3659 -0.4308
   21CHL1  H22B 2718   1.710   5.834   6.755 -0.0147 -0.2010 -1.1775
   21CHL1   C23 2719   1.595   6.018   6.708  0.1578  0.2504 -0.2374
   21CHL1  H23A 2720   1.517   6.004   6.785 -0.1134  0.5415 -0.4543
   21CHL1  H23B 2721   1.626   6.125   6.710  3.1962 -0.5488  0.4701
   21CHL1   C24 2722   1.542   5.967   6.572  0.0860  0.3390  0.0212
   21CHL1  H24A 2723   1.625   5.985   6.501  0.1515  2.3404  0.5602
   21CHL1  H24B 2724   1.533   5.856   6.574  1.7436  0.1350  2.9596
   21CHL1   C25 2725   1.410   6.024   6.517 -0.1332  0.7155  0.2338
   21CHL1   H25 2726   1.390   5.986   6.414  1.0668  0.0827  0.2209
   21CHL1   C26 2727   1.290   5.985   6.612  0.2370 -0.2404 -0.7989
   21CHL1  H26A 2728   1.193   6.020   6.573 -0.7462  0.0512  1.7131
   21CHL1  H26B 2729   1.281   5.876   6.631 -0.9798 -0.1368 -0.7374
   21CHL1  H26C 2730   1.305   6.033   6.712  1.2591 -2.3114  0.1037
   21CHL1   C27 2731   1.411   6.179   6.515  0.1573 -0.3392 -0.7552
   21CHL1  H27A 2732   1.328   6.231   6.462  1.5346  3.2102  0.2250
   21CHL1  H27B 2733   1.401   6.207   6.622  0.0645 -3.2407  0.0804
   21CHL1  H27C 2734   1.503   6.233   6.481 -0.4275  1.2986  0.1674
   22CHL1    C3 2735   3.922   5.949   0.059  0.3167  0.4686 -0.2309
   22CHL1    H3 2736   3.829   6.008   0.047 -0.4243 -0.6814 -0.1870
   22CHL1    O3 2737   3.933   5.901   0.190 -0.4561  0.3844 -0.2394
   22CHL1   H3' 2738   3.956   5.981   0.237 -1.5072  0.2301  0.5734
   22CHL1    C4 2739   3.902   5.830  -0.040 -0.9428 -0.4912 -0.1667
   22CHL1   H4A 2740   3.974   5.750  -0.016 -1.7485 -1.0381  0.4636
   22CHL1   H4B 2741   3.803   5.788  -0.012 -0.3806 -1.8794 -0.1707
   22CHL1    C5 2742   3.899   5.864  -0.193  0.0191  0.1225 -0.1405
   22CHL1    C6 2743   3.799   5.838  -0.273  0.1083  0.6924  0.6435
   22CHL1    H6 2744   3.716   5.779  -0.231 -0.5336  1.3530  0.3452
   22CHL1    C7 2745   3.789   5.858  -0.421  0.4401 -0.3679  0.1717
   22CHL1   H7A 2746   3.743   5.771  -0.472 -0.4444  0.5054 -0.5607
   22CHL1   H7B 2747   3.711   5.933  -0.445 -0.9277 -1.2041  1.7500
   22CHL1    C8 2748   3.926   5.903  -0.483  0.1318 -0.2602 -0.7091
   22CHL1    H8 2749   3.995   5.816  -0.477 -0.7550 -0.9720 -0.6680
   22CHL1   C14 2750   3.907   5.953  -0.619  0.1298  0.3158  0.0789
   22CHL1   H14 2751   3.852   6.049  -0.604  0.8370  0.9405 -1.1536
   22CHL1   C15 2752   3.836   5.857  -0.714  0.2475 -0.1527  0.0011
   22CHL1  H15A 2753   3.875   5.754  -0.704  0.0420 -0.0804  1.8114
   22CHL1  H15B 2754   3.726   5.865  -0.698  0.2024 -0.0134 -0.3536
   22CHL1   C16 2755   3.871   5.923  -0.846 -0.3883  0.0402  0.4558
   22CHL1  H16A 2756   3.905   5.845  -0.917  0.2211  1.3074 -0.7056
   22CHL1  H16B 2757   3.780   5.971  -0.888  0.3797 -0.6625 -2.2003
   22CHL1   C17 2758   3.992   6.027  -0.828  0.8352 -0.0579  0.6825
   22CHL1   H17 2759   3.946   6.127  -0.813  1.3993  0.3167 -0.0151
   22CHL1   C13 2760   4.038   5.997  -0.685 -0.3851  0.5187  0.5999
   22CHL1   C18 2761   4.131   5.870  -0.703 -0.1394  0.2856 -0.1549
   22CHL1  H18A 2762   4.151   5.818  -0.607  0.6465  0.7929 -0.0322
   22CHL1  H18B 2763   4.080   5.799  -0.772 -0.8097  0.6354 -0.0330
   22CHL1  H18C 2764   4.233   5.889  -0.743  0.5068 -1.1267  0.7364
   22CHL1   C12 2765   4.105   6.108  -0.601  0.8468 -0.6649  0.8300
   22CHL1  H12A 2766   4.206   6.134  -0.637  0.8143  0.9532  1.8142
   22CHL1  H12B 2767   4.041   6.197  -0.619 -0.4825 -1.7755 -0.1822
   22CHL1   C11 2768   4.114   6.079  -0.454  0.4404  0.3850 -0.3566
   22CHL1  H11A 2769   4.201   6.010  -0.453  1.8032  1.9551 -2.3635
   22CHL1  H11B 2770   4.151   6.164  -0.392  1.0188  0.4441 -0.7733
   22CHL1    C9 2771   3.990   6.010  -0.388 -0.1060 -0.2048 -0.3414
   22CHL1    H9 2772   3.912   6.089  -0.382 -0.7919 -0.8151 -0.9956
   22CHL1   C10 2773   4.016   5.954  -0.245  0.0798 -0.2703  0.1607
   22CHL1   C19 2774   4.139   5.855  -0.238 -0.0187  0.0604 -0.3852
   22CHL1  H19A 2775   4.238   5.904  -0.252 -0.1334  0.1100 -1.0291
   22CHL1  H19B 2776   4.147   5.809  -0.137  2.8773 -0.2923 -0.6729
   22CHL1  H19C 2777   4.129   5.774  -0.313 -0.1935  0.9649 -1.3627
   22CHL1    C1 2778   4.034   6.073  -0.145  0.4181  0.3631  0.1912
   22CHL1   H1A 2779   4.121   6.135  -0.173  1.3483 -0.2575  1.5835
   22CHL1   H1B 2780   3.938   6.128  -0.155  0.0771 -0.3977 -0.8253
   22CHL1    C2 2781   4.047   6.028   0.006 -0.1138 -0.8794 -0.9242
   22CHL1   H2A 2782   4.059   6.123   0.061 -1.6993  0.8679 -3.3779
   22CHL1   H2B 2783   4.140   5.968   0.010 -1.3936 -2.9485 -0.4480
   22CHL1   C20 2784   4.079   6.036  -0.945  0.8120  0.1040 -0.3879
   22CHL1   H20 2785   4.130   5.939  -0.964  0.3612 -0.0024 -1.1196
   22CHL1   C21 2786   4.188   6.151  -0.922  0.6610  0.1829  0.5079
   22CHL1  H21A 2787   4.137   6.240  -0.879  0.3527 -0.0685  0.6712
   22CHL1  H21B 2788   4.236   6.170  -1.020 -1.1838  0.4422 -0.3952
   22CHL1  H21C 2789   4.266   6.116  -0.851 -0.7497 -0.8497  1.5946
   22CHL1   C22 2790   3.998   6.070  -1.075 -0.4026 -0.4685 -0.8708
   22CHL1  H22A 2791   3.902   6.013  -1.072 -0.7918 -0.0973 -3.5102
   22CHL1  H22B 2792   3.972   6.178  -1.065  1.3033 -0.1140  0.1571
   22CHL1   C23 2793   4.067   6.056  -1.209 -0.6411 -0.8220 -0.3670
   22CHL1  H23A 2794   4.149   6.132  -1.210 -1.5353  0.1827 -2.0522
   22CHL1  H23B 2795   4.105   5.952  -1.209  1.1984 -0.1982 -1.0535
   22CHL1   C24 2796   3.972   6.075  -1.326 -0.4546  0.2349  0.7460
   22CHL1  H24A 2797   3.903   5.988  -1.324 -0.2988  0.0792  3.6683
   22CHL1  H24B 2798   3.901   6.160  -1.327 -1.2758 -0.4410  0.1564
   22CHL1   C25 2799   4.055   6.065  -1.458 -0.0722  0.2260 -0.2425
   22CHL1   H25 2800   4.141   6.136  -1.453  0.8743 -0.8122 -1.3511
   22CHL1   C26 2801   4.111   5.920  -1.482  0.5548 -0.4002 -0.0598
   22CHL1  H26A 2802   4.174   5.878  -1.400  1.8345  2.7750  0.7294
   22CHL1  H26B 2803   4.030   5.848  -1.506 -1.6437  1.7181  0.6492
   22CHL1  H26C 2804   4.190   5.921  -1.559 -0.4728 -0.1546 -1.1402
   22CHL1   C27 2805   3.981   6.105  -1.589 -0.0366 -0.1371  0.3299
   22CHL1  H27A 2806   3.945   6.210  -1.588 -3.4848 -1.1685  1.9952
   22CHL1  H27B 2807   4.043   6.078  -1.677 -0.0389  2.9486 -0.7521
   22CHL1  H27C 2808   3.892   6.039  -1.602  0.4258 -0.8938  0.9341
   23CHL1    C3 2809   2.027   5.847   8.225 -0.0125  0.2709 -0.1668
   23CHL1    H3 2810   1.961   5.902   8.154 -2.6994 -3.3957 -0.8013
   23CHL1    O3 2811   1.995   5.865   8.361  0.6998 -0.4910 -0.2047
   23CHL1   H3' 2812   2.065   5.818   8.407 -1.0332 -2.5605  0.4977
   23CHL1    C4 2813   2.023   5.697   8.198  0.3299 -0.5558 -0.3248
   23CHL1   H4A 2814   2.109   5.645   8.246  0.2086  0.1035  0.6329
   23CHL1   H4B 2815   1.933   5.646   8.239  0.3511  0.7287  1.4283
   23CHL1    C5 2816   2.044   5.682   8.051  0.2232 -0.0578 -0.1123
   23CHL1    C6 2817   1.948   5.633   7.974 -0.1717 -0.8228  0.3950
   23CHL1    H6 2818   1.853   5.600   8.020 -1.4771  2.1223  0.0245
   23CHL1    C7 2819   1.958   5.626   7.820 -0.5925  0.5632 -0.4282
   23CHL1   H7A 2820   1.932   5.532   7.766 -0.4402  1.9490 -3.0284
   23CHL1   H7B 2821   1.883   5.699   7.782 -0.6902 -0.1608 -1.6813
   23CHL1    C8 2822   2.101   5.645   7.777 -0.4419  0.1841 -0.2191
   23CHL1    H8 2823   2.158   5.551   7.794 -0.5597 -0.0574 -1.1330
   23CHL1   C14 2824   2.093   5.683   7.627  0.3702  0.4278 -0.8071
   23CHL1   H14 2825   2.067   5.791   7.626 -3.0851 -0.3021 -0.3482
   23CHL1   C15 2826   1.987   5.598   7.539 -0.0077 -0.2910  0.3692
   23CHL1  H15A 2827   1.991   5.497   7.585 -0.9400  0.2611  1.7361
   23CHL1  H15B 2828   1.885   5.642   7.541  0.6643  1.2795  1.8549
   23CHL1   C16 2829   2.046   5.613   7.402 -0.2380 -0.5194 -0.2198
   23CHL1  H16A 2830   2.069   5.517   7.349 -1.0938 -0.2051 -1.2034
   23CHL1  H16B 2831   1.980   5.680   7.342  0.5094  0.6913  0.2770
   23CHL1   C17 2832   2.183   5.685   7.411  0.2866 -0.1927 -0.7995
   23CHL1   H17 2833   2.165   5.794   7.406  0.8141 -0.0708 -0.1496
   23CHL1   C13 2834   2.233   5.678   7.563  0.8521 -0.1104 -0.2765
   23CHL1   C18 2835   2.304   5.542   7.578  0.7058 -0.2536 -0.3352
   23CHL1  H18A 2836   2.239   5.465   7.531  1.1739  0.9336 -3.1872
   23CHL1  H18B 2837   2.398   5.563   7.521  0.7228  1.5209  0.2686
   23CHL1  H18C 2838   2.330   5.499   7.677 -2.5173 -3.6486 -0.7532
   23CHL1   C12 2839   2.313   5.796   7.626  0.0027  0.4606 -0.4741
   23CHL1  H12A 2840   2.417   5.796   7.586  0.4949 -0.7810  0.7253
   23CHL1  H12B 2841   2.258   5.889   7.598 -0.5055  0.6643  1.1371
   23CHL1   C11 2842   2.317   5.798   7.781  0.7953 -0.2754  0.5670
   23CHL1  H11A 2843   2.386   5.712   7.799  0.7533 -0.6135 -0.7689
   23CHL1  H11B 2844   2.362   5.879   7.842  0.5661 -0.9175  1.6152
   23CHL1    C9 2845   2.175   5.754   7.849 -0.0392 -0.8592  0.3880
   23CHL1    H9 2846   2.115   5.846   7.834  1.3233  0.6436  3.1821
   23CHL1   C10 2847   2.177   5.744   8.000 -0.7679 -0.3063  0.6518
   23CHL1   C19 2848   2.290   5.644   8.040  0.7179  0.5192 -0.3348
   23CHL1  H19A 2849   2.391   5.675   8.005  0.8889  1.9395  1.2894
   23CHL1  H19B 2850   2.292   5.648   8.151 -1.0946 -0.5666 -0.2272
   23CHL1  H19C 2851   2.265   5.540   8.011 -0.0135  0.6656 -0.2530
   23CHL1    C1 2852   2.207   5.888   8.062  0.2848  0.6354  0.1326
   23CHL1   H1A 2853   2.312   5.920   8.046  0.4272 -0.7206 -2.1737
   23CHL1   H1B 2854   2.134   5.951   8.006 -1.1873 -0.1690  1.0749
   23CHL1    C2 2855   2.173   5.898   8.208  0.2327  0.3322  0.1212
   23CHL1   H2A 2856   2.179   6.006   8.235 -0.9836  0.4263  0.0930
   23CHL1   H2B 2857   2.246   5.842   8.269 -0.1612 -1.9568 -1.3951
   23CHL1   C20 2858   2.277   5.652   7.296 -0.0675  0.8260  0.1938
   23CHL1   H20 2859   2.315   5.549   7.315  1.1181  1.0388 -0.9044
   23CHL1   C21 2860   2.405   5.739   7.294  0.3040 -0.2332  0.8602
   23CHL1  H21A 2861   2.470   5.689   7.218  0.5766 -1.5974  1.9659
   23CHL1  H21B 2862   2.461   5.750   7.389  1.1869 -0.2091  0.3527
   23CHL1  H21C 2863   2.377   5.843   7.264 -0.5647  0.0332  2.4977
   23CHL1   C22 2864   2.224   5.623   7.154 -0.2894 -0.0008 -0.6847
   23CHL1  H22A 2865   2.125   5.576   7.173 -0.8382  2.2555  3.1235
   23CHL1  H22B 2866   2.202   5.716   7.097  1.2447  0.2613 -0.8751
   23CHL1   C23 2867   2.311   5.528   7.067 -0.1677 -0.5086  0.3633
   23CHL1  H23A 2868   2.406   5.583   7.050 -0.3899 -0.6446 -1.4754
   23CHL1  H23B 2869   2.342   5.433   7.116  2.0800 -0.4897 -0.8751
   23CHL1   C24 2870   2.233   5.500   6.940  0.2860 -0.0870  0.2230
   23CHL1  H24A 2871   2.145   5.446   6.982 -1.9005  3.9149  1.3388
   23CHL1  H24B 2872   2.191   5.591   6.890 -2.5392 -0.8117  1.1170
   23CHL1   C25 2873   2.320   5.426   6.840 -0.5375  0.0097 -0.2700
   23CHL1   H25 2874   2.389   5.503   6.799 -0.7057  0.2745 -0.0663
   23CHL1   C26 2875   2.417   5.315   6.898  1.6951  0.3663 -0.5977
   23CHL1  H26A 2876   2.474   5.278   6.810 -1.2551  2.3435 -3.5879
   23CHL1  H26B 2877   2.489   5.337   6.980  1.2478  1.1283 -0.4028
   23CHL1  H26C 2878   2.340   5.242   6.932  1.3173  0.2956 -1.5821
   23CHL1   C27 2879   2.231   5.381   6.729  0.3502  0.6475 -0.0868
   23CHL1  H27A 2880   2.183   5.461   6.670  0.6400  0.2060 -0.9483
   23CHL1  H27B 2881   2.293   5.327   6.654 -1.3979 -0.1919 -0.9820
   23CHL1  H27C 2882   2.163   5.307   6.776  2.0355  0.1776  1.7923
   24CHL1    C3 2883   2.111   6.508   8.181  0.5062 -0.3798  0.0025
   24CHL1    H3 2884   2.121   6.613   8.144  0.7708 -0.4203 -0.0427
   24CHL1    O3 2885   2.097   6.500   8.323  0.3216  0.0105  0.2525
   24CHL1   H3' 2886   2.112   6.405   8.336  0.4229  0.0833  0.7017
   24CHL1    C4 2887   1.992   6.438   8.105  0.4811  0.0244  0.3994
   24CHL1   H4A 2888   1.975   6.338   8.149  1.5597  0.2251  1.3525
   24CHL1   H4B 2889   1.897   6.489   8.130 -0.2766 -0.6186 -1.0855
   24CHL1    C5 2890   2.009   6.448   7.954 -0.4008  0.0903 -0.1055
   24CHL1    C6 2891   1.913   6.483   7.871  0.1145 -0.5780  0.4932
   24CHL1    H6 2892   1.825   6.526   7.921  1.1937  1.3064  0.8535
   24CHL1    C7 2893   1.920   6.494   7.718  0.4769  0.1799 -0.5055
   24CHL1   H7A 2894   1.822   6.452   7.688 -1.2158  3.7238 -0.4993
   24CHL1   H7B 2895   1.929   6.596   7.673 -0.9391 -0.7146 -3.0308
   24CHL1    C8 2896   2.042   6.413   7.666 -0.3809 -1.0569 -0.2654
   24CHL1    H8 2897   2.005   6.308   7.669  2.0717 -1.9704  2.6897
   24CHL1   C14 2898   2.065   6.452   7.520 -0.2127 -0.1762  0.1486
   24CHL1   H14 2899   2.102   6.557   7.522  0.2340 -0.3490  1.7704
   24CHL1   C15 2900   1.952   6.457   7.419 -0.0681 -0.2296  0.3856
   24CHL1  H15A 2901   1.889   6.369   7.445 -0.1026 -1.2855 -2.8902
   24CHL1  H15B 2902   1.899   6.555   7.423  0.8394  0.4813 -2.7496
   24CHL1   C16 2903   2.012   6.438   7.281 -0.4341  0.6898 -0.0045
   24CHL1  H16A 2904   1.964   6.351   7.230 -0.6145  1.0238 -0.4074
   24CHL1  H16B 2905   1.981   6.523   7.217 -2.0979  0.4508  0.4379
   24CHL1   C17 2906   2.172   6.430   7.311 -0.0845 -0.8056  0.6237
   24CHL1   H17 2907   2.208   6.535   7.312  0.7714 -1.0678 -0.1503
   24CHL1   C13 2908   2.181   6.382   7.451  0.1622 -0.1538 -0.6930
   24CHL1   C18 2909   2.146   6.223   7.443 -0.0512 -0.4959  0.5134
   24CHL1  H18A 2910   2.228   6.155   7.413  0.8860  0.7174  0.2300
   24CHL1  H18B 2911   2.115   6.195   7.546  0.9332 -0.5898  0.7950
   24CHL1  H18C 2912   2.068   6.200   7.367 -0.5936  0.3027  0.8128
   24CHL1   C12 2913   2.313   6.414   7.530 -0.0549 -1.1159  0.5176
   24CHL1  H12A 2914   2.392   6.347   7.489 -1.9747 -2.3803 -1.3874
   24CHL1  H12B 2915   2.342   6.520   7.518  1.4218 -1.4334  1.0798
   24CHL1   C11 2916   2.296   6.381   7.682 -0.6182 -0.4353 -0.4287
   24CHL1  H11A 2917   2.277   6.271   7.682  0.3423 -0.6530  1.4100
   24CHL1  H11B 2918   2.393   6.389   7.736 -0.3899 -1.1737 -0.7117
   24CHL1    C9 2919   2.167   6.442   7.754  0.1668  0.3366 -0.5047
   24CHL1    H9 2920   2.170   6.553   7.759 -1.4239  0.3478  1.2303
   24CHL1   C10 2921   2.149   6.407   7.907 -0.5972 -0.6822  0.4325
   24CHL1   C19 2922   2.160   6.250   7.918 -1.0797 -0.1552 -0.0779
   24CHL1  H19A 2923   2.140   6.222   8.023 -1.5422  0.0966 -0.0951
   24CHL1  H19B 2924   2.082   6.195   7.862 -0.2269 -1.2683 -0.2078
   24CHL1  H19C 2925   2.261   6.218   7.884 -1.3007  0.7015 -1.6757
   24CHL1    C1 2926   2.272   6.463   7.992 -0.2284 -0.2116 -0.1966
   24CHL1   H1A 2927   2.360   6.405   7.957 -0.6182  0.0948 -1.7596
   24CHL1   H1B 2928   2.278   6.571   7.969  0.4136 -0.1214  0.3697
   24CHL1    C2 2929   2.246   6.451   8.140  0.6447 -0.4037 -0.0682
   24CHL1   H2A 2930   2.322   6.508   8.200 -0.3351 -1.1073  1.9424
   24CHL1   H2B 2931   2.262   6.347   8.177  1.5911 -0.6131 -1.0151
   24CHL1   C20 2932   2.253   6.360   7.196 -0.0327 -0.2810  0.0083
   24CHL1   H20 2933   2.339   6.302   7.236  0.2742  1.0376  1.3530
   24CHL1   C21 2934   2.316   6.471   7.110  0.1269 -0.3974  0.7192
   24CHL1  H21A 2935   2.357   6.555   7.170  1.0574 -0.4654  0.2095
   24CHL1  H21B 2936   2.244   6.515   7.038  3.1342  1.0356 -1.6792
   24CHL1  H21C 2937   2.395   6.415   7.056 -0.1898 -2.0398  1.9027
   24CHL1   C22 2938   2.173   6.253   7.113  0.0321 -0.7697  0.3874
   24CHL1  H22A 2939   2.130   6.179   7.184 -0.3025  0.6883  1.7859
   24CHL1  H22B 2940   2.099   6.299   7.044  4.0062  0.1383 -3.8096
   24CHL1   C23 2941   2.257   6.170   7.005  0.7689  0.9524  1.2685
   24CHL1  H23A 2942   2.282   6.240   6.923 -0.6947  0.7683  0.6266
   24CHL1  H23B 2943   2.345   6.132   7.062  1.3346 -2.2543 -1.4489
   24CHL1   C24 2944   2.180   6.044   6.954 -0.0408  0.5749  0.4920
   24CHL1  H24A 2945   2.164   5.974   7.039 -3.1430 -2.8737 -2.5521
   24CHL1  H24B 2946   2.077   6.076   6.927 -0.1157  0.9858  1.2643
   24CHL1   C25 2947   2.233   5.959   6.841  0.1417  0.2240  0.2474
   24CHL1   H25 2948   2.158   5.880   6.820  1.0030 -1.1524  2.0232
   24CHL1   C26 2949   2.268   6.046   6.721  1.1625  0.4653 -0.5535
   24CHL1  H26A 2950   2.348   6.120   6.743  0.7556  1.0829 -1.0947
   24CHL1  H26B 2951   2.298   5.988   6.631  1.3734 -1.4403  0.6819
   24CHL1  H26C 2952   2.174   6.103   6.704  1.8527  2.6150  2.0110
   24CHL1   C27 2953   2.361   5.893   6.882 -0.3667 -0.0316  0.2611
   24CHL1  H27A 2954   2.391   5.829   6.796  0.4822 -1.4720  1.5863
   24CHL1  H27B 2955   2.443   5.963   6.907 -0.7045  0.5270 -0.1672
   24CHL1  H27C 2956   2.338   5.827   6.968 -0.3541 -2.1345 -1.2472
   25CHL1    C3 2957   0.021   1.388   8.267  0.2085 -0.5839  0.4430
   25CHL1    H3 2958  -0.067   1.323   8.246 -0.3568  0.7973 -1.7585
   25CHL1    O3 2959   0.053   1.366   8.406 -0.3661  0.1086 -0.4639
   25CHL1   H3' 2960  -0.023   1.404   8.452  0.7113  2.5264 -0.5634
   25CHL1    C4 2961   0.133   1.354   8.171 -0.8451 -0.1228  0.0564
   25CHL1   H4A 2962   0.215   1.427   8.187 -1.3110  0.9047 -1.9160
   25CHL1   H4B 2963   0.176   1.253   8.187  0.3011  0.0008 -1.9909
   25CHL1    C5 2964   0.101   1.387   8.024  0.5896  0.4112 -0.5988
   25CHL1    C6 2965   0.117   1.280   7.938  1.3505 -0.3036  0.0514
   25CHL1    H6 2966   0.164   1.184   7.965  2.2283  0.0883 -0.0637
   25CHL1    C7 2967   0.064   1.291   7.797  0.5549  0.3766 -0.3200
   25CHL1   H7A 2968   0.140   1.243   7.732 -1.0600  1.2913 -3.0565
   25CHL1   H7B 2969  -0.029   1.236   7.774  1.6079 -0.8492 -1.8673
   25CHL1    C8 2970   0.039   1.437   7.757  0.2387  0.1408 -0.5231
   25CHL1    H8 2971   0.139   1.487   7.755  1.1801 -1.4983  1.4961
   25CHL1   C14 2972  -0.035   1.433   7.626  0.2330  0.6449  0.4094
   25CHL1   H14 2973  -0.118   1.360   7.642  1.4062 -0.6933  0.5910
   25CHL1   C15 2974   0.045   1.371   7.507  0.0940  0.6938 -0.5184
   25CHL1  H15A 2975   0.146   1.417   7.506  1.0230 -1.0904  1.7465
   25CHL1  H15B 2976   0.058   1.260   7.500  1.4754  0.8891 -1.5864
   25CHL1   C16 2977  -0.028   1.410   7.377 -0.2642 -0.1018  0.2668
   25CHL1  H16A 2978   0.034   1.457   7.297 -0.1835  2.2079  1.6048
   25CHL1  H16B 2979  -0.088   1.325   7.338  1.7482 -1.6113  0.3230
   25CHL1   C17 2980  -0.134   1.515   7.427  0.3124 -0.4088  0.3510
   25CHL1   H17 2981  -0.234   1.471   7.449 -0.5782  1.8018  1.0379
   25CHL1   C13 2982  -0.090   1.559   7.570  0.0153 -0.9762 -0.4192
   25CHL1   C18 2983   0.021   1.671   7.555 -0.2145  0.3104  0.5626
   25CHL1  H18A 2984   0.085   1.679   7.645 -0.8136  0.5224  0.9794
   25CHL1  H18B 2985   0.091   1.650   7.472 -0.8341  1.8464 -0.3853
   25CHL1  H18C 2986  -0.027   1.768   7.530  0.2598  0.6063  0.7942
   25CHL1   C12 2987  -0.198   1.609   7.670 -0.5828  0.3914  0.5891
   25CHL1  H12A 2988  -0.250   1.696   7.624  2.7637  0.8378 -2.8597
   25CHL1  H12B 2989  -0.275   1.529   7.680  0.6512 -0.7439  1.3403
   25CHL1   C11 2990  -0.135   1.623   7.810 -0.1283 -0.0213  0.5513
   25CHL1  H11A 2991  -0.061   1.705   7.805  0.4909 -0.6247 -0.6617
   25CHL1  H11B 2992  -0.212   1.646   7.887  0.3621  2.5805  0.3722
   25CHL1    C9 2993  -0.055   1.497   7.861  0.0774 -0.2240 -0.8254
   25CHL1    H9 2994  -0.133   1.420   7.882 -1.2238  1.0963 -0.5955
   25CHL1   C10 2995   0.030   1.519   7.989  0.0702  0.3678  0.2330
   25CHL1   C19 2996   0.120   1.647   7.986  0.0057 -0.0989  0.4808
   25CHL1  H19A 2997   0.055   1.737   7.984 -0.8416 -0.6567 -3.2201
   25CHL1  H19B 2998   0.187   1.655   8.075  0.9216 -1.5558 -0.0378
   25CHL1  H19C 2999   0.183   1.662   7.896  0.0068 -2.5344  0.0241
   25CHL1    C1 3000  -0.083   1.543   8.097  0.2443 -0.1665  0.3451
   25CHL1   H1A 3001  -0.118   1.645   8.068  2.6325  0.2026 -1.5971
   25CHL1   H1B 3002  -0.167   1.471   8.084 -0.3862  0.6132 -0.0136
   25CHL1    C2 3003  -0.022   1.534   8.238 -0.1083 -0.1458 -0.0772
   25CHL1   H2A 3004  -0.107   1.547   8.308 -1.7979 -4.1636 -1.1067
   25CHL1   H2B 3005   0.056   1.607   8.269 -0.4059  0.6290 -1.0834
   25CHL1   C20 3006  -0.170   1.627   7.324 -0.5224 -0.2309  0.6323
   25CHL1   H20 3007  -0.080   1.686   7.300 -0.6302 -0.5824 -0.7977
   25CHL1   C21 3008  -0.287   1.721   7.373 -0.3661  0.4073 -0.3839
   25CHL1  H21A 3009  -0.250   1.806   7.434  0.5009 -0.3278  0.1403
   25CHL1  H21B 3010  -0.361   1.659   7.428  0.2801  0.9609  1.1407
   25CHL1  H21C 3011  -0.346   1.762   7.289 -2.1535  0.4426  0.8450
   25CHL1   C22 3012  -0.219   1.570   7.187  0.8070  0.3355 -0.6243
   25CHL1  H22A 3013  -0.176   1.471   7.161 -1.0916 -0.8208  0.3988
   25CHL1  H22B 3014  -0.327   1.549   7.199  0.5877  1.8282  0.1638
   25CHL1   C23 3015  -0.183   1.654   7.062 -0.2061 -0.6340  0.3051
   25CHL1  H23A 3016  -0.228   1.605   6.972  2.3759  0.8522 -1.9498
   25CHL1  H23B 3017  -0.229   1.755   7.069  0.3671 -0.3134 -0.4224
   25CHL1   C24 3018  -0.039   1.669   7.027 -0.7508 -0.0141 -1.0383
   25CHL1  H24A 3019   0.004   1.743   7.097  1.0565 -2.2528  0.3493
   25CHL1  H24B 3020   0.024   1.579   7.040 -0.3282  0.3384 -0.6198
   25CHL1   C25 3021   0.009   1.718   6.884 -0.1672  0.6047  0.0699
   25CHL1   H25 3022  -0.018   1.634   6.816  2.8216  0.6445 -1.3456
   25CHL1   C26 3023  -0.068   1.840   6.845  0.1516 -0.2056 -0.0709
   25CHL1  H26A 3024  -0.176   1.819   6.826 -0.0265 -0.0813  0.7506
   25CHL1  H26B 3025  -0.070   1.909   6.933 -3.2925 -1.4938  1.0460
   25CHL1  H26C 3026  -0.033   1.883   6.749 -0.9902 -1.4233 -1.0811
   25CHL1   C27 3027   0.158   1.733   6.864 -0.6651  0.3347 -0.3271
   25CHL1  H27A 3028   0.178   1.739   6.755  1.8511  1.2677  0.1353
   25CHL1  H27B 3029   0.203   1.816   6.922 -1.4310  0.0320  0.7392
   25CHL1  H27C 3030   0.204   1.634   6.884 -1.8726 -0.0557  0.7060
   26CHL1    C3 3031   2.940   0.252   8.017 -0.1198 -0.6919  0.5475
   26CHL1    H3 3032   3.045   0.286   8.013 -0.6422  1.2742  1.7606
   26CHL1    O3 3033   2.899   0.253   8.152 -0.1795  0.2237  0.1317
   26CHL1   H3' 3034   2.917   0.165   8.184  1.9603  0.6320  0.2333
   26CHL1    C4 3035   2.838   0.339   7.936  0.0164  0.1466 -0.0590
   26CHL1   H4A 3036   2.732   0.307   7.934  0.5484 -1.7356 -1.3954
   26CHL1   H4B 3037   2.837   0.439   7.984 -0.2561  0.7650 -1.3031
   26CHL1    C5 3038   2.876   0.340   7.788  0.0249 -1.2298  0.4878
   26CHL1    C6 3039   2.913   0.451   7.721  0.2511 -0.5078  0.7264
   26CHL1    H6 3040   2.915   0.551   7.767  0.6568 -1.8687  3.9939
   26CHL1    C7 3041   2.945   0.452   7.578  0.6364 -0.9304  0.1566
   26CHL1   H7A 3042   2.903   0.537   7.521  0.6073 -2.0708 -1.6087
   26CHL1   H7B 3043   3.054   0.459   7.557  0.6059  0.5333  0.4018
   26CHL1    C8 3044   2.891   0.326   7.508  0.1902  0.2737 -0.7511
   26CHL1    H8 3045   2.780   0.321   7.506  0.2530 -1.6628 -2.1558
   26CHL1   C14 3046   2.938   0.307   7.366 -0.4816 -0.6302  0.0928
   26CHL1   H14 3047   3.048   0.301   7.375 -0.1067 -0.0606 -3.0701
   26CHL1   C15 3048   2.917   0.424   7.270  0.5084  0.1683 -0.0753
   26CHL1  H15A 3049   2.816   0.466   7.288  0.7865 -0.2434  2.9665
   26CHL1  H15B 3050   2.986   0.507   7.296 -0.1457  0.4366  0.8246
   26CHL1   C16 3051   2.940   0.366   7.132  0.3288  0.1829 -0.5208
   26CHL1  H16A 3052   2.844   0.367   7.075  0.7645  0.8726 -1.2718
   26CHL1  H16B 3053   3.023   0.415   7.076 -0.1620  0.2931 -1.1729
   26CHL1   C17 3054   2.983   0.214   7.158 -0.1078 -0.5818  0.1581
   26CHL1   H17 3055   3.093   0.211   7.169 -0.1006 -1.7377 -0.0218
   26CHL1   C13 3056   2.908   0.180   7.291 -0.4496 -0.2099  0.1960
   26CHL1   C18 3057   2.760   0.170   7.259 -0.3418 -0.1561  0.1040
   26CHL1  H18A 3058   2.717   0.190   7.360  1.5866  2.9259  0.4487
   26CHL1  H18B 3059   2.720   0.244   7.186 -0.6970 -1.3405 -0.9397
   26CHL1  H18C 3060   2.737   0.076   7.205 -0.1256  0.2518 -0.7073
   26CHL1   C12 3061   2.959   0.055   7.363 -0.0824 -0.2163  0.4405
   26CHL1  H12A 3062   2.922  -0.039   7.319  2.6172 -0.8579 -0.6981
   26CHL1  H12B 3063   3.070   0.053   7.353 -0.1753  1.1608 -1.4334
   26CHL1   C11 3064   2.908   0.061   7.506 -0.3145  0.1268 -0.5518
   26CHL1  H11A 3065   2.800   0.035   7.504 -0.3219 -0.5932  3.0313
   26CHL1  H11B 3066   2.945  -0.025   7.566  1.9335  1.1552 -0.3636
   26CHL1    C9 3067   2.937   0.197   7.582 -0.2011  0.3338 -0.1221
   26CHL1    H9 3068   3.046   0.203   7.601 -0.0710 -0.0199 -0.7143
   26CHL1   C10 3069   2.880   0.193   7.727 -0.3796  0.3001 -0.1773
   26CHL1   C19 3070   2.736   0.130   7.732 -0.4503  0.1684  0.5560
   26CHL1  H19A 3071   2.678   0.177   7.650  0.1178  1.7838  1.0488
   26CHL1  H19B 3072   2.754   0.026   7.697  0.8260  0.6674 -0.3621
   26CHL1  H19C 3073   2.682   0.136   7.828 -0.4126  2.9438  0.4825
   26CHL1    C1 3074   2.973   0.103   7.817  0.1389 -0.3311  0.2455
   26CHL1   H1A 3075   2.967  -0.001   7.778  1.4376  0.4914 -2.4046
   26CHL1   H1B 3076   3.076   0.140   7.797 -0.5771  1.2041 -0.8045
   26CHL1    C2 3077   2.942   0.108   7.966  0.1592 -0.1070 -0.5593
   26CHL1   H2A 3078   3.024   0.065   8.029 -0.5171  0.4761  0.7525
   26CHL1   H2B 3079   2.848   0.057   7.995  2.0515 -2.4710  1.9353
   26CHL1   C20 3080   2.946   0.130   7.031  0.8668  0.2819 -0.3398
   26CHL1   H20 3081   2.837   0.110   7.040  1.0677 -0.8336 -0.1890
   26CHL1   C21 3082   3.011  -0.010   7.044  0.2953  0.2068 -1.3098
   26CHL1  H21A 3083   3.121  -0.020   7.054  0.2904  0.7763 -0.6523
   26CHL1  H21B 3084   2.972  -0.083   6.969  0.4141 -0.6874 -0.5291
   26CHL1  H21C 3085   2.974  -0.058   7.137 -0.5851 -2.2738 -2.8291
   26CHL1   C22 3086   2.971   0.191   6.888  1.0894 -1.0924  0.6830
   26CHL1  H22A 3087   2.929   0.117   6.817 -1.3745 -0.6111  1.5170
   26CHL1  H22B 3088   2.906   0.280   6.873  1.5052 -0.9025 -0.0276
   26CHL1   C23 3089   3.114   0.229   6.855 -0.0979  0.9741  0.0008
   26CHL1  H23A 3090   3.157   0.273   6.948 -2.2850  1.9835  0.6082
   26CHL1  H23B 3091   3.180   0.144   6.827  1.4560  2.1792 -0.1226
   26CHL1   C24 3092   3.121   0.338   6.747 -0.2166 -0.3856  0.2391
   26CHL1  H24A 3093   3.059   0.310   6.659 -1.0602  0.3444  0.5798
   26CHL1  H24B 3094   3.068   0.421   6.800 -1.4273 -2.3659  2.2912
   26CHL1   C25 3095   3.253   0.387   6.698 -0.0210 -0.3724 -0.0440
   26CHL1   H25 3096   3.330   0.399   6.776  0.5041 -0.4915 -0.5359
   26CHL1   C26 3097   3.315   0.292   6.593 -0.4664 -0.7037 -0.7174
   26CHL1  H26A 3098   3.244   0.271   6.510  0.7516  1.5772 -2.4586
   26CHL1  H26B 3099   3.409   0.335   6.552  0.3628 -1.6520  0.1557
   26CHL1  H26C 3100   3.340   0.191   6.631  0.2168 -0.6083 -0.9018
   26CHL1   C27 3101   3.238   0.520   6.628  0.1947 -0.3811 -0.6267
   26CHL1  H27A 3102   3.141   0.534   6.577 -0.6771  1.7588  1.4067
   26CHL1  H27B 3103   3.227   0.597   6.708  1.0061 -1.1148  0.2233
   26CHL1  H27C 3104   3.325   0.548   6.565  0.5252 -2.9832 -1.4478
   27CHL1    C3 3105   4.537   6.037   8.330 -0.4090  0.0657  0.4265
   27CHL1    H3 3106   4.498   5.936   8.303 -0.1879  0.2757 -0.7244
   27CHL1    O3 3107   4.530   6.049   8.469 -0.3145 -0.4178 -0.0479
   27CHL1   H3' 3108   4.551   6.141   8.484 -0.0065  0.1632 -3.3485
   27CHL1    C4 3109   4.687   6.049   8.295  0.1526  0.7603  0.2539
   27CHL1   H4A 3110   4.731   6.139   8.343  1.3761 -0.1770  0.9373
   27CHL1   H4B 3111   4.735   5.962   8.345 -1.7060  0.9037  2.4874
   27CHL1    C5 3112   4.710   6.059   8.146  0.0333 -0.4840  0.3173
   27CHL1    C6 3113   4.792   5.975   8.084 -0.5677  0.4077 -0.7986
   27CHL1    H6 3114   4.847   5.900   8.144 -2.3787 -0.1051  0.2758
   27CHL1    C7 3115   4.825   5.971   7.938 -0.2842  0.2196  0.0171
   27CHL1   H7A 3116   4.934   5.972   7.920 -0.3318  0.3309 -0.2776
   27CHL1   H7B 3117   4.788   5.881   7.885  2.5228 -0.6250 -0.6272
   27CHL1    C8 3118   4.764   6.095   7.870  0.4771 -1.2679  0.8145
   27CHL1    H8 3119   4.816   6.192   7.884 -1.5532  0.3213 -1.8113
   27CHL1   C14 3120   4.753   6.073   7.721 -0.2477  0.7581 -0.4275
   27CHL1   H14 3121   4.666   6.005   7.709  0.8960 -0.5448 -1.5659
   27CHL1   C15 3122   4.869   6.008   7.643  0.7825  0.4661 -0.4722
   27CHL1  H15A 3123   4.964   6.027   7.697  0.8543 -0.0086 -0.4313
   27CHL1  H15B 3124   4.845   5.900   7.636  1.5487  0.2489  0.1941
   27CHL1   C16 3125   4.858   6.068   7.507 -0.5378 -0.1189  0.3844
   27CHL1  H16A 3126   4.932   6.151   7.498 -0.6423 -0.2216 -1.7626
   27CHL1  H16B 3127   4.865   5.994   7.425 -2.5439  0.2650 -0.1993
   27CHL1   C17 3128   4.720   6.137   7.497  0.6892  0.1034 -0.2389
   27CHL1   H17 3129   4.642   6.059   7.482  0.5384  0.2197 -0.0696
   27CHL1   C13 3130   4.709   6.195   7.645 -0.3608 -0.3832 -0.2379
   27CHL1   C18 3131   4.811   6.319   7.664  0.5438 -0.0998 -0.6472
   27CHL1  H18A 3132   4.793   6.401   7.591  2.5738  1.3163  0.3535
   27CHL1  H18B 3133   4.805   6.354   7.769  2.1703 -1.2013 -0.1540
   27CHL1  H18C 3134   4.916   6.285   7.649  0.1001 -1.4640 -0.7656
   27CHL1   C12 3135   4.568   6.230   7.684 -0.3299  0.2999  0.3146
   27CHL1  H12A 3136   4.523   6.313   7.627 -2.8463 -1.6637 -0.7276
   27CHL1  H12B 3137   4.501   6.146   7.659 -0.6653  0.7424 -0.2830
   27CHL1   C11 3138   4.559   6.246   7.836 -0.2096  0.9394 -0.5521
   27CHL1  H11A 3139   4.615   6.340   7.855  3.2149 -1.1466  0.6923
   27CHL1  H11B 3140   4.451   6.251   7.863 -0.0699  1.5459 -0.0761
   27CHL1    C9 3141   4.626   6.131   7.917  0.1308 -0.0783 -0.6495
   27CHL1    H9 3142   4.559   6.045   7.895  1.2744 -1.3884  0.7350
   27CHL1   C10 3143   4.625   6.155   8.072  0.5975 -0.3596 -0.3490
   27CHL1   C19 3144   4.680   6.298   8.103 -0.2789  0.0236 -0.5142
   27CHL1  H19A 3145   4.600   6.365   8.064 -0.7137  0.0956  0.4826
   27CHL1  H19B 3146   4.684   6.312   8.213  0.7484 -2.3185 -0.1960
   27CHL1  H19C 3147   4.774   6.325   8.049  0.0524 -0.0926  0.0019
   27CHL1    C1 3148   4.470   6.134   8.113  0.1250 -0.0558 -0.6697
   27CHL1   H1A 3149   4.420   6.208   8.047  1.2878  0.9750 -0.4581
   27CHL1   H1B 3150   4.459   6.032   8.070  2.0091  0.3428 -2.2452
   27CHL1    C2 3151   4.457   6.145   8.266 -0.6828  0.4959  0.4770
   27CHL1   H2A 3152   4.351   6.129   8.294 -0.1942 -0.0879  2.1505
   27CHL1   H2B 3153   4.500   6.240   8.307  0.6604  0.2059 -0.1868
   27CHL1   C20 3154   4.712   6.227   7.374 -0.5499 -0.1588 -0.0536
   27CHL1   H20 3155   4.771   6.317   7.403 -2.0983  1.4080 -1.5951
   27CHL1   C21 3156   4.571   6.285   7.347  0.1027 -0.4057  0.6392
   27CHL1  H21A 3157   4.504   6.201   7.319  3.2754 -2.6597 -0.7911
   27CHL1  H21B 3158   4.576   6.354   7.260 -1.0936 -2.9811 -1.6234
   27CHL1  H21C 3159   4.530   6.342   7.433  0.2907 -1.1722  1.2544
   27CHL1   C22 3160   4.765   6.173   7.242  0.5635 -0.2768 -0.5491
   27CHL1  H22A 3161   4.859   6.120   7.269 -1.7700 -3.6024  1.8460
   27CHL1  H22B 3162   4.693   6.096   7.207 -0.5211  0.0705  0.7988
   27CHL1   C23 3163   4.797   6.270   7.127  0.3634 -0.3357 -0.0804
   27CHL1  H23A 3164   4.706   6.321   7.090  0.0509 -0.6373  0.2687
   27CHL1  H23B 3165   4.862   6.349   7.172 -1.1563  0.5173  0.7023
   27CHL1   C24 3166   4.873   6.195   7.021  0.5422 -0.7579 -0.1415
   27CHL1  H24A 3167   4.951   6.132   7.068 -0.8609 -1.0563  1.9524
   27CHL1  H24B 3168   4.807   6.115   6.980  0.8215 -1.3301  0.5020
   27CHL1   C25 3169   4.918   6.287   6.908  0.2592  0.1582 -0.6549
   27CHL1   H25 3170   4.828   6.341   6.871 -0.2070  1.3295  1.9605
   27CHL1   C26 3171   5.023   6.389   6.952 -0.1344  0.5706  0.0216
   27CHL1  H26A 3172   5.077   6.419   6.859 -0.1032 -1.1405 -0.5420
   27CHL1  H26B 3173   4.977   6.478   7.001  1.0749  1.7972 -0.9658
   27CHL1  H26C 3174   5.095   6.346   7.024  0.3909  1.8154  0.2732
   27CHL1   C27 3175   4.964   6.206   6.788  0.5318  0.2425  0.0647
   27CHL1  H27A 3176   5.057   6.151   6.816  0.3346 -0.8444 -1.3321
   27CHL1  H27B 3177   4.978   6.269   6.698  1.3343 -1.5711 -1.1621
   27CHL1  H27C 3178   4.895   6.124   6.757  1.0486  0.1186 -0.7752
   28CHL1    C3 3179   6.132   3.645   8.555 -0.2286 -0.4344 -0.2175
   28CHL1    H3 3180   6.177   3.544   8.542 -0.1767 -0.5839  1.0464
   28CHL1    O3 3181   6.141   3.675   8.691  0.1592 -0.3826  0.7319
   28CHL1   H3' 3182   6.234   3.698   8.696  0.3383 -0.6519 -0.8711
   28CHL1    C4 3183   6.216   3.747   8.479 -0.1518  0.7049 -0.3895
   28CHL1   H4A 3184   6.186   3.850   8.508 -2.0627 -0.0089  0.3241
   28CHL1   H4B 3185   6.321   3.735   8.513  0.0442  1.1149 -0.8395
   28CHL1    C5 3186   6.211   3.728   8.332 -0.2804 -0.0105  0.4570
   28CHL1    C6 3187   6.314   3.701   8.248  0.3699 -0.4957  0.8581
   28CHL1    H6 3188   6.415   3.689   8.289  0.2296 -0.2545  1.2755
   28CHL1    C7 3189   6.299   3.703   8.098 -0.1644  0.5221 -0.7582
   28CHL1   H7A 3190   6.377   3.764   8.046 -0.8455  1.6958 -0.4452
   28CHL1   H7B 3191   6.306   3.596   8.071  3.4658  0.0139  1.4328
   28CHL1    C8 3192   6.153   3.747   8.050  0.3029  0.0656  0.5253
   28CHL1    H8 3193   6.148   3.858   8.062 -0.0377  0.8086 -4.3663
   28CHL1   C14 3194   6.126   3.708   7.903  0.5089  0.4351 -0.2649
   28CHL1   H14 3195   6.118   3.598   7.918  1.8412  0.5754  1.7875
   28CHL1   C15 3196   6.220   3.741   7.794 -0.0800  1.0582 -0.5547
   28CHL1  H15A 3197   6.276   3.835   7.812  0.5486  0.6057 -0.0991
   28CHL1  H15B 3198   6.302   3.667   7.782  0.4126  1.5215 -0.1064
   28CHL1   C16 3199   6.140   3.744   7.662 -0.2198  0.4823 -0.6460
   28CHL1  H16A 3200   6.152   3.847   7.621  2.8362  0.8774  0.9304
   28CHL1  H16B 3201   6.174   3.669   7.587 -1.6156 -1.7368  0.8257
   28CHL1   C17 3202   5.996   3.707   7.698 -0.6216  0.3792  0.7954
   28CHL1   H17 3203   5.994   3.596   7.697  1.5339  0.2325 -2.3710
   28CHL1   C13 3204   5.986   3.745   7.845  0.0391  0.1594  0.0593
   28CHL1   C18 3205   5.969   3.901   7.848 -0.0730 -0.5514 -0.7430
   28CHL1  H18A 3206   5.994   3.935   7.951  1.2461 -1.9447 -0.5647
   28CHL1  H18B 3207   6.031   3.958   7.775 -1.7797  2.6234  0.1141
   28CHL1  H18C 3208   5.862   3.927   7.832 -0.0996 -0.3445 -0.2526
   28CHL1   C12 3209   5.874   3.680   7.924  0.1431 -0.4194  0.1414
   28CHL1  H12A 3210   5.768   3.709   7.908 -0.0202  0.6491  2.6283
   28CHL1  H12B 3211   5.885   3.570   7.931 -1.6060 -0.7502 -1.5521
   28CHL1   C11 3212   5.893   3.723   8.070  0.3710 -0.3183 -0.1650
   28CHL1  H11A 3213   5.885   3.833   8.075  0.5174 -0.3096 -0.1049
   28CHL1  H11B 3214   5.808   3.680   8.128  1.2075 -5.0199 -1.9991
   28CHL1    C9 3215   6.038   3.694   8.137  0.0229 -0.0679 -0.4775
   28CHL1    H9 3216   6.048   3.584   8.125  0.9490  0.0552 -0.9543
   28CHL1   C10 3217   6.058   3.733   8.289 -0.0610  0.1074  0.3099
   28CHL1   C19 3218   6.004   3.885   8.315  0.1710  0.5633 -0.0476
   28CHL1  H19A 3219   6.046   3.962   8.248 -2.2714  0.9051 -1.3026
   28CHL1  H19B 3220   5.894   3.892   8.297  0.2544  1.4214 -0.2363
   28CHL1  H19C 3221   6.015   3.921   8.420 -0.0435 -3.4173  1.5328
   28CHL1    C1 3222   5.978   3.634   8.371  0.9648  1.2917 -0.6006
   28CHL1   H1A 3223   5.876   3.627   8.327  1.4322 -0.8413 -1.4802
   28CHL1   H1B 3224   6.015   3.531   8.349 -0.3866  0.4123  1.0090
   28CHL1    C2 3225   5.986   3.641   8.523 -0.1649 -0.1865  0.0108
   28CHL1   H2A 3226   5.934   3.555   8.571  0.0035 -1.1574 -1.4983
   28CHL1   H2B 3227   5.950   3.739   8.561 -0.1520 -1.5046  3.8618
   28CHL1   C20 3228   5.883   3.749   7.603  0.3085  0.0206 -0.3465
   28CHL1   H20 3229   5.840   3.843   7.642 -0.6374 -0.5783  0.1007
   28CHL1   C21 3230   5.782   3.637   7.617  0.2888 -0.1729  0.1459
   28CHL1  H21A 3231   5.809   3.545   7.560 -1.2137 -0.5180 -0.0606
   28CHL1  H21B 3232   5.691   3.662   7.558  0.2353 -0.6154  0.0331
   28CHL1  H21C 3233   5.750   3.613   7.721  1.1732  1.1520  0.7471
   28CHL1   C22 3234   5.937   3.780   7.459 -0.4467  0.4529  0.2936
   28CHL1  H22A 3235   6.012   3.862   7.470 -2.8793  2.6432  1.6943
   28CHL1  H22B 3236   5.994   3.693   7.421 -0.0552  1.4371 -1.5166
   28CHL1   C23 3237   5.815   3.819   7.367 -0.2221  0.1148  0.2601
   28CHL1  H23A 3238   5.759   3.724   7.353  2.2506 -1.4274  0.2595
   28CHL1  H23B 3239   5.754   3.891   7.426  0.1293  1.9493 -1.5101
   28CHL1   C24 3240   5.867   3.879   7.229 -0.3875  0.1855  0.4320
   28CHL1  H24A 3241   5.940   3.961   7.241 -0.5488  0.4495 -0.3594
   28CHL1  H24B 3242   5.930   3.801   7.181 -0.4683  0.8717 -0.8432
   28CHL1   C25 3243   5.765   3.914   7.123  0.1149  0.6594  0.2167
   28CHL1   H25 3244   5.685   3.983   7.160 -1.4464 -0.5201 -0.8429
   28CHL1   C26 3245   5.830   3.985   7.007 -0.7976  0.8909 -0.3515
   28CHL1  H26A 3246   5.756   3.992   6.925 -0.5055 -3.6795 -1.2579
   28CHL1  H26B 3247   5.865   4.087   7.035 -1.1857  0.6400  1.1403
   28CHL1  H26C 3248   5.919   3.928   6.972 -3.2351 -2.3076 -1.8020
   28CHL1   C27 3249   5.699   3.786   7.075  0.2503 -0.0855  0.7540
   28CHL1  H27A 3250   5.776   3.714   7.040  1.1840 -0.3065  3.0787
   28CHL1  H27B 3251   5.638   3.734   7.152 -0.3342 -1.4755 -0.5921
   28CHL1  H27C 3252   5.626   3.811   6.995  2.2685  2.3097 -0.4885
   29CHL1    C3 3253   0.394   5.054   8.448 -0.5881  0.5152 -0.8724
   29CHL1    H3 3254   0.283   5.062   8.442 -0.6814  0.6852  0.7784
   29CHL1    O3 3255   0.438   5.052   8.581  0.2395 -0.0913 -0.0420
   29CHL1   H3' 3256   0.517   4.998   8.576  0.0666 -0.1969 -2.4503
   29CHL1    C4 3257   0.445   4.927   8.368  0.6685  0.2620 -0.7660
   29CHL1   H4A 3258   0.555   4.911   8.380  0.6610 -0.8266 -1.9519
   29CHL1   H4B 3259   0.392   4.837   8.404  3.0153 -0.9101  0.0017
   29CHL1    C5 3260   0.429   4.941   8.222 -0.6111 -0.1964  0.0365
   29CHL1    C6 3261   0.360   4.851   8.155  0.2569  0.0241 -0.4136
   29CHL1    H6 3262   0.309   4.771   8.210  0.7804  1.2952  2.0467
   29CHL1    C7 3263   0.339   4.860   8.008  0.4188 -0.0363  1.0028
   29CHL1   H7A 3264   0.381   4.766   7.965  0.2593  0.2729  0.1510
   29CHL1   H7B 3265   0.232   4.868   7.980  0.4116 -1.0096  0.7068
   29CHL1    C8 3266   0.439   4.955   7.936 -0.1527  0.1100  0.1328
   29CHL1    H8 3267   0.535   4.900   7.941 -1.2433 -2.1690 -1.8287
   29CHL1   C14 3268   0.406   4.977   7.792  0.1115 -0.3736  0.2222
   29CHL1   H14 3269   0.311   5.036   7.789  1.3911  1.7446 -1.1024
   29CHL1   C15 3270   0.386   4.849   7.704  0.3754 -0.0177  0.2223
   29CHL1  H15A 3271   0.466   4.773   7.712 -1.0656 -1.5562  0.6788
   29CHL1  H15B 3272   0.288   4.803   7.728 -0.2613  1.3967  0.4935
   29CHL1   C16 3273   0.386   4.912   7.566 -0.0016  0.0815  0.2868
   29CHL1  H16A 3274   0.450   4.841   7.508 -1.7184 -1.4463  0.1553
   29CHL1  H16B 3275   0.284   4.905   7.524 -0.9812  1.9064  2.2259
   29CHL1   C17 3276   0.439   5.056   7.574  0.4782  0.3541  0.3088
   29CHL1   H17 3277   0.349   5.119   7.560  0.3063 -0.0972 -0.7258
   29CHL1   C13 3278   0.498   5.073   7.716  0.4695  0.2387 -0.2500
   29CHL1   C18 3279   0.643   5.011   7.716 -0.1657  0.2623 -0.9750
   29CHL1  H18A 3280   0.643   4.911   7.668 -1.3897  0.4433 -1.3825
   29CHL1  H18B 3281   0.716   5.069   7.657  0.8385 -0.0572 -0.0663
   29CHL1  H18C 3282   0.691   5.008   7.816  0.1202 -0.3294 -1.1302
   29CHL1   C12 3283   0.487   5.206   7.780 -0.4674 -0.2209 -0.1114
   29CHL1  H12A 3284   0.539   5.289   7.728  0.6387 -2.0214 -1.9932
   29CHL1  H12B 3285   0.381   5.241   7.783 -0.4206 -0.1375  1.5542
   29CHL1   C11 3286   0.533   5.192   7.925  0.2051 -0.1312 -0.2757
   29CHL1  H11A 3287   0.642   5.174   7.923  0.7292  2.5133 -1.8997
   29CHL1  H11B 3288   0.525   5.286   7.983  1.0504 -0.8938  1.1253
   29CHL1    C9 3289   0.450   5.083   8.006 -0.5303 -0.0660 -0.6859
   29CHL1    H9 3290   0.346   5.122   8.010 -0.2079  0.7184  0.2040
   29CHL1   C10 3291   0.489   5.066   8.157 -0.3887  0.3384  0.0383
   29CHL1   C19 3292   0.644   5.055   8.165 -0.5996 -0.3363  0.7111
   29CHL1  H19A 3293   0.675   5.043   8.271 -0.8660 -0.9437  0.7234
   29CHL1  H19B 3294   0.682   4.976   8.098 -0.9606  0.4647 -0.4794
   29CHL1  H19C 3295   0.689   5.145   8.118 -0.3559 -1.7478 -1.8800
   29CHL1    C1 3296   0.438   5.191   8.239  0.2444 -0.6583  0.1332
   29CHL1   H1A 3297   0.493   5.283   8.209  0.6862 -0.7901  0.5228
   29CHL1   H1B 3298   0.332   5.216   8.220  0.7349  0.7210 -1.0043
   29CHL1    C2 3299   0.459   5.173   8.386 -0.1467  0.4746 -0.6776
   29CHL1   H2A 3300   0.427   5.263   8.443  1.8825 -0.1360  1.5941
   29CHL1   H2B 3301   0.567   5.159   8.406  0.1386 -1.1299 -2.9698
   29CHL1   C20 3302   0.529   5.084   7.447  0.0800 -0.3724 -0.4346
   29CHL1   H20 3303   0.627   5.033   7.451  0.6183  0.5033 -1.7813
   29CHL1   C21 3304   0.577   5.235   7.447 -0.5958 -1.0517 -0.3117
   29CHL1  H21A 3305   0.654   5.257   7.370  1.5243  0.9580  2.1855
   29CHL1  H21B 3306   0.639   5.261   7.535  1.9526 -0.2223 -2.2146
   29CHL1  H21C 3307   0.493   5.306   7.432  0.9962  1.4968  1.9671
   29CHL1   C22 3308   0.465   5.066   7.310 -0.0951 -0.4141  0.0085
   29CHL1  H22A 3309   0.429   4.962   7.315  0.9132 -0.7087  1.9707
   29CHL1  H22B 3310   0.377   5.135   7.305  1.0692  1.2684  1.4619
   29CHL1   C23 3311   0.555   5.078   7.187  0.2042  0.0838  0.2033
   29CHL1  H23A 3312   0.585   5.182   7.166 -0.7951  0.4386  0.4848
   29CHL1  H23B 3313   0.652   5.023   7.193  0.3331  0.3873  1.0204
   29CHL1   C24 3314   0.496   5.019   7.054  0.7806 -0.2034  0.5903
   29CHL1  H24A 3315   0.426   4.937   7.081 -2.4212  1.5708 -1.7205
   29CHL1  H24B 3316   0.434   5.098   7.007 -0.4505 -2.4028 -1.7251
   29CHL1   C25 3317   0.591   4.962   6.945 -1.1571  0.0586 -0.6284
   29CHL1   H25 3318   0.643   4.877   6.995  1.8107  2.9849  1.7212
   29CHL1   C26 3319   0.504   4.920   6.825 -0.1450  0.1022 -0.2975
   29CHL1  H26A 3320   0.563   4.863   6.751 -0.8149  0.7340 -1.3562
   29CHL1  H26B 3321   0.425   4.847   6.854  0.1848  0.0145  0.3773
   29CHL1  H26C 3322   0.456   5.009   6.778  2.2523  0.6294 -1.9349
   29CHL1   C27 3323   0.701   5.056   6.902 -0.1843  0.1036 -0.0154
   29CHL1  H27A 3324   0.771   5.010   6.829 -0.7698 -0.6197 -0.1304
   29CHL1  H27B 3325   0.652   5.137   6.844 -1.9591  0.1979  1.5382
   29CHL1  H27C 3326   0.748   5.110   6.987 -2.1903  0.7381  0.7518
   30CHL1    C3 3327   3.278   0.620   8.322  0.2995 -0.2578 -0.3521
   30CHL1    H3 3328   3.385   0.634   8.348  0.8992 -3.9509 -0.1734
   30CHL1    O3 3329   3.211   0.589   8.446 -0.3716  0.1002  0.0200
   30CHL1   H3' 3330   3.235   0.502   8.479  0.3564  1.4942  3.7026
   30CHL1    C4 3331   3.228   0.742   8.248  0.0367  0.3074  0.2330
   30CHL1   H4A 3332   3.118   0.726   8.239 -0.2332  2.0784  0.0009
   30CHL1   H4B 3333   3.236   0.834   8.310 -0.3547  0.6865 -0.2663
   30CHL1    C5 3334   3.298   0.755   8.116  0.5455 -0.2240  0.0189
   30CHL1    C6 3335   3.357   0.873   8.080 -0.2896 -0.2123 -0.5583
   30CHL1    H6 3336   3.364   0.959   8.148 -0.1029  1.9284 -3.1376
   30CHL1    C7 3337   3.423   0.893   7.943 -0.5741  0.8584 -0.5342
   30CHL1   H7A 3338   3.429   0.997   7.905 -0.0867  0.8862 -0.3821
   30CHL1   H7B 3339   3.528   0.858   7.948 -0.7851  0.3258  0.3722
   30CHL1    C8 3340   3.365   0.794   7.839 -0.1944  1.1908 -0.4787
   30CHL1    H8 3341   3.258   0.813   7.817 -0.5155 -0.9384 -0.9317
   30CHL1   C14 3342   3.451   0.800   7.712  0.0702  0.1241  0.3898
   30CHL1   H14 3343   3.549   0.768   7.752 -0.0078 -0.7533 -0.0928
   30CHL1   C15 3344   3.465   0.937   7.644 -0.2208  0.1337  0.1162
   30CHL1  H15A 3345   3.369   0.985   7.616 -1.0735 -1.3277  0.4271
   30CHL1  H15B 3346   3.523   1.008   7.706  2.1458  0.7511 -2.5953
   30CHL1   C16 3347   3.530   0.906   7.508  0.2517  0.3443  0.2782
   30CHL1  H16A 3348   3.459   0.958   7.440 -0.1095 -0.0289  0.3654
   30CHL1  H16B 3349   3.633   0.946   7.500  0.0648  0.8992  0.6204
   30CHL1   C17 3350   3.523   0.751   7.490 -0.4671  0.1639  0.2010
   30CHL1   H17 3351   3.619   0.711   7.530 -0.9028 -2.1908 -0.9111
   30CHL1   C13 3352   3.415   0.705   7.592  0.0213  0.1407 -0.0178
   30CHL1   C18 3353   3.279   0.730   7.540 -0.1663 -0.2352  0.2749
   30CHL1  H18A 3354   3.204   0.704   7.617 -0.1809 -3.4390 -0.6683
   30CHL1  H18B 3355   3.277   0.838   7.513  2.1554 -0.5296 -1.4100
   30CHL1  H18C 3356   3.262   0.666   7.450 -0.2725  1.4517 -0.9552
   30CHL1   C12 3357   3.427   0.555   7.653 -0.0762  0.1923  0.0664
   30CHL1  H12A 3358   3.396   0.468   7.592 -1.1202 -1.1207  2.3211
   30CHL1  H12B 3359   3.533   0.550   7.683  0.4580  2.0927 -1.3338
   30CHL1   C11 3360   3.344   0.544   7.785  0.5855  0.0653  0.3300
   30CHL1  H11A 3361   3.239   0.558   7.749 -0.0745  0.5940  2.3493
   30CHL1  H11B 3362   3.334   0.443   7.832 -1.1104  0.1027  0.1305
   30CHL1    C9 3363   3.381   0.646   7.895  0.2800  0.3870  0.7621
   30CHL1    H9 3364   3.485   0.619   7.924  1.2288  1.6201 -1.2757
   30CHL1   C10 3365   3.292   0.631   8.021  0.2094  0.2726 -0.3195
   30CHL1   C19 3366   3.145   0.613   7.979  0.5910  0.9214 -0.7788
   30CHL1  H19A 3367   3.106   0.684   7.903 -1.4222  2.2573  1.3835
   30CHL1  H19B 3368   3.136   0.512   7.933  1.0092 -0.1094  1.2806
   30CHL1  H19C 3369   3.069   0.617   8.060  0.9158 -0.0762 -0.4112
   30CHL1    C1 3370   3.335   0.505   8.101  0.1832  0.6465 -0.1523
   30CHL1   H1A 3371   3.314   0.416   8.038 -0.0725  1.4061 -1.1533
   30CHL1   H1B 3372   3.446   0.503   8.109  0.1677 -0.4440 -0.0810
   30CHL1    C2 3373   3.277   0.491   8.244 -0.5441  0.7629  0.2800
   30CHL1   H2A 3374   3.329   0.407   8.296 -0.5662 -0.3934 -1.4456
   30CHL1   H2B 3375   3.170   0.469   8.222 -0.9388  2.3295  0.5741
   30CHL1   C20 3376   3.520   0.700   7.353 -0.3712  0.4552  0.3722
   30CHL1   H20 3377   3.419   0.719   7.309 -0.5334  2.7293  1.5367
   30CHL1   C21 3378   3.565   0.551   7.334  0.6648  0.4709  0.0709
   30CHL1  H21A 3379   3.526   0.509   7.239 -0.7975 -1.9989  1.6393
   30CHL1  H21B 3380   3.516   0.489   7.412  1.6659 -1.2401 -0.5984
   30CHL1  H21C 3381   3.671   0.525   7.356 -0.1384 -0.3135  3.5550
   30CHL1   C22 3382   3.621   0.783   7.265  0.7427  1.0312 -0.2106
   30CHL1  H22A 3383   3.571   0.882   7.254 -2.2090 -0.4122 -0.7013
   30CHL1  H22B 3384   3.720   0.787   7.317  0.2370 -0.9436  1.0076
   30CHL1   C23 3385   3.639   0.720   7.123 -0.1707  0.1786 -0.2503
   30CHL1  H23A 3386   3.700   0.627   7.128 -0.2049  0.2166  2.1841
   30CHL1  H23B 3387   3.537   0.695   7.087 -0.3268 -0.4497  0.5827
   30CHL1   C24 3388   3.714   0.820   7.024  0.1453 -0.1597  0.0442
   30CHL1  H24A 3389   3.658   0.915   7.012  0.0545 -0.0805  0.9801
   30CHL1  H24B 3390   3.813   0.854   7.063  1.2331 -3.3047  0.2821
   30CHL1   C25 3391   3.742   0.753   6.884  0.1636 -0.3528  0.1721
   30CHL1   H25 3392   3.744   0.644   6.908 -1.6461 -0.1327  1.5647
   30CHL1   C26 3393   3.618   0.767   6.788 -0.0495 -0.6497  0.3690
   30CHL1  H26A 3394   3.620   0.857   6.724  1.3674 -0.6979  0.3308
   30CHL1  H26B 3395   3.623   0.684   6.715 -1.6937 -1.8034  1.4677
   30CHL1  H26C 3396   3.520   0.770   6.841 -0.7262  1.0582 -0.9075
   30CHL1   C27 3397   3.873   0.801   6.814 -0.3187  0.5439  0.1362
   30CHL1  H27A 3398   3.897   0.768   6.710  2.2390  1.9619  0.1940
   30CHL1  H27B 3399   3.870   0.912   6.807 -0.3430  0.7654  2.7324
   30CHL1  H27C 3400   3.956   0.774   6.882 -0.3725  2.0766  0.8419
   31CHL1    C3 3401   1.359   6.866   7.836 -0.2923 -0.7129 -0.0372
   31CHL1    H3 3402   1.325   6.951   7.773  0.0629 -1.1603 -0.8597
   31CHL1    O3 3403   1.326   6.894   7.970  0.0303 -0.1240 -0.2926
   31CHL1   H3' 3404   1.327   6.814   8.023 -1.3368 -0.3568 -0.5722
   31CHL1    C4 3405   1.285   6.738   7.798  0.2285 -0.1324 -0.2369
   31CHL1   H4A 3406   1.296   6.651   7.867 -1.8489  1.3241  2.1124
   31CHL1   H4B 3407   1.179   6.763   7.818  0.2972 -0.9668  1.3117
   31CHL1    C5 3408   1.313   6.719   7.657 -0.5175  0.0313  1.1144
   31CHL1    C6 3409   1.209   6.729   7.570  0.0534 -0.1025  0.7472
   31CHL1    H6 3410   1.117   6.764   7.619  1.1719  0.6200  2.4244
   31CHL1    C7 3411   1.224   6.699   7.420  0.3272  0.1714 -0.4789
   31CHL1   H7A 3412   1.141   6.638   7.381 -1.0227 -0.5989  3.1975
   31CHL1   H7B 3413   1.230   6.801   7.376  0.2486  0.4298  0.0935
   31CHL1    C8 3414   1.353   6.629   7.383 -0.8305  0.1263  0.6366
   31CHL1    H8 3415   1.354   6.530   7.433 -0.6045  0.5672  1.5186
   31CHL1   C14 3416   1.383   6.626   7.233  0.1819 -0.1003 -0.1945
   31CHL1   H14 3417   1.402   6.726   7.189  0.5924 -1.2579 -2.8119
   31CHL1   C15 3418   1.270   6.568   7.143 -0.2677 -0.0716  0.0202
   31CHL1  H15A 3419   1.210   6.490   7.195  0.7687  0.5490  2.2854
   31CHL1  H15B 3420   1.192   6.638   7.106  0.9489  1.0154 -0.5772
   31CHL1   C16 3421   1.339   6.509   7.021  0.0197 -0.9167  0.1033
   31CHL1  H16A 3422   1.320   6.401   7.002 -1.3227 -0.5718 -0.6451
   31CHL1  H16B 3423   1.312   6.565   6.930 -2.0411 -0.7697  0.7457
   31CHL1   C17 3424   1.491   6.526   7.044 -0.1499 -0.0998 -0.2325
   31CHL1   H17 3425   1.503   6.633   7.015  0.1447 -0.0537  0.0607
   31CHL1   C13 3426   1.507   6.542   7.196  0.8445  0.2122  0.5377
   31CHL1   C18 3427   1.508   6.391   7.252  0.6000 -1.1895 -0.1524
   31CHL1  H18A 3428   1.605   6.337   7.237  1.1514 -0.8405  1.8132
   31CHL1  H18B 3429   1.500   6.388   7.363  2.9486  1.3383  0.1936
   31CHL1  H18C 3430   1.432   6.324   7.206  0.6962 -1.4974  0.1255
   31CHL1   C12 3431   1.625   6.628   7.251  0.1578  0.4394  0.0631
   31CHL1  H12A 3432   1.723   6.578   7.234 -1.0060 -2.7491  1.8990
   31CHL1  H12B 3433   1.628   6.723   7.194  2.5986  1.2086  1.3231
   31CHL1   C11 3434   1.606   6.634   7.404 -0.4887 -0.5086 -0.4160
   31CHL1  H11A 3435   1.618   6.531   7.444 -0.9689  0.5471  2.7011
   31CHL1  H11B 3436   1.688   6.684   7.459 -0.7188  0.0588 -0.5866
   31CHL1    C9 3437   1.476   6.698   7.457 -0.1113 -0.3198 -0.0827
   31CHL1    H9 3438   1.459   6.804   7.431 -1.6519 -0.8951 -1.6161
   31CHL1   C10 3439   1.454   6.693   7.610 -0.3292 -0.2701  0.1896
   31CHL1   C19 3440   1.497   6.558   7.672 -0.1196 -0.1898 -0.5039
   31CHL1  H19A 3441   1.433   6.481   7.624 -1.0763  0.8505 -0.9134
   31CHL1  H19B 3442   1.599   6.517   7.656 -0.9209 -2.3584 -0.4819
   31CHL1  H19C 3443   1.481   6.539   7.780  2.0444  0.1415 -0.0837
   31CHL1    C1 3444   1.538   6.808   7.677  0.8646  1.1186 -0.6782
   31CHL1   H1A 3445   1.643   6.774   7.664  0.1691 -1.6533  0.1381
   31CHL1   H1B 3446   1.525   6.903   7.621  0.4998  1.3112 -0.2745
   31CHL1    C2 3447   1.508   6.834   7.829  0.0592  0.2363  0.0100
   31CHL1   H2A 3448   1.581   6.910   7.864  0.3368  0.0597 -0.1802
   31CHL1   H2B 3449   1.523   6.740   7.886  0.0575  0.1287 -0.1690
   31CHL1   C20 3450   1.580   6.438   6.966  0.1517  0.4585 -0.7042
   31CHL1   H20 3451   1.572   6.335   7.008 -0.6170  0.6897 -0.2502
   31CHL1   C21 3452   1.737   6.471   6.985 -0.0954 -0.7053 -0.0656
   31CHL1  H21A 3453   1.797   6.414   6.911  1.2544 -0.6108  0.9204
   31CHL1  H21B 3454   1.775   6.448   7.087  2.1917  1.0045 -0.4392
   31CHL1  H21C 3455   1.747   6.582   6.977  0.9612 -0.8197 -0.5122
   31CHL1   C22 3456   1.551   6.442   6.816  0.3092 -0.1418  0.0780
   31CHL1  H22A 3457   1.632   6.385   6.766  0.3768 -0.0915  0.1307
   31CHL1  H22B 3458   1.452   6.398   6.790 -0.1757  1.8708 -1.8216
   31CHL1   C23 3459   1.549   6.584   6.755  1.1050  0.0573  0.4000
   31CHL1  H23A 3460   1.473   6.650   6.802  1.5198  1.7351 -1.1825
   31CHL1  H23B 3461   1.649   6.631   6.764  1.4439 -0.9653  2.6007
   31CHL1   C24 3462   1.502   6.571   6.611  0.4527  0.3910  0.4978
   31CHL1  H24A 3463   1.537   6.483   6.553  1.2605  0.0585  1.4581
   31CHL1  H24B 3464   1.393   6.549   6.614  0.9048 -1.9139  1.8509
   31CHL1   C25 3465   1.535   6.704   6.525  0.4046 -0.0614 -0.4355
   31CHL1   H25 3466   1.645   6.712   6.518  0.3056  0.9698 -0.9704
   31CHL1   C26 3467   1.481   6.675   6.387  0.3592 -0.5567 -0.0965
   31CHL1  H26A 3468   1.524   6.748   6.315  1.5944 -0.2701  0.9092
   31CHL1  H26B 3469   1.499   6.573   6.349  0.8872 -0.6739  0.4589
   31CHL1  H26C 3470   1.371   6.681   6.402  0.4689 -0.7163  0.8284
   31CHL1   C27 3471   1.483   6.836   6.591  0.6200 -0.3433  0.2188
   31CHL1  H27A 3472   1.377   6.818   6.619  0.6460  1.0457  1.3450
   31CHL1  H27B 3473   1.538   6.864   6.683 -0.5902  2.5210  0.1813
   31CHL1  H27C 3474   1.495   6.919   6.518 -1.9798  0.8059  0.9779
   32CHL1    C3 3475   2.278   3.866   8.327  0.4667 -0.1099 -0.1764
   32CHL1    H3 3476   2.316   3.949   8.263 -0.3765  0.3202 -0.1436
   32CHL1    O3 3477   2.282   3.900   8.462  0.1322 -0.2784 -0.3059
   32CHL1   H3' 3478   2.279   3.823   8.519 -1.3435  0.9780  1.4142
   32CHL1    C4 3479   2.130   3.849   8.281 -0.6421 -0.3360  0.2259
   32CHL1   H4A 3480   2.090   3.781   8.359  2.6162 -0.6175  1.8483
   32CHL1   H4B 3481   2.083   3.948   8.301 -1.8584 -1.1237  1.3794
   32CHL1    C5 3482   2.114   3.806   8.138 -0.0256  0.1658 -0.0244
   32CHL1    C6 3483   2.047   3.878   8.055 -0.1718  0.3762  0.4418
   32CHL1    H6 3484   2.005   3.969   8.100 -1.4596 -0.8159  1.7733
   32CHL1    C7 3485   2.011   3.840   7.911 -0.1046 -0.1041 -0.1203
   32CHL1   H7A 3486   1.901   3.836   7.901 -0.1078 -2.9029  0.2648
   32CHL1   H7B 3487   2.044   3.916   7.837 -3.5464  1.9125  0.2359
   32CHL1    C8 3488   2.067   3.697   7.880  0.1173  0.2662  0.2549
   32CHL1    H8 3489   1.998   3.623   7.927 -0.9410  1.7576  1.1465
   32CHL1   C14 3490   2.085   3.671   7.728  0.3721  0.2248  0.3069
   32CHL1   H14 3491   2.162   3.745   7.696 -0.3043  0.0621 -1.8816
   32CHL1   C15 3492   1.962   3.690   7.634  0.3210 -0.8398 -0.0713
   32CHL1  H15A 3493   1.872   3.636   7.669 -1.6207  2.0077 -0.3705
   32CHL1  H15B 3494   1.930   3.796   7.629 -0.4708 -1.0346  0.6570
   32CHL1   C16 3495   2.001   3.630   7.501 -0.2833  0.5583 -0.0237
   32CHL1  H16A 3496   1.935   3.545   7.473 -1.4807  1.7531 -1.0225
   32CHL1  H16B 3497   2.009   3.715   7.429  0.1710  1.3284  0.9087
   32CHL1   C17 3498   2.146   3.581   7.525  0.8616  0.4811  0.6275
   32CHL1   H17 3499   2.215   3.667   7.509  1.5257 -0.5700 -3.0413
   32CHL1   C13 3500   2.141   3.547   7.675 -0.0460  1.0353 -0.8639
   32CHL1   C18 3501   2.052   3.426   7.710 -0.1855  0.6236 -0.9137
   32CHL1  H18A 3502   2.104   3.328   7.715 -0.9964  0.2191 -0.2020
   32CHL1  H18B 3503   2.001   3.453   7.805 -0.0152 -0.7974 -0.3928
   32CHL1  H18C 3504   1.962   3.414   7.645 -1.5202  1.3781  0.7292
   32CHL1   C12 3505   2.278   3.523   7.747 -0.8943  0.5353  0.6179
   32CHL1  H12A 3506   2.329   3.425   7.732 -2.6398 -0.1504 -1.2665
   32CHL1  H12B 3507   2.346   3.607   7.719  0.6723 -1.1383 -0.8935
   32CHL1   C11 3508   2.266   3.526   7.906  0.8510 -0.0013  0.2003
   32CHL1  H11A 3509   2.200   3.441   7.931 -0.9490  0.8975 -1.2202
   32CHL1  H11B 3510   2.370   3.509   7.942  1.5270  2.2554 -0.5340
   32CHL1    C9 3511   2.201   3.662   7.952 -0.4118  0.3966  0.3351
   32CHL1    H9 3512   2.268   3.743   7.915  3.0238 -1.4736  1.9900
   32CHL1   C10 3513   2.193   3.680   8.105 -0.1881 -0.3233  0.0252
   32CHL1   C19 3514   2.117   3.561   8.165  0.0895 -0.0511  0.0930
   32CHL1  H19A 3515   2.019   3.547   8.115  0.9815 -2.1071 -1.1971
   32CHL1  H19B 3516   2.177   3.468   8.160  2.2803  1.3051 -0.0129
   32CHL1  H19C 3517   2.102   3.573   8.275  1.0524  0.0776  0.2214
   32CHL1    C1 3518   2.335   3.697   8.154 -0.0917 -0.1829 -0.5646
   32CHL1   H1A 3519   2.386   3.598   8.148  0.3058 -0.0234  0.0685
   32CHL1   H1B 3520   2.396   3.762   8.088  0.8753 -0.4097  0.0776
   32CHL1    C2 3521   2.353   3.743   8.300  0.2754  0.5517  0.3672
   32CHL1   H2A 3522   2.463   3.744   8.312  0.4309 -1.7125 -0.5323
   32CHL1   H2B 3523   2.317   3.659   8.363  1.1787 -1.2292 -1.4226
   32CHL1   C20 3524   2.184   3.474   7.420 -0.2377 -0.2167  0.5979
   32CHL1   H20 3525   2.128   3.383   7.451  1.3579 -0.3691  3.3626
   32CHL1   C21 3526   2.334   3.432   7.417 -0.3380  0.1842  0.0350
   32CHL1  H21A 3527   2.380   3.387   7.508 -0.4337  0.8738  0.4387
   32CHL1  H21B 3528   2.395   3.525   7.419  2.0322 -1.2946  2.0274
   32CHL1  H21C 3529   2.361   3.372   7.328  4.6594  0.4589  1.0648
   32CHL1   C22 3530   2.145   3.512   7.269  0.2317  1.2856 -0.3409
   32CHL1  H22A 3531   2.054   3.575   7.269  0.9223  2.3431  1.0821
   32CHL1  H22B 3532   2.226   3.582   7.241  0.6588  1.1046  0.4204
   32CHL1   C23 3533   2.126   3.399   7.168  0.1460  0.1015 -0.6323
   32CHL1  H23A 3534   2.204   3.325   7.197 -0.1501  0.7783  2.1697
   32CHL1  H23B 3535   2.027   3.350   7.181  0.2817  0.2685  1.4927
   32CHL1   C24 3536   2.148   3.454   7.029  0.5793 -0.2011  0.1750
   32CHL1  H24A 3537   2.074   3.532   7.000 -0.5039 -1.2619 -0.0072
   32CHL1  H24B 3538   2.243   3.511   7.027  0.4155  0.0454 -1.4594
   32CHL1   C25 3539   2.150   3.342   6.922  0.0763  0.0380  0.4869
   32CHL1   H25 3540   2.191   3.244   6.953 -0.1177  0.0819  0.8869
   32CHL1   C26 3541   2.007   3.312   6.885 -1.1563  0.0460 -0.1542
   32CHL1  H26A 3542   1.948   3.405   6.876 -1.9797 -0.3038  1.3635
   32CHL1  H26B 3543   1.991   3.254   6.792  2.0070  0.9063 -1.3738
   32CHL1  H26C 3544   1.959   3.246   6.961 -1.9361 -1.4133 -1.8620
   32CHL1   C27 3545   2.222   3.384   6.793  0.0155  0.2125 -0.4058
   32CHL1  H27A 3546   2.180   3.480   6.756 -2.3020  0.5460  2.7208
   32CHL1  H27B 3547   2.325   3.392   6.835  0.2490 -1.9602 -0.4331
   32CHL1  H27C 3548   2.245   3.313   6.711  1.1044  2.0041 -1.7225
   33CHL1    C3 3549   3.505   5.556   8.399 -0.2918 -0.1510 -0.3644
   33CHL1    H3 3550   3.586   5.629   8.420 -2.1687  1.2860  2.3833
   33CHL1    O3 3551   3.461   5.536   8.530  0.1020  1.1362  0.5055
   33CHL1   H3' 3552   3.485   5.611   8.584 -1.2592  1.1432  1.1380
   33CHL1    C4 3553   3.391   5.620   8.322  0.6767  0.3389  0.1799
   33CHL1   H4A 3554   3.304   5.551   8.316  2.0365 -1.3567 -1.1735
   33CHL1   H4B 3555   3.359   5.710   8.379 -1.4499 -0.0510 -0.3264
   33CHL1    C5 3556   3.422   5.643   8.172 -0.0111 -0.3515  0.6488
   33CHL1    C6 3557   3.408   5.767   8.111  0.6618 -0.5198  0.1127
   33CHL1    H6 3558   3.376   5.857   8.164  3.1461  1.4985 -1.5449
   33CHL1    C7 3559   3.421   5.791   7.959  0.4969 -0.4970 -0.3290
   33CHL1   H7A 3560   3.334   5.845   7.917  0.1628 -0.9206 -0.1829
   33CHL1   H7B 3561   3.508   5.859   7.945  0.6357 -0.7189 -0.5475
   33CHL1    C8 3562   3.436   5.658   7.883 -0.6112 -0.6327  0.3750
   33CHL1    H8 3563   3.330   5.625   7.875 -1.5174  2.1455 -0.4370
   33CHL1   C14 3564   3.499   5.688   7.748 -0.6453  0.7534  0.2332
   33CHL1   H14 3565   3.595   5.739   7.774 -1.5078  2.3879  0.3705
   33CHL1   C15 3566   3.424   5.796   7.665  0.2485 -0.0151 -0.4821
   33CHL1  H15A 3567   3.320   5.764   7.687 -0.3152  0.6693 -1.9668
   33CHL1  H15B 3568   3.437   5.905   7.683  2.5870  0.0437 -2.1212
   33CHL1   C16 3569   3.473   5.767   7.516 -0.2270 -0.2017 -0.6422
   33CHL1  H16A 3570   3.391   5.741   7.446 -1.0886  0.9579 -0.0917
   33CHL1  H16B 3571   3.513   5.860   7.472 -0.4692 -1.1520 -3.0080
   33CHL1   C17 3572   3.555   5.638   7.518  0.4823 -0.0035  0.5160
   33CHL1   H17 3573   3.657   5.675   7.540  0.7909 -1.1944  1.1708
   33CHL1   C13 3574   3.518   5.568   7.656  0.2394  0.0502 -0.2209
   33CHL1   C18 3575   3.384   5.489   7.633 -0.6015 -0.0217 -0.6224
   33CHL1  H18A 3576   3.350   5.442   7.728 -0.1254  1.0136  0.0843
   33CHL1  H18B 3577   3.306   5.548   7.581 -0.7985 -0.3115 -0.6536
   33CHL1  H18C 3578   3.411   5.397   7.578 -1.6408 -1.0737  0.5558
   33CHL1   C12 3579   3.623   5.484   7.732 -0.7970  0.3478  0.1514
   33CHL1  H12A 3580   3.643   5.393   7.670 -1.8917  0.2704 -0.1096
   33CHL1  H12B 3581   3.713   5.548   7.725 -0.5265 -0.1776 -2.0795
   33CHL1   C11 3582   3.579   5.442   7.870 -0.2189 -0.6048  0.7759
   33CHL1  H11A 3583   3.497   5.368   7.865  0.1092 -0.9059 -0.2307
   33CHL1  H11B 3584   3.664   5.388   7.917  0.7868  1.1216  1.0425
   33CHL1    C9 3585   3.527   5.559   7.960 -0.3989 -0.1516  0.3964
   33CHL1    H9 3586   3.615   5.620   7.988 -0.4958 -0.2542  0.9403
   33CHL1   C10 3587   3.473   5.521   8.097  0.7281 -0.3518  0.1305
   33CHL1   C19 3588   3.343   5.431   8.075 -0.5830 -0.0751 -0.3112
   33CHL1  H19A 3589   3.264   5.486   8.019  2.3199  1.5628 -3.0906
   33CHL1  H19B 3590   3.382   5.337   8.030  3.1277  1.4198 -0.5660
   33CHL1  H19C 3591   3.299   5.403   8.174 -1.3475 -1.6693 -1.0610
   33CHL1    C1 3592   3.584   5.450   8.183 -0.2069  0.6795 -0.5363
   33CHL1   H1A 3593   3.604   5.350   8.137 -1.4273  1.0400 -1.9220
   33CHL1   H1B 3594   3.685   5.495   8.175  1.2801 -2.0817  1.1649
   33CHL1    C2 3595   3.558   5.429   8.336  0.6011 -0.0190 -0.7917
   33CHL1   H2A 3596   3.648   5.392   8.390  2.6709  2.0664 -2.6041
   33CHL1   H2B 3597   3.483   5.348   8.347  0.8878 -0.4942 -2.1519
   33CHL1   C20 3598   3.569   5.561   7.381 -0.0383  0.4360 -0.0750
   33CHL1   H20 3599   3.469   5.550   7.332  0.8516 -0.6144 -1.7668
   33CHL1   C21 3600   3.635   5.421   7.393 -0.3550 -0.8102  0.3355
   33CHL1  H21A 3601   3.578   5.358   7.465 -0.7810 -1.4119 -0.5055
   33CHL1  H21B 3602   3.739   5.423   7.431 -0.9462  0.6962  2.0103
   33CHL1  H21C 3603   3.638   5.374   7.292 -0.6382 -0.5949  0.2258
   33CHL1   C22 3604   3.654   5.645   7.283 -0.4754 -0.2743 -0.4473
   33CHL1  H22A 3605   3.631   5.753   7.292  0.8199  0.0036 -0.2387
   33CHL1  H22B 3606   3.761   5.634   7.313 -1.0993  2.0937  3.2479
   33CHL1   C23 3607   3.647   5.618   7.130  0.3638 -0.0557  0.3422
   33CHL1  H23A 3608   3.655   5.509   7.110  1.8828  0.0799  0.1157
   33CHL1  H23B 3609   3.545   5.645   7.094  0.4320  2.1188  1.5956
   33CHL1   C24 3610   3.761   5.692   7.062  0.1398 -0.0525  0.1738
   33CHL1  H24A 3611   3.750   5.797   7.098 -2.0281 -0.0466 -0.3575
   33CHL1  H24B 3612   3.857   5.650   7.099  0.4037 -1.8705 -2.2687
   33CHL1   C25 3613   3.765   5.687   6.909 -0.5713  0.3649 -0.2463
   33CHL1   H25 3614   3.756   5.580   6.884  0.2489  0.4377 -0.9035
   33CHL1   C26 3615   3.657   5.763   6.844  0.6934 -0.1515 -0.6746
   33CHL1  H26A 3616   3.674   5.775   6.735 -2.9794 -0.9563 -1.4793
   33CHL1  H26B 3617   3.564   5.703   6.853 -0.6505  2.0085  0.8684
   33CHL1  H26C 3618   3.624   5.859   6.888  1.6998 -0.3725  0.6206
   33CHL1   C27 3619   3.906   5.738   6.860 -0.7841 -0.4376 -0.0873
   33CHL1  H27A 3620   3.989   5.680   6.906 -1.8084 -1.1582  0.9091
   33CHL1  H27B 3621   3.900   5.742   6.749 -2.5704  2.7818  0.0143
   33CHL1  H27C 3622   3.911   5.848   6.877 -0.6514 -0.3407 -0.7233
   34CHL1    C3 3623   2.092   0.440   8.236 -0.0838  0.1633 -0.4480
   34CHL1    H3 3624   2.107   0.334   8.205  3.6103  0.6166 -0.6480
   34CHL1    O3 3625   2.056   0.431   8.376  0.2089  1.0209 -0.7217
   34CHL1   H3' 3626   2.005   0.352   8.395 -2.8843  2.7755 -1.0156
   34CHL1    C4 3627   2.222   0.512   8.210 -0.4295 -0.1790 -0.2185
   34CHL1   H4A 3628   2.216   0.621   8.230  2.8776  0.2946 -1.0654
   34CHL1   H4B 3629   2.289   0.473   8.289 -1.3984 -0.3148  0.5407
   34CHL1    C5 3630   2.263   0.497   8.061 -0.0202  0.3542  0.4230
   34CHL1    C6 3631   2.377   0.432   8.032  0.1792  0.3798 -0.5595
   34CHL1    H6 3632   2.449   0.402   8.110  0.1808  3.1063  0.5972
   34CHL1    C7 3633   2.424   0.406   7.891  0.7842 -0.4571  0.5387
   34CHL1   H7A 3634   2.531   0.416   7.865  0.5892  1.0170  0.1639
   34CHL1   H7B 3635   2.392   0.303   7.864 -0.8359  0.4824 -1.4681
   34CHL1    C8 3636   2.352   0.510   7.791  0.0115 -0.5642  0.9978
   34CHL1    H8 3637   2.391   0.610   7.820 -0.5824  0.7353 -2.2307
   34CHL1   C14 3638   2.399   0.482   7.651  0.5336 -0.9115 -0.2123
   34CHL1   H14 3639   2.361   0.379   7.638 -0.5377 -0.9608  2.5381
   34CHL1   C15 3640   2.547   0.480   7.623 -1.2804  0.0226  0.1044
   34CHL1  H15A 3641   2.608   0.559   7.672 -0.5042 -0.0692 -0.6838
   34CHL1  H15B 3642   2.591   0.379   7.636 -1.9704 -0.3656 -0.5131
   34CHL1   C16 3643   2.557   0.517   7.468 -0.2355  0.0508  0.1423
   34CHL1  H16A 3644   2.600   0.618   7.451  2.4309 -0.1636  4.1019
   34CHL1  H16B 3645   2.605   0.434   7.412  0.6785  0.5013  0.2323
   34CHL1   C17 3646   2.406   0.517   7.423  0.0979 -0.5421  0.0123
   34CHL1   H17 3647   2.387   0.408   7.409  1.3518 -0.6076 -1.6185
   34CHL1   C13 3648   2.330   0.572   7.546 -0.0003  0.6331  0.0074
   34CHL1   C18 3649   2.363   0.724   7.575  0.4011  0.2055 -0.2946
   34CHL1  H18A 3650   2.471   0.745   7.587  0.0930  1.2260  0.8831
   34CHL1  H18B 3651   2.332   0.786   7.488  0.6050  1.7299  0.6887
   34CHL1  H18C 3652   2.327   0.773   7.668  0.5320  2.0869 -1.2051
   34CHL1   C12 3653   2.177   0.542   7.553  0.1206 -0.2716 -0.2521
   34CHL1  H12A 3654   2.127   0.613   7.483 -0.9370  0.3231  1.0687
   34CHL1  H12B 3655   2.159   0.437   7.522  0.9078 -0.4694 -0.0530
   34CHL1   C11 3656   2.126   0.568   7.699 -0.0539  0.6635 -0.0594
   34CHL1  H11A 3657   2.114   0.678   7.714 -0.3110  0.7704 -1.0158
   34CHL1  H11B 3658   2.023   0.526   7.695 -0.1899  1.0203 -0.4638
   34CHL1    C9 3659   2.199   0.499   7.813 -0.0976  0.0321 -0.1307
   34CHL1    H9 3660   2.181   0.389   7.812 -1.3046  0.2165 -1.0523
   34CHL1   C10 3661   2.161   0.546   7.961 -0.3328 -0.0378 -0.2945
   34CHL1   C19 3662   2.159   0.701   7.968  0.5383 -0.0927  0.4180
   34CHL1  H19A 3663   2.250   0.747   7.923  0.6091  0.3380  0.9993
   34CHL1  H19B 3664   2.073   0.738   7.909 -0.7860 -1.0592  1.6616
   34CHL1  H19C 3665   2.159   0.742   8.071  2.4188  0.9422  0.0548
   34CHL1    C1 3666   2.018   0.493   7.992 -0.7384 -0.6658  0.4914
   34CHL1   H1A 3667   1.943   0.554   7.936  0.8219  0.4459 -0.4747
   34CHL1   H1B 3668   2.003   0.385   7.975  0.6081 -0.9481  0.9790
   34CHL1    C2 3669   1.992   0.511   8.143  0.1405  0.4119 -0.0518
   34CHL1   H2A 3670   1.895   0.471   8.178  1.2594 -1.1900  1.3839
   34CHL1   H2B 3671   1.988   0.616   8.179 -0.1289  0.3754  0.0245
   34CHL1   C20 3672   2.381   0.574   7.284  0.1625 -0.1391  0.3650
   34CHL1   H20 3673   2.388   0.685   7.286 -2.3200  0.0842  0.1456
   34CHL1   C21 3674   2.241   0.533   7.231  1.0378  0.9745 -0.6471
   34CHL1  H21A 3675   2.155   0.564   7.294  0.0672 -2.3260 -0.1489
   34CHL1  H21B 3676   2.227   0.423   7.227 -1.8773  1.3177 -2.4400
   34CHL1  H21C 3677   2.237   0.560   7.123  1.0767 -1.1548 -1.2390
   34CHL1   C22 3678   2.484   0.520   7.183  0.2492 -0.8854 -0.9326
   34CHL1  H22A 3679   2.587   0.506   7.223 -0.5148  1.5032  2.1579
   34CHL1  H22B 3680   2.453   0.418   7.152 -1.6172 -0.5131 -0.3702
   34CHL1   C23 3681   2.508   0.615   7.061 -0.0475  0.2750  0.3447
   34CHL1  H23A 3682   2.436   0.602   6.978  2.1245 -1.4555 -1.4090
   34CHL1  H23B 3683   2.494   0.722   7.088 -0.3906 -0.0709  1.5948
   34CHL1   C24 3684   2.647   0.585   6.996 -0.2969  0.3299 -1.2671
   34CHL1  H24A 3685   2.720   0.614   7.074 -1.1318  1.9037 -1.0266
   34CHL1  H24B 3686   2.664   0.476   6.981  2.4412  0.4689  0.1062
   34CHL1   C25 3687   2.676   0.678   6.876 -0.0784 -0.2502 -0.3318
   34CHL1   H25 3688   2.661   0.784   6.906  0.7302 -0.3710  0.5576
   34CHL1   C26 3689   2.820   0.661   6.833 -0.0917  0.2907 -0.2691
   34CHL1  H26A 3690   2.856   0.753   6.781 -0.6538 -0.0158 -1.2228
   34CHL1  H26B 3691   2.890   0.633   6.915 -1.5633  0.3057  1.0308
   34CHL1  H26C 3692   2.843   0.576   6.765  2.3092 -0.3974  1.2662
   34CHL1   C27 3693   2.584   0.643   6.757 -0.2576  0.4999  0.2404
   34CHL1  H27A 3694   2.609   0.537   6.735  2.4552  1.3995 -1.5450
   34CHL1  H27B 3695   2.476   0.653   6.781 -0.4113  0.7544 -0.5107
   34CHL1  H27C 3696   2.603   0.705   6.666 -1.4213 -0.1888 -0.4855
   35CHL1    C3 3697   5.146   1.217   8.031  0.2037 -0.5862  0.6183
   35CHL1    H3 3698   5.118   1.117   7.993  0.5580 -0.6540  0.5340
   35CHL1    O3 3699   5.161   1.229   8.167  0.1202  0.2551  0.1522
   35CHL1   H3' 3700   5.202   1.312   8.194 -0.8926  0.6607  0.4897
   35CHL1    C4 3701   5.284   1.260   7.961  0.5136  0.5315 -0.5146
   35CHL1   H4A 3702   5.315   1.359   8.001 -1.3920  1.1730 -0.4850
   35CHL1   H4B 3703   5.365   1.193   7.995  1.2662  1.3998 -0.5657
   35CHL1    C5 3704   5.267   1.264   7.811  0.0919  0.7664  0.1379
   35CHL1    C6 3705   5.335   1.180   7.725  0.1313 -0.0078 -0.4611
   35CHL1    H6 3706   5.413   1.113   7.763 -2.0443 -1.7748  1.1240
   35CHL1    C7 3707   5.331   1.192   7.574 -0.1526  0.1298  0.2097
   35CHL1   H7A 3708   5.431   1.207   7.527 -0.4099  0.7804 -0.1458
   35CHL1   H7B 3709   5.281   1.098   7.545 -0.9398  0.5087  0.3197
   35CHL1    C8 3710   5.260   1.318   7.518 -0.4246 -0.3779  0.2424
   35CHL1    H8 3711   5.327   1.406   7.532  0.1480 -1.1640  3.3759
   35CHL1   C14 3712   5.220   1.298   7.374  0.4011 -1.1603 -0.3206
   35CHL1   H14 3713   5.153   1.210   7.368  0.9235 -1.5640 -0.3742
   35CHL1   C15 3714   5.333   1.267   7.280 -0.1958  0.0659  0.9371
   35CHL1  H15A 3715   5.432   1.301   7.316  0.4941 -1.9771  1.1128
   35CHL1  H15B 3716   5.339   1.157   7.263  2.3096  0.5324 -2.0203
   35CHL1   C16 3717   5.297   1.335   7.152  0.1337  0.3375  0.0911
   35CHL1  H16A 3718   5.363   1.414   7.112 -2.0406  2.1051 -0.2330
   35CHL1  H16B 3719   5.282   1.260   7.071 -1.2973  1.0976 -0.3804
   35CHL1   C17 3720   5.151   1.397   7.171 -0.0034  0.4497  0.0448
   35CHL1   H17 3721   5.078   1.315   7.161  0.4718  0.0228  0.0279
   35CHL1   C13 3722   5.149   1.420   7.321 -0.4279 -0.5209  0.6484
   35CHL1   C18 3723   5.231   1.559   7.335 -0.2059 -0.6131 -0.8867
   35CHL1  H18A 3724   5.242   1.576   7.444  2.9110 -0.3559 -1.1631
   35CHL1  H18B 3725   5.330   1.542   7.288  0.2080 -0.8346  0.0551
   35CHL1  H18C 3726   5.169   1.642   7.295 -0.6190 -0.0642  0.8399
   35CHL1   C12 3727   5.018   1.432   7.396  0.6604  0.4251 -0.1335
   35CHL1  H12A 3728   4.969   1.521   7.352  0.8635  0.2495 -0.7320
   35CHL1  H12B 3729   4.949   1.349   7.367  1.7584  0.2872 -2.6678
   35CHL1   C11 3730   5.039   1.450   7.542 -0.6185 -0.3037 -0.7630
   35CHL1  H11A 3731   5.082   1.551   7.560  1.5496 -1.4491  0.9665
   35CHL1  H11B 3732   4.946   1.440   7.602  0.8988  1.2881  2.0752
   35CHL1    C9 3733   5.140   1.344   7.600  0.1906 -0.9860 -0.0070
   35CHL1    H9 3734   5.083   1.249   7.598 -2.4201  0.4691  0.5067
   35CHL1   C10 3735   5.161   1.362   7.759 -0.1987  0.1629 -0.2313
   35CHL1   C19 3736   5.197   1.509   7.786 -0.5208 -0.1412 -0.7326
   35CHL1  H19A 3737   5.287   1.544   7.730 -0.1396  1.1875  0.6470
   35CHL1  H19B 3738   5.115   1.582   7.771  1.2501  2.4736  1.3892
   35CHL1  H19C 3739   5.220   1.527   7.893  1.1204  0.4245 -1.1387
   35CHL1    C1 3740   5.032   1.314   7.833 -1.0229 -0.6670  0.0966
   35CHL1   H1A 3741   4.956   1.391   7.808 -0.0250  0.7025  1.1087
   35CHL1   H1B 3742   4.992   1.215   7.803 -2.4110  0.2108 -1.0616
   35CHL1    C2 3743   5.038   1.316   7.988  0.7409 -0.1652  0.8262
   35CHL1   H2A 3744   4.942   1.281   8.032 -0.2392  3.2709  1.6925
   35CHL1   H2B 3745   5.059   1.416   8.033  1.3163  1.1153 -2.0977
   35CHL1   C20 3746   5.109   1.506   7.066 -0.1443 -0.4002  0.7332
   35CHL1   H20 3747   5.160   1.600   7.097  1.7619 -0.6089 -1.5057
   35CHL1   C21 3748   4.956   1.529   7.079 -0.0584  0.5997 -0.7916
   35CHL1  H21A 3749   4.913   1.537   6.977 -1.0150 -3.0861 -0.8171
   35CHL1  H21B 3750   4.923   1.599   7.160 -2.7639 -2.8278  1.3824
   35CHL1  H21C 3751   4.901   1.440   7.118  1.1277  0.5618  0.9103
   35CHL1   C22 3752   5.156   1.487   6.918 -0.0381  0.2140  1.1764
   35CHL1  H22A 3753   5.095   1.551   6.852 -1.4730  0.6654  2.8557
   35CHL1  H22B 3754   5.264   1.508   6.903  0.1428  0.5773  2.7788
   35CHL1   C23 3755   5.123   1.343   6.858  0.6029 -0.4348  0.5795
   35CHL1  H23A 3756   5.175   1.262   6.914  1.7521  1.4589  2.3861
   35CHL1  H23B 3757   5.015   1.317   6.866 -0.2935  1.6984 -2.5125
   35CHL1   C24 3758   5.170   1.344   6.707 -0.0287  0.1506  0.2110
   35CHL1  H24A 3759   5.106   1.417   6.653 -1.4751 -0.8055  0.5706
   35CHL1  H24B 3760   5.275   1.380   6.701 -0.3429  0.9185 -0.9209
   35CHL1   C25 3761   5.167   1.207   6.634  0.0587 -0.4667  0.3891
   35CHL1   H25 3762   5.069   1.157   6.647 -1.1754  1.9368  0.9579
   35CHL1   C26 3763   5.202   1.230   6.486 -0.0639  0.1518 -0.2114
   35CHL1  H26A 3764   5.207   1.135   6.429  0.4030  0.3319 -0.4795
   35CHL1  H26B 3765   5.123   1.296   6.444 -0.3813  0.0975  0.3034
   35CHL1  H26C 3766   5.297   1.288   6.483 -1.2335  2.3500  1.8684
   35CHL1   C27 3767   5.279   1.121   6.697  0.2582 -0.3176  0.1165
   35CHL1  H27A 3768   5.365   1.188   6.718 -0.0387  0.1225 -0.0538
   35CHL1  H27B 3769   5.253   1.085   6.799  1.0054 -0.5740  0.2228
   35CHL1  H27C 3770   5.317   1.039   6.633  0.0962 -1.4481  1.4175
   36CHL1    C3 3771   2.300   4.341   8.116  0.5195  0.5520  0.1404
   36CHL1    H3 3772   2.255   4.437   8.084 -1.6900 -0.2734  0.5593
   36CHL1    O3 3773   2.321   4.348   8.253  0.2188  0.2211 -0.3296
   36CHL1   H3' 3774   2.265   4.277   8.286  1.9435 -0.8000  0.5398
   36CHL1    C4 3775   2.208   4.226   8.087 -0.0228 -0.2042  0.0985
   36CHL1   H4A 3776   2.254   4.135   8.131 -0.3089 -0.1624  0.4787
   36CHL1   H4B 3777   2.105   4.238   8.127 -0.4533 -0.3279 -0.9403
   36CHL1    C5 3778   2.197   4.204   7.933  0.2494  0.6420 -0.4319
   36CHL1    C6 3779   2.080   4.202   7.865 -0.8024 -0.5023  0.0323
   36CHL1    H6 3780   1.987   4.214   7.923 -0.9870 -2.2181  0.1494
   36CHL1    C7 3781   2.068   4.177   7.719 -0.1697 -0.0489 -0.7104
   36CHL1   H7A 3782   1.991   4.100   7.700 -0.3926  0.5448 -2.3847
   36CHL1   H7B 3783   2.033   4.270   7.670  0.8116 -0.1228 -1.5902
   36CHL1    C8 3784   2.204   4.127   7.649 -0.2985 -0.2717 -0.5336
   36CHL1    H8 3785   2.213   4.018   7.671 -0.9407 -0.8983 -3.0125
   36CHL1   C14 3786   2.192   4.138   7.499 -0.4931  0.3203 -0.8524
   36CHL1   H14 3787   2.186   4.248   7.483 -2.2561  0.2183 -1.0937
   36CHL1   C15 3788   2.067   4.076   7.441 -0.3601 -0.2634 -0.2302
   36CHL1  H15A 3789   2.052   3.971   7.475  0.8447 -0.2082  0.5126
   36CHL1  H15B 3790   1.981   4.145   7.450  0.8671  1.5252 -1.5550
   36CHL1   C16 3791   2.110   4.077   7.293 -0.4209 -0.1145 -0.4509
   36CHL1  H16A 3792   2.073   3.976   7.263 -2.6435  0.1380  1.1667
   36CHL1  H16B 3793   2.062   4.158   7.234 -0.8889 -0.6375 -0.8020
   36CHL1   C17 3794   2.264   4.108   7.282  0.5680 -0.1255  0.2873
   36CHL1   H17 3795   2.263   4.217   7.263  0.2564 -0.0887  0.4962
   36CHL1   C13 3796   2.319   4.091   7.422  0.0008 -0.6711  0.3766
   36CHL1   C18 3797   2.332   3.940   7.463  0.1775 -0.1404 -0.2145
   36CHL1  H18A 3798   2.340   3.922   7.572 -0.9011  0.4867 -0.0187
   36CHL1  H18B 3799   2.255   3.872   7.422  0.6492 -0.6275 -0.3061
   36CHL1  H18C 3800   2.429   3.907   7.420  0.9687  1.0618  0.5721
   36CHL1   C12 3801   2.441   4.172   7.474 -0.1030 -0.2286  0.1366
   36CHL1  H12A 3802   2.532   4.129   7.427 -0.2495 -0.1308 -0.2439
   36CHL1  H12B 3803   2.426   4.279   7.449  2.3029 -0.4984 -3.1130
   36CHL1   C11 3804   2.454   4.156   7.627  0.2247  0.1103  0.6291
   36CHL1  H11A 3805   2.474   4.050   7.651 -2.0138 -0.1108  1.7872
   36CHL1  H11B 3806   2.544   4.217   7.651  0.5823 -0.2942  0.3341
   36CHL1    C9 3807   2.323   4.199   7.706  0.1696 -0.7780  0.3200
   36CHL1    H9 3808   2.305   4.304   7.674  0.2420 -0.5966  0.8697
   36CHL1   C10 3809   2.339   4.185   7.860  1.0246  0.4186  0.3447
   36CHL1   C19 3810   2.385   4.052   7.907  0.4493  0.3782  0.4188
   36CHL1  H19A 3811   2.483   4.017   7.869 -1.1702 -3.3832 -0.8191
   36CHL1  H19B 3812   2.395   4.047   8.018  0.0060  0.3821  0.4611
   36CHL1  H19C 3813   2.310   3.971   7.888  2.5247 -1.7206  0.7186
   36CHL1    C1 3814   2.430   4.304   7.901 -0.2878  0.4968  0.2397
   36CHL1   H1A 3815   2.532   4.276   7.867 -1.6558 -2.4194 -1.8563
   36CHL1   H1B 3816   2.399   4.397   7.849  1.5127  0.8508 -0.2628
   36CHL1    C2 3817   2.438   4.330   8.051  0.0335  0.4360 -0.2796
   36CHL1   H2A 3818   2.496   4.418   8.084  1.5059 -0.4384 -0.4383
   36CHL1   H2B 3819   2.494   4.241   8.087 -0.5297  0.1476 -0.0924
   36CHL1   C20 3820   2.329   4.035   7.167  0.2043 -0.0176 -0.3321
   36CHL1   H20 3821   2.317   3.924   7.171  0.9431 -0.1421 -1.1286
   36CHL1   C21 3822   2.484   4.066   7.132  0.4664  0.1544 -0.2360
   36CHL1  H21A 3823   2.497   4.177   7.131  1.0456  0.0880 -0.0311
   36CHL1  H21B 3824   2.510   4.030   7.031  0.7504 -0.4812  0.0602
   36CHL1  H21C 3825   2.551   4.026   7.211  0.6234  0.8777  0.0060
   36CHL1   C22 3826   2.247   4.054   7.032 -0.1478 -0.3572  0.4755
   36CHL1  H22A 3827   2.142   4.034   7.060 -0.0256 -0.5115  0.8288
   36CHL1  H22B 3828   2.265   4.161   7.009 -1.0861 -0.0620  1.0699
   36CHL1   C23 3829   2.290   3.965   6.911 -0.3947  0.3154 -0.3676
   36CHL1  H23A 3830   2.388   4.002   6.874 -1.9373  1.8051 -3.3518
   36CHL1  H23B 3831   2.298   3.858   6.939 -1.8572  0.2254 -0.2224
   36CHL1   C24 3832   2.204   3.992   6.787  0.0224  0.0623  0.2868
   36CHL1  H24A 3833   2.222   3.921   6.703  2.2041  2.9002 -1.8399
   36CHL1  H24B 3834   2.098   3.979   6.817 -0.0094 -0.3885 -0.0023
   36CHL1   C25 3835   2.201   4.137   6.738  0.5645 -0.3747 -0.0768
   36CHL1   H25 3836   2.211   4.199   6.830  2.2566 -1.5475  0.5848
   36CHL1   C26 3837   2.314   4.177   6.649  0.3884  0.2743 -0.2669
   36CHL1  H26A 3838   2.407   4.147   6.703 -1.0782  0.9549  2.9031
   36CHL1  H26B 3839   2.307   4.123   6.552  0.3544  0.0935 -0.1665
   36CHL1  H26C 3840   2.312   4.286   6.629  0.1432  0.0438 -1.5569
   36CHL1   C27 3841   2.070   4.169   6.666  0.9292  0.0499  0.1720
   36CHL1  H27A 3842   1.988   4.159   6.740  1.7669 -1.5270  0.9221
   36CHL1  H27B 3843   2.067   4.260   6.602  0.8482 -0.9000 -1.2210
   36CHL1  H27C 3844   2.053   4.092   6.588 -1.1771  0.3112  0.3025
   37CHL1    C3 3845   3.511   3.875   8.245  0.4824 -0.2530 -0.2405
   37CHL1    H3 3846   3.460   3.918   8.156  3.2014  0.0397 -1.7806
   37CHL1    O3 3847   3.478   3.965   8.351  0.0613 -0.5897 -0.1098
   37CHL1   H3' 3848   3.515   3.928   8.432 -0.2424  0.2040  0.4037
   37CHL1    C4 3849   3.469   3.731   8.275 -0.2040 -0.1988  0.8807
   37CHL1   H4A 3850   3.513   3.692   8.369 -1.6769 -2.0144  0.8726
   37CHL1   H4B 3851   3.358   3.735   8.279 -0.2686  1.8976 -0.9364
   37CHL1    C5 3852   3.516   3.639   8.163 -0.4692 -0.0836  0.5880
   37CHL1    C6 3853   3.427   3.571   8.088 -0.2999 -0.0770  0.5046
   37CHL1    H6 3854   3.319   3.584   8.102 -0.7598 -1.6108 -1.2709
   37CHL1    C7 3855   3.460   3.466   7.988 -0.0436 -0.6944 -0.3369
   37CHL1   H7A 3856   3.403   3.373   8.010 -0.7933 -0.1504  0.0593
   37CHL1   H7B 3857   3.425   3.498   7.887  0.3909 -0.6259 -0.4664
   37CHL1    C8 3858   3.612   3.436   7.974 -0.2853 -0.3906  0.2862
   37CHL1    H8 3859   3.639   3.370   8.059  0.6442 -1.2963 -0.6716
   37CHL1   C14 3860   3.637   3.373   7.834  0.1895 -0.4133  0.3253
   37CHL1   H14 3861   3.609   3.449   7.759 -1.4605 -1.5494 -0.2635
   37CHL1   C15 3862   3.559   3.245   7.804 -0.3247 -0.8010  0.8092
   37CHL1  H15A 3863   3.568   3.185   7.897  2.7789 -1.0799  0.4087
   37CHL1  H15B 3864   3.452   3.263   7.777 -0.6114  1.2670  3.0153
   37CHL1   C16 3865   3.642   3.180   7.693 -0.5648 -0.2904  0.6223
   37CHL1  H16A 3866   3.663   3.075   7.722  0.1815  0.2491  2.0780
   37CHL1  H16B 3867   3.581   3.179   7.599  1.1357 -1.8275 -0.5372
   37CHL1   C17 3868   3.762   3.276   7.668  0.8195  0.1236  0.4199
   37CHL1   H17 3869   3.728   3.353   7.595 -0.5121 -1.2708 -0.4979
   37CHL1   C13 3870   3.786   3.345   7.800  0.3733  0.5924  0.2822
   37CHL1   C18 3871   3.841   3.246   7.910  0.7027 -0.4606  0.1453
   37CHL1  H18A 3872   3.806   3.262   8.014  0.3163  0.4349 -0.1215
   37CHL1  H18B 3873   3.821   3.139   7.885  0.2592 -0.3340 -0.0423
   37CHL1  H18C 3874   3.951   3.259   7.912  0.3804  5.2029 -2.0539
   37CHL1   C12 3875   3.858   3.479   7.800 -0.0629  0.3799 -0.6003
   37CHL1  H12A 3876   3.967   3.466   7.780  0.0885 -1.6671  1.2332
   37CHL1  H12B 3877   3.815   3.535   7.714  1.3567  1.0066 -0.9436
   37CHL1   C11 3878   3.835   3.555   7.938  0.1022  0.0776  0.1239
   37CHL1  H11A 3879   3.892   3.494   8.011  1.5899 -0.6320 -1.5674
   37CHL1  H11B 3880   3.874   3.659   7.937 -0.5846  0.3922  1.8846
   37CHL1    C9 3881   3.690   3.570   7.977 -0.3267 -0.2776 -0.1917
   37CHL1    H9 3882   3.643   3.625   7.892  0.2405 -0.2057 -0.4702
   37CHL1   C10 3883   3.664   3.639   8.116  0.7380 -0.5553  0.5349
   37CHL1   C19 3884   3.753   3.592   8.229 -0.3523 -0.1926 -0.2606
   37CHL1  H19A 3885   3.738   3.639   8.329 -0.0618 -1.7574  0.5585
   37CHL1  H19B 3886   3.753   3.482   8.246  2.8942 -0.5402 -1.8221
   37CHL1  H19C 3887   3.859   3.613   8.202  0.5686 -0.8560  2.4930
   37CHL1    C1 3888   3.698   3.795   8.085  0.6333 -0.1156 -0.7959
   37CHL1   H1A 3889   3.807   3.795   8.066  0.8980 -0.8554  0.5789
   37CHL1   H1B 3890   3.645   3.828   7.993 -0.7949 -0.2533 -0.0423
   37CHL1    C2 3891   3.659   3.890   8.200  0.0511  0.1112 -0.1677
   37CHL1   H2A 3892   3.702   3.992   8.191  0.9497 -0.0751  1.7477
   37CHL1   H2B 3893   3.710   3.854   8.292 -1.9861 -1.0003  0.5907
   37CHL1   C20 3894   3.883   3.212   7.592  0.2729 -1.0429 -0.1305
   37CHL1   H20 3895   3.933   3.154   7.673 -0.4104  0.6137  1.5688
   37CHL1   C21 3896   3.975   3.321   7.525  0.2361  0.4177  0.1470
   37CHL1  H21A 3897   4.047   3.274   7.455  1.4147  0.8963  0.9801
   37CHL1  H21B 3898   4.046   3.358   7.603 -0.2422  0.1876  0.6912
   37CHL1  H21C 3899   3.917   3.404   7.479  0.8376  0.8379  0.1302
   37CHL1   C22 3900   3.843   3.100   7.487 -0.1340 -0.5502 -0.4846
   37CHL1  H22A 3901   3.941   3.065   7.449  1.7349  2.3904  1.2796
   37CHL1  H22B 3902   3.792   3.013   7.535 -2.0047  0.5963 -0.2750
   37CHL1   C23 3903   3.772   3.155   7.363  0.8340 -0.1362 -0.0166
   37CHL1  H23A 3904   3.717   3.245   7.397  0.8919 -0.6386  1.5011
   37CHL1  H23B 3905   3.849   3.177   7.285  0.9289 -1.3943 -0.2953
   37CHL1   C24 3906   3.657   3.072   7.310  0.2157 -0.4582 -0.0540
   37CHL1  H24A 3907   3.693   2.970   7.285  0.7196 -0.3005  0.0362
   37CHL1  H24B 3908   3.577   3.080   7.387  0.3945  0.6485  0.0348
   37CHL1   C25 3909   3.594   3.109   7.176  0.1361  0.0976  0.8552
   37CHL1   H25 3910   3.671   3.115   7.096 -0.1843  2.1241  0.6297
   37CHL1   C26 3911   3.489   3.008   7.135  0.4508  0.6415 -0.0705
   37CHL1  H26A 3912   3.405   3.004   7.208 -0.0062 -1.6974 -0.6245
   37CHL1  H26B 3913   3.457   3.024   7.030  1.4504  0.8098 -0.3578
   37CHL1  H26C 3914   3.543   2.911   7.144  2.2578  1.5955 -0.1367
   37CHL1   C27 3915   3.527   3.243   7.180 -0.2192  0.5051  0.1747
   37CHL1  H27A 3916   3.444   3.245   7.254  0.4279  2.6085  0.9221
   37CHL1  H27B 3917   3.590   3.332   7.202 -1.7755  2.1175 -1.5753
   37CHL1  H27C 3918   3.491   3.264   7.077  0.4068 -0.6720 -0.3032
   38CHL1    C3 3919   3.546   4.374   8.543  0.8590 -0.1488 -0.6694
   38CHL1    H3 3920   3.632   4.439   8.518 -0.1178  0.4763 -2.5142
   38CHL1    O3 3921   3.544   4.340   8.683 -0.2508 -0.7502 -0.3880
   38CHL1   H3' 3922   3.553   4.245   8.685 -1.5444 -0.8804  0.0526
   38CHL1    C4 3923   3.418   4.453   8.503 -0.2382  0.6356  0.5859
   38CHL1   H4A 3924   3.327   4.396   8.530  0.7760 -1.7938 -0.7448
   38CHL1   H4B 3925   3.419   4.544   8.566 -0.3334  1.0784 -0.0393
   38CHL1    C5 3926   3.418   4.494   8.357  0.2329 -0.6011 -0.4967
   38CHL1    C6 3927   3.393   4.625   8.322  0.1565  0.0829 -0.1578
   38CHL1    H6 3928   3.358   4.694   8.399 -1.7620 -1.5173  0.4905
   38CHL1    C7 3929   3.385   4.673   8.180  0.2988  0.2272 -0.2599
   38CHL1   H7A 3930   3.287   4.721   8.159 -0.1508 -1.0014 -1.0089
   38CHL1   H7B 3931   3.455   4.758   8.160  2.3785 -1.5168 -0.7214
   38CHL1    C8 3932   3.381   4.550   8.076  0.2247  0.8256 -0.4281
   38CHL1    H8 3933   3.276   4.515   8.074  0.5935 -0.8112  2.2486
   38CHL1   C14 3934   3.415   4.599   7.933  0.2715 -0.5619 -0.1791
   38CHL1   H14 3935   3.522   4.627   7.944 -0.4069  2.5538 -0.5902
   38CHL1   C15 3936   3.339   4.719   7.890  0.0703 -0.5401  0.0961
   38CHL1  H15A 3937   3.232   4.701   7.913 -0.4253  1.2504 -0.5685
   38CHL1  H15B 3938   3.362   4.810   7.949  0.3414 -0.4071 -0.2098
   38CHL1   C16 3939   3.359   4.718   7.743  0.0344 -0.2422  0.2795
   38CHL1  H16A 3940   3.264   4.723   7.686  1.1938 -0.9313 -1.8062
   38CHL1  H16B 3941   3.426   4.799   7.709 -0.3992 -0.2274 -0.5695
   38CHL1   C17 3942   3.432   4.583   7.704  0.2853 -0.3124 -0.1309
   38CHL1   H17 3943   3.538   4.613   7.703  0.5500 -1.2021 -0.1668
   38CHL1   C13 3944   3.403   4.492   7.826  0.9428 -0.4363 -0.4537
   38CHL1   C18 3945   3.261   4.437   7.813 -0.3978 -0.2727  0.0450
   38CHL1  H18A 3946   3.188   4.520   7.805  1.3522  1.2144 -1.4340
   38CHL1  H18B 3947   3.252   4.381   7.718 -2.1297 -1.1153  0.6691
   38CHL1  H18C 3948   3.238   4.361   7.891 -0.0594 -2.2289 -1.6888
   38CHL1   C12 3949   3.503   4.390   7.863 -0.1556 -0.4482  0.1594
   38CHL1  H12A 3950   3.487   4.302   7.797  1.6667 -1.2640  0.7426
   38CHL1  H12B 3951   3.609   4.423   7.851  0.6380 -2.9981 -0.6893
   38CHL1   C11 3952   3.485   4.332   8.005  0.1838 -0.1016 -0.0922
   38CHL1  H11A 3953   3.388   4.278   8.002  0.6735 -1.0704  1.0089
   38CHL1  H11B 3954   3.568   4.261   8.026 -0.8561 -1.3254 -0.0012
   38CHL1    C9 3955   3.474   4.443   8.116 -0.2848  0.8913 -0.5846
   38CHL1    H9 3956   3.580   4.476   8.125  0.0750 -0.1834 -0.6333
   38CHL1   C10 3957   3.444   4.381   8.256  0.4534  0.0337 -0.2119
   38CHL1   C19 3958   3.307   4.295   8.234  0.3787 -0.4871 -0.1234
   38CHL1  H19A 3959   3.269   4.275   8.337 -0.9146  2.0617 -0.0321
   38CHL1  H19B 3960   3.229   4.348   8.176  1.4189 -1.0687 -2.1463
   38CHL1  H19C 3961   3.343   4.205   8.180  0.3971 -0.0865 -0.7806
   38CHL1    C1 3962   3.559   4.294   8.309  0.3969  0.0627  1.0206
   38CHL1   H1A 3963   3.587   4.207   8.245  1.6069  1.4304 -0.3829
   38CHL1   H1B 3964   3.653   4.353   8.302  0.2582  0.2685  0.8960
   38CHL1    C2 3965   3.558   4.252   8.457  0.2165  0.0957  0.9781
   38CHL1   H2A 3966   3.650   4.193   8.478  0.5511  1.1543  2.6340
   38CHL1   H2B 3967   3.470   4.193   8.491 -0.0306  0.9109  1.7589
   38CHL1   C20 3968   3.401   4.540   7.559  0.5614  0.3067  0.1863
   38CHL1   H20 3969   3.292   4.521   7.553  0.4064  1.0979  0.3822
   38CHL1   C21 3970   3.484   4.410   7.519  0.2020 -0.1372 -0.1257
   38CHL1  H21A 3971   3.589   4.435   7.545  0.5874  1.8141 -3.0269
   38CHL1  H21B 3972   3.484   4.390   7.409 -1.7304 -0.7966 -0.0458
   38CHL1  H21C 3973   3.445   4.320   7.572  1.2068  1.5453  3.8159
   38CHL1   C22 3974   3.432   4.654   7.454 -0.1522  0.0746  1.0700
   38CHL1  H22A 3975   3.402   4.754   7.493  1.9308  1.1310  0.1569
   38CHL1  H22B 3976   3.543   4.655   7.442 -0.1336 -0.4824  1.1929
   38CHL1   C23 3977   3.355   4.630   7.323 -0.1589 -0.2073  0.5137
   38CHL1  H23A 3978   3.384   4.531   7.284 -0.7213 -0.1770  0.0142
   38CHL1  H23B 3979   3.246   4.624   7.341 -0.4116 -2.5511 -1.3402
   38CHL1   C24 3980   3.376   4.742   7.227  0.5573 -0.0540 -0.4935
   38CHL1  H24A 3981   3.325   4.824   7.282 -0.7008 -1.6398  0.8060
   38CHL1  H24B 3982   3.484   4.766   7.215  0.2243  0.7499 -2.2106
   38CHL1   C25 3983   3.315   4.735   7.088 -0.2440 -0.3624 -0.7795
   38CHL1   H25 3984   3.357   4.649   7.032  2.6676  0.8352 -0.6063
   38CHL1   C26 3985   3.155   4.725   7.102 -0.0018  0.6213  0.3946
   38CHL1  H26A 3986   3.131   4.795   7.185 -2.1633  0.2384  0.1669
   38CHL1  H26B 3987   3.097   4.749   7.010  2.5082  1.0176 -1.1639
   38CHL1  H26C 3988   3.135   4.623   7.141  1.5673 -0.3417 -1.1841
   38CHL1   C27 3989   3.352   4.857   7.002  0.0624 -0.8604 -0.8587
   38CHL1  H27A 3990   3.308   4.849   6.900 -0.5294 -1.0981 -0.5839
   38CHL1  H27B 3991   3.324   4.956   7.044 -0.8672 -1.7634  0.7549
   38CHL1  H27C 3992   3.463   4.852   6.994  0.2505  1.7931 -0.8393
   39CHL1    C3 3993   4.501   5.403   8.277  0.6463  0.3010 -0.1481
   39CHL1    H3 3994   4.405   5.348   8.263  1.4932 -1.7302  1.4406
   39CHL1    O3 3995   4.540   5.368   8.405 -0.8750  0.5752  0.9805
   39CHL1   H3' 3996   4.610   5.432   8.420  0.9427 -0.6750 -1.4389
   39CHL1    C4 3997   4.602   5.350   8.179 -0.0619  0.7366 -0.0992
   39CHL1   H4A 3998   4.705   5.388   8.197  0.2129  0.3397 -0.7666
   39CHL1   H4B 3999   4.594   5.239   8.189 -0.6142  0.6274 -1.5083
   39CHL1    C5 4000   4.565   5.398   8.041  0.2537 -0.5638 -0.0514
   39CHL1    C6 4001   4.555   5.307   7.939  1.2323 -0.4012  0.3832
   39CHL1    H6 4002   4.563   5.201   7.964  0.9069 -0.1090  1.7972
   39CHL1    C7 4003   4.525   5.336   7.791 -0.2164 -0.2748 -0.4605
   39CHL1   H7A 4004   4.574   5.271   7.716  1.3445 -0.9560  1.0849
   39CHL1   H7B 4005   4.416   5.336   7.770 -0.0387 -0.1277 -1.4053
   39CHL1    C8 4006   4.567   5.492   7.773  0.3271  0.0074  0.9983
   39CHL1    H8 4007   4.678   5.496   7.774  0.4611 -2.1838  0.3416
   39CHL1   C14 4008   4.505   5.522   7.637  0.3213  0.1392 -0.5166
   39CHL1   H14 4009   4.395   5.509   7.637  0.1467  1.4393 -0.8649
   39CHL1   C15 4010   4.562   5.443   7.515 -0.2168  0.9839  0.2744
   39CHL1  H15A 4011   4.670   5.416   7.526  0.2810  1.8764 -1.7872
   39CHL1  H15B 4012   4.511   5.345   7.513  1.2869  0.1769 -1.1241
   39CHL1   C16 4013   4.540   5.524   7.392  0.6979 -0.0079  0.4204
   39CHL1  H16A 4014   4.639   5.554   7.351 -0.0239  0.7777 -0.8443
   39CHL1  H16B 4015   4.483   5.477   7.309 -0.7205  1.6215  0.4234
   39CHL1   C17 4016   4.474   5.653   7.447  0.0175 -0.4578  0.4800
   39CHL1   H17 4017   4.364   5.634   7.442  0.2399 -1.8934  0.6905
   39CHL1   C13 4018   4.516   5.666   7.598  0.4421  1.2402 -1.0752
   39CHL1   C18 4019   4.663   5.702   7.607 -0.1137 -0.2553  0.1077
   39CHL1  H18A 4020   4.662   5.807   7.571 -2.2627 -0.5483 -0.8545
   39CHL1  H18B 4021   4.710   5.703   7.708  0.6079  1.8165 -0.1967
   39CHL1  H18C 4022   4.732   5.637   7.548  0.1333 -1.5638  1.7670
   39CHL1   C12 4023   4.440   5.742   7.706  0.5436  0.6121  0.0211
   39CHL1  H12A 4024   4.445   5.851   7.683  2.6994  0.4697 -0.4327
   39CHL1  H12B 4025   4.335   5.710   7.696  0.5004  0.8771 -0.3844
   39CHL1   C11 4026   4.492   5.727   7.853 -0.5778 -0.9404 -0.4476
   39CHL1  H11A 4027   4.594   5.772   7.857 -0.7278 -0.6792  0.7012
   39CHL1  H11B 4028   4.430   5.780   7.927  1.1293 -1.1015  1.1581
   39CHL1    C9 4029   4.504   5.580   7.886  0.1610  0.3950  0.6070
   39CHL1    H9 4030   4.399   5.545   7.887  1.0805 -2.6684  0.4352
   39CHL1   C10 4031   4.562   5.548   8.025  0.4917  0.2889 -0.2940
   39CHL1   C19 4032   4.703   5.611   8.050  0.1229 -0.4062 -0.0654
   39CHL1  H19A 4033   4.773   5.592   7.965  1.5218  1.4288  0.5903
   39CHL1  H19B 4034   4.690   5.721   8.064  2.0867 -0.1381 -0.0567
   39CHL1  H19C 4035   4.746   5.577   8.146 -0.1925  1.5960  0.8290
   39CHL1    C1 4036   4.456   5.599   8.126 -0.6932  0.0756 -0.6944
   39CHL1   H1A 4037   4.470   5.709   8.121  0.3449 -0.0194 -0.1488
   39CHL1   H1B 4038   4.349   5.575   8.117 -0.9216 -0.4221  2.2283
   39CHL1    C2 4039   4.491   5.557   8.275  0.1292  0.4473 -0.2660
   39CHL1   H2A 4040   4.416   5.588   8.350  0.3432 -0.3953  0.3170
   39CHL1   H2B 4041   4.592   5.594   8.302 -0.2280  0.2129  1.4793
   39CHL1   C20 4042   4.491   5.772   7.361  0.2956  0.1298  0.7339
   39CHL1   H20 4043   4.588   5.825   7.376 -1.3910  3.7498  0.0369
   39CHL1   C21 4044   4.385   5.881   7.393  0.7747 -0.1937  0.3827
   39CHL1  H21A 4045   4.395   5.921   7.495  1.8645  1.0875 -0.2101
   39CHL1  H21B 4046   4.284   5.836   7.378  1.6835 -2.0043 -0.8349
   39CHL1  H21C 4047   4.386   5.972   7.330  2.0639  0.5725  1.4793
   39CHL1   C22 4048   4.481   5.734   7.208 -0.1745 -0.6287  0.1586
   39CHL1  H22A 4049   4.553   5.657   7.172  0.5853 -0.2308  0.8012
   39CHL1  H22B 4050   4.377   5.702   7.182 -0.7018  2.4822 -2.2110
   39CHL1   C23 4051   4.498   5.853   7.103  0.0110  0.4629  0.4270
   39CHL1  H23A 4052   4.416   5.926   7.119  0.2766  0.9227 -0.2507
   39CHL1  H23B 4053   4.600   5.899   7.101 -0.7633  2.4891  2.9021
   39CHL1   C24 4054   4.478   5.802   6.963  0.0977  0.5122 -0.7189
   39CHL1  H24A 4055   4.534   5.708   6.945  0.5870  0.4952  0.7983
   39CHL1  H24B 4056   4.368   5.787   6.958  0.3009 -1.3566 -0.4311
   39CHL1   C25 4057   4.525   5.909   6.857  0.2744  0.9218 -0.3236
   39CHL1   H25 4058   4.635   5.912   6.868  0.3490  0.8171 -1.0117
   39CHL1   C26 4059   4.497   5.861   6.715  0.2273  0.4603 -0.1752
   39CHL1  H26A 4060   4.387   5.857   6.702  0.1418  1.2602  0.2641
   39CHL1  H26B 4061   4.544   5.928   6.640 -0.6071  0.7297 -0.4623
   39CHL1  H26C 4062   4.545   5.763   6.693  3.4403  1.9195 -0.3278
   39CHL1   C27 4063   4.468   6.051   6.882  0.4333 -0.4454  0.7851
   39CHL1  H27A 4064   4.521   6.117   6.810 -0.7300  0.7339  0.9669
   39CHL1  H27B 4065   4.358   6.051   6.868  0.0301 -0.0568  3.5169
   39CHL1  H27C 4066   4.490   6.077   6.988  0.3151  0.7928  0.5264
   40CHL1    C3 4067   5.452   3.293   8.452  0.0602  0.0011  0.3762
   40CHL1    H3 4068   5.417   3.189   8.435  2.8406 -0.8741 -0.5340
   40CHL1    O3 4069   5.478   3.298   8.593 -0.9113 -0.5211 -0.0140
   40CHL1   H3' 4070   5.392   3.298   8.637 -0.4817 -2.1411  0.9010
   40CHL1    C4 4071   5.582   3.302   8.376 -0.4234  0.6942  0.1805
   40CHL1   H4A 4072   5.634   3.399   8.389  0.2857  0.4524 -0.6802
   40CHL1   H4B 4073   5.649   3.224   8.419 -0.3782  1.2176  1.0837
   40CHL1    C5 4074   5.542   3.291   8.231  0.9045  0.0709 -0.4243
   40CHL1    C6 4075   5.591   3.186   8.164 -0.0305  0.4617  0.7172
   40CHL1    H6 4076   5.665   3.119   8.211  0.4004 -1.5001 -2.4813
   40CHL1    C7 4077   5.572   3.171   8.019 -0.3513 -0.3982  0.0933
   40CHL1   H7A 4078   5.667   3.150   7.965 -0.4614 -0.3804 -0.1037
   40CHL1   H7B 4079   5.516   3.076   8.002 -1.1213 -0.2819  1.7450
   40CHL1    C8 4080   5.496   3.290   7.956 -0.2256  0.5392  0.2829
   40CHL1    H8 4081   5.566   3.373   7.933 -0.4332  0.3605 -1.0676
   40CHL1   C14 4082   5.446   3.243   7.821  0.6486  0.5573  0.0777
   40CHL1   H14 4083   5.372   3.166   7.855  1.1574  0.4056  0.8638
   40CHL1   C15 4084   5.531   3.177   7.715 -0.0777 -0.0661  0.2864
   40CHL1  H15A 4085   5.629   3.229   7.714  0.9358 -1.8785  0.6619
   40CHL1  H15B 4086   5.561   3.073   7.740 -2.5095 -0.2946  2.8598
   40CHL1   C16 4087   5.453   3.194   7.583 -0.9445  0.0376  0.3033
   40CHL1  H16A 4088   5.529   3.229   7.510 -1.8243 -0.2817 -0.7797
   40CHL1  H16B 4089   5.416   3.096   7.547  0.3954 -0.5975  0.6062
   40CHL1   C17 4090   5.331   3.286   7.611 -0.5559 -0.3223 -0.0343
   40CHL1   H17 4091   5.249   3.215   7.636 -1.8296  0.8791 -0.6602
   40CHL1   C13 4092   5.370   3.349   7.749  0.4881  0.3698 -0.5406
   40CHL1   C18 4093   5.460   3.463   7.724  0.1557 -0.3321 -0.2053
   40CHL1  H18A 4094   5.509   3.521   7.805  1.5430  0.1350 -1.3300
   40CHL1  H18B 4095   5.550   3.437   7.664 -0.2115 -0.9673 -0.4988
   40CHL1  H18C 4096   5.405   3.542   7.668 -1.8043 -1.2768  0.2860
   40CHL1   C12 4097   5.249   3.394   7.839  0.6713 -0.1160 -0.2721
   40CHL1  H12A 4098   5.192   3.475   7.788 -2.9811 -2.4473 -0.3300
   40CHL1  H12B 4099   5.182   3.306   7.856  1.2951 -0.7145 -0.8561
   40CHL1   C11 4100   5.291   3.449   7.971  0.0304 -0.1658 -0.0781
   40CHL1  H11A 4101   5.345   3.545   7.953  1.7694 -1.4238 -2.1870
   40CHL1  H11B 4102   5.196   3.472   8.024 -0.2459 -0.8033 -0.2932
   40CHL1    C9 4103   5.383   3.343   8.043  0.1156 -0.3289  0.8313
   40CHL1    H9 4104   5.323   3.252   8.061  1.1325 -1.0683  0.5630
   40CHL1   C10 4105   5.440   3.392   8.174 -0.5471  0.6651 -0.4556
   40CHL1   C19 4106   5.515   3.524   8.158  0.3034  0.0954 -0.8594
   40CHL1  H19A 4107   5.582   3.531   8.069 -1.5614 -0.1286 -2.3643
   40CHL1  H19B 4108   5.441   3.603   8.132 -0.9762 -0.9659 -0.5371
   40CHL1  H19C 4109   5.572   3.564   8.244  0.8957 -1.0729 -0.6939
   40CHL1    C1 4110   5.317   3.396   8.271 -0.8163  0.1529 -0.0579
   40CHL1   H1A 4111   5.254   3.485   8.248 -0.0589  0.7770  0.2270
   40CHL1   H1B 4112   5.257   3.304   8.258  0.7768 -1.0479  0.7395
   40CHL1    C2 4113   5.358   3.407   8.419  0.1984 -0.3641  0.0050
   40CHL1   H2A 4114   5.268   3.404   8.483 -0.1796 -0.1641 -0.5076
   40CHL1   H2B 4115   5.402   3.504   8.451 -1.0764 -0.3722  1.9250
   40CHL1   C20 4116   5.282   3.369   7.494 -0.2596  0.2085  0.6503
   40CHL1   H20 4117   5.231   3.456   7.541  1.6356  2.2690 -0.9202
   40CHL1   C21 4118   5.177   3.280   7.421 -0.3374  0.1838  0.7647
   40CHL1  H21A 4119   5.101   3.240   7.491 -0.8265 -0.5448 -0.1599
   40CHL1  H21B 4120   5.233   3.197   7.372  0.0831  1.0626 -0.2873
   40CHL1  H21C 4121   5.119   3.332   7.342 -0.5279 -1.0408  0.0749
   40CHL1   C22 4122   5.394   3.421   7.392  0.2330  0.1872  0.2533
   40CHL1  H22A 4123   5.476   3.477   7.443 -0.6583  2.8952 -1.0517
   40CHL1  H22B 4124   5.440   3.333   7.341 -0.4893  0.7020 -1.3606
   40CHL1   C23 4125   5.346   3.515   7.278  0.2931 -0.3414  0.0992
   40CHL1  H23A 4126   5.427   3.525   7.202  0.8937 -0.2845  0.7469
   40CHL1  H23B 4127   5.260   3.457   7.236 -0.9765  1.3311  0.2999
   40CHL1   C24 4128   5.273   3.649   7.317 -0.2739  0.3760 -0.5923
   40CHL1  H24A 4129   5.197   3.623   7.393 -3.3931  2.3506 -2.8081
   40CHL1  H24B 4130   5.347   3.712   7.372 -0.5755 -0.2074  0.5235
   40CHL1   C25 4131   5.211   3.735   7.215 -0.1588  0.2925  0.4156
   40CHL1   H25 4132   5.161   3.673   7.137  0.7840  1.2078 -0.9700
   40CHL1   C26 4133   5.119   3.837   7.285  0.6503  0.0205  0.5355
   40CHL1  H26A 4134   5.171   3.880   7.372  2.7454 -1.7366  0.2323
   40CHL1  H26B 4135   5.076   3.908   7.211  0.0985 -0.6612  0.1804
   40CHL1  H26C 4136   5.042   3.771   7.331 -0.8047  0.0142 -1.7479
   40CHL1   C27 4137   5.314   3.805   7.126 -0.6828 -0.4673 -0.8237
   40CHL1  H27A 4138   5.396   3.739   7.092 -0.2116 -0.6729  0.6373
   40CHL1  H27B 4139   5.266   3.847   7.035  3.4113  1.9829 -2.0990
   40CHL1  H27C 4140   5.364   3.882   7.188 -0.3591  0.4407 -2.1673
   41CHL1    C3 4141   0.369   0.314   7.757 -0.0052 -0.0969 -0.1080
   41CHL1    H3 4142   0.324   0.410   7.725  0.9044  1.0301  1.8586
   41CHL1    O3 4143   0.382   0.326   7.901  0.4321 -0.2228  0.1287
   41CHL1   H3' 4144   0.475   0.328   7.924  0.7107  0.1788 -0.9558
   41CHL1    C4 4145   0.282   0.197   7.714  0.5791  0.2233 -0.3247
   41CHL1   H4A 4146   0.325   0.106   7.761 -0.7032 -1.1388 -1.6969
   41CHL1   H4B 4147   0.182   0.208   7.759  0.3927  0.3110 -0.7546
   41CHL1    C5 4148   0.260   0.174   7.560 -0.1166  0.7086 -0.3183
   41CHL1    C6 4149   0.136   0.166   7.503 -0.6015  0.3943 -1.1399
   41CHL1    H6 4150   0.048   0.180   7.568  0.3999  0.6808  0.1947
   41CHL1    C7 4151   0.117   0.156   7.355  0.0301 -0.0064  0.3794
   41CHL1   H7A 4152   0.033   0.087   7.335  0.8837 -0.7944 -0.5535
   41CHL1   H7B 4153   0.086   0.255   7.313  1.1227  0.6992  1.1844
   41CHL1    C8 4154   0.250   0.123   7.276 -0.1521  0.1845 -0.0348
   41CHL1    H8 4155   0.272   0.016   7.294 -0.1822  0.4216  1.5556
   41CHL1   C14 4156   0.237   0.166   7.130 -0.6527  0.1904  0.2630
   41CHL1   H14 4157   0.226   0.276   7.117 -0.3194  0.0301 -1.6287
   41CHL1   C15 4158   0.116   0.104   7.065 -0.1433  0.0460  0.0752
   41CHL1  H15A 4159   0.120  -0.001   7.099  0.9209  0.5834  1.7339
   41CHL1  H15B 4160   0.017   0.146   7.094 -0.8780 -0.1687 -1.9390
   41CHL1   C16 4161   0.141   0.107   6.910 -1.0323 -0.0316  0.5305
   41CHL1  H16A 4162   0.144   0.006   6.865 -1.7204  0.4942 -0.7303
   41CHL1  H16B 4163   0.069   0.181   6.871 -0.3139  0.2109 -0.3528
   41CHL1   C17 4164   0.281   0.169   6.908 -0.2949 -0.0234  0.2982
   41CHL1   H17 4165   0.269   0.279   6.920 -1.6727  0.0036 -1.0816
   41CHL1   C13 4166   0.353   0.128   7.043  0.5812 -0.4525 -0.1405
   41CHL1   C18 4167   0.385  -0.031   7.042  0.0283 -0.7551 -0.2292
   41CHL1  H18A 4168   0.456  -0.045   6.958 -0.4951  0.9486 -1.0025
   41CHL1  H18B 4169   0.446  -0.067   7.127  1.7521 -2.1955 -2.0076
   41CHL1  H18C 4170   0.294  -0.095   7.049 -0.8481  0.3118 -1.2785
   41CHL1   C12 4171   0.477   0.205   7.100  0.1122 -0.6320 -0.0611
   41CHL1  H12A 4172   0.561   0.160   7.042 -1.4756 -2.4251 -1.0696
   41CHL1  H12B 4173   0.464   0.314   7.079  0.9164 -0.4548  0.2816
   41CHL1   C11 4174   0.499   0.179   7.242  0.7132  0.5959 -1.0878
   41CHL1  H11A 4175   0.535   0.076   7.262 -0.2287  0.2761 -1.0110
   41CHL1  H11B 4176   0.574   0.255   7.275  0.5792 -0.1965  1.1989
   41CHL1    C9 4177   0.373   0.197   7.337 -0.0900 -0.1562 -0.4010
   41CHL1    H9 4178   0.342   0.304   7.329 -0.4012 -0.3739 -2.6407
   41CHL1   C10 4179   0.392   0.166   7.481 -0.3351  0.9738 -0.2557
   41CHL1   C19 4180   0.446   0.025   7.518 -0.6310 -0.9811 -0.4070
   41CHL1  H19A 4181   0.364  -0.046   7.494 -0.9170 -0.6370 -0.4599
   41CHL1  H19B 4182   0.530  -0.005   7.452  0.1867  0.3989 -0.0258
   41CHL1  H19C 4183   0.479   0.008   7.623  1.2727  2.1163 -0.3857
   41CHL1    C1 4184   0.488   0.282   7.536 -0.3267  0.2946  0.5815
   41CHL1   H1A 4185   0.582   0.251   7.484 -0.3747  0.2083  0.5463
   41CHL1   H1B 4186   0.456   0.377   7.488 -0.2836 -1.1317 -2.5195
   41CHL1    C2 4187   0.504   0.299   7.685 -0.4737  0.0513  0.1886
   41CHL1   H2A 4188   0.556   0.395   7.706 -0.6839 -0.1983  2.0272
   41CHL1   H2B 4189   0.559   0.212   7.727 -1.6954 -0.7899  0.1087
   41CHL1   C20 4190   0.355   0.144   6.772 -0.5321 -0.1345  0.6077
   41CHL1   H20 4191   0.391   0.039   6.771 -1.3189 -0.4038 -0.7844
   41CHL1   C21 4192   0.479   0.240   6.759  0.4954 -0.1872 -0.4082
   41CHL1  H21A 4193   0.439   0.344   6.765  0.3744 -0.3263  2.0098
   41CHL1  H21B 4194   0.528   0.209   6.664 -2.4128 -1.8603 -1.5044
   41CHL1  H21C 4195   0.559   0.221   6.833  0.2111 -0.4332 -0.1595
   41CHL1   C22 4196   0.268   0.152   6.647 -0.7114 -0.4091  0.6333
   41CHL1  H22A 4197   0.176   0.090   6.655  0.1764 -1.9180 -0.4121
   41CHL1  H22B 4198   0.219   0.252   6.638 -0.3246 -0.3274 -0.7623
   41CHL1   C23 4199   0.326   0.117   6.513 -0.6507 -0.4828 -1.0748
   41CHL1  H23A 4200   0.400   0.191   6.478  1.8718 -1.4198  1.8503
   41CHL1  H23B 4201   0.390   0.028   6.530  1.3172  0.8756 -1.1100
   41CHL1   C24 4202   0.226   0.100   6.398  0.0062 -0.1223 -0.0114
   41CHL1  H24A 4203   0.172   0.006   6.426 -1.9018  0.4729 -1.4569
   41CHL1  H24B 4204   0.144   0.174   6.387 -0.6507 -0.4646  2.0975
   41CHL1   C25 4205   0.291   0.075   6.264  1.0027 -0.0001 -0.7758
   41CHL1   H25 4206   0.373   0.002   6.284  0.7650  0.3233  1.6556
   41CHL1   C26 4207   0.195   0.007   6.172  0.5891 -0.1241  0.2024
   41CHL1  H26A 4208   0.233  -0.018   6.070 -1.1542  3.9679 -1.6718
   41CHL1  H26B 4209   0.168  -0.091   6.216 -0.5614 -0.1515 -0.5281
   41CHL1  H26C 4210   0.106   0.071   6.150  1.3424  0.2886 -1.9312
   41CHL1   C27 4211   0.349   0.203   6.205  0.1295  0.1783  0.1068
   41CHL1  H27A 4212   0.260   0.270   6.193 -1.4454 -1.9306 -0.5416
   41CHL1  H27B 4213   0.414   0.256   6.277 -0.2891  1.9043 -0.7208
   41CHL1  H27C 4214   0.400   0.184   6.108  0.1830  0.3516  0.0998
   42CHL1    C3 4215   5.346   2.597   8.270  0.5080  0.1270  0.1867
   42CHL1    H3 4216   5.428   2.573   8.200 -0.1896 -1.6020 -0.0902
   42CHL1    O3 4217   5.375   2.570   8.406 -0.4203 -0.1284 -0.0460
   42CHL1   H3' 4218   5.353   2.478   8.422  0.5674 -0.7344 -1.8601
   42CHL1    C4 4219   5.297   2.742   8.258 -0.2967 -0.7650 -0.4507
   42CHL1   H4A 4220   5.221   2.764   8.337  2.2550  1.0388  1.7204
   42CHL1   H4B 4221   5.388   2.805   8.271 -1.0338  0.8960 -2.7002
   42CHL1    C5 4222   5.232   2.767   8.124 -0.1741 -0.0403 -0.6624
   42CHL1    C6 4223   5.268   2.871   8.053  0.4454 -0.2349 -0.3895
   42CHL1    H6 4224   5.344   2.934   8.102  0.0009 -1.5330  2.1800
   42CHL1    C7 4225   5.214   2.900   7.915  0.1048  0.7026 -0.0315
   42CHL1   H7A 4226   5.199   3.010   7.905 -0.1261  0.6859  0.1352
   42CHL1   H7B 4227   5.292   2.875   7.840  0.9257  3.0198 -0.0332
   42CHL1    C8 4228   5.080   2.826   7.889 -0.0552 -0.1702 -0.3625
   42CHL1    H8 4229   5.006   2.876   7.955  0.5175 -2.3193  2.0520
   42CHL1   C14 4230   5.052   2.832   7.739 -0.2728  0.1422 -0.3196
   42CHL1   H14 4231   5.131   2.772   7.690  0.7968  0.4883  0.9411
   42CHL1   C15 4232   5.062   2.969   7.667  0.6990 -0.1879  0.3962
   42CHL1  H15A 4233   5.028   3.056   7.728  0.3003 -2.0281  2.9437
   42CHL1  H15B 4234   5.168   2.984   7.638  1.1878 -3.2086  0.2769
   42CHL1   C16 4235   4.966   2.950   7.548 -0.5903 -0.2947 -0.3784
   42CHL1  H16A 4236   4.895   3.034   7.535 -2.1621 -1.6392 -0.7236
   42CHL1  H16B 4237   5.030   2.951   7.456  1.2219  2.3210  0.7749
   42CHL1   C17 4238   4.906   2.802   7.555  0.3577  1.5462 -0.4855
   42CHL1   H17 4239   4.983   2.739   7.506  0.4704  0.2443  1.2521
   42CHL1   C13 4240   4.920   2.772   7.707 -0.4485  0.0827  1.1563
   42CHL1   C18 4241   4.806   2.842   7.783  0.1154 -0.5669  0.0664
   42CHL1  H18A 4242   4.810   2.948   7.752  2.9110 -1.0776 -1.6864
   42CHL1  H18B 4243   4.705   2.802   7.759  0.1335 -0.5386 -0.0582
   42CHL1  H18C 4244   4.829   2.834   7.891  2.5562 -2.6406 -0.5264
   42CHL1   C12 4245   4.929   2.622   7.740  0.0721  0.4908  0.0241
   42CHL1  H12A 4246   4.829   2.577   7.721  0.0076  0.2087  0.9761
   42CHL1  H12B 4247   5.002   2.579   7.668 -0.4563  1.8975 -1.4181
   42CHL1   C11 4248   4.962   2.598   7.885  0.5823  0.1800  0.0394
   42CHL1  H11A 4249   4.871   2.626   7.943 -0.1755 -0.2576 -0.8956
   42CHL1  H11B 4250   4.980   2.490   7.903 -0.9747 -0.2983 -1.0179
   42CHL1    C9 4251   5.085   2.681   7.931 -0.0290  0.0670 -0.5869
   42CHL1    H9 4252   5.172   2.640   7.874  1.2950  2.6530 -0.5776
   42CHL1   C10 4253   5.126   2.668   8.081  0.1917 -0.3162 -0.6121
   42CHL1   C19 4254   4.998   2.686   8.178  0.2089  0.4774  0.3257
   42CHL1  H19A 4255   5.022   2.737   8.274  1.0767  0.1900  0.2662
   42CHL1  H19B 4256   4.934   2.759   8.123 -2.0037  0.1192  2.2929
   42CHL1  H19C 4257   4.940   2.593   8.195  0.5556  0.4595  1.4723
   42CHL1    C1 4258   5.176   2.518   8.100 -0.1258  0.2110 -0.1727
   42CHL1   H1A 4259   5.104   2.434   8.100  0.3283 -0.1805 -0.3750
   42CHL1   H1B 4260   5.258   2.503   8.027  1.2760  1.2637  1.1235
   42CHL1    C2 4261   5.239   2.491   8.235  0.2161  0.2145  0.0131
   42CHL1   H2A 4262   5.283   2.389   8.227  0.1168 -0.1608  3.0744
   42CHL1   H2B 4263   5.159   2.493   8.312  0.0948 -0.0950 -0.1017
   42CHL1   C20 4264   4.774   2.784   7.483 -0.2220 -0.5024 -0.2207
   42CHL1   H20 4265   4.691   2.803   7.555  1.0342  1.8075  0.7136
   42CHL1   C21 4266   4.756   2.635   7.440  0.1079  0.4500  0.4972
   42CHL1  H21A 4267   4.664   2.631   7.377  1.0039  0.9140 -0.9053
   42CHL1  H21B 4268   4.752   2.568   7.528 -4.0082 -1.5396 -0.9207
   42CHL1  H21C 4269   4.846   2.606   7.382 -0.4832  0.6651 -0.5733
   42CHL1   C22 4270   4.775   2.868   7.352 -0.2465 -0.8818 -0.1503
   42CHL1  H22A 4271   4.807   2.973   7.365 -0.2390 -0.3344 -3.7378
   42CHL1  H22B 4272   4.859   2.827   7.292  0.8930  0.3817  0.5199
   42CHL1   C23 4273   4.641   2.868   7.269  0.2361 -0.8168  0.3509
   42CHL1  H23A 4274   4.645   2.776   7.207  3.2276 -0.6028  0.0888
   42CHL1  H23B 4275   4.560   2.861   7.345  0.4281  0.1236  0.6498
   42CHL1   C24 4276   4.638   3.002   7.191  1.0391  0.7109  0.0499
   42CHL1  H24A 4277   4.627   3.089   7.260  0.0356  0.5514  0.1075
   42CHL1  H24B 4278   4.732   3.026   7.136  2.0678 -2.0445  0.4762
   42CHL1   C25 4279   4.515   3.015   7.097 -0.0672  0.6061  0.6337
   42CHL1   H25 4280   4.521   3.115   7.049 -1.1266 -0.0519 -0.9573
   42CHL1   C26 4281   4.533   2.904   6.984 -0.1666  0.4170 -0.5159
   42CHL1  H26A 4282   4.630   2.915   6.930 -0.0950  1.1293 -0.2504
   42CHL1  H26B 4283   4.526   2.801   7.025  0.4919  0.5843  0.0302
   42CHL1  H26C 4284   4.450   2.904   6.910 -1.2215 -1.0111  0.6120
   42CHL1   C27 4285   4.381   3.008   7.171  0.0134  0.1491  0.3206
   42CHL1  H27A 4286   4.386   2.930   7.250  1.5882  1.0741  1.1914
   42CHL1  H27B 4287   4.353   3.105   7.217  2.7368  1.2869 -0.1971
   42CHL1  H27C 4288   4.295   2.978   7.108  0.3005  0.9455 -0.4718
   43CHL1    C3 4289   4.717   6.838   0.106 -0.0775 -0.2302  0.6989
   43CHL1    H3 4290   4.720   6.949   0.116  3.6096  0.0445 -1.4522
   43CHL1    O3 4291   4.726   6.786   0.238  0.3339 -0.2163 -0.6680
   43CHL1   H3' 4292   4.811   6.813   0.273 -0.8373  0.3008  2.0462
   43CHL1    C4 4293   4.591   6.789   0.034 -0.3098  0.4901  0.4758
   43CHL1   H4A 4294   4.570   6.683   0.059 -1.9714  0.7844  0.4444
   43CHL1   H4B 4295   4.505   6.840   0.083 -2.3825 -1.6119 -0.7969
   43CHL1    C5 4296   4.589   6.812  -0.118  0.3996 -0.6537  0.3075
   43CHL1    C6 4297   4.484   6.868  -0.184 -0.1565  0.0262 -0.1035
   43CHL1    H6 4298   4.396   6.900  -0.126  0.9730 -0.0650  1.7391
   43CHL1    C7 4299   4.489   6.885  -0.333 -0.1599 -0.1018 -0.6826
   43CHL1   H7A 4300   4.388   6.859  -0.370  0.6759 -2.1436 -1.7341
   43CHL1   H7B 4301   4.512   6.993  -0.341 -1.0710  0.0966 -0.6490
   43CHL1    C8 4302   4.594   6.808  -0.412 -0.5364  0.9011  0.3428
   43CHL1    H8 4303   4.554   6.707  -0.432 -0.0220  0.5717  0.9690
   43CHL1   C14 4304   4.619   6.876  -0.544  0.1415  0.3470 -0.5528
   43CHL1   H14 4305   4.680   6.965  -0.520  2.1428 -1.1138  0.0515
   43CHL1   C15 4306   4.500   6.910  -0.626 -0.3078 -0.5799  0.5674
   43CHL1  H15A 4307   4.423   6.831  -0.641  2.6906 -3.6325 -0.0312
   43CHL1  H15B 4308   4.443   7.000  -0.595 -0.3655 -0.6723  0.7347
   43CHL1   C16 4309   4.570   6.933  -0.763 -0.1420 -0.1524 -0.9984
   43CHL1  H16A 4310   4.509   6.885  -0.842 -1.2867 -1.0389  0.3588
   43CHL1  H16B 4311   4.579   7.042  -0.784 -1.3982 -0.1223 -1.4461
   43CHL1   C17 4312   4.715   6.872  -0.756  0.2134 -0.3787 -0.2232
   43CHL1   H17 4313   4.780   6.957  -0.724 -0.2056 -0.9631  2.4715
   43CHL1   C13 4314   4.711   6.787  -0.628 -0.5752  1.5810  0.3174
   43CHL1   C18 4315   4.640   6.648  -0.669  0.4915  0.4322 -0.5585
   43CHL1  H18A 4316   4.691   6.595  -0.753 -0.8849 -0.1708 -1.0359
   43CHL1  H18B 4317   4.630   6.581  -0.581 -0.4824  0.3983 -0.6904
   43CHL1  H18C 4318   4.540   6.671  -0.711  1.3433  2.1107 -1.8340
   43CHL1   C12 4319   4.846   6.766  -0.562  0.3988  0.2423 -0.9248
   43CHL1  H12A 4320   4.895   6.684  -0.617  0.7694  0.0937 -0.3816
   43CHL1  H12B 4321   4.906   6.858  -0.576 -0.0125  0.3126 -2.4177
   43CHL1   C11 4322   4.837   6.712  -0.412  0.3457  0.4283 -0.3934
   43CHL1  H11A 4323   4.808   6.605  -0.413 -1.1122  0.7908  0.8119
   43CHL1  H11B 4324   4.937   6.711  -0.363 -0.0788  0.8124  0.5059
   43CHL1    C9 4325   4.730   6.799  -0.342  0.4485  0.5318 -0.6690
   43CHL1    H9 4326   4.767   6.904  -0.346 -2.7856  1.7698 -0.4549
   43CHL1   C10 4327   4.717   6.760  -0.191  0.0191  0.3603 -1.2034
   43CHL1   C19 4328   4.726   6.608  -0.183  0.6021 -0.1306 -0.0359
   43CHL1  H19A 4329   4.699   6.575  -0.080 -0.9873 -0.0671 -0.4047
   43CHL1  H19B 4330   4.643   6.569  -0.245 -0.6661  1.8191  0.3166
   43CHL1  H19C 4331   4.827   6.570  -0.209  0.8412  0.1722  0.4334
   43CHL1    C1 4332   4.839   6.828  -0.118  0.0894  0.1099  0.0195
   43CHL1   H1A 4333   4.939   6.798  -0.158 -0.2160 -0.1891 -0.5322
   43CHL1   H1B 4334   4.835   6.938  -0.133  3.4163  0.4620  0.8896
   43CHL1    C2 4335   4.846   6.795   0.033  0.6599 -0.1876  0.1249
   43CHL1   H2A 4336   4.933   6.851   0.073 -0.5534 -0.3190  3.1851
   43CHL1   H2B 4337   4.866   6.686   0.047  1.6086  0.0443  0.6532
   43CHL1   C20 4338   4.776   6.827  -0.889 -0.2404  0.1880  0.1108
   43CHL1   H20 4339   4.721   6.738  -0.927 -0.4276  0.9741 -1.5254
   43CHL1   C21 4340   4.921   6.783  -0.881 -0.0462 -0.4610 -0.2218
   43CHL1  H21A 4341   4.972   6.770  -0.979  0.0817  2.2157 -0.5833
   43CHL1  H21B 4342   4.935   6.688  -0.826 -2.2425 -0.9133 -0.3512
   43CHL1  H21C 4343   4.986   6.860  -0.835  2.2360 -3.1629  1.4146
   43CHL1   C22 4344   4.750   6.937  -0.997 -0.5032  0.4116  0.6286
   43CHL1  H22A 4345   4.645   6.963  -1.018 -1.2206 -0.7520  2.5155
   43CHL1  H22B 4346   4.810   7.023  -0.958  0.1443 -0.2977  1.2507
   43CHL1   C23 4347   4.819   6.911  -1.138  0.3772 -0.2148 -0.2972
   43CHL1  H23A 4348   4.797   7.006  -1.191  3.4432  1.1867  0.6947
   43CHL1  H23B 4349   4.929   6.909  -1.129  0.2923  1.6300  2.4948
   43CHL1   C24 4350   4.749   6.798  -1.212 -1.1650  0.0847 -0.2181
   43CHL1  H24A 4351   4.726   6.713  -1.145  0.2891  0.1270  0.3828
   43CHL1  H24B 4352   4.652   6.825  -1.259 -1.0117  0.5268 -0.2859
   43CHL1   C25 4353   4.828   6.758  -1.336 -0.5445 -0.8828  0.3137
   43CHL1   H25 4354   4.849   6.856  -1.385  1.3427 -0.0859  2.5145
   43CHL1   C26 4355   4.971   6.709  -1.305  0.1578  0.2002 -0.8386
   43CHL1  H26A 4356   4.964   6.614  -1.247 -1.3175  0.5415 -0.4177
   43CHL1  H26B 4357   5.033   6.698  -1.396  0.3068  1.9382 -0.9852
   43CHL1  H26C 4358   5.018   6.786  -1.239 -1.7382  0.9070 -0.2481
   43CHL1   C27 4359   4.758   6.663  -1.433 -1.0560 -0.7515  0.2514
   43CHL1  H27A 4360   4.767   6.556  -1.403  1.0290 -0.5058  0.6125
   43CHL1  H27B 4361   4.650   6.687  -1.444 -0.5349  1.5919 -0.3003
   43CHL1  H27C 4362   4.808   6.666  -1.532  2.1372  0.8432  1.7825
   44CHL1    C3 4363   0.514   6.090   8.147  0.3468 -0.9699 -0.4750
   44CHL1    H3 4364   0.475   5.986   8.137 -0.3630 -0.8613  0.9916
   44CHL1    O3 4365   0.517   6.137   8.284  0.2260  0.1525 -0.1049
   44CHL1   H3' 4366   0.481   6.226   8.276  4.0591  1.8786 -0.0380
   44CHL1    C4 4367   0.656   6.080   8.083  0.2572  0.2911  0.1321
   44CHL1   H4A 4368   0.707   6.176   8.108 -0.4329  0.6172  0.3144
   44CHL1   H4B 4369   0.713   6.007   8.144 -1.7648  0.9575  2.9850
   44CHL1    C5 4370   0.647   6.039   7.935  0.5187 -0.3529  0.2745
   44CHL1    C6 4371   0.725   5.945   7.888 -0.1115 -0.7024  0.6074
   44CHL1    H6 4372   0.782   5.890   7.965  0.9657  0.6379  0.8140
   44CHL1    C7 4373   0.738   5.925   7.739 -0.2444 -0.3958  0.4875
   44CHL1   H7A 4374   0.844   5.935   7.709 -1.0890  1.8339 -2.1765
   44CHL1   H7B 4375   0.698   5.825   7.710 -1.6113 -0.0558  1.0816
   44CHL1    C8 4376   0.677   6.037   7.647 -0.2065  0.1618 -0.1458
   44CHL1    H8 4377   0.757   6.114   7.649  0.5536 -0.5849 -0.9530
   44CHL1   C14 4378   0.656   5.985   7.505  0.2459 -0.9616 -0.3153
   44CHL1   H14 4379   0.571   5.913   7.518 -0.2473 -0.3162  0.1160
   44CHL1   C15 4380   0.765   5.913   7.430 -0.5971  0.2071 -0.4421
   44CHL1  H15A 4381   0.864   5.955   7.455 -1.1467 -0.2133  2.9742
   44CHL1  H15B 4382   0.761   5.806   7.459 -1.5170  0.6108  1.0445
   44CHL1   C16 4383   0.731   5.927   7.283  0.2983  0.5938 -0.5520
   44CHL1  H16A 4384   0.823   5.961   7.231 -0.7541  0.6919 -2.4138
   44CHL1  H16B 4385   0.707   5.827   7.242  2.4699 -0.1812 -0.0406
   44CHL1   C17 4386   0.609   6.025   7.270  0.3203 -0.9080 -0.9384
   44CHL1   H17 4387   0.523   5.957   7.255  0.6328 -1.4765 -0.2037
   44CHL1   C13 4388   0.607   6.093   7.410  0.4662 -0.1537  0.2396
   44CHL1   C18 4389   0.709   6.212   7.404 -0.3719 -0.3561 -0.4489
   44CHL1  H18A 4390   0.679   6.290   7.332 -0.0941 -0.0921 -0.2798
   44CHL1  H18B 4391   0.711   6.254   7.507 -1.6332 -1.4808  0.0673
   44CHL1  H18C 4392   0.804   6.174   7.361 -0.6080  1.7347 -3.0265
   44CHL1   C12 4393   0.474   6.143   7.460  0.2241  0.3388 -0.2441
   44CHL1  H12A 4394   0.456   6.241   7.409  1.8510  1.8684  1.8993
   44CHL1  H12B 4395   0.391   6.070   7.454 -0.6436  1.1769  0.9622
   44CHL1   C11 4396   0.473   6.191   7.605 -0.5608  0.7981  0.2354
   44CHL1  H11A 4397   0.511   6.295   7.604 -1.2765  1.0707  0.5016
   44CHL1  H11B 4398   0.367   6.195   7.639 -0.3647 -1.2117  1.2441
   44CHL1    C9 4399   0.547   6.093   7.701 -0.1465 -0.1273  0.5830
   44CHL1    H9 4400   0.479   6.005   7.700  0.6833 -0.8016 -1.5674
   44CHL1   C10 4401   0.555   6.137   7.850 -0.1946 -0.3840  0.3309
   44CHL1   C19 4402   0.615   6.282   7.860  0.1405  0.7990 -0.1064
   44CHL1  H19A 4403   0.712   6.299   7.809  1.3280  0.9842  2.1125
   44CHL1  H19B 4404   0.534   6.353   7.833 -0.1758  0.3149 -0.4661
   44CHL1  H19C 4405   0.626   6.319   7.964 -0.2564  2.9016 -0.7652
   44CHL1    C1 4406   0.416   6.149   7.913 -0.3321  0.6831  0.3281
   44CHL1   H1A 4407   0.351   6.215   7.853 -2.9719 -2.2437 -0.2853
   44CHL1   H1B 4408   0.361   6.053   7.902  0.8816  0.1742 -1.7612
   44CHL1    C2 4409   0.420   6.185   8.065 -0.3379 -0.2893 -0.1081
   44CHL1   H2A 4410   0.321   6.167   8.111  0.7586 -3.6113  1.2768
   44CHL1   H2B 4411   0.449   6.290   8.087  0.6714 -0.5102 -0.3373
   44CHL1   C20 4412   0.613   6.117   7.151 -0.2061 -0.1959  0.1352
   44CHL1   H20 4413   0.690   6.198   7.159 -0.1784 -0.2451  0.3936
   44CHL1   C21 4414   0.474   6.171   7.124 -0.1343  0.7969 -0.1053
   44CHL1  H21A 4415   0.389   6.100   7.111 -0.8523  1.4881  0.6715
   44CHL1  H21B 4416   0.476   6.216   7.022  0.5912 -1.4106 -1.1355
   44CHL1  H21C 4417   0.454   6.256   7.192  2.3858  1.0626  0.3756
   44CHL1   C22 4418   0.656   6.036   7.030  0.3784  0.5330  0.7969
   44CHL1  H22A 4419   0.766   6.022   7.039  0.1869 -0.6925  1.4060
   44CHL1  H22B 4420   0.614   5.934   7.034  0.1641  0.5367 -0.8673
   44CHL1   C23 4421   0.631   6.091   6.884  1.0501  0.0722 -0.2868
   44CHL1  H23A 4422   0.524   6.079   6.855  1.1882 -1.6961 -0.1876
   44CHL1  H23B 4423   0.661   6.198   6.888 -1.6601  0.8864  0.2292
   44CHL1   C24 4424   0.710   6.009   6.775  0.8060 -0.2712 -0.4294
   44CHL1  H24A 4425   0.820   6.020   6.776  0.6155  2.3396  1.5046
   44CHL1  H24B 4426   0.678   5.903   6.790  0.0738  0.0076  0.0344
   44CHL1   C25 4427   0.667   6.033   6.626  1.2185  0.3902 -0.0862
   44CHL1   H25 4428   0.557   6.026   6.616  1.3751 -0.2814 -1.6556
   44CHL1   C26 4429   0.708   6.169   6.570 -0.3724  0.8516 -0.0530
   44CHL1  H26A 4430   0.664   6.256   6.623 -1.3285  0.4016 -0.0938
   44CHL1  H26B 4431   0.818   6.182   6.575 -0.4203  0.9222  1.0348
   44CHL1  H26C 4432   0.688   6.175   6.461 -1.0719 -1.1203 -0.0567
   44CHL1   C27 4433   0.725   5.912   6.552 -0.9873  0.0807  0.5108
   44CHL1  H27A 4434   0.697   5.932   6.446  2.9339  0.2112 -0.6497
   44CHL1  H27B 4435   0.836   5.908   6.557 -1.0431 -1.2002  1.1740
   44CHL1  H27C 4436   0.680   5.818   6.589 -1.1415  0.7558  2.1023
   45CHL1    C3 4437   1.433   4.438   8.393  0.1509  0.2057  0.1009
   45CHL1    H3 4438   1.371   4.350   8.420  0.9010  0.4068  2.7299
   45CHL1    O3 4439   1.439   4.517   8.505 -0.1819  0.6866  0.4885
   45CHL1   H3' 4440   1.357   4.563   8.524 -0.1606  0.5024  1.0394
   45CHL1    C4 4441   1.574   4.390   8.363 -0.6097  0.4676 -0.3459
   45CHL1   H4A 4442   1.635   4.483   8.367 -0.1784  0.2189  4.2330
   45CHL1   H4B 4443   1.613   4.336   8.452 -0.9307  0.8985  0.0666
   45CHL1    C5 4444   1.585   4.320   8.228  0.5539 -0.4128 -0.3040
   45CHL1    C6 4445   1.639   4.202   8.221  0.6925  1.1466  0.3684
   45CHL1    H6 4446   1.687   4.159   8.310  0.9847 -1.5666 -0.9944
   45CHL1    C7 4447   1.662   4.119   8.095 -0.2502 -0.0503 -0.0991
   45CHL1   H7A 4448   1.764   4.075   8.097 -1.1431 -2.4336 -1.7279
   45CHL1   H7B 4449   1.601   4.026   8.096  1.9388 -1.6481 -2.9007
   45CHL1    C8 4450   1.632   4.202   7.968  0.2432 -0.3756  0.4239
   45CHL1    H8 4451   1.725   4.262   7.960 -0.8284  1.5357  1.6326
   45CHL1   C14 4452   1.615   4.122   7.844  0.3852  0.2265 -0.3105
   45CHL1   H14 4453   1.517   4.077   7.870 -0.3045  0.5398 -2.2460
   45CHL1   C15 4454   1.712   4.010   7.818 -0.0947  0.9585 -0.4754
   45CHL1  H15A 4455   1.818   4.039   7.835 -0.1168  0.5494  0.3764
   45CHL1  H15B 4456   1.698   3.919   7.880  2.8038  0.5056 -0.3505
   45CHL1   C16 4457   1.702   3.974   7.673 -0.1841  0.0831 -0.0405
   45CHL1  H16A 4458   1.802   3.978   7.625 -0.6776  1.3475 -1.0056
   45CHL1  H16B 4459   1.666   3.870   7.657  0.4567 -0.1830  0.2015
   45CHL1   C17 4460   1.596   4.070   7.617 -0.2792  0.3561  0.4944
   45CHL1   H17 4461   1.495   4.025   7.624 -0.1175 -0.1216 -0.1208
   45CHL1   C13 4462   1.591   4.193   7.713  0.2454 -0.0123 -0.8411
   45CHL1   C18 4463   1.706   4.293   7.694 -0.0340  0.4427  0.0668
   45CHL1  H18A 4464   1.707   4.334   7.591 -2.1727 -0.4841 -0.3891
   45CHL1  H18B 4465   1.706   4.372   7.772 -3.5934 -1.9125  2.7804
   45CHL1  H18C 4466   1.804   4.242   7.705  0.3089  1.0562 -0.0907
   45CHL1   C12 4467   1.459   4.275   7.720  0.2206  0.1831 -0.9536
   45CHL1  H12A 4468   1.436   4.343   7.635 -0.5098 -1.3005 -1.9965
   45CHL1  H12B 4469   1.378   4.200   7.736  1.2149 -0.3272  2.5491
   45CHL1   C11 4470   1.463   4.368   7.845 -0.2122  0.0716  0.6755
   45CHL1  H11A 4471   1.534   4.447   7.812 -1.5768  1.6905  1.4346
   45CHL1  H11B 4472   1.364   4.414   7.863 -0.8151 -1.3415  1.0874
   45CHL1    C9 4473   1.505   4.291   7.982 -0.0067 -0.5376 -1.1155
   45CHL1    H9 4474   1.425   4.221   8.014  1.0269 -0.8066  1.0709
   45CHL1   C10 4475   1.518   4.387   8.105 -0.6952  0.0319 -1.1509
   45CHL1   C19 4476   1.600   4.516   8.079  0.1479  0.7686 -0.2508
   45CHL1  H19A 4477   1.544   4.579   8.007 -0.5241 -0.9062 -1.2496
   45CHL1  H19B 4478   1.610   4.573   8.174  0.3530 -1.6252  1.2572
   45CHL1  H19C 4479   1.699   4.491   8.035 -0.2191 -0.2341 -0.5464
   45CHL1    C1 4480   1.376   4.428   8.149 -0.1803 -0.3689  0.1057
   45CHL1   H1A 4481   1.327   4.473   8.060  0.2238 -0.1479 -0.0077
   45CHL1   H1B 4482   1.303   4.344   8.153  0.0274 -0.5319  0.5588
   45CHL1    C2 4483   1.371   4.516   8.277  0.0652 -0.0224  1.0532
   45CHL1   H2A 4484   1.266   4.524   8.310 -0.7692 -0.1585 -1.3714
   45CHL1   H2B 4485   1.434   4.607   8.273 -1.1685  0.8373  1.0010
   45CHL1   C20 4486   1.623   4.095   7.463 -0.4072  0.3398 -0.1549
   45CHL1   H20 4487   1.724   4.139   7.453  0.9007 -2.0013  1.5786
   45CHL1   C21 4488   1.518   4.192   7.405 -0.7387 -0.2381 -0.1208
   45CHL1  H21A 4489   1.418   4.148   7.427 -1.3186  0.6743 -0.8123
   45CHL1  H21B 4490   1.517   4.203   7.294 -0.1488 -1.6496 -0.2740
   45CHL1  H21C 4491   1.515   4.296   7.446  0.0153 -0.2932  0.0895
   45CHL1   C22 4492   1.634   3.964   7.392 -0.3607  0.4729  0.9634
   45CHL1  H22A 4493   1.723   3.904   7.420  1.0590  2.1395  0.1739
   45CHL1  H22B 4494   1.544   3.899   7.401 -0.4168  0.4767  0.4548
   45CHL1   C23 4495   1.649   3.988   7.236 -0.2622  0.2478  0.3737
   45CHL1  H23A 4496   1.553   4.030   7.197 -0.1534 -0.6308 -0.9004
   45CHL1  H23B 4497   1.728   4.066   7.227 -0.6029  0.4087 -1.7057
   45CHL1   C24 4498   1.694   3.868   7.149 -0.1160  0.7650  0.7449
   45CHL1  H24A 4499   1.803   3.863   7.171 -0.0683  0.0246  0.3653
   45CHL1  H24B 4500   1.652   3.769   7.177  0.4677  0.2877 -0.0405
   45CHL1   C25 4501   1.666   3.867   6.997  0.0578  0.1848  0.4895
   45CHL1   H25 4502   1.556   3.873   6.984 -0.0176  0.3145  1.1365
   45CHL1   C26 4503   1.722   3.991   6.923 -0.0815  0.5995  0.1409
   45CHL1  H26A 4504   1.833   3.992   6.927 -0.0281  1.0143 -0.9950
   45CHL1  H26B 4505   1.692   3.977   6.817 -0.2760 -1.2163  0.4048
   45CHL1  H26C 4506   1.677   4.084   6.964 -0.4857  0.8157 -0.7724
   45CHL1   C27 4507   1.738   3.738   6.935  0.3975  0.5205 -0.2017
   45CHL1  H27A 4508   1.688   3.640   6.950 -0.1315  0.5083 -1.8463
   45CHL1  H27B 4509   1.755   3.737   6.825 -2.9899  0.2938 -0.8365
   45CHL1  H27C 4510   1.837   3.729   6.983 -0.1199  1.7602  1.1669
   46CHL1    C3 4511   1.847   1.029   8.131 -0.8837 -0.8264 -0.3395
   46CHL1    H3 4512   1.934   0.968   8.163 -0.3551 -0.3653 -0.8688
   46CHL1    O3 4513   1.825   1.104   8.244  0.0212  0.0755 -0.0985
   46CHL1   H3' 4514   1.865   1.187   8.217 -0.5425  0.9101  1.5333
   46CHL1    C4 4515   1.877   1.129   8.018  0.2065  0.0200 -0.6060
   46CHL1   H4A 4516   1.795   1.203   8.018 -0.8546 -1.1056  0.8223
   46CHL1   H4B 4517   1.971   1.177   8.052  1.0955 -0.7756 -1.8447
   46CHL1    C5 4518   1.883   1.055   7.888 -0.2900 -0.0136  0.3585
   46CHL1    C6 4519   1.984   1.084   7.808  0.0436  0.8618 -0.1093
   46CHL1    H6 4520   2.058   1.160   7.837  0.7662 -0.1030  0.6403
   46CHL1    C7 4521   2.012   1.033   7.667 -0.1684  0.1045  0.3324
   46CHL1   H7A 4522   2.028   1.118   7.597  1.5283 -1.0551 -0.7687
   46CHL1   H7B 4523   2.101   0.967   7.656 -1.4708 -1.6693  0.0238
   46CHL1    C8 4524   1.880   0.955   7.619  0.0944  1.1003 -0.3916
   46CHL1    H8 4525   1.807   1.036   7.596  0.6122  1.7349  0.1884
   46CHL1   C14 4526   1.905   0.869   7.495 -0.7480 -0.5894 -0.2979
   46CHL1   H14 4527   1.987   0.799   7.523 -0.4566 -0.7018 -1.3903
   46CHL1   C15 4528   1.957   0.942   7.371  0.2420 -0.3489  0.2299
   46CHL1  H15A 4529   1.902   1.033   7.341  2.4660  0.5682 -1.3717
   46CHL1  H15B 4530   2.061   0.981   7.385 -0.7450  2.2567  0.8641
   46CHL1   C16 4531   1.936   0.838   7.262 -0.0485 -0.1810  0.1573
   46CHL1  H16A 4532   1.882   0.887   7.179 -0.2840 -0.9640 -0.1631
   46CHL1  H16B 4533   2.034   0.801   7.225  0.4154  0.6621  0.5200
   46CHL1   C17 4534   1.847   0.723   7.318 -0.5289  0.0002 -0.2174
   46CHL1   H17 4535   1.923   0.651   7.356  1.3501  1.5570 -0.8694
   46CHL1   C13 4536   1.787   0.785   7.444 -0.4351  0.9187 -0.1761
   46CHL1   C18 4537   1.662   0.861   7.407  0.5225  0.5716 -0.3716
   46CHL1  H18A 4538   1.637   0.928   7.492  0.5627 -1.1369  1.0504
   46CHL1  H18B 4539   1.675   0.919   7.313  1.5109  2.3989  0.8183
   46CHL1  H18C 4540   1.575   0.795   7.390  1.0622 -0.3401  0.2916
   46CHL1   C12 4541   1.753   0.686   7.557  0.2942  0.3587  0.0047
   46CHL1  H12A 4542   1.669   0.621   7.525 -1.2996  2.3220 -0.0169
   46CHL1  H12B 4543   1.846   0.627   7.568  1.0027  1.0712 -1.7055
   46CHL1   C11 4544   1.715   0.756   7.686  0.0848 -0.1056 -0.2314
   46CHL1  H11A 4545   1.619   0.810   7.670 -0.0054  0.2589  1.3274
   46CHL1  H11B 4546   1.706   0.683   7.769 -0.0370 -1.4075 -1.3680
   46CHL1    C9 4547   1.820   0.864   7.729  0.2002 -0.0800  0.4687
   46CHL1    H9 4548   1.904   0.798   7.758  0.3037 -0.5877 -0.9457
   46CHL1   C10 4549   1.776   0.948   7.856 -0.6792  0.7153 -0.2862
   46CHL1   C19 4550   1.642   1.021   7.833 -0.6118 -0.0668 -0.4023
   46CHL1  H19A 4551   1.554   0.954   7.825  0.6122 -1.5222 -2.9247
   46CHL1  H19B 4552   1.620   1.097   7.911 -0.2952 -0.0458 -0.3304
   46CHL1  H19C 4553   1.650   1.078   7.738 -1.6576 -1.9046 -1.6513
   46CHL1    C1 4554   1.761   0.854   7.976 -0.4207 -0.2039  0.0484
   46CHL1   H1A 4555   1.678   0.782   7.960 -0.7633 -0.4731  2.5743
   46CHL1   H1B 4556   1.851   0.791   7.994 -1.3691 -1.8458 -0.7361
   46CHL1    C2 4557   1.732   0.933   8.109 -0.1826  0.4266  0.4154
   46CHL1   H2A 4558   1.731   0.853   8.186  1.1831 -1.4494 -1.3710
   46CHL1   H2B 4559   1.631   0.980   8.111 -0.8965 -1.0244  0.4054
   46CHL1   C20 4560   1.758   0.662   7.206  0.6291 -0.5220 -0.5073
   46CHL1   H20 4561   1.685   0.744   7.192  0.9904  0.5011  2.6686
   46CHL1   C21 4562   1.671   0.542   7.242 -0.5342 -0.0997 -0.0157
   46CHL1  H21A 4563   1.723   0.461   7.298  1.2043 -0.0135 -1.4327
   46CHL1  H21B 4564   1.638   0.494   7.147  2.7772  2.0826 -2.4513
   46CHL1  H21C 4565   1.581   0.584   7.293 -0.8268 -1.2077  0.4171
   46CHL1   C22 4566   1.829   0.649   7.076 -0.1085 -0.1341 -0.2499
   46CHL1  H22A 4567   1.747   0.655   7.001 -0.0879 -1.4024 -0.4021
   46CHL1  H22B 4568   1.896   0.733   7.049 -2.2955  1.3974 -1.2101
   46CHL1   C23 4569   1.905   0.519   7.049  0.5918 -0.2735 -0.1174
   46CHL1  H23A 4570   1.981   0.494   7.126 -2.6122 -0.7372  3.1823
   46CHL1  H23B 4571   1.834   0.435   7.060  3.0241 -2.8975 -2.8311
   46CHL1   C24 4572   1.963   0.519   6.910 -0.1433  0.1400  0.2777
   46CHL1  H24A 4573   1.879   0.534   6.839 -3.4757 -0.3631  3.7679
   46CHL1  H24B 4574   2.039   0.598   6.892 -0.7333  0.2612 -1.9528
   46CHL1   C25 4575   2.020   0.387   6.857 -0.3863 -0.1891  0.3557
   46CHL1   H25 4576   1.949   0.302   6.860 -0.0021 -0.6127 -1.4497
   46CHL1   C26 4577   2.064   0.394   6.709 -0.0995  0.0342 -0.0320
   46CHL1  H26A 4578   1.976   0.417   6.646 -0.2905  0.8127  0.5040
   46CHL1  H26B 4579   2.128   0.480   6.678  1.3888 -0.8621  0.4432
   46CHL1  H26C 4580   2.116   0.299   6.682 -0.9820  0.1432 -2.2924
   46CHL1   C27 4581   2.140   0.335   6.933  0.2048 -0.2262 -0.4376
   46CHL1  H27A 4582   2.190   0.253   6.877  1.6531  0.6983 -0.5443
   46CHL1  H27B 4583   2.222   0.409   6.940 -0.8752  0.8373  2.1004
   46CHL1  H27C 4584   2.115   0.301   7.036  1.0606 -3.3126 -1.1370
   47CHL1    C3 4585   4.812   2.146   8.165  1.0883  0.3984  0.1120
   47CHL1    H3 4586   4.715   2.095   8.184  0.0735  1.7729 -1.1899
   47CHL1    O3 4587   4.854   2.188   8.287 -0.4665 -0.4227 -0.0247
   47CHL1   H3' 4588   4.872   2.107   8.336  2.0292  0.5811  0.8975
   47CHL1    C4 4589   4.909   2.050   8.104  0.1469  0.4355  0.8019
   47CHL1   H4A 4590   5.009   2.098   8.113  0.0581  1.1079 -1.2749
   47CHL1   H4B 4591   4.923   1.955   8.161  1.3957 -0.4412 -0.8813
   47CHL1    C5 4592   4.893   2.016   7.956 -0.5547 -0.1135  0.3881
   47CHL1    C6 4593   4.875   1.891   7.902  0.3313  0.2288  0.2681
   47CHL1    H6 4594   4.857   1.808   7.972  0.1514 -2.0841 -2.3583
   47CHL1    C7 4595   4.861   1.857   7.759  0.2391  0.3448 -0.4600
   47CHL1   H7A 4596   4.923   1.768   7.735 -0.6280 -0.4383  0.1286
   47CHL1   H7B 4597   4.756   1.821   7.748  0.9312 -1.7669 -0.7787
   47CHL1    C8 4598   4.895   1.974   7.665 -0.3176 -0.2929  0.3930
   47CHL1    H8 4599   5.006   1.983   7.658 -0.2112 -2.4519 -4.3461
   47CHL1   C14 4600   4.844   1.954   7.521  0.2338  0.1087 -0.5289
   47CHL1   H14 4601   4.734   1.972   7.525 -0.0102 -0.7360 -2.3520
   47CHL1   C15 4602   4.859   1.811   7.455 -0.2173  0.4187  0.0131
   47CHL1  H15A 4603   4.965   1.780   7.463 -1.0601 -2.2750  1.8951
   47CHL1  H15B 4604   4.795   1.733   7.501  2.7245 -1.5788  0.9650
   47CHL1   C16 4605   4.828   1.845   7.308  0.8744  0.4825  0.3850
   47CHL1  H16A 4606   4.909   1.801   7.245  1.6494 -0.3846  1.9230
   47CHL1  H16B 4607   4.736   1.786   7.288  1.3980 -0.4428  0.6409
   47CHL1   C17 4608   4.825   1.999   7.292  0.4838  0.0099 -0.2434
   47CHL1   H17 4609   4.719   2.029   7.305  0.2908 -1.6332  3.0295
   47CHL1   C13 4610   4.892   2.056   7.420  0.8327 -0.1534 -0.0081
   47CHL1   C18 4611   5.041   2.053   7.396 -0.1063  0.5256 -0.4496
   47CHL1  H18A 4612   5.079   1.953   7.365  2.7582  1.1425  0.7961
   47CHL1  H18B 4613   5.075   2.123   7.316 -1.5722  1.1423 -0.5737
   47CHL1  H18C 4614   5.096   2.086   7.487 -0.5204 -0.2562  0.0998
   47CHL1   C12 4615   4.828   2.188   7.466  0.8830  0.1633 -0.1814
   47CHL1  H12A 4616   4.861   2.274   7.404 -0.2910 -1.2755 -3.0193
   47CHL1  H12B 4617   4.719   2.195   7.448  0.9196  0.3248 -0.3374
   47CHL1   C11 4618   4.863   2.219   7.609  0.0843 -0.0037 -0.5960
   47CHL1  H11A 4619   4.973   2.229   7.615 -0.1173  2.2161  1.1755
   47CHL1  H11B 4620   4.822   2.318   7.640  0.0549  0.0060 -0.6662
   47CHL1    C9 4621   4.837   2.098   7.719  0.4873 -0.2290  0.9454
   47CHL1    H9 4622   4.726   2.087   7.721  0.4660 -0.7636 -1.2678
   47CHL1   C10 4623   4.878   2.138   7.863 -0.7021 -0.6527  1.3520
   47CHL1   C19 4624   5.019   2.203   7.859 -1.0781 -0.3470 -0.3155
   47CHL1  H19A 4625   5.008   2.300   7.805  1.2198  0.4968  0.5867
   47CHL1  H19B 4626   5.053   2.226   7.962  0.6585 -0.5194 -0.8139
   47CHL1  H19C 4627   5.098   2.147   7.803 -1.4383  0.3472 -1.5586
   47CHL1    C1 4628   4.766   2.231   7.926  0.0738 -0.2766  0.3517
   47CHL1   H1A 4629   4.754   2.325   7.868 -0.8628  0.3532  1.5105
   47CHL1   H1B 4630   4.665   2.183   7.929 -0.8347  1.5308  0.2727
   47CHL1    C2 4631   4.788   2.271   8.081  0.1073  0.9374 -0.0775
   47CHL1   H2A 4632   4.694   2.320   8.116 -1.6243 -0.9281 -1.7831
   47CHL1   H2B 4633   4.866   2.349   8.089  0.2190  1.2080 -2.9462
   47CHL1   C20 4634   4.871   2.046   7.153  0.2750 -0.5790  0.3953
   47CHL1   H20 4635   4.975   2.017   7.126 -0.5431 -3.8706  0.3627
   47CHL1   C21 4636   4.866   2.204   7.138  0.0419 -0.3220 -0.6148
   47CHL1  H21A 4637   4.773   2.246   7.182 -0.5367 -0.8572 -1.3037
   47CHL1  H21B 4638   4.879   2.224   7.030  0.2452 -2.0899 -0.9368
   47CHL1  H21C 4639   4.950   2.255   7.191 -2.4047  0.1902  3.1831
   47CHL1   C22 4640   4.782   1.981   7.044  0.4089 -0.6927  0.0314
   47CHL1  H22A 4641   4.758   1.876   7.070 -2.1561 -0.3575 -0.7060
   47CHL1  H22B 4642   4.684   2.033   7.046  1.4944  1.4339  1.4598
   47CHL1   C23 4643   4.835   1.978   6.897 -0.5375 -0.0268  0.7370
   47CHL1  H23A 4644   4.843   2.080   6.853 -2.9263 -0.9696 -2.2406
   47CHL1  H23B 4645   4.935   1.931   6.891 -0.6491 -0.4274  1.7461
   47CHL1   C24 4646   4.746   1.888   6.803 -0.3602 -0.2995 -0.3767
   47CHL1  H24A 4647   4.747   1.781   6.833 -1.0977  0.6313  3.5436
   47CHL1  H24B 4648   4.639   1.912   6.822 -0.5512 -1.8179  0.6417
   47CHL1   C25 4649   4.780   1.902   6.652 -0.4781 -0.3758 -0.3420
   47CHL1   H25 4650   4.732   1.991   6.606  1.1480  0.5964 -0.2536
   47CHL1   C26 4651   4.927   1.926   6.627 -0.2402  0.0767  0.1779
   47CHL1  H26A 4652   4.987   1.841   6.665  0.4064 -0.3538 -1.7249
   47CHL1  H26B 4653   4.949   1.931   6.518  1.2765  3.7069  0.5383
   47CHL1  H26C 4654   4.968   2.025   6.654  0.7496 -0.0930 -0.6518
   47CHL1   C27 4655   4.714   1.780   6.564  0.0620 -0.0520 -0.1549
   47CHL1  H27A 4656   4.758   1.685   6.601  0.8513  0.4704  0.2588
   47CHL1  H27B 4657   4.604   1.779   6.581 -0.1425 -0.7004 -1.3446
   47CHL1  H27C 4658   4.744   1.809   6.461  0.6623  0.9544  0.2962
   48CHL1    C3 4659   6.352   6.518   7.969  0.0484  0.4132 -0.1787
   48CHL1    H3 4660   6.358   6.629   7.965 -0.7122  0.4456 -0.6372
   48CHL1    O3 4661   6.360   6.480   8.103  0.3321 -0.3073  0.4086
   48CHL1   H3' 4662   6.385   6.387   8.104 -2.6191 -1.2058  1.4718
   48CHL1    C4 4663   6.213   6.466   7.930  0.7968 -0.6013 -0.1439
   48CHL1   H4A 4664   6.192   6.362   7.964 -1.5961  0.2140  1.2070
   48CHL1   H4B 4665   6.146   6.537   7.985 -0.0651 -0.8164 -0.8941
   48CHL1    C5 4666   6.178   6.489   7.783 -0.8453 -0.3417 -0.2376
   48CHL1    C6 4667   6.069   6.556   7.745  0.4467  0.5730  0.5394
   48CHL1    H6 4668   5.991   6.578   7.820  1.3679  0.1300  1.6556
   48CHL1    C7 4669   6.029   6.566   7.600 -0.5569 -0.6490 -0.5022
   48CHL1   H7A 4670   5.922   6.548   7.573 -1.3909  0.3738  1.8535
   48CHL1   H7B 4671   6.053   6.667   7.558  0.6475 -1.5391 -2.0575
   48CHL1    C8 4672   6.114   6.466   7.511  0.3023 -0.2588 -0.0779
   48CHL1    H8 4673   6.067   6.367   7.528  0.1225  0.3294  3.5642
   48CHL1   C14 4674   6.106   6.511   7.367 -0.1493 -0.7843 -0.2424
   48CHL1   H14 4675   6.138   6.618   7.363 -0.7152 -0.4457  2.3966
   48CHL1   C15 4676   5.964   6.511   7.298  0.1191 -0.3347 -0.3270
   48CHL1  H15A 4677   5.911   6.418   7.330  1.9024 -1.7858 -1.4173
   48CHL1  H15B 4678   5.910   6.607   7.314  0.0126  0.1843 -3.2491
   48CHL1   C16 4679   5.986   6.507   7.144 -0.2778  0.0583  0.7560
   48CHL1  H16A 4680   5.923   6.423   7.108 -1.4415  0.3958  1.9279
   48CHL1  H16B 4681   5.943   6.600   7.101 -0.0130  0.1336  0.6536
   48CHL1   C17 4682   6.137   6.489   7.127 -0.4640 -0.3856 -0.0766
   48CHL1   H17 4683   6.182   6.590   7.112 -0.6427 -0.2599  0.2364
   48CHL1   C13 4684   6.181   6.433   7.263  0.1027  0.0613 -0.5178
   48CHL1   C18 4685   6.142   6.276   7.265  0.2354  0.1741 -0.5402
   48CHL1  H18A 4686   6.180   6.224   7.175  0.8861 -0.7921  0.2702
   48CHL1  H18B 4687   6.189   6.231   7.355 -0.7768  0.3182  0.0781
   48CHL1  H18C 4688   6.034   6.270   7.290  0.6913 -0.2351  1.5626
   48CHL1   C12 4689   6.330   6.445   7.292  0.1399 -0.4765  0.5373
   48CHL1  H12A 4690   6.397   6.379   7.232  0.1441  0.9667 -1.1355
   48CHL1  H12B 4691   6.346   6.552   7.267  0.8304 -0.1533  2.2130
   48CHL1   C11 4692   6.368   6.421   7.445 -0.6004 -0.5555 -1.0217
   48CHL1  H11A 4693   6.390   6.314   7.465  0.3900 -0.3994 -1.2073
   48CHL1  H11B 4694   6.459   6.480   7.467 -0.2744 -0.7256 -1.8571
   48CHL1    C9 4695   6.266   6.478   7.555 -0.3426 -0.6926  0.0982
   48CHL1    H9 4696   6.288   6.587   7.566  0.4133 -0.8930  0.6382
   48CHL1   C10 4697   6.288   6.434   7.697  0.2129  0.6952 -0.0720
   48CHL1   C19 4698   6.285   6.275   7.719 -0.2290 -0.2660  0.6303
   48CHL1  H19A 4699   6.296   6.222   7.817 -1.5980 -3.0082 -0.5929
   48CHL1  H19B 4700   6.182   6.247   7.688  0.4412 -2.6166  0.3254
   48CHL1  H19C 4701   6.355   6.233   7.643  0.3465 -0.0481  1.0303
   48CHL1    C1 4702   6.435   6.464   7.735  0.5903  0.2915 -0.6716
   48CHL1   H1A 4703   6.508   6.404   7.676  0.7325 -0.5061  0.2867
   48CHL1   H1B 4704   6.455   6.572   7.717  2.8495  0.4429  1.9739
   48CHL1    C2 4705   6.465   6.451   7.890 -0.4366 -0.2067  0.4330
   48CHL1   H2A 4706   6.561   6.495   7.925  0.4490 -3.2273  2.2454
   48CHL1   H2B 4707   6.482   6.343   7.908 -2.3942 -0.2340  2.6586
   48CHL1   C20 4708   6.162   6.407   6.995  0.2273  0.3068 -0.7465
   48CHL1   H20 4709   6.116   6.306   7.000 -1.0436  0.9133  0.0531
   48CHL1   C21 4710   6.315   6.379   6.976  0.3257  0.3557  0.1673
   48CHL1  H21A 4711   6.375   6.470   6.996 -0.4064  0.8877 -0.0155
   48CHL1  H21B 4712   6.353   6.291   7.033  0.2582  1.0161  1.2574
   48CHL1  H21C 4713   6.340   6.363   6.869  2.7649  4.3534 -0.0458
   48CHL1   C22 4714   6.093   6.476   6.876 -0.2839 -0.4187  0.1670
   48CHL1  H22A 4715   5.983   6.477   6.888 -0.6112 -0.3870 -2.2482
   48CHL1  H22B 4716   6.142   6.574   6.853 -1.2454 -0.2420 -1.2742
   48CHL1   C23 4717   6.091   6.403   6.741 -0.6780 -0.2642  0.0318
   48CHL1  H23A 4718   6.037   6.456   6.660  2.3156  2.4520 -0.3706
   48CHL1  H23B 4719   6.199   6.398   6.716 -0.9962  0.1350 -1.5335
   48CHL1   C24 4720   6.053   6.253   6.740  0.0118  1.3339 -1.2476
   48CHL1  H24A 4721   6.121   6.197   6.808 -0.9522  0.5745 -0.8811
   48CHL1  H24B 4722   5.952   6.240   6.784  1.1375 -0.0088  1.1623
   48CHL1   C25 4723   6.044   6.173   6.604  0.7841  0.4984 -0.1252
   48CHL1   H25 4724   6.141   6.157   6.553  1.2756 -0.1175  0.9656
   48CHL1   C26 4725   5.993   6.031   6.629 -0.0056 -0.2305 -0.1581
   48CHL1  H26A 4726   6.055   5.999   6.716 -1.1734  0.2458  0.8929
   48CHL1  H26B 4727   5.887   6.023   6.661 -0.2515 -1.0296 -1.1297
   48CHL1  H26C 4728   6.021   5.980   6.535  0.0820 -0.7571  0.1524
   48CHL1   C27 4729   5.955   6.248   6.505  0.5942  0.2943 -0.1145
   48CHL1  H27A 4730   5.849   6.241   6.534  0.2797 -0.8008 -1.3693
   48CHL1  H27B 4731   5.987   6.352   6.484  2.1671 -0.0575  0.3800
   48CHL1  H27C 4732   5.956   6.197   6.405 -1.0401 -0.5664  0.2698
   49CHL1    C3 4733   2.957   1.512   5.219  0.4873  0.0880 -0.1281
   49CHL1    H3 4734   2.873   1.566   5.269  1.8511 -0.1781  2.6189
   49CHL1    O3 4735   2.932   1.506   5.078  0.5042  0.3045  0.0375
   49CHL1   H3' 4736   2.953   1.413   5.064 -4.4059 -1.5566  2.4574
   49CHL1    C4 4737   3.086   1.595   5.257  0.1197  0.7452 -0.0576
   49CHL1   H4A 4738   3.179   1.567   5.203  0.9231 -0.2819  1.7681
   49CHL1   H4B 4739   3.067   1.699   5.222  2.8190  1.2199 -0.3701
   49CHL1    C5 4740   3.112   1.590   5.400  0.0350  0.2647 -0.3979
   49CHL1    C6 4741   3.122   1.709   5.469  1.0560  0.5277  0.0265
   49CHL1    H6 4742   3.111   1.806   5.420  0.7933  0.3940 -0.1829
   49CHL1    C7 4743   3.165   1.709   5.613  0.4445 -0.7505 -0.2799
   49CHL1   H7A 4744   3.247   1.783   5.621 -0.5778  0.2763  1.2271
   49CHL1   H7B 4745   3.087   1.727   5.691 -0.3502  1.9754 -1.5600
   49CHL1    C8 4746   3.231   1.577   5.668  0.2305 -0.1971  0.2002
   49CHL1    H8 4747   3.336   1.570   5.632  0.3420  0.2126  0.4491
   49CHL1   C14 4748   3.215   1.577   5.819 -0.5461 -0.4488  0.7058
   49CHL1   H14 4749   3.105   1.578   5.837 -0.5768 -0.2118  0.5185
   49CHL1   C15 4750   3.263   1.701   5.899  0.9881 -0.8680  0.2961
   49CHL1  H15A 4751   3.353   1.739   5.846  1.3737  1.2642  2.2938
   49CHL1  H15B 4752   3.198   1.791   5.896  1.8479 -0.2295  0.5114
   49CHL1   C16 4753   3.279   1.640   6.042 -0.0226 -1.0205  0.2115
   49CHL1  H16A 4754   3.383   1.670   6.065 -0.1633  1.9897 -2.3935
   49CHL1  H16B 4755   3.206   1.679   6.115  1.1356 -0.9823  1.3767
   49CHL1   C17 4756   3.251   1.487   6.034 -0.6014 -0.6505  0.2395
   49CHL1   H17 4757   3.143   1.481   6.057 -0.7592  2.1511  0.5938
   49CHL1   C13 4758   3.271   1.451   5.890  0.0964 -0.7310  0.0342
   49CHL1   C18 4759   3.421   1.437   5.857  0.0704  0.1177  0.4888
   49CHL1  H18A 4760   3.439   1.331   5.884 -1.3287 -0.0069  0.9879
   49CHL1  H18B 4761   3.452   1.438   5.750  1.1170  2.3030  0.7510
   49CHL1  H18C 4762   3.484   1.513   5.908  1.4885  1.5184 -2.9806
   49CHL1   C12 4763   3.188   1.333   5.835  0.5403  0.2712 -0.7268
   49CHL1  H12A 4764   3.223   1.237   5.879  1.0275  0.0380 -1.6113
   49CHL1  H12B 4765   3.085   1.352   5.873  1.1633  2.0208  0.2287
   49CHL1   C11 4766   3.191   1.327   5.683 -0.3452  0.1676 -0.1511
   49CHL1  H11A 4767   3.297   1.306   5.657 -0.3583  2.0989 -2.0677
   49CHL1  H11B 4768   3.127   1.246   5.643  0.4325  0.9075 -3.1828
   49CHL1    C9 4769   3.146   1.459   5.619  0.0429  0.2631 -0.3320
   49CHL1    H9 4770   3.043   1.483   5.653 -0.1578 -2.8517  1.5827
   49CHL1   C10 4771   3.131   1.452   5.461 -0.6596  0.6555  0.2621
   49CHL1   C19 4772   3.259   1.378   5.409 -0.4435  0.2363  0.0461
   49CHL1  H19A 4773   3.286   1.280   5.454  0.0078  0.4226  0.1860
   49CHL1  H19B 4774   3.256   1.358   5.300  0.2897 -0.7092  0.1874
   49CHL1  H19C 4775   3.347   1.444   5.427  0.9312 -0.3965 -3.4274
   49CHL1    C1 4776   3.004   1.375   5.427  0.2055 -0.4702 -0.9464
   49CHL1   H1A 4777   3.010   1.272   5.470 -2.5556 -0.5148 -0.4988
   49CHL1   H1B 4778   2.915   1.418   5.478  0.0211 -2.4548  0.5492
   49CHL1    C2 4779   2.971   1.371   5.280 -0.3076 -0.1355  0.3590
   49CHL1   H2A 4780   2.877   1.315   5.260 -0.5883  0.8166 -1.1979
   49CHL1   H2B 4781   3.058   1.317   5.238 -2.2505 -2.6590 -0.6552
   49CHL1   C20 4782   3.335   1.408   6.141 -0.3301 -0.5478  0.1803
   49CHL1   H20 4783   3.442   1.416   6.109 -1.0075 -0.5258 -2.3184
   49CHL1   C21 4784   3.298   1.256   6.140  0.4059 -0.6228 -0.0004
   49CHL1  H21A 4785   3.360   1.211   6.060  1.7577  2.0126 -0.5415
   49CHL1  H21B 4786   3.192   1.238   6.112 -0.7310 -1.3292  4.0225
   49CHL1  H21C 4787   3.318   1.215   6.242  0.2291  2.2734  1.2925
   49CHL1   C22 4788   3.326   1.467   6.282 -0.1221  0.1544 -0.4005
   49CHL1  H22A 4789   3.391   1.397   6.340 -1.2417 -0.2940  0.3437
   49CHL1  H22B 4790   3.387   1.559   6.297  0.7719 -0.1157 -2.1362
   49CHL1   C23 4791   3.191   1.470   6.354 -0.0639 -0.3308  0.2204
   49CHL1  H23A 4792   3.136   1.556   6.312 -0.3722 -0.9084 -0.5782
   49CHL1  H23B 4793   3.135   1.379   6.325 -1.6332  0.5769  0.3364
   49CHL1   C24 4794   3.194   1.475   6.500  0.1624  0.3730 -0.0233
   49CHL1  H24A 4795   3.245   1.385   6.540 -0.6786  1.5122  4.0815
   49CHL1  H24B 4796   3.255   1.563   6.531  1.5540 -1.1646  1.8621
   49CHL1   C25 4797   3.054   1.480   6.564 -0.4302 -0.3789  0.1208
   49CHL1   H25 4798   2.992   1.406   6.508 -2.5421 -0.1422  2.0084
   49CHL1   C26 4799   3.061   1.429   6.707  0.2807  0.3811 -0.1613
   49CHL1  H26A 4800   3.081   1.320   6.711 -1.8900 -0.0639 -0.1390
   49CHL1  H26B 4801   3.137   1.486   6.764 -0.7452  2.0702 -0.4219
   49CHL1  H26C 4802   2.961   1.449   6.749  0.1507  1.7800 -1.0698
   49CHL1   C27 4803   2.979   1.613   6.565  0.3349 -0.0212  0.4244
   49CHL1  H27A 4804   3.048   1.678   6.624  0.9797  0.3663 -0.7175
   49CHL1  H27B 4805   2.943   1.649   6.466 -1.8156  2.6376  2.0095
   49CHL1  H27C 4806   2.888   1.606   6.628 -0.0397  0.5403 -0.0426
   50CHL1    C3 4807   0.359   2.687   5.116  0.3021  0.0726 -0.2071
   50CHL1    H3 4808   0.261   2.727   5.149 -0.8058 -2.1298 -0.6435
   50CHL1    O3 4809   0.341   2.625   4.990 -0.3990 -0.3603  0.0611
   50CHL1   H3' 4810   0.315   2.697   4.933  1.2477  0.1053 -0.1687
   50CHL1    C4 4811   0.483   2.790   5.110  0.3509 -0.0599 -0.4233
   50CHL1   H4A 4812   0.573   2.732   5.081  1.7072  2.4321 -1.5279
   50CHL1   H4B 4813   0.464   2.860   5.025 -0.1930  0.2205 -0.0805
   50CHL1    C5 4814   0.495   2.857   5.242 -0.6690  0.3828 -0.0073
   50CHL1    C6 4815   0.486   2.995   5.243  0.2255 -0.9290  0.3444
   50CHL1    H6 4816   0.475   3.048   5.147  2.0038 -1.4868 -0.2075
   50CHL1    C7 4817   0.484   3.077   5.371  0.0385  0.0710  0.2936
   50CHL1   H7A 4818   0.546   3.166   5.344 -1.5124  0.5637 -1.9337
   50CHL1   H7B 4819   0.383   3.112   5.401  0.6701  0.8231  1.6213
   50CHL1    C8 4820   0.539   3.004   5.495 -0.0263 -0.1072 -0.0009
   50CHL1    H8 4821   0.649   2.989   5.488  0.1870  0.7442  1.3366
   50CHL1   C14 4822   0.513   3.084   5.627  0.0194  0.6966  0.3314
   50CHL1   H14 4823   0.405   3.111   5.628 -1.2171 -3.1472 -2.2375
   50CHL1   C15 4824   0.572   3.224   5.647 -0.3870 -0.2521  0.3628
   50CHL1  H15A 4825   0.678   3.235   5.614 -0.2494  1.5337  1.2394
   50CHL1  H15B 4826   0.524   3.300   5.582 -0.5818 -2.3741 -2.1364
   50CHL1   C16 4827   0.544   3.249   5.802 -0.2275  0.4971 -0.2334
   50CHL1  H16A 4828   0.641   3.286   5.842 -0.0478 -1.6117  1.4903
   50CHL1  H16B 4829   0.462   3.323   5.809 -0.6542 -0.0515  0.6497
   50CHL1   C17 4830   0.509   3.111   5.861  0.6762 -0.3826  0.3947
   50CHL1   H17 4831   0.398   3.116   5.858  0.7435  1.2399 -1.7630
   50CHL1   C13 4832   0.538   3.002   5.754 -0.0976 -0.2076 -0.1256
   50CHL1   C18 4833   0.685   2.960   5.768  1.0260 -0.1168  0.1191
   50CHL1  H18A 4834   0.744   3.054   5.762  0.6077  0.0702 -2.7178
   50CHL1  H18B 4835   0.698   2.911   5.866 -1.3588 -2.1731 -0.4778
   50CHL1  H18C 4836   0.719   2.885   5.693  2.9797 -0.5376  1.3708
   50CHL1   C12 4837   0.455   2.879   5.751 -0.0904  0.4263 -0.0858
   50CHL1  H12A 4838   0.479   2.820   5.843  0.6165 -1.1981 -1.2662
   50CHL1  H12B 4839   0.346   2.895   5.762 -0.2531  0.1585 -1.2435
   50CHL1   C11 4840   0.487   2.788   5.628 -0.1568 -0.3705 -0.1747
   50CHL1  H11A 4841   0.586   2.742   5.642  0.3343  1.3884  3.1657
   50CHL1  H11B 4842   0.416   2.702   5.622  0.7829 -1.4158  2.3345
   50CHL1    C9 4843   0.470   2.861   5.494  0.3634  0.6926  0.3001
   50CHL1    H9 4844   0.363   2.876   5.471  0.4610  0.8209 -0.0806
   50CHL1   C10 4845   0.508   2.774   5.371 -0.3308  0.6408 -0.0352
   50CHL1   C19 4846   0.647   2.722   5.387 -1.0820 -0.3061 -0.3296
   50CHL1  H19A 4847   0.720   2.805   5.402  0.9390 -2.2468  1.3639
   50CHL1  H19B 4848   0.648   2.658   5.478 -0.4690 -0.7289 -0.6212
   50CHL1  H19C 4849   0.677   2.655   5.304 -0.4771 -1.1075  0.5128
   50CHL1    C1 4850   0.407   2.652   5.360  0.0298  0.2240  0.3286
   50CHL1   H1A 4851   0.429   2.568   5.430 -0.8396  0.2406  0.6261
   50CHL1   H1B 4852   0.309   2.693   5.393  0.7997  0.6552  2.1795
   50CHL1    C2 4853   0.399   2.579   5.227  0.4140 -0.0076 -0.1907
   50CHL1   H2A 4854   0.324   2.498   5.237  0.2234  0.0860 -0.7915
   50CHL1   H2B 4855   0.491   2.517   5.212  0.9535  0.7173  0.0445
   50CHL1   C20 4856   0.544   3.097   6.007  1.0136  1.2667 -0.2573
   50CHL1   H20 4857   0.521   2.989   6.019 -2.1318  1.6974 -1.4242
   50CHL1   C21 4858   0.437   3.168   6.091  0.4882 -0.2651  0.4117
   50CHL1  H21A 4859   0.464   3.161   6.199  1.7216  2.3387  0.3457
   50CHL1  H21B 4860   0.338   3.122   6.069  0.5285 -1.0786  1.8066
   50CHL1  H21C 4861   0.421   3.273   6.058 -3.7982 -0.5131  1.1424
   50CHL1   C22 4862   0.684   3.141   6.049 -0.7581 -0.1778 -0.5414
   50CHL1  H22A 4863   0.763   3.129   5.973 -1.8622 -1.1550 -1.5814
   50CHL1  H22B 4864   0.675   3.251   6.063 -0.1581 -0.3225  1.3065
   50CHL1   C23 4865   0.738   3.085   6.178  0.1727  0.0152 -0.1209
   50CHL1  H23A 4866   0.666   3.119   6.256 -2.9877 -1.4299 -2.1593
   50CHL1  H23B 4867   0.740   2.974   6.175 -0.1381 -0.0779  1.6584
   50CHL1   C24 4868   0.883   3.131   6.208 -0.4642 -0.0836  0.2184
   50CHL1  H24A 4869   0.942   3.103   6.118 -0.3883  0.7696 -0.0051
   50CHL1  H24B 4870   0.883   3.242   6.208 -1.6430 -0.0635 -0.6867
   50CHL1   C25 4871   0.950   3.081   6.331 -0.2717 -0.6347  0.0764
   50CHL1   H25 4872   0.895   3.127   6.415  0.6710  0.1769  0.2685
   50CHL1   C26 4873   0.961   2.933   6.357  0.1371  0.0453  0.9881
   50CHL1  H26A 4874   1.025   2.909   6.445  1.7571 -0.2668 -0.2037
   50CHL1  H26B 4875   0.858   2.893   6.367 -0.2890  0.0526 -2.3298
   50CHL1  H26C 4876   1.010   2.879   6.273 -0.7651 -0.6672  0.9146
   50CHL1   C27 4877   1.094   3.145   6.333 -0.5917  1.0861  0.1225
   50CHL1  H27A 4878   1.164   3.116   6.414  0.7678  1.9714 -0.6768
   50CHL1  H27B 4879   1.152   3.117   6.242 -1.3609 -0.1563  0.0018
   50CHL1  H27C 4880   1.081   3.254   6.350 -0.8746  1.0121  0.3761
   51CHL1    C3 4881   6.178   5.048   4.967  0.3800  0.4818  0.4966
   51CHL1    H3 4882   6.080   5.091   4.996  0.8308  1.8809  0.0683
   51CHL1    O3 4883   6.199   5.037   4.828 -0.2820  0.1802  0.1155
   51CHL1   H3' 4884   6.286   4.997   4.819 -0.0672  0.8935 -1.4436
   51CHL1    C4 4885   6.281   5.144   5.045  0.0939 -0.1458 -0.0921
   51CHL1   H4A 4886   6.381   5.105   5.017 -0.2759 -3.5458  2.7022
   51CHL1   H4B 4887   6.267   5.248   5.009  0.5556 -0.1241 -0.2214
   51CHL1    C5 4888   6.271   5.129   5.200 -0.5175  0.0552  0.3559
   51CHL1    C6 4889   6.256   5.238   5.275 -0.3399  0.0644  0.7756
   51CHL1    H6 4890   6.258   5.340   5.234 -1.5342  0.5337  1.8415
   51CHL1    C7 4891   6.231   5.233   5.421  0.0363  0.4043 -0.0551
   51CHL1   H7A 4892   6.300   5.292   5.484  1.1076 -1.4001  0.5405
   51CHL1   H7B 4893   6.131   5.279   5.438  0.3565 -0.0770  4.0844
   51CHL1    C8 4894   6.245   5.093   5.494 -0.1241 -0.0801  0.1825
   51CHL1    H8 4895   6.355   5.085   5.502  0.0573 -0.4865 -2.1275
   51CHL1   C14 4896   6.174   5.085   5.632 -0.1078  0.2738 -0.0652
   51CHL1   H14 4897   6.065   5.104   5.620 -0.3577  0.3190  2.0165
   51CHL1   C15 4898   6.212   5.187   5.740  0.2024  0.7139 -0.3783
   51CHL1  H15A 4899   6.323   5.189   5.748  0.1705  0.4858  0.1645
   51CHL1  H15B 4900   6.176   5.291   5.731  1.0024  1.2197  1.7082
   51CHL1   C16 4901   6.157   5.120   5.863  0.7822 -0.3848 -0.5751
   51CHL1  H16A 4902   6.238   5.132   5.938  0.3050  1.3098 -0.2738
   51CHL1  H16B 4903   6.064   5.164   5.905  0.7628 -1.8390  0.9921
   51CHL1   C17 4904   6.119   4.973   5.829  0.0186  0.7920  0.2390
   51CHL1   H17 4905   6.013   4.981   5.797 -0.0290 -0.3720  0.0713
   51CHL1   C13 4906   6.187   4.945   5.693 -0.5041 -0.4024  0.0628
   51CHL1   C18 4907   6.334   4.912   5.719 -0.4993 -0.2186  0.2868
   51CHL1  H18A 4908   6.327   4.801   5.724  0.6738 -0.3652 -1.0626
   51CHL1  H18B 4909   6.403   4.928   5.634  0.6002 -1.6255  0.8776
   51CHL1  H18C 4910   6.382   4.963   5.806  0.5259  1.4914 -1.2299
   51CHL1   C12 4911   6.127   4.844   5.602 -0.0867 -0.5276  0.2565
   51CHL1  H12A 4912   6.123   4.739   5.639  0.0480  0.3348  2.9507
   51CHL1  H12B 4913   6.021   4.877   5.590  0.1482  0.6265  1.2019
   51CHL1   C11 4914   6.193   4.844   5.466 -0.4363  0.2590  0.0109
   51CHL1  H11A 4915   6.295   4.804   5.481  0.1446  1.7120  0.1394
   51CHL1  H11B 4916   6.132   4.782   5.397 -0.2255  0.4967 -0.3935
   51CHL1    C9 4917   6.197   4.987   5.402 -0.4688  0.6765 -0.1908
   51CHL1    H9 4918   6.092   5.017   5.385 -1.0602 -0.9200  0.4402
   51CHL1   C10 4919   6.254   4.983   5.252 -0.6157 -0.4702  0.3160
   51CHL1   C19 4920   6.401   4.927   5.254 -0.3336  0.3188 -0.3215
   51CHL1  H19A 4921   6.455   4.941   5.158  0.0991 -0.6362 -0.2263
   51CHL1  H19B 4922   6.466   4.974   5.331 -2.2690  1.1919  0.8633
   51CHL1  H19C 4923   6.394   4.820   5.281 -1.7511  0.2823 -0.7097
   51CHL1    C1 4924   6.162   4.895   5.162  0.0619  0.4351  0.7931
   51CHL1   H1A 4925   6.175   4.786   5.181  0.2560  0.0742 -1.1422
   51CHL1   H1B 4926   6.059   4.936   5.171 -0.8143 -1.9330  3.3455
   51CHL1    C2 4927   6.191   4.904   5.013  0.1895 -0.2166 -0.4118
   51CHL1   H2A 4928   6.128   4.842   4.947 -0.6355  1.8756 -1.6720
   51CHL1   H2B 4929   6.289   4.860   4.984 -0.4491 -0.8580 -1.6378
   51CHL1   C20 4930   6.130   4.871   5.944 -0.0363  0.3629 -0.4818
   51CHL1   H20 4931   6.235   4.876   5.980  0.9106 -2.2807 -2.5172
   51CHL1   C21 4932   6.117   4.729   5.890 -0.0158  0.1868  0.3479
   51CHL1  H21A 4933   6.194   4.694   5.819 -1.0138  0.5189 -0.9383
   51CHL1  H21B 4934   6.025   4.716   5.830  0.7904 -2.3255 -0.4764
   51CHL1  H21C 4935   6.128   4.660   5.977 -0.3730 -0.2472  0.0543
   51CHL1   C22 4936   6.037   4.897   6.064  0.1277 -0.4015 -0.5051
   51CHL1  H22A 4937   6.038   5.005   6.090 -0.3017  0.1174 -2.4612
   51CHL1  H22B 4938   5.935   4.874   6.028  0.3134 -1.2884 -0.4749
   51CHL1   C23 4939   6.050   4.818   6.194 -0.1086  0.7684 -0.2638
   51CHL1  H23A 4940   6.082   4.715   6.166 -2.2099  0.1180 -0.3942
   51CHL1  H23B 4941   6.141   4.855   6.246  0.1074 -1.5691  1.2084
   51CHL1   C24 4942   5.939   4.849   6.297  0.0721  0.0947  0.0441
   51CHL1  H24A 4943   5.938   4.955   6.331  0.8885 -0.3631  1.5616
   51CHL1  H24B 4944   5.839   4.824   6.256  0.1110 -0.2276  0.1454
   51CHL1   C25 4945   5.970   4.780   6.432 -0.4872  0.2266  0.1052
   51CHL1   H25 4946   6.071   4.813   6.466 -0.4464 -1.8348  2.2749
   51CHL1   C26 4947   5.863   4.823   6.539  0.1446 -0.5681  0.7945
   51CHL1  H26A 4948   5.885   4.785   6.641  1.3931  1.2204  1.2560
   51CHL1  H26B 4949   5.861   4.935   6.539  0.1483 -0.5362  2.4283
   51CHL1  H26C 4950   5.762   4.788   6.512 -0.2980  0.8488  0.5151
   51CHL1   C27 4951   5.991   4.628   6.415 -0.3767 -0.7882  0.5897
   51CHL1  H27A 4952   6.074   4.588   6.354 -0.1824 -1.6564  1.3943
   51CHL1  H27B 4953   6.004   4.579   6.514 -2.7340  0.5580  1.6462
   51CHL1  H27C 4954   5.895   4.591   6.373 -0.0311 -0.1372 -0.8207
   52CHL1    C3 4955   0.857   1.009   4.829 -0.2293 -0.7375 -0.4030
   52CHL1    H3 4956   0.831   1.107   4.873 -0.9192  0.2161 -2.7999
   52CHL1    O3 4957   0.842   1.005   4.688 -0.0863 -0.2589 -0.4428
   52CHL1   H3' 4958   0.890   0.927   4.663  1.4224  0.0894  1.1706
   52CHL1    C4 4959   1.004   0.988   4.861 -0.1630 -0.2125 -0.5570
   52CHL1   H4A 4960   1.037   0.886   4.831 -0.1415  0.1133 -1.7152
   52CHL1   H4B 4961   1.067   1.057   4.800  0.6677 -0.5686 -0.1276
   52CHL1    C5 4962   1.036   0.995   5.006  0.2465  0.4011  0.5897
   52CHL1    C6 4963   1.142   1.061   5.060 -0.1099 -0.1977  0.0156
   52CHL1    H6 4964   1.205   1.118   4.990 -0.5398  0.0417 -0.1814
   52CHL1    C7 4965   1.176   1.063   5.206  0.6956  0.0094 -0.3730
   52CHL1   H7A 4966   1.287   1.056   5.210  0.6495 -0.3162  1.6592
   52CHL1   H7B 4967   1.136   1.155   5.252  0.7212  0.3460 -1.0150
   52CHL1    C8 4968   1.099   0.949   5.286 -0.8469  0.0974  0.4327
   52CHL1    H8 4969   1.145   0.852   5.259 -1.6627 -0.8160  2.1668
   52CHL1   C14 4970   1.111   0.967   5.436  0.4449 -0.3546  0.4663
   52CHL1   H14 4971   1.063   1.065   5.455  0.3935 -0.5067  1.1704
   52CHL1   C15 4972   1.258   0.991   5.497 -0.0706  0.4774 -0.5591
   52CHL1  H15A 4973   1.330   0.922   5.448 -1.6845 -2.2502  0.6329
   52CHL1  H15B 4974   1.290   1.095   5.477  0.8398  0.7425  1.8757
   52CHL1   C16 4975   1.243   0.956   5.643  0.0199 -0.2225 -0.5965
   52CHL1  H16A 4976   1.308   0.870   5.669  0.2883 -0.1840 -1.1414
   52CHL1  H16B 4977   1.273   1.036   5.714  0.4278 -0.7192 -0.1999
   52CHL1   C17 4978   1.095   0.922   5.663  0.7189 -0.2053 -0.3544
   52CHL1   H17 4979   1.027   1.008   5.685 -0.6751 -0.5492 -2.9079
   52CHL1   C13 4980   1.046   0.870   5.527  0.0159 -0.0448  0.8912
   52CHL1   C18 4981   1.097   0.725   5.501  0.2014 -0.7195  0.0574
   52CHL1  H18A 4982   1.206   0.723   5.521 -0.0256  2.0118  2.2230
   52CHL1  H18B 4983   1.050   0.651   5.571 -2.0725  0.1454 -0.4740
   52CHL1  H18C 4984   1.084   0.699   5.394  1.0163 -0.6243 -0.0706
   52CHL1   C12 4985   0.895   0.872   5.492  0.2532 -0.0266 -0.1828
   52CHL1  H12A 4986   0.840   0.783   5.528  1.0570 -0.4193  0.0910
   52CHL1  H12B 4987   0.856   0.970   5.525 -0.8359  0.8671 -3.6403
   52CHL1   C11 4988   0.858   0.863   5.339 -0.3501 -0.1051  0.1495
   52CHL1  H11A 4989   0.863   0.758   5.303 -0.6771  0.0869 -0.4774
   52CHL1  H11B 4990   0.751   0.882   5.313 -0.2290 -0.9366 -1.0427
   52CHL1    C9 4991   0.949   0.945   5.241 -0.0393  0.8194  0.4810
   52CHL1    H9 4992   0.912   1.049   5.253 -1.4086  0.5855 -1.2818
   52CHL1   C10 4993   0.934   0.907   5.090 -0.8664  0.5044 -0.1206
   52CHL1   C19 4994   0.987   0.761   5.069 -0.7176 -0.5041  0.2206
   52CHL1  H19A 4995   0.962   0.741   4.962 -1.0267  1.7595 -0.1793
   52CHL1  H19B 4996   1.095   0.746   5.087 -0.4535 -0.7663 -1.3661
   52CHL1  H19C 4997   0.930   0.686   5.128  0.1951  0.1413  1.9785
   52CHL1    C1 4998   0.784   0.925   5.050  0.7710 -0.0206  0.0895
   52CHL1   H1A 4999   0.728   0.842   5.097 -2.9634  0.9957 -2.1440
   52CHL1   H1B 5000   0.754   1.024   5.090  2.3410  0.1942  0.8385
   52CHL1    C2 5001   0.768   0.911   4.902  0.5987  0.0771  0.0080
   52CHL1   H2A 5002   0.665   0.949   4.882  0.6686  0.1702 -0.1816
   52CHL1   H2B 5003   0.776   0.809   4.859 -2.2932 -0.1743 -0.1856
   52CHL1   C20 5004   1.071   0.837   5.782  0.2675 -0.3423  0.4976
   52CHL1   H20 5005   1.125   0.740   5.779  1.1656  0.1093  1.2616
   52CHL1   C21 5006   0.915   0.801   5.794 -0.5151 -0.6469  0.3103
   52CHL1  H21A 5007   0.901   0.714   5.727  0.0685  1.3923 -2.6835
   52CHL1  H21B 5008   0.855   0.883   5.749  0.8637  0.7849  0.9411
   52CHL1  H21C 5009   0.895   0.782   5.902  0.0140  0.5344  0.6413
   52CHL1   C22 5010   1.130   0.907   5.908 -0.1445  0.0166  0.3010
   52CHL1  H22A 5011   1.240   0.919   5.901  0.4312 -0.6369  5.2698
   52CHL1  H22B 5012   1.096   1.010   5.933 -2.3726 -0.5971 -0.0251
   52CHL1   C23 5013   1.124   0.815   6.029  0.1552 -0.7253 -0.3269
   52CHL1  H23A 5014   1.020   0.806   6.066  0.2321  0.2286  0.1532
   52CHL1  H23B 5015   1.157   0.709   6.020  1.8339 -0.2691  0.0128
   52CHL1   C24 5016   1.210   0.875   6.140 -0.6169  0.1935  0.0444
   52CHL1  H24A 5017   1.316   0.888   6.108 -0.2119  0.4387  1.3764
   52CHL1  H24B 5018   1.166   0.976   6.156 -0.9910  0.1031 -0.4143
   52CHL1   C25 5019   1.215   0.813   6.277 -0.4107 -0.3749 -0.0680
   52CHL1   H25 5020   1.214   0.703   6.266 -0.4895 -0.5257  1.3631
   52CHL1   C26 5021   1.345   0.862   6.346 -0.1304 -0.3480  0.8973
   52CHL1  H26A 5022   1.346   0.847   6.456  0.8391  2.4594  1.3669
   52CHL1  H26B 5023   1.435   0.816   6.300 -0.5348  0.4573 -0.8260
   52CHL1  H26C 5024   1.349   0.973   6.340 -3.0002 -0.2359 -1.9330
   52CHL1   C27 5025   1.092   0.849   6.363 -0.0873 -0.1318 -0.0731
   52CHL1  H27A 5026   0.999   0.813   6.315  0.4495  0.6844 -1.8128
   52CHL1  H27B 5027   1.091   0.802   6.463  0.8134  2.1232  1.0739
   52CHL1  H27C 5028   1.090   0.959   6.378  1.1472  0.3548 -2.8239
   53CHL1    C3 5029   5.808   3.647   4.828  0.8026  0.0688  0.0573
   53CHL1    H3 5030   5.869   3.733   4.865  0.8498 -1.2420  3.4292
   53CHL1    O3 5031   5.779   3.640   4.685  0.5047 -0.2720  0.3907
   53CHL1   H3' 5032   5.736   3.560   4.657 -0.3386 -0.5804  2.3639
   53CHL1    C4 5033   5.884   3.520   4.862  0.5074  0.0580  0.3808
   53CHL1   H4A 5034   5.837   3.430   4.817 -0.3656  1.3502 -1.3943
   53CHL1   H4B 5035   5.983   3.528   4.811 -0.1107  0.2353 -0.8025
   53CHL1    C5 5036   5.909   3.497   5.010  0.3389 -0.4070  0.7850
   53CHL1    C6 5037   6.034   3.488   5.050 -0.7589  0.5583 -0.1716
   53CHL1    H6 5038   6.115   3.481   4.975 -0.1988 -1.9845  0.5757
   53CHL1    C7 5039   6.083   3.467   5.193  1.0372 -0.5843  0.0527
   53CHL1   H7A 5040   6.148   3.377   5.201 -0.1043 -1.3240  1.6568
   53CHL1   H7B 5041   6.135   3.557   5.234 -0.6527  0.8109 -0.7693
   53CHL1    C8 5042   5.965   3.439   5.294  0.1210 -0.1552  0.2088
   53CHL1    H8 5043   5.936   3.332   5.286  4.3527 -1.3952 -1.0595
   53CHL1   C14 5044   6.010   3.476   5.438  0.3445  0.4429 -0.5685
   53CHL1   H14 5045   6.027   3.585   5.439  2.3053  0.1770  0.8897
   53CHL1   C15 5046   6.151   3.418   5.478 -0.2435 -0.9796 -0.0785
   53CHL1  H15A 5047   6.163   3.315   5.438 -2.1037 -0.8384 -1.1233
   53CHL1  H15B 5048   6.229   3.485   5.436 -0.9682  0.3520  0.6422
   53CHL1   C16 5049   6.145   3.419   5.637 -0.7705 -0.3186 -0.4068
   53CHL1  H16A 5050   6.154   3.311   5.664 -0.3843 -0.0075  0.7646
   53CHL1  H16B 5051   6.218   3.487   5.686 -1.4940 -0.2710  0.6479
   53CHL1   C17 5052   6.005   3.478   5.671  0.8099 -0.2158 -0.5809
   53CHL1   H17 5053   6.009   3.589   5.669 -1.9460 -0.0156  0.2403
   53CHL1   C13 5054   5.912   3.448   5.552 -0.3693 -0.7207  0.6770
   53CHL1   C18 5055   5.866   3.297   5.555  0.1436 -0.6877  0.4341
   53CHL1  H18A 5056   5.777   3.292   5.622 -1.2656  0.4800 -1.2621
   53CHL1  H18B 5057   5.832   3.253   5.459 -0.1186  0.2311  0.0962
   53CHL1  H18C 5058   5.943   3.237   5.607 -0.9584  0.4727  3.6446
   53CHL1   C12 5059   5.790   3.532   5.515  0.1858 -0.2465  0.4792
   53CHL1  H12A 5060   5.706   3.516   5.586 -1.0678  0.0741 -0.8732
   53CHL1  H12B 5061   5.832   3.633   5.532 -0.1917 -0.2731  1.6194
   53CHL1   C11 5062   5.734   3.525   5.374 -0.6929 -0.7859 -0.2065
   53CHL1  H11A 5063   5.683   3.427   5.362  0.0958 -1.2416  0.0933
   53CHL1  H11B 5064   5.668   3.610   5.350  1.1202  0.6895 -0.2308
   53CHL1    C9 5065   5.846   3.526   5.260  0.6284 -0.8515 -0.2887
   53CHL1    H9 5066   5.894   3.626   5.251  0.2626 -0.6312  0.1480
   53CHL1   C10 5067   5.790   3.508   5.112 -0.2417 -0.6087 -0.6080
   53CHL1   C19 5068   5.707   3.382   5.108  0.3930  0.0423  0.4481
   53CHL1  H19A 5069   5.773   3.300   5.144  2.0748  1.7876  1.5144
   53CHL1  H19B 5070   5.618   3.388   5.175 -0.1159  0.4187 -0.2405
   53CHL1  H19C 5071   5.674   3.361   5.003 -0.8652 -0.5326  0.9368
   53CHL1    C1 5072   5.704   3.633   5.061 -0.4289  0.4568 -0.3974
   53CHL1   H1A 5073   5.602   3.625   5.105 -0.9040  1.1940 -1.3205
   53CHL1   H1B 5074   5.752   3.724   5.103 -0.3516 -0.7290  2.2723
   53CHL1    C2 5075   5.683   3.649   4.909  0.0897 -0.2166 -0.6765
   53CHL1   H2A 5076   5.626   3.741   4.886 -3.5417 -2.0251  0.2551
   53CHL1   H2B 5077   5.607   3.576   4.873 -1.4895  0.3866  1.2440
   53CHL1   C20 5078   5.947   3.436   5.811 -0.0180  0.5928  0.2933
   53CHL1   H20 5079   5.936   3.325   5.813  0.2467  0.5710  0.5295
   53CHL1   C21 5080   5.799   3.487   5.842  0.1170 -0.1606 -0.0907
   53CHL1  H21A 5081   5.733   3.434   5.771 -0.0033  1.1688 -1.0131
   53CHL1  H21B 5082   5.789   3.598   5.836  0.3490 -0.2146 -1.9801
   53CHL1  H21C 5083   5.759   3.454   5.940  0.0522 -0.2205 -0.1371
   53CHL1   C22 5084   6.040   3.466   5.925  0.1777  0.1171 -0.8710
   53CHL1  H22A 5085   6.139   3.421   5.905  0.3484  0.4518 -0.7913
   53CHL1  H22B 5086   6.056   3.576   5.918 -0.1312  0.1913 -0.4482
   53CHL1   C23 5087   5.997   3.441   6.069  0.3782 -0.1830 -0.9310
   53CHL1  H23A 5088   6.074   3.475   6.141 -0.8034  0.1648  0.1950
   53CHL1  H23B 5089   5.902   3.494   6.092  0.7803 -0.3217  1.3018
   53CHL1   C24 5090   5.989   3.287   6.103 -0.8037 -0.4117 -0.5825
   53CHL1  H24A 5091   5.900   3.239   6.058 -0.8090 -0.4930 -0.4846
   53CHL1  H24B 5092   6.081   3.234   6.070 -0.0534  0.2020  0.4528
   53CHL1   C25 5093   5.983   3.249   6.257 -0.6319 -0.3301  0.6024
   53CHL1   H25 5094   6.075   3.286   6.306  0.5269  0.1177 -1.8060
   53CHL1   C26 5095   5.868   3.301   6.336 -0.1362 -0.3015  0.3512
   53CHL1  H26A 5096   5.774   3.277   6.282  0.6565  0.0499 -1.2573
   53CHL1  H26B 5097   5.872   3.262   6.440 -0.0988  0.8514  0.8014
   53CHL1  H26C 5098   5.873   3.412   6.335 -0.0673 -0.3054  0.2086
   53CHL1   C27 5099   5.983   3.097   6.266  0.7139 -0.2151  0.2188
   53CHL1  H27A 5100   6.071   3.051   6.216 -0.0648 -3.4207  1.5428
   53CHL1  H27B 5101   5.981   3.068   6.374 -2.1390 -0.6875  0.0936
   53CHL1  H27C 5102   5.892   3.065   6.212 -0.0454  1.1360  0.6593
   54CHL1    C3 5103   6.131   1.420   5.001 -0.7372 -0.0381 -0.0377
   54CHL1    H3 5104   6.138   1.528   5.023  0.1351  0.1322 -1.0475
   54CHL1    O3 5105   6.068   1.400   4.871 -1.0256 -0.5774  0.1934
   54CHL1   H3' 5106   5.995   1.461   4.867 -1.8094 -1.1380  3.3138
   54CHL1    C4 5107   6.277   1.374   5.002  0.2602  0.3795  1.1855
   54CHL1   H4A 5108   6.284   1.273   4.957  0.6583  1.5913 -1.7076
   54CHL1   H4B 5109   6.334   1.433   4.928 -0.3182 -0.8347 -0.2796
   54CHL1    C5 5110   6.337   1.388   5.141 -0.1565  0.0805  0.4081
   54CHL1    C6 5111   6.450   1.461   5.155 -0.4749  1.4489 -0.0541
   54CHL1    H6 5112   6.490   1.516   5.068  1.2057 -0.2653 -0.4425
   54CHL1    C7 5113   6.518   1.479   5.286 -0.2275  0.0974 -0.1603
   54CHL1   H7A 5114   6.628   1.478   5.272  0.0632 -1.4005  1.7925
   54CHL1   H7B 5115   6.509   1.588   5.306 -0.2555  0.3404 -1.4162
   54CHL1    C8 5116   6.469   1.390   5.397 -0.9452  0.0678 -0.5194
   54CHL1    H8 5117   6.505   1.287   5.374 -1.7784 -0.0279 -1.4397
   54CHL1   C14 5118   6.504   1.446   5.532 -0.1584 -0.0627 -0.5516
   54CHL1   H14 5119   6.443   1.538   5.540  0.6859  0.4280  0.4316
   54CHL1   C15 5120   6.650   1.492   5.565 -0.4726  0.5871 -0.0685
   54CHL1  H15A 5121   6.724   1.417   5.529  1.9159  2.4300  0.6887
   54CHL1  H15B 5122   6.675   1.593   5.526  1.4066  0.3605  0.4236
   54CHL1   C16 5123   6.655   1.487   5.715 -0.5644 -0.4151  0.0716
   54CHL1  H16A 5124   6.722   1.405   5.746  0.4481  1.0927  2.1094
   54CHL1  H16B 5125   6.681   1.582   5.766 -1.1393  0.5286 -1.3245
   54CHL1   C17 5126   6.523   1.431   5.773  0.0032  0.7647 -0.5251
   54CHL1   H17 5127   6.453   1.511   5.806 -2.0662 -1.7129  1.7131
   54CHL1   C13 5128   6.461   1.359   5.652  0.0968  0.7709  0.6102
   54CHL1   C18 5129   6.522   1.217   5.642  0.9244  0.8326  0.1104
   54CHL1  H18A 5130   6.633   1.211   5.651  0.9062  1.8888  1.3919
   54CHL1  H18B 5131   6.477   1.149   5.718 -1.2861  1.7999 -0.2489
   54CHL1  H18C 5132   6.493   1.166   5.548 -1.8479  0.1245  1.2600
   54CHL1   C12 5133   6.308   1.349   5.652 -0.1688 -0.5510 -0.3186
   54CHL1  H12A 5134   6.272   1.290   5.739  2.0738 -0.4851  0.7200
   54CHL1  H12B 5135   6.266   1.451   5.665 -2.8179 -1.6455  0.3173
   54CHL1   C11 5136   6.265   1.302   5.514  0.0588  0.0593  0.3287
   54CHL1  H11A 5137   6.298   1.197   5.501  1.2011  0.5276 -0.7231
   54CHL1  H11B 5138   6.154   1.301   5.527  0.1435 -1.1718  1.1300
   54CHL1    C9 5139   6.316   1.386   5.395 -0.0823  0.5475 -0.3606
   54CHL1    H9 5140   6.277   1.489   5.404 -0.6299  0.3973 -0.9020
   54CHL1   C10 5141   6.261   1.325   5.255  0.2571  0.4442 -0.1322
   54CHL1   C19 5142   6.283   1.167   5.244  0.4270 -0.1011 -0.2823
   54CHL1  H19A 5143   6.267   1.140   5.137 -0.1246  2.2449 -0.8514
   54CHL1  H19B 5144   6.389   1.142   5.266  0.7007  0.0154 -1.3864
   54CHL1  H19C 5145   6.213   1.121   5.317 -1.8728  1.1969 -1.5504
   54CHL1    C1 5146   6.116   1.368   5.247  0.0697 -0.3855 -0.6843
   54CHL1   H1A 5147   6.051   1.328   5.328  0.2667  0.0113 -0.3318
   54CHL1   H1B 5148   6.119   1.477   5.268  1.2309 -0.8572  1.9164
   54CHL1    C2 5149   6.050   1.350   5.109  0.0495  0.4304  0.2682
   54CHL1   H2A 5150   5.947   1.391   5.098 -0.0810  0.7775  2.3396
   54CHL1   H2B 5151   6.054   1.243   5.082  2.0914  0.3809  0.5982
   54CHL1   C20 5152   6.552   1.352   5.909  0.0818  0.1570  0.4841
   54CHL1   H20 5153   6.617   1.267   5.878 -0.7810 -0.7868  1.1984
   54CHL1   C21 5154   6.425   1.293   5.974 -0.2827 -0.4027  0.9228
   54CHL1  H21A 5155   6.371   1.228   5.901 -0.6430 -0.0694  0.8910
   54CHL1  H21B 5156   6.357   1.375   6.004 -0.2466  0.7722 -1.9271
   54CHL1  H21C 5157   6.445   1.225   6.060  2.8655  0.1941  0.7735
   54CHL1   C22 5158   6.627   1.433   6.015  0.3070 -0.8031 -0.3110
   54CHL1  H22A 5159   6.717   1.473   5.963  0.7610  0.5762  1.4276
   54CHL1  H22B 5160   6.572   1.521   6.055  1.0622 -0.8025  0.7777
   54CHL1   C23 5161   6.667   1.365   6.141 -0.1885 -0.0421 -1.3864
   54CHL1  H23A 5162   6.744   1.423   6.197  1.5963 -0.4562 -3.2887
   54CHL1  H23B 5163   6.575   1.363   6.203 -0.0546  1.7274 -1.0655
   54CHL1   C24 5164   6.724   1.227   6.110  0.2867 -0.2500 -0.5601
   54CHL1  H24A 5165   6.647   1.160   6.066  0.7078 -0.9009 -0.3112
   54CHL1  H24B 5166   6.812   1.247   6.045  0.4569 -0.4547 -0.3889
   54CHL1   C25 5167   6.766   1.161   6.243  0.3048 -0.3922 -0.0068
   54CHL1   H25 5168   6.802   1.249   6.300 -1.5027  0.4123 -0.0727
   54CHL1   C26 5169   6.645   1.098   6.314 -0.6586  0.6312  0.6654
   54CHL1  H26A 5170   6.602   1.017   6.250  2.4860 -1.8160  1.3980
   54CHL1  H26B 5171   6.676   1.063   6.414 -0.9483  0.3935  0.6733
   54CHL1  H26C 5172   6.573   1.181   6.335 -0.7753  0.0828  2.5635
   54CHL1   C27 5173   6.884   1.063   6.221 -0.9436  0.0325 -0.3255
   54CHL1  H27A 5174   6.977   1.099   6.170  1.0834 -0.9286  2.4584
   54CHL1  H27B 5175   6.907   1.008   6.315 -2.3912 -2.1541 -1.1722
   54CHL1  H27C 5176   6.836   0.986   6.157 -1.8906  0.5906 -0.2942
   55CHL1    C3 5177   0.081   2.921   5.233  0.3625  0.5643 -0.0031
   55CHL1    H3 5178   0.192   2.918   5.233  0.3708  0.0400  1.6028
   55CHL1    O3 5179   0.053   2.902   5.096 -0.5591  0.1503 -0.2284
   55CHL1   H3' 5180  -0.037   2.871   5.090 -0.3091 -1.4487  2.5309
   55CHL1    C4 5181   0.024   2.811   5.309  0.3399 -0.3315  0.1486
   55CHL1   H4A 5182  -0.080   2.811   5.270  0.7731  2.8631 -1.4255
   55CHL1   H4B 5183   0.071   2.715   5.278  2.2000  0.9206 -1.1402
   55CHL1    C5 5184   0.035   2.826   5.460 -0.2815  0.1723 -0.6321
   55CHL1    C6 5185   0.085   2.728   5.536  0.1991  0.1798 -0.3750
   55CHL1    H6 5186   0.108   2.634   5.485  0.8215 -2.0151  3.5254
   55CHL1    C7 5187   0.094   2.730   5.686 -0.3774 -0.1678 -0.0977
   55CHL1   H7A 5188   0.083   2.626   5.723  3.1044 -0.3564  0.7202
   55CHL1   H7B 5189   0.198   2.748   5.720 -0.1058 -2.5410  0.5585
   55CHL1    C8 5190   0.012   2.837   5.748  0.2606  0.0004 -0.1091
   55CHL1    H8 5191  -0.093   2.803   5.760 -0.1183  1.7504  2.2069
   55CHL1   C14 5192   0.050   2.857   5.900 -0.8556  0.3467 -0.6263
   55CHL1   H14 5193   0.156   2.891   5.901 -0.5265 -0.6617 -0.4963
   55CHL1   C15 5194   0.045   2.745   5.994  0.1052  0.2197  0.2298
   55CHL1  H15A 5195  -0.034   2.671   5.969  0.8847 -0.5159 -0.1252
   55CHL1  H15B 5196   0.137   2.686   5.975 -1.1081 -1.7087  0.0650
   55CHL1   C16 5197   0.040   2.802   6.131 -0.0966  0.4184 -0.1745
   55CHL1  H16A 5198  -0.062   2.784   6.173 -0.5139  1.7092 -0.5789
   55CHL1  H16B 5199   0.126   2.765   6.191 -0.9768 -1.6026 -0.0859
   55CHL1   C17 5200   0.036   2.962   6.111 -0.2574  0.2221 -0.5046
   55CHL1   H17 5201   0.143   2.991   6.106 -0.7919  2.3579 -0.5733
   55CHL1   C13 5202  -0.026   2.971   5.972  0.3256  0.3507  0.3619
   55CHL1   C18 5203  -0.185   2.941   5.962 -0.1446  0.2678  0.3449
   55CHL1  H18A 5204  -0.204   2.839   6.001 -0.8466  0.4317  0.4385
   55CHL1  H18B 5205  -0.237   3.017   6.023 -0.6704  0.3581 -0.2031
   55CHL1  H18C 5206  -0.222   2.952   5.857  0.5190 -1.5751 -0.1164
   55CHL1   C12 5207   0.004   3.106   5.897  0.1551  0.3720  0.7832
   55CHL1  H12A 5208  -0.066   3.183   5.936 -1.1697  0.6908 -1.9778
   55CHL1  H12B 5209   0.107   3.143   5.916 -0.1838  0.9334  1.5732
   55CHL1   C11 5210  -0.037   3.090   5.749  0.1282 -0.3358  0.7900
   55CHL1  H11A 5211  -0.147   3.081   5.742 -0.1894  1.8866  1.7872
   55CHL1  H11B 5212  -0.005   3.180   5.691 -0.0556 -0.0932  1.0656
   55CHL1    C9 5213   0.026   2.969   5.673 -0.3216 -0.0979  0.3717
   55CHL1    H9 5214   0.135   2.994   5.677 -0.1941 -0.7613  1.0457
   55CHL1   C10 5215  -0.014   2.954   5.519 -0.1225  0.0708  0.2682
   55CHL1   C19 5216  -0.168   2.965   5.498  0.0155 -0.0537 -0.0054
   55CHL1  H19A 5217  -0.216   2.908   5.581 -1.0526  1.3962  0.4038
   55CHL1  H19B 5218  -0.203   3.068   5.521 -1.8496 -0.5665 -0.3567
   55CHL1  H19C 5219  -0.214   2.950   5.398  0.4878  0.6987 -0.3425
   55CHL1    C1 5220   0.049   3.076   5.440  0.3641  1.2227  0.0427
   55CHL1   H1A 5221  -0.000   3.166   5.481  1.6272  1.6329  0.6990
   55CHL1   H1B 5222   0.155   3.081   5.471  0.5430  0.8056 -0.4805
   55CHL1    C2 5223   0.033   3.057   5.284 -0.0561  0.4041 -0.1944
   55CHL1   H2A 5224   0.083   3.148   5.244  0.7277 -0.4011 -1.0963
   55CHL1   H2B 5225  -0.074   3.074   5.260  0.1735  0.0061 -1.6275
   55CHL1   C20 5226  -0.028   3.032   6.228  0.2476  0.4201  0.0900
   55CHL1   H20 5227  -0.138   3.014   6.225  0.4174 -0.7519  0.2637
   55CHL1   C21 5228   0.006   3.177   6.221 -0.1983 -0.3442 -0.2049
   55CHL1  H21A 5229   0.007   3.226   6.321  3.0716  0.3959 -0.5135
   55CHL1  H21B 5230  -0.059   3.239   6.156 -1.6672 -1.7677 -0.1523
   55CHL1  H21C 5231   0.112   3.189   6.190 -0.2148  1.9038  0.4560
   55CHL1   C22 5232   0.027   2.982   6.355 -0.2830  0.5009 -0.0857
   55CHL1  H22A 5233  -0.031   3.031   6.437 -1.2161  1.8367 -1.4755
   55CHL1  H22B 5234   0.007   2.874   6.371 -1.1029  0.7775  0.8615
   55CHL1   C23 5235   0.179   2.992   6.380 -0.4133 -0.9163 -0.7270
   55CHL1  H23A 5236   0.231   2.923   6.310  2.8523  0.2408  0.3687
   55CHL1  H23B 5237   0.215   3.094   6.358 -0.7113 -0.3965  1.0183
   55CHL1   C24 5238   0.217   2.953   6.528 -0.5183  0.7795 -0.3340
   55CHL1  H24A 5239   0.148   3.012   6.592 -1.0280 -2.8899  2.8443
   55CHL1  H24B 5240   0.186   2.847   6.538  0.7912 -0.2057 -4.4916
   55CHL1   C25 5241   0.368   2.969   6.567  0.1042  0.0766 -0.3206
   55CHL1   H25 5242   0.382   2.949   6.676 -1.5929 -0.5274 -0.1737
   55CHL1   C26 5243   0.457   2.862   6.504  0.4545 -0.2109 -0.6042
   55CHL1  H26A 5244   0.457   2.875   6.394 -0.0633 -2.4575 -0.9128
   55CHL1  H26B 5245   0.562   2.868   6.540  0.6768  0.0902 -1.2908
   55CHL1  H26C 5246   0.427   2.758   6.527  0.6134 -0.2533 -0.5911
   55CHL1   C27 5247   0.423   3.112   6.547  0.2895 -1.1846 -0.0841
   55CHL1  H27A 5248   0.355   3.177   6.606  1.9511 -0.4612  1.1259
   55CHL1  H27B 5249   0.524   3.126   6.591  0.4826  0.7367 -1.0248
   55CHL1  H27C 5250   0.431   3.140   6.439 -0.2428  4.3123  1.0224
   56CHL1    C3 5251   1.038   2.966   5.075  0.2193 -0.6423 -0.2905
   56CHL1    H3 5252   1.132   2.909   5.058  0.8872 -0.1916  1.6456
   56CHL1    O3 5253   0.970   2.967   4.953  0.0430  0.7852  0.4060
   56CHL1   H3' 5254   0.963   2.877   4.921  1.2916  1.1462 -0.9704
   56CHL1    C4 5255   0.950   2.902   5.188 -0.3211 -0.2356  0.3455
   56CHL1   H4A 5256   0.851   2.952   5.185  0.2582  0.9870  0.8506
   56CHL1   H4B 5257   0.921   2.798   5.161 -0.7111 -0.2447  0.7755
   56CHL1    C5 5258   1.002   2.909   5.324  0.8645  0.0515 -0.5921
   56CHL1    C6 5259   1.010   2.799   5.405  0.4377 -0.7437 -0.3288
   56CHL1    H6 5260   0.972   2.701   5.371 -0.6205 -1.2596  2.1430
   56CHL1    C7 5261   1.057   2.800   5.548 -1.0578 -0.7315 -0.4057
   56CHL1   H7A 5262   0.985   2.753   5.619  1.6065  0.8279  3.7064
   56CHL1   H7B 5263   1.157   2.755   5.561 -0.8473  0.2360  1.6048
   56CHL1    C8 5264   1.079   2.944   5.604 -0.0540 -0.1599  0.4063
   56CHL1    H8 5265   0.979   2.983   5.630 -0.1216  0.4875 -0.7332
   56CHL1   C14 5266   1.179   2.948   5.729  0.0964  0.5298  0.6225
   56CHL1   H14 5267   1.277   2.918   5.686  0.3258  2.5362 -0.4006
   56CHL1   C15 5268   1.158   2.852   5.843 -0.9166 -0.5872  0.0768
   56CHL1  H15A 5269   1.050   2.858   5.869 -1.2623 -0.3662 -1.3440
   56CHL1  H15B 5270   1.191   2.747   5.825  3.2675  0.5489  0.1627
   56CHL1   C16 5271   1.251   2.912   5.947 -0.9046 -0.1589 -0.2731
   56CHL1  H16A 5272   1.197   2.925   6.044 -2.8510 -1.3237 -1.1383
   56CHL1  H16B 5273   1.335   2.843   5.972  0.2323  1.8285  1.7762
   56CHL1   C17 5274   1.308   3.049   5.890  0.0876  0.2330  0.1239
   56CHL1   H17 5275   1.400   3.029   5.831 -0.4244  0.6551 -0.8501
   56CHL1   C13 5276   1.208   3.090   5.780  0.2444 -0.3853 -0.4355
   56CHL1   C18 5277   1.075   3.137   5.836 -0.2729 -0.0735 -0.1728
   56CHL1  H18A 5278   1.004   3.149   5.751  0.6737 -0.3228 -1.0264
   56CHL1  H18B 5279   1.043   3.071   5.919  0.0796 -1.3199 -1.0019
   56CHL1  H18C 5280   1.098   3.241   5.867 -0.3707 -0.1633  0.1951
   56CHL1   C12 5281   1.261   3.176   5.669 -0.1743  0.3003 -0.1849
   56CHL1  H12A 5282   1.285   3.280   5.700  0.9343 -0.3594  1.3092
   56CHL1  H12B 5283   1.359   3.135   5.637  0.0336  0.3404  0.3764
   56CHL1   C11 5284   1.169   3.183   5.553  0.2615 -0.1016  0.0645
   56CHL1  H11A 5285   1.080   3.242   5.584  1.5629  1.7087  0.5093
   56CHL1  H11B 5286   1.224   3.241   5.476 -1.4893  1.5006 -0.0650
   56CHL1    C9 5287   1.136   3.045   5.494  0.1406  0.1182 -0.3764
   56CHL1    H9 5288   1.231   2.992   5.472  0.9695  1.1068  0.6852
   56CHL1   C10 5289   1.051   3.045   5.368 -0.1656 -0.2064 -0.6838
   56CHL1   C19 5290   0.924   3.131   5.402  0.3242  0.5530  0.2931
   56CHL1  H19A 5291   0.844   3.120   5.326 -2.9174  1.3913  3.3261
   56CHL1  H19B 5292   0.874   3.104   5.497  1.5062  2.8094  1.6498
   56CHL1  H19C 5293   0.947   3.240   5.401  1.5525  0.3143 -0.6895
   56CHL1    C1 5294   1.130   3.116   5.258 -0.5747 -0.1524  0.5383
   56CHL1   H1A 5295   1.162   3.221   5.277  0.1903 -0.4390  0.8525
   56CHL1   H1B 5296   1.226   3.061   5.256 -0.5306 -0.0737 -1.4624
   56CHL1    C2 5297   1.073   3.106   5.113 -0.3364  0.3392  0.3262
   56CHL1   H2A 5298   1.147   3.145   5.040 -1.2620 -2.1372 -2.0960
   56CHL1   H2B 5299   0.979   3.161   5.090 -1.1388 -1.9484 -2.3891
   56CHL1   C20 5300   1.345   3.152   5.998 -0.6161  0.2283  0.1907
   56CHL1   H20 5301   1.252   3.201   6.036 -1.3092 -0.0603 -1.1040
   56CHL1   C21 5302   1.425   3.271   5.939 -0.2158 -0.1495  0.1799
   56CHL1  H21A 5303   1.520   3.227   5.901  0.0774  1.4009 -0.9861
   56CHL1  H21B 5304   1.449   3.335   6.027 -0.5687  0.1061  0.0947
   56CHL1  H21C 5305   1.371   3.337   5.868  0.3168  0.7549  0.5946
   56CHL1   C22 5306   1.428   3.084   6.113  0.2739 -0.1648 -0.2444
   56CHL1  H22A 5307   1.357   3.015   6.161  1.2374 -0.6743  0.4814
   56CHL1  H22B 5308   1.515   3.028   6.072  0.8105  1.2121 -1.0835
   56CHL1   C23 5309   1.463   3.159   6.243 -0.1620 -0.4990  0.4341
   56CHL1  H23A 5310   1.539   3.239   6.225 -1.9911  0.9715 -1.1867
   56CHL1  H23B 5311   1.370   3.217   6.263 -0.4572 -0.0033 -2.0699
   56CHL1   C24 5312   1.519   3.088   6.365 -0.2395 -0.2071 -0.0685
   56CHL1  H24A 5313   1.433   3.031   6.407  1.2165 -0.3972  2.8925
   56CHL1  H24B 5314   1.593   3.012   6.334  0.5549 -0.8732  3.1371
   56CHL1   C25 5315   1.559   3.184   6.475  0.3514  0.2257  0.0283
   56CHL1   H25 5316   1.611   3.271   6.431  1.8447 -1.7625 -2.4088
   56CHL1   C26 5317   1.444   3.237   6.550  0.4899  0.9171 -0.8580
   56CHL1  H26A 5318   1.396   3.153   6.605  0.1481  2.5726  1.5214
   56CHL1  H26B 5319   1.480   3.307   6.628 -0.2967  1.9401 -1.3902
   56CHL1  H26C 5320   1.366   3.283   6.486 -1.4893 -1.6719 -0.5041
   56CHL1   C27 5321   1.656   3.121   6.577  0.3365  0.8259 -0.0768
   56CHL1  H27A 5322   1.688   3.202   6.646 -2.2284  1.4323  0.4984
   56CHL1  H27B 5323   1.616   3.031   6.626  0.8606  0.6918  0.1138
   56CHL1  H27C 5324   1.749   3.093   6.522 -0.1641  1.4249 -1.2666
   57CHL1    C3 5325   3.794   0.853   4.863 -0.0045 -0.0517  0.0712
   57CHL1    H3 5326   3.773   0.942   4.927  0.3298  0.2135 -0.1826
   57CHL1    O3 5327   3.797   0.884   4.726 -1.2192 -0.6100  0.0008
   57CHL1   H3' 5328   3.838   0.805   4.688 -1.0002 -0.9932  1.0092
   57CHL1    C4 5329   3.928   0.787   4.908 -0.1519 -0.0673  0.0913
   57CHL1   H4A 5330   3.931   0.691   4.853 -1.5655  0.6622 -1.3492
   57CHL1   H4B 5331   4.010   0.851   4.869  0.4507 -0.5544  0.5475
   57CHL1    C5 5332   3.932   0.755   5.053 -0.6364 -0.3486 -0.0704
   57CHL1    C6 5333   4.022   0.813   5.133  0.2444 -0.4819  0.6488
   57CHL1    H6 5334   4.096   0.877   5.084 -1.0236  0.5568  0.0210
   57CHL1    C7 5335   4.031   0.790   5.281  0.3784  0.4957 -0.2960
   57CHL1   H7A 5336   4.136   0.787   5.317 -0.0226 -3.4206  0.9812
   57CHL1   H7B 5337   3.982   0.872   5.338  0.5360  0.3298  0.0809
   57CHL1    C8 5338   3.949   0.663   5.329  0.3349 -0.0390 -0.3963
   57CHL1    H8 5339   4.005   0.574   5.293  0.9720 -0.6722  1.9882
   57CHL1   C14 5340   3.935   0.672   5.483  0.5697  0.9444  0.2917
   57CHL1   H14 5341   3.887   0.770   5.500  0.0940  0.7780 -0.0761
   57CHL1   C15 5342   4.070   0.675   5.558 -0.1676  0.9223 -0.3963
   57CHL1  H15A 5343   4.142   0.594   5.531 -0.3308  0.0074  1.7393
   57CHL1  H15B 5344   4.127   0.770   5.552  0.4206  0.6041  0.0138
   57CHL1   C16 5345   4.024   0.637   5.701  0.3740 -0.5892 -0.1399
   57CHL1  H16A 5346   4.082   0.553   5.743  0.7625 -0.3508 -0.1988
   57CHL1  H16B 5347   4.044   0.725   5.767  0.3789  0.7895 -1.9118
   57CHL1   C17 5348   3.865   0.608   5.694  0.6003  0.2216 -0.3315
   57CHL1   H17 5349   3.819   0.708   5.708  0.7346  0.2131  0.1991
   57CHL1   C13 5350   3.849   0.565   5.550  0.7859 -0.6061  0.3975
   57CHL1   C18 5351   3.909   0.429   5.524 -0.3644 -0.1011  0.1815
   57CHL1  H18A 5352   3.856   0.349   5.580 -1.7527 -0.4168 -1.4893
   57CHL1  H18B 5353   3.903   0.393   5.419 -1.5826 -2.2169  0.9043
   57CHL1  H18C 5354   4.011   0.416   5.565 -0.3473  1.2723  0.6159
   57CHL1   C12 5355   3.712   0.572   5.482  0.3411 -0.6326 -0.0034
   57CHL1  H12A 5356   3.639   0.503   5.529  1.2462 -1.3607  0.3593
   57CHL1  H12B 5357   3.679   0.675   5.508  0.8351 -0.8943  1.8329
   57CHL1   C11 5358   3.713   0.566   5.326  0.4733 -0.2592  0.7502
   57CHL1  H11A 5359   3.746   0.462   5.301  0.0769 -0.2538  0.1894
   57CHL1  H11B 5360   3.613   0.596   5.287  0.2384  0.6363  1.9717
   57CHL1    C9 5361   3.810   0.669   5.264  0.2547  0.7203 -0.0974
   57CHL1    H9 5362   3.775   0.769   5.297 -0.6286 -0.0676  1.5017
   57CHL1   C10 5363   3.814   0.667   5.105 -0.5247 -0.2323 -0.7267
   57CHL1   C19 5364   3.836   0.523   5.052  0.9318  0.3135 -1.2057
   57CHL1  H19A 5365   3.931   0.480   5.088 -0.7518 -2.6475  0.0513
   57CHL1  H19B 5366   3.752   0.454   5.074  1.4614 -0.8039 -2.5442
   57CHL1  H19C 5367   3.833   0.523   4.941 -0.7492  0.1759 -1.1837
   57CHL1    C1 5368   3.677   0.721   5.038  0.4554  0.3812  0.8130
   57CHL1   H1A 5369   3.592   0.652   5.057 -0.0262  0.9895  0.8884
   57CHL1   H1B 5370   3.675   0.817   5.093  1.3508 -0.0640  1.6673
   57CHL1    C2 5371   3.680   0.751   4.887 -0.3021 -0.6563 -0.2407
   57CHL1   H2A 5372   3.583   0.797   4.858 -0.1777 -0.8882 -1.0608
   57CHL1   H2B 5373   3.693   0.659   4.826  1.3591 -0.2399 -0.5591
   57CHL1   C20 5374   3.824   0.517   5.809  0.1198  0.1173  0.3258
   57CHL1   H20 5375   3.866   0.415   5.799  0.0768  0.0879  0.4441
   57CHL1   C21 5376   3.672   0.492   5.804 -0.0364  0.1615 -0.1915
   57CHL1  H21A 5377   3.647   0.421   5.886  0.9862 -1.0649 -0.8965
   57CHL1  H21B 5378   3.651   0.437   5.709  0.3956  1.0382 -0.8066
   57CHL1  H21C 5379   3.611   0.584   5.816  1.6118  0.9674  2.9295
   57CHL1   C22 5380   3.856   0.582   5.943 -0.4134 -0.3607  0.5397
   57CHL1  H22A 5381   3.967   0.588   5.945 -0.3041 -1.5296 -0.7534
   57CHL1  H22B 5382   3.819   0.687   5.939  0.5236  0.0888  2.2637
   57CHL1   C23 5383   3.808   0.529   6.073  0.6370 -0.6983  0.6383
   57CHL1  H23A 5384   3.700   0.557   6.073  0.8775  0.2823  1.0488
   57CHL1  H23B 5385   3.821   0.419   6.079  0.7112 -0.8497 -1.4309
   57CHL1   C24 5386   3.866   0.606   6.190 -0.4190 -0.8533 -0.1998
   57CHL1  H24A 5387   3.973   0.578   6.201  0.3927  2.0527 -0.0512
   57CHL1  H24B 5388   3.852   0.712   6.162  0.8621 -0.6442 -0.0746
   57CHL1   C25 5389   3.805   0.576   6.329 -0.0911 -0.4601  0.1994
   57CHL1   H25 5390   3.695   0.572   6.317 -0.2668  2.9681 -0.1544
   57CHL1   C26 5391   3.864   0.445   6.387 -1.1000 -0.3261  0.3293
   57CHL1  H26A 5392   3.817   0.404   6.478 -0.3194 -1.2740  0.3134
   57CHL1  H26B 5393   3.835   0.364   6.317  0.5501  0.9282 -1.9680
   57CHL1  H26C 5394   3.973   0.465   6.389 -1.0639 -0.0957 -1.5081
   57CHL1   C27 5395   3.831   0.687   6.429 -0.1194  0.1296  0.4504
   57CHL1  H27A 5396   3.940   0.706   6.441 -0.2571  0.6580  0.9002
   57CHL1  H27B 5397   3.791   0.783   6.389  1.2645 -0.4150 -2.5453
   57CHL1  H27C 5398   3.778   0.676   6.526 -0.6806 -0.7568  0.0570
   58CHL1    C3 5399   3.073   6.057   4.722  0.1293 -0.4352  0.5566
   58CHL1    H3 5400   3.017   6.152   4.707  0.2142 -0.3194  0.9535
   58CHL1    O3 5401   3.096   5.995   4.597  0.1867 -0.0888 -1.1404
   58CHL1   H3' 5402   3.179   5.950   4.610 -1.1609 -1.7260  4.1224
   58CHL1    C4 5403   3.215   6.080   4.786 -0.8130  0.5033  0.0017
   58CHL1   H4A 5404   3.269   5.985   4.770  0.4521  1.2250 -0.1350
   58CHL1   H4B 5405   3.263   6.156   4.720 -1.2103  1.3191  0.6290
   58CHL1    C5 5406   3.200   6.121   4.927  1.1424 -0.2085  0.1848
   58CHL1    C6 5407   3.243   6.239   4.961 -0.4659 -0.4019  0.1112
   58CHL1    H6 5408   3.305   6.293   4.888 -1.1159 -1.1760 -1.0446
   58CHL1    C7 5409   3.236   6.290   5.104 -0.5249  0.6605 -0.2189
   58CHL1   H7A 5410   3.335   6.321   5.142 -1.0038  2.6707 -0.4875
   58CHL1   H7B 5411   3.174   6.383   5.098  0.2281  1.1515 -0.5491
   58CHL1    C8 5412   3.185   6.188   5.207  0.0769  0.6462 -0.0484
   58CHL1    H8 5413   3.268   6.116   5.221 -1.4691 -1.1556  0.2666
   58CHL1   C14 5414   3.149   6.246   5.345  0.4369  0.1750  0.1767
   58CHL1   H14 5415   3.047   6.290   5.335 -0.3067 -1.6860 -1.0395
   58CHL1   C15 5416   3.234   6.357   5.418  0.4867  0.2352  0.3719
   58CHL1  H15A 5417   3.335   6.318   5.395  0.1259 -0.1362 -0.6484
   58CHL1  H15B 5418   3.218   6.461   5.382 -2.4908 -0.5287 -0.8566
   58CHL1   C16 5419   3.201   6.343   5.570  0.1004  0.4518  0.2707
   58CHL1  H16A 5420   3.294   6.332   5.630  1.5398 -0.8599 -2.0353
   58CHL1  H16B 5421   3.145   6.432   5.605 -0.6497 -0.2227  0.8101
   58CHL1   C17 5422   3.097   6.225   5.583 -0.3685  0.1885  0.2377
   58CHL1   H17 5423   3.004   6.282   5.564  0.0240  0.4886 -0.8658
   58CHL1   C13 5424   3.119   6.139   5.454 -0.4737  0.3534 -0.0230
   58CHL1   C18 5425   3.237   6.049   5.484 -0.6531  0.2709  0.3068
   58CHL1  H18A 5426   3.270   5.987   5.398 -0.5623 -0.8374  1.1185
   58CHL1  H18B 5427   3.325   6.109   5.515 -0.4968  1.3935 -2.0657
   58CHL1  H18C 5428   3.205   5.972   5.558  1.5585  1.4298  2.5787
   58CHL1   C12 5429   3.008   6.050   5.406 -0.0597 -0.1339  0.0092
   58CHL1  H12A 5430   2.982   5.962   5.470 -0.7608 -1.1533 -1.6100
   58CHL1  H12B 5431   2.922   6.120   5.400 -0.6209 -0.7816  0.1885
   58CHL1   C11 5432   3.034   5.989   5.271 -0.0281  0.3565 -0.2768
   58CHL1  H11A 5433   3.108   5.907   5.285  1.0163  1.3521  0.1370
   58CHL1  H11B 5434   2.936   5.946   5.240  1.0629 -1.1355 -1.8804
   58CHL1    C9 5435   3.076   6.093   5.164  0.6351  0.2155 -0.0178
   58CHL1    H9 5436   2.981   6.150   5.160  0.8163  0.4785 -0.6444
   58CHL1   C10 5437   3.105   6.036   5.020 -0.3709  0.3616 -0.1528
   58CHL1   C19 5438   3.185   5.911   5.044  0.0283 -0.0872 -0.0057
   58CHL1  H19A 5439   3.115   5.829   5.072 -0.1445  0.0410 -0.0578
   58CHL1  H19B 5440   3.230   5.873   4.949 -0.6370 -0.9214 -0.0107
   58CHL1  H19C 5441   3.267   5.928   5.116  0.8368  3.2213 -1.5173
   58CHL1    C1 5442   2.976   5.999   4.951  0.2604  0.6877  0.3036
   58CHL1   H1A 5443   2.920   5.922   5.008 -1.1103  0.9821 -0.5999
   58CHL1   H1B 5444   2.920   6.095   4.952  0.3002  0.7174 -0.3323
   58CHL1    C2 5445   2.978   5.960   4.801 -0.2744  0.3077  0.1524
   58CHL1   H2A 5446   2.875   5.962   4.757  0.1484 -1.0775 -0.9958
   58CHL1   H2B 5447   3.015   5.856   4.790 -1.1930 -0.1990  1.6157
   58CHL1   C20 5448   3.081   6.153   5.717  0.4292 -0.3690  0.2119
   58CHL1   H20 5449   3.044   6.051   5.695  0.4090 -0.1607 -0.7871
   58CHL1   C21 5450   2.952   6.214   5.789  0.5381  0.1698  0.1297
   58CHL1  H21A 5451   2.917   6.136   5.860 -1.2451 -0.1531 -1.0433
   58CHL1  H21B 5452   2.879   6.237   5.709  4.1801  0.1801 -3.5540
   58CHL1  H21C 5453   2.980   6.307   5.843  1.3841  0.2291 -0.3908
   58CHL1   C22 5454   3.199   6.146   5.808 -0.6683  0.0694  0.2664
   58CHL1  H22A 5455   3.291   6.130   5.747 -1.1191 -0.0843 -0.3871
   58CHL1  H22B 5456   3.208   6.246   5.857  0.2375 -0.3030  0.9012
   58CHL1   C23 5457   3.177   6.041   5.917 -0.4025  0.7116 -1.0763
   58CHL1  H23A 5458   3.087   6.067   5.976  0.1078 -1.0869  0.5877
   58CHL1  H23B 5459   3.164   5.946   5.860 -1.5877  2.1366 -3.3357
   58CHL1   C24 5460   3.315   6.033   5.991  0.2019 -0.1611 -0.2516
   58CHL1  H24A 5461   3.408   6.029   5.930  1.3993  0.1958  1.4662
   58CHL1  H24B 5462   3.323   6.131   6.043 -2.5649  0.4840 -0.8852
   58CHL1   C25 5463   3.318   5.914   6.101  0.2898  0.2086  0.1179
   58CHL1   H25 5464   3.323   5.821   6.041  1.7823  0.4034 -0.0905
   58CHL1   C26 5465   3.452   5.933   6.175  0.3269 -0.2971 -0.9078
   58CHL1  H26A 5466   3.528   5.945   6.094 -0.1184  2.3980 -0.9976
   58CHL1  H26B 5467   3.454   6.025   6.237 -3.6861  1.0043 -2.4390
   58CHL1  H26C 5468   3.470   5.843   6.238  0.8234 -0.5553 -1.4127
   58CHL1   C27 5469   3.200   5.909   6.204 -0.1942 -0.1556  0.4671
   58CHL1  H27A 5470   3.207   5.985   6.286 -1.4591 -1.6035  2.0115
   58CHL1  H27B 5471   3.101   5.921   6.154  0.2073  0.4465 -0.1958
   58CHL1  H27C 5472   3.205   5.811   6.255 -0.6148 -0.4535 -0.0520
   59CHL1    C3 5473   3.086   0.009   4.834 -0.5476  0.3526  0.0414
   59CHL1    H3 5474   3.196  -0.002   4.843 -0.8320 -1.6494  2.3355
   59CHL1    O3 5475   3.051  -0.015   4.698  0.0413 -0.2814  0.0192
   59CHL1   H3' 5476   2.957   0.003   4.699  0.0074 -0.3521 -0.8255
   59CHL1    C4 5477   3.019  -0.101   4.913 -0.0538  0.0437  0.1823
   59CHL1   H4A 5478   2.911  -0.097   4.888  0.2162 -0.1280 -1.0738
   59CHL1   H4B 5479   3.057  -0.197   4.872  3.3227  1.0894  0.5365
   59CHL1    C5 5480   3.027  -0.089   5.066  0.0203 -0.2335 -0.2618
   59CHL1    C6 5481   3.072  -0.192   5.143 -0.3916  0.5591 -0.0337
   59CHL1    H6 5482   3.089  -0.295   5.109 -0.6752 -0.1280  1.7871
   59CHL1    C7 5483   3.078  -0.176   5.292  0.0910  0.1882  0.3253
   59CHL1   H7A 5484   3.037  -0.260   5.351  0.0084 -1.1328 -1.5114
   59CHL1   H7B 5485   3.184  -0.167   5.324  0.7778 -1.7377 -1.1845
   59CHL1    C8 5486   3.014  -0.046   5.350  0.0013  0.3445  0.3338
   59CHL1    H8 5487   2.908  -0.080   5.358  0.5554 -2.5435 -2.8097
   59CHL1   C14 5488   3.066  -0.008   5.488 -0.1775  0.0103  0.1434
   59CHL1   H14 5489   3.174   0.012   5.468 -0.0539 -2.1631 -1.8917
   59CHL1   C15 5490   3.066  -0.128   5.589 -0.1364  0.3218  0.0907
   59CHL1  H15A 5491   2.963  -0.170   5.597 -0.0505  0.3192  1.3613
   59CHL1  H15B 5492   3.145  -0.202   5.565 -2.7159 -2.7846  0.4507
   59CHL1   C16 5493   3.095  -0.067   5.722 -0.7367 -0.7804  0.2673
   59CHL1  H16A 5494   3.016  -0.107   5.789 -0.6990 -2.1030 -0.4587
   59CHL1  H16B 5495   3.196  -0.095   5.757 -1.3121 -1.4589  1.4216
   59CHL1   C17 5496   3.091   0.089   5.701  0.7929  0.5235 -0.4776
   59CHL1   H17 5497   3.197   0.118   5.688  0.5776  1.5605 -0.0032
   59CHL1   C13 5498   3.011   0.108   5.561  1.0335  0.4915  0.2214
   59CHL1   C18 5499   2.860   0.084   5.582 -0.7166  0.3855  0.1040
   59CHL1  H18A 5500   2.834  -0.010   5.636 -2.4848  1.0558  0.5148
   59CHL1  H18B 5501   2.826   0.168   5.646 -0.4055 -0.0206  0.8109
   59CHL1  H18C 5502   2.796   0.090   5.491  0.5603  1.3149 -0.7607
   59CHL1   C12 5503   3.039   0.228   5.471 -0.6934 -0.3948 -0.3053
   59CHL1  H12A 5504   2.993   0.317   5.519 -0.0874 -0.3992  0.2898
   59CHL1  H12B 5505   3.148   0.244   5.458 -1.0832  1.1369 -2.1652
   59CHL1   C11 5506   2.983   0.203   5.325 -0.6107  0.5136 -0.0773
   59CHL1  H11A 5507   2.873   0.213   5.331 -0.5322  0.6675  1.4472
   59CHL1  H11B 5508   3.009   0.290   5.261  0.9233 -0.0068 -0.1999
   59CHL1    C9 5509   3.034   0.073   5.258 -0.1782  0.2155 -0.5974
   59CHL1    H9 5510   3.143   0.092   5.249 -0.5968  1.8595 -3.5699
   59CHL1   C10 5511   2.985   0.056   5.114 -0.7324  0.1956  0.6102
   59CHL1   C19 5512   2.832   0.077   5.108 -0.1377 -0.3499 -0.0272
   59CHL1  H19A 5513   2.788   0.056   5.008  1.6178  0.7270 -1.1001
   59CHL1  H19B 5514   2.784   0.013   5.184  0.4509  0.2460  0.8703
   59CHL1  H19C 5515   2.815   0.184   5.133 -0.1550 -0.6267  1.2064
   59CHL1    C1 5516   3.057   0.168   5.022 -0.1194  0.9733  0.1498
   59CHL1   H1A 5517   3.026   0.273   5.044 -1.6583  1.0087 -1.8496
   59CHL1   H1B 5518   3.166   0.155   5.037  0.1380  2.5336 -0.1463
   59CHL1    C2 5519   3.032   0.146   4.874 -0.5180 -0.3753 -0.0100
   59CHL1   H2A 5520   3.081   0.220   4.806 -0.8070 -1.2214 -1.1785
   59CHL1   H2B 5521   2.925   0.156   4.847 -0.8846 -2.0418  0.7199
   59CHL1   C20 5522   3.040   0.154   5.826 -0.1915 -0.3377 -0.1526
   59CHL1   H20 5523   2.932   0.138   5.843 -0.0572 -0.2032  0.8695
   59CHL1   C21 5524   3.046   0.311   5.815  0.0401  0.9114  0.0656
   59CHL1  H21A 5525   3.150   0.326   5.778 -0.4575  1.8688 -1.0168
   59CHL1  H21B 5526   3.034   0.349   5.919 -0.7228 -0.1605  0.3913
   59CHL1  H21C 5527   2.970   0.359   5.750  0.8183  1.3162 -0.5667
   59CHL1   C22 5528   3.124   0.105   5.944 -0.1868 -0.4571  0.2435
   59CHL1  H22A 5529   3.064   0.137   6.032  0.3474  1.9321 -0.1838
   59CHL1  H22B 5530   3.138  -0.005   5.945 -2.4049 -0.8315 -1.6151
   59CHL1   C23 5531   3.265   0.164   5.957 -0.3517 -0.3375 -0.2671
   59CHL1  H23A 5532   3.338   0.133   5.880  1.4450 -0.4175  1.3897
   59CHL1  H23B 5533   3.255   0.274   5.952 -1.4915 -0.3580  0.9274
   59CHL1   C24 5534   3.328   0.118   6.088 -0.2583 -0.1811 -0.1005
   59CHL1  H24A 5535   3.247   0.095   6.160  0.4841 -1.2533  0.4159
   59CHL1  H24B 5536   3.373   0.016   6.089  3.0621  1.1378  0.7147
   59CHL1   C25 5537   3.431   0.215   6.145 -0.0770 -0.6380 -0.7908
   59CHL1   H25 5538   3.500   0.243   6.062 -0.8735  0.8482 -0.9718
   59CHL1   C26 5539   3.366   0.342   6.201 -0.1426  0.8457 -0.4465
   59CHL1  H26A 5540   3.434   0.410   6.256 -2.4512  1.4260  1.8917
   59CHL1  H26B 5541   3.322   0.408   6.123  0.6009 -0.6721 -2.2209
   59CHL1  H26C 5542   3.291   0.309   6.275  1.2806 -1.4394  0.0870
   59CHL1   C27 5543   3.516   0.154   6.253 -0.2116  0.1413  0.2607
   59CHL1  H27A 5544   3.473   0.125   6.351 -0.5212 -1.7625 -0.3999
   59CHL1  H27B 5545   3.565   0.059   6.223  1.6491  0.2149  2.7460
   59CHL1  H27C 5546   3.595   0.229   6.276 -0.6891  0.6266  0.3340
   60CHL1    C3 5547   2.029   5.122   4.828 -0.4305 -0.4059  0.3778
   60CHL1    H3 5548   1.954   5.041   4.833 -1.4332  0.3523 -1.4834
   60CHL1    O3 5549   2.088   5.135   4.703 -0.2307  0.4836  0.4274
   60CHL1   H3' 5550   2.105   5.229   4.691  0.2237  0.6020  1.8529
   60CHL1    C4 5551   1.951   5.248   4.860  0.7261  0.1751  0.0862
   60CHL1   H4A 5552   2.011   5.342   4.860 -1.0341  1.3437  0.5530
   60CHL1   H4B 5553   1.875   5.271   4.783  1.9378  2.5429 -0.5035
   60CHL1    C5 5554   1.888   5.229   5.000  0.1930  1.0545  0.1603
   60CHL1    C6 5555   1.759   5.243   5.018  0.0948 -0.0922  0.4150
   60CHL1    H6 5556   1.689   5.261   4.934  0.4298  1.1817  0.3843
   60CHL1    C7 5557   1.683   5.208   5.149 -0.3251 -0.3826 -0.0507
   60CHL1   H7A 5558   1.604   5.280   5.180 -0.6222 -1.1837  1.1142
   60CHL1   H7B 5559   1.627   5.116   5.122 -2.5416  0.8067  0.2726
   60CHL1    C8 5560   1.780   5.177   5.266  0.2977  0.4714 -0.4217
   60CHL1    H8 5561   1.808   5.276   5.308 -0.1359  0.7986 -0.8923
   60CHL1   C14 5562   1.710   5.101   5.370  0.1166 -0.1831 -0.3258
   60CHL1   H14 5563   1.690   5.005   5.317  3.8062 -1.2170 -0.0964
   60CHL1   C15 5564   1.565   5.135   5.402 -0.5737 -1.0715  0.0060
   60CHL1  H15A 5565   1.554   5.240   5.437  1.6418 -0.4740 -0.9166
   60CHL1  H15B 5566   1.487   5.117   5.325 -0.5477 -2.3044  0.2508
   60CHL1   C16 5567   1.539   5.053   5.524  0.1316 -0.8625  0.8099
   60CHL1  H16A 5568   1.511   5.120   5.607  0.6359 -1.4538  1.4683
   60CHL1  H16B 5569   1.458   4.983   5.497 -0.2773  0.2520 -1.0246
   60CHL1   C17 5570   1.663   4.979   5.562 -0.1093 -0.4563 -0.7181
   60CHL1   H17 5571   1.665   4.884   5.505  2.5492  0.1158 -1.7123
   60CHL1   C13 5572   1.784   5.054   5.490  0.5302 -0.5861  0.4838
   60CHL1   C18 5573   1.820   5.172   5.580  0.4713  0.0081  0.1131
   60CHL1  H18A 5574   1.887   5.234   5.517 -1.2021  1.7364 -0.0516
   60CHL1  H18B 5575   1.729   5.231   5.604  1.1931  1.3071 -0.2618
   60CHL1  H18C 5576   1.868   5.137   5.674 -1.7516 -0.8165  1.0280
   60CHL1   C12 5577   1.908   4.968   5.445  0.1882 -0.4127  0.3327
   60CHL1  H12A 5578   1.974   4.955   5.533  0.5667  0.6024  0.2119
   60CHL1  H12B 5579   1.871   4.873   5.400 -0.4492  0.5783 -1.3255
   60CHL1   C11 5580   1.981   5.042   5.340 -0.4241 -0.6534 -0.2502
   60CHL1  H11A 5581   2.022   5.133   5.389 -0.7452  0.0817 -1.3255
   60CHL1  H11B 5582   2.070   4.986   5.307  1.6261  1.6340  1.0253
   60CHL1    C9 5583   1.905   5.097   5.220  0.5823 -0.8196  0.5983
   60CHL1    H9 5584   1.859   5.006   5.177  1.9896 -0.7621 -1.1569
   60CHL1   C10 5585   1.990   5.170   5.111 -1.3040 -0.3138 -0.7766
   60CHL1   C19 5586   2.068   5.293   5.181 -0.1875  0.3414 -0.4303
   60CHL1  H19A 5587   2.129   5.338   5.100  0.7803 -0.9419 -0.4460
   60CHL1  H19B 5588   2.000   5.375   5.212  1.3110  1.0143  1.2039
   60CHL1  H19C 5589   2.139   5.244   5.251 -0.1251 -1.5479 -1.7441
   60CHL1    C1 5590   2.092   5.067   5.058 -0.2548  0.3035  0.4598
   60CHL1   H1A 5591   2.180   5.063   5.125  0.7655 -1.6480 -0.9142
   60CHL1   H1B 5592   2.030   4.975   5.054  0.8280 -0.4048 -0.7347
   60CHL1    C2 5593   2.147   5.098   4.927  0.0266  0.9978 -0.7089
   60CHL1   H2A 5594   2.214   5.017   4.888  0.5097  1.0483  0.0106
   60CHL1   H2B 5595   2.199   5.195   4.940  0.1803  0.6665  1.4310
   60CHL1   C20 5596   1.664   4.941   5.703 -0.3176  0.1409 -0.4261
   60CHL1   H20 5597   1.665   5.026   5.774 -0.4449 -1.6467  1.8233
   60CHL1   C21 5598   1.786   4.863   5.735  0.0636 -1.0940 -1.0486
   60CHL1  H21A 5599   1.786   4.814   5.835  1.7320 -1.2641 -1.1041
   60CHL1  H21B 5600   1.871   4.933   5.725  1.2737 -1.9278  2.2412
   60CHL1  H21C 5601   1.790   4.771   5.673 -1.6252 -0.7505 -1.7276
   60CHL1   C22 5602   1.535   4.861   5.749  0.0391  0.4951  0.3191
   60CHL1  H22A 5603   1.442   4.919   5.731  0.8090  0.9896 -2.5232
   60CHL1  H22B 5604   1.527   4.765   5.694 -0.9792 -0.4871  2.0921
   60CHL1   C23 5605   1.523   4.826   5.904 -1.1362 -0.1593 -0.4982
   60CHL1  H23A 5606   1.594   4.743   5.923 -1.0359  0.1149  0.3392
   60CHL1  H23B 5607   1.545   4.915   5.966  1.1237 -1.8973  1.3904
   60CHL1   C24 5608   1.386   4.777   5.944  0.4625 -0.4251 -0.1419
   60CHL1  H24A 5609   1.315   4.858   5.919 -1.2675 -2.0699 -0.7567
   60CHL1  H24B 5610   1.354   4.690   5.884 -0.7656  0.5428 -0.9428
   60CHL1   C25 5611   1.371   4.729   6.096  0.1513 -0.2881 -0.2822
   60CHL1   H25 5612   1.387   4.816   6.163  2.4714  0.2321 -1.3908
   60CHL1   C26 5613   1.226   4.675   6.115 -0.4197  0.0387  0.1028
   60CHL1  H26A 5614   1.208   4.578   6.064 -0.0780 -0.0466  0.1398
   60CHL1  H26B 5615   1.206   4.666   6.224  1.0224 -0.4125  0.3648
   60CHL1  H26C 5616   1.161   4.748   6.063 -0.9389  0.6994  1.6064
   60CHL1   C27 5617   1.479   4.632   6.150  0.2423 -0.0460 -0.7071
   60CHL1  H27A 5618   1.434   4.598   6.245  0.5868  1.7650  0.1464
   60CHL1  H27B 5619   1.504   4.536   6.099  4.2153  0.5188 -0.1499
   60CHL1  H27C 5620   1.582   4.669   6.168 -0.2643  1.1623 -0.2024
   61CHL1    C3 5621   1.601   3.421   5.278  0.3052 -0.3573 -0.4896
   61CHL1    H3 5622   1.560   3.512   5.325 -2.8887 -2.8964  2.0979
   61CHL1    O3 5623   1.555   3.427   5.148  1.1362 -0.3679 -0.3120
   61CHL1   H3' 5624   1.502   3.348   5.138 -0.1244  0.3121  0.6590
   61CHL1    C4 5625   1.752   3.421   5.281 -0.8396 -0.2873  0.6832
   61CHL1   H4A 5626   1.787   3.331   5.226  0.0085  1.6560 -2.2014
   61CHL1   H4B 5627   1.794   3.509   5.227 -0.4799 -1.4477 -1.0052
   61CHL1    C5 5628   1.802   3.388   5.419 -0.5083 -0.3499 -0.2873
   61CHL1    C6 5629   1.895   3.472   5.473  0.0579 -0.1470  0.2344
   61CHL1    H6 5630   1.928   3.556   5.409 -1.4218  0.7914  0.6626
   61CHL1    C7 5631   1.970   3.445   5.600 -0.0119 -0.2038 -0.1967
   61CHL1   H7A 5632   2.080   3.441   5.586 -0.0250 -1.8274  0.0178
   61CHL1   H7B 5633   1.951   3.532   5.667  0.9941  1.8659 -2.4619
   61CHL1    C8 5634   1.944   3.311   5.671 -0.0185  0.5406  0.0493
   61CHL1    H8 5635   2.001   3.228   5.625 -0.4536  0.1041  0.2828
   61CHL1   C14 5636   1.972   3.308   5.818  0.2334 -0.0527 -0.5288
   61CHL1   H14 5637   1.895   3.371   5.868 -0.6739 -0.4575 -1.3842
   61CHL1   C15 5638   2.108   3.367   5.862 -0.2089  0.1972 -0.1734
   61CHL1  H15A 5639   2.181   3.313   5.798 -0.4554 -2.6350  1.7996
   61CHL1  H15B 5640   2.108   3.478   5.855 -0.3376  0.2944  1.1533
   61CHL1   C16 5641   2.115   3.329   6.010 -0.2630 -0.6861 -0.6024
   61CHL1  H16A 5642   2.217   3.297   6.039  0.0879  1.0669  0.2272
   61CHL1  H16B 5643   2.095   3.415   6.078  1.6917  0.5439 -1.4783
   61CHL1   C17 5644   2.003   3.221   6.031 -0.3906 -0.7491 -0.2084
   61CHL1   H17 5645   1.913   3.277   6.066  0.4605  0.3222  0.3567
   61CHL1   C13 5646   1.948   3.180   5.893 -0.5594 -0.5091  0.0227
   61CHL1   C18 5647   2.046   3.065   5.856  0.5925 -0.1876  0.7039
   61CHL1  H18A 5648   2.030   2.973   5.915  1.3931  1.2928  3.3946
   61CHL1  H18B 5649   2.042   3.026   5.752  2.5604 -1.4976  1.0627
   61CHL1  H18C 5650   2.151   3.099   5.872 -0.2622  2.3512  1.4904
   61CHL1   C12 5651   1.804   3.153   5.878  0.7915 -0.4309  0.2820
   61CHL1  H12A 5652   1.783   3.054   5.925 -2.2664 -0.7061 -1.3729
   61CHL1  H12B 5653   1.742   3.226   5.934  1.0444 -0.1214  0.1565
   61CHL1   C11 5654   1.753   3.143   5.734 -0.3894 -0.1197  0.2874
   61CHL1  H11A 5655   1.799   3.055   5.685  0.1230  0.0180  0.5120
   61CHL1  H11B 5656   1.643   3.127   5.731 -0.4529  0.1457 -3.4893
   61CHL1    C9 5657   1.793   3.268   5.648 -0.5990  0.0679 -0.3436
   61CHL1    H9 5658   1.730   3.343   5.699  0.6398  0.9606 -0.0793
   61CHL1   C10 5659   1.736   3.276   5.505 -0.0010  0.0948  0.2510
   61CHL1   C19 5660   1.790   3.150   5.435  0.1217  0.4506  0.2063
   61CHL1  H19A 5661   1.897   3.142   5.465  0.6913  1.0776 -1.5200
   61CHL1  H19B 5662   1.747   3.055   5.474 -0.5810  1.2588  1.4943
   61CHL1  H19C 5663   1.782   3.145   5.324  0.1477 -2.2050  0.2664
   61CHL1    C1 5664   1.581   3.277   5.492  0.6641  0.5384 -0.5713
   61CHL1   H1A 5665   1.544   3.183   5.538  0.8019  0.9349  0.3802
   61CHL1   H1B 5666   1.547   3.358   5.560 -0.4183  0.0901 -0.5677
   61CHL1    C2 5667   1.536   3.294   5.344  0.0149 -0.4700  0.3139
   61CHL1   H2A 5668   1.428   3.298   5.318  0.2435  0.0273 -0.6352
   61CHL1   H2B 5669   1.572   3.207   5.286  1.1732  0.1451  0.0728
   61CHL1   C20 5670   2.029   3.109   6.140  0.0252  0.1777 -0.3830
   61CHL1   H20 5671   1.974   3.016   6.114  3.6693 -2.0288 -0.7675
   61CHL1   C21 5672   1.961   3.152   6.278  0.0070  0.2831 -0.4234
   61CHL1  H21A 5673   2.003   3.250   6.312 -1.9515  1.9887 -2.6190
   61CHL1  H21B 5674   1.981   3.075   6.356 -0.9274  0.5168  0.0651
   61CHL1  H21C 5675   1.851   3.166   6.268 -0.1318  2.9135  2.9750
   61CHL1   C22 5676   2.173   3.053   6.166 -0.2124  0.1734 -0.1020
   61CHL1  H22A 5677   2.228   3.069   6.071  0.5206 -0.2013  0.2508
   61CHL1  H22B 5678   2.226   3.118   6.240  1.9508  0.3701 -1.7359
   61CHL1   C23 5679   2.188   2.915   6.224 -0.5968  0.8173  0.4070
   61CHL1  H23A 5680   2.170   2.932   6.333  0.3358  0.3349  0.6552
   61CHL1  H23B 5681   2.121   2.836   6.183 -1.6430  2.3381 -0.9332
   61CHL1   C24 5682   2.323   2.850   6.198 -0.5556 -0.1539 -0.1662
   61CHL1  H24A 5683   2.343   2.855   6.089 -1.2156 -1.6019 -0.3708
   61CHL1  H24B 5684   2.403   2.901   6.256  1.4870 -1.4203 -1.7388
   61CHL1   C25 5685   2.328   2.700   6.224 -0.2676  0.0755 -0.9352
   61CHL1   H25 5686   2.247   2.646   6.170 -0.6384  0.1531 -0.4739
   61CHL1   C26 5687   2.454   2.628   6.181  0.2205  0.0569 -0.1566
   61CHL1  H26A 5688   2.442   2.518   6.186  0.7755  0.0524  1.9550
   61CHL1  H26B 5689   2.464   2.654   6.073 -4.6675  1.2990 -0.5842
   61CHL1  H26C 5690   2.542   2.669   6.234  0.8239  2.3044 -2.6642
   61CHL1   C27 5691   2.301   2.674   6.377  0.4540 -0.2623  0.1599
   61CHL1  H27A 5692   2.381   2.722   6.438  0.7465  1.0019 -1.1611
   61CHL1  H27B 5693   2.205   2.725   6.398  1.3522  1.2082  0.9259
   61CHL1  H27C 5694   2.290   2.566   6.397  0.3347 -0.7372 -2.2643
   62CHL1    C3 5695   3.305   0.860   5.052 -0.2099 -0.5625  0.1974
   62CHL1    H3 5696   3.406   0.815   5.067 -0.8338 -2.3794 -0.7817
   62CHL1    O3 5697   3.284   0.874   4.910  0.2579 -0.2006  0.7237
   62CHL1   H3' 5698   3.208   0.930   4.892  0.4929 -0.0354  0.2007
   62CHL1    C4 5699   3.202   0.762   5.117  0.0195 -0.3882 -1.1517
   62CHL1   H4A 5700   3.098   0.801   5.109 -1.2961 -2.4933  3.1069
   62CHL1   H4B 5701   3.208   0.663   5.068 -2.6888  0.0759 -2.6350
   62CHL1    C5 5702   3.233   0.747   5.266 -0.6283  0.1267  0.0439
   62CHL1    C6 5703   3.255   0.619   5.311 -0.1585 -0.3043 -0.1009
   62CHL1    H6 5704   3.246   0.539   5.235 -0.7069  1.5284 -2.0677
   62CHL1    C7 5705   3.288   0.587   5.453  0.3870  0.1972 -0.3323
   62CHL1   H7A 5706   3.222   0.502   5.481 -0.2042  1.4017  2.2744
   62CHL1   H7B 5707   3.396   0.561   5.461  0.4235  0.1963 -0.7928
   62CHL1    C8 5708   3.246   0.706   5.542  0.3113  0.2316 -0.5501
   62CHL1    H8 5709   3.136   0.706   5.552  0.3179 -2.3634  0.1639
   62CHL1   C14 5710   3.312   0.680   5.680  0.6496  0.2125 -0.2244
   62CHL1   H14 5711   3.423   0.679   5.672  0.6676  1.0587 -0.0974
   62CHL1   C15 5712   3.283   0.550   5.746  0.5225 -0.2754 -0.1968
   62CHL1  H15A 5713   3.177   0.528   5.724  0.0453 -1.3642  2.7108
   62CHL1  H15B 5714   3.351   0.468   5.714 -0.4254 -0.1934 -2.6089
   62CHL1   C16 5715   3.315   0.581   5.898  0.6371 -0.8496  0.3391
   62CHL1  H16A 5716   3.218   0.564   5.950 -0.0152  0.3965 -0.4371
   62CHL1  H16B 5717   3.403   0.519   5.925  1.5270 -0.1980 -0.9271
   62CHL1   C17 5718   3.358   0.737   5.904  0.3018 -0.1291  0.1578
   62CHL1   H17 5719   3.464   0.727   5.872 -0.2469 -1.5077 -1.3756
   62CHL1   C13 5720   3.289   0.790   5.780  0.5242 -0.6961 -0.4301
   62CHL1   C18 5721   3.137   0.805   5.800 -0.4437 -0.4615  0.7128
   62CHL1  H18A 5722   3.080   0.718   5.841 -1.4633  0.9829  2.5160
   62CHL1  H18B 5723   3.122   0.888   5.871  1.8661  0.7889 -0.1660
   62CHL1  H18C 5724   3.086   0.825   5.703 -1.0929 -3.6305  0.2908
   62CHL1   C12 5725   3.356   0.916   5.721 -0.4198 -0.2068  0.3112
   62CHL1  H12A 5726   3.361   0.995   5.799 -1.4341  1.6265 -1.3670
   62CHL1  H12B 5727   3.461   0.884   5.707 -0.1237  1.0792 -0.6038
   62CHL1   C11 5728   3.290   0.955   5.592 -0.3258  0.4002  0.2303
   62CHL1  H11A 5729   3.183   0.982   5.603 -0.2231  0.3141  1.7036
   62CHL1  H11B 5730   3.344   1.043   5.550 -1.4365  1.6702  1.3572
   62CHL1    C9 5731   3.296   0.840   5.491  0.5987 -0.4396  0.0099
   62CHL1    H9 5732   3.404   0.817   5.476  1.1147  1.4366  0.5190
   62CHL1   C10 5733   3.233   0.874   5.350 -0.7048 -0.1741  0.0744
   62CHL1   C19 5734   3.091   0.942   5.371  0.1728 -0.5908  0.3093
   62CHL1  H19A 5735   3.109   1.037   5.427  1.4040 -1.1478  0.9083
   62CHL1  H19B 5736   3.041   0.960   5.273 -1.6702 -2.2445  0.8844
   62CHL1  H19C 5737   3.020   0.880   5.430 -0.4850  1.8563  2.2810
   62CHL1    C1 5738   3.325   0.971   5.272 -0.0603  0.3747  0.9004
   62CHL1   H1A 5739   3.313   1.073   5.315  0.0309  1.1861 -0.9170
   62CHL1   H1B 5740   3.429   0.938   5.292  0.0720  0.1543 -0.1165
   62CHL1    C2 5741   3.288   0.995   5.128  0.0642 -0.3000 -0.7394
   62CHL1   H2A 5742   3.349   1.072   5.075  0.7324  1.1186  1.9383
   62CHL1   H2B 5743   3.187   1.038   5.114  0.1145 -0.7679 -3.0581
   62CHL1   C20 5744   3.361   0.807   6.039  0.3758 -0.6611  0.1757
   62CHL1   H20 5745   3.339   0.916   6.029 -0.2046 -0.5129  2.4596
   62CHL1   C21 5746   3.504   0.799   6.092 -0.7202  0.3111  0.2580
   62CHL1  H21A 5747   3.521   0.845   6.191  1.1958 -1.6665  0.9177
   62CHL1  H21B 5748   3.563   0.851   6.014 -0.3708 -1.7350 -0.9235
   62CHL1  H21C 5749   3.537   0.694   6.099 -2.8649 -0.5600 -1.2637
   62CHL1   C22 5750   3.259   0.756   6.137  0.5549  0.6680  0.7270
   62CHL1  H22A 5751   3.162   0.768   6.084  0.1467  0.0275  1.3043
   62CHL1  H22B 5752   3.277   0.649   6.163  1.0777  0.3182 -0.9508
   62CHL1   C23 5753   3.240   0.833   6.267  0.0099 -0.2291 -0.4065
   62CHL1  H23A 5754   3.311   0.791   6.341 -0.3649  1.4598  0.9704
   62CHL1  H23B 5755   3.267   0.934   6.230  1.2792 -0.0661  0.8730
   62CHL1   C24 5756   3.100   0.813   6.323  0.2287 -0.1433 -0.7588
   62CHL1  H24A 5757   3.025   0.838   6.244 -1.0035  1.1222  0.7360
   62CHL1  H24B 5758   3.085   0.708   6.356  5.2470 -1.0061 -0.4666
   62CHL1   C25 5759   3.072   0.903   6.444 -0.1749 -0.1552  0.1240
   62CHL1   H25 5760   3.146   0.871   6.521  0.3329 -0.6205 -0.5409
   62CHL1   C26 5761   3.077   1.046   6.406 -0.2440 -0.6329  0.1824
   62CHL1  H26A 5762   3.038   1.041   6.302 -0.2734  0.8060  0.0961
   62CHL1  H26B 5763   3.019   1.118   6.466 -1.4610 -0.9530 -0.5711
   62CHL1  H26C 5764   3.182   1.083   6.405 -0.1165 -0.9729 -0.8120
   62CHL1   C27 5765   2.929   0.867   6.503 -0.6942 -0.4406  0.5299
   62CHL1  H27A 5766   2.916   0.757   6.504  0.8182 -0.6297  0.7412
   62CHL1  H27B 5767   2.912   0.924   6.597  2.0650  3.0558 -0.8821
   62CHL1  H27C 5768   2.856   0.903   6.426  0.8974 -0.0121 -0.8356
   63CHL1    C3 5769   3.394   2.236   5.121 -0.0126 -0.4998  0.0328
   63CHL1    H3 5770   3.286   2.212   5.108  0.2582 -1.9730  0.2681
   63CHL1    O3 5771   3.453   2.267   4.998 -0.6111  0.2459  0.1970
   63CHL1   H3' 5772   3.432   2.360   4.986  0.9879  0.5299 -0.6843
   63CHL1    C4 5773   3.417   2.355   5.215 -0.6567 -0.3370 -0.6102
   63CHL1   H4A 5774   3.525   2.373   5.231 -0.8569  0.8455 -0.5159
   63CHL1   H4B 5775   3.370   2.445   5.170  0.1053 -0.3297 -1.4297
   63CHL1    C5 5776   3.361   2.329   5.354  0.4000  0.6792 -0.0749
   63CHL1    C6 5777   3.268   2.411   5.404  0.1420  0.7022 -0.2543
   63CHL1    H6 5778   3.235   2.494   5.340  1.4983 -0.0846 -2.0583
   63CHL1    C7 5779   3.197   2.391   5.535  0.2264  0.4530  0.1863
   63CHL1   H7A 5780   3.174   2.486   5.589 -0.0784  0.9084 -0.7307
   63CHL1   H7B 5781   3.096   2.348   5.518  0.6654 -0.2231 -0.7479
   63CHL1    C8 5782   3.279   2.304   5.627  0.2462 -0.4490 -0.7211
   63CHL1    H8 5783   3.370   2.359   5.660 -0.1122  0.1920 -0.7888
   63CHL1   C14 5784   3.197   2.270   5.756 -0.4711 -0.5372  0.4980
   63CHL1   H14 5785   3.106   2.220   5.715 -1.1897  0.2150  1.1537
   63CHL1   C15 5786   3.150   2.385   5.850  0.3463 -0.2090 -0.0601
   63CHL1  H15A 5787   3.240   2.448   5.871  0.7520 -0.4677 -0.9725
   63CHL1  H15B 5788   3.073   2.452   5.805  2.2332  0.4518 -2.5308
   63CHL1   C16 5789   3.114   2.329   5.984  0.5820  0.4211 -0.5317
   63CHL1  H16A 5790   3.175   2.370   6.068 -0.2670 -0.8243  0.7227
   63CHL1  H16B 5791   3.005   2.331   6.002  0.5920 -1.7138 -0.0462
   63CHL1   C17 5792   3.152   2.176   5.973  0.4704 -0.3762  0.3395
   63CHL1   H17 5793   3.058   2.134   5.933  0.2583  1.4532 -1.2545
   63CHL1   C13 5794   3.257   2.174   5.856  0.3156 -0.2165 -0.3265
   63CHL1   C18 5795   3.395   2.232   5.909  0.0609  0.3232 -0.4522
   63CHL1  H18A 5796   3.447   2.162   5.978  0.1653  0.9489  0.1190
   63CHL1  H18B 5797   3.459   2.264   5.825  1.1933  0.1027  0.3084
   63CHL1  H18C 5798   3.381   2.327   5.967  1.7993 -0.4623  1.3753
   63CHL1   C12 5799   3.279   2.048   5.769 -0.4097 -0.1638  0.1469
   63CHL1  H12A 5800   3.334   1.971   5.826 -0.0541 -0.1586 -0.1836
   63CHL1  H12B 5801   3.183   2.016   5.724 -0.6069 -2.2282  1.9010
   63CHL1   C11 5802   3.370   2.072   5.645  0.5951 -0.4882 -0.4854
   63CHL1  H11A 5803   3.471   2.102   5.682  0.7762 -0.4374 -1.0180
   63CHL1  H11B 5804   3.376   1.972   5.596  1.0928  0.0072 -1.4623
   63CHL1    C9 5805   3.320   2.179   5.546 -0.2741  0.4718  0.3571
   63CHL1    H9 5806   3.226   2.141   5.499 -1.1284  1.4116  1.2392
   63CHL1   C10 5807   3.411   2.206   5.430  0.2589 -0.2843 -0.3119
   63CHL1   C19 5808   3.557   2.225   5.473 -0.6191  0.6699 -0.0710
   63CHL1  H19A 5809   3.563   2.316   5.537  1.3114  1.6062 -1.4745
   63CHL1  H19B 5810   3.596   2.145   5.539  0.9744 -2.1143 -4.0042
   63CHL1  H19C 5811   3.619   2.237   5.381 -0.8747 -1.7330 -0.6154
   63CHL1    C1 5812   3.411   2.089   5.328  0.1704 -0.2341 -0.1031
   63CHL1   H1A 5813   3.467   2.002   5.369  1.5703  0.9023  0.5020
   63CHL1   H1B 5814   3.306   2.056   5.320 -0.6090  2.2243 -1.2117
   63CHL1    C2 5815   3.459   2.109   5.177  0.1647 -0.2912 -0.0729
   63CHL1   H2A 5816   3.427   2.026   5.110  1.0090 -2.1825  1.7823
   63CHL1   H2B 5817   3.569   2.109   5.187  0.2721 -0.7574 -1.0787
   63CHL1   C20 5818   3.186   2.131   6.111 -0.2225 -0.4579 -0.4528
   63CHL1   H20 5819   3.279   2.185   6.140 -1.7176  1.4513  1.0572
   63CHL1   C21 5820   3.218   1.980   6.103 -0.3388  0.7571 -0.5683
   63CHL1  H21A 5821   3.122   1.926   6.095 -1.3014  2.1190  1.0904
   63CHL1  H21B 5822   3.268   1.945   6.195 -0.7162  1.7274  0.0245
   63CHL1  H21C 5823   3.282   1.961   6.014  1.5084  1.7228  0.4710
   63CHL1   C22 5824   3.079   2.158   6.224  0.2225  0.1209 -0.0409
   63CHL1  H22A 5825   3.070   2.268   6.237 -1.0956  0.0402 -0.0961
   63CHL1  H22B 5826   2.983   2.111   6.193  0.6155 -0.5104 -0.3273
   63CHL1   C23 5827   3.108   2.078   6.354  0.7439  0.3181  0.3138
   63CHL1  H23A 5828   3.105   1.969   6.333  0.7952  0.2236  0.7810
   63CHL1  H23B 5829   3.209   2.099   6.396  1.0609 -1.1636  0.3405
   63CHL1   C24 5830   3.003   2.104   6.458  0.4004 -0.2195 -0.3216
   63CHL1  H24A 5831   3.012   2.208   6.495  1.3665 -0.7572  1.0852
   63CHL1  H24B 5832   2.901   2.097   6.416 -0.4649  0.2854  1.5913
   63CHL1   C25 5833   3.005   2.015   6.582  0.2134  0.2173  0.1845
   63CHL1   H25 5834   2.975   1.916   6.543 -2.4252  1.9572 -2.6389
   63CHL1   C26 5835   3.138   2.019   6.662 -0.5750  0.0470 -0.3284
   63CHL1  H26A 5836   3.115   1.948   6.744  3.6704 -1.8914 -0.5644
   63CHL1  H26B 5837   3.220   1.982   6.597  0.7511  1.7747  0.2825
   63CHL1  H26C 5838   3.156   2.115   6.715  0.1876 -2.3764  4.3692
   63CHL1   C27 5839   2.887   2.056   6.676 -0.1706  0.7330  0.3985
   63CHL1  H27A 5840   2.794   2.057   6.616  0.0476 -0.2159  0.0409
   63CHL1  H27B 5841   2.882   1.996   6.769  0.4619 -2.5911 -1.5491
   63CHL1  H27C 5842   2.905   2.157   6.719 -1.9720  1.0506  0.4833
   64CHL1    C3 5843   5.628   0.475   4.897 -0.2393  0.2151  0.1481
   64CHL1    H3 5844   5.722   0.419   4.880 -0.2940  0.6158 -1.6566
   64CHL1    O3 5845   5.569   0.501   4.776 -0.7016 -0.2229  0.2580
   64CHL1   H3' 5846   5.475   0.507   4.794 -0.3793  0.8706  1.7888
   64CHL1    C4 5847   5.527   0.393   4.982  0.3326 -0.6019 -0.1265
   64CHL1   H4A 5848   5.427   0.441   4.975 -0.3243 -1.4323  2.4512
   64CHL1   H4B 5849   5.526   0.297   4.926  0.0634 -0.1384 -0.9301
   64CHL1    C5 5850   5.567   0.381   5.127 -0.4972 -0.0501 -0.8337
   64CHL1    C6 5851   5.575   0.262   5.186  0.5447  0.3592 -0.5651
   64CHL1    H6 5852   5.546   0.171   5.132  1.2887  0.2750 -0.8371
   64CHL1    C7 5853   5.634   0.233   5.325  0.7835 -0.6920  0.8331
   64CHL1   H7A 5854   5.592   0.149   5.385 -2.7576  0.2502 -0.1220
   64CHL1   H7B 5855   5.743   0.216   5.309  0.9617  2.4557 -2.8807
   64CHL1    C8 5856   5.637   0.357   5.412 -0.1496  0.1395 -0.4685
   64CHL1    H8 5857   5.532   0.375   5.442 -0.7994 -2.5713 -0.8138
   64CHL1   C14 5858   5.728   0.330   5.535  0.1433 -0.2486  0.1585
   64CHL1   H14 5859   5.833   0.318   5.498 -0.1941 -0.2187 -0.8511
   64CHL1   C15 5860   5.716   0.199   5.616  0.4053  0.8272 -0.2305
   64CHL1  H15A 5861   5.612   0.175   5.646  0.3008  1.8036  0.2410
   64CHL1  H15B 5862   5.759   0.115   5.557 -0.0748 -0.9506  1.8204
   64CHL1   C16 5863   5.791   0.237   5.753  0.2221 -0.1975  0.2086
   64CHL1  H16A 5864   5.728   0.203   5.838 -0.7601 -1.1204 -0.8618
   64CHL1  H16B 5865   5.885   0.179   5.764 -0.6720 -1.8731 -0.6441
   64CHL1   C17 5866   5.824   0.388   5.740 -0.2647 -0.5103 -0.4538
   64CHL1   H17 5867   5.926   0.384   5.696  0.2953 -1.5018  0.8688
   64CHL1   C13 5868   5.734   0.451   5.627  0.3588  0.4229 -0.1367
   64CHL1   C18 5869   5.596   0.478   5.698 -0.0762 -0.6597 -0.4606
   64CHL1  H18A 5870   5.596   0.577   5.748  0.5148 -0.5389 -0.6938
   64CHL1  H18B 5871   5.516   0.483   5.620 -1.8690 -1.0690  1.2671
   64CHL1  H18C 5872   5.564   0.396   5.766 -2.0127  1.0592  0.8045
   64CHL1   C12 5873   5.772   0.571   5.543 -0.0193 -0.4779 -0.1338
   64CHL1  H12A 5874   5.763   0.652   5.619  0.5235 -1.1290  0.6413
   64CHL1  H12B 5875   5.878   0.561   5.510 -0.2681 -1.4605 -0.6673
   64CHL1   C11 5876   5.681   0.605   5.429  0.6706 -0.1809  0.9353
   64CHL1  H11A 5877   5.578   0.625   5.465  0.2402 -0.3588 -0.1695
   64CHL1  H11B 5878   5.714   0.702   5.387  0.5870  0.8508  3.0991
   64CHL1    C9 5879   5.678   0.481   5.331  0.0691 -0.0883 -0.6681
   64CHL1    H9 5880   5.786   0.468   5.306  0.7523  2.1061  0.8563
   64CHL1   C10 5881   5.607   0.512   5.197 -0.7450  0.0338 -0.6663
   64CHL1   C19 5882   5.475   0.594   5.222 -0.5655 -0.4864  0.4774
   64CHL1  H19A 5883   5.412   0.596   5.131  1.2234 -1.2127 -0.8492
   64CHL1  H19B 5884   5.407   0.549   5.297 -2.7295 -2.5216 -2.4526
   64CHL1  H19C 5885   5.508   0.695   5.255 -0.3722 -0.0452 -0.9862
   64CHL1    C1 5886   5.711   0.591   5.107 -0.1696  0.4550 -1.1179
   64CHL1   H1A 5887   5.718   0.695   5.145  1.9749  0.2600 -0.8283
   64CHL1   H1B 5888   5.810   0.540   5.111 -1.0089 -1.1494  0.9130
   64CHL1    C2 5889   5.656   0.609   4.962  0.1371  0.1319  1.2167
   64CHL1   H2A 5890   5.737   0.659   4.904  1.7167 -2.5084  0.9449
   64CHL1   H2B 5891   5.565   0.672   4.966  0.1833  0.8268 -3.1817
   64CHL1   C20 5892   5.840   0.467   5.868  0.4705  0.5954  0.2224
   64CHL1   H20 5893   5.738   0.490   5.906 -0.2239 -1.1613 -0.4894
   64CHL1   C21 5894   5.917   0.601   5.854  0.1116 -0.0527  0.4018
   64CHL1  H21A 5895   5.950   0.652   5.947  1.6624 -0.9483  0.3876
   64CHL1  H21B 5896   5.866   0.674   5.788  0.3582  0.3529  0.6530
   64CHL1  H21C 5897   6.011   0.581   5.799 -1.7886  1.7473 -3.9472
   64CHL1   C22 5898   5.913   0.370   5.972  0.5867 -0.0343  0.1260
   64CHL1  H22A 5899   5.849   0.280   5.985 -0.4484  0.7157  0.4218
   64CHL1  H22B 5900   6.013   0.337   5.939  0.0130 -0.5042 -1.2200
   64CHL1   C23 5901   5.924   0.439   6.109  0.0709  0.0932  0.1269
   64CHL1  H23A 5902   5.992   0.526   6.101  2.7734 -1.9251 -0.3372
   64CHL1  H23B 5903   5.824   0.482   6.130  0.2252  1.6542 -2.0728
   64CHL1   C24 5904   5.971   0.338   6.220 -0.0793 -0.1268 -0.0523
   64CHL1  H24A 5905   5.900   0.253   6.208 -1.6203  0.8934  1.4466
   64CHL1  H24B 5906   6.075   0.311   6.190  0.1877 -0.9039  1.4698
   64CHL1   C25 5907   5.965   0.385   6.363  0.3160 -0.2123  0.1629
   64CHL1   H25 5908   5.857   0.406   6.380  0.6037  0.7492  0.9022
   64CHL1   C26 5909   6.014   0.281   6.460  0.2582 -0.3580  0.3655
   64CHL1  H26A 5910   6.004   0.318   6.564 -1.0814  2.1229 -0.5596
   64CHL1  H26B 5911   5.963   0.182   6.453  0.0407 -0.1487 -1.7648
   64CHL1  H26C 5912   6.119   0.264   6.427  1.4694  2.9411  2.0640
   64CHL1   C27 5913   6.050   0.509   6.399 -0.1909 -0.3163 -0.1290
   64CHL1  H27A 5914   6.017   0.547   6.498 -2.7727  1.5526 -1.5859
   64CHL1  H27B 5915   6.155   0.471   6.402  0.2131  0.3959 -2.7010
   64CHL1  H27C 5916   6.038   0.582   6.316  2.5719  1.4695  0.8983
   65CHL1    C3 5917   5.375   3.924   5.326  0.1247 -1.0432  0.5699
   65CHL1    H3 5918   5.324   3.829   5.299 -0.8827 -0.3282 -0.0922
   65CHL1    O3 5919   5.390   3.987   5.195 -0.1816  0.5678  0.3373
   65CHL1   H3' 5920   5.360   3.919   5.135  1.1898 -0.9016  1.2238
   65CHL1    C4 5921   5.294   4.010   5.423  0.0129  0.0589  0.4227
   65CHL1   H4A 5922   5.361   4.098   5.425 -0.2190  0.3074 -1.3834
   65CHL1   H4B 5923   5.199   4.034   5.371  1.1048 -0.9329 -2.1785
   65CHL1    C5 5924   5.279   3.945   5.560 -0.6280 -0.7558 -0.0333
   65CHL1    C6 5925   5.158   3.920   5.612 -0.8186 -0.5351  0.0789
   65CHL1    H6 5926   5.062   3.944   5.563 -1.1333 -0.5113  0.6948
   65CHL1    C7 5927   5.135   3.842   5.739  0.0249  0.2412 -0.1514
   65CHL1   H7A 5928   5.058   3.895   5.799  2.3597  1.5262  1.9159
   65CHL1   H7B 5929   5.122   3.733   5.723  2.0959 -0.3212  1.4345
   65CHL1    C8 5930   5.265   3.833   5.833 -0.5322  0.3286  0.7263
   65CHL1    H8 5931   5.284   3.939   5.863 -2.3322  1.4532 -1.6898
   65CHL1   C14 5932   5.247   3.748   5.953 -0.8642 -0.3933  0.0223
   65CHL1   H14 5933   5.232   3.651   5.903  1.0706 -0.0138 -1.4299
   65CHL1   C15 5934   5.116   3.759   6.039 -0.2386 -0.0296  0.5561
   65CHL1  H15A 5935   5.102   3.867   6.061  3.5622  0.7502 -0.2072
   65CHL1  H15B 5936   5.031   3.714   5.984 -1.6540  4.2246 -1.1266
   65CHL1   C16 5937   5.150   3.695   6.169  0.1282  0.0735 -0.2003
   65CHL1  H16A 5938   5.136   3.772   6.248 -1.4493  1.4258 -1.7102
   65CHL1  H16B 5939   5.099   3.601   6.197  2.0556 -1.3624 -1.3078
   65CHL1   C17 5940   5.303   3.651   6.159 -0.5122  0.1109 -0.2083
   65CHL1   H17 5941   5.297   3.551   6.111  3.6323 -0.7367  0.6081
   65CHL1   C13 5942   5.370   3.738   6.055  0.3938 -0.1992 -0.0435
   65CHL1   C18 5943   5.404   3.878   6.121 -0.2911 -0.4861 -0.6348
   65CHL1  H18A 5944   5.450   3.943   6.042  1.4261 -0.2446  0.5013
   65CHL1  H18B 5945   5.318   3.934   6.163  0.9984  1.8387 -0.8604
   65CHL1  H18C 5946   5.487   3.874   6.195  0.3895 -0.7716 -1.3983
   65CHL1   C12 5947   5.487   3.678   5.962  0.0064  0.2297  0.4065
   65CHL1  H12A 5948   5.583   3.669   6.018 -0.2296  0.1051  0.7969
   65CHL1  H12B 5949   5.450   3.577   5.935  1.5068 -0.1912 -0.1682
   65CHL1   C11 5950   5.516   3.760   5.830  0.1253 -0.0859 -0.9416
   65CHL1  H11A 5951   5.569   3.853   5.860  1.9294 -1.8171  1.6678
   65CHL1  H11B 5952   5.591   3.695   5.779  0.6885  0.3871 -0.7252
   65CHL1    C9 5953   5.389   3.786   5.748  0.6233  0.0335  0.0451
   65CHL1    H9 5954   5.368   3.687   5.704 -0.5060  1.0787 -1.9197
   65CHL1   C10 5955   5.407   3.882   5.626 -0.9103  0.5639  0.5126
   65CHL1   C19 5956   5.477   4.008   5.674  0.3788 -0.2712 -0.6610
   65CHL1  H19A 5957   5.493   4.089   5.600  0.1208  1.9092  1.5469
   65CHL1  H19B 5958   5.420   4.058   5.755 -0.5980 -1.2201 -0.7408
   65CHL1  H19C 5959   5.581   3.983   5.704  0.9322  1.1458 -1.3080
   65CHL1    C1 5960   5.489   3.801   5.521 -0.1515 -0.2038  1.1179
   65CHL1   H1A 5961   5.586   3.764   5.560  1.1663  0.0759 -1.6001
   65CHL1   H1B 5962   5.424   3.714   5.496 -0.8780  0.9150 -1.2744
   65CHL1    C2 5963   5.515   3.872   5.380  0.1915  0.8706  0.2704
   65CHL1   H2A 5964   5.571   3.805   5.311  2.9328  1.1588  2.0271
   65CHL1   H2B 5965   5.586   3.952   5.411  3.2653 -2.3553  2.3935
   65CHL1   C20 5966   5.375   3.634   6.292  0.8966 -0.4617 -0.2833
   65CHL1   H20 5967   5.362   3.726   6.353 -2.1611 -0.0780 -1.3330
   65CHL1   C21 5968   5.524   3.588   6.276 -0.3928  0.2155  0.1049
   65CHL1  H21A 5969   5.532   3.492   6.221  0.3167  1.5399 -2.3002
   65CHL1  H21B 5970   5.571   3.570   6.375 -1.7283  0.5387  0.8159
   65CHL1  H21C 5971   5.595   3.654   6.221  1.1842  0.0834  1.8957
   65CHL1   C22 5972   5.291   3.529   6.380  0.5691 -0.2432 -0.6213
   65CHL1  H22A 5973   5.187   3.565   6.400 -0.0937 -1.9598 -0.8263
   65CHL1  H22B 5974   5.287   3.423   6.346 -2.7143 -1.0206  1.6916
   65CHL1   C23 5975   5.344   3.528   6.524  0.4132  0.4814 -0.1250
   65CHL1  H23A 5976   5.447   3.487   6.518  0.3988  0.1118  1.6524
   65CHL1  H23B 5977   5.339   3.630   6.568  0.4102  0.6282 -0.4574
   65CHL1   C24 5978   5.251   3.431   6.614  0.1389 -0.6644 -0.4830
   65CHL1  H24A 5979   5.142   3.451   6.620  0.3389  0.5969 -0.7895
   65CHL1  H24B 5980   5.272   3.333   6.566  2.7910  0.6461 -2.2514
   65CHL1   C25 5981   5.309   3.423   6.764 -0.4780  0.4432  0.0907
   65CHL1   H25 5982   5.235   3.360   6.816  0.3657 -0.3758  0.3277
   65CHL1   C26 5983   5.449   3.355   6.783 -0.7465 -0.0290  0.0432
   65CHL1  H26A 5984   5.471   3.258   6.733 -0.5048  0.2826 -0.4615
   65CHL1  H26B 5985   5.526   3.428   6.750  1.0340 -2.1393 -0.6914
   65CHL1  H26C 5986   5.464   3.344   6.893  1.4378 -1.9771 -0.3676
   65CHL1   C27 5987   5.307   3.560   6.838 -0.1699 -0.3681  0.2609
   65CHL1  H27A 5988   5.214   3.619   6.819  1.3861  1.6808 -1.3806
   65CHL1  H27B 5989   5.339   3.562   6.944  1.3176  1.7543 -0.1709
   65CHL1  H27C 5990   5.386   3.625   6.796 -0.5360 -0.5737 -0.7661
   66CHL1    C3 5991   4.146   1.932   4.506 -0.2014  0.0611  0.0207
   66CHL1    H3 5992   4.242   1.879   4.488  1.0936  2.7982 -1.9577
   66CHL1    O3 5993   4.094   1.967   4.379  0.4723 -0.1094 -0.1880
   66CHL1   H3' 5994   4.034   2.037   4.408  2.7371  1.3556  1.3107
   66CHL1    C4 5995   4.047   1.838   4.569  0.2500  0.1553 -0.5394
   66CHL1   H4A 5996   3.952   1.894   4.573  1.5002  2.3791 -0.2365
   66CHL1   H4B 5997   4.049   1.752   4.499  2.1038 -0.0845 -0.2562
   66CHL1    C5 5998   4.082   1.801   4.712  0.7015  0.0771 -0.2777
   66CHL1    C6 5999   4.095   1.675   4.757  0.0079  0.1903  0.3161
   66CHL1    H6 6000   4.080   1.588   4.692 -0.8321 -1.1135  2.1805
   66CHL1    C7 6001   4.113   1.642   4.901 -0.5523 -0.4907 -0.1336
   66CHL1   H7A 6002   4.048   1.559   4.935 -1.2550 -1.0933 -2.7283
   66CHL1   H7B 6003   4.219   1.614   4.923 -0.9160 -0.5751  1.6632
   66CHL1    C8 6004   4.101   1.767   4.995 -0.3990 -0.1708 -0.8775
   66CHL1    H8 6005   3.993   1.791   5.005 -0.3212 -0.6187  1.8055
   66CHL1   C14 6006   4.156   1.738   5.136  0.3310  0.6159 -0.1440
   66CHL1   H14 6007   4.264   1.719   5.122  0.2618  0.4349 -0.4579
   66CHL1   C15 6008   4.096   1.623   5.217 -0.3178  0.3540  0.6838
   66CHL1  H15A 6009   3.985   1.621   5.207 -0.2794  1.1808 -0.0586
   66CHL1  H15B 6010   4.128   1.520   5.189 -0.7962  0.2652  0.4518
   66CHL1   C16 6011   4.142   1.648   5.357  0.3364 -0.2149  0.2017
   66CHL1  H16A 6012   4.056   1.637   5.428 -0.3773  2.6421 -0.0920
   66CHL1  H16B 6013   4.212   1.564   5.374  0.2289 -0.0970  1.3525
   66CHL1   C17 6014   4.206   1.791   5.367  0.0037 -0.5327 -0.1914
   66CHL1   H17 6015   4.313   1.772   5.345 -0.3387 -1.8284 -0.8361
   66CHL1   C13 6016   4.150   1.855   5.237 -0.1370 -0.7085 -0.1066
   66CHL1   C18 6017   4.006   1.912   5.261 -0.1717  0.2521 -0.1627
   66CHL1  H18A 6018   3.939   1.937   5.176 -0.2048  0.6756 -0.0161
   66CHL1  H18B 6019   3.939   1.854   5.329 -1.1832  1.7160  0.1488
   66CHL1  H18C 6020   4.015   2.008   5.317 -1.4525  0.6385 -0.5861
   66CHL1   C12 6021   4.238   1.973   5.184 -0.4186  0.5074  0.9368
   66CHL1  H12A 6022   4.232   2.072   5.236 -0.1999  0.7685  0.4712
   66CHL1  H12B 6023   4.344   1.940   5.179 -0.3117  0.9333  0.2368
   66CHL1   C11 6024   4.186   2.013   5.042 -0.4743 -0.0782 -0.2305
   66CHL1  H11A 6025   4.096   2.072   5.068  1.5277  1.9976  2.7052
   66CHL1  H11B 6026   4.268   2.074   4.997 -0.7590  1.0876  0.7953
   66CHL1    C9 6027   4.165   1.891   4.944 -0.3205 -0.6211  0.3022
   66CHL1    H9 6028   4.272   1.868   4.923 -0.4400  0.7558 -2.2013
   66CHL1   C10 6029   4.108   1.926   4.806  0.2808  0.5024 -0.1767
   66CHL1   C19 6030   3.971   1.998   4.835  0.3743 -0.1295  0.8356
   66CHL1  H19A 6031   3.984   2.094   4.889 -1.7758  0.9535 -0.4432
   66CHL1  H19B 6032   3.931   2.015   4.733  3.0791  0.5018 -0.1994
   66CHL1  H19C 6033   3.903   1.935   4.896 -1.7466 -0.8823 -2.1002
   66CHL1    C1 6034   4.199   2.027   4.737 -0.1867 -0.5645  0.0891
   66CHL1   H1A 6035   4.203   2.126   4.787 -1.1009  0.0364 -0.9757
   66CHL1   H1B 6036   4.303   1.989   4.737 -0.9214 -2.8078 -1.4818
   66CHL1    C2 6037   4.166   2.056   4.589  0.3573  0.6968 -0.9595
   66CHL1   H2A 6038   4.249   2.116   4.545  0.4401 -0.2989 -2.2342
   66CHL1   H2B 6039   4.075   2.119   4.600 -0.3817 -0.6584  1.6724
   66CHL1   C20 6040   4.189   1.858   5.504 -0.0475 -0.6561  0.3523
   66CHL1   H20 6041   4.081   1.883   5.514  0.1786  0.1408  0.9139
   66CHL1   C21 6042   4.252   1.998   5.507 -0.7304  1.0462 -0.4125
   66CHL1  H21A 6043   4.358   2.000   5.474 -0.5523  0.6891  0.1167
   66CHL1  H21B 6044   4.248   2.040   5.610  1.0282 -0.5989  0.3820
   66CHL1  H21C 6045   4.197   2.052   5.428 -2.3578 -0.1430 -0.1358
   66CHL1   C22 6046   4.229   1.776   5.626  0.7254  0.3949  0.1231
   66CHL1  H22A 6047   4.170   1.816   5.712  1.3866  0.0753  0.7406
   66CHL1  H22B 6048   4.200   1.669   5.624  3.3649 -0.4248  1.2729
   66CHL1   C23 6049   4.378   1.767   5.642 -0.3884  0.6523 -0.6177
   66CHL1  H23A 6050   4.423   1.731   5.546  0.1786 -1.7935  0.4829
   66CHL1  H23B 6051   4.421   1.868   5.659  0.2286  0.1556  0.9176
   66CHL1   C24 6052   4.421   1.674   5.759  0.5356  0.7849  0.1895
   66CHL1  H24A 6053   4.380   1.573   5.736  2.0076  0.4261 -0.9653
   66CHL1  H24B 6054   4.532   1.675   5.752  0.4525  2.1661 -1.7283
   66CHL1   C25 6055   4.374   1.725   5.891 -0.0056  0.4838 -1.3342
   66CHL1   H25 6056   4.267   1.755   5.888 -0.5032 -0.7982  1.1291
   66CHL1   C26 6057   4.376   1.610   5.997 -0.2778  0.3523  1.1241
   66CHL1  H26A 6058   4.483   1.581   6.006 -0.4022 -0.6467 -0.2599
   66CHL1  H26B 6059   4.338   1.634   6.099 -0.1089 -1.8422  1.7641
   66CHL1  H26C 6060   4.318   1.526   5.953  0.7358  0.6640 -0.9036
   66CHL1   C27 6061   4.464   1.835   5.957 -0.0787 -0.0280  0.0521
   66CHL1  H27A 6062   4.479   1.921   5.888  1.5144  0.1685  0.6079
   66CHL1  H27B 6063   4.563   1.801   5.992  0.1670  0.1225 -0.4774
   66CHL1  H27C 6064   4.422   1.881   6.049  2.5981  1.3913  0.6461
   67CHL1    C3 6065   4.008   2.888   5.243  1.5871 -0.8490 -0.1511
   67CHL1    H3 6066   4.070   2.797   5.261  0.4907 -1.4328  0.7656
   67CHL1    O3 6067   4.038   2.951   5.117 -0.0820 -0.2263  0.5218
   67CHL1   H3' 6068   4.133   2.956   5.123 -0.0613  0.2375 -0.0467
   67CHL1    C4 6069   3.861   2.832   5.236 -0.3209  0.1357  0.1412
   67CHL1   H4A 6070   3.810   2.917   5.186  1.0169  0.6720 -0.3479
   67CHL1   H4B 6071   3.853   2.744   5.167  0.1132 -0.2740  0.6075
   67CHL1    C5 6072   3.792   2.792   5.372 -0.3244 -0.8001  0.7026
   67CHL1    C6 6073   3.739   2.679   5.394  0.8857 -0.9909 -0.0699
   67CHL1    H6 6074   3.735   2.597   5.321  1.0196 -0.7803 -0.3119
   67CHL1    C7 6075   3.679   2.639   5.523  0.9814  0.0968 -0.5494
   67CHL1   H7A 6076   3.587   2.579   5.505  1.2456 -1.2852  2.1868
   67CHL1   H7B 6077   3.751   2.570   5.574 -0.2943 -1.5630 -0.8945
   67CHL1    C8 6078   3.653   2.763   5.615  0.1632  0.4117  0.6756
   67CHL1    H8 6079   3.559   2.812   5.580 -0.3538 -0.5403  0.6747
   67CHL1   C14 6080   3.629   2.705   5.749 -0.1738 -0.0605 -0.1175
   67CHL1   H14 6081   3.722   2.658   5.788  0.4714  1.3899  0.1851
   67CHL1   C15 6082   3.524   2.600   5.768 -0.3718  0.0968 -0.7428
   67CHL1  H15A 6083   3.435   2.637   5.713 -1.1300  0.5575  0.7263
   67CHL1  H15B 6084   3.543   2.495   5.736  0.6136 -0.6689  2.0649
   67CHL1   C16 6085   3.496   2.600   5.920 -0.1311  0.8215 -0.4985
   67CHL1  H16A 6086   3.388   2.584   5.940 -0.1083  0.9549 -0.2759
   67CHL1  H16B 6087   3.540   2.503   5.954  1.4060  1.1337 -1.4770
   67CHL1   C17 6088   3.571   2.713   5.984  0.2107  0.1593 -0.3403
   67CHL1   H17 6089   3.674   2.680   6.010 -0.4293 -1.4711  0.2370
   67CHL1   C13 6090   3.593   2.805   5.860  0.4397 -0.0279 -0.1953
   67CHL1   C18 6091   3.460   2.878   5.823  0.1169 -0.3651  0.7926
   67CHL1  H18A 6092   3.443   2.912   5.718 -1.9933 -2.9187  0.1913
   67CHL1  H18B 6093   3.372   2.810   5.824  0.1516 -0.4539 -0.3976
   67CHL1  H18C 6094   3.447   2.965   5.890 -0.4192 -0.1438  0.4104
   67CHL1   C12 6095   3.709   2.901   5.867  0.0664  0.2999 -0.1721
   67CHL1  H12A 6096   3.684   2.978   5.944 -0.1034 -1.7201  1.9105
   67CHL1  H12B 6097   3.805   2.862   5.907 -0.9199 -2.0813  0.0120
   67CHL1   C11 6098   3.750   2.969   5.735  0.3896 -0.5430 -0.3807
   67CHL1  H11A 6099   3.662   3.027   5.700  0.7788  1.6236  1.9282
   67CHL1  H11B 6100   3.834   3.039   5.755 -0.0284 -0.2952  0.6198
   67CHL1    C9 6101   3.772   2.861   5.626 -0.1659  0.5514  0.1476
   67CHL1    H9 6102   3.858   2.797   5.658  2.1802  3.1565 -0.5143
   67CHL1   C10 6103   3.817   2.900   5.481  0.5127 -0.1433  0.1966
   67CHL1   C19 6104   3.725   3.015   5.449 -0.2302 -0.4827 -0.5201
   67CHL1  H19A 6105   3.757   3.051   5.349 -0.7954  0.1259 -0.4879
   67CHL1  H19B 6106   3.618   2.985   5.445  0.1583 -2.5383  2.1882
   67CHL1  H19C 6107   3.737   3.102   5.518 -1.6546  0.5602 -1.5087
   67CHL1    C1 6108   3.970   2.944   5.484 -0.3917  0.1349  0.4043
   67CHL1   H1A 6109   3.973   3.022   5.563 -2.2322 -0.7430  1.4299
   67CHL1   H1B 6110   4.026   2.854   5.516 -0.7562 -0.3709 -0.3559
   67CHL1    C2 6111   4.024   2.999   5.348  0.5861  0.3641 -0.5724
   67CHL1   H2A 6112   4.132   3.018   5.364  0.9662 -2.3662  0.8601
   67CHL1   H2B 6113   3.973   3.092   5.317 -0.5118 -0.4223 -1.2002
   67CHL1   C20 6114   3.495   2.762   6.117 -0.4007 -0.5495  1.0555
   67CHL1   H20 6115   3.406   2.819   6.084  0.9466  0.3979 -1.1881
   67CHL1   C21 6116   3.587   2.857   6.202  0.1152  0.3330  0.1350
   67CHL1  H21A 6117   3.687   2.809   6.206 -0.0990 -0.1012  0.3356
   67CHL1  H21B 6118   3.535   2.873   6.299 -0.9225 -0.5809 -0.2397
   67CHL1  H21C 6119   3.591   2.953   6.145 -0.8633  1.3347  1.6783
   67CHL1   C22 6120   3.444   2.639   6.199  0.3215 -0.4923  0.1590
   67CHL1  H22A 6121   3.367   2.596   6.132  0.4754  1.2907 -1.2507
   67CHL1  H22B 6122   3.528   2.567   6.214  0.5018 -0.3392 -0.0974
   67CHL1   C23 6123   3.373   2.663   6.341 -0.1917  0.8726 -0.4091
   67CHL1  H23A 6124   3.436   2.703   6.424 -1.7746  0.5467  0.9849
   67CHL1  H23B 6125   3.293   2.735   6.313 -0.4905 -0.3033 -2.8737
   67CHL1   C24 6126   3.316   2.527   6.379 -0.6368  0.7919  0.6724
   67CHL1  H24A 6127   3.247   2.478   6.307  0.5076  0.2547 -0.0815
   67CHL1  H24B 6128   3.398   2.453   6.375 -1.5220 -0.2085 -2.8583
   67CHL1   C25 6129   3.277   2.526   6.527 -0.4909 -0.6050  0.2881
   67CHL1   H25 6130   3.347   2.594   6.581 -0.2443 -0.9243  0.3782
   67CHL1   C26 6131   3.134   2.579   6.552  0.1813 -0.0858 -0.1885
   67CHL1  H26A 6132   3.061   2.524   6.489  2.9174 -1.8070 -2.0884
   67CHL1  H26B 6133   3.103   2.573   6.658 -0.9061 -0.5386 -0.5229
   67CHL1  H26C 6134   3.125   2.687   6.526  1.2601 -0.1311 -0.8431
   67CHL1   C27 6135   3.292   2.390   6.592 -0.3770 -0.5182 -0.0271
   67CHL1  H27A 6136   3.275   2.384   6.702  0.5305 -0.2866  0.1296
   67CHL1  H27B 6137   3.222   2.317   6.544 -0.5418 -0.9635  0.8631
   67CHL1  H27C 6138   3.396   2.358   6.570 -0.0402 -0.0404  0.8283
   68CHL1    C3 6139   1.893   1.430   4.695  0.1058  0.1498 -0.8342
   68CHL1    H3 6140   1.940   1.522   4.736 -0.8318  0.8561 -1.2780
   68CHL1    O3 6141   1.952   1.405   4.571  0.8807  0.2326 -0.2764
   68CHL1   H3' 6142   1.880   1.383   4.512  0.5578 -3.4557  1.2417
   68CHL1    C4 6143   1.921   1.314   4.785  0.3083 -0.0043 -0.3455
   68CHL1   H4A 6144   1.875   1.222   4.740  0.4865 -0.6620  0.7826
   68CHL1   H4B 6145   2.030   1.296   4.780  0.1393 -2.6234  2.4224
   68CHL1    C5 6146   1.866   1.341   4.921  0.1054 -0.2958 -0.0412
   68CHL1    C6 6147   1.948   1.334   5.030 -0.2081 -0.5809 -0.4701
   68CHL1    H6 6148   2.054   1.303   5.023  0.5234  0.5581  3.4124
   68CHL1    C7 6149   1.908   1.360   5.175  0.9902  0.2919  0.0252
   68CHL1   H7A 6150   1.953   1.276   5.232  0.7148 -0.4189 -0.7826
   68CHL1   H7B 6151   1.949   1.458   5.208  1.3955  0.6773 -1.5090
   68CHL1    C8 6152   1.746   1.357   5.184 -0.3305 -0.0679 -0.0089
   68CHL1    H8 6153   1.709   1.252   5.182  0.1740 -0.2531 -2.5531
   68CHL1   C14 6154   1.700   1.416   5.322 -0.5357 -0.5647 -0.0624
   68CHL1   H14 6155   1.741   1.519   5.321 -0.5413 -0.5324  1.1175
   68CHL1   C15 6156   1.758   1.352   5.448 -0.2820  0.2763 -0.8552
   68CHL1  H15A 6157   1.736   1.243   5.443  0.6561 -0.1371  2.1178
   68CHL1  H15B 6158   1.868   1.367   5.462 -0.1115 -0.5217 -1.2896
   68CHL1   C16 6159   1.668   1.402   5.565 -0.7832  0.6302 -0.2292
   68CHL1  H16A 6160   1.646   1.314   5.629  0.2230  0.8119  0.3992
   68CHL1  H16B 6161   1.717   1.481   5.626 -1.6677 -0.0109  1.3570
   68CHL1   C17 6162   1.541   1.451   5.503 -0.7551 -1.1408  0.7097
   68CHL1   H17 6163   1.559   1.560   5.497  2.1391 -1.5025  1.5997
   68CHL1   C13 6164   1.547   1.411   5.349 -0.3087 -0.1856 -0.6721
   68CHL1   C18 6165   1.494   1.264   5.337  0.0316 -0.4169  0.6336
   68CHL1  H18A 6166   1.539   1.192   5.409  0.1857  0.5636  1.5397
   68CHL1  H18B 6167   1.384   1.251   5.350 -0.4781  2.1452 -0.4961
   68CHL1  H18C 6168   1.524   1.221   5.239  2.8615  1.8708  0.3820
   68CHL1   C12 6169   1.486   1.501   5.234  0.1444  0.0327 -0.2136
   68CHL1  H12A 6170   1.376   1.488   5.229  0.3327 -1.2335 -2.0580
   68CHL1  H12B 6171   1.503   1.609   5.253  0.1143 -0.0387  0.2321
   68CHL1   C11 6172   1.528   1.453   5.090  0.3787 -0.8126 -0.0820
   68CHL1  H11A 6173   1.458   1.375   5.053  0.3744  0.4618 -3.0788
   68CHL1  H11B 6174   1.503   1.542   5.028 -1.4750 -0.5359  1.0010
   68CHL1    C9 6175   1.682   1.436   5.066  0.1889  0.4997 -0.3531
   68CHL1    H9 6176   1.734   1.533   5.083 -0.1235  0.5071  0.5840
   68CHL1   C10 6177   1.722   1.383   4.927 -0.1204 -0.0415  0.4310
   68CHL1   C19 6178   1.635   1.258   4.888 -0.4878  0.1353 -0.0151
   68CHL1  H19A 6179   1.676   1.215   4.793 -1.3274  0.7185 -0.6576
   68CHL1  H19B 6180   1.633   1.181   4.967  0.6551  1.1614  1.0517
   68CHL1  H19C 6181   1.527   1.276   4.870 -0.7115 -0.4523  0.7205
   68CHL1    C1 6182   1.690   1.497   4.820  0.2645 -0.2053  0.4224
   68CHL1   H1A 6183   1.582   1.521   4.805  0.5066  1.2857  0.8593
   68CHL1   H1B 6184   1.746   1.588   4.851  1.8031 -1.2930  0.9597
   68CHL1    C2 6185   1.744   1.453   4.686 -0.5102 -0.1724 -0.0752
   68CHL1   H2A 6186   1.726   1.534   4.612  0.2879  1.2504  1.2215
   68CHL1   H2B 6187   1.689   1.365   4.646  0.3773 -1.4907  1.4725
   68CHL1   C20 6188   1.414   1.417   5.589 -0.2442 -0.4065 -0.4481
   68CHL1   H20 6189   1.419   1.306   5.577  2.0674 -0.5125  0.8677
   68CHL1   C21 6190   1.296   1.483   5.517 -0.4531 -0.5389 -0.4899
   68CHL1  H21A 6191   1.313   1.588   5.483 -1.9481 -0.6971 -1.7907
   68CHL1  H21B 6192   1.212   1.496   5.588  0.4862 -0.3309  0.6215
   68CHL1  H21C 6193   1.272   1.424   5.426  1.4847 -1.5735 -0.3847
   68CHL1   C22 6194   1.420   1.473   5.737  0.3021  0.1977 -0.4101
   68CHL1  H22A 6195   1.523   1.486   5.777  0.7686 -0.4457 -1.3592
   68CHL1  H22B 6196   1.379   1.575   5.748 -0.7194 -0.2365 -0.0351
   68CHL1   C23 6197   1.337   1.393   5.844 -0.1565 -0.2240 -0.8105
   68CHL1  H23A 6198   1.242   1.356   5.800 -1.3225  0.3460  1.1421
   68CHL1  H23B 6199   1.396   1.310   5.889 -1.7199  1.5169  5.4074
   68CHL1   C24 6200   1.282   1.477   5.966 -0.4991  0.2760  0.0457
   68CHL1  H24A 6201   1.365   1.530   6.016 -0.3674 -0.4595  0.6219
   68CHL1  H24B 6202   1.213   1.552   5.921  0.0794  1.7027  1.4667
   68CHL1   C25 6203   1.215   1.401   6.080  0.4673  0.6708  0.1125
   68CHL1   H25 6204   1.143   1.338   6.023  0.8082  0.2028  0.1977
   68CHL1   C26 6205   1.308   1.300   6.149 -0.1269 -0.2447 -0.6730
   68CHL1  H26A 6206   1.383   1.351   6.212  0.2713 -2.6663  0.9593
   68CHL1  H26B 6207   1.247   1.228   6.208 -1.0702 -0.3569 -1.7333
   68CHL1  H26C 6208   1.365   1.236   6.078  0.4274 -0.8900  0.3206
   68CHL1   C27 6209   1.140   1.493   6.170 -0.8981  0.1480  0.1967
   68CHL1  H27A 6210   1.080   1.562   6.106 -0.0541  1.1665  0.4925
   68CHL1  H27B 6211   1.089   1.438   6.252  2.3354 -1.2658  1.4258
   68CHL1  H27C 6212   1.211   1.558   6.224 -1.8633 -0.1850  1.9272
   69CHL1    C3 6213   6.697   0.952   8.310  0.0497 -0.1035 -0.6529
   69CHL1    H3 6214   6.779   1.026   8.302  0.4555 -0.3342  1.0137
   69CHL1    O3 6215   6.674   0.929   8.451 -0.1820 -0.4013 -0.4212
   69CHL1   H3' 6216   6.754   0.915   8.502 -1.2306 -0.0988  1.3990
   69CHL1    C4 6217   6.568   1.005   8.246  0.9559 -0.3699 -0.0214
   69CHL1   H4A 6218   6.488   0.933   8.273  1.4214 -0.7738  0.2993
   69CHL1   H4B 6219   6.560   1.105   8.295  0.9743  0.1671 -1.0909
   69CHL1    C5 6220   6.587   1.032   8.097  0.3713  1.0248  0.9764
   69CHL1    C6 6221   6.580   1.153   8.041  0.3657 -0.1743  0.2243
   69CHL1    H6 6222   6.555   1.244   8.098 -1.0077 -0.0645 -0.5142
   69CHL1    C7 6223   6.584   1.172   7.891 -0.0565 -0.1785  0.1457
   69CHL1   H7A 6224   6.497   1.236   7.866 -0.4776  0.2189  2.4055
   69CHL1   H7B 6225   6.673   1.232   7.862  0.4782 -1.2206 -0.4042
   69CHL1    C8 6226   6.572   1.046   7.806  0.1721 -0.0283  0.2888
   69CHL1    H8 6227   6.466   1.013   7.811  0.5463 -1.3288  0.0337
   69CHL1   C14 6228   6.607   1.076   7.664 -0.3350 -0.2664  0.0549
   69CHL1   H14 6229   6.713   1.110   7.670 -0.6332  0.8164 -0.6042
   69CHL1   C15 6230   6.532   1.201   7.593 -0.4510 -0.0603  0.3335
   69CHL1  H15A 6231   6.424   1.193   7.615 -0.8029 -1.1829 -1.5581
   69CHL1  H15B 6232   6.570   1.301   7.624  2.0703 -0.5580 -0.8815
   69CHL1   C16 6233   6.543   1.162   7.438 -0.0588 -0.8766  0.4013
   69CHL1  H16A 6234   6.439   1.161   7.399 -0.7505  0.9240  2.0256
   69CHL1  H16B 6235   6.587   1.255   7.396 -1.3088  0.4708  1.9537
   69CHL1   C17 6236   6.628   1.031   7.436 -0.0032 -0.4359 -0.5299
   69CHL1   H17 6237   6.734   1.062   7.421 -0.2112  0.9489  0.6333
   69CHL1   C13 6238   6.609   0.957   7.570  0.3040 -0.8631 -0.0332
   69CHL1   C18 6239   6.467   0.885   7.567 -0.5983 -0.4516  0.1717
   69CHL1  H18A 6240   6.388   0.953   7.529  1.2177  0.3439 -2.5044
   69CHL1  H18B 6241   6.478   0.789   7.510  1.6385 -0.6164  0.7658
   69CHL1  H18C 6242   6.440   0.852   7.669  0.8047 -0.6583  0.4982
   69CHL1   C12 6243   6.711   0.850   7.616 -0.2640 -0.6014  0.2350
   69CHL1  H12A 6244   6.691   0.757   7.559 -2.3685  1.0938 -1.9861
   69CHL1  H12B 6245   6.812   0.882   7.584 -0.9645  2.5724  0.8479
   69CHL1   C11 6246   6.687   0.817   7.764 -0.6124 -0.2134  0.2123
   69CHL1  H11A 6247   6.598   0.753   7.776  0.4785 -1.2386  5.4982
   69CHL1  H11B 6248   6.770   0.757   7.808  0.5111  0.3611 -1.0587
   69CHL1    C9 6249   6.660   0.939   7.865  0.2699 -0.5675 -0.1771
   69CHL1    H9 6250   6.754   0.996   7.882 -1.3973  3.1291 -2.0623
   69CHL1   C10 6251   6.622   0.908   8.011 -0.3465  0.3480 -0.6392
   69CHL1   C19 6252   6.499   0.826   8.008  0.7952 -0.4867  0.4311
   69CHL1  H19A 6253   6.469   0.799   8.112  1.4561  1.1942  1.0933
   69CHL1  H19B 6254   6.415   0.881   7.962  2.1250  1.4171  0.1703
   69CHL1  H19C 6255   6.506   0.729   7.955  0.3606 -1.3540  1.8856
   69CHL1    C1 6256   6.746   0.837   8.085  0.1206  0.2533  0.4226
   69CHL1   H1A 6257   6.765   0.742   8.032 -0.3755 -0.1277  0.9147
   69CHL1   H1B 6258   6.833   0.905   8.073  1.8016 -1.7170  1.0618
   69CHL1    C2 6259   6.736   0.819   8.243 -0.1747  0.3314  0.3677
   69CHL1   H2A 6260   6.828   0.777   8.288 -1.5447 -0.5204  2.5617
   69CHL1   H2B 6261   6.656   0.745   8.267  1.0297 -0.5123  1.9997
   69CHL1   C20 6262   6.595   0.954   7.304 -0.2859  0.5241 -0.3191
   69CHL1   H20 6263   6.489   0.924   7.295 -0.2047 -0.4162  1.4109
   69CHL1   C21 6264   6.670   0.802   7.300 -0.1075  0.1969 -0.0760
   69CHL1  H21A 6265   6.665   0.767   7.195 -0.6958 -1.0051  0.3269
   69CHL1  H21B 6266   6.611   0.731   7.362  2.2095  0.6710  2.9011
   69CHL1  H21C 6267   6.777   0.811   7.326 -0.2277 -1.3558  1.1399
   69CHL1   C22 6268   6.639   1.039   7.178 -0.6815  0.5010 -0.3072
   69CHL1  H22A 6269   6.725   1.101   7.211  0.3239  0.3790 -2.4768
   69CHL1  H22B 6270   6.677   0.971   7.098  0.4249 -0.0077  0.6120
   69CHL1   C23 6271   6.532   1.127   7.117  0.0847  0.0082  0.6038
   69CHL1  H23A 6272   6.447   1.062   7.087 -0.9545  1.0979  1.1040
   69CHL1  H23B 6273   6.487   1.198   7.190 -0.4967 -0.1605  0.4141
   69CHL1   C24 6274   6.586   1.201   6.989 -0.5883 -0.4834  0.0240
   69CHL1  H24A 6275   6.676   1.261   7.018 -1.9462  1.1395  1.0766
   69CHL1  H24B 6276   6.623   1.128   6.914 -1.8097 -1.8152  0.6776
   69CHL1   C25 6277   6.482   1.289   6.923  0.4771  0.2345  0.3648
   69CHL1   H25 6278   6.446   1.353   7.007  0.0857  0.0456  0.3453
   69CHL1   C26 6279   6.543   1.371   6.804 -0.0227  0.8325 -0.0383
   69CHL1  H26A 6280   6.580   1.303   6.725  0.9614  1.3809 -0.0680
   69CHL1  H26B 6281   6.472   1.448   6.767 -0.7133  0.2117 -0.0087
   69CHL1  H26C 6282   6.630   1.431   6.839 -0.7353 -0.0889  3.8050
   69CHL1   C27 6283   6.353   1.204   6.873 -0.2729 -0.0850  0.5003
   69CHL1  H27A 6284   6.402   1.132   6.804  0.4152 -0.7732  1.6758
   69CHL1  H27B 6285   6.304   1.154   6.959  2.3519 -0.5427  1.8397
   69CHL1  H27C 6286   6.288   1.276   6.819 -0.8780 -1.2351 -0.3282
   70CHL1    C3 6287   5.085   0.546   5.037  0.6791  0.1346  0.0947
   70CHL1    H3 6288   5.194   0.562   5.029  0.8046 -0.7804 -0.0488
   70CHL1    O3 6289   5.039   0.565   4.903 -0.5369 -0.0461 -0.1262
   70CHL1   H3' 6290   4.944   0.553   4.899 -0.9899  2.2092  1.5468
   70CHL1    C4 6291   5.043   0.400   5.081  0.0965  0.4432 -0.2024
   70CHL1   H4A 6292   4.933   0.391   5.067 -0.1192  1.9855  0.3812
   70CHL1   H4B 6293   5.088   0.329   5.007  0.4641  0.7951 -0.3174
   70CHL1    C5 6294   5.079   0.369   5.224 -0.5214 -0.1759  0.1842
   70CHL1    C6 6295   5.148   0.259   5.252  0.5432 -0.0360  0.8750
   70CHL1    H6 6296   5.160   0.182   5.174  1.4355  1.3667 -0.4104
   70CHL1    C7 6297   5.193   0.219   5.391  0.2546 -0.1902 -0.7691
   70CHL1   H7A 6298   5.170   0.112   5.412 -0.8032 -0.3452 -2.5333
   70CHL1   H7B 6299   5.303   0.232   5.390  0.5143 -1.8010 -3.4965
   70CHL1    C8 6300   5.118   0.302   5.504 -0.3513 -1.0036  0.1808
   70CHL1    H8 6301   5.016   0.260   5.516  0.0664 -2.4453 -0.8821
   70CHL1   C14 6302   5.189   0.283   5.630 -0.0395 -0.0822 -0.6057
   70CHL1   H14 6303   5.289   0.326   5.609  1.0897 -2.3449 -0.1519
   70CHL1   C15 6304   5.212   0.137   5.671  0.3062 -0.2406  0.1978
   70CHL1  H15A 6305   5.111   0.093   5.653 -0.3224  1.7547 -1.5109
   70CHL1  H15B 6306   5.292   0.090   5.611 -1.3947 -1.9312 -0.8230
   70CHL1   C16 6307   5.248   0.141   5.823 -0.5985 -0.8257  0.0172
   70CHL1  H16A 6308   5.176   0.086   5.887 -0.1564 -0.2068  1.0786
   70CHL1  H16B 6309   5.350   0.099   5.839 -0.5981 -0.4238  1.1928
   70CHL1   C17 6310   5.239   0.297   5.857  0.4343  0.0836  0.0866
   70CHL1   H17 6311   5.339   0.341   5.838  1.5284 -0.3180  4.0811
   70CHL1   C13 6312   5.135   0.353   5.752  0.0955  0.0059  0.0609
   70CHL1   C18 6313   4.998   0.306   5.798  0.4843  0.9476 -0.0949
   70CHL1  H18A 6314   4.967   0.363   5.889 -0.6792  0.6504 -0.2916
   70CHL1  H18B 6315   4.926   0.331   5.717 -0.7434 -0.5092  0.5106
   70CHL1  H18C 6316   5.002   0.197   5.815  3.4821  0.4685 -2.9382
   70CHL1   C12 6317   5.140   0.502   5.720  0.0866  0.3368 -0.0957
   70CHL1  H12A 6318   5.095   0.555   5.807  0.8013  1.6289 -0.4720
   70CHL1  H12B 6319   5.247   0.533   5.718  0.9824 -2.2401  2.0969
   70CHL1   C11 6320   5.074   0.547   5.585 -0.3561 -0.0226 -0.6315
   70CHL1  H11A 6321   4.965   0.548   5.605 -0.7106 -1.1507 -2.3599
   70CHL1  H11B 6322   5.106   0.651   5.562 -0.3673  0.5023  1.5127
   70CHL1    C9 6323   5.106   0.451   5.467  0.0000  0.1339 -0.0886
   70CHL1    H9 6324   5.215   0.470   5.451  0.1307 -1.2153 -0.9905
   70CHL1   C10 6325   5.037   0.475   5.321  0.2865  0.3094 -0.5716
   70CHL1   C19 6326   4.884   0.459   5.353  0.5465 -0.2721 -0.5715
   70CHL1  H19A 6327   4.827   0.439   5.260 -2.7748 -0.9607  1.4254
   70CHL1  H19B 6328   4.867   0.369   5.416  0.0384  0.9853  1.1603
   70CHL1  H19C 6329   4.847   0.548   5.407  0.9309  0.0520 -0.8383
   70CHL1    C1 6330   5.065   0.620   5.270  0.0712  0.4353  0.9472
   70CHL1   H1A 6331   5.008   0.692   5.332 -0.8846  1.0590 -0.5875
   70CHL1   H1B 6332   5.172   0.652   5.275  0.8613 -1.2596 -2.1068
   70CHL1    C2 6333   5.023   0.647   5.127  0.1327 -0.7779 -0.2183
   70CHL1   H2A 6334   5.054   0.750   5.097  0.6801 -1.1101 -0.8438
   70CHL1   H2B 6335   4.912   0.647   5.127  0.0691  1.1784  2.2175
   70CHL1   C20 6336   5.221   0.334   6.003 -0.2515  0.0059 -0.1282
   70CHL1   H20 6337   5.127   0.287   6.038  0.3059 -0.3066  0.9641
   70CHL1   C21 6338   5.224   0.488   6.023  0.2074  0.1162  0.6648
   70CHL1  H21A 6339   5.313   0.528   5.969 -0.7396  1.0443 -0.2772
   70CHL1  H21B 6340   5.240   0.515   6.130 -1.4607  2.5784  0.3778
   70CHL1  H21C 6341   5.125   0.527   5.989 -0.6783 -2.3422  0.2811
   70CHL1   C22 6342   5.339   0.275   6.086  0.1946 -0.1815 -0.2405
   70CHL1  H22A 6343   5.376   0.180   6.043  0.0413  0.1923 -1.2321
   70CHL1  H22B 6344   5.423   0.348   6.079  1.1431 -1.2223  0.1163
   70CHL1   C23 6345   5.287   0.246   6.233 -0.3574 -0.2614 -0.7588
   70CHL1  H23A 6346   5.216   0.327   6.263  0.5984 -0.1259  1.2785
   70CHL1  H23B 6347   5.225   0.154   6.241 -0.8910  0.1336 -0.2813
   70CHL1   C24 6348   5.404   0.252   6.334 -0.8076  0.2782 -0.6370
   70CHL1  H24A 6349   5.500   0.226   6.286 -0.3882  1.2132 -0.3197
   70CHL1  H24B 6350   5.409   0.358   6.365 -0.7023 -0.0101  0.3702
   70CHL1   C25 6351   5.389   0.166   6.463  0.6005  0.2671 -0.0377
   70CHL1   H25 6352   5.297   0.186   6.522  0.7273  0.3524  0.1311
   70CHL1   C26 6353   5.382   0.018   6.409 -0.0137  0.0296 -0.1276
   70CHL1  H26A 6354   5.340  -0.041   6.493  0.1317 -0.7418 -0.5921
   70CHL1  H26B 6355   5.311   0.009   6.323 -1.2164  1.1820  0.6969
   70CHL1  H26C 6356   5.484  -0.018   6.386  0.6040  2.0647 -0.8238
   70CHL1   C27 6357   5.507   0.172   6.559  0.0439  0.3515 -0.0861
   70CHL1  H27A 6358   5.594   0.132   6.503  0.3189 -1.7074  1.6561
   70CHL1  H27B 6359   5.520   0.275   6.600 -3.5581  1.0178 -0.2659
   70CHL1  H27C 6360   5.506   0.099   6.642  2.4689 -0.7206 -0.9129
   71CHL1    C3 6361   5.740   4.841   5.067  0.5171  0.1909 -0.2649
   71CHL1    H3 6362   5.841   4.793   5.059 -0.5057 -2.2146  0.3474
   71CHL1    O3 6363   5.713   4.912   4.947  0.4308 -0.4345  0.4455
   71CHL1   H3' 6364   5.622   4.941   4.947  0.3896 -0.4604 -1.3695
   71CHL1    C4 6365   5.631   4.740   5.084 -0.0516 -0.4743 -0.3751
   71CHL1   H4A 6366   5.529   4.785   5.079  0.7139  1.6717  1.5496
   71CHL1   H4B 6367   5.638   4.670   4.998 -3.0618  1.3815 -2.3076
   71CHL1    C5 6368   5.647   4.663   5.214  1.2419 -0.8155  0.3380
   71CHL1    C6 6369   5.637   4.527   5.223 -0.4015  0.1440  0.5162
   71CHL1    H6 6370   5.609   4.469   5.134 -0.6225  1.4996 -0.3242
   71CHL1    C7 6371   5.658   4.446   5.350 -0.1583 -0.6855  0.5363
   71CHL1   H7A 6372   5.577   4.370   5.345 -0.9297  0.1698 -0.6010
   71CHL1   H7B 6373   5.759   4.403   5.335  0.8464  2.2239 -2.3147
   71CHL1    C8 6374   5.649   4.526   5.482  0.1584  0.3383 -0.1637
   71CHL1    H8 6375   5.543   4.558   5.487 -0.2298 -0.3446 -2.6811
   71CHL1   C14 6376   5.698   4.451   5.601  0.2950 -0.4307  0.1483
   71CHL1   H14 6377   5.807   4.432   5.603  0.2241 -0.8160  0.3911
   71CHL1   C15 6378   5.635   4.315   5.617  0.2401 -0.3131 -0.4772
   71CHL1  H15A 6379   5.530   4.327   5.584  0.2470 -0.0391 -0.4015
   71CHL1  H15B 6380   5.680   4.247   5.542  2.0474 -0.1114  0.3665
   71CHL1   C16 6381   5.652   4.289   5.768 -0.0108  0.7681  0.0904
   71CHL1  H16A 6382   5.552   4.273   5.815  1.1880  1.3542  3.0280
   71CHL1  H16B 6383   5.698   4.190   5.790  0.5554  0.6091 -1.6453
   71CHL1   C17 6384   5.710   4.419   5.840 -0.7212 -0.2259 -0.1153
   71CHL1   H17 6385   5.819   4.398   5.839 -0.7647 -0.5097  0.5641
   71CHL1   C13 6386   5.682   4.528   5.733  0.5451  0.0689  0.0454
   71CHL1   C18 6387   5.533   4.572   5.755  0.2661 -0.5994  0.3959
   71CHL1  H18A 6388   5.486   4.632   5.674  1.0560 -0.5997 -0.0709
   71CHL1  H18B 6389   5.461   4.492   5.784 -0.6108  0.4235  1.1256
   71CHL1  H18C 6390   5.539   4.647   5.836  1.3773 -0.0768 -0.1529
   71CHL1   C12 6391   5.776   4.648   5.722 -0.1349 -0.0220 -0.5212
   71CHL1  H12A 6392   5.770   4.698   5.821 -0.7589 -1.5240  0.2247
   71CHL1  H12B 6393   5.880   4.618   5.700  0.3666  0.6802  0.8184
   71CHL1   C11 6394   5.737   4.735   5.602  0.6203  0.3429  0.0393
   71CHL1  H11A 6395   5.637   4.782   5.618 -0.3219 -1.9652  1.4996
   71CHL1  H11B 6396   5.816   4.810   5.585  0.9208  0.3661  1.4086
   71CHL1    C9 6397   5.721   4.654   5.467  0.2139 -0.4359 -0.2112
   71CHL1    H9 6398   5.824   4.625   5.438  0.5050  1.9304 -1.8388
   71CHL1   C10 6399   5.670   4.746   5.342 -0.7275 -0.0983  0.0912
   71CHL1   C19 6400   5.531   4.803   5.365 -0.1531  0.1557 -0.5004
   71CHL1  H19A 6401   5.489   4.858   5.278  1.3486 -2.1460 -2.7892
   71CHL1  H19B 6402   5.449   4.738   5.401  0.2964 -0.3074 -0.3101
   71CHL1  H19C 6403   5.538   4.873   5.451 -1.3923 -0.5758  0.2311
   71CHL1    C1 6404   5.763   4.862   5.320  0.2151  0.3781  0.2396
   71CHL1   H1A 6405   5.750   4.933   5.404 -0.8999 -0.9183  1.1964
   71CHL1   H1B 6406   5.869   4.828   5.319  0.3310  0.7104 -1.1790
   71CHL1    C2 6407   5.738   4.940   5.192 -0.3589 -0.0486 -0.3175
   71CHL1   H2A 6408   5.819   5.015   5.182  1.1397 -1.7005 -0.9908
   71CHL1   H2B 6409   5.640   4.992   5.200 -0.5153  0.0188 -2.2342
   71CHL1   C20 6410   5.667   4.444   5.987 -0.7972  1.2076 -0.0447
   71CHL1   H20 6411   5.558   4.458   5.974 -0.4820  3.9472 -0.1788
   71CHL1   C21 6412   5.723   4.571   6.045 -0.1345  0.4259  0.6616
   71CHL1  H21A 6413   5.693   4.584   6.151 -0.1143 -1.8178  0.9804
   71CHL1  H21B 6414   5.684   4.659   5.989 -0.8200 -1.2749 -1.7098
   71CHL1  H21C 6415   5.834   4.565   6.042 -0.2234 -1.5865 -1.4987
   71CHL1   C22 6416   5.704   4.323   6.080 -0.1616 -0.0899  0.1197
   71CHL1  H22A 6417   5.693   4.227   6.025  1.9487 -1.1968  1.4882
   71CHL1  H22B 6418   5.814   4.329   6.099  0.1237  2.1517 -1.7417
   71CHL1   C23 6419   5.610   4.309   6.206  0.2716 -0.7667 -0.8414
   71CHL1  H23A 6420   5.624   4.395   6.275  3.5497 -1.4342 -0.5086
   71CHL1  H23B 6421   5.502   4.313   6.180 -0.0121 -0.2078  0.3188
   71CHL1   C24 6422   5.635   4.179   6.282  0.1319  0.3741  0.0879
   71CHL1  H24A 6423   5.612   4.099   6.208 -3.5789  0.1051  1.3400
   71CHL1  H24B 6424   5.745   4.186   6.300 -0.0940  0.7873  1.3854
   71CHL1   C25 6425   5.549   4.156   6.413  0.7175  0.4888  0.2235
   71CHL1   H25 6426   5.441   4.153   6.390  0.4013 -2.0179  1.6396
   71CHL1   C26 6427   5.588   4.026   6.485  0.1392  0.2583  0.4292
   71CHL1  H26A 6428   5.694   4.031   6.518  0.7895 -3.5061 -0.5315
   71CHL1  H26B 6429   5.520   4.009   6.571  0.7058  0.2827  0.8905
   71CHL1  H26C 6430   5.578   3.945   6.410 -1.0317  0.8072 -0.0350
   71CHL1   C27 6431   5.578   4.265   6.515 -0.0286 -0.1093 -0.3694
   71CHL1  H27A 6432   5.562   4.369   6.480 -1.3499  0.6589  2.2369
   71CHL1  H27B 6433   5.517   4.245   6.606  1.1536 -1.7886  0.0865
   71CHL1  H27C 6434   5.685   4.262   6.544 -0.2057 -0.1578  0.3179
   72CHL1    C3 6435   2.920   4.294   5.360 -0.7635 -0.7056 -0.1833
   72CHL1    H3 6436   2.842   4.218   5.377 -0.2469 -1.0307  0.8045
   72CHL1    O3 6437   2.984   4.265   5.233 -0.2084  0.4226 -0.0273
   72CHL1   H3' 6438   3.065   4.217   5.247 -0.6479 -0.3196  0.0078
   72CHL1    C4 6439   2.862   4.439   5.335 -0.2373  0.0757 -0.3186
   72CHL1   H4A 6440   2.942   4.508   5.299  0.3439 -0.3470  0.1483
   72CHL1   H4B 6441   2.786   4.423   5.256 -0.7847  0.9855  0.0072
   72CHL1    C5 6442   2.799   4.498   5.459 -0.4261 -0.5388  0.2526
   72CHL1    C6 6443   2.669   4.553   5.452 -0.2628  0.1177 -0.2466
   72CHL1    H6 6444   2.615   4.563   5.357 -1.1515 -3.5143 -0.2687
   72CHL1    C7 6445   2.602   4.607   5.569  0.2437  0.3543 -0.2756
   72CHL1   H7A 6446   2.551   4.698   5.532  2.4764  1.6602 -0.3021
   72CHL1   H7B 6447   2.528   4.528   5.595 -1.4276  1.9199 -0.0802
   72CHL1    C8 6448   2.693   4.633   5.698  0.3332  0.0730 -0.2936
   72CHL1    H8 6449   2.756   4.724   5.686 -0.3594  0.6945  0.6621
   72CHL1   C14 6450   2.603   4.632   5.825  0.2288 -0.3728  0.6209
   72CHL1   H14 6451   2.562   4.530   5.830 -0.7822 -0.0156 -0.0571
   72CHL1   C15 6452   2.485   4.730   5.823 -0.2065 -0.1825  0.2182
   72CHL1  H15A 6453   2.523   4.827   5.784 -0.7132  0.8586  2.1566
   72CHL1  H15B 6454   2.399   4.701   5.760 -1.8371  1.8000  1.4374
   72CHL1   C16 6455   2.451   4.746   5.981  0.3210  0.2521  0.6083
   72CHL1  H16A 6456   2.440   4.853   6.009  0.5011  0.3619  0.2715
   72CHL1  H16B 6457   2.353   4.696   5.996 -1.6721  3.5456 -0.4879
   72CHL1   C17 6458   2.562   4.663   6.053  0.5046  0.4355 -0.0188
   72CHL1   H17 6459   2.515   4.562   6.048 -0.2771  0.8259 -0.7686
   72CHL1   C13 6460   2.674   4.656   5.957 -0.6815  0.2800  0.1749
   72CHL1   C18 6461   2.743   4.793   5.952  0.1405  0.7075 -0.4255
   72CHL1  H18A 6462   2.671   4.877   5.960  0.6540  1.0407  1.0069
   72CHL1  H18B 6463   2.820   4.801   6.032 -0.8659 -0.2128  0.6730
   72CHL1  H18C 6464   2.791   4.811   5.854  1.2660  1.7386  0.2822
   72CHL1   C12 6465   2.775   4.545   5.975 -0.3802 -0.1244 -0.5476
   72CHL1  H12A 6466   2.827   4.559   6.072 -0.9370  0.1137 -0.2799
   72CHL1  H12B 6467   2.725   4.446   5.985  2.0244 -1.3897 -0.1599
   72CHL1   C11 6468   2.869   4.524   5.853 -0.7990 -0.4529 -0.1983
   72CHL1  H11A 6469   2.939   4.610   5.846  0.8767 -1.5579  1.5548
   72CHL1  H11B 6470   2.930   4.436   5.883 -0.2258 -0.0548 -0.1754
   72CHL1    C9 6471   2.798   4.514   5.717  0.4902  0.2472 -0.0405
   72CHL1    H9 6472   2.734   4.423   5.720 -0.2884  0.5709 -3.3539
   72CHL1   C10 6473   2.880   4.488   5.587 -0.0241 -0.1922 -0.5243
   72CHL1   C19 6474   3.000   4.587   5.582  0.6248 -0.1621  0.7238
   72CHL1  H19A 6475   3.067   4.561   5.498  1.5381  1.0486  1.0447
   72CHL1  H19B 6476   2.980   4.695   5.569 -0.0298  0.0668  3.0861
   72CHL1  H19C 6477   3.063   4.579   5.674  0.5891  2.5355  1.0496
   72CHL1    C1 6478   2.949   4.343   5.609  0.1240 -0.1172  0.0833
   72CHL1   H1A 6479   3.023   4.359   5.691 -0.0726  1.0290  0.0508
   72CHL1   H1B 6480   2.872   4.266   5.631  2.5110 -3.0881 -1.2028
   72CHL1    C2 6481   3.023   4.297   5.480  0.1664 -0.7753  0.5457
   72CHL1   H2A 6482   3.061   4.193   5.490  1.2516 -0.2863  1.8978
   72CHL1   H2B 6483   3.113   4.359   5.458 -0.6796  0.4341  0.3744
   72CHL1   C20 6484   2.588   4.694   6.195  0.2458 -0.4802 -0.6624
   72CHL1   H20 6485   2.694   4.672   6.220  0.8442  2.3264 -0.4947
   72CHL1   C21 6486   2.483   4.606   6.272 -0.3495  0.0808 -0.3543
   72CHL1  H21A 6487   2.508   4.635   6.376  2.5064  0.2035 -0.9849
   72CHL1  H21B 6488   2.508   4.498   6.259 -3.1213 -0.7922  0.7456
   72CHL1  H21C 6489   2.376   4.622   6.246 -0.9594 -0.1618  1.7507
   72CHL1   C22 6490   2.556   4.845   6.233  0.1978 -0.1648  0.1972
   72CHL1  H22A 6491   2.614   4.906   6.161  0.2276  0.8457  1.0523
   72CHL1  H22B 6492   2.451   4.874   6.217  0.3847  0.1936 -0.4063
   72CHL1   C23 6493   2.606   4.883   6.372 -0.8298 -1.1186  0.2651
   72CHL1  H23A 6494   2.558   4.827   6.455 -1.3134 -0.1489  0.6556
   72CHL1  H23B 6495   2.716   4.881   6.386 -0.6364  1.6632 -0.4190
   72CHL1   C24 6496   2.571   5.029   6.405  0.4310  0.0713 -0.5095
   72CHL1  H24A 6497   2.605   5.091   6.318 -2.0379 -0.4044 -1.9066
   72CHL1  H24B 6498   2.460   5.038   6.412  0.4492  0.1200 -0.2969
   72CHL1   C25 6499   2.639   5.076   6.533  0.3728 -0.6742 -0.3250
   72CHL1   H25 6500   2.747   5.050   6.533  0.5402 -0.2873  2.2858
   72CHL1   C26 6501   2.615   5.229   6.550 -0.8018  0.1783 -0.5945
   72CHL1  H26A 6502   2.670   5.281   6.469  1.5017  0.2852  0.9237
   72CHL1  H26B 6503   2.512   5.271   6.553 -0.8447  0.1034 -0.9356
   72CHL1  H26C 6504   2.662   5.259   6.646 -3.4750  0.1633  0.8243
   72CHL1   C27 6505   2.590   5.004   6.664 -0.2694  0.5073  0.3341
   72CHL1  H27A 6506   2.481   5.000   6.686 -0.4485 -1.0592 -0.6397
   72CHL1  H27B 6507   2.614   4.895   6.657 -2.8906 -0.5108  3.9996
   72CHL1  H27C 6508   2.644   5.047   6.751 -1.2634  2.3388  0.0775
   73CHL1    C3 6509   5.064   1.493   5.268  0.5206 -0.3006 -0.7363
   73CHL1    H3 6510   5.037   1.386   5.257  0.8772 -0.5122  0.3237
   73CHL1    O3 6511   5.014   1.556   5.148  0.3436 -0.6247  0.4326
   73CHL1   H3' 6512   5.023   1.651   5.164  2.0906 -0.6845 -0.0269
   73CHL1    C4 6513   4.998   1.551   5.395 -0.1803  0.4873 -0.5112
   73CHL1   H4A 6514   4.994   1.662   5.398  0.4825  0.4944  1.4066
   73CHL1   H4B 6515   4.895   1.514   5.380  0.0114 -0.3177  0.0546
   73CHL1    C5 6516   5.060   1.498   5.527 -0.2334 -0.7531  0.0267
   73CHL1    C6 6517   4.983   1.444   5.629 -0.5944 -0.2260  0.4448
   73CHL1    H6 6518   4.874   1.435   5.622 -0.5325  0.1078 -1.2712
   73CHL1    C7 6519   5.034   1.404   5.766 -0.4687  0.2294  0.2119
   73CHL1   H7A 6520   4.957   1.432   5.841 -0.7939 -1.5640  0.5948
   73CHL1   H7B 6521   5.036   1.293   5.762  0.4499  0.2770 -1.4659
   73CHL1    C8 6522   5.178   1.450   5.789 -0.1511 -0.6951  0.5158
   73CHL1    H8 6523   5.175   1.557   5.820  1.1814 -0.7717  0.9623
   73CHL1   C14 6524   5.237   1.370   5.903 -0.5893 -0.8259  0.7447
   73CHL1   H14 6525   5.245   1.266   5.865 -2.3216 -0.8045  0.2488
   73CHL1   C15 6526   5.166   1.363   6.041  0.4895 -0.2371  0.1046
   73CHL1  H15A 6527   5.113   1.457   6.069 -2.8073 -2.3587  1.5896
   73CHL1  H15B 6528   5.092   1.281   6.026 -0.3098  0.5210 -0.2063
   73CHL1   C16 6529   5.280   1.331   6.142  0.2276 -0.8277 -0.1498
   73CHL1  H16A 6530   5.276   1.415   6.215 -1.4910  0.0938 -1.2196
   73CHL1  H16B 6531   5.258   1.233   6.190  0.4422 -1.2260 -0.8546
   73CHL1   C17 6532   5.411   1.330   6.058 -0.1425 -0.7523  0.3010
   73CHL1   H17 6533   5.427   1.222   6.035 -1.0409 -0.4148 -2.1302
   73CHL1   C13 6534   5.381   1.409   5.932 -0.7214  0.1423 -0.2374
   73CHL1   C18 6535   5.397   1.552   5.972 -0.2641 -0.0752  1.0688
   73CHL1  H18A 6536   5.503   1.583   5.969 -0.5037  0.7322 -0.7073
   73CHL1  H18B 6537   5.367   1.624   5.893  1.6404  1.1811  1.4489
   73CHL1  H18C 6538   5.347   1.590   6.064 -0.5411  2.1657  0.0597
   73CHL1   C12 6539   5.464   1.362   5.809  0.4644  0.2291  0.7016
   73CHL1  H12A 6540   5.573   1.381   5.820  1.2151 -2.1377 -1.5416
   73CHL1  H12B 6541   5.445   1.253   5.800 -1.6572  0.6287 -0.1645
   73CHL1   C11 6542   5.414   1.439   5.687  0.0446 -0.1092 -0.2907
   73CHL1  H11A 6543   5.438   1.547   5.698 -2.2586  0.5412 -1.0338
   73CHL1  H11B 6544   5.475   1.402   5.601  1.3544  2.2263 -0.4419
   73CHL1    C9 6545   5.261   1.424   5.658  0.0980  0.0137  0.5551
   73CHL1    H9 6546   5.246   1.316   5.635 -0.2476  0.3714 -1.0854
   73CHL1   C10 6547   5.210   1.504   5.536  0.8329 -0.3033 -0.8121
   73CHL1   C19 6548   5.246   1.651   5.558 -0.5192 -0.0327  0.2434
   73CHL1  H19A 6549   5.202   1.704   5.471  0.1880 -1.4488 -1.0104
   73CHL1  H19B 6550   5.208   1.695   5.653  0.7008  0.9925  0.2891
   73CHL1  H19C 6551   5.356   1.668   5.549 -0.3062 -1.3551  0.1504
   73CHL1    C1 6552   5.259   1.443   5.412 -0.6037  0.7501  1.2494
   73CHL1   H1A 6553   5.370   1.436   5.411 -0.6366  0.0398 -0.1856
   73CHL1   H1B 6554   5.231   1.335   5.411 -0.6212  0.6799 -2.1322
   73CHL1    C2 6555   5.214   1.508   5.281  0.6131  1.2974  0.5005
   73CHL1   H2A 6556   5.265   1.451   5.201 -1.6265  0.1624 -0.1870
   73CHL1   H2B 6557   5.236   1.613   5.252 -0.6900  1.8556  1.4202
   73CHL1   C20 6558   5.532   1.363   6.144 -0.0486 -0.8183 -0.1599
   73CHL1   H20 6559   5.533   1.466   6.185  0.6071 -1.0986  0.5485
   73CHL1   C21 6560   5.666   1.367   6.073  0.3974 -0.0650  0.1460
   73CHL1  H21A 6561   5.752   1.383   6.141  0.1065  0.7018  0.3398
   73CHL1  H21B 6562   5.673   1.447   5.996  2.1921 -1.6710 -1.4978
   73CHL1  H21C 6563   5.675   1.269   6.021 -0.5443 -0.4489  0.6785
   73CHL1   C22 6564   5.545   1.273   6.271  0.0517 -0.5013  0.6218
   73CHL1  H22A 6565   5.460   1.296   6.339 -1.7693  0.8351 -1.9893
   73CHL1  H22B 6566   5.546   1.170   6.229 -0.8984  0.6136 -2.3305
   73CHL1   C23 6567   5.666   1.300   6.365 -0.3666  0.4851 -0.3987
   73CHL1  H23A 6568   5.759   1.279   6.308 -0.0539  0.4350  0.1246
   73CHL1  H23B 6569   5.653   1.405   6.397  0.6336 -0.1175  2.2991
   73CHL1   C24 6570   5.658   1.206   6.491 -0.0139 -0.1759 -0.1268
   73CHL1  H24A 6571   5.550   1.188   6.512 -0.1503 -0.8931 -1.3034
   73CHL1  H24B 6572   5.695   1.109   6.451 -1.5696 -0.7464 -0.2667
   73CHL1   C25 6573   5.744   1.255   6.608  0.4766 -0.1728  0.0897
   73CHL1   H25 6574   5.848   1.261   6.569  0.7344  0.1515  0.8178
   73CHL1   C26 6575   5.711   1.399   6.649  0.1598  0.3821  0.3579
   73CHL1  H26A 6576   5.780   1.426   6.731 -0.0991  0.2463  0.6242
   73CHL1  H26B 6577   5.720   1.484   6.578 -0.3355 -0.6040 -0.9146
   73CHL1  H26C 6578   5.612   1.400   6.701 -0.4024  0.3313 -0.6864
   73CHL1   C27 6579   5.726   1.166   6.733 -0.1613  0.0370 -0.0372
   73CHL1  H27A 6580   5.792   1.213   6.809 -0.5277 -0.4409  0.5822
   73CHL1  H27B 6581   5.624   1.157   6.775 -0.2139  0.2759 -0.1135
   73CHL1  H27C 6582   5.773   1.069   6.705  0.5780  0.1736  0.6919
   74CHL1    C3 6583   6.122   0.657   5.305 -0.5154  0.3897 -0.2745
   74CHL1    H3 6584   6.028   0.624   5.354  0.7782 -1.3603  1.1683
   74CHL1    O3 6585   6.114   0.650   5.161  1.0552  0.4881 -0.3015
   74CHL1   H3' 6586   6.206   0.648   5.133  0.7664  3.3302 -1.8529
   74CHL1    C4 6587   6.174   0.793   5.350  0.2800 -0.0798 -0.3698
   74CHL1   H4A 6588   6.254   0.821   5.279  1.2632  0.4427  0.8911
   74CHL1   H4B 6589   6.089   0.860   5.326  0.0382 -0.4789 -0.6370
   74CHL1    C5 6590   6.211   0.804   5.495  0.3354 -0.2072  0.2407
   74CHL1    C6 6591   6.143   0.889   5.577  0.6288  0.0176  1.4580
   74CHL1    H6 6592   6.076   0.963   5.531  0.9838 -0.1926  0.5818
   74CHL1    C7 6593   6.151   0.902   5.723 -0.2785  0.1354  0.1392
   74CHL1   H7A 6594   6.156   1.011   5.741 -0.1075  0.3148 -0.9355
   74CHL1   H7B 6595   6.057   0.858   5.762  0.3237 -2.6945 -1.3210
   74CHL1    C8 6596   6.273   0.826   5.774 -0.2756 -0.2765  0.0462
   74CHL1    H8 6597   6.358   0.892   5.746 -0.8196  1.0691  1.4409
   74CHL1   C14 6598   6.268   0.801   5.923  0.4436 -0.4909  0.3527
   74CHL1   H14 6599   6.186   0.727   5.932 -1.3420  1.2337 -0.7587
   74CHL1   C15 6600   6.215   0.914   6.013  0.1428  0.4016 -0.0100
   74CHL1  H15A 6601   6.266   1.010   5.989  1.9129 -0.2143  1.1319
   74CHL1  H15B 6602   6.104   0.918   6.019  0.2377  1.5508  2.4953
   74CHL1   C16 6603   6.268   0.878   6.154 -0.2285 -0.3679  0.7079
   74CHL1  H16A 6604   6.320   0.973   6.181 -1.5528  1.0984 -1.5604
   74CHL1  H16B 6605   6.186   0.861   6.227 -1.0570 -1.0810 -0.3481
   74CHL1   C17 6606   6.356   0.757   6.136  0.4570  0.3999  0.4925
   74CHL1   H17 6607   6.290   0.669   6.150  1.9526 -0.5545  1.8836
   74CHL1   C13 6608   6.393   0.745   5.986  0.0018  0.3851 -0.2071
   74CHL1   C18 6609   6.509   0.836   5.964  0.4837  0.1794 -0.6074
   74CHL1  H18A 6610   6.539   0.833   5.857  2.1018  0.5909 -0.1920
   74CHL1  H18B 6611   6.487   0.938   6.003  0.4580 -0.3283  0.7479
   74CHL1  H18C 6612   6.607   0.804   6.005 -0.5918  0.0276  1.9924
   74CHL1   C12 6613   6.420   0.608   5.923  0.1473  0.2744 -0.0482
   74CHL1  H12A 6614   6.520   0.571   5.955  0.2757  0.5458 -0.1362
   74CHL1  H12B 6615   6.338   0.536   5.945 -0.1013  1.2553  2.5742
   74CHL1   C11 6616   6.412   0.608   5.765 -0.6488 -0.2569  0.2946
   74CHL1  H11A 6617   6.505   0.653   5.725 -0.4249 -0.9652  0.0073
   74CHL1  H11B 6618   6.400   0.507   5.721 -2.1239 -0.3369  0.7973
   74CHL1    C9 6619   6.294   0.687   5.711  0.2991  0.5629  0.4784
   74CHL1    H9 6620   6.202   0.632   5.739 -0.9432  1.9558 -0.6610
   74CHL1   C10 6621   6.298   0.693   5.552  0.0549 -0.2923  0.3367
   74CHL1   C19 6622   6.443   0.720   5.501 -0.1877  0.2944  0.5419
   74CHL1  H19A 6623   6.441   0.754   5.395  1.8220  0.9322  0.6539
   74CHL1  H19B 6624   6.501   0.801   5.551  1.0353  1.1607 -2.0807
   74CHL1  H19C 6625   6.505   0.628   5.508  1.3550  1.3074  0.7604
   74CHL1    C1 6626   6.247   0.552   5.497 -0.3696 -0.0549 -0.5097
   74CHL1   H1A 6627   6.317   0.469   5.524  0.8206  0.5379 -1.6775
   74CHL1   H1B 6628   6.150   0.525   5.544 -0.9875  2.7511  0.0029
   74CHL1    C2 6629   6.229   0.552   5.340 -0.4829 -1.1407 -0.4446
   74CHL1   H2A 6630   6.190   0.450   5.324  1.6818 -2.2322  0.8109
   74CHL1   H2B 6631   6.325   0.571   5.286 -0.9332 -0.8657 -1.1683
   74CHL1   C20 6632   6.457   0.740   6.241 -0.3932 -0.5711 -0.3286
   74CHL1   H20 6633   6.538   0.814   6.227 -0.0081 -0.6318  1.3888
   74CHL1   C21 6634   6.531   0.603   6.224 -0.3511  0.8068 -0.8658
   74CHL1  H21A 6635   6.582   0.586   6.127  0.6787 -0.3104 -0.1504
   74CHL1  H21B 6636   6.461   0.518   6.240 -0.6707  1.3413  0.7610
   74CHL1  H21C 6637   6.616   0.588   6.294  0.1582  3.3944 -0.8281
   74CHL1   C22 6638   6.408   0.749   6.391  0.2198 -0.3508 -0.0486
   74CHL1  H22A 6639   6.341   0.835   6.413  1.9379  0.8532  0.7851
   74CHL1  H22B 6640   6.361   0.654   6.424 -1.2930  1.3673  3.2433
   74CHL1   C23 6641   6.526   0.757   6.488  0.4497 -0.5474  0.2775
   74CHL1  H23A 6642   6.607   0.686   6.461 -0.0182 -0.3679 -1.8171
   74CHL1  H23B 6643   6.572   0.858   6.480 -1.4614  0.5510  2.0453
   74CHL1   C24 6644   6.482   0.735   6.633  0.0722 -0.0959 -0.6294
   74CHL1  H24A 6645   6.405   0.809   6.665 -0.8864 -0.2256 -2.4859
   74CHL1  H24B 6646   6.439   0.634   6.642  1.9459 -0.9380 -0.5846
   74CHL1   C25 6647   6.597   0.746   6.738  0.0179  0.2992  0.4564
   74CHL1   H25 6648   6.684   0.687   6.703 -0.0822  0.2605  0.2724
   74CHL1   C26 6649   6.658   0.884   6.752  0.0312 -1.0497 -0.6018
   74CHL1  H26A 6650   6.690   0.922   6.653 -0.7138 -0.8970 -0.7905
   74CHL1  H26B 6651   6.583   0.953   6.796  1.7050  0.5216 -0.0965
   74CHL1  H26C 6652   6.747   0.894   6.817 -0.9153  2.1422  0.3914
   74CHL1   C27 6653   6.553   0.689   6.881 -0.0897 -0.4236 -0.6129
   74CHL1  H27A 6654   6.526   0.582   6.867  0.9604 -0.9726  1.2860
   74CHL1  H27B 6655   6.642   0.697   6.947  0.1745  1.3792 -1.1392
   74CHL1  H27C 6656   6.470   0.750   6.922  1.6177  2.3756 -1.0279
   75CHL1    C3 6657   2.719   6.343   4.929  0.4260  0.7814  0.2025
   75CHL1    H3 6658   2.681   6.239   4.931  0.2885  0.8439  1.3308
   75CHL1    O3 6659   2.755   6.354   4.790 -0.5412 -0.5074  0.5761
   75CHL1   H3' 6660   2.770   6.446   4.765  0.0842 -0.5797  0.6713
   75CHL1    C4 6661   2.607   6.443   4.959  0.5921 -0.1027 -0.3755
   75CHL1   H4A 6662   2.639   6.545   4.927 -1.4247  1.6516  2.5762
   75CHL1   H4B 6663   2.525   6.418   4.889  1.4728 -0.9264 -1.1252
   75CHL1    C5 6664   2.566   6.454   5.102 -0.0143  0.4371  0.1805
   75CHL1    C6 6665   2.441   6.430   5.138  0.3615 -0.8829  0.0615
   75CHL1    H6 6666   2.363   6.422   5.060 -0.2692  2.5927  0.1460
   75CHL1    C7 6667   2.386   6.432   5.273 -0.8650 -0.0152  0.0891
   75CHL1   H7A 6668   2.302   6.505   5.280  0.4841  1.6885 -0.5711
   75CHL1   H7B 6669   2.364   6.327   5.302  0.6987  0.3108  2.7381
   75CHL1    C8 6670   2.496   6.494   5.370  0.1762 -0.4973  0.2521
   75CHL1    H8 6671   2.492   6.602   5.346 -0.3615 -0.3603  0.9545
   75CHL1   C14 6672   2.462   6.473   5.521  0.2871 -0.4728  0.3895
   75CHL1   H14 6673   2.458   6.363   5.536 -3.0109 -0.4288  0.6528
   75CHL1   C15 6674   2.320   6.506   5.572  0.1584  0.2858  0.3498
   75CHL1  H15A 6675   2.285   6.604   5.533  2.1986  0.1311 -2.1239
   75CHL1  H15B 6676   2.249   6.431   5.531 -1.6062  1.9576  0.1738
   75CHL1   C16 6677   2.342   6.511   5.722  0.3563 -0.9072 -0.0465
   75CHL1  H16A 6678   2.310   6.608   5.766 -1.3330 -0.9083 -1.1710
   75CHL1  H16B 6679   2.276   6.434   5.767 -0.8851  0.0110 -0.2570
   75CHL1   C17 6680   2.494   6.487   5.750  0.4173  0.0548 -0.3501
   75CHL1   H17 6681   2.483   6.377   5.751 -0.8421  0.1691  0.7181
   75CHL1   C13 6682   2.564   6.528   5.624  0.3881  0.3600  0.1581
   75CHL1   C18 6683   2.566   6.685   5.615 -0.5355  0.5958  0.0884
   75CHL1  H18A 6684   2.642   6.716   5.690  1.0605  0.6354 -1.4784
   75CHL1  H18B 6685   2.585   6.716   5.510 -0.2802  0.4100  0.0791
   75CHL1  H18C 6686   2.465   6.725   5.637 -1.7183 -0.4482 -2.9014
   75CHL1   C12 6687   2.702   6.459   5.589 -0.1377 -0.6517  1.3860
   75CHL1  H12A 6688   2.770   6.485   5.672 -1.1911  0.1599  2.0169
   75CHL1  H12B 6689   2.703   6.348   5.589  0.8674 -0.6515  1.0640
   75CHL1   C11 6690   2.745   6.507   5.445  0.4856 -0.4104 -0.1389
   75CHL1  H11A 6691   2.747   6.618   5.435  0.3548 -0.6302 -3.5272
   75CHL1  H11B 6692   2.849   6.476   5.418  0.0792 -1.7245 -0.2673
   75CHL1    C9 6693   2.639   6.450   5.341 -0.6019 -0.1985 -0.3930
   75CHL1    H9 6694   2.638   6.339   5.349 -0.3640 -0.1438  0.4947
   75CHL1   C10 6695   2.685   6.477   5.196 -0.5874 -0.3458 -0.3297
   75CHL1   C19 6696   2.729   6.626   5.187 -0.4968 -0.0665  0.6680
   75CHL1  H19A 6697   2.652   6.692   5.233 -2.5785 -0.4435 -2.0640
   75CHL1  H19B 6698   2.827   6.654   5.233 -1.2258  2.3766  0.9004
   75CHL1  H19C 6699   2.744   6.651   5.080 -0.9255  1.2302  0.8895
   75CHL1    C1 6700   2.808   6.390   5.160  0.1072  0.3770 -0.0335
   75CHL1   H1A 6701   2.900   6.421   5.214  0.5066  0.7535 -0.9012
   75CHL1   H1B 6702   2.784   6.290   5.202 -0.5449  0.5178 -0.0630
   75CHL1    C2 6703   2.839   6.372   5.013  0.4308  0.1815 -0.1503
   75CHL1   H2A 6704   2.910   6.294   4.980 -2.2086 -1.6616 -1.8815
   75CHL1   H2B 6705   2.889   6.468   4.985  0.0127  0.0091 -1.5893
   75CHL1   C20 6706   2.549   6.541   5.887  0.0641  0.3096 -0.8737
   75CHL1   H20 6707   2.555   6.652   5.885  0.8976  0.2985  0.1823
   75CHL1   C21 6708   2.682   6.478   5.922 -0.4465 -0.7523 -0.0608
   75CHL1  H21A 6709   2.710   6.489   6.029  0.3130  2.4515 -0.4827
   75CHL1  H21B 6710   2.767   6.526   5.870 -0.8930  0.7049  0.4809
   75CHL1  H21C 6711   2.687   6.371   5.894  1.4559 -0.6725 -0.1530
   75CHL1   C22 6712   2.442   6.520   6.009 -0.2714 -1.0617 -0.0646
   75CHL1  H22A 6713   2.357   6.585   5.981  0.3581 -0.2479 -0.1204
   75CHL1  H22B 6714   2.405   6.416   6.003  2.4261 -2.1916  1.0557
   75CHL1   C23 6715   2.487   6.568   6.147 -0.7322  0.2911  0.2019
   75CHL1  H23A 6716   2.565   6.497   6.183 -1.8731 -0.8516  0.5260
   75CHL1  H23B 6717   2.526   6.671   6.131 -0.4246 -0.0709 -1.5897
   75CHL1   C24 6718   2.394   6.560   6.271 -0.0445  0.2322 -0.1828
   75CHL1  H24A 6719   2.298   6.614   6.254 -0.0411  0.7700  1.3255
   75CHL1  H24B 6720   2.363   6.455   6.290  2.3211 -1.0251 -2.5948
   75CHL1   C25 6721   2.463   6.607   6.407 -0.3139  0.3698  0.8053
   75CHL1   H25 6722   2.556   6.545   6.411  0.8402  1.5957 -2.8502
   75CHL1   C26 6723   2.490   6.758   6.416 -0.7007  0.2237  0.1889
   75CHL1  H26A 6724   2.537   6.758   6.517  0.0645  1.7379 -0.1420
   75CHL1  H26B 6725   2.563   6.797   6.342 -1.4702  0.6969 -0.3272
   75CHL1  H26C 6726   2.401   6.824   6.414 -0.6035  0.3411 -0.4302
   75CHL1   C27 6727   2.371   6.555   6.522  0.0285  0.3238 -0.5262
   75CHL1  H27A 6728   2.423   6.570   6.619  0.0822 -0.8928 -0.3561
   75CHL1  H27B 6729   2.273   6.606   6.535 -0.0593  0.7683 -2.6959
   75CHL1  H27C 6730   2.353   6.446   6.513 -0.4806  0.2209  1.3219
   76CHL1    C3 6731   5.841   1.231   8.535 -0.0302  0.3911 -0.4199
   76CHL1    H3 6732   5.921   1.156   8.515  0.6665  1.0338 -0.0791
   76CHL1    O3 6733   5.818   1.218   8.670  0.0509  0.2108  0.1204
   76CHL1   H3' 6734   5.751   1.284   8.689  0.5316  0.7039  0.1735
   76CHL1    C4 6735   5.880   1.372   8.499  0.4002 -0.0299 -0.4910
   76CHL1   H4A 6736   5.802   1.436   8.546 -0.5165 -3.0057  2.4603
   76CHL1   H4B 6737   5.965   1.414   8.555 -1.5024  2.6105  0.6143
   76CHL1    C5 6738   5.871   1.396   8.347 -0.7531 -0.4877  0.2056
   76CHL1    C6 6739   5.974   1.463   8.284  0.1463 -0.3440  0.4675
   76CHL1    H6 6740   6.054   1.507   8.345 -1.5719  2.1296  1.0932
   76CHL1    C7 6741   5.988   1.496   8.138 -0.1836 -0.1110  0.6027
   76CHL1   H7A 6742   6.027   1.598   8.117  0.8130 -0.3063  1.3981
   76CHL1   H7B 6743   6.062   1.425   8.094  0.7474  0.7663  0.7006
   76CHL1    C8 6744   5.856   1.488   8.061 -0.0746 -0.0413 -0.0430
   76CHL1    H8 6745   5.802   1.583   8.079  2.2357  1.0132  1.9971
   76CHL1   C14 6746   5.886   1.480   7.912 -0.5169 -0.2391  0.1911
   76CHL1   H14 6747   5.955   1.393   7.899 -0.6277 -0.4045  0.7150
   76CHL1   C15 6748   5.954   1.599   7.851  0.2422 -0.2667  1.5635
   76CHL1  H15A 6749   5.907   1.693   7.884  0.1881 -0.7237  2.8497
   76CHL1  H15B 6750   6.060   1.615   7.880  0.3069  2.0215  0.2740
   76CHL1   C16 6751   5.936   1.570   7.690 -0.2092 -0.8112 -0.6026
   76CHL1  H16A 6752   5.913   1.673   7.655 -0.0643 -0.7063 -0.3934
   76CHL1  H16B 6753   6.027   1.523   7.648 -1.1701 -0.8813 -2.7372
   76CHL1   C17 6754   5.812   1.475   7.684  0.0579 -0.5311 -0.0902
   76CHL1   H17 6755   5.854   1.373   7.670 -3.2062 -1.8859 -0.8473
   76CHL1   C13 6756   5.756   1.457   7.828  0.1140 -0.7589 -0.1447
   76CHL1   C18 6757   5.645   1.562   7.845  0.0116 -0.3397  0.4983
   76CHL1  H18A 6758   5.562   1.565   7.772 -1.3431  1.5852  1.9927
   76CHL1  H18B 6759   5.589   1.559   7.941  1.0416 -1.9716  1.1029
   76CHL1  H18C 6760   5.685   1.666   7.837 -1.6972  0.4758  1.9984
   76CHL1   C12 6761   5.708   1.318   7.870 -0.1543 -0.5823 -0.2377
   76CHL1  H12A 6762   5.627   1.285   7.801  1.1881 -2.1921 -1.1116
   76CHL1  H12B 6763   5.791   1.248   7.845 -0.1603 -0.1334 -1.5867
   76CHL1   C11 6764   5.673   1.308   8.022 -0.3642 -1.1008 -0.2550
   76CHL1  H11A 6765   5.583   1.371   8.035  0.1758 -0.1885 -0.8127
   76CHL1  H11B 6766   5.651   1.202   8.046  0.4491 -1.5169 -1.2763
   76CHL1    C9 6767   5.784   1.360   8.108  0.0574  0.3496 -0.0257
   76CHL1    H9 6768   5.859   1.279   8.093  0.8422  1.4272 -2.2443
   76CHL1   C10 6769   5.750   1.355   8.261  0.5029 -0.1008 -0.1182
   76CHL1   C19 6770   5.638   1.456   8.291 -0.3533  0.8400  0.0603
   76CHL1  H19A 6771   5.623   1.472   8.400  2.5353 -0.3180  0.7383
   76CHL1  H19B 6772   5.657   1.553   8.241 -1.4153  0.1451 -1.7934
   76CHL1  H19C 6773   5.543   1.424   8.243  0.5809 -0.2257 -1.1686
   76CHL1    C1 6774   5.713   1.209   8.299 -0.2346 -0.5424 -0.2061
   76CHL1   H1A 6775   5.614   1.182   8.257  0.2474 -1.9620 -0.4939
   76CHL1   H1B 6776   5.793   1.138   8.267  1.2912  0.5354  1.0614
   76CHL1    C2 6777   5.717   1.186   8.459  0.8606 -0.3032 -0.6092
   76CHL1   H2A 6778   5.690   1.083   8.489  0.9885  0.3070  1.8471
   76CHL1   H2B 6779   5.633   1.249   8.498  1.3226  1.0382 -1.6961
   76CHL1   C20 6780   5.728   1.499   7.558  0.2029  0.7737  0.8339
   76CHL1   H20 6781   5.654   1.581   7.575  0.7346  1.3848  0.2285
   76CHL1   C21 6782   5.651   1.369   7.525 -0.4856 -0.0831  0.4556
   76CHL1  H21A 6783   5.718   1.280   7.528 -0.3766 -0.1615 -1.9709
   76CHL1  H21B 6784   5.602   1.376   7.425  1.7994  1.6793 -0.6383
   76CHL1  H21C 6785   5.573   1.359   7.603  1.3376 -0.8818  2.2512
   76CHL1   C22 6786   5.814   1.546   7.433 -0.2611 -0.0956 -0.8561
   76CHL1  H22A 6787   5.876   1.634   7.458  0.6031 -0.5885 -1.2109
   76CHL1  H22B 6788   5.900   1.478   7.412 -0.1263 -0.2957  0.2756
   76CHL1   C23 6789   5.734   1.577   7.311 -0.0073 -0.6122  0.9714
   76CHL1  H23A 6790   5.670   1.488   7.287 -0.5071  0.4291 -1.9724
   76CHL1  H23B 6791   5.675   1.670   7.327  2.0721  0.6325  1.7009
   76CHL1   C24 6792   5.833   1.609   7.194  0.4014  1.3730  0.6053
   76CHL1  H24A 6793   5.896   1.699   7.204  1.3161  1.6499 -4.5696
   76CHL1  H24B 6794   5.905   1.525   7.186 -0.8541  0.1870  1.1418
   76CHL1   C25 6795   5.756   1.640   7.061 -0.5006 -0.0625  1.3081
   76CHL1   H25 6796   5.672   1.704   7.094 -0.5526  0.2235  0.6312
   76CHL1   C26 6797   5.851   1.724   6.967  0.8833  0.0112  0.8351
   76CHL1  H26A 6798   5.799   1.756   6.874 -0.0180  0.1943  1.3944
   76CHL1  H26B 6799   5.892   1.814   7.018 -2.0074  1.7102  0.3725
   76CHL1  H26C 6800   5.937   1.659   6.938  0.1564 -0.5336 -0.1923
   76CHL1   C27 6801   5.698   1.519   6.984  0.1848  0.2705 -0.0246
   76CHL1  H27A 6802   5.781   1.449   6.962  1.9888  1.3769  2.7808
   76CHL1  H27B 6803   5.620   1.461   7.038 -0.9063 -0.9932 -2.7135
   76CHL1  H27C 6804   5.644   1.547   6.890 -2.7788 -0.0877  1.4460
   77SOPE     N 6805   3.119   1.627   0.138 -0.0047 -0.4084  0.3024
   77SOPE   HN1 6806   3.142   1.728   0.128 -0.4869 -0.1902  1.3372
   77SOPE   HN2 6807   3.208   1.580   0.161  1.8952  2.1548 -1.2279
   77SOPE   HN3 6808   3.096   1.588   0.044  2.9544 -3.0922  0.5517
   77SOPE   C12 6809   3.006   1.602   0.241 -0.6440  0.5382 -0.0635
   77SOPE  H12A 6810   2.915   1.621   0.180 -0.5576 -2.1742 -1.1522
   77SOPE  H12B 6811   3.020   1.663   0.333 -1.3739  2.9326 -1.4320
   77SOPE   C11 6812   2.988   1.450   0.272  0.1450 -0.0920  0.4417
   77SOPE  H11A 6813   2.888   1.432   0.318  0.4073  0.5893  1.3123
   77SOPE  H11B 6814   3.063   1.426   0.351 -0.5563  1.6078  1.6885
   77SOPE     P 6815   2.921   1.247   0.109  0.2149  0.0857 -0.0984
   77SOPE   O13 6816   2.799   1.318   0.059  0.6818  0.4951 -1.0074
   77SOPE   O14 6817   2.900   1.146   0.215  0.0804  0.0100  0.4182
   77SOPE   O12 6818   3.016   1.361   0.165  0.3189  0.6818 -0.4293
   77SOPE   O11 6819   3.003   1.186  -0.013 -0.0006 -0.4598  0.2406
   77SOPE    C1 6820   3.113   1.250  -0.072 -0.5018  0.6608 -0.5855
   77SOPE    HA 6821   3.179   1.302   0.000  0.2673  2.5026 -2.5099
   77SOPE    HB 6822   3.075   1.331  -0.138 -0.9301  0.3473 -0.7251
   77SOPE    C2 6823   3.203   1.154  -0.149 -0.2943 -0.1747  0.0909
   77SOPE    HS 6824   3.279   1.218  -0.197 -0.8715  0.2118 -0.3230
   77SOPE   O21 6825   3.127   1.087  -0.250 -0.0164  0.2695 -0.2117
   77SOPE   C21 6826   3.080   1.154  -0.355  0.6998 -0.7091  1.2000
   77SOPE   O22 6827   3.086   1.274  -0.377  0.1379  0.0610  0.3929
   77SOPE   C22 6828   3.008   1.054  -0.453 -0.0578 -0.3160  0.4201
   77SOPE   H2R 6829   2.928   1.002  -0.395 -1.3107 -0.6835 -1.5666
   77SOPE   H2S 6830   3.087   0.983  -0.486 -0.0530 -1.0987  2.0107
   77SOPE    C3 6831   3.262   1.038  -0.063 -0.0782 -0.3500  0.5721
   77SOPE    HX 6832   3.182   0.962  -0.055 -0.4735 -0.0058  0.0245
   77SOPE    HY 6833   3.282   1.092   0.032 -3.0342 -0.9080  1.6126
   77SOPE   O31 6834   3.379   0.988  -0.108  0.1435 -0.3553 -0.0381
   77SOPE   C31 6835   3.439   0.908  -0.017  0.3571 -0.5514 -0.4489
   77SOPE   O32 6836   3.389   0.881   0.091 -0.2407  0.2484  0.0118
   77SOPE   C32 6837   3.576   0.861  -0.066  0.3230 -0.2423  0.1881
   77SOPE   H2X 6838   3.576   0.753  -0.040  2.9018  0.2143  2.5811
   77SOPE   H2Y 6839   3.650   0.909   0.001 -0.0987  2.0910 -0.9363
   77SOPE   C23 6840   2.942   1.128  -0.574 -0.2058  0.5815  0.3578
   77SOPE   H3R 6841   2.879   1.217  -0.553  0.5753  1.8464 -2.2261
   77SOPE   H3S 6842   2.874   1.062  -0.632 -0.3874  0.0528  1.1513
   77SOPE   C24 6843   3.055   1.181  -0.672 -0.4981  0.1562 -0.2124
   77SOPE   H4R 6844   3.111   1.271  -0.636 -0.4825 -0.2622  0.8517
   77SOPE   H4S 6845   3.132   1.102  -0.664 -1.4110 -0.6098  1.3731
   77SOPE   C25 6846   2.996   1.197  -0.808 -0.3731 -0.3513 -0.2376
   77SOPE   H5R 6847   2.998   1.108  -0.875  2.4830 -0.3622 -0.2439
   77SOPE   H5S 6848   2.889   1.223  -0.789 -0.6324 -2.1415  0.9664
   77SOPE   C26 6849   3.059   1.319  -0.882  0.3193  0.0613  0.2175
   77SOPE   H6R 6850   3.038   1.410  -0.822 -1.7480 -1.2048  1.5660
   77SOPE   H6S 6851   3.166   1.295  -0.899  0.2098 -0.6729  0.4916
   77SOPE   C27 6852   2.997   1.343  -1.018 -0.4788  0.1955 -0.1625
   77SOPE   H7R 6853   2.980   1.245  -1.067 -0.4589 -2.1529  4.0369
   77SOPE   H7S 6854   2.898   1.389  -0.994  0.2120  0.2791  2.9832
   77SOPE   C28 6855   3.082   1.443  -1.100  0.3013 -0.1119 -0.0381
   77SOPE   H8R 6856   3.060   1.545  -1.060 -0.7032 -0.4953  0.4293
   77SOPE   H8S 6857   3.191   1.431  -1.082  0.3338  0.7793  0.4500
   77SOPE   C29 6858   3.059   1.448  -1.247  0.2342 -0.5411  0.7326
   77SOPE   H91 6859   3.133   1.395  -1.309 -0.0157  0.8682 -0.8387
   77SOPE  C210 6860   2.961   1.507  -1.319  0.2798 -0.1696 -0.6441
   77SOPE  H101 6861   2.969   1.492  -1.428  1.0793  0.5438 -0.6928
   77SOPE  C211 6862   2.855   1.590  -1.263 -0.9281  0.1703  0.6389
   77SOPE  H11R 6863   2.862   1.693  -1.305  2.7081  0.4655  1.6483
   77SOPE  H11S 6864   2.867   1.585  -1.153 -1.3990  1.2025  0.7527
   77SOPE  C212 6865   2.718   1.522  -1.290  0.1982  0.8891 -0.3669
   77SOPE  H12R 6866   2.712   1.500  -1.399  0.9974  2.3033 -0.7214
   77SOPE  H12S 6867   2.632   1.587  -1.266 -0.4616 -0.2728  0.5273
   77SOPE  C213 6868   2.701   1.399  -1.197 -0.3381 -0.4728  0.7852
   77SOPE  H13R 6869   2.709   1.408  -1.086  2.6463  1.2805  0.5385
   77SOPE  H13S 6870   2.762   1.312  -1.233 -2.7949 -1.4251 -1.3795
   77SOPE  C214 6871   2.561   1.342  -1.217 -0.4724 -0.8313  0.4712
   77SOPE  H14R 6872   2.542   1.248  -1.160  0.3342 -0.4969  1.3074
   77SOPE  H14S 6873   2.537   1.330  -1.325  1.1959 -1.6415  0.1533
   77SOPE  C215 6874   2.446   1.422  -1.150 -0.3592  0.1749 -0.4491
   77SOPE  H15R 6875   2.434   1.522  -1.198 -0.4025  0.2058 -0.3738
   77SOPE  H15S 6876   2.467   1.434  -1.042 -1.8008 -3.5467  0.3910
   77SOPE  C216 6877   2.312   1.348  -1.167  0.1774 -0.1830  0.0895
   77SOPE  H16R 6878   2.236   1.379  -1.092  1.1648 -0.2120  1.1378
   77SOPE  H16S 6879   2.333   1.238  -1.166 -1.5084 -0.5287  0.0600
   77SOPE  C217 6880   2.249   1.358  -1.315 -1.2301 -0.0161 -0.4056
   77SOPE  H17R 6881   2.327   1.355  -1.395 -2.5852  1.3577 -1.8475
   77SOPE  H17S 6882   2.205   1.460  -1.307  0.6906  0.7790  0.7201
   77SOPE  C218 6883   2.149   1.242  -1.353 -0.4973  0.0701  0.8177
   77SOPE  H18R 6884   2.197   1.143  -1.343  2.1746  1.1821 -0.2491
   77SOPE  H18S 6885   2.122   1.256  -1.460 -0.2831  0.0171  0.7577
   77SOPE  H18T 6886   2.053   1.237  -1.296 -1.1514 -0.1406 -0.2646
   77SOPE   C33 6887   3.612   0.904  -0.211  0.4590 -0.1617  0.4226
   77SOPE   H3X 6888   3.660   1.003  -0.201  0.8125 -0.2323 -0.5105
   77SOPE   H3Y 6889   3.521   0.925  -0.271 -0.4959  2.2908  2.5577
   77SOPE   C34 6890   3.703   0.803  -0.280  0.4496  0.0378 -0.1315
   77SOPE   H4X 6891   3.640   0.711  -0.286 -0.2292  0.5517 -1.5396
   77SOPE   H4Y 6892   3.796   0.784  -0.223  0.3442  2.5838  1.0208
   77SOPE   C35 6893   3.732   0.837  -0.420 -0.5388  0.8010 -0.3300
   77SOPE   H5X 6894   3.807   0.919  -0.415 -0.3883  0.5947  1.3212
   77SOPE   H5Y 6895   3.642   0.890  -0.461 -1.4272 -0.3330  0.1084
   77SOPE   C36 6896   3.781   0.723  -0.513 -0.4261  0.0046  0.2516
   77SOPE   H6X 6897   3.699   0.650  -0.527 -1.1097  1.1411 -2.1498
   77SOPE   H6Y 6898   3.868   0.667  -0.472 -0.5175 -0.8964 -0.7650
   77SOPE   C37 6899   3.817   0.783  -0.653 -0.3552 -0.4626  1.2257
   77SOPE   H7X 6900   3.872   0.876  -0.628 -0.7842 -0.5462  2.5448
   77SOPE   H7Y 6901   3.727   0.816  -0.709  0.2828  1.0050  1.0306
   77SOPE   C38 6902   3.902   0.693  -0.751  0.3203 -0.3715 -0.2981
   77SOPE   H8X 6903   3.859   0.591  -0.745 -1.0098  0.1433 -0.5436
   77SOPE   H8Y 6904   4.004   0.688  -0.709 -0.1539 -1.6121  0.7933
   77SOPE   C39 6905   3.920   0.730  -0.899 -0.1762 -1.0126  0.4260
   77SOPE   H9X 6906   3.969   0.828  -0.920 -0.6739 -0.7986  0.2491
   77SOPE   H9Y 6907   3.815   0.746  -0.932 -0.8358 -1.6422  2.0918
   77SOPE  C310 6908   3.985   0.618  -0.975 -0.1466 -0.0694  1.3225
   77SOPE  H10X 6909   3.952   0.517  -0.941 -4.2541  1.7403  3.4065
   77SOPE  H10Y 6910   4.093   0.623  -0.951  0.2193 -1.7936  0.2496
   77SOPE  C311 6911   3.962   0.631  -1.126 -0.4003  0.1894  0.3515
   77SOPE  H11X 6912   4.001   0.724  -1.173 -0.6479  0.2269  0.2201
   77SOPE  H11Y 6913   3.852   0.630  -1.138 -0.1862  0.1011 -2.2594
   77SOPE  C312 6914   4.023   0.511  -1.198  0.5762  0.0508  0.5134
   77SOPE  H12X 6915   3.988   0.413  -1.159  1.9339 -0.5069  0.4111
   77SOPE  H12Y 6916   4.133   0.521  -1.188  0.7397 -2.7883  2.9973
   77SOPE  C313 6917   3.979   0.500  -1.349 -0.4918  0.4403 -0.3877
   77SOPE  H13X 6918   3.997   0.595  -1.405 -0.3292  1.6686  1.6687
   77SOPE  H13Y 6919   3.871   0.486  -1.370 -0.1354 -2.1746 -0.7451
   77SOPE  C314 6920   4.055   0.389  -1.423  0.5004  0.4201  0.5287
   77SOPE  H14X 6921   4.050   0.292  -1.369 -1.1772  0.6274  0.8190
   77SOPE  H14Y 6922   4.163   0.412  -1.431  0.5175 -0.1146 -1.1680
   77SOPE  C315 6923   4.012   0.388  -1.573  0.1486  0.1904  0.0370
   77SOPE  H15X 6924   3.903   0.409  -1.583  0.2227  0.9007  0.6559
   77SOPE  H15Y 6925   4.024   0.280  -1.595 -0.2516 -0.0897  1.1175
   77SOPE  C316 6926   4.093   0.471  -1.671 -0.2428  0.3312  0.0641
   77SOPE  H16X 6927   4.202   0.470  -1.650 -0.4553  1.2762  1.3756
   77SOPE  H16Y 6928   4.072   0.579  -1.650  1.7528  0.4832  1.5706
   77SOPE  C317 6929   4.059   0.431  -1.816 -0.1287  0.3064 -0.5872
   77SOPE  H17X 6930   3.949   0.428  -1.829 -0.4647  0.0934  1.9088
   77SOPE  H17Y 6931   4.118   0.339  -1.835 -0.2341 -0.3206  1.7961
   77SOPE  C318 6932   4.120   0.534  -1.908 -0.1430  0.5146  0.0919
   77SOPE  H18X 6933   4.225   0.559  -1.879 -0.2995  2.4052 -0.8238
   77SOPE  H18Y 6934   4.059   0.626  -1.904  1.1658  1.4029  0.5578
   77SOPE  H18Z 6935   4.120   0.497  -2.013  1.8222  1.5036 -0.3125
   78SOPE     N 6936   2.832   0.144   0.410 -0.5955  0.0444  0.0003
   78SOPE   HN1 6937   2.887   0.189   0.486  0.5592 -1.9737  0.4265
   78SOPE   HN2 6938   2.858   0.195   0.323 -0.4281  2.1353  1.2077
   78SOPE   HN3 6939   2.730   0.148   0.430 -0.3622 -1.1313  1.6191
   78SOPE   C12 6940   2.892   0.007   0.377  0.0168 -0.1400 -0.0039
   78SOPE  H12A 6941   2.868  -0.055   0.466  2.3281 -1.2626 -0.0743
   78SOPE  H12B 6942   3.003   0.017   0.371  0.1388  0.3608  2.0624
   78SOPE   C11 6943   2.823  -0.046   0.253 -0.9241 -0.0078 -0.7072
   78SOPE  H11A 6944   2.806   0.025   0.170 -0.4906 -0.8507 -1.5337
   78SOPE  H11B 6945   2.721  -0.080   0.282 -1.1176  1.7182  0.7955
   78SOPE     P 6946   2.966  -0.179   0.070 -0.1169  0.1060  0.1723
   78SOPE   O13 6947   2.974  -0.321   0.036 -0.7979  0.7446 -0.0065
   78SOPE   O14 6948   3.082  -0.086   0.081  0.3238  0.6849  0.4362
   78SOPE   O12 6949   2.890  -0.164   0.203 -0.7738  0.0553  0.0940
   78SOPE   O11 6950   2.866  -0.119  -0.034  0.7507 -0.6533 -0.5358
   78SOPE    C1 6951   2.736  -0.178  -0.051 -0.3928 -0.0812 -0.3552
   78SOPE    HA 6952   2.662  -0.099  -0.073 -0.7282 -0.0774  0.7370
   78SOPE    HB 6953   2.705  -0.230   0.042  1.2896  1.0667  0.9106
   78SOPE    C2 6954   2.733  -0.278  -0.165 -0.4384  0.4935 -1.3567
   78SOPE    HS 6955   2.778  -0.373  -0.127  0.1918  0.6453 -1.7065
   78SOPE   O21 6956   2.818  -0.221  -0.266 -0.1845 -0.4484  0.5243
   78SOPE   C21 6957   2.894  -0.304  -0.334 -0.8516  0.2193  0.5819
   78SOPE   O22 6958   2.906  -0.424  -0.308  0.4725  0.2704 -0.7284
   78SOPE   C22 6959   2.959  -0.229  -0.448 -0.2414  1.1175  0.2491
   78SOPE   H2R 6960   3.038  -0.161  -0.410 -0.5085  1.2432  0.5808
   78SOPE   H2S 6961   2.891  -0.158  -0.499  0.7926  2.6580  0.9143
   78SOPE    C3 6962   2.591  -0.306  -0.218  0.0487 -0.4882 -0.1966
   78SOPE    HX 6963   2.557  -0.212  -0.265 -3.1671 -0.1154  2.5477
   78SOPE    HY 6964   2.526  -0.316  -0.129  0.9467 -0.8011  0.4450
   78SOPE   O31 6965   2.575  -0.416  -0.312 -0.4045  0.2913 -0.1850
   78SOPE   C31 6966   2.579  -0.534  -0.251  0.0532  0.1274 -0.3051
   78SOPE   O32 6967   2.585  -0.553  -0.131  0.3793 -0.7641 -0.2260
   78SOPE   C32 6968   2.595  -0.648  -0.353 -0.3738 -0.2527  0.9084
   78SOPE   H2X 6969   2.500  -0.706  -0.356 -0.6973  0.2279  1.6035
   78SOPE   H2Y 6970   2.675  -0.716  -0.316  0.9549  1.3358  1.0878
   78SOPE   C23 6971   3.036  -0.313  -0.552 -0.5002 -0.1354  0.2975
   78SOPE   H3R 6972   2.955  -0.382  -0.585 -2.5841  2.6270 -0.7840
   78SOPE   H3S 6973   3.126  -0.359  -0.508 -1.3717 -2.0477  0.2083
   78SOPE   C24 6974   3.071  -0.240  -0.679  0.1919 -0.0096  0.0223
   78SOPE   H4R 6975   2.983  -0.205  -0.737  0.4825 -0.7772 -0.9078
   78SOPE   H4S 6976   3.136  -0.155  -0.649  1.7400 -1.4991  1.0348
   78SOPE   C25 6977   3.176  -0.323  -0.762  0.5645  0.1294 -0.4461
   78SOPE   H5R 6978   3.264  -0.352  -0.702  2.0155  1.2097 -1.9532
   78SOPE   H5S 6979   3.117  -0.408  -0.803 -0.7002  0.9391 -0.3609
   78SOPE   C26 6980   3.230  -0.244  -0.881  0.2453  0.0756  0.1052
   78SOPE   H6R 6981   3.150  -0.218  -0.955  0.3136  0.3661  0.1334
   78SOPE   H6S 6982   3.268  -0.147  -0.844 -0.5955  0.3705  0.2262
   78SOPE   C27 6983   3.349  -0.313  -0.949 -0.1026  0.2690  0.0466
   78SOPE   H7R 6984   3.429  -0.332  -0.874  0.2463 -1.0456 -0.6252
   78SOPE   H7S 6985   3.298  -0.407  -0.979  0.7960  0.3153 -1.7321
   78SOPE   C28 6986   3.401  -0.242  -1.077  0.2627  0.5012 -0.6890
   78SOPE   H8R 6987   3.448  -0.149  -1.039 -1.3332  0.8649  0.4859
   78SOPE   H8S 6988   3.483  -0.303  -1.121 -0.5095 -1.3261  0.2936
   78SOPE   C29 6989   3.294  -0.197  -1.174 -0.4415  0.8572  0.8532
   78SOPE   H91 6990   3.251  -0.103  -1.136 -1.5737  0.6869  0.0539
   78SOPE  C210 6991   3.262  -0.225  -1.298  0.0259 -0.0221  0.6692
   78SOPE  H101 6992   3.178  -0.169  -1.343  0.4757  0.2664  0.1772
   78SOPE  C211 6993   3.332  -0.322  -1.390  0.3364 -0.1437 -0.0348
   78SOPE  H11R 6994   3.281  -0.420  -1.402  2.1638 -1.6065  2.8511
   78SOPE  H11S 6995   3.434  -0.348  -1.353  0.0530 -2.9835 -1.0134
   78SOPE  C212 6996   3.360  -0.249  -1.526 -0.0803 -0.1212 -0.3772
   78SOPE  H12R 6997   3.449  -0.296  -1.573  0.1696  0.2192 -0.2451
   78SOPE  H12S 6998   3.379  -0.140  -1.519 -0.8472 -0.0601  1.3436
   78SOPE  C213 6999   3.243  -0.280  -1.626  0.3134  0.1931 -0.4155
   78SOPE  H13R 7000   3.141  -0.257  -1.586  0.0895  1.2677 -1.5501
   78SOPE  H13S 7001   3.245  -0.386  -1.656 -2.5028  0.7923 -3.1846
   78SOPE  C214 7002   3.261  -0.200  -1.764  0.2475  0.7326 -0.0527
   78SOPE  H14R 7003   3.369  -0.185  -1.786  0.2313 -0.7959 -1.4475
   78SOPE  H14S 7004   3.212  -0.102  -1.743 -0.7779  0.2029  0.1323
   78SOPE  C215 7005   3.196  -0.274  -1.892 -1.2169  0.4885  0.5188
   78SOPE  H15R 7006   3.088  -0.291  -1.870 -1.1056 -1.8499 -0.5331
   78SOPE  H15S 7007   3.245  -0.373  -1.903  0.5542  1.1728  1.8716
   78SOPE  C216 7008   3.228  -0.194  -2.016 -0.6389  0.7276  0.0237
   78SOPE  H16R 7009   3.209  -0.256  -2.106  1.5695 -1.5796  1.0181
   78SOPE  H16S 7010   3.338  -0.179  -2.019 -0.3310 -0.3954  2.6795
   78SOPE  C217 7011   3.172  -0.055  -2.026  0.3361 -0.2683 -0.5561
   78SOPE  H17R 7012   3.224  -0.004  -2.110  2.4544 -0.5539  0.5284
   78SOPE  H17S 7013   3.200  -0.004  -1.932 -3.1618  1.2531 -0.1691
   78SOPE  C218 7014   3.021  -0.045  -2.034  0.2361  0.1970  0.3497
   78SOPE  H18R 7015   2.980  -0.086  -2.128 -0.9587  1.6126  0.2340
   78SOPE  H18S 7016   2.988   0.061  -2.029  1.4500  0.6379 -0.4980
   78SOPE  H18T 7017   2.984  -0.109  -1.951 -0.4319  0.3267  0.1566
   78SOPE   C33 7018   2.651  -0.612  -0.493 -0.8092 -0.1896  0.5250
   78SOPE   H3X 7019   2.755  -0.573  -0.484 -0.2878 -0.8461 -1.8893
   78SOPE   H3Y 7020   2.582  -0.546  -0.550 -1.6772 -1.3720  0.1762
   78SOPE   C34 7021   2.648  -0.744  -0.581 -0.3463 -0.8559  0.1558
   78SOPE   H4X 7022   2.571  -0.811  -0.538 -0.4322 -0.7898  0.1068
   78SOPE   H4Y 7023   2.751  -0.787  -0.579  0.9068  1.8754  0.2118
   78SOPE   C35 7024   2.627  -0.716  -0.728  0.1696  0.2205 -0.0808
   78SOPE   H5X 7025   2.703  -0.643  -0.762  1.3475 -0.4070  1.0828
   78SOPE   H5Y 7026   2.526  -0.672  -0.735 -0.1063 -0.3442  0.2320
   78SOPE   C36 7027   2.626  -0.840  -0.815 -0.1603  0.1272 -0.4790
   78SOPE   H6X 7028   2.529  -0.891  -0.798 -0.7221  1.3802  0.2431
   78SOPE   H6Y 7029   2.706  -0.911  -0.786  0.4372  0.7449 -0.5753
   78SOPE   C37 7030   2.656  -0.803  -0.964 -0.1975 -0.2723  0.4994
   78SOPE   H7X 7031   2.765  -0.798  -0.985 -0.0906  0.7392  1.2572
   78SOPE   H7Y 7032   2.615  -0.701  -0.983  0.4910  0.0372  0.6722
   78SOPE   C38 7033   2.599  -0.904  -1.068  0.3172  0.1747 -0.2304
   78SOPE   H8X 7034   2.488  -0.899  -1.068  0.3004 -0.1370  0.3890
   78SOPE   H8Y 7035   2.616  -1.005  -1.024 -3.5432 -0.4799  0.0981
   78SOPE   C39 7036   2.647  -0.902  -1.216  0.7801 -0.3572 -0.2307
   78SOPE   H9X 7037   2.603  -0.991  -1.266 -0.8371 -1.5089  2.9386
   78SOPE   H9Y 7038   2.758  -0.897  -1.223  0.8144 -1.1309 -0.2509
   78SOPE  C310 7039   2.577  -0.791  -1.283 -0.4203  0.4957  0.0957
   78SOPE  H10X 7040   2.614  -0.694  -1.243 -1.3053  1.5358 -1.4828
   78SOPE  H10Y 7041   2.470  -0.789  -1.251 -0.7412  0.1969 -0.9334
   78SOPE  C311 7042   2.591  -0.786  -1.437  0.0014  0.5350  0.0923
   78SOPE  H11X 7043   2.564  -0.689  -1.485  0.0803  0.3785 -0.2710
   78SOPE  H11Y 7044   2.522  -0.863  -1.478 -2.0149  1.5134  1.4931
   78SOPE  C312 7045   2.735  -0.814  -1.481  0.5006  1.1992  0.2659
   78SOPE  H12X 7046   2.763  -0.916  -1.447 -0.0999  1.3518  1.2572
   78SOPE  H12Y 7047   2.800  -0.737  -1.434 -1.2276  2.1002  1.2727
   78SOPE  C313 7048   2.751  -0.802  -1.638  0.4635  0.5772 -0.0718
   78SOPE  H13X 7049   2.742  -0.695  -1.666  0.8831  0.2237 -1.6978
   78SOPE  H13Y 7050   2.680  -0.866  -1.693  1.1997  0.3217 -0.7565
   78SOPE  C314 7051   2.890  -0.844  -1.693 -0.0533 -0.6727  0.1221
   78SOPE  H14X 7052   2.884  -0.811  -1.799  0.6053 -2.1241 -0.3920
   78SOPE  H14Y 7053   2.906  -0.953  -1.708  0.8906 -0.5134 -0.1105
   78SOPE  C315 7054   3.014  -0.782  -1.644  0.2580 -0.6735 -0.2940
   78SOPE  H15X 7055   3.016  -0.794  -1.533 -0.4187 -2.9101 -0.4731
   78SOPE  H15Y 7056   3.027  -0.678  -1.681  1.3610 -1.1426 -1.2848
   78SOPE  C316 7057   3.146  -0.859  -1.680  0.6703  0.1472 -0.2065
   78SOPE  H16X 7058   3.153  -0.960  -1.635  0.2244  1.3871  2.9678
   78SOPE  H16Y 7059   3.225  -0.802  -1.625  0.4212  0.4516 -0.1594
   78SOPE  C317 7060   3.183  -0.862  -1.831  0.1212 -0.1409 -0.5331
   78SOPE  H17X 7061   3.204  -0.755  -1.853  2.3280 -0.1060  1.3431
   78SOPE  H17Y 7062   3.098  -0.904  -1.889 -0.3799  0.8529 -0.5295
   78SOPE  C318 7063   3.307  -0.952  -1.855  0.2740 -0.5249 -0.7590
   78SOPE  H18X 7064   3.380  -0.921  -1.777 -0.2345  1.3955 -0.9802
   78SOPE  H18Y 7065   3.341  -0.945  -1.960 -4.1601  0.4777 -2.3630
   78SOPE  H18Z 7066   3.270  -1.056  -1.845 -2.7789  0.2694 -2.3003
   79SOPE     N 7067   4.797   4.880   0.528 -0.6934  0.1887  0.6432
   79SOPE   HN1 7068   4.778   4.812   0.452  0.4606  1.1878 -0.5891
   79SOPE   HN2 7069   4.772   4.835   0.619 -1.8819 -0.6806 -0.0925
   79SOPE   HN3 7070   4.737   4.964   0.510  0.2190  0.5545 -0.8895
   79SOPE   C12 7071   4.946   4.922   0.530 -0.0096  0.0485  0.2652
   79SOPE  H12A 7072   4.960   4.993   0.614 -2.5300 -0.7396  1.4464
   79SOPE  H12B 7073   4.961   4.974   0.433  0.6726  2.2090  1.4665
   79SOPE   C11 7074   5.042   4.802   0.541 -0.1082 -0.1307 -0.0157
   79SOPE  H11A 7075   5.141   4.821   0.495 -1.0319 -1.2925 -2.6755
   79SOPE  H11B 7076   5.003   4.723   0.473  1.3032  1.0065 -2.2739
   79SOPE     P 7077   5.005   4.623   0.738 -0.1846 -0.1529  0.4210
   79SOPE   O13 7078   4.860   4.641   0.751 -0.2007 -0.0545 -0.3142
   79SOPE   O14 7079   5.082   4.592   0.861  0.1897  0.0219 -0.0303
   79SOPE   O12 7080   5.058   4.759   0.681 -0.3094 -0.3017  0.3300
   79SOPE   O11 7081   5.040   4.527   0.619 -0.3154  0.0613 -0.1333
   79SOPE    C1 7082   5.152   4.437   0.618  0.3059 -0.0290  0.0651
   79SOPE    HA 7083   5.116   4.348   0.564 -0.4479  1.0572 -1.2829
   79SOPE    HB 7084   5.185   4.404   0.719 -0.7565 -1.1677  0.0660
   79SOPE    C2 7085   5.274   4.477   0.541 -0.3649 -0.2915 -0.3148
   79SOPE    HS 7086   5.329   4.552   0.603 -1.5617  1.8304 -1.6699
   79SOPE   O21 7087   5.222   4.540   0.419 -0.3387  1.1379 -0.8614
   79SOPE   C21 7088   5.302   4.632   0.371  0.5701  0.2836 -0.4910
   79SOPE   O22 7089   5.392   4.685   0.433 -0.0980  0.2469 -0.7783
   79SOPE   C22 7090   5.240   4.664   0.236 -0.6318  0.2192  0.0924
   79SOPE   H2R 7091   5.158   4.737   0.252  0.0406  0.9443  0.3044
   79SOPE   H2S 7092   5.194   4.570   0.198  1.2076 -0.0097 -1.7619
   79SOPE    C3 7093   5.371   4.357   0.529  0.4847  0.2678 -0.7095
   79SOPE    HX 7094   5.399   4.321   0.630 -1.5790 -2.9487 -1.1329
   79SOPE    HY 7095   5.472   4.378   0.488  0.9312 -1.0115 -0.3290
   79SOPE   O31 7096   5.309   4.242   0.466 -0.4368  1.3542  0.1130
   79SOPE   C31 7097   5.310   4.239   0.339  0.5115 -0.3033 -0.2280
   79SOPE   O32 7098   5.362   4.325   0.267  0.2983  0.1252 -0.4644
   79SOPE   C32 7099   5.211   4.138   0.294 -0.0718  0.1743  0.2878
   79SOPE   H2X 7100   5.105   4.172   0.298 -1.1278 -2.6634 -0.8139
   79SOPE   H2Y 7101   5.221   4.046   0.355  0.9769  0.2931  0.3181
   79SOPE   C23 7102   5.341   4.721   0.129  0.4714  1.1746  0.2510
   79SOPE   H3R 7103   5.398   4.809   0.163  1.8815  0.6218 -0.5845
   79SOPE   H3S 7104   5.279   4.757   0.044 -1.3191 -0.1194  0.9363
   79SOPE   C24 7105   5.436   4.617   0.069 -0.3139  0.0740  0.4841
   79SOPE   H4R 7106   5.502   4.586   0.153  0.4998  0.8018  0.1289
   79SOPE   H4S 7107   5.374   4.532   0.032  1.1428 -1.5421  1.5749
   79SOPE   C25 7108   5.534   4.671  -0.038  0.7720  0.3822  0.4102
   79SOPE   H5R 7109   5.621   4.724   0.006  0.5258  1.8158 -0.7276
   79SOPE   H5S 7110   5.574   4.586  -0.096 -0.4603  1.7021 -2.6194
   79SOPE   C26 7111   5.467   4.750  -0.146  0.1887 -1.2642  0.0364
   79SOPE   H6R 7112   5.391   4.694  -0.204  2.1889 -2.6550 -1.3589
   79SOPE   H6S 7113   5.423   4.837  -0.092  3.5953 -0.5323  1.9687
   79SOPE   C27 7114   5.570   4.817  -0.246  0.1954  0.7496 -0.0289
   79SOPE   H7R 7115   5.642   4.885  -0.195  0.9995  0.3839 -0.6520
   79SOPE   H7S 7116   5.635   4.732  -0.276 -0.0441  0.2556  0.8185
   79SOPE   C28 7117   5.505   4.891  -0.368 -0.0958 -0.0033 -0.0526
   79SOPE   H8R 7118   5.592   4.913  -0.434  0.0273 -0.6493 -0.1136
   79SOPE   H8S 7119   5.430   4.831  -0.424 -0.5964  1.9922 -1.6480
   79SOPE   C29 7120   5.449   5.016  -0.316  0.3521  0.6519 -0.5763
   79SOPE   H91 7121   5.354   5.002  -0.263  0.3625  2.8988  0.1533
   79SOPE  C210 7122   5.492   5.141  -0.329  1.2032 -0.2057  0.4321
   79SOPE  H101 7123   5.423   5.223  -0.306  0.8595 -1.0319  2.6306
   79SOPE  C211 7124   5.604   5.185  -0.412  0.1895  0.2377 -0.0232
   79SOPE  H11R 7125   5.665   5.100  -0.449 -3.4459 -1.1455 -3.5445
   79SOPE  H11S 7126   5.660   5.272  -0.371 -2.0215  2.6360 -1.8028
   79SOPE  C212 7127   5.546   5.234  -0.544  0.2067 -0.2670  0.1361
   79SOPE  H12R 7128   5.631   5.287  -0.592 -0.6046  3.8187  2.6963
   79SOPE  H12S 7129   5.470   5.315  -0.536 -1.5442 -1.9248  1.2087
   79SOPE  C213 7130   5.489   5.122  -0.633 -0.3064  0.0547  0.4505
   79SOPE  H13R 7131   5.389   5.086  -0.601 -0.0675 -0.4752  0.6154
   79SOPE  H13S 7132   5.554   5.032  -0.638 -1.9668 -1.2467  1.4363
   79SOPE  C214 7133   5.460   5.173  -0.775 -0.1655  0.0735  0.3177
   79SOPE  H14R 7134   5.554   5.209  -0.822 -0.0953 -2.8698 -2.1296
   79SOPE  H14S 7135   5.393   5.258  -0.753 -0.1430 -0.3168  2.1129
   79SOPE  C215 7136   5.399   5.072  -0.878 -0.4976  0.2439 -0.1073
   79SOPE  H15R 7137   5.295   5.049  -0.848  0.5566 -0.8068  3.1437
   79SOPE  H15S 7138   5.455   4.977  -0.883 -2.3911 -0.9005 -0.3977
   79SOPE  C216 7139   5.404   5.127  -1.021  0.1196 -0.0571 -0.3012
   79SOPE  H16R 7140   5.504   5.171  -1.039  0.6528 -0.0864  2.2019
   79SOPE  H16S 7141   5.335   5.213  -1.025 -1.2449 -1.1058 -0.0540
   79SOPE  C217 7142   5.366   5.020  -1.129  0.9181  0.1069  0.3185
   79SOPE  H17R 7143   5.288   4.952  -1.090  0.9090  0.8797  1.7522
   79SOPE  H17S 7144   5.457   4.957  -1.139 -0.8616 -2.8633  1.5313
   79SOPE  C218 7145   5.334   5.074  -1.267  0.1708  0.0771 -0.5586
   79SOPE  H18R 7146   5.288   4.992  -1.327 -0.8921  0.4531 -0.2840
   79SOPE  H18S 7147   5.418   5.123  -1.321  0.2349  0.2501 -0.3006
   79SOPE  H18T 7148   5.257   5.153  -1.251  1.2066  0.8790  0.6385
   79SOPE   C33 7149   5.247   4.094   0.152  0.6844  0.5893  0.6714
   79SOPE   H3X 7150   5.194   4.000   0.125  0.8853  1.3817 -2.9548
   79SOPE   H3Y 7151   5.353   4.063   0.142 -0.1763 -3.0347  1.2225
   79SOPE   C34 7152   5.219   4.196   0.040  0.1166  0.4823  0.2135
   79SOPE   H4X 7153   5.216   4.147  -0.060  1.0110  3.1155 -1.2263
   79SOPE   H4Y 7154   5.306   4.266   0.042  0.8431 -0.4145  0.5539
   79SOPE   C35 7155   5.084   4.272   0.032  0.4075  0.2440  0.7124
   79SOPE   H5X 7156   5.068   4.320   0.131 -0.7036  1.7521 -0.1527
   79SOPE   H5Y 7157   5.004   4.197   0.013  1.7454 -1.0435 -0.0486
   79SOPE   C36 7158   5.090   4.379  -0.086 -0.1423  0.0391 -0.5495
   79SOPE   H6X 7159   5.159   4.455  -0.043 -0.7012  0.7755 -0.9381
   79SOPE   H6Y 7160   4.988   4.420  -0.101 -1.2021 -1.8293  1.0839
   79SOPE   C37 7161   5.127   4.329  -0.224 -0.2046 -0.6441  0.6426
   79SOPE   H7X 7162   5.066   4.240  -0.249  0.1824 -1.9934  3.9876
   79SOPE   H7Y 7163   5.225   4.278  -0.212  0.1234 -0.2884 -0.4130
   79SOPE   C38 7164   5.123   4.450  -0.322 -0.2277 -0.0562  0.4843
   79SOPE   H8X 7165   5.215   4.508  -0.301  0.3108 -0.5610 -0.3981
   79SOPE   H8Y 7166   5.031   4.511  -0.310  0.3194  1.0741 -0.7745
   79SOPE   C39 7167   5.139   4.405  -0.466  0.7890  0.0517  0.2389
   79SOPE   H9X 7168   5.045   4.354  -0.496 -0.2694  2.5557 -0.9863
   79SOPE   H9Y 7169   5.228   4.340  -0.482  0.4307 -0.0038 -1.8175
   79SOPE  C310 7170   5.160   4.533  -0.552  0.3186  0.2886 -0.0061
   79SOPE  H10X 7171   5.253   4.579  -0.513  0.4606  1.5108 -1.6540
   79SOPE  H10Y 7172   5.081   4.605  -0.522 -0.1234 -0.2145  0.0522
   79SOPE  C311 7173   5.155   4.518  -0.707 -0.1865 -0.1968 -0.5842
   79SOPE  H11X 7174   5.056   4.482  -0.743 -0.0158  0.5464 -1.8436
   79SOPE  H11Y 7175   5.212   4.426  -0.732 -0.4615 -0.2170 -1.1480
   79SOPE  C312 7176   5.209   4.640  -0.790  0.5688  0.1393 -0.6640
   79SOPE  H12X 7177   5.311   4.675  -0.764  0.8870 -0.4717 -1.0610
   79SOPE  H12Y 7178   5.143   4.724  -0.758 -0.2655 -0.7497  0.0239
   79SOPE  C313 7179   5.220   4.626  -0.938 -0.0649 -0.0193 -0.3473
   79SOPE  H13X 7180   5.293   4.547  -0.966 -0.8187 -0.4765 -1.0626
   79SOPE  H13Y 7181   5.262   4.723  -0.971  1.1278 -0.0297  1.0319
   79SOPE  C314 7182   5.088   4.608  -1.007  0.1459 -0.0049 -0.2313
   79SOPE  H14X 7183   5.024   4.693  -0.978  0.1611 -0.1258  0.1583
   79SOPE  H14Y 7184   5.037   4.515  -0.974 -0.9685  0.0555 -1.7095
   79SOPE  C315 7185   5.117   4.608  -1.153 -0.7103  0.4554  1.5819
   79SOPE  H15X 7186   5.161   4.515  -1.195  0.0475  1.6095 -0.3368
   79SOPE  H15Y 7187   5.190   4.690  -1.172 -0.1833 -0.3001  0.2083
   79SOPE  C316 7188   4.993   4.652  -1.239  0.1147  0.3448  0.0984
   79SOPE  H16X 7189   4.953   4.747  -1.198 -0.4965 -0.0370  0.3849
   79SOPE  H16Y 7190   4.924   4.568  -1.217  0.0807  0.4437  0.3720
   79SOPE  C317 7191   5.020   4.651  -1.391  0.5339  0.7896  0.4396
   79SOPE  H17X 7192   4.925   4.630  -1.444  0.0657 -1.6051  2.0727
   79SOPE  H17Y 7193   5.084   4.564  -1.417 -0.7174 -0.0684  0.1534
   79SOPE  C318 7194   5.088   4.773  -1.450 -0.9202 -0.5500  0.4983
   79SOPE  H18X 7195   5.114   4.758  -1.557  1.8215 -0.9471  1.1468
   79SOPE  H18Y 7196   5.184   4.795  -1.401 -0.2798 -0.5614 -0.7051
   79SOPE  H18Z 7197   5.028   4.866  -1.436 -0.9649 -0.4640 -0.2003
   80SOPE     N 7198   1.996   5.630   0.252  0.5763  0.2372 -0.2146
   80SOPE   HN1 7199   2.035   5.541   0.216 -1.0339  0.5554 -3.0128
   80SOPE   HN2 7200   1.895   5.632   0.228  1.2270  0.4122 -3.2713
   80SOPE   HN3 7201   2.029   5.718   0.207 -1.1553  0.3347 -1.3811
   80SOPE   C12 7202   2.014   5.646   0.397 -0.2786  0.3477 -0.1483
   80SOPE  H12A 7203   2.001   5.547   0.445 -2.1108 -0.2279 -1.7052
   80SOPE  H12B 7204   1.934   5.711   0.438  0.3550  0.3459  1.1750
   80SOPE   C11 7205   2.154   5.703   0.408 -0.0406  0.3275 -0.1827
   80SOPE  H11A 7206   2.222   5.617   0.389  2.1404  1.9907 -0.2752
   80SOPE  H11B 7207   2.171   5.718   0.517 -0.1862  0.7789 -0.2174
   80SOPE     P 7208   2.327   5.839   0.249  0.1904 -0.0582 -0.6020
   80SOPE   O13 7209   2.394   5.954   0.311  0.1548 -0.0390 -0.3177
   80SOPE   O14 7210   2.303   5.839   0.102  0.2694 -0.3866  0.2598
   80SOPE   O12 7211   2.191   5.824   0.328  0.9592 -0.0813 -0.3288
   80SOPE   O11 7212   2.408   5.706   0.285  0.1747  0.4691 -0.2633
   80SOPE    C1 7213   2.532   5.668   0.231  0.4225  0.6364  0.2961
   80SOPE    HA 7214   2.583   5.599   0.301  1.1382 -0.0308 -0.8620
   80SOPE    HB 7215   2.602   5.754   0.229  2.0470 -0.6423 -1.3611
   80SOPE    C2 7216   2.519   5.592   0.095  0.4388  0.2388 -0.2513
   80SOPE    HS 7217   2.613   5.537   0.073 -0.0681 -0.6162 -0.2952
   80SOPE   O21 7218   2.486   5.660  -0.024 -0.2793  0.4677  0.3373
   80SOPE   C21 7219   2.566   5.765  -0.054  0.1255 -0.0526 -0.1744
   80SOPE   O22 7220   2.643   5.823   0.018  0.4676  0.2107  0.3522
   80SOPE   C22 7221   2.527   5.807  -0.194  0.9701  0.1515  0.4144
   80SOPE   H2R 7222   2.516   5.916  -0.178 -0.6156 -0.0720  1.0393
   80SOPE   H2S 7223   2.436   5.755  -0.232  0.7372  1.0210 -0.2376
   80SOPE    C3 7224   2.416   5.478   0.107 -0.2136  0.2099 -0.0054
   80SOPE    HX 7225   2.312   5.517   0.112 -0.9678 -1.6510 -0.6020
   80SOPE    HY 7226   2.431   5.423   0.203  2.2883 -1.6557 -1.3465
   80SOPE   O31 7227   2.430   5.379   0.000  0.5795  0.5090  0.2565
   80SOPE   C31 7228   2.364   5.395  -0.105  0.2783 -0.1869  0.3164
   80SOPE   O32 7229   2.278   5.485  -0.123 -0.1246  0.2927 -0.1175
   80SOPE   C32 7230   2.427   5.306  -0.217 -0.0692 -0.2769 -0.9023
   80SOPE   H2X 7231   2.391   5.208  -0.180 -1.0494 -0.0478 -1.2033
   80SOPE   H2Y 7232   2.537   5.305  -0.203 -0.3583 -2.9531  2.5093
   80SOPE   C23 7233   2.640   5.797  -0.292 -0.4383  0.0399 -0.1107
   80SOPE   H3R 7234   2.726   5.860  -0.263  0.2148  0.1797 -2.1712
   80SOPE   H3S 7235   2.615   5.856  -0.383  2.3652  0.1221 -0.9082
   80SOPE   C24 7236   2.677   5.652  -0.327 -0.1287 -0.0859 -0.0960
   80SOPE   H4R 7237   2.740   5.621  -0.241  1.3324  3.6039  0.3759
   80SOPE   H4S 7238   2.587   5.587  -0.329 -0.2686 -0.0114  2.0753
   80SOPE   C25 7239   2.752   5.633  -0.468 -0.4081 -0.1054 -0.0632
   80SOPE   H5R 7240   2.770   5.526  -0.493 -2.9687 -0.6546  0.1180
   80SOPE   H5S 7241   2.688   5.674  -0.548  2.4607  1.5780 -1.6601
   80SOPE   C26 7242   2.879   5.713  -0.458 -0.2880  0.3697 -0.6997
   80SOPE   H6R 7243   2.846   5.815  -0.429 -0.7737  0.8739 -2.8341
   80SOPE   H6S 7244   2.942   5.688  -0.370 -1.5787  3.1759  1.1415
   80SOPE   C27 7245   2.969   5.718  -0.587 -0.6639  0.1430 -0.9759
   80SOPE   H7R 7246   3.055   5.786  -0.573  0.3694 -1.2076 -0.4751
   80SOPE   H7S 7247   3.012   5.616  -0.601  0.8450  0.8227 -1.4030
   80SOPE   C28 7248   2.902   5.760  -0.715  0.3038  0.3065 -0.5749
   80SOPE   H8R 7249   2.811   5.702  -0.739 -0.2883  0.8426  0.3214
   80SOPE   H8S 7250   2.864   5.863  -0.701 -1.0227 -0.4974  2.7213
   80SOPE   C29 7251   2.998   5.773  -0.833 -0.2500  0.3052 -0.3952
   80SOPE   H91 7252   3.064   5.861  -0.835 -1.0712  1.0940  2.5227
   80SOPE  C210 7253   3.020   5.686  -0.929 -0.5342  0.6369  0.1190
   80SOPE  H101 7254   3.105   5.701  -0.997  0.0416 -1.0881  0.4207
   80SOPE  C211 7255   2.958   5.547  -0.938 -0.1552 -0.1438  0.8388
   80SOPE  H11R 7256   2.876   5.518  -0.869  0.3168 -2.5256  0.4823
   80SOPE  H11S 7257   3.039   5.476  -0.910  0.8171  0.6167  0.0275
   80SOPE  C212 7258   2.917   5.507  -1.083  0.1126  0.5598 -0.4863
   80SOPE  H12R 7259   2.905   5.398  -1.095  2.7192  0.1849 -0.2168
   80SOPE  H12S 7260   2.998   5.529  -1.156 -0.0723  1.0168 -0.5604
   80SOPE  C213 7261   2.784   5.578  -1.129  0.1929  0.1701  0.1185
   80SOPE  H13R 7262   2.759   5.644  -1.044  0.4234  0.9975 -0.4481
   80SOPE  H13S 7263   2.707   5.502  -1.154  0.9562  0.0175 -1.9790
   80SOPE  C214 7264   2.802   5.651  -1.267  0.2095  0.1828 -0.6604
   80SOPE  H14R 7265   2.888   5.720  -1.253  1.1484 -0.8364 -1.2210
   80SOPE  H14S 7266   2.710   5.713  -1.272 -0.2288 -0.0384  2.7185
   80SOPE  C215 7267   2.791   5.556  -1.381  0.2699  0.7389 -0.0675
   80SOPE  H15R 7268   2.722   5.469  -1.373  2.6403 -1.7963 -3.9633
   80SOPE  H15S 7269   2.891   5.510  -1.399 -0.3579 -0.8271  0.3073
   80SOPE  C216 7270   2.751   5.622  -1.517  0.4761  0.5717  0.2412
   80SOPE  H16R 7271   2.817   5.707  -1.544  1.2125 -0.6026 -1.8550
   80SOPE  H16S 7272   2.655   5.669  -1.487  0.3265 -0.2930  1.1968
   80SOPE  C217 7273   2.755   5.536  -1.643  0.7021 -0.2841  0.4173
   80SOPE  H17R 7274   2.695   5.443  -1.635  1.7874 -1.0144  0.3855
   80SOPE  H17S 7275   2.857   5.501  -1.672  0.7297  0.9580 -1.1410
   80SOPE  C218 7276   2.701   5.608  -1.768 -0.8523  0.0942 -0.4057
   80SOPE  H18R 7277   2.686   5.539  -1.854 -0.4659 -2.5492  1.5250
   80SOPE  H18S 7278   2.763   5.698  -1.781  1.0122 -0.9144  1.0273
   80SOPE  H18T 7279   2.599   5.641  -1.738 -1.6926 -1.3352 -1.5239
   80SOPE   C33 7280   2.381   5.330  -0.359  0.3456 -0.8153 -0.2863
   80SOPE   H3X 7281   2.421   5.429  -0.390 -0.0847 -1.6544 -3.9644
   80SOPE   H3Y 7282   2.271   5.333  -0.370  0.2840  0.0603  0.4521
   80SOPE   C34 7283   2.445   5.234  -0.461  0.0642  0.1278 -0.3995
   80SOPE   H4X 7284   2.403   5.133  -0.446 -1.4040  0.2134 -3.3002
   80SOPE   H4Y 7285   2.555   5.218  -0.464  0.0161 -1.3150  2.3876
   80SOPE   C35 7286   2.401   5.263  -0.602  0.3259 -0.7459 -0.2463
   80SOPE   H5X 7287   2.440   5.367  -0.614 -0.2163 -0.2919  1.5716
   80SOPE   H5Y 7288   2.290   5.276  -0.609  0.2255 -1.4387  0.0599
   80SOPE   C36 7289   2.444   5.158  -0.707 -0.3701 -0.2724 -0.0687
   80SOPE   H6X 7290   2.354   5.114  -0.756  0.8048 -0.9764 -1.7032
   80SOPE   H6Y 7291   2.508   5.083  -0.656 -0.4363  0.0266  0.4514
   80SOPE   C37 7292   2.523   5.207  -0.827 -0.1654  0.2325 -0.2676
   80SOPE   H7X 7293   2.611   5.262  -0.789  1.3750 -1.4154 -1.2608
   80SOPE   H7Y 7294   2.457   5.272  -0.888 -1.4723 -1.1971 -0.4604
   80SOPE   C38 7295   2.574   5.090  -0.910 -0.3688 -0.2889 -0.4635
   80SOPE   H8X 7296   2.495   5.030  -0.960 -2.2187  1.3386  0.3433
   80SOPE   H8Y 7297   2.635   5.026  -0.844 -0.8393  0.8684  1.1620
   80SOPE   C39 7298   2.660   5.143  -1.025 -1.1236  0.9111  0.7183
   80SOPE   H9X 7299   2.734   5.216  -0.985  0.3423  0.4183 -0.9266
   80SOPE   H9Y 7300   2.594   5.188  -1.101 -1.6258  0.9871  1.1972
   80SOPE  C310 7301   2.747   5.026  -1.087 -0.0235 -0.5651  0.6697
   80SOPE  H10X 7302   2.790   4.961  -1.008 -0.5423 -0.3310  1.1452
   80SOPE  H10Y 7303   2.836   5.070  -1.137 -0.4890  1.0129  1.1793
   80SOPE  C311 7304   2.668   4.936  -1.187 -0.5808 -0.3118 -0.1516
   80SOPE  H11X 7305   2.639   5.012  -1.264 -0.2658 -0.5556 -0.5116
   80SOPE  H11Y 7306   2.571   4.909  -1.139  0.4001 -3.8365  0.0847
   80SOPE  C312 7307   2.754   4.816  -1.244 -0.3488  0.0869 -0.0865
   80SOPE  H12X 7308   2.767   4.736  -1.167  1.8296  0.9780  0.5397
   80SOPE  H12Y 7309   2.858   4.846  -1.266 -0.3588 -0.6168 -1.1917
   80SOPE  C313 7310   2.708   4.760  -1.380  0.0819  0.0642 -0.9677
   80SOPE  H13X 7311   2.715   4.839  -1.458 -0.0626  0.4144 -0.6286
   80SOPE  H13Y 7312   2.604   4.721  -1.372 -0.1495  0.8802  0.1858
   80SOPE  C314 7313   2.790   4.643  -1.424 -0.2184  0.9499 -0.1414
   80SOPE  H14X 7314   2.812   4.578  -1.336 -0.1629  1.5837  0.3154
   80SOPE  H14Y 7315   2.891   4.669  -1.463  0.9741 -1.0792  1.3565
   80SOPE  C315 7316   2.733   4.575  -1.540 -0.4905 -0.2462  0.3518
   80SOPE  H15X 7317   2.735   4.640  -1.630 -1.0178  3.1260  2.6159
   80SOPE  H15Y 7318   2.625   4.558  -1.518 -1.0709  1.0941 -1.2281
   80SOPE  C316 7319   2.790   4.438  -1.561  0.4112  1.0035  0.5424
   80SOPE  H16X 7320   2.788   4.380  -1.467  0.4795 -0.6491 -0.4478
   80SOPE  H16Y 7321   2.897   4.455  -1.587  0.6316 -2.5726 -1.5658
   80SOPE  C317 7322   2.736   4.360  -1.684  0.1624  0.3205 -0.7741
   80SOPE  H17X 7323   2.642   4.307  -1.658  2.0918 -2.6732  0.8645
   80SOPE  H17Y 7324   2.801   4.270  -1.689  0.1297  0.1089  1.4722
   80SOPE  C318 7325   2.721   4.425  -1.821 -0.2086 -1.0477 -0.5065
   80SOPE  H18X 7326   2.677   4.357  -1.897  1.0660 -0.7532 -1.5558
   80SOPE  H18Y 7327   2.818   4.456  -1.866 -0.5129 -3.2013 -2.8643
   80SOPE  H18Z 7328   2.660   4.517  -1.810  2.7217  0.9078  0.9692
   81SOPE     N 7329   6.112   1.435   0.470 -0.5711  0.1773 -0.4523
   81SOPE   HN1 7330   6.116   1.535   0.501  1.0688  0.8841 -2.6609
   81SOPE   HN2 7331   6.059   1.380   0.540 -0.7644  1.2144  0.2361
   81SOPE   HN3 7332   6.203   1.385   0.458 -0.0369  0.9194  0.3510
   81SOPE   C12 7333   6.033   1.419   0.339 -0.5790 -0.1875  0.8491
   81SOPE  H12A 7334   6.055   1.317   0.301  2.8279  0.8011 -0.2317
   81SOPE  H12B 7335   6.086   1.483   0.265 -1.9720 -0.5727 -0.5462
   81SOPE   C11 7336   5.882   1.463   0.341  0.4026  0.1175 -0.2742
   81SOPE  H11A 7337   5.832   1.376   0.390 -0.6676  0.3896 -0.8616
   81SOPE  H11B 7338   5.854   1.467   0.234  1.5944  0.2917 -0.5978
   81SOPE     P 7339   5.844   1.724   0.368  0.2415 -0.2272  0.2901
   81SOPE   O13 7340   5.870   1.829   0.469  0.1243 -0.3038 -0.5470
   81SOPE   O14 7341   5.702   1.720   0.326 -0.0693  0.4698  0.3285
   81SOPE   O12 7342   5.880   1.582   0.423  0.4344 -0.1461  0.3372
   81SOPE   O11 7343   5.947   1.743   0.250 -0.4644 -0.1019 -0.5339
   81SOPE    C1 7344   5.924   1.827   0.140  0.0515  0.0166 -0.5057
   81SOPE    HA 7345   5.822   1.804   0.101  0.1921 -2.4696  0.4253
   81SOPE    HB 7346   5.994   1.796   0.059 -1.6137 -0.7725 -1.7357
   81SOPE    C2 7347   5.945   1.974   0.185 -1.2724 -0.2069  0.2331
   81SOPE    HS 7348   5.870   1.988   0.265 -2.6381  0.8179 -1.1643
   81SOPE   O21 7349   5.913   2.059   0.074  0.1511 -0.1970  0.0919
   81SOPE   C21 7350   5.887   2.185   0.110  0.9270  0.2290 -0.5589
   81SOPE   O22 7351   5.874   2.223   0.225  0.1756 -0.1719 -0.5534
   81SOPE   C22 7352   5.886   2.275  -0.015 -0.0981 -1.0928  0.3177
   81SOPE   H2R 7353   5.976   2.250  -0.075 -0.5336  0.0072 -0.8442
   81SOPE   H2S 7354   5.900   2.380   0.020 -1.0938 -0.0755 -2.1144
   81SOPE    C3 7355   6.086   2.002   0.241  0.3120 -0.4384 -0.4050
   81SOPE    HX 7356   6.105   1.927   0.321 -1.4665  0.1885  0.6625
   81SOPE    HY 7357   6.089   2.100   0.293  1.3776 -1.6370  1.9397
   81SOPE   O31 7358   6.197   1.982   0.144  0.4038 -0.3763 -0.1963
   81SOPE   C31 7359   6.233   2.092   0.075 -0.6180 -0.0973 -0.3173
   81SOPE   O32 7360   6.191   2.204   0.097  0.1815 -0.0525 -0.0659
   81SOPE   C32 7361   6.329   2.038  -0.032 -0.1765  0.4142 -0.5251
   81SOPE   H2X 7362   6.297   1.935  -0.058  0.4554 -0.5145  2.1642
   81SOPE   H2Y 7363   6.425   2.025   0.022 -1.1715 -2.8117  0.6720
   81SOPE   C23 7364   5.756   2.274  -0.094  0.0559 -0.2157  0.6096
   81SOPE   H3R 7365   5.678   2.313  -0.024 -0.8463 -1.5101  0.3515
   81SOPE   H3S 7366   5.733   2.169  -0.120  3.2595 -0.4233 -1.8661
   81SOPE   C24 7367   5.756   2.358  -0.225 -0.3130  0.3399 -0.8731
   81SOPE   H4R 7368   5.770   2.461  -0.185 -0.2383 -0.6376  1.8663
   81SOPE   H4S 7369   5.842   2.328  -0.288  0.2872  1.2974 -0.5252
   81SOPE   C25 7370   5.623   2.346  -0.296 -0.1710  0.2851  0.3360
   81SOPE   H5R 7371   5.557   2.276  -0.240 -2.0655  1.2487 -0.5880
   81SOPE   H5S 7372   5.579   2.447  -0.278  3.8497  1.7480  3.4124
   81SOPE   C26 7373   5.644   2.292  -0.445 -0.2178 -0.7588 -0.1943
   81SOPE   H6R 7374   5.700   2.371  -0.501  0.3908 -1.8227 -1.1300
   81SOPE   H6S 7375   5.706   2.200  -0.440 -0.2989 -0.7306  2.3585
   81SOPE   C27 7376   5.514   2.275  -0.525 -0.2565  0.3609 -0.8569
   81SOPE   H7R 7377   5.442   2.207  -0.473 -1.9459  0.4877 -2.9191
   81SOPE   H7S 7378   5.472   2.378  -0.521 -0.6689  0.1825 -0.4188
   81SOPE   C28 7379   5.536   2.227  -0.671 -0.2777 -0.0750 -0.0442
   81SOPE   H8R 7380   5.575   2.124  -0.687  0.6617  0.4344 -1.1725
   81SOPE   H8S 7381   5.436   2.223  -0.719 -0.6180  1.4472  0.4705
   81SOPE   C29 7382   5.607   2.328  -0.757  0.0960 -0.1879 -0.4022
   81SOPE   H91 7383   5.714   2.305  -0.764  0.5539  0.5045  2.6200
   81SOPE  C210 7384   5.554   2.431  -0.825 -0.1565  0.1282 -0.3488
   81SOPE  H101 7385   5.622   2.502  -0.875  3.1233 -1.4567  1.5900
   81SOPE  C211 7386   5.411   2.469  -0.815 -0.3021 -0.0767 -0.0580
   81SOPE  H11R 7387   5.419   2.555  -0.746 -1.2125  1.8538 -2.2332
   81SOPE  H11S 7388   5.348   2.397  -0.758 -0.5164 -0.1127 -0.3387
   81SOPE  C212 7389   5.347   2.489  -0.954 -0.0453 -0.6258  0.7240
   81SOPE  H12R 7390   5.424   2.546  -1.010 -2.1226 -0.6264 -2.3535
   81SOPE  H12S 7391   5.261   2.557  -0.939 -0.4327 -0.9987  0.2108
   81SOPE  C213 7392   5.295   2.362  -1.012 -0.3345 -0.1944 -0.4074
   81SOPE  H13R 7393   5.224   2.315  -0.940 -1.5008 -0.1950 -1.5325
   81SOPE  H13S 7394   5.387   2.300  -1.025 -0.1145 -0.1036  0.6235
   81SOPE  C214 7395   5.223   2.378  -1.144  0.6341 -0.7112  0.2559
   81SOPE  H14R 7396   5.133   2.443  -1.135  0.2967 -1.4644  4.4385
   81SOPE  H14S 7397   5.193   2.272  -1.161 -0.3010 -0.9921  3.1289
   81SOPE  C215 7398   5.306   2.421  -1.261  0.1731  0.4564 -0.5001
   81SOPE  H15R 7399   5.405   2.372  -1.273  0.4106  0.7970  0.0195
   81SOPE  H15S 7400   5.332   2.527  -1.239  0.6521  0.8555 -2.7763
   81SOPE  C216 7401   5.237   2.433  -1.389  1.0756  0.2926  0.0682
   81SOPE  H16R 7402   5.146   2.489  -1.358 -0.1751 -0.6693 -1.6897
   81SOPE  H16S 7403   5.199   2.333  -1.418  1.2189  0.4047 -0.5076
   81SOPE  C217 7404   5.301   2.510  -1.505  1.0214  0.3274 -0.0320
   81SOPE  H17R 7405   5.243   2.472  -1.591  0.9447 -0.9398  0.5619
   81SOPE  H17S 7406   5.403   2.469  -1.521 -0.1967 -3.0243  0.1034
   81SOPE  C218 7407   5.306   2.663  -1.491 -0.0909  0.2678 -0.2654
   81SOPE  H18R 7408   5.387   2.687  -1.419  0.6292 -1.9696 -0.2601
   81SOPE  H18S 7409   5.212   2.692  -1.438  0.1822 -0.6840  0.7666
   81SOPE  H18T 7410   5.313   2.716  -1.588 -3.9778  0.6912 -0.4725
   81SOPE   C33 7411   6.327   2.120  -0.168  0.0868 -0.1847  0.3465
   81SOPE   H3X 7412   6.386   2.214  -0.167 -1.1789  0.6456 -0.2271
   81SOPE   H3Y 7413   6.223   2.150  -0.196  0.3312  1.1332  0.7909
   81SOPE   C34 7414   6.380   2.034  -0.286  0.3194  0.2253  0.7008
   81SOPE   H4X 7415   6.331   1.935  -0.293  0.3200  0.3084 -0.9424
   81SOPE   H4Y 7416   6.484   2.003  -0.262 -0.5528 -0.4893  3.9904
   81SOPE   C35 7417   6.360   2.094  -0.433 -0.7884 -0.1719 -0.1588
   81SOPE   H5X 7418   6.379   2.203  -0.423  0.7383 -0.3338 -1.1185
   81SOPE   H5Y 7419   6.258   2.089  -0.477 -0.0182 -1.5726 -1.8642
   81SOPE   C36 7420   6.453   2.029  -0.532  0.2684 -0.4888 -0.0987
   81SOPE   H6X 7421   6.439   1.919  -0.537  0.7615 -0.5301 -0.6898
   81SOPE   H6Y 7422   6.554   2.055  -0.494 -0.7723 -0.4196  2.8427
   81SOPE   C37 7423   6.445   2.095  -0.679  0.1588 -0.4337 -0.4170
   81SOPE   H7X 7424   6.438   2.206  -0.671  1.9289 -0.1541 -2.1070
   81SOPE   H7Y 7425   6.355   2.063  -0.734 -0.0743  1.0927 -0.9703
   81SOPE   C38 7426   6.571   2.072  -0.767 -0.2944 -0.5248 -0.5568
   81SOPE   H8X 7427   6.590   1.962  -0.765  1.6260 -0.2189 -0.8872
   81SOPE   H8Y 7428   6.662   2.121  -0.727 -0.8392  1.2553 -1.3923
   81SOPE   C39 7429   6.554   2.131  -0.910  0.1523  0.6430 -1.1659
   81SOPE   H9X 7430   6.523   2.233  -0.878 -0.4353  0.2164 -0.3141
   81SOPE   H9Y 7431   6.473   2.075  -0.961  0.2390 -1.1415  0.5168
   81SOPE  C310 7432   6.685   2.133  -0.986 -0.4148  0.9783  0.4203
   81SOPE  H10X 7433   6.729   2.031  -0.994 -1.7312  0.4178  0.0010
   81SOPE  H10Y 7434   6.756   2.191  -0.923 -0.5042  0.5592  0.9186
   81SOPE  C311 7435   6.698   2.201  -1.121  0.1563 -0.9252 -0.2709
   81SOPE  H11X 7436   6.802   2.184  -1.158  1.0128  1.7163  0.7133
   81SOPE  H11Y 7437   6.692   2.311  -1.112 -0.9083 -1.0287  0.3407
   81SOPE  C312 7438   6.601   2.140  -1.222  0.1933 -0.3823 -0.3450
   81SOPE  H12X 7439   6.502   2.171  -1.182  0.9797  0.7810  0.7942
   81SOPE  H12Y 7440   6.620   2.031  -1.214  2.2281  0.0561  2.6066
   81SOPE  C313 7441   6.611   2.190  -1.369  0.2121 -0.3198 -0.2672
   81SOPE  H13X 7442   6.715   2.210  -1.400  0.4241  1.0156  1.1795
   81SOPE  H13Y 7443   6.562   2.289  -1.382  1.2774  0.3750  0.8014
   81SOPE  C314 7444   6.530   2.104  -1.461  0.0712 -0.3142  0.1613
   81SOPE  H14X 7445   6.435   2.079  -1.409 -2.0451  1.6453 -2.4832
   81SOPE  H14Y 7446   6.585   2.008  -1.467  2.2990  0.7623  1.9155
   81SOPE  C315 7447   6.513   2.150  -1.609  0.3424  0.5530  0.3445
   81SOPE  H15X 7448   6.602   2.215  -1.627  1.5847 -0.2661  3.0575
   81SOPE  H15Y 7449   6.420   2.210  -1.607  0.7635  1.2015  0.7548
   81SOPE  C316 7450   6.517   2.044  -1.720 -0.3343  0.3348 -0.4305
   81SOPE  H16X 7451   6.452   1.958  -1.691  2.6649 -2.0372 -0.1620
   81SOPE  H16Y 7452   6.617   1.996  -1.717 -0.9941 -1.0741  1.6694
   81SOPE  C317 7453   6.479   2.094  -1.853  0.3074  0.4318  0.2914
   81SOPE  H17X 7454   6.544   2.184  -1.860  2.2928 -0.9606 -0.2293
   81SOPE  H17Y 7455   6.373   2.123  -1.837 -0.1885 -1.1074 -0.0235
   81SOPE  C318 7456   6.483   1.980  -1.958  0.0797  0.3417 -0.0661
   81SOPE  H18X 7457   6.564   1.908  -1.936  0.1895  0.4138 -0.2307
   81SOPE  H18Y 7458   6.498   2.023  -2.059  2.6974  0.6191  0.3806
   81SOPE  H18Z 7459   6.383   1.931  -1.958  0.1955  0.0758 -1.2853
   82SOPE     N 7460   4.028   0.644   0.333 -0.1260  0.0638 -0.4784
   82SOPE   HN1 7461   4.009   0.570   0.263  0.7494 -1.6802  1.0631
   82SOPE   HN2 7462   4.040   0.734   0.281  1.9590 -0.1635 -0.4782
   82SOPE   HN3 7463   4.122   0.630   0.375  0.3082 -1.1601 -1.7696
   82SOPE   C12 7464   3.924   0.650   0.435 -0.3493 -0.4578  0.0171
   82SOPE  H12A 7465   3.890   0.545   0.447 -3.1980  0.2808 -0.8453
   82SOPE  H12B 7466   3.840   0.711   0.396 -0.1930  0.0044  0.3938
   82SOPE   C11 7467   3.976   0.723   0.564 -0.7398  0.3968 -0.3949
   82SOPE  H11A 7468   3.889   0.718   0.632 -0.8462 -0.7167 -0.5959
   82SOPE  H11B 7469   4.006   0.823   0.526  0.3261  0.1688 -0.1865
   82SOPE     P 7470   4.241   0.694   0.599  0.2357  0.6486  0.2049
   82SOPE   O13 7471   4.326   0.615   0.694  0.1120 -0.0928  0.1377
   82SOPE   O14 7472   4.255   0.835   0.587  0.3489 -0.1560  0.1923
   82SOPE   O12 7473   4.088   0.646   0.614 -0.1651 -0.2710  0.3460
   82SOPE   O11 7474   4.266   0.627   0.452 -0.2640  0.3459  0.0779
   82SOPE    C1 7475   4.398   0.660   0.392 -0.5666 -0.6240  0.5880
   82SOPE    HA 7476   4.483   0.614   0.447 -1.0156 -1.5005  0.5608
   82SOPE    HB 7477   4.410   0.771   0.396 -0.6029 -0.6023  0.1191
   82SOPE    C2 7478   4.407   0.627   0.242  0.1945 -0.0250  0.4164
   82SOPE    HS 7479   4.515   0.646   0.221  0.9041 -1.1396  2.7442
   82SOPE   O21 7480   4.310   0.710   0.176  0.4213 -0.2119 -0.3131
   82SOPE   C21 7481   4.355   0.750   0.052 -0.2841  0.1142 -0.6253
   82SOPE   O22 7482   4.464   0.729   0.002  0.3612  0.0339 -0.3201
   82SOPE   C22 7483   4.242   0.834  -0.016  0.5121 -0.6400  0.3394
   82SOPE   H2R 7484   4.241   0.939   0.019 -0.9529 -0.1767 -1.0147
   82SOPE   H2S 7485   4.147   0.784   0.011 -1.2247  2.5022  0.4828
   82SOPE    C3 7486   4.372   0.478   0.209  0.1023 -1.0030  0.0096
   82SOPE    HX 7487   4.262   0.466   0.209  0.2928 -3.5698  1.9242
   82SOPE    HY 7488   4.410   0.404   0.282 -2.1926 -2.9297 -0.6386
   82SOPE   O31 7489   4.420   0.445   0.076 -0.0407  0.0087  0.3228
   82SOPE   C31 7490   4.535   0.374   0.065 -0.1086  0.4234 -0.3181
   82SOPE   O32 7491   4.600   0.329   0.157 -0.0977  0.1746  0.1111
   82SOPE   C32 7492   4.558   0.350  -0.081 -0.5196 -0.6694  0.3942
   82SOPE   H2X 7493   4.510   0.437  -0.132 -0.2537 -0.9614 -0.3673
   82SOPE   H2Y 7494   4.516   0.251  -0.105 -2.0958  0.4451 -1.7931
   82SOPE   C23 7495   4.251   0.856  -0.172  0.2025  0.2560 -0.3937
   82SOPE   H3R 7496   4.295   0.769  -0.226  0.5448 -0.2775  0.7056
   82SOPE   H3S 7497   4.319   0.941  -0.193  2.8906 -2.1552 -2.3203
   82SOPE   C24 7498   4.114   0.883  -0.233  0.0706  0.6067  0.1203
   82SOPE   H4R 7499   4.060   0.788  -0.212 -1.5546  0.8634 -2.3714
   82SOPE   H4S 7500   4.054   0.972  -0.207 -1.5601 -0.9287  1.9226
   82SOPE   C25 7501   4.130   0.877  -0.388 -0.4625 -0.1141  0.4568
   82SOPE   H5R 7502   4.229   0.837  -0.420 -0.1526  2.0125 -1.5813
   82SOPE   H5S 7503   4.040   0.825  -0.427 -0.0089 -0.5972  0.0365
   82SOPE   C26 7504   4.122   1.006  -0.466 -0.1642 -0.1475  0.2178
   82SOPE   H6R 7505   4.022   1.047  -0.441 -0.7356 -1.1300 -0.3854
   82SOPE   H6S 7506   4.192   1.080  -0.421 -2.1610  1.6508  0.5154
   82SOPE   C27 7507   4.152   1.004  -0.619 -0.4276  0.9159 -0.5488
   82SOPE   H7R 7508   4.259   0.975  -0.632 -1.0349 -1.7954 -0.1213
   82SOPE   H7S 7509   4.093   0.918  -0.657 -1.2928 -0.0466  2.6696
   82SOPE   C28 7510   4.140   1.131  -0.698  0.2724  0.2855 -0.1023
   82SOPE   H8R 7511   4.159   1.116  -0.806  1.9499  0.4354  0.1497
   82SOPE   H8S 7512   4.032   1.158  -0.696 -0.7654 -3.2887 -0.3041
   82SOPE   C29 7513   4.228   1.237  -0.656 -0.4398 -0.6657 -0.3973
   82SOPE   H91 7514   4.334   1.217  -0.636 -0.7976 -2.8353 -0.3940
   82SOPE  C210 7515   4.189   1.367  -0.661 -0.4217  0.5059  0.5146
   82SOPE  H101 7516   4.259   1.447  -0.632 -0.0589  1.0101 -1.5409
   82SOPE  C211 7517   4.061   1.423  -0.720  0.0505 -0.3035  0.0770
   82SOPE  H11R 7518   4.013   1.483  -0.639 -0.2762 -0.3524 -0.0795
   82SOPE  H11S 7519   3.988   1.345  -0.749  1.5214 -1.9221  0.5543
   82SOPE  C212 7520   4.066   1.514  -0.849  0.1625 -0.1099  0.1001
   82SOPE  H12R 7521   4.160   1.572  -0.846 -1.2815  2.4267 -0.2787
   82SOPE  H12S 7522   3.978   1.582  -0.846  1.3049  1.4117  0.5390
   82SOPE  C213 7523   4.073   1.413  -0.966  0.4888 -0.3953  0.2508
   82SOPE  H13R 7524   3.978   1.357  -0.971  0.5264 -0.5563  1.1834
   82SOPE  H13S 7525   4.149   1.334  -0.951 -1.9077 -2.6268  1.2667
   82SOPE  C214 7526   4.070   1.493  -1.102  0.2745 -0.3931  0.0206
   82SOPE  H14R 7527   4.011   1.587  -1.092  1.8836  0.8546 -1.5753
   82SOPE  H14S 7528   4.018   1.434  -1.181 -0.3031  0.2943 -0.1314
   82SOPE  C215 7529   4.201   1.539  -1.157 -1.3699 -0.6257  0.4238
   82SOPE  H15R 7530   4.271   1.454  -1.167 -0.8760 -0.0117 -1.9819
   82SOPE  H15S 7531   4.248   1.608  -1.083 -0.2354 -1.3214  0.3671
   82SOPE  C216 7532   4.194   1.613  -1.288  0.0421  0.5451  0.4334
   82SOPE  H16R 7533   4.153   1.716  -1.278 -1.4036  0.0601 -0.1384
   82SOPE  H16S 7534   4.123   1.563  -1.358 -1.3833 -1.1439  2.9420
   82SOPE  C217 7535   4.334   1.631  -1.353  0.1191 -0.0005 -0.5792
   82SOPE  H17R 7536   4.331   1.719  -1.421  2.0435  1.3987  1.0148
   82SOPE  H17S 7537   4.351   1.535  -1.406 -2.9806 -0.3302 -1.1331
   82SOPE  C218 7538   4.441   1.664  -1.250 -0.1137 -0.3169 -0.2408
   82SOPE  H18R 7539   4.426   1.763  -1.204  1.6745  1.3902 -3.0361
   82SOPE  H18S 7540   4.541   1.666  -1.300  1.5668  1.8014  2.8526
   82SOPE  H18T 7541   4.452   1.589  -1.168  0.8540 -0.3853 -0.4215
   82SOPE   C33 7542   4.707   0.355  -0.106 -0.4032 -0.5064 -0.3432
   82SOPE   H3X 7543   4.774   0.287  -0.049  0.8822  2.1008  1.4701
   82SOPE   H3Y 7544   4.748   0.453  -0.074 -1.5494  0.1457 -0.7948
   82SOPE   C34 7545   4.736   0.352  -0.256  0.2174 -0.2894  0.6505
   82SOPE   H4X 7546   4.706   0.451  -0.296 -1.1960 -0.2387  1.7736
   82SOPE   H4Y 7547   4.674   0.275  -0.305 -0.8997 -0.3407  2.0767
   82SOPE   C35 7548   4.888   0.330  -0.276 -0.1385 -0.3916 -0.7240
   82SOPE   H5X 7549   4.923   0.224  -0.271  2.7283  0.4921  0.2436
   82SOPE   H5Y 7550   4.932   0.388  -0.192  0.3030 -1.7850  0.0534
   82SOPE   C36 7551   4.940   0.397  -0.412  0.1616  0.1688 -0.7664
   82SOPE   H6X 7552   5.051   0.411  -0.409  0.0606  0.9022  1.3424
   82SOPE   H6Y 7553   4.911   0.503  -0.405 -1.7736 -0.3755  0.1943
   82SOPE   C37 7554   4.891   0.330  -0.538 -0.0303 -0.2219  0.0144
   82SOPE   H7X 7555   4.781   0.321  -0.529 -0.3058  3.7596  3.1720
   82SOPE   H7Y 7556   4.953   0.241  -0.564  1.2962  0.8058 -0.4314
   82SOPE   C38 7557   4.922   0.426  -0.658  0.3091 -0.1418  0.0854
   82SOPE   H8X 7558   5.033   0.432  -0.663  0.4029  0.4621  2.1038
   82SOPE   H8Y 7559   4.873   0.525  -0.648 -1.0411 -0.7953  0.0617
   82SOPE   C39 7560   4.868   0.374  -0.797 -0.0631 -0.3915 -0.2033
   82SOPE   H9X 7561   4.757   0.373  -0.787  0.0320  0.6166  1.2907
   82SOPE   H9Y 7562   4.909   0.271  -0.804 -0.7139 -0.5918 -1.2828
   82SOPE  C310 7563   4.926   0.459  -0.911 -0.7991  0.2896 -0.6929
   82SOPE  H10X 7564   5.037   0.454  -0.903 -0.9269 -1.9303  0.2567
   82SOPE  H10Y 7565   4.876   0.558  -0.896 -1.0341 -0.1693  2.2604
   82SOPE  C311 7566   4.890   0.416  -1.056 -0.1815 -0.1358 -0.0439
   82SOPE  H11X 7567   4.783   0.390  -1.068 -0.2621  0.5253 -0.8722
   82SOPE  H11Y 7568   4.944   0.323  -1.085 -0.3574  0.1610 -1.3904
   82SOPE  C312 7569   4.911   0.523  -1.168 -0.0088 -0.1764 -0.3678
   82SOPE  H12X 7570   5.011   0.552  -1.128 -0.1492  0.3660 -0.3981
   82SOPE  H12Y 7571   4.851   0.616  -1.164  1.5823  0.9358 -1.2713
   82SOPE  C313 7572   4.932   0.471  -1.312  0.3475 -0.0673  0.4662
   82SOPE  H13X 7573   4.990   0.377  -1.322  1.5596  0.8515 -1.7608
   82SOPE  H13Y 7574   4.998   0.543  -1.364  1.0795  0.1313  1.6385
   82SOPE  C314 7575   4.804   0.470  -1.392 -0.2923  0.4931 -0.0946
   82SOPE  H14X 7576   4.761   0.572  -1.403  1.3379  1.0317 -2.3435
   82SOPE  H14Y 7577   4.735   0.408  -1.331  1.0637  2.6281  3.9152
   82SOPE  C315 7578   4.822   0.416  -1.538 -0.0915  0.1535 -0.0374
   82SOPE  H15X 7579   4.896   0.333  -1.538 -0.0956  0.1506 -0.2325
   82SOPE  H15Y 7580   4.846   0.490  -1.617  0.6413 -1.1417 -1.0627
   82SOPE  C316 7581   4.683   0.357  -1.583 -0.5759  1.0534  0.1857
   82SOPE  H16X 7582   4.603   0.427  -1.614 -1.6603 -1.1375 -2.2717
   82SOPE  H16Y 7583   4.640   0.295  -1.501  1.8343  1.2823  1.7443
   82SOPE  C317 7584   4.696   0.256  -1.698 -0.2194 -0.5089 -0.0192
   82SOPE  H17X 7585   4.747   0.162  -1.668 -0.2082 -0.7769 -0.8503
   82SOPE  H17Y 7586   4.759   0.306  -1.775  0.6184  0.3134  1.1743
   82SOPE  C318 7587   4.555   0.228  -1.765 -0.7400 -0.1659 -0.5108
   82SOPE  H18X 7588   4.564   0.169  -1.858  2.0005  1.5144 -1.4542
   82SOPE  H18Y 7589   4.516   0.328  -1.794 -1.5864 -0.3004  0.1316
   82SOPE  H18Z 7590   4.489   0.190  -1.685 -0.2109 -1.9150 -0.8716
   83SOPE     N 7591   6.887   5.474   4.454 -0.2959  0.2082  0.3888
   83SOPE   HN1 7592   6.955   5.516   4.521  0.4897 -0.5075  0.0480
   83SOPE   HN2 7593   6.800   5.530   4.465  0.6278  1.6278  0.7117
   83SOPE   HN3 7594   6.857   5.380   4.486 -4.8723  0.6488 -1.8118
   83SOPE   C12 7595   6.935   5.485   4.307  0.1866  0.6086  0.2919
   83SOPE  H12A 7596   6.849   5.460   4.242 -0.8179  0.0182  1.7949
   83SOPE  H12B 7597   7.012   5.405   4.293  1.1814  1.0740  2.5464
   83SOPE   C11 7598   6.982   5.626   4.289  0.3267 -0.2322  0.0928
   83SOPE  H11A 7599   6.999   5.631   4.180  0.1667  1.9406  0.1290
   83SOPE  H11B 7600   7.083   5.634   4.335  0.0363  0.6722  0.6099
   83SOPE     P 7601   6.914   5.879   4.303 -0.2481 -0.1415 -0.4061
   83SOPE   O13 7602   6.822   5.956   4.390 -0.3421  0.1322  0.3323
   83SOPE   O14 7603   6.913   5.908   4.159 -0.0576  0.3218  0.1541
   83SOPE   O12 7604   6.889   5.726   4.335  0.1326  0.0970 -0.4549
   83SOPE   O11 7605   7.059   5.906   4.367 -0.1756 -0.3569 -0.1391
   83SOPE    C1 7606   7.108   5.851   4.491 -0.1780  0.4431  0.6257
   83SOPE    HA 7607   7.207   5.801   4.485 -0.3842 -0.1208  1.6817
   83SOPE    HB 7608   7.038   5.773   4.529  2.0920  0.1323  4.6919
   83SOPE    C2 7609   7.103   5.954   4.610  0.6432 -0.2704 -0.2781
   83SOPE    HS 7610   7.007   6.008   4.590  1.1802  1.0086  0.4307
   83SOPE   O21 7611   7.215   6.037   4.600  0.2981 -0.2879 -0.5685
   83SOPE   C21 7612   7.207   6.160   4.652 -0.4177  0.8979  0.1292
   83SOPE   O22 7613   7.104   6.222   4.672  0.2152  0.1458 -0.1655
   83SOPE   C22 7614   7.346   6.212   4.667  0.4102 -0.5491  0.2571
   83SOPE   H2R 7615   7.387   6.260   4.575  1.1140 -1.7259 -0.0609
   83SOPE   H2S 7616   7.424   6.135   4.686  1.9082  0.5309 -1.1831
   83SOPE    C3 7617   7.095   5.879   4.749 -0.4435 -0.2302  0.0746
   83SOPE    HX 7618   7.199   5.847   4.771 -0.2596  0.6611  0.5578
   83SOPE    HY 7619   7.021   5.796   4.744  2.7220 -3.2521 -0.5922
   83SOPE   O31 7620   7.057   5.986   4.855 -0.3285 -0.1570 -0.6156
   83SOPE   C31 7621   6.925   6.007   4.869  0.6289 -0.5002  0.9799
   83SOPE   O32 7622   6.834   5.939   4.818  0.1433  0.4047  0.1883
   83SOPE   C32 7623   6.897   6.133   4.947 -0.1740 -0.4403 -0.0827
   83SOPE   H2X 7624   6.799   6.175   4.915 -0.0946 -0.4214 -0.2972
   83SOPE   H2Y 7625   6.969   6.213   4.919 -1.5916  0.2703 -1.8916
   83SOPE   C23 7626   7.352   6.321   4.774 -0.4055  0.3947 -0.6812
   83SOPE   H3R 7627   7.264   6.388   4.759 -1.8525 -1.8118 -2.8615
   83SOPE   H3S 7628   7.451   6.371   4.769  0.9068 -2.0195 -0.2067
   83SOPE   C24 7629   7.344   6.267   4.918  0.4761 -0.0048 -0.0736
   83SOPE   H4R 7630   7.238   6.249   4.947 -0.1669 -0.6802 -2.6393
   83SOPE   H4S 7631   7.385   6.164   4.920 -0.9840 -0.6228 -0.4707
   83SOPE   C25 7632   7.415   6.358   5.020 -0.5431  0.5100 -0.7487
   83SOPE   H5R 7633   7.519   6.371   4.982  0.0838 -0.6878  0.4745
   83SOPE   H5S 7634   7.360   6.453   5.031  2.5586  2.2062  1.7573
   83SOPE   C26 7635   7.408   6.290   5.154 -0.5573 -0.2761  0.4030
   83SOPE   H6R 7636   7.300   6.282   5.177 -0.9612  0.6741 -0.9835
   83SOPE   H6S 7637   7.452   6.188   5.142  0.0161 -0.1215  1.1507
   83SOPE   C27 7638   7.486   6.381   5.251 -0.1791  0.3605  0.1604
   83SOPE   H7R 7639   7.593   6.393   5.223 -0.3506 -0.3988 -0.9086
   83SOPE   H7S 7640   7.435   6.479   5.246  0.0334  0.4663  0.0422
   83SOPE   C28 7641   7.487   6.331   5.395 -0.8542 -0.0154 -0.6261
   83SOPE   H8R 7642   7.553   6.242   5.388 -0.7773 -0.1023  0.8960
   83SOPE   H8S 7643   7.544   6.400   5.461 -0.3739 -0.5523 -0.4712
   83SOPE   C29 7644   7.359   6.292   5.475 -0.3987 -0.1526 -0.6274
   83SOPE   H91 7645   7.270   6.336   5.429  0.5374  1.1552 -1.2751
   83SOPE  C210 7646   7.347   6.196   5.567  0.4169 -0.3849  0.0822
   83SOPE  H101 7647   7.247   6.180   5.610  0.9631 -1.4531  0.9794
   83SOPE  C211 7648   7.458   6.120   5.635  0.0043  0.2943 -0.4760
   83SOPE  H11R 7649   7.534   6.198   5.656 -0.6523  1.1412 -1.1630
   83SOPE  H11S 7650   7.497   6.044   5.564  0.6153 -0.8099  0.9661
   83SOPE  C212 7651   7.424   6.056   5.776  0.5286 -0.1391 -0.3632
   83SOPE  H12R 7652   7.514   6.007   5.819  1.5735  0.6742 -1.5512
   83SOPE  H12S 7653   7.347   5.978   5.756 -1.7999  1.4568  1.6399
   83SOPE  C213 7654   7.362   6.146   5.880  0.1796  0.1697  0.2236
   83SOPE  H13R 7655   7.284   6.210   5.833  0.4482  1.5791  1.6352
   83SOPE  H13S 7656   7.437   6.219   5.917  1.7370 -2.4447  2.6663
   83SOPE  C214 7657   7.322   6.074   6.010  0.4722 -0.2268  0.1175
   83SOPE  H14R 7658   7.249   5.996   5.980  0.7179 -0.7126  0.7688
   83SOPE  H14S 7659   7.271   6.148   6.075  0.7441 -0.8888  1.1148
   83SOPE  C215 7660   7.441   6.011   6.087 -0.6253  0.0935  0.2129
   83SOPE  H15R 7661   7.511   6.092   6.115  0.8085 -1.2044  0.5299
   83SOPE  H15S 7662   7.482   5.934   6.019 -3.9522 -1.4393 -0.2660
   83SOPE  C216 7663   7.391   5.919   6.201 -0.4452  0.2683 -0.2112
   83SOPE  H16R 7664   7.469   5.877   6.268 -0.5306 -0.1951 -0.3986
   83SOPE  H16S 7665   7.339   5.832   6.155  2.0868  0.1298 -3.0963
   83SOPE  C217 7666   7.303   5.986   6.302  0.2872 -0.1190 -0.0964
   83SOPE  H17R 7667   7.228   6.041   6.243  2.0021  1.5201 -0.8612
   83SOPE  H17S 7668   7.360   6.062   6.360 -0.7738 -1.2230  2.5811
   83SOPE  C218 7669   7.223   5.903   6.396  0.0215  0.9860  0.0366
   83SOPE  H18R 7670   7.144   5.844   6.345  1.4521  0.5197 -1.7617
   83SOPE  H18S 7671   7.171   5.963   6.473  0.5664  1.0156  0.3892
   83SOPE  H18T 7672   7.285   5.831   6.455 -1.9594  0.4848  1.6188
   83SOPE   C33 7673   6.889   6.126   5.105  0.8133  0.1862 -0.2842
   83SOPE   H3X 7674   6.806   6.054   5.120 -1.8232  2.3676 -3.0027
   83SOPE   H3Y 7675   6.846   6.223   5.138 -1.9562 -1.3922  1.1151
   83SOPE   C34 7676   7.022   6.086   5.175  0.7394  0.0236 -0.0500
   83SOPE   H4X 7677   7.093   6.170   5.155 -0.7374  1.1138 -0.8880
   83SOPE   H4Y 7678   7.046   5.991   5.122 -1.4164 -0.7670  0.3186
   83SOPE   C35 7679   7.000   6.044   5.323  0.1207  0.1674  0.4832
   83SOPE   H5X 7680   7.092   5.986   5.347  0.7950  0.8767 -0.3455
   83SOPE   H5Y 7681   6.917   5.970   5.336  1.4192 -1.1182  1.8976
   83SOPE   C36 7682   6.974   6.152   5.430  0.6598 -0.3700  0.6284
   83SOPE   H6X 7683   6.880   6.204   5.400  0.6500 -0.7099  0.0709
   83SOPE   H6Y 7684   7.046   6.236   5.425 -0.9833  1.1610  1.3195
   83SOPE   C37 7685   6.972   6.082   5.564 -0.2697 -0.0513  0.2658
   83SOPE   H7X 7686   7.076   6.053   5.590 -0.7617 -2.0523  0.1852
   83SOPE   H7Y 7687   6.928   5.981   5.553  1.1938 -0.6185 -0.5795
   83SOPE   C38 7688   6.905   6.161   5.676  0.5562  0.4346 -1.1800
   83SOPE   H8X 7689   6.911   6.108   5.774  0.8088 -0.6696 -1.7746
   83SOPE   H8Y 7690   6.800   6.174   5.642  0.5182  0.3676 -1.0891
   83SOPE   C39 7691   6.978   6.289   5.705  0.1019  0.1138  0.1253
   83SOPE   H9X 7692   6.991   6.352   5.615 -0.6584  2.0360  1.2926
   83SOPE   H9Y 7693   7.087   6.270   5.720  0.6251  1.9361 -1.0062
   83SOPE  C310 7694   6.918   6.367   5.818 -0.0554  0.4970 -0.9613
   83SOPE  H10X 7695   6.822   6.319   5.847  0.8844 -1.1833 -0.4795
   83SOPE  H10Y 7696   6.900   6.472   5.787  0.7228  1.0049  0.2169
   83SOPE  C311 7697   7.007   6.363   5.948  0.3093 -0.0640  0.0874
   83SOPE  H11X 7698   6.987   6.461   5.996  1.0084 -0.3737  1.0480
   83SOPE  H11Y 7699   7.116   6.356   5.929  0.6490  0.4886  1.7261
   83SOPE  C312 7700   6.958   6.243   6.033  0.1208 -0.2517 -0.4288
   83SOPE  H12X 7701   6.972   6.145   5.984 -1.2473  0.2898 -1.9999
   83SOPE  H12Y 7702   6.848   6.253   6.043  0.3053  1.8983  0.0414
   83SOPE  C313 7703   7.019   6.257   6.174 -0.2843  0.5940 -0.4270
   83SOPE  H13X 7704   7.116   6.310   6.157 -0.4347  0.5597 -1.4623
   83SOPE  H13Y 7705   7.037   6.158   6.220  0.1202  1.2425  0.8840
   83SOPE  C314 7706   6.945   6.350   6.277 -0.4020  0.6355 -0.0006
   83SOPE  H14X 7707   6.843   6.344   6.234  0.5707  1.3196 -2.5431
   83SOPE  H14Y 7708   6.976   6.456   6.268  0.1707  0.4024 -0.9706
   83SOPE  C315 7709   6.950   6.301   6.425 -0.8275 -0.0392  0.0653
   83SOPE  H15X 7710   6.913   6.196   6.435  0.4434 -0.3477  1.8992
   83SOPE  H15Y 7711   6.884   6.362   6.489 -0.2780 -0.6526  1.2478
   83SOPE  C316 7712   7.083   6.312   6.491  0.2132 -0.8051 -0.4559
   83SOPE  H16X 7713   7.103   6.421   6.499 -0.2802 -0.6212 -1.5808
   83SOPE  H16Y 7714   7.165   6.277   6.425  0.1410  0.9166 -1.5340
   83SOPE  C317 7715   7.084   6.243   6.628 -0.1781 -0.2635  0.0068
   83SOPE  H17X 7716   7.047   6.139   6.618 -1.4024  0.0914  0.6949
   83SOPE  H17Y 7717   7.006   6.287   6.694 -1.5987 -0.9709 -1.1346
   83SOPE  C318 7718   7.219   6.240   6.700 -0.4905  0.1661  0.3641
   83SOPE  H18X 7719   7.249   6.345   6.720 -2.1708  0.8824 -0.6396
   83SOPE  H18Y 7720   7.301   6.207   6.633 -0.5317  0.5504  0.1213
   83SOPE  H18Z 7721   7.216   6.177   6.792 -3.3986  0.3358  0.4741
   84SOPE     N 7722   0.320   2.395   4.397  0.1424  0.2427  0.4946
   84SOPE   HN1 7723   0.301   2.293   4.409 -1.4543  0.6488  1.9217
   84SOPE   HN2 7724   0.422   2.417   4.399  0.1094  0.4457 -0.1563
   84SOPE   HN3 7725   0.269   2.421   4.484 -0.3211 -0.1943  0.3561
   84SOPE   C12 7726   0.264   2.442   4.264 -1.4075 -0.2364  0.4017
   84SOPE  H12A 7727   0.309   2.384   4.181 -3.6195  1.2149 -1.9367
   84SOPE  H12B 7728   0.303   2.546   4.252 -0.5425 -0.8771 -3.5125
   84SOPE   C11 7729   0.113   2.420   4.252  0.6600  0.3709  0.6723
   84SOPE  H11A 7730   0.097   2.448   4.145  0.9566  3.5104  1.3425
   84SOPE  H11B 7731   0.071   2.504   4.312 -0.3874  2.1413 -2.3174
   84SOPE     P 7732  -0.078   2.237   4.252  0.0487 -0.5623 -0.1515
   84SOPE   O13 7733  -0.083   2.091   4.280  0.6258 -0.3461 -0.4473
   84SOPE   O14 7734  -0.099   2.278   4.114 -0.2951  0.3050  0.0098
   84SOPE   O12 7735   0.063   2.289   4.285 -1.0186 -0.3090 -0.3707
   84SOPE   O11 7736  -0.172   2.314   4.342 -0.5994 -0.7727  0.2261
   84SOPE    C1 7737  -0.248   2.270   4.455  0.0340 -0.8131  0.2357
   84SOPE    HA 7738  -0.293   2.170   4.439  0.0259 -0.9853  1.3166
   84SOPE    HB 7739  -0.333   2.342   4.459  2.1225  2.1790 -2.8545
   84SOPE    C2 7740  -0.162   2.272   4.582 -0.6549  0.2681 -0.2605
   84SOPE    HS 7741  -0.076   2.206   4.559 -1.2342 -1.1167  1.3426
   84SOPE   O21 7742  -0.247   2.217   4.684 -0.0711  0.0501  0.2287
   84SOPE   C21 7743  -0.181   2.153   4.779  0.6291 -0.0231  0.5986
   84SOPE   O22 7744  -0.062   2.125   4.781  0.1339  0.1631 -0.1994
   84SOPE   C22 7745  -0.273   2.102   4.884 -0.0573  0.5814  0.4474
   84SOPE   H2R 7746  -0.211   2.027   4.937  0.1557  0.3522 -0.1122
   84SOPE   H2S 7747  -0.367   2.062   4.840  0.6369  0.4438 -0.9845
   84SOPE    C3 7748  -0.121   2.412   4.620 -0.5532  0.1028  0.9700
   84SOPE    HX 7749  -0.211   2.478   4.624 -0.6707  0.3039 -2.4418
   84SOPE    HY 7750  -0.064   2.459   4.538  0.1759  1.3391  2.1407
   84SOPE   O31 7751  -0.041   2.416   4.742  0.1272 -0.1744  0.5785
   84SOPE   C31 7752  -0.083   2.497   4.834 -0.8132 -0.8187  0.1816
   84SOPE   O32 7753  -0.162   2.595   4.813 -0.6940 -0.2473 -0.6695
   84SOPE   C32 7754  -0.012   2.454   4.964 -0.3364 -0.4014 -0.5582
   84SOPE   H2X 7755   0.092   2.492   4.962  0.6975 -2.6972  2.4500
   84SOPE   H2Y 7756   0.000   2.344   4.959 -0.2508 -0.5207  1.6012
   84SOPE   C23 7757  -0.326   2.209   4.983  0.2367 -0.8448 -0.3242
   84SOPE   H3R 7758  -0.379   2.286   4.924  1.6529  0.4442  0.0397
   84SOPE   H3S 7759  -0.244   2.267   5.031 -1.2110  1.0754 -0.0802
   84SOPE   C24 7760  -0.410   2.164   5.096 -0.3930  0.0339  0.0143
   84SOPE   H4R 7761  -0.492   2.097   5.063  0.7040  0.0591 -3.0328
   84SOPE   H4S 7762  -0.342   2.121   5.172  1.0817  1.8501 -0.2002
   84SOPE   C25 7763  -0.464   2.288   5.181  0.7411  0.3778  0.0096
   84SOPE   H5R 7764  -0.381   2.350   5.221 -0.0326  1.3766  0.1200
   84SOPE   H5S 7765  -0.522   2.353   5.112  1.6656  1.4460  0.2209
   84SOPE   C26 7766  -0.570   2.244   5.283  0.3136 -0.0112  0.3599
   84SOPE   H6R 7767  -0.621   2.331   5.329 -0.6243 -0.1240 -0.4247
   84SOPE   H6S 7768  -0.640   2.191   5.216  1.1669  0.2693 -0.7875
   84SOPE   C27 7769  -0.532   2.151   5.402  0.3789 -0.3454  0.0850
   84SOPE   H7R 7770  -0.487   2.059   5.358 -0.8314 -0.2906 -1.3210
   84SOPE   H7S 7771  -0.452   2.199   5.464  0.3055  0.9024 -0.7590
   84SOPE   C28 7772  -0.649   2.121   5.496 -0.7088 -0.3151  0.0081
   84SOPE   H8R 7773  -0.614   2.081   5.593 -3.5531 -4.2686 -0.3586
   84SOPE   H8S 7774  -0.702   2.218   5.503 -2.9784 -1.5087  0.1203
   84SOPE   C29 7775  -0.736   2.012   5.434 -0.1535  0.4476 -0.4350
   84SOPE   H91 7776  -0.775   2.034   5.334 -1.3421  1.2681  0.1831
   84SOPE  C210 7777  -0.752   1.888   5.495 -0.2031  0.2139  0.2687
   84SOPE  H101 7778  -0.797   1.810   5.432  0.2899  0.9985 -1.1047
   84SOPE  C211 7779  -0.696   1.839   5.623  0.7412 -1.1289  1.1658
   84SOPE  H11R 7780  -0.598   1.889   5.639  0.4908 -0.4297  0.5933
   84SOPE  H11S 7781  -0.659   1.735   5.612 -1.6806 -1.8616 -1.2171
   84SOPE  C212 7782  -0.784   1.841   5.745  0.5560 -0.4684  0.0727
   84SOPE  H12R 7783  -0.886   1.804   5.723  0.8019 -1.5550  0.6625
   84SOPE  H12S 7784  -0.808   1.944   5.777 -0.9483 -1.1358  1.2321
   84SOPE  C213 7785  -0.713   1.767   5.864 -0.4176 -0.4214  0.3037
   84SOPE  H13R 7786  -0.609   1.797   5.889 -0.4928 -0.6128  0.8600
   84SOPE  H13S 7787  -0.705   1.659   5.838  1.6500  0.4590 -3.4419
   84SOPE  C214 7788  -0.806   1.756   5.988 -0.4593 -0.1607 -0.7938
   84SOPE  H14R 7789  -0.896   1.705   5.949  0.3242 -0.3033 -2.5138
   84SOPE  H14S 7790  -0.841   1.854   6.028  1.6187  0.1369  0.4749
   84SOPE  C215 7791  -0.758   1.675   6.110  0.8529 -0.2030 -0.1586
   84SOPE  H15R 7792  -0.738   1.579   6.057  0.2092 -0.6098  0.3181
   84SOPE  H15S 7793  -0.833   1.646   6.187  0.0407 -0.3013 -0.9841
   84SOPE  C216 7794  -0.628   1.734   6.176  0.1481 -0.6092  0.5011
   84SOPE  H16R 7795  -0.646   1.842   6.193 -0.2116 -0.3418 -1.3468
   84SOPE  H16S 7796  -0.544   1.717   6.105  1.5184  0.7731  1.7235
   84SOPE  C217 7797  -0.589   1.676   6.314  0.0935 -0.1127 -0.0286
   84SOPE  H17R 7798  -0.564   1.570   6.294  1.3930  0.2729 -0.5694
   84SOPE  H17S 7799  -0.672   1.683   6.388  2.1263 -0.2110  2.4216
   84SOPE  C218 7800  -0.461   1.742   6.364  0.5877  0.2584 -0.2226
   84SOPE  H18R 7801  -0.374   1.721   6.298  0.9674  0.4336  0.2155
   84SOPE  H18S 7802  -0.446   1.698   6.465 -2.2853  0.9342  0.5682
   84SOPE  H18T 7803  -0.472   1.849   6.390 -3.1342  0.1801 -0.9425
   84SOPE   C33 7804  -0.079   2.501   5.090 -0.4035 -0.5470  0.4078
   84SOPE   H3X 7805  -0.187   2.477   5.084 -0.1782 -1.3618 -0.6719
   84SOPE   H3Y 7806  -0.069   2.611   5.092 -1.4112 -0.4512  0.4882
   84SOPE   C34 7807  -0.015   2.442   5.224 -0.0121 -0.5887  1.4461
   84SOPE   H4X 7808   0.090   2.477   5.228  0.1957 -0.7215 -1.2685
   84SOPE   H4Y 7809  -0.026   2.332   5.207 -0.9242 -0.2330 -0.5597
   84SOPE   C35 7810  -0.096   2.465   5.353 -0.3328  0.0590  0.0115
   84SOPE   H5X 7811  -0.201   2.433   5.334  0.3552 -1.7864 -0.9884
   84SOPE   H5Y 7812  -0.099   2.575   5.362  3.6698  0.4086 -0.9095
   84SOPE   C36 7813  -0.044   2.382   5.470  0.2931  0.1408 -0.4317
   84SOPE   H6X 7814   0.064   2.403   5.490  0.2127  0.9285 -0.7616
   84SOPE   H6Y 7815  -0.055   2.273   5.453 -3.2004  0.3276 -0.1175
   84SOPE   C37 7816  -0.118   2.416   5.604 -0.6891 -0.3726  0.1510
   84SOPE   H7X 7817  -0.222   2.378   5.594 -0.5794 -0.5102 -0.5340
   84SOPE   H7Y 7818  -0.124   2.524   5.628  1.4403 -0.6967  2.6568
   84SOPE   C38 7819  -0.055   2.356   5.734  0.5505 -0.7422  0.6222
   84SOPE   H8X 7820   0.048   2.398   5.731 -0.0770  0.8479 -0.6838
   84SOPE   H8Y 7821  -0.059   2.245   5.741 -2.6239 -0.7251  0.5101
   84SOPE   C39 7822  -0.134   2.411   5.851 -0.1584 -0.3585 -0.1641
   84SOPE   H9X 7823  -0.241   2.378   5.856 -0.5189  0.9480  1.9903
   84SOPE   H9Y 7824  -0.135   2.522   5.846  0.4063 -0.1456  2.7493
   84SOPE  C310 7825  -0.066   2.376   5.982 -0.0464 -0.3392 -0.4837
   84SOPE  H10X 7826   0.042   2.401   5.982 -0.1414  0.1695  0.8561
   84SOPE  H10Y 7827  -0.050   2.267   5.989  2.5474 -0.0702 -1.2334
   84SOPE  C311 7828  -0.142   2.436   6.099  0.6459 -0.0334 -0.1344
   84SOPE  H11X 7829  -0.233   2.373   6.110  0.6616  0.1279  1.1075
   84SOPE  H11Y 7830  -0.177   2.540   6.087 -1.0008 -0.3955  1.1320
   84SOPE  C312 7831  -0.054   2.417   6.225 -0.2207  0.0899  0.5504
   84SOPE  H12X 7832   0.031   2.488   6.228 -0.2791  0.2899 -1.2394
   84SOPE  H12Y 7833  -0.015   2.313   6.223 -1.4927 -0.4219  1.2326
   84SOPE  C313 7834  -0.140   2.419   6.354 -0.4462 -0.0093 -0.0175
   84SOPE  H13X 7835  -0.068   2.405   6.437  1.5468  3.3449 -0.9355
   84SOPE  H13Y 7836  -0.214   2.337   6.353 -0.9709  0.4465  0.4976
   84SOPE  C314 7837  -0.203   2.562   6.368  0.1639  0.4590 -0.3026
   84SOPE  H14X 7838  -0.301   2.575   6.317 -0.8105 -0.6663  1.1906
   84SOPE  H14Y 7839  -0.146   2.642   6.316  1.3734 -1.5753 -2.2970
   84SOPE  C315 7840  -0.220   2.604   6.513 -0.5811 -0.0197  0.2870
   84SOPE  H15X 7841  -0.270   2.520   6.565  0.8320 -0.2820  1.2669
   84SOPE  H15Y 7842  -0.283   2.695   6.519 -0.2121  0.2414  0.2688
   84SOPE  C316 7843  -0.090   2.623   6.593  0.7317  0.5214 -0.2381
   84SOPE  H16X 7844  -0.027   2.678   6.519 -0.1319  1.6149 -0.1877
   84SOPE  H16Y 7845  -0.052   2.522   6.619 -2.3841 -0.1676  2.3194
   84SOPE  C317 7846  -0.114   2.706   6.717 -0.3271  0.1640 -0.0931
   84SOPE  H17X 7847  -0.133   2.812   6.690  0.8080  0.1771 -0.9126
   84SOPE  H17Y 7848  -0.015   2.710   6.767 -0.2309  1.8203 -0.3529
   84SOPE  C318 7849  -0.227   2.655   6.806 -0.3998  1.0848  0.3348
   84SOPE  H18X 7850  -0.243   2.733   6.884 -1.0756  1.1342  0.1521
   84SOPE  H18Y 7851  -0.202   2.551   6.836 -0.0376  0.5728 -1.6269
   84SOPE  H18Z 7852  -0.321   2.658   6.748 -0.1142 -0.1417 -0.2372
   85SOPE     N 7853   0.889   5.228   4.173  0.0410 -0.5488 -0.8269
   85SOPE   HN1 7854   0.894   5.132   4.132  0.2903 -0.7770 -0.2769
   85SOPE   HN2 7855   0.984   5.243   4.212  0.9331 -4.6370 -0.9235
   85SOPE   HN3 7856   0.816   5.232   4.247  0.7571 -0.5628 -0.1103
   85SOPE   C12 7857   0.854   5.318   4.063  0.5887 -0.4020  0.0133
   85SOPE  H12A 7858   0.759   5.291   4.012  0.8267  0.7827 -1.1213
   85SOPE  H12B 7859   0.936   5.321   3.989  0.5020 -0.2734 -0.0779
   85SOPE   C11 7860   0.820   5.465   4.111  0.2857  0.2066 -0.3633
   85SOPE  H11A 7861   0.805   5.523   4.017  1.9883 -0.9443 -1.4136
   85SOPE  H11B 7862   0.907   5.507   4.166  1.4323 -0.8476 -1.2827
   85SOPE     P 7863   0.631   5.597   4.229  0.4168  0.1071  0.2562
   85SOPE   O13 7864   0.489   5.559   4.238 -0.3706  0.1356  0.0997
   85SOPE   O14 7865   0.670   5.697   4.127  0.5369 -0.1814  0.5093
   85SOPE   O12 7866   0.704   5.466   4.201 -0.3805 -0.2720  0.4241
   85SOPE   O11 7867   0.686   5.643   4.369  0.3492 -0.5014 -0.7553
   85SOPE    C1 7868   0.702   5.558   4.478 -0.0654  0.5246 -0.1709
   85SOPE    HA 7869   0.811   5.534   4.486 -0.3493 -1.3901 -1.5366
   85SOPE    HB 7870   0.635   5.470   4.468  0.0773  0.3914  0.0222
   85SOPE    C2 7871   0.670   5.625   4.610  0.2656 -0.4251  0.4689
   85SOPE    HS 7872   0.566   5.664   4.606 -0.6268 -2.4503  2.0735
   85SOPE   O21 7873   0.777   5.721   4.642  0.5791  0.3841 -0.1196
   85SOPE   C21 7874   0.732   5.816   4.724 -0.6909  0.4677 -0.0375
   85SOPE   O22 7875   0.613   5.846   4.743 -0.6606 -0.0633 -0.6502
   85SOPE   C22 7876   0.855   5.879   4.783  0.3121 -0.4011  0.8919
   85SOPE   H2R 7877   0.933   5.886   4.705  0.2740  0.8010  0.9460
   85SOPE   H2S 7878   0.896   5.809   4.859  0.1553 -3.0051 -1.2576
   85SOPE    C3 7879   0.653   5.520   4.718 -0.1917  1.1776  0.5476
   85SOPE    HX 7880   0.751   5.467   4.711 -0.4870  0.6525  0.3867
   85SOPE    HY 7881   0.573   5.449   4.689  0.3003 -0.0208  2.0198
   85SOPE   O31 7882   0.625   5.572   4.848  0.3987 -0.5584 -0.2208
   85SOPE   C31 7883   0.497   5.609   4.877 -0.0610  0.4876 -0.1745
   85SOPE   O32 7884   0.407   5.604   4.796  0.0459 -0.0794  0.1110
   85SOPE   C32 7885   0.503   5.664   5.019  0.3678 -0.0450  0.7750
   85SOPE   H2X 7886   0.515   5.774   5.005  0.3640 -0.3055 -1.5328
   85SOPE   H2Y 7887   0.591   5.623   5.072  1.8759  0.5889 -1.1327
   85SOPE   C23 7888   0.833   6.014   4.852  0.5345  0.2034  0.4429
   85SOPE   H3R 7889   0.775   6.085   4.789  0.3200 -1.4031 -1.2534
   85SOPE   H3S 7890   0.931   6.060   4.879  0.9084  0.0634 -0.6009
   85SOPE   C24 7891   0.761   6.007   4.995 -0.3745 -0.3920 -0.1335
   85SOPE   H4R 7892   0.728   6.106   5.034 -0.5532 -0.8151  0.8121
   85SOPE   H4S 7893   0.667   5.949   4.992  1.0572 -2.8576  0.5542
   85SOPE   C25 7894   0.857   5.944   5.104 -0.0816  0.2836  0.3906
   85SOPE   H5R 7895   0.907   5.851   5.069 -0.5110  0.5007 -0.8247
   85SOPE   H5S 7896   0.935   6.018   5.129 -0.4069  0.3168  1.3474
   85SOPE   C26 7897   0.796   5.909   5.241  0.0795  0.0035  0.6278
   85SOPE   H6R 7898   0.760   5.998   5.297  0.1240  0.0605  0.5675
   85SOPE   H6S 7899   0.718   5.832   5.225 -0.6614  1.0644 -1.1437
   85SOPE   C27 7900   0.906   5.844   5.328 -0.5943  0.3686 -0.6637
   85SOPE   H7R 7901   0.967   5.765   5.278  2.1139  0.9715  1.4405
   85SOPE   H7S 7902   0.981   5.919   5.363  1.0321 -1.5940  0.3142
   85SOPE   C28 7903   0.857   5.778   5.458 -0.5580  0.3395  0.5559
   85SOPE   H8R 7904   0.767   5.717   5.441 -0.5697  0.3174  0.6933
   85SOPE   H8S 7905   0.936   5.705   5.487  0.6528  1.7081  0.8491
   85SOPE   C29 7906   0.816   5.871   5.567  0.0276  0.2031  0.3892
   85SOPE   H91 7907   0.707   5.883   5.573  0.0567  0.6905  0.0259
   85SOPE  C210 7908   0.893   5.923   5.664 -0.1696  0.4597  0.4321
   85SOPE  H101 7909   0.839   5.975   5.744  2.0706  1.5721  1.2998
   85SOPE  C211 7910   1.041   5.908   5.687  0.0686  0.0656 -0.6672
   85SOPE  H11R 7911   1.083   6.011   5.695  1.2266 -0.5089  1.1416
   85SOPE  H11S 7912   1.094   5.857   5.604  1.3780  0.2345  0.0307
   85SOPE  C212 7913   1.082   5.839   5.820 -0.7790  0.3694 -0.0120
   85SOPE  H12R 7914   1.043   5.735   5.822 -0.5299  0.2853  0.8560
   85SOPE  H12S 7915   1.033   5.899   5.899  0.9661 -0.5668  1.8809
   85SOPE  C213 7916   1.236   5.854   5.845  0.1417 -0.1294 -0.4900
   85SOPE  H13R 7917   1.259   5.955   5.886 -0.3098  0.2521 -1.1705
   85SOPE  H13S 7918   1.298   5.834   5.756  2.8579  3.7159  0.2948
   85SOPE  C214 7919   1.284   5.753   5.956 -0.5089  0.5147 -0.3599
   85SOPE  H14R 7920   1.253   5.653   5.919  1.6193 -0.1269 -0.5775
   85SOPE  H14S 7921   1.233   5.763   6.054 -0.9560 -2.5725 -0.1645
   85SOPE  C215 7922   1.435   5.751   5.984 -0.6536  0.6368 -0.1782
   85SOPE  H15R 7923   1.464   5.849   6.027  2.4379 -0.1818 -0.2005
   85SOPE  H15S 7924   1.499   5.740   5.894  0.0823 -1.1819  0.5165
   85SOPE  C216 7925   1.497   5.632   6.055 -0.3869  0.1927  0.1891
   85SOPE  H16R 7926   1.607   5.645   6.047  0.0135 -1.9052  1.7333
   85SOPE  H16S 7927   1.479   5.540   5.996  2.6044  0.3989 -1.2612
   85SOPE  C217 7928   1.443   5.610   6.196  0.4299 -0.1283 -0.2983
   85SOPE  H17R 7929   1.480   5.511   6.231 -2.0728 -1.0368  0.0035
   85SOPE  H17S 7930   1.332   5.601   6.199 -0.1621  3.8819 -2.3580
   85SOPE  C218 7931   1.487   5.708   6.304 -0.4859 -0.6359 -0.3448
   85SOPE  H18R 7932   1.598   5.717   6.304 -0.6133  1.2846  0.2293
   85SOPE  H18S 7933   1.452   5.677   6.405  0.8210 -0.7404  0.1023
   85SOPE  H18T 7934   1.447   5.810   6.288  1.0608  0.2102  0.8013
   85SOPE   C33 7935   0.381   5.638   5.107  0.1503 -0.0478 -0.3060
   85SOPE   H3X 7936   0.377   5.528   5.122  1.5493  0.0046  0.6739
   85SOPE   H3Y 7937   0.291   5.659   5.045 -2.0707  0.8014  2.9785
   85SOPE   C34 7938   0.401   5.732   5.225  1.0110  0.4113 -0.1891
   85SOPE   H4X 7939   0.400   5.834   5.181 -0.1006  0.4990  0.0162
   85SOPE   H4Y 7940   0.496   5.718   5.281  0.4299 -0.2955  0.6479
   85SOPE   C35 7941   0.279   5.730   5.323 -0.4134  0.1958 -0.6135
   85SOPE   H5X 7942   0.181   5.755   5.278 -1.2471 -0.5091  0.7434
   85SOPE   H5Y 7943   0.275   5.828   5.376  0.0742  1.0343 -2.0575
   85SOPE   C36 7944   0.255   5.605   5.413 -0.4121 -0.8648  0.1964
   85SOPE   H6X 7945   0.355   5.583   5.456  0.8115  1.0583 -1.4891
   85SOPE   H6Y 7946   0.227   5.519   5.348 -0.0302  0.5406 -1.9318
   85SOPE   C37 7947   0.142   5.615   5.516  0.0977 -0.2950  0.1786
   85SOPE   H7X 7948   0.130   5.510   5.551 -2.1054 -0.3766 -0.6817
   85SOPE   H7Y 7949   0.051   5.644   5.459  0.5582  2.2547  0.6221
   85SOPE   C38 7950   0.172   5.723   5.620 -0.0587  0.6487 -0.3776
   85SOPE   H8X 7951   0.157   5.823   5.574 -1.2411  0.2812 -0.8400
   85SOPE   H8Y 7952   0.275   5.719   5.660 -0.8858  0.3828  1.8915
   85SOPE   C39 7953   0.079   5.703   5.735 -0.8869 -0.0068  1.0624
   85SOPE   H9X 7954   0.066   5.599   5.772 -1.6833  0.3942  1.9754
   85SOPE   H9Y 7955  -0.019   5.750   5.712 -0.5294 -0.4119 -1.5307
   85SOPE  C310 7956   0.140   5.764   5.868 -0.9261 -0.5729 -0.6553
   85SOPE  H10X 7957   0.181   5.863   5.839 -0.4881  0.1741  2.2781
   85SOPE  H10Y 7958   0.218   5.688   5.889 -0.0714  0.1078 -1.2936
   85SOPE  C311 7959   0.043   5.778   5.989  0.4497 -0.4038 -0.6341
   85SOPE  H11X 7960  -0.054   5.824   5.959 -1.2889 -3.1074  0.4377
   85SOPE  H11Y 7961   0.096   5.842   6.063  0.9909 -0.9586 -0.5433
   85SOPE  C312 7962   0.007   5.640   6.047 -0.2882  0.4053 -0.4486
   85SOPE  H12X 7963   0.101   5.603   6.093 -1.1467  0.7370  1.7292
   85SOPE  H12Y 7964  -0.038   5.579   5.966  2.5120  1.7512 -3.2433
   85SOPE  C313 7965  -0.075   5.650   6.178 -0.1305  0.1607  0.0440
   85SOPE  H13X 7966  -0.169   5.708   6.163 -0.1810 -0.0154 -0.3331
   85SOPE  H13Y 7967  -0.011   5.710   6.246 -0.7692 -0.1942  0.9735
   85SOPE  C314 7968  -0.107   5.514   6.250 -0.5109  0.1135  0.5485
   85SOPE  H14X 7969  -0.018   5.477   6.306 -1.0612 -1.3820  0.4611
   85SOPE  H14Y 7970  -0.151   5.449   6.172  0.3952 -0.3740  0.4318
   85SOPE  C315 7971  -0.217   5.529   6.366 -0.6310 -0.2198 -0.1720
   85SOPE  H15X 7972  -0.310   5.565   6.317  1.5345  1.2244 -3.5728
   85SOPE  H15Y 7973  -0.194   5.607   6.442 -2.3038 -0.7894  0.9888
   85SOPE  C316 7974  -0.239   5.393   6.426  0.3284 -0.7512 -0.2957
   85SOPE  H16X 7975  -0.142   5.354   6.466  0.6526  0.3479  0.0121
   85SOPE  H16Y 7976  -0.266   5.319   6.348  0.2309 -0.4179 -0.5762
   85SOPE  C317 7977  -0.345   5.380   6.543  0.8270 -0.0696 -0.4400
   85SOPE  H17X 7978  -0.315   5.281   6.585 -1.0175  0.0786  1.4114
   85SOPE  H17Y 7979  -0.450   5.372   6.507  0.9772 -2.5621 -0.4877
   85SOPE  C318 7980  -0.354   5.484   6.654  0.4556 -0.1096 -0.1825
   85SOPE  H18X 7981  -0.441   5.458   6.717  0.0509 -0.6246 -0.9374
   85SOPE  H18Y 7982  -0.353   5.587   6.611 -1.0439  0.6341  1.4387
   85SOPE  H18Z 7983  -0.270   5.482   6.726 -1.5392  1.7995  2.3956
   86SOPE     N 7984   0.263   5.084   4.333 -0.3975  0.5120  0.0011
   86SOPE   HN1 7985   0.301   5.176   4.364  0.8120  0.4819 -1.2730
   86SOPE   HN2 7986   0.304   5.049   4.244 -0.1862 -0.6266  0.5301
   86SOPE   HN3 7987   0.163   5.100   4.310 -0.9046 -0.0527  1.7327
   86SOPE   C12 7988   0.291   4.977   4.433 -0.9524  0.4496  1.2407
   86SOPE  H12A 7989   0.235   4.887   4.399  0.0872  0.1426  0.2523
   86SOPE  H12B 7990   0.240   5.014   4.525  0.2907  1.3145  1.6046
   86SOPE   C11 7991   0.447   4.950   4.440 -0.2920 -0.3712 -1.0515
   86SOPE  H11A 7992   0.477   4.886   4.354  1.1828 -2.2177  0.7374
   86SOPE  H11B 7993   0.468   4.896   4.535  2.2319  1.6147 -0.3714
   86SOPE     P 7994   0.678   5.071   4.419  0.0632  0.6506  0.0605
   86SOPE   O13 7995   0.710   5.216   4.394  0.1575 -0.2658 -0.7447
   86SOPE   O14 7996   0.731   4.971   4.322  0.7414 -0.6066  0.0602
   86SOPE   O12 7997   0.518   5.071   4.435  0.6294 -0.2010 -0.4830
   86SOPE   O11 7998   0.722   5.027   4.566 -0.9218 -0.4391 -0.1735
   86SOPE    C1 7999   0.696   5.116   4.678  0.3698  0.7834 -0.4870
   86SOPE    HA 8000   0.610   5.184   4.664  0.0749  0.4630 -0.2323
   86SOPE    HB 8001   0.778   5.191   4.687  0.5501  0.6736 -1.1390
   86SOPE    C2 8002   0.671   5.031   4.797 -0.1212 -0.3261  0.0012
   86SOPE    HS 8003   0.592   4.959   4.764 -1.4699  1.3708 -0.6588
   86SOPE   O21 8004   0.628   5.124   4.903 -0.0136 -0.4055 -0.0975
   86SOPE   C21 8005   0.520   5.090   4.968 -0.1682  0.2557  0.2009
   86SOPE   O22 8006   0.454   4.989   4.954 -0.4055 -0.8041  0.2662
   86SOPE   C22 8007   0.502   5.195   5.072 -0.2143  0.4330 -0.5516
   86SOPE   H2R 8008   0.461   5.288   5.029  1.5109  1.5240  0.0227
   86SOPE   H2S 8009   0.602   5.229   5.108  0.4217 -0.3818 -1.4786
   86SOPE    C3 8010   0.794   4.942   4.829 -0.1722 -0.5879 -1.0906
   86SOPE    HX 8011   0.879   5.013   4.841  1.9058 -3.3163  2.5185
   86SOPE    HY 8012   0.824   4.885   4.739  0.4634  1.8816 -2.5551
   86SOPE   O31 8013   0.780   4.862   4.949  0.1275  0.0831  0.0670
   86SOPE   C31 8014   0.708   4.757   4.924  0.0940 -0.2714  0.1019
   86SOPE   O32 8015   0.663   4.716   4.814 -0.6708 -0.3788  0.8576
   86SOPE   C32 8016   0.685   4.675   5.057  0.0754 -0.5394  0.1817
   86SOPE   H2X 8017   0.770   4.604   5.066  0.2030 -0.2700  1.2877
   86SOPE   H2Y 8018   0.593   4.617   5.038 -1.1004  2.0115 -2.7227
   86SOPE   C23 8019   0.425   5.146   5.202  0.7648  0.1892  0.0541
   86SOPE   H3R 8020   0.495   5.108   5.278 -0.5944  0.3106  1.4102
   86SOPE   H3S 8021   0.356   5.061   5.181 -1.5045  2.1035 -0.7361
   86SOPE   C24 8022   0.331   5.247   5.273 -0.6491 -0.8874 -0.2555
   86SOPE   H4R 8023   0.385   5.345   5.271  0.7657 -1.6454 -1.6441
   86SOPE   H4S 8024   0.237   5.261   5.216 -0.2228  1.8956 -0.4493
   86SOPE   C25 8025   0.294   5.202   5.419 -0.5139 -0.1948 -0.1940
   86SOPE   H5R 8026   0.383   5.208   5.485 -0.6222  0.7536 -0.1203
   86SOPE   H5S 8027   0.232   5.285   5.460 -0.1499  1.0384 -1.9906
   86SOPE   C26 8028   0.241   5.059   5.439  0.1648 -0.7844  0.5268
   86SOPE   H6R 8029   0.164   5.040   5.361 -1.0330 -1.6061  1.8503
   86SOPE   H6S 8030   0.322   4.984   5.424 -0.2981 -1.6107  1.9261
   86SOPE   C27 8031   0.182   5.025   5.581  0.3845  0.3220  0.0064
   86SOPE   H7R 8032   0.124   5.114   5.612  0.5938  0.5914 -0.3760
   86SOPE   H7S 8033   0.112   4.939   5.565 -0.5949  1.4903 -2.5168
   86SOPE   C28 8034   0.289   5.003   5.697  0.1653  0.2121 -0.1504
   86SOPE   H8R 8035   0.349   4.917   5.658 -1.2320 -0.7924 -0.1605
   86SOPE   H8S 8036   0.362   5.086   5.686  0.3176  0.1046  0.0441
   86SOPE   C29 8037   0.233   4.975   5.836 -0.3022 -0.2440 -0.2549
   86SOPE   H91 8038   0.184   4.879   5.856 -0.3139  0.2736  2.6314
   86SOPE  C210 8039   0.220   5.065   5.932  0.2731 -0.7418  0.8874
   86SOPE  H101 8040   0.169   5.040   6.026 -2.7454 -0.1545 -0.4624
   86SOPE  C211 8041   0.267   5.210   5.927  0.1537  0.2913  0.1185
   86SOPE  H11R 8042   0.175   5.272   5.923  1.0845  1.7094 -0.0133
   86SOPE  H11S 8043   0.319   5.244   5.835  0.1198  0.8344  0.2981
   86SOPE  C212 8044   0.354   5.247   6.044 -0.1126 -0.0553  0.2298
   86SOPE  H12R 8045   0.455   5.204   6.029 -0.8281 -0.7720 -3.4516
   86SOPE  H12S 8046   0.313   5.218   6.143 -0.2089  1.6891  0.7382
   86SOPE  C213 8047   0.354   5.403   6.046 -0.0509  0.5337 -0.6606
   86SOPE  H13R 8048   0.254   5.444   6.070 -0.9209 -0.9221 -1.6229
   86SOPE  H13S 8049   0.371   5.443   5.944 -2.0466  1.3586 -0.6953
   86SOPE  C214 8050   0.455   5.453   6.144 -0.0670 -1.1236 -0.2984
   86SOPE  H14R 8051   0.448   5.562   6.126 -4.0843 -1.3383 -0.8791
   86SOPE  H14S 8052   0.560   5.427   6.117 -0.1108 -0.8161 -0.7676
   86SOPE  C215 8053   0.425   5.416   6.286  0.1123 -0.1106 -0.1626
   86SOPE  H15R 8054   0.490   5.470   6.359  0.6598 -1.9411  0.7471
   86SOPE  H15S 8055   0.436   5.308   6.309 -0.8904  0.3409  3.0384
   86SOPE  C216 8056   0.281   5.452   6.337 -0.6144 -0.0098  1.0030
   86SOPE  H16R 8057   0.201   5.402   6.278  0.3033 -0.3349 -0.0041
   86SOPE  H16S 8058   0.264   5.561   6.322 -0.1584 -0.3320 -2.7623
   86SOPE  C217 8059   0.260   5.415   6.485  0.0991 -0.2596 -0.2085
   86SOPE  H17R 8060   0.355   5.449   6.532 -0.6460  0.9470  0.4727
   86SOPE  H17S 8061   0.246   5.306   6.496 -2.6240  0.1612  1.4775
   86SOPE  C218 8062   0.147   5.486   6.557 -0.1802  0.2823  0.0258
   86SOPE  H18R 8063   0.059   5.420   6.569  0.9822 -1.1071  1.2151
   86SOPE  H18S 8064   0.111   5.581   6.510 -0.9203 -1.3451 -2.9413
   86SOPE  H18T 8065   0.180   5.512   6.660 -0.4926  0.6489  0.0364
   86SOPE   C33 8066   0.690   4.766   5.181 -0.2495 -0.0585 -0.1846
   86SOPE   H3X 8067   0.599   4.830   5.177 -0.8999 -0.8529  1.2055
   86SOPE   H3Y 8068   0.784   4.824   5.181 -1.4222  1.9860  1.1420
   86SOPE   C34 8069   0.691   4.688   5.317 -0.1179 -0.2353 -0.5708
   86SOPE   H4X 8070   0.746   4.592   5.313 -1.1792 -0.8743 -0.2004
   86SOPE   H4Y 8071   0.585   4.666   5.339 -0.2664  0.5546 -0.4559
   86SOPE   C35 8072   0.763   4.769   5.424  0.8752 -0.8175 -0.1005
   86SOPE   H5X 8073   0.707   4.863   5.438  1.8303  0.0405 -1.7405
   86SOPE   H5Y 8074   0.865   4.786   5.382 -0.2965  0.6366 -2.5596
   86SOPE   C36 8075   0.762   4.696   5.558 -0.3780 -0.2371  0.4538
   86SOPE   H6X 8076   0.842   4.734   5.624  1.2451 -1.8051 -0.5321
   86SOPE   H6Y 8077   0.786   4.590   5.537  1.1359  0.1939 -0.1256
   86SOPE   C37 8078   0.625   4.694   5.618 -0.7150 -1.1637 -0.1052
   86SOPE   H7X 8079   0.544   4.666   5.546 -2.0696 -1.0405  1.3225
   86SOPE   H7Y 8080   0.602   4.800   5.642  1.2574 -1.2246  2.4982
   86SOPE   C38 8081   0.624   4.626   5.753  0.1817  0.4531  0.0354
   86SOPE   H8X 8082   0.695   4.684   5.815 -1.2943  1.9336  0.4309
   86SOPE   H8Y 8083   0.659   4.521   5.752 -0.3956  0.2541 -0.4991
   86SOPE   C39 8084   0.484   4.636   5.832 -0.5533 -0.3965  0.1356
   86SOPE   H9X 8085   0.396   4.597   5.777 -0.8430  1.2112 -0.6001
   86SOPE   H9Y 8086   0.461   4.742   5.855  0.1580  0.2110 -1.7420
   86SOPE  C310 8087   0.487   4.550   5.959 -0.9625 -0.3352  0.4067
   86SOPE  H10X 8088   0.579   4.596   5.999 -0.1821  0.5269 -2.1902
   86SOPE  H10Y 8089   0.498   4.444   5.927  0.1492 -0.1659  0.1945
   86SOPE  C311 8090   0.362   4.561   6.048 -0.7404  0.1181 -0.2408
   86SOPE  H11X 8091   0.393   4.507   6.140 -0.2521  0.0522 -0.4397
   86SOPE  H11Y 8092   0.282   4.502   5.998  0.3300 -1.1262 -0.5475
   86SOPE  C312 8093   0.312   4.697   6.097 -0.3562 -0.1895  0.1265
   86SOPE  H12X 8094   0.257   4.743   6.012 -0.9630 -0.6627  0.2617
   86SOPE  H12Y 8095   0.397   4.761   6.130  0.2192 -0.8803 -0.0025
   86SOPE  C313 8096   0.214   4.682   6.213  0.3529 -0.1512 -0.2044
   86SOPE  H13X 8097   0.280   4.642   6.294  1.0156 -0.7748 -1.0367
   86SOPE  H13Y 8098   0.142   4.608   6.174  0.2917 -0.7573  1.0118
   86SOPE  C314 8099   0.135   4.810   6.254  0.1592 -0.4852  0.5846
   86SOPE  H14X 8100   0.071   4.773   6.337  0.6889 -0.9867  0.7751
   86SOPE  H14Y 8101   0.083   4.860   6.169  3.1588  0.1706 -1.0222
   86SOPE  C315 8102   0.221   4.918   6.308 -0.6680  0.1492  0.3868
   86SOPE  H15X 8103   0.301   4.945   6.237  1.0085  1.7968  2.7564
   86SOPE  H15Y 8104   0.277   4.904   6.402 -1.1713 -0.8827  0.5503
   86SOPE  C316 8105   0.138   5.037   6.337 -0.5002  0.5845 -0.3854
   86SOPE  H16X 8106   0.059   5.047   6.259 -1.2952 -1.7528  0.0521
   86SOPE  H16Y 8107   0.196   5.132   6.332 -0.8933  0.7888 -1.5821
   86SOPE  C317 8108   0.057   5.040   6.467 -0.6938  0.7074  0.6697
   86SOPE  H17X 8109  -0.008   4.950   6.478  0.0200  0.3542  2.1431
   86SOPE  H17Y 8110  -0.021   5.119   6.474 -0.9513  0.2998  4.1349
   86SOPE  C318 8111   0.131   5.049   6.599 -1.0280  0.1825  0.3720
   86SOPE  H18X 8112   0.194   4.962   6.626 -1.4892 -0.4298 -0.4716
   86SOPE  H18Y 8113   0.067   5.054   6.689 -1.1506  0.7583  0.2571
   86SOPE  H18Z 8114   0.201   5.135   6.586 -2.9546  1.4582 -2.8535
   87SOPE     N 8115   4.948   4.065   4.591 -0.5525  0.2466  0.4779
   87SOPE   HN1 8116   5.000   3.978   4.565 -0.7100  0.3432 -0.1939
   87SOPE   HN2 8117   4.857   4.041   4.636 -0.0926 -1.0977  0.7482
   87SOPE   HN3 8118   4.935   4.114   4.500  1.3074  0.4084  0.2599
   87SOPE   C12 8119   5.024   4.162   4.672 -0.5445  0.3679  0.3741
   87SOPE  H12A 8120   5.122   4.170   4.621 -0.7494  1.7689  0.1839
   87SOPE  H12B 8121   5.032   4.130   4.778 -0.3161  0.9249  0.5275
   87SOPE   C11 8122   4.947   4.295   4.679 -0.8620 -0.0169  0.7346
   87SOPE  H11A 8123   4.922   4.326   4.575 -0.4683  0.7868  0.8675
   87SOPE  H11B 8124   5.014   4.377   4.714 -0.1371 -0.3661  0.2067
   87SOPE     P 8125   4.701   4.351   4.736 -0.4272  0.4331 -0.1937
   87SOPE   O13 8126   4.600   4.279   4.819 -0.2152 -0.1134  0.4164
   87SOPE   O14 8127   4.670   4.369   4.591  0.7407 -0.0194  0.5074
   87SOPE   O12 8128   4.833   4.273   4.755  0.0311  0.6331  0.4086
   87SOPE   O11 8129   4.722   4.492   4.793 -0.3758  0.3589 -0.1483
   87SOPE    C1 8130   4.821   4.506   4.898 -0.3065  0.0147 -1.3201
   87SOPE    HA 8131   4.831   4.614   4.921 -0.6406  0.3908 -2.8531
   87SOPE    HB 8132   4.922   4.473   4.866 -0.9831 -2.2850 -1.2476
   87SOPE    C2 8133   4.783   4.445   5.032 -0.1231 -0.1116 -0.0561
   87SOPE    HS 8134   4.775   4.337   5.006  1.6762  0.0097 -1.3692
   87SOPE   O21 8135   4.662   4.523   5.078 -0.2867  0.1340 -0.2004
   87SOPE   C21 8136   4.578   4.437   5.140 -0.4990 -0.7725  1.1893
   87SOPE   O22 8137   4.595   4.319   5.151 -0.5744  0.0477  0.7015
   87SOPE   C22 8138   4.443   4.506   5.165  0.3900 -0.2085  0.5806
   87SOPE   H2R 8139   4.386   4.494   5.070 -1.1820 -1.1319  1.5790
   87SOPE   H2S 8140   4.464   4.611   5.193  1.0536 -0.4064  0.8270
   87SOPE    C3 8141   4.908   4.455   5.127 -0.1229 -0.0135  0.2212
   87SOPE    HX 8142   4.942   4.559   5.109 -0.8194 -0.1683 -2.5262
   87SOPE    HY 8143   4.981   4.383   5.083  0.3350 -0.7599  2.1219
   87SOPE   O31 8144   4.885   4.431   5.271  0.8455 -0.5793 -0.1158
   87SOPE   C31 8145   4.909   4.304   5.314  0.8420 -0.4456 -1.0363
   87SOPE   O32 8146   4.961   4.220   5.250  0.2071 -0.3742  0.2144
   87SOPE   C32 8147   4.846   4.283   5.448  0.0271 -0.3903  0.1456
   87SOPE   H2X 8148   4.744   4.324   5.433 -1.0055 -3.6583 -3.2827
   87SOPE   H2Y 8149   4.903   4.330   5.531 -1.2593 -0.3450  1.0476
   87SOPE   C23 8150   4.377   4.428   5.278 -0.1278 -0.1801 -0.3575
   87SOPE   H3R 8151   4.346   4.326   5.246  2.6944 -0.9562 -0.9249
   87SOPE   H3S 8152   4.281   4.478   5.303 -0.3515 -0.5617 -0.4536
   87SOPE   C24 8153   4.449   4.432   5.416  0.3548 -0.2503 -0.6541
   87SOPE   H4R 8154   4.537   4.364   5.412  1.0905  0.2815  3.1320
   87SOPE   H4S 8155   4.492   4.533   5.436 -1.0959  0.2242  0.2017
   87SOPE   C25 8156   4.350   4.394   5.531  0.2631  0.6657 -0.9172
   87SOPE   H5R 8157   4.268   4.468   5.538  0.1612  0.5795 -1.1769
   87SOPE   H5S 8158   4.300   4.301   5.495 -0.1147 -0.1433  1.5644
   87SOPE   C26 8159   4.419   4.376   5.671  0.2771  0.0650  0.7966
   87SOPE   H6R 8160   4.504   4.304   5.672  1.1686  1.0400 -1.0103
   87SOPE   H6S 8161   4.457   4.474   5.706  0.0631  0.2656  0.4598
   87SOPE   C27 8162   4.319   4.325   5.775  0.2574  0.1374 -0.4165
   87SOPE   H7R 8163   4.223   4.378   5.756  0.7434  0.8124 -1.0284
   87SOPE   H7S 8164   4.297   4.217   5.764 -1.1050  0.0683  2.0643
   87SOPE   C28 8165   4.367   4.335   5.926  0.0578 -0.0791  0.3384
   87SOPE   H8R 8166   4.428   4.243   5.938  0.5334 -0.0802 -1.7141
   87SOPE   H8S 8167   4.440   4.419   5.929 -0.3488  0.4346 -2.0328
   87SOPE   C29 8168   4.263   4.343   6.030 -0.0752  0.2484  0.0683
   87SOPE   H91 8169   4.173   4.400   6.003 -0.6311  0.0285  1.3402
   87SOPE  C210 8170   4.254   4.277   6.150 -0.1097 -0.2483 -0.0781
   87SOPE  H101 8171   4.167   4.293   6.215 -0.8379 -1.7318 -0.6440
   87SOPE  C211 8172   4.361   4.189   6.202 -0.5907  0.1837 -0.6925
   87SOPE  H11R 8173   4.373   4.206   6.311 -2.6208  1.6654 -0.6429
   87SOPE  H11S 8174   4.463   4.207   6.162  1.0888 -2.8730  1.7210
   87SOPE  C212 8175   4.324   4.039   6.182  0.5985 -0.6252  0.0275
   87SOPE  H12R 8176   4.238   4.017   6.249  1.2370 -0.8826  0.7756
   87SOPE  H12S 8177   4.407   3.974   6.217 -0.1491 -1.6331 -0.0196
   87SOPE  C213 8178   4.313   4.002   6.031  0.2070 -0.0259 -0.6297
   87SOPE  H13R 8179   4.409   4.025   5.980  2.1685 -2.4172  1.6808
   87SOPE  H13S 8180   4.229   4.060   5.987 -0.5134 -2.5217 -2.8003
   87SOPE  C214 8181   4.276   3.857   6.008 -0.4592  0.0886 -0.5401
   87SOPE  H14R 8182   4.179   3.840   6.059 -0.4121 -0.6000 -0.6744
   87SOPE  H14S 8183   4.351   3.784   6.045 -0.9451  0.2325  0.7894
   87SOPE  C215 8184   4.247   3.813   5.859  0.1412  0.1930 -0.5842
   87SOPE  H15R 8185   4.162   3.872   5.818  1.5409  2.6490 -0.2053
   87SOPE  H15S 8186   4.215   3.707   5.854  0.1432  0.1709 -0.1543
   87SOPE  C216 8187   4.363   3.833   5.769 -0.5379 -0.3472 -0.2124
   87SOPE  H16R 8188   4.433   3.762   5.818 -0.0971  0.4290  0.2858
   87SOPE  H16S 8189   4.408   3.934   5.767  0.6435 -0.8636 -0.4461
   87SOPE  C217 8190   4.338   3.788   5.631  0.0257  0.3187  0.4239
   87SOPE  H17R 8191   4.231   3.816   5.618 -0.1023 -0.2887  0.1085
   87SOPE  H17S 8192   4.365   3.684   5.603 -0.3314  0.6698 -1.3693
   87SOPE  C218 8193   4.406   3.876   5.528 -0.2251 -0.2335  0.4248
   87SOPE  H18R 8194   4.390   3.982   5.555  1.4877 -0.2720  1.7373
   87SOPE  H18S 8195   4.361   3.864   5.427  0.6528  0.5700 -0.0760
   87SOPE  H18T 8196   4.515   3.854   5.529 -0.2550 -0.5789 -0.9446
   87SOPE   C33 8197   4.821   4.127   5.471  0.1136 -0.7592 -0.4075
   87SOPE   H3X 8198   4.917   4.072   5.478  2.3909  2.9623  0.3967
   87SOPE   H3Y 8199   4.773   4.097   5.375 -1.3359  1.5111 -0.4621
   87SOPE   C34 8200   4.720   4.096   5.587 -0.5685  0.2777 -0.2534
   87SOPE   H4X 8201   4.704   3.986   5.578  1.5327 -0.0125 -0.9615
   87SOPE   H4Y 8202   4.617   4.137   5.576 -1.4507 -1.8135 -0.3729
   87SOPE   C35 8203   4.771   4.132   5.725  0.4221  0.2260 -0.8744
   87SOPE   H5X 8204   4.757   4.242   5.727  3.1156  0.6670 -1.6329
   87SOPE   H5Y 8205   4.880   4.111   5.735  0.7089  2.2985  1.5243
   87SOPE   C36 8206   4.692   4.073   5.845  0.0371 -0.7976 -0.0229
   87SOPE   H6X 8207   4.581   4.071   5.839 -0.1932  0.0458  2.5052
   87SOPE   H6Y 8208   4.711   4.142   5.931 -2.2509  0.2338 -0.2746
   87SOPE   C37 8209   4.758   3.936   5.862  0.1764 -0.1354 -0.3526
   87SOPE   H7X 8210   4.867   3.952   5.879  0.5766 -1.1871 -1.7288
   87SOPE   H7Y 8211   4.749   3.882   5.765  1.3804 -2.1202  0.5779
   87SOPE   C38 8212   4.707   3.855   5.987 -0.7639 -0.1554 -0.2111
   87SOPE   H8X 8213   4.760   3.757   5.994  2.1028  1.2885 -0.2077
   87SOPE   H8Y 8214   4.598   3.836   5.973 -0.5788 -0.8291 -0.8056
   87SOPE   C39 8215   4.715   3.933   6.117  1.3568 -0.3677  0.0599
   87SOPE   H9X 8216   4.636   4.010   6.112  0.6574 -1.1293 -3.8284
   87SOPE   H9Y 8217   4.813   3.982   6.135  0.9983  1.1006 -1.6989
   87SOPE  C310 8218   4.690   3.829   6.233  0.7733 -0.4568 -0.6322
   87SOPE  H10X 8219   4.753   3.740   6.210  0.6927 -0.6933  0.0315
   87SOPE  H10Y 8220   4.587   3.792   6.219  0.3888  1.1127 -2.2478
   87SOPE  C311 8221   4.726   3.875   6.385  0.2486  0.1141 -0.4174
   87SOPE  H11X 8222   4.836   3.883   6.386  0.1697  1.3425  0.8075
   87SOPE  H11Y 8223   4.702   3.800   6.464 -0.5573  1.3781  0.5703
   87SOPE  C312 8224   4.659   4.009   6.425 -0.4183  0.0655 -0.5521
   87SOPE  H12X 8225   4.549   4.003   6.423 -0.5109  0.9783  0.5141
   87SOPE  H12Y 8226   4.689   4.101   6.370 -2.2009  1.1933  0.2899
   87SOPE  C313 8227   4.691   4.038   6.573 -0.4276 -0.3637  0.1706
   87SOPE  H13X 8228   4.648   3.954   6.632  1.2635 -0.4838  1.3077
   87SOPE  H13Y 8229   4.633   4.130   6.597  3.4152  2.1072  0.8986
   87SOPE  C314 8230   4.837   4.057   6.612 -0.1600 -0.2460  0.7023
   87SOPE  H14X 8231   4.873   4.138   6.544 -0.6351 -0.0686  0.6579
   87SOPE  H14Y 8232   4.890   3.960   6.603  1.6919  0.9373 -3.0206
   87SOPE  C315 8233   4.846   4.085   6.765  0.3180 -0.5307  0.0849
   87SOPE  H15X 8234   4.782   4.174   6.787 -2.6213 -2.8032  1.6251
   87SOPE  H15Y 8235   4.952   4.095   6.794  0.7961 -1.4775 -1.2633
   87SOPE  C316 8236   4.795   3.967   6.852  0.0637 -0.3798  0.0870
   87SOPE  H16X 8237   4.858   3.878   6.829  1.3788  1.0681 -2.3708
   87SOPE  H16Y 8238   4.687   3.948   6.834 -0.1793  0.6182  0.4286
   87SOPE  C317 8239   4.821   3.998   7.000 -0.4239  0.3608  0.7795
   87SOPE  H17X 8240   4.768   4.088   7.038 -0.5614  0.6160 -0.0066
   87SOPE  H17Y 8241   4.930   4.016   7.018 -0.3255 -0.2922  0.8599
   87SOPE  C318 8242   4.785   3.873   7.084 -0.6789 -0.0620  0.1837
   87SOPE  H18X 8243   4.679   3.845   7.067 -0.1981 -1.8468 -0.1185
   87SOPE  H18Y 8244   4.788   3.895   7.193 -0.9784 -1.2542  0.4556
   87SOPE  H18Z 8245   4.847   3.788   7.046 -0.6375  0.5120 -1.0878
   88SOPE     N 8246   4.522   5.589   4.070  0.0338  0.0222 -0.3747
   88SOPE   HN1 8247   4.585   5.527   4.015  1.3610  0.4393  0.6228
   88SOPE   HN2 8248   4.556   5.580   4.168 -0.1488  1.2462 -0.1868
   88SOPE   HN3 8249   4.430   5.541   4.072  0.0979 -0.1186  1.5147
   88SOPE   C12 8250   4.483   5.724   4.026  0.4034  0.3472 -0.3286
   88SOPE  H12A 8251   4.439   5.705   3.926  1.4439 -0.6320 -0.6239
   88SOPE  H12B 8252   4.577   5.784   4.023  2.0742 -1.7480  3.2884
   88SOPE   C11 8253   4.382   5.777   4.116  0.2324  0.6197 -0.0777
   88SOPE  H11A 8254   4.297   5.707   4.102  0.8935 -1.1078  3.2609
   88SOPE  H11B 8255   4.357   5.880   4.083 -1.4867  0.2838  0.0819
   88SOPE     P 8256   4.319   5.770   4.359 -0.4963  0.1718 -0.0734
   88SOPE   O13 8257   4.302   5.621   4.383 -0.1338  0.5459 -0.2526
   88SOPE   O14 8258   4.202   5.849   4.319  0.1977  0.1938 -0.0767
   88SOPE   O12 8259   4.427   5.781   4.252  0.4509  0.0616  0.8192
   88SOPE   O11 8260   4.380   5.834   4.485 -0.6700 -0.2727 -0.0148
   88SOPE    C1 8261   4.497   5.770   4.539  0.3798  0.7435 -0.6034
   88SOPE    HA 8262   4.590   5.780   4.479  1.9268  0.3015  1.5946
   88SOPE    HB 8263   4.481   5.660   4.545  0.3068  0.8292  1.6511
   88SOPE    C2 8264   4.528   5.828   4.683  0.1737 -0.4912  0.0534
   88SOPE    HS 8265   4.591   5.752   4.733  0.4313 -0.0066  0.4729
   88SOPE   O21 8266   4.413   5.857   4.764 -0.4055 -0.0630 -0.0048
   88SOPE   C21 8267   4.340   5.758   4.800 -0.5037  0.6727  0.1395
   88SOPE   O22 8268   4.373   5.644   4.787  0.1847  0.3623 -0.4399
   88SOPE   C22 8269   4.211   5.801   4.859  0.3730 -0.2895 -0.3357
   88SOPE   H2R 8270   4.137   5.772   4.782  1.3234  1.2340 -1.8866
   88SOPE   H2S 8271   4.206   5.912   4.862 -3.6085 -0.3207 -0.0383
   88SOPE    C3 8272   4.612   5.962   4.673 -0.1488 -0.0457  0.4025
   88SOPE    HX 8273   4.552   6.042   4.624 -1.5824 -1.3474 -0.0670
   88SOPE    HY 8274   4.691   5.927   4.604  0.5103 -1.3194  1.7459
   88SOPE   O31 8275   4.663   5.997   4.807  0.6745 -0.9744 -0.3913
   88SOPE   C31 8276   4.594   6.103   4.864 -0.1788 -0.4519 -0.0289
   88SOPE   O32 8277   4.481   6.140   4.818 -0.3029 -0.3464 -0.4736
   88SOPE   C32 8278   4.661   6.170   4.978  0.2673 -0.0975  0.3527
   88SOPE   H2X 8279   4.727   6.254   4.948 -0.5001 -0.2615 -2.0787
   88SOPE   H2Y 8280   4.732   6.099   5.026  0.7272  0.8497  1.0880
   88SOPE   C23 8281   4.176   5.735   5.000 -0.8245 -0.5156  0.2810
   88SOPE   H3R 8282   4.192   5.626   4.981 -1.0586 -0.1504 -2.5178
   88SOPE   H3S 8283   4.066   5.749   5.013 -1.0923  1.3935 -2.9723
   88SOPE   C24 8284   4.261   5.800   5.107  0.0537 -0.2371 -0.1797
   88SOPE   H4R 8285   4.363   5.824   5.072  0.4104  2.8377  2.4747
   88SOPE   H4S 8286   4.215   5.897   5.135  1.2017 -0.6298  3.7489
   88SOPE   C25 8287   4.273   5.709   5.230 -0.7508  0.1178  0.0103
   88SOPE   H5R 8288   4.344   5.625   5.211 -1.5032 -1.0926  2.1696
   88SOPE   H5S 8289   4.324   5.775   5.303 -1.3547 -0.1670  0.7017
   88SOPE   C26 8290   4.144   5.658   5.299 -0.7628  0.6150 -0.3570
   88SOPE   H6R 8291   4.092   5.594   5.225 -1.0156 -0.3278  0.6001
   88SOPE   H6S 8292   4.181   5.593   5.382  2.6516  1.9727 -0.6684
   88SOPE   C27 8293   4.059   5.772   5.346 -0.1550  0.7801 -0.2936
   88SOPE   H7R 8294   4.120   5.836   5.414 -0.1490  1.4412 -0.9097
   88SOPE   H7S 8295   4.034   5.842   5.263 -1.7619 -0.6570 -1.0828
   88SOPE   C28 8296   3.927   5.721   5.413 -0.0509  0.3740  0.2963
   88SOPE   H8R 8297   3.855   5.696   5.332 -0.8238  1.7568  0.5253
   88SOPE   H8S 8298   3.942   5.629   5.474 -1.0799 -0.7295 -1.0436
   88SOPE   C29 8299   3.853   5.823   5.501 -0.1366 -0.0665  0.4230
   88SOPE   H91 8300   3.765   5.872   5.456 -0.7074 -0.2893  1.2644
   88SOPE  C210 8301   3.853   5.818   5.634  0.1417 -0.8839 -0.9578
   88SOPE  H101 8302   3.797   5.892   5.693  3.4858  0.4103  0.8539
   88SOPE  C211 8303   3.968   5.753   5.707  0.2964 -0.3113  0.3165
   88SOPE  H11R 8304   4.053   5.726   5.639 -1.2324 -0.4277 -1.6389
   88SOPE  H11S 8305   3.934   5.660   5.757 -0.2966  0.8811  2.1974
   88SOPE  C212 8306   4.034   5.820   5.834  0.3823 -0.2256 -0.1262
   88SOPE  H12R 8307   4.060   5.924   5.803 -2.3760  0.7066  0.4010
   88SOPE  H12S 8308   4.124   5.774   5.881 -0.5268  0.0864  2.0610
   88SOPE  C213 8309   3.941   5.855   5.959 -0.7177 -0.3358  0.2537
   88SOPE  H13R 8310   3.839   5.886   5.927 -0.4521  1.3354  0.9064
   88SOPE  H13S 8311   3.978   5.947   6.008 -1.8308  1.4821 -2.0795
   88SOPE  C214 8312   3.941   5.727   6.046  0.0783  0.3020  0.6855
   88SOPE  H14R 8313   4.049   5.724   6.075  0.3983  1.8578 -0.2264
   88SOPE  H14S 8314   3.918   5.632   5.992 -0.8132  0.7483  0.2586
   88SOPE  C215 8315   3.846   5.734   6.167  0.0773 -0.2514  0.0201
   88SOPE  H15R 8316   3.842   5.633   6.213 -1.1440  0.3471  1.2959
   88SOPE  H15S 8317   3.744   5.769   6.139  0.5162 -0.6355 -2.2646
   88SOPE  C216 8318   3.881   5.833   6.281 -0.1335 -0.4485  0.9684
   88SOPE  H16R 8319   3.894   5.932   6.233  2.4353 -0.4260  1.5236
   88SOPE  H16S 8320   3.976   5.798   6.328  1.0350 -0.7377 -1.4310
   88SOPE  C217 8321   3.773   5.819   6.395  0.2427 -0.1449 -0.3142
   88SOPE  H17R 8322   3.793   5.718   6.437  1.0922 -0.2507 -0.9282
   88SOPE  H17S 8323   3.670   5.808   6.357 -0.0192  0.2001  0.2859
   88SOPE  C218 8324   3.783   5.931   6.501  0.1660 -0.2188 -0.7333
   88SOPE  H18R 8325   3.787   6.028   6.448  2.3767  0.0572 -0.1431
   88SOPE  H18S 8326   3.876   5.918   6.560  1.0132  0.1336 -1.9501
   88SOPE  H18T 8327   3.706   5.942   6.580  0.5475  1.3353 -0.5519
   88SOPE   C33 8328   4.554   6.243   5.069  0.5099 -0.8017  0.6623
   88SOPE   H3X 8329   4.495   6.303   4.997  1.3328  0.6433  1.1622
   88SOPE   H3Y 8330   4.606   6.317   5.133  0.3061  1.8124 -2.0050
   88SOPE   C34 8331   4.455   6.156   5.137 -0.4055  0.0082 -0.0296
   88SOPE   H4X 8332   4.407   6.093   5.059 -0.9489  2.2105 -1.5692
   88SOPE   H4Y 8333   4.375   6.202   5.198  0.5349  0.4713  0.8841
   88SOPE   C35 8334   4.520   6.058   5.238  0.4352 -0.3348  0.2690
   88SOPE   H5X 8335   4.576   5.982   5.178  1.5986  1.7552 -1.4165
   88SOPE   H5Y 8336   4.447   6.007   5.304  1.2737 -3.4233 -0.9543
   88SOPE   C36 8337   4.612   6.134   5.341  0.2232  0.0641 -0.1124
   88SOPE   H6X 8338   4.544   6.212   5.382  0.6901 -0.2095  1.2307
   88SOPE   H6Y 8339   4.702   6.184   5.299  0.5365  0.2700  0.7897
   88SOPE   C37 8340   4.658   6.048   5.462  0.0036  0.0511 -0.3188
   88SOPE   H7X 8341   4.755   5.996   5.453 -0.1259 -0.0286 -1.4436
   88SOPE   H7Y 8342   4.578   5.971   5.472 -0.2437  0.3173 -0.2144
   88SOPE   C38 8343   4.659   6.136   5.588  0.1257  0.4858 -0.0595
   88SOPE   H8X 8344   4.558   6.168   5.620  0.5979  1.9709  0.0196
   88SOPE   H8Y 8345   4.715   6.229   5.567  1.8593 -0.5410 -0.1636
   88SOPE   C39 8346   4.720   6.068   5.710 -0.0190 -0.4685 -0.0155
   88SOPE   H9X 8347   4.829   6.055   5.693  0.5274  0.5923  2.3419
   88SOPE   H9Y 8348   4.675   5.967   5.701 -1.5887  0.0822  1.2100
   88SOPE  C310 8349   4.698   6.145   5.842  0.2617 -0.1568  0.4914
   88SOPE  H10X 8350   4.609   6.211   5.839  1.5733  1.6218 -1.1883
   88SOPE  H10Y 8351   4.785   6.213   5.850  0.0300  0.4240 -1.4176
   88SOPE  C311 8352   4.684   6.060   5.972 -0.5171  0.1123  0.0531
   88SOPE  H11X 8353   4.763   5.984   5.991 -3.1337 -2.2391  2.3057
   88SOPE  H11Y 8354   4.591   6.000   5.967  0.1319 -0.8075 -2.1072
   88SOPE  C312 8355   4.675   6.155   6.096  0.1218  0.2520  0.7737
   88SOPE  H12X 8356   4.621   6.245   6.059 -2.8030 -2.4678 -2.1580
   88SOPE  H12Y 8357   4.774   6.187   6.134  0.4969 -1.0043  0.8733
   88SOPE  C313 8358   4.610   6.070   6.207  0.5592  0.8003 -0.3723
   88SOPE  H13X 8359   4.684   5.992   6.235  1.4711  1.3971 -1.0342
   88SOPE  H13Y 8360   4.517   6.025   6.167  0.6392  0.4670 -0.1860
   88SOPE  C314 8361   4.578   6.144   6.339  0.7056 -0.2498 -0.3513
   88SOPE  H14X 8362   4.531   6.077   6.414  0.1428  0.2201 -0.2800
   88SOPE  H14Y 8363   4.500   6.223   6.332 -1.0638 -1.4571  3.3415
   88SOPE  C315 8364   4.705   6.217   6.392 -0.3905  0.4685 -0.2193
   88SOPE  H15X 8365   4.724   6.311   6.335  2.2607 -0.1666 -0.5271
   88SOPE  H15Y 8366   4.799   6.159   6.379  1.0400  3.0023 -2.1142
   88SOPE  C316 8367   4.689   6.253   6.546 -0.0471  0.8426  0.5536
   88SOPE  H16X 8368   4.778   6.304   6.589 -0.6082  0.1355  2.7153
   88SOPE  H16Y 8369   4.681   6.164   6.613 -0.1964 -1.1061 -1.9136
   88SOPE  C317 8370   4.560   6.335   6.571  0.4234 -0.2913  0.2475
   88SOPE  H17X 8371   4.556   6.355   6.681  0.7984  1.4669 -0.0399
   88SOPE  H17Y 8372   4.473   6.267   6.554  1.0034 -1.5030  1.8110
   88SOPE  C318 8373   4.558   6.473   6.501  0.3434  1.1343 -0.1061
   88SOPE  H18X 8374   4.653   6.530   6.512 -0.0610  1.6379  0.9481
   88SOPE  H18Y 8375   4.472   6.537   6.532  0.3220  0.5037  1.2091
   88SOPE  H18Z 8376   4.546   6.468   6.390  1.3421 -3.0185 -0.1793
   89SAPC     N 8377   5.814   5.641   0.612 -0.0645 -0.3838 -0.3250
   89SAPC   C12 8378   5.800   5.680   0.464  0.3954  0.0200 -0.0466
   89SAPC  H12A 8379   5.890   5.723   0.424  0.5477 -0.9306 -0.7713
   89SAPC  H12B 8380   5.733   5.764   0.474  0.3952  0.0919 -0.6445
   89SAPC   C13 8381   5.686   5.606   0.673 -0.3363  0.0969 -0.0472
   89SAPC  H13A 8382   5.646   5.512   0.638 -0.3596 -0.8630  2.3904
   89SAPC  H13B 8383   5.679   5.599   0.780  0.5719  2.9060  0.2763
   89SAPC  H13C 8384   5.614   5.681   0.643 -0.2818 -0.3095 -1.2509
   89SAPC   C14 8385   5.914   5.526   0.619  0.8810  0.4668 -0.6706
   89SAPC  H14A 8386   5.891   5.444   0.553 -1.1061  1.0150 -0.7062
   89SAPC  H14B 8387   6.014   5.555   0.589  1.2718 -0.4877 -0.3262
   89SAPC  H14C 8388   5.919   5.489   0.721 -0.4745  1.0962 -0.3498
   89SAPC   C15 8389   5.865   5.765   0.689  0.1012 -0.3687 -0.1820
   89SAPC  H15A 8390   5.968   5.791   0.665  0.1417 -1.3521 -1.1448
   89SAPC  H15B 8391   5.814   5.858   0.672  4.1439  2.1785  0.2582
   89SAPC  H15C 8392   5.861   5.745   0.795 -3.4763  0.6400 -0.0192
   89SAPC   C11 8393   5.739   5.578   0.363  0.0649  0.3161 -0.2616
   89SAPC  H11A 8394   5.805   5.489   0.366  0.7116  0.7841 -0.4377
   89SAPC  H11B 8395   5.744   5.614   0.258 -1.9051  1.5195 -0.0000
   89SAPC     P 8396   5.480   5.597   0.296  0.3853 -0.1730  0.1000
   89SAPC   O13 8397   5.357   5.576   0.379  0.1261 -0.1920  0.4114
   89SAPC   O14 8398   5.516   5.732   0.250 -0.1257 -0.7099 -0.2220
   89SAPC   O12 8399   5.604   5.536   0.390 -0.0308 -0.2983  0.4645
   89SAPC   O11 8400   5.470   5.492   0.176  0.1958 -0.5468  0.0654
   89SAPC    C1 8401   5.427   5.366   0.216  0.0998 -0.4344  0.6326
   89SAPC    HA 8402   5.513   5.318   0.269  0.0006  0.4007  1.5860
   89SAPC    HB 8403   5.341   5.369   0.286  0.1886  0.5197  0.7097
   89SAPC    C2 8404   5.385   5.282   0.091  0.8635 -0.2164  0.6194
   89SAPC    HS 8405   5.368   5.181   0.134 -0.1368 -0.1819  0.3137
   89SAPC   O21 8406   5.484   5.284  -0.017 -0.2537 -0.0080 -0.2551
   89SAPC   C21 8407   5.591   5.228   0.016  0.1915  0.1190 -0.8658
   89SAPC   O22 8408   5.606   5.147   0.111 -0.0631 -0.4759  0.1958
   89SAPC   C22 8409   5.705   5.278  -0.079  1.3794  0.4337 -0.2002
   89SAPC   H2R 8410   5.668   5.232  -0.173  0.1856  1.8320 -0.4600
   89SAPC   H2S 8411   5.703   5.389  -0.078 -1.1208  0.7225 -5.2558
   89SAPC    C3 8412   5.244   5.333   0.044  0.1647  0.1853  0.0530
   89SAPC    HX 8413   5.260   5.439   0.015 -1.6628  0.8054  1.1419
   89SAPC    HY 8414   5.170   5.326   0.126  1.4498 -1.7124  1.1297
   89SAPC   O31 8415   5.195   5.255  -0.068  0.5205 -0.0661  0.2615
   89SAPC   C31 8416   5.197   5.308  -0.186  1.0309 -0.0793  0.1281
   89SAPC   O32 8417   5.252   5.412  -0.214  0.1689  0.0458 -0.1270
   89SAPC   C32 8418   5.119   5.219  -0.291  0.1090 -0.2795 -0.7681
   89SAPC   H2X 8419   5.012   5.227  -0.264  0.5588  0.4360  0.9314
   89SAPC   H2Y 8420   5.161   5.116  -0.282 -0.4717 -0.3724  1.6853
   89SAPC   C23 8421   5.844   5.219  -0.044 -0.0388 -0.1879  0.0739
   89SAPC   H3R 8422   5.828   5.117  -0.003 -2.8464  1.0833  2.5616
   89SAPC   H3S 8423   5.901   5.286   0.025 -0.9790  0.6142  0.0905
   89SAPC   C24 8424   5.926   5.180  -0.169 -0.0865 -0.1210 -0.4546
   89SAPC   H4R 8425   5.864   5.112  -0.231 -1.8325 -0.7739  1.8492
   89SAPC   H4S 8426   6.009   5.111  -0.145  0.8906  1.2621  0.2476
   89SAPC   C25 8427   5.988   5.297  -0.245 -0.2586 -0.4003  0.3744
   89SAPC   H5R 8428   6.041   5.370  -0.182 -0.0934 -2.4567  2.7529
   89SAPC   C26 8429   5.990   5.320  -0.383 -0.1432  0.3544 -0.2669
   89SAPC   H6R 8430   6.061   5.390  -0.429  0.6344  0.6522  1.3224
   89SAPC   C27 8431   5.942   5.225  -0.485 -0.7686  0.2572 -0.1333
   89SAPC   H7R 8432   5.863   5.162  -0.440 -0.5497 -0.7145 -1.0711
   89SAPC   H7S 8433   6.033   5.169  -0.516  0.4981  2.6898 -1.1322
   89SAPC   C28 8434   5.893   5.302  -0.598  0.2075  0.2136  0.7345
   89SAPC   H8R 8435   5.808   5.370  -0.581  0.1290 -0.2010  2.0733
   89SAPC   C29 8436   5.922   5.271  -0.725  0.9008  0.4575  0.3142
   89SAPC   H9R 8437   5.863   5.327  -0.799  1.5398  2.7260  1.4388
   89SAPC  C210 8438   6.013   5.169  -0.781  0.4637 -0.0285  0.3186
   89SAPC  H10R 8439   5.946   5.091  -0.822 -2.4953  2.8800 -0.7542
   89SAPC  H10S 8440   6.073   5.118  -0.702  0.4953  0.1780  0.4270
   89SAPC  C211 8441   6.110   5.209  -0.894  0.6573  0.3563 -0.2028
   89SAPC  H11R 8442   6.215   5.212  -0.862  0.5889 -1.0556  0.2548
   89SAPC  C212 8443   6.071   5.223  -1.025 -0.0873  0.1031 -1.2548
   89SAPC  H12R 8444   6.147   5.260  -1.095  0.5177 -1.2851 -1.3674
   89SAPC  C213 8445   5.932   5.187  -1.074  0.7214  0.1281  0.7888
   89SAPC  H13R 8446   5.860   5.180  -0.990  0.3296 -1.3697  0.3512
   89SAPC  H13S 8447   5.936   5.086  -1.120  1.2007  0.5517 -0.1229
   89SAPC  C214 8448   5.869   5.276  -1.185  0.2875  0.3060 -0.6175
   89SAPC  H14R 8449   5.826   5.361  -1.131  0.6783 -1.4483  2.7202
   89SAPC  C215 8450   5.860   5.246  -1.313  0.0167 -0.4277 -0.1340
   89SAPC  H15R 8451   5.795   5.308  -1.377  0.6297  0.0783 -0.2806
   89SAPC  C216 8452   5.909   5.124  -1.390 -0.0117  0.1603  0.2226
   89SAPC  H16R 8453   5.943   5.034  -1.334 -1.1642 -0.6669 -0.3653
   89SAPC  H16S 8454   5.996   5.156  -1.452 -1.3594  0.6230 -1.5055
   89SAPC  C217 8455   5.807   5.066  -1.487  0.4523  0.4516 -0.0382
   89SAPC  H17R 8456   5.862   4.999  -1.556  0.5214  1.3074 -0.8348
   89SAPC  H17S 8457   5.763   5.142  -1.556 -3.5833 -1.7682 -0.2439
   89SAPC  C218 8458   5.700   4.991  -1.413  0.4836  0.6406 -0.0240
   89SAPC  H18R 8459   5.642   5.067  -1.355 -0.0339  1.6161 -1.7502
   89SAPC  H18S 8460   5.738   4.920  -1.337 -1.6332 -0.1305  0.3796
   89SAPC  C219 8461   5.593   4.927  -1.496 -0.4180 -0.1989 -0.2059
   89SAPC  H19R 8462   5.562   4.994  -1.579 -0.8851  0.1901  0.2768
   89SAPC  H19S 8463   5.500   4.894  -1.444  0.7057 -1.3712  1.1310
   89SAPC  C220 8464   5.640   4.807  -1.575  0.2606 -0.1211  1.4242
   89SAPC  H20R 8465   5.719   4.834  -1.648 -0.3250  0.0959  0.8609
   89SAPC  H20S 8466   5.549   4.767  -1.624 -0.6947  2.0614  1.3158
   89SAPC  H20T 8467   5.692   4.723  -1.523  0.1241 -1.7383 -0.8958
   89SAPC   C33 8468   5.146   5.268  -0.435 -0.1505  0.3412  0.6248
   89SAPC   H3X 8469   5.252   5.263  -0.467 -0.5023  0.1538 -0.5555
   89SAPC   H3Y 8470   5.106   5.371  -0.441  0.6278  0.6465  0.5629
   89SAPC   C34 8471   5.058   5.178  -0.521 -0.2004  0.1074  0.1749
   89SAPC   H4X 8472   4.949   5.173  -0.497 -0.4759 -1.7459 -1.1883
   89SAPC   H4Y 8473   5.101   5.076  -0.511  2.0165  0.7261 -2.1418
   89SAPC   C35 8474   5.066   5.218  -0.668  0.5805 -0.4002  0.6485
   89SAPC   H5X 8475   5.167   5.217  -0.713  0.4305 -2.6051  0.2688
   89SAPC   H5Y 8476   5.018   5.319  -0.666  2.2458  0.4128  1.5161
   89SAPC   C36 8477   4.988   5.123  -0.750  0.0624 -0.1903  0.8766
   89SAPC   H6X 8478   4.886   5.105  -0.708  0.0387 -0.2561  0.7922
   89SAPC   H6Y 8479   5.041   5.025  -0.756 -0.0891 -0.2097 -0.4684
   89SAPC   C37 8480   4.962   5.163  -0.899 -0.1784  0.3504 -0.8561
   89SAPC   H7X 8481   5.046   5.224  -0.938  1.8523  0.3037  2.8942
   89SAPC   H7Y 8482   4.873   5.230  -0.901 -0.5881 -0.0118  1.6359
   89SAPC   C38 8483   4.943   5.036  -0.989 -0.0084 -0.0430 -0.5006
   89SAPC   H8X 8484   4.887   4.959  -0.933 -0.2447 -0.2452 -1.0135
   89SAPC   H8Y 8485   5.039   4.987  -1.016  0.9800  1.1795  0.5953
   89SAPC   C39 8486   4.869   5.061  -1.121  0.3589 -0.1991  0.0072
   89SAPC   H9X 8487   4.774   5.107  -1.087  0.0578 -1.8557  1.5135
   89SAPC   H9Y 8488   4.839   4.967  -1.171  1.6118 -1.6509  1.8504
   89SAPC  C310 8489   4.962   5.143  -1.218  0.6523  0.2443  0.3887
   89SAPC  H10X 8490   5.031   5.066  -1.260  0.8937  0.3013  0.6697
   89SAPC  H10Y 8491   5.033   5.214  -1.169  0.5950  0.4937  0.1088
   89SAPC  C311 8492   4.883   5.221  -1.323  0.2723 -0.6000  0.1778
   89SAPC  H11X 8493   4.950   5.251  -1.406  0.9472 -0.1824  0.8549
   89SAPC  H11Y 8494   4.858   5.323  -1.286 -0.8546 -0.6447 -0.4347
   89SAPC  C312 8495   4.752   5.155  -1.377  0.2981 -1.2680  0.1848
   89SAPC  H12X 8496   4.679   5.161  -1.294 -0.1593 -1.7717 -0.1686
   89SAPC  H12Y 8497   4.761   5.048  -1.406 -0.1505 -1.1084 -0.5767
   89SAPC  C313 8498   4.702   5.237  -1.500  0.9498 -0.2321  0.2063
   89SAPC  H13X 8499   4.651   5.331  -1.470  0.0906  0.0245 -1.8709
   89SAPC  H13Y 8500   4.617   5.178  -1.543  1.7716 -1.9502  0.8662
   89SAPC  C314 8501   4.801   5.273  -1.611  0.7341  0.0372 -0.0827
   89SAPC  H14X 8502   4.870   5.187  -1.622 -0.9983 -1.4542  0.2408
   89SAPC  H14Y 8503   4.863   5.359  -1.576  0.0356  0.8890 -0.8984
   89SAPC  C315 8504   4.730   5.327  -1.725 -0.1653 -0.3187  0.0466
   89SAPC  H15X 8505   4.685   5.428  -1.717  0.3526  0.0400 -1.2088
   89SAPC  H15Y 8506   4.660   5.255  -1.774  0.3421 -0.5149 -0.4082
   89SAPC  C316 8507   4.829   5.361  -1.839  0.1763  0.0458  0.1476
   89SAPC  H16X 8508   4.903   5.278  -1.844 -0.7732 -0.9924  2.2342
   89SAPC  H16Y 8509   4.877   5.457  -1.811 -2.6366  1.7692 -0.5881
   89SAPC  C317 8510   4.783   5.389  -1.984  0.4985 -0.1563 -0.7022
   89SAPC  H17X 8511   4.764   5.290  -2.031  0.2511 -0.2441 -0.4167
   89SAPC  H17Y 8512   4.866   5.437  -2.039  0.3863  0.3549 -0.4270
   89SAPC  C318 8513   4.664   5.482  -1.996  0.6484 -0.6067  0.5783
   89SAPC  H18X 8514   4.646   5.508  -2.102 -1.2076 -0.7180  0.8293
   89SAPC  H18Y 8515   4.685   5.578  -1.944 -0.2502  0.2945 -0.6739
   89SAPC  H18Z 8516   4.570   5.434  -1.960  0.1114 -0.1445 -0.1751
   90SAPC     N 8517   1.711   0.996   0.213  0.3840 -0.3935 -0.5762
   90SAPC   C12 8518   1.667   1.021   0.066  0.2562  0.1883  0.1973
   90SAPC  H12A 8519   1.561   1.007   0.058  0.4299 -0.7139 -0.6482
   90SAPC  H12B 8520   1.711   0.942   0.007  0.7335  1.2396 -0.9155
   90SAPC   C13 8521   1.642   1.083   0.305  0.0313  0.2344 -0.8326
   90SAPC  H13A 8522   1.678   1.069   0.405 -1.3296 -1.5798 -0.5501
   90SAPC  H13B 8523   1.648   1.188   0.279 -0.7044  0.3994 -0.3576
   90SAPC  H13C 8524   1.537   1.057   0.310  0.4125 -1.5209 -1.3290
   90SAPC   C14 8525   1.699   0.848   0.242  0.1195  0.4930 -0.2340
   90SAPC  H14A 8526   1.730   0.831   0.344  1.3700  0.8336 -0.5376
   90SAPC  H14B 8527   1.595   0.819   0.241 -0.3515  2.0432 -1.5461
   90SAPC  H14C 8528   1.768   0.792   0.182 -0.2037 -1.5893  1.2530
   90SAPC   C15 8529   1.860   1.034   0.229  1.4401 -0.0906  0.4007
   90SAPC  H15A 8530   1.902   1.017   0.327 -1.0686  2.7841  2.1674
   90SAPC  H15B 8531   1.907   0.977   0.150 -0.9965  0.8181 -1.8316
   90SAPC  H15C 8532   1.871   1.139   0.206 -3.2596  0.4296 -0.4494
   90SAPC   C11 8533   1.707   1.150  -0.003  0.1995 -0.1120  0.4459
   90SAPC  H11A 8534   1.671   1.136  -0.107 -0.9789 -2.3415  1.0903
   90SAPC  H11B 8535   1.818   1.148  -0.009  0.2472 -2.7769  0.8875
   90SAPC     P 8536   1.521   1.325   0.039 -0.0253 -0.0060 -0.0578
   90SAPC   O13 8537   1.427   1.236   0.112  0.2188  0.1234  0.1804
   90SAPC   O14 8538   1.532   1.470   0.073 -0.1916 -0.1427 -0.3515
   90SAPC   O12 8539   1.666   1.271   0.057 -0.0547 -0.3842 -0.4396
   90SAPC   O11 8540   1.486   1.311  -0.115 -0.1911  0.1097 -0.1898
   90SAPC    C1 8541   1.547   1.403  -0.207 -0.0492  0.0494 -0.6343
   90SAPC    HA 8542   1.544   1.509  -0.175 -2.2293  0.4842 -2.0387
   90SAPC    HB 8543   1.652   1.369  -0.223  0.1358  0.9525 -1.4039
   90SAPC    C2 8544   1.478   1.395  -0.345 -0.1542 -0.3949  0.2900
   90SAPC    HS 8545   1.528   1.467  -0.413  1.3453 -1.0725  0.6343
   90SAPC   O21 8546   1.344   1.428  -0.325 -0.2424 -0.6633 -0.1314
   90SAPC   C21 8547   1.318   1.555  -0.305  0.3222 -0.5015  0.8328
   90SAPC   O22 8548   1.395   1.648  -0.293  0.1097 -0.3338  0.1742
   90SAPC   C22 8549   1.163   1.569  -0.304 -0.7088 -0.3584  0.1484
   90SAPC   H2R 8550   1.100   1.479  -0.319 -3.0227  1.3723 -1.4914
   90SAPC   H2S 8551   1.149   1.608  -0.201  1.6726  1.0144  0.0195
   90SAPC    C3 8552   1.481   1.260  -0.426  0.0657 -0.6191 -0.2404
   90SAPC    HX 8553   1.437   1.183  -0.359  0.4561 -0.4343  0.2377
   90SAPC    HY 8554   1.586   1.222  -0.429  0.4621  0.3716  0.4880
   90SAPC   O31 8555   1.414   1.277  -0.556  0.2284  0.0930 -0.0873
   90SAPC   C31 8556   1.285   1.244  -0.558 -0.9827  0.4448  0.4297
   90SAPC   O32 8557   1.212   1.214  -0.465  0.0013  0.2430 -0.7627
   90SAPC   C32 8558   1.249   1.250  -0.705 -0.2158 -0.7423 -0.4660
   90SAPC   H2X 8559   1.281   1.156  -0.755  0.8082 -0.2015 -0.8560
   90SAPC   H2Y 8560   1.298   1.341  -0.745 -0.2422 -0.0262  1.0577
   90SAPC   C23 8561   1.112   1.683  -0.394  0.0878 -0.7234 -0.8834
   90SAPC   H3R 8562   1.164   1.777  -0.365  0.7003 -1.4177  0.3712
   90SAPC   H3S 8563   1.004   1.692  -0.372 -0.1146 -3.8347 -0.0904
   90SAPC   C24 8564   1.138   1.656  -0.541  0.4636  0.1272 -0.2271
   90SAPC   H4R 8565   1.099   1.555  -0.568  0.9877  0.0216 -0.6130
   90SAPC   H4S 8566   1.249   1.669  -0.540  0.9027 -2.6274  2.4345
   90SAPC   C25 8567   1.066   1.737  -0.647  0.0182 -0.0410  0.2008
   90SAPC   H5R 8568   0.963   1.705  -0.669  0.9892 -2.9200 -0.6067
   90SAPC   C26 8569   1.118   1.837  -0.727  0.6936  0.2249 -0.1182
   90SAPC   H6R 8570   1.059   1.889  -0.804  0.7241 -0.5348 -0.6612
   90SAPC   C27 8571   1.252   1.896  -0.715 -0.1798 -0.5609  0.3588
   90SAPC   H7R 8572   1.303   1.871  -0.810  2.5304  1.3889  1.1437
   90SAPC   H7S 8573   1.317   1.850  -0.637 -1.1124  1.2338  2.3160
   90SAPC   C28 8574   1.250   2.047  -0.699  0.8445  0.3394  0.0726
   90SAPC   H8R 8575   1.254   2.082  -0.595 -1.2863 -1.9906  1.0355
   90SAPC   C29 8576   1.237   2.135  -0.788  0.0261 -0.1501 -0.5195
   90SAPC   H9R 8577   1.253   2.241  -0.764 -0.5221  1.8994 -7.2175
   90SAPC  C210 8578   1.241   2.112  -0.938 -0.0694  0.7572 -0.3621
   90SAPC  H10R 8579   1.311   2.025  -0.949 -3.0858 -2.4486  2.9594
   90SAPC  H10S 8580   1.295   2.200  -0.977  0.0972  1.4341  1.3340
   90SAPC  C211 8581   1.119   2.082  -1.019  0.0460 -1.1210  0.3901
   90SAPC  H11R 8582   1.034   2.047  -0.958  2.4051 -1.4974  3.7871
   90SAPC  C212 8583   1.111   2.100  -1.153  0.1963  0.4627  0.1019
   90SAPC  H12R 8584   1.018   2.071  -1.204  3.0977 -3.3354 -3.7957
   90SAPC  C213 8585   1.221   2.141  -1.248 -0.7548 -0.6727 -0.2314
   90SAPC  H13R 8586   1.321   2.100  -1.224  0.5506  1.7389 -1.2064
   90SAPC  H13S 8587   1.226   2.252  -1.239 -0.2801 -0.5511 -1.8348
   90SAPC  C214 8588   1.190   2.098  -1.392  0.1642 -0.8116 -0.2624
   90SAPC  H14R 8589   1.214   1.994  -1.418  0.9796 -0.0057 -3.0552
   90SAPC  C215 8590   1.128   2.172  -1.485  0.0660  0.4230  0.0817
   90SAPC  H15R 8591   1.091   2.132  -1.581 -1.0952  0.1686  0.6213
   90SAPC  C216 8592   1.088   2.316  -1.464 -0.3255 -0.4886 -0.1155
   90SAPC  H16R 8593   1.164   2.382  -1.509 -0.7631  1.1247  1.4129
   90SAPC  H16S 8594   1.086   2.343  -1.356  4.8345  0.2900  0.0305
   90SAPC  C217 8595   0.949   2.334  -1.526 -0.2834 -0.2512  0.0869
   90SAPC  H17R 8596   0.876   2.286  -1.458  1.7231 -2.3750  0.8728
   90SAPC  H17S 8597   0.934   2.289  -1.626 -1.4988  0.9656 -0.3151
   90SAPC  C218 8598   0.916   2.476  -1.558  0.0077 -0.2241 -0.6621
   90SAPC  H18R 8599   0.970   2.513  -1.647  2.3664 -2.1930 -0.1587
   90SAPC  H18S 8600   0.957   2.553  -1.490  2.6723 -1.1490 -1.1093
   90SAPC  C219 8601   0.766   2.508  -1.578 -0.0691 -0.0857  0.1304
   90SAPC  H19R 8602   0.759   2.608  -1.529  1.1853 -0.7735  1.8361
   90SAPC  H19S 8603   0.711   2.428  -1.524  0.3174 -0.3042  0.2034
   90SAPC  C220 8604   0.736   2.516  -1.728  0.0021  0.0564 -0.0115
   90SAPC  H20R 8605   0.752   2.419  -1.780  2.9195  0.6627 -0.4184
   90SAPC  H20S 8606   0.804   2.594  -1.767 -1.2536  0.9171 -0.5386
   90SAPC  H20T 8607   0.630   2.545  -1.743  0.2901  0.9993 -0.2709
   90SAPC   C33 8608   1.096   1.264  -0.737  0.0788 -0.0433 -0.0702
   90SAPC   H3X 8609   1.050   1.336  -0.666  1.8697 -0.3244  1.4528
   90SAPC   H3Y 8610   1.032   1.174  -0.722  0.4183 -0.3400 -0.4086
   90SAPC   C34 8611   1.078   1.288  -0.889 -0.5368  0.1295  0.4485
   90SAPC   H4X 8612   1.076   1.191  -0.943 -0.8589  1.5791 -2.2975
   90SAPC   H4Y 8613   1.159   1.349  -0.934 -0.3783 -0.6374 -0.3294
   90SAPC   C35 8614   0.946   1.364  -0.921  0.8741  0.1226 -0.0995
   90SAPC   H5X 8615   0.927   1.450  -0.853 -1.2570 -1.5816  1.6490
   90SAPC   H5Y 8616   0.863   1.296  -0.892  1.8768 -0.7601  0.8275
   90SAPC   C36 8617   0.930   1.408  -1.068 -0.1628  0.3861  0.4749
   90SAPC   H6X 8618   1.019   1.459  -1.111  1.6189 -1.4834  1.7485
   90SAPC   H6Y 8619   0.852   1.485  -1.052  1.4167  2.1663 -0.0166
   90SAPC   C37 8620   0.888   1.294  -1.168  0.3064  0.1575 -0.8948
   90SAPC   H7X 8621   0.796   1.244  -1.131  0.3045 -1.2733 -2.6937
   90SAPC   H7Y 8622   0.967   1.217  -1.179  1.9189  2.0926 -4.2952
   90SAPC   C38 8623   0.874   1.344  -1.308  0.4248  0.2228 -0.0880
   90SAPC   H8X 8624   0.968   1.399  -1.329 -0.3126  1.7534  0.4876
   90SAPC   H8Y 8625   0.794   1.421  -1.319  1.6414  1.5828  0.3327
   90SAPC   C39 8626   0.851   1.231  -1.410 -0.1693  0.3880  0.0689
   90SAPC   H9X 8627   0.743   1.208  -1.408 -0.3963  1.2580 -1.1989
   90SAPC   H9Y 8628   0.919   1.144  -1.395  1.4524  1.5118 -0.4156
   90SAPC  C310 8629   0.888   1.293  -1.553 -0.3261  0.1085 -0.9396
   90SAPC  H10X 8630   0.998   1.311  -1.556 -0.5704  1.6004 -1.2978
   90SAPC  H10Y 8631   0.835   1.390  -1.556  2.0172  1.5949  1.0892
   90SAPC  C311 8632   0.843   1.200  -1.669 -0.1240  0.1344 -0.4148
   90SAPC  H11X 8633   0.733   1.190  -1.656 -0.1534  1.7975  0.9370
   90SAPC  H11Y 8634   0.893   1.102  -1.657 -0.9325 -0.0922  1.3015
   90SAPC  C312 8635   0.880   1.247  -1.813 -0.2871  0.0973 -0.2498
   90SAPC  H12X 8636   0.983   1.285  -1.826 -1.5442  4.1056  0.1388
   90SAPC  H12Y 8637   0.814   1.334  -1.831 -2.6720 -1.6097 -0.3197
   90SAPC  C313 8638   0.815   1.155  -1.926  0.1626  0.1731 -0.4667
   90SAPC  H13X 8639   0.706   1.158  -1.904  0.3273 -1.1292  0.7308
   90SAPC  H13Y 8640   0.858   1.054  -1.908 -2.2279 -0.8250  0.0007
   90SAPC  C314 8641   0.847   1.212  -2.064  0.3733 -0.1552 -0.8951
   90SAPC  H14X 8642   0.957   1.216  -2.081  0.8793 -1.7718  1.5225
   90SAPC  H14Y 8643   0.801   1.310  -2.088 -2.2826 -1.3943 -1.2330
   90SAPC  C315 8644   0.813   1.103  -2.166  0.7523  0.5951  0.2641
   90SAPC  H15X 8645   0.703   1.089  -2.170  1.0105 -1.7052  0.1967
   90SAPC  H15Y 8646   0.866   1.008  -2.144  1.2893  0.8948  0.2883
   90SAPC  C316 8647   0.864   1.132  -2.307 -0.1859 -0.2214 -0.6216
   90SAPC  H16X 8648   0.973   1.149  -2.303 -0.3541  2.1009 -3.1163
   90SAPC  H16Y 8649   0.825   1.228  -2.346  2.9917 -0.3988 -4.8878
   90SAPC  C317 8650   0.839   1.022  -2.414 -0.2612 -0.1927 -0.3274
   90SAPC  H17X 8651   0.852   0.926  -2.358  0.3728  0.8599  1.4332
   90SAPC  H17Y 8652   0.909   1.039  -2.499 -0.9482  0.4245 -0.7774
   90SAPC  C318 8653   0.698   1.036  -2.471 -0.0651  0.8880 -0.0410
   90SAPC  H18X 8654   0.616   1.034  -2.397  0.7846  1.5976  0.9555
   90SAPC  H18Y 8655   0.679   0.959  -2.548 -1.4420  1.6667 -0.5194
   90SAPC  H18Z 8656   0.674   1.130  -2.524 -1.6414  1.2254  1.2179
   91SAPC     N 8657   2.058   2.894   0.435 -1.0418  0.0556 -0.4731
   91SAPC   C12 8658   2.038   2.942   0.293 -1.1778 -0.3910  0.0491
   91SAPC  H12A 8659   2.123   2.925   0.228 -3.7256  0.1800 -3.6999
   91SAPC  H12B 8660   2.035   3.050   0.288 -1.2623 -0.4365 -4.2297
   91SAPC   C13 8661   2.195   2.932   0.492 -0.5028  0.3109  0.4310
   91SAPC  H13A 8662   2.208   3.037   0.475 -1.1785  0.1383 -1.3391
   91SAPC  H13B 8663   2.198   2.920   0.599  1.3903  2.8611  0.7673
   91SAPC  H13C 8664   2.282   2.883   0.449  0.2372  1.3673  0.6954
   91SAPC   C14 8665   1.951   2.949   0.527 -0.0048  0.2085  0.1037
   91SAPC  H14A 8666   1.854   2.919   0.490 -0.1766 -0.4365  1.0300
   91SAPC  H14B 8667   1.967   2.905   0.624  2.6007 -0.4300 -0.5243
   91SAPC  H14C 8668   1.962   3.055   0.544  0.7468 -0.2533  3.1473
   91SAPC   C15 8669   2.066   2.746   0.436  0.4592 -0.3646  0.0970
   91SAPC  H15A 8670   2.071   2.705   0.536 -0.0755  0.3647  0.4245
   91SAPC  H15B 8671   1.975   2.709   0.390  1.4394 -0.2307 -2.0352
   91SAPC  H15C 8672   2.155   2.718   0.382 -0.3633  0.7879 -1.9822
   91SAPC   C11 8673   1.919   2.888   0.223  0.6939 -0.4686  0.4759
   91SAPC  H11A 8674   1.938   2.779   0.207  2.4436  0.1533 -2.5413
   91SAPC  H11B 8675   1.910   2.921   0.117  3.8511 -0.9885 -0.0717
   91SAPC     P 8676   1.682   2.807   0.317 -0.6274  0.1933 -0.2119
   91SAPC   O13 8677   1.752   2.681   0.350 -0.2015  0.2329  0.2145
   91SAPC   O14 8678   1.573   2.863   0.409 -0.4700  0.5340 -0.1864
   91SAPC   O12 8679   1.799   2.922   0.296  0.3876  0.0778 -0.0808
   91SAPC   O11 8680   1.626   2.806   0.166  0.5322 -0.3600 -0.3019
   91SAPC    C1 8681   1.557   2.915   0.108  0.1222  0.1176  1.0387
   91SAPC    HA 8682   1.448   2.901   0.127 -0.7988  0.2980 -3.0901
   91SAPC    HB 8683   1.593   3.012   0.150  2.5489 -1.0532  1.8161
   91SAPC    C2 8684   1.572   2.909  -0.046  0.2731 -0.5976 -0.1232
   91SAPC    HS 8685   1.505   2.990  -0.082  0.7454 -0.3760 -0.5171
   91SAPC   O21 8686   1.540   2.773  -0.097  0.1527 -0.3292  0.5301
   91SAPC   C21 8687   1.484   2.791  -0.212  0.1633 -0.4017 -0.3956
   91SAPC   O22 8688   1.486   2.892  -0.278 -0.2069 -0.4668 -0.0262
   91SAPC   C22 8689   1.438   2.661  -0.266 -0.1891 -0.0574 -0.4861
   91SAPC   H2R 8690   1.525   2.603  -0.302  0.6942 -0.7434  2.4520
   91SAPC   H2S 8691   1.377   2.598  -0.196  0.6456 -1.3463 -0.8931
   91SAPC    C3 8692   1.722   2.942  -0.080  0.1338 -0.0660 -0.0784
   91SAPC    HX 8693   1.787   2.856  -0.051 -0.4836 -0.4067  0.3112
   91SAPC    HY 8694   1.747   3.034  -0.022 -1.7378  1.2617 -1.2849
   91SAPC   O31 8695   1.739   2.974  -0.228 -0.0601 -0.5560 -0.3503
   91SAPC   C31 8696   1.767   3.099  -0.261  0.3584  0.1737 -0.3870
   91SAPC   O32 8697   1.801   3.195  -0.192  0.3473 -0.1283 -0.2447
   91SAPC   C32 8698   1.735   3.111  -0.417 -0.8809 -0.2981  0.4557
   91SAPC   H2X 8699   1.630   3.075  -0.423 -0.7317 -0.7876  0.7073
   91SAPC   H2Y 8700   1.807   3.040  -0.463 -0.8301 -1.0688  1.6680
   91SAPC   C23 8701   1.350   2.695  -0.394 -0.3802  0.0991 -0.3387
   91SAPC   H3R 8702   1.392   2.769  -0.464 -1.3734  1.1401  0.1202
   91SAPC   H3S 8703   1.264   2.758  -0.363  0.9547  0.9642  1.8503
   91SAPC   C24 8704   1.318   2.562  -0.459  0.0101  0.0877  0.8099
   91SAPC   H4R 8705   1.411   2.532  -0.511  0.3147  0.4425  1.1530
   91SAPC   H4S 8706   1.240   2.567  -0.539 -1.4369  1.3121  2.2262
   91SAPC   C25 8707   1.279   2.443  -0.372 -0.2334  0.0956  0.9209
   91SAPC   H5R 8708   1.176   2.447  -0.335 -0.4546 -1.6162  0.5496
   91SAPC   C26 8709   1.365   2.345  -0.331  0.3660  0.0360  0.2592
   91SAPC   H6R 8710   1.326   2.260  -0.273  0.5822  1.0414  1.9294
   91SAPC   C27 8711   1.510   2.331  -0.361 -0.2871  0.6466  0.2121
   91SAPC   H7R 8712   1.555   2.326  -0.260  2.6352 -0.2571 -1.0125
   91SAPC   H7S 8713   1.557   2.409  -0.426 -1.2426 -2.7954 -5.2902
   91SAPC   C28 8714   1.543   2.195  -0.413 -0.0946 -0.7621 -0.1041
   91SAPC   H8R 8715   1.517   2.109  -0.349 -0.9615 -0.4094  0.0184
   91SAPC   C29 8716   1.604   2.170  -0.529 -0.0187  0.5139  0.0656
   91SAPC   H9R 8717   1.620   2.066  -0.560  1.2688  0.2215  1.5754
   91SAPC  C210 8718   1.662   2.265  -0.632 -0.3627 -0.4599  0.2547
   91SAPC  H10R 8719   1.771   2.278  -0.614  0.0967 -1.1639 -1.7892
   91SAPC  H10S 8720   1.621   2.368  -0.624  2.0337  0.5781 -0.0499
   91SAPC  C211 8721   1.657   2.232  -0.778 -0.2717 -0.1981 -0.4642
   91SAPC  H11R 8722   1.717   2.142  -0.800 -0.0583 -0.4310  0.9474
   91SAPC  C212 8723   1.600   2.302  -0.880  0.4472  0.4088 -0.2549
   91SAPC  H12R 8724   1.614   2.262  -0.982  3.7481  2.0552 -0.5999
   91SAPC  C213 8725   1.521   2.431  -0.865  0.1551 -0.2684 -0.0277
   91SAPC  H13R 8726   1.585   2.500  -0.805  1.7546  0.8500 -2.8336
   91SAPC  H13S 8727   1.428   2.407  -0.808  0.0259  3.1466  1.4692
   91SAPC  C214 8728   1.485   2.499  -0.995 -0.5886 -0.3520  0.2156
   91SAPC  H14R 8729   1.380   2.521  -1.019 -0.5271 -0.7853 -0.4798
   91SAPC  C215 8730   1.569   2.545  -1.086  0.0671 -0.0370 -0.5937
   91SAPC  H15R 8731   1.526   2.595  -1.174  0.4776 -0.6602 -1.1613
   91SAPC  C216 8732   1.718   2.536  -1.094  0.2829 -0.2335  0.7193
   91SAPC  H16R 8733   1.748   2.430  -1.087  2.2428 -0.0664 -2.8028
   91SAPC  H16S 8734   1.761   2.593  -1.009  0.3655  0.2396  0.3665
   91SAPC  C217 8735   1.776   2.570  -1.227 -0.7557  0.8346  0.8725
   91SAPC  H17R 8736   1.885   2.549  -1.217 -1.3201 -2.0193  2.0256
   91SAPC  H17S 8737   1.771   2.678  -1.253  2.1294  0.7840 -0.2799
   91SAPC  C218 8738   1.732   2.480  -1.342  0.8911 -0.0046 -0.5136
   91SAPC  H18R 8739   1.621   2.482  -1.340  0.8174 -2.2501  0.8215
   91SAPC  H18S 8740   1.743   2.372  -1.319 -2.3244 -0.3410 -0.0166
   91SAPC  C219 8741   1.793   2.509  -1.474 -0.4030  0.5688 -0.1811
   91SAPC  H19R 8742   1.903   2.499  -1.476 -0.0188  3.4557  0.9178
   91SAPC  H19S 8743   1.773   2.619  -1.483  0.7381  0.9949  1.9348
   91SAPC  C220 8744   1.740   2.422  -1.594 -0.1577  0.2408  0.0676
   91SAPC  H20R 8745   1.757   2.315  -1.568  1.7135  0.3403 -0.6020
   91SAPC  H20S 8746   1.793   2.454  -1.686 -1.4848  2.0636 -0.1132
   91SAPC  H20T 8747   1.630   2.433  -1.599 -0.5892 -1.9292  2.3005
   91SAPC   C33 8748   1.736   3.251  -0.492 -0.5962  0.2818 -0.6545
   91SAPC   H3X 8749   1.830   3.302  -0.461 -1.5466  0.2845  2.6520
   91SAPC   H3Y 8750   1.660   3.319  -0.448 -1.9438 -0.6266 -1.5124
   91SAPC   C34 8751   1.715   3.222  -0.640  0.0632  0.0242  0.5858
   91SAPC   H4X 8752   1.619   3.175  -0.671  1.4954 -1.3276 -2.1399
   91SAPC   H4Y 8753   1.793   3.150  -0.672  2.2646  1.5232  2.3048
   91SAPC   C35 8754   1.719   3.346  -0.721 -0.4351 -0.1287  0.3401
   91SAPC   H5X 8755   1.776   3.331  -0.815  1.4492  2.3954  0.9571
   91SAPC   H5Y 8756   1.772   3.436  -0.681 -0.7839  0.9027 -1.4172
   91SAPC   C36 8757   1.584   3.415  -0.750 -0.3724  0.0080 -0.5390
   91SAPC   H6X 8758   1.548   3.451  -0.652 -2.8312 -0.0035 -1.3605
   91SAPC   H6Y 8759   1.521   3.335  -0.794  0.5065 -0.0468 -1.7594
   91SAPC   C37 8760   1.586   3.540  -0.835 -0.1235 -0.1694  0.2122
   91SAPC   H7X 8761   1.635   3.512  -0.931  1.1507  2.4807 -0.0228
   91SAPC   H7Y 8762   1.641   3.623  -0.784 -0.6201  0.4192 -0.1964
   91SAPC   C38 8763   1.443   3.591  -0.858  0.3879 -0.2084 -0.0239
   91SAPC   H8X 8764   1.402   3.633  -0.764 -3.1751 -2.3363 -0.4500
   91SAPC   H8Y 8765   1.376   3.506  -0.883 -1.7007  0.9419  1.2963
   91SAPC   C39 8766   1.415   3.683  -0.982  0.3830  0.2021  0.2682
   91SAPC   H9X 8767   1.435   3.623  -1.073  0.7909  1.6455 -0.6171
   91SAPC   H9Y 8768   1.486   3.768  -0.984  0.4235  0.1532 -1.0725
   91SAPC  C310 8769   1.265   3.726  -1.000  0.4229  0.0153  0.5833
   91SAPC  H10X 8770   1.222   3.770  -0.908 -0.2673 -0.7477  0.6335
   91SAPC  H10Y 8771   1.198   3.640  -1.024 -1.1619  1.3708 -0.1132
   91SAPC  C311 8772   1.231   3.828  -1.111 -0.2300 -0.1846 -0.5301
   91SAPC  H11X 8773   1.269   3.923  -1.068 -0.1830 -0.0977 -0.7592
   91SAPC  H11Y 8774   1.122   3.845  -1.111 -0.2003  0.0042 -0.4254
   91SAPC  C312 8775   1.281   3.796  -1.254  0.0015  0.6797 -0.6020
   91SAPC  H12X 8776   1.258   3.690  -1.273  1.3578  0.2696 -0.1022
   91SAPC  H12Y 8777   1.391   3.784  -1.254 -0.0434 -1.0560 -4.2729
   91SAPC  C313 8778   1.231   3.889  -1.364 -0.7778  0.2041 -0.1725
   91SAPC  H13X 8779   1.274   3.986  -1.332 -0.9679 -0.4254  2.1894
   91SAPC  H13Y 8780   1.120   3.885  -1.360 -0.7394 -0.7431  0.2194
   91SAPC  C314 8781   1.273   3.850  -1.502 -0.0571  0.8705 -0.8838
   91SAPC  H14X 8782   1.257   3.742  -1.523 -0.4859  0.6936  0.3020
   91SAPC  H14Y 8783   1.381   3.876  -1.512  0.5005 -1.5920 -2.0009
   91SAPC  C315 8784   1.197   3.922  -1.610 -0.3949  0.2310  0.7436
   91SAPC  H15X 8785   1.190   4.030  -1.584 -0.0235  0.4978 -0.2448
   91SAPC  H15Y 8786   1.092   3.886  -1.606  0.1550 -1.3407  2.7006
   91SAPC  C316 8787   1.259   3.909  -1.751 -0.2029 -0.9823 -0.0573
   91SAPC  H16X 8788   1.182   3.925  -1.829  0.8987 -1.8418 -1.3662
   91SAPC  H16Y 8789   1.288   3.804  -1.771  0.8626 -1.1858  2.2576
   91SAPC  C317 8790   1.364   4.019  -1.778 -0.2461 -0.2304 -0.0364
   91SAPC  H17X 8791   1.444   4.026  -1.701 -0.7797  2.2939  0.3831
   91SAPC  H17Y 8792   1.311   4.112  -1.747 -0.6246  0.6541 -3.0341
   91SAPC  C318 8793   1.421   4.043  -1.919 -0.8675 -0.0572 -0.0254
   91SAPC  H18X 8794   1.339   4.059  -1.992 -0.8955 -1.2930 -0.2956
   91SAPC  H18Y 8795   1.474   3.958  -1.967 -1.1415  0.6687 -1.6591
   91SAPC  H18Z 8796   1.489   4.130  -1.922  0.3142 -0.9555  0.1586
   92SAPC     N 8797   0.162   6.872   0.125  0.2698  0.0847  0.1282
   92SAPC   C12 8798   0.013   6.868   0.119 -0.5788 -1.2613 -0.2170
   92SAPC  H12A 8799  -0.024   6.945   0.054 -1.2822 -0.2729  1.3040
   92SAPC  H12B 8800  -0.030   6.891   0.216 -1.8923  1.1342 -1.2988
   92SAPC   C13 8801   0.227   6.858  -0.006  0.3706 -0.0139  0.3862
   92SAPC  H13A 8802   0.335   6.855  -0.001  0.5131  3.3168  2.5358
   92SAPC  H13B 8803   0.201   6.763  -0.050 -0.6107  0.0531  0.7920
   92SAPC  H13C 8804   0.181   6.934  -0.067 -0.7078  1.4113  2.8138
   92SAPC   C14 8805   0.212   7.000   0.189  0.1847  0.6918  0.2252
   92SAPC  H14A 8806   0.311   6.986   0.229 -0.4994  0.3335  1.9141
   92SAPC  H14B 8807   0.213   7.081   0.118  4.3731 -0.3217 -1.0979
   92SAPC  H14C 8808   0.156   7.024   0.279 -1.1089  0.1127 -0.3868
   92SAPC   C15 8809   0.223   6.764   0.213  0.7888 -1.0961  0.1096
   92SAPC  H15A 8810   0.201   6.670   0.164 -0.8885  0.4979 -2.3904
   92SAPC  H15B 8811   0.330   6.781   0.208  0.3178  3.2455  1.3434
   92SAPC  H15C 8812   0.193   6.767   0.317 -0.9909 -2.2352 -0.3215
   92SAPC   C11 8813  -0.051   6.743   0.068 -0.4682  0.0653 -0.2446
   92SAPC  H11A 8814  -0.027   6.723  -0.038 -2.1994 -0.0602 -0.6368
   92SAPC  H11B 8815  -0.162   6.754   0.075 -0.7171 -0.0836 -2.9853
   92SAPC     P 8816  -0.095   6.584   0.276 -0.2931  0.1586 -0.1352
   92SAPC   O13 8817  -0.030   6.484   0.360 -0.2516  0.7790  0.5476
   92SAPC   O14 8818  -0.142   6.709   0.341 -0.2109  0.4747  0.4345
   92SAPC   O12 8819  -0.009   6.630   0.148  0.2850  0.3561  0.3786
   92SAPC   O11 8820  -0.223   6.511   0.215  0.5084  0.3323 -0.1708
   92SAPC    C1 8821  -0.218   6.396   0.128 -0.2238 -0.1933  0.2157
   92SAPC    HA 8822  -0.123   6.342   0.145  0.3426  1.0645  1.1933
   92SAPC    HB 8823  -0.303   6.326   0.143 -1.4184  0.2913 -3.2912
   92SAPC    C2 8824  -0.220   6.430  -0.026 -0.7639 -0.0958  0.0083
   92SAPC    HS 8825  -0.124   6.477  -0.056  1.5072 -3.4906  1.3655
   92SAPC   O21 8826  -0.335   6.516  -0.060  0.6957  1.1180 -0.2754
   92SAPC   C21 8827  -0.314   6.606  -0.154  0.4846  0.5211  0.1315
   92SAPC   O22 8828  -0.208   6.628  -0.209  0.0123 -0.0126  0.5762
   92SAPC   C22 8829  -0.435   6.701  -0.164  0.3311  0.1444  0.6813
   92SAPC   H2R 8830  -0.516   6.656  -0.226  2.1374 -0.1839 -1.5812
   92SAPC   H2S 8831  -0.464   6.732  -0.061  0.3602 -1.3824  1.1738
   92SAPC    C3 8832  -0.225   6.302  -0.115 -0.1490  0.0441 -0.2973
   92SAPC    HX 8833  -0.325   6.254  -0.107  0.1515 -1.2416 -3.0865
   92SAPC    HY 8834  -0.147   6.229  -0.086 -0.3242 -0.8229 -1.8729
   92SAPC   O31 8835  -0.214   6.343  -0.252 -0.0517 -0.3557  0.2566
   92SAPC   C31 8836  -0.088   6.353  -0.293  0.0430 -0.0128 -0.5235
   92SAPC   O32 8837   0.014   6.343  -0.227  0.1587  0.0125 -0.4070
   92SAPC   C32 8838  -0.090   6.397  -0.441  0.2526 -0.4160  0.1551
   92SAPC   H2X 8839  -0.137   6.498  -0.451  0.7523 -0.1569  0.3780
   92SAPC   H2Y 8840  -0.152   6.332  -0.505  1.3102 -1.4304  0.1452
   92SAPC   C23 8841  -0.404   6.838  -0.239  0.4637  0.4529  0.2387
   92SAPC   H3R 8842  -0.304   6.877  -0.209  0.6619  2.4675 -2.6719
   92SAPC   H3S 8843  -0.471   6.920  -0.205 -0.1140  0.5155 -0.9786
   92SAPC   C24 8844  -0.413   6.838  -0.390 -0.8874  0.4218  0.3350
   92SAPC   H4R 8845  -0.382   6.941  -0.417  0.9378 -0.3364 -0.6584
   92SAPC   H4S 8846  -0.518   6.810  -0.413 -0.1882 -0.7052 -1.8134
   92SAPC   C25 8847  -0.323   6.736  -0.459  0.8331 -0.5796  0.0156
   92SAPC   H5R 8848  -0.340   6.629  -0.438  1.5222 -0.5835  0.5975
   92SAPC   C26 8849  -0.219   6.759  -0.537  0.0538  0.0410  0.1244
   92SAPC   H6R 8850  -0.164   6.673  -0.578  0.7756  0.8677 -0.6998
   92SAPC   C27 8851  -0.164   6.886  -0.593  0.3907  0.5025  0.0538
   92SAPC   H7R 8852  -0.121   6.944  -0.508  0.8784 -2.7107  2.2085
   92SAPC   H7S 8853  -0.246   6.944  -0.639  1.3681  0.1672 -2.2686
   92SAPC   C28 8854  -0.056   6.877  -0.700  0.1694 -0.3458 -0.6465
   92SAPC   H8R 8855   0.049   6.885  -0.668  0.3055  3.1553 -1.5697
   92SAPC   C29 8856  -0.084   6.847  -0.830 -0.0652  0.0220  0.4159
   92SAPC   H9R 8857  -0.002   6.861  -0.902  0.4131  0.7798  1.0842
   92SAPC  C210 8858  -0.223   6.813  -0.885 -0.9451 -0.9724  0.3295
   92SAPC  H10R 8859  -0.300   6.805  -0.805 -1.7856  0.9941 -0.2145
   92SAPC  H10S 8860  -0.230   6.712  -0.930 -2.1316 -1.0013  0.5400
   92SAPC  C211 8861  -0.262   6.913  -0.988 -0.7761 -0.0124  0.4783
   92SAPC  H11R 8862  -0.278   7.014  -0.947  2.2631  0.6762  0.2206
   92SAPC  C212 8863  -0.280   6.902  -1.120  0.6696 -0.4278  0.5701
   92SAPC  H12R 8864  -0.320   6.986  -1.179 -2.0211 -0.9125  1.5269
   92SAPC  C213 8865  -0.253   6.776  -1.203 -0.1298 -0.4415 -0.0144
   92SAPC  H13R 8866  -0.350   6.765  -1.257 -0.2536  0.5441  0.0007
   92SAPC  H13S 8867  -0.230   6.683  -1.145 -1.0432 -0.1032  0.9386
   92SAPC  C214 8868  -0.140   6.787  -1.308 -0.9943  0.2201 -0.1196
   92SAPC  H14R 8869  -0.041   6.805  -1.264 -0.4695 -2.2808 -0.1170
   92SAPC  C215 8870  -0.163   6.791  -1.443 -0.2964  0.1709  0.1134
   92SAPC  H15R 8871  -0.083   6.824  -1.511 -0.3424 -0.6242 -0.3410
   92SAPC  C216 8872  -0.291   6.774  -1.520  0.3719  0.5992  0.7799
   92SAPC  H16R 8873  -0.383   6.759  -1.458 -0.7170  2.7478 -0.2338
   92SAPC  H16S 8874  -0.283   6.683  -1.583 -2.8351  0.2734  0.6838
   92SAPC  C217 8875  -0.327   6.898  -1.606 -0.3994  0.1760 -0.2856
   92SAPC  H17R 8876  -0.245   6.919  -1.678 -1.4277  1.5304 -1.0953
   92SAPC  H17S 8877  -0.338   6.977  -1.529 -1.7554 -0.2868  0.0305
   92SAPC  C218 8878  -0.460   6.882  -1.683  0.5258  0.0896 -0.1037
   92SAPC  H18R 8879  -0.432   6.809  -1.762  0.0971 -1.2939  0.9702
   92SAPC  H18S 8880  -0.477   6.984  -1.722  2.2741  0.4448 -0.0291
   92SAPC  C219 8881  -0.580   6.836  -1.594  0.2278  0.1373 -0.6086
   92SAPC  H19R 8882  -0.584   6.904  -1.506 -0.9719 -0.6348 -0.0291
   92SAPC  H19S 8883  -0.563   6.731  -1.560 -1.9318  0.1952  0.8991
   92SAPC  C220 8884  -0.710   6.857  -1.669 -0.5870  0.4483 -0.5072
   92SAPC  H20R 8885  -0.804   6.826  -1.619 -0.0894 -0.7351 -0.2882
   92SAPC  H20S 8886  -0.711   6.811  -1.770 -2.5937  1.6875 -1.1185
   92SAPC  H20T 8887  -0.716   6.965  -1.694 -1.5722  0.8941  1.4820
   92SAPC   C33 8888   0.050   6.406  -0.504 -1.1750 -0.1577 -1.0484
   92SAPC   H3X 8889   0.112   6.314  -0.495  1.8571  1.6071 -2.4228
   92SAPC   H3Y 8890   0.102   6.475  -0.434  0.3324 -2.0000 -0.2832
   92SAPC   C34 8891   0.059   6.460  -0.648 -0.1334  0.0019  0.5527
   92SAPC   H4X 8892   0.166   6.489  -0.659 -0.0147 -0.8577 -0.7047
   92SAPC   H4Y 8893   0.005   6.556  -0.660  0.8289  0.3447 -1.4398
   92SAPC   C35 8894   0.024   6.352  -0.750  0.1728 -0.1252  0.5390
   92SAPC   H5X 8895  -0.053   6.277  -0.720  0.1259 -1.0625 -1.7754
   92SAPC   H5Y 8896   0.116   6.290  -0.749 -0.9650 -1.9138  1.8462
   92SAPC   C36 8897  -0.005   6.422  -0.882  0.2285  0.2925 -0.8239
   92SAPC   H6X 8898   0.082   6.484  -0.912 -0.0426  0.2661 -1.6789
   92SAPC   H6Y 8899  -0.094   6.485  -0.864 -0.5336 -1.2912  1.3849
   92SAPC   C37 8900  -0.046   6.322  -0.991 -0.5483 -0.4508 -0.0005
   92SAPC   H7X 8901  -0.112   6.248  -0.942 -1.8408  0.1648 -0.7521
   92SAPC   H7Y 8902   0.055   6.287  -1.021 -0.4647  0.8969 -1.4631
   92SAPC   C38 8903  -0.123   6.391  -1.097 -0.0884 -0.2194  0.4442
   92SAPC   H8X 8904  -0.082   6.487  -1.133 -1.1873 -0.3594 -1.3186
   92SAPC   H8Y 8905  -0.223   6.413  -1.053 -0.1003 -0.3786  0.4973
   92SAPC   C39 8906  -0.140   6.306  -1.223  0.5144  0.2236  0.8489
   92SAPC   H9X 8907  -0.194   6.210  -1.208  0.6294 -0.4237 -2.3665
   92SAPC   H9Y 8908  -0.038   6.286  -1.261  0.4416  1.3307  0.0379
   92SAPC  C310 8909  -0.212   6.385  -1.343  0.0099  0.2805 -0.1224
   92SAPC  H10X 8910  -0.150   6.475  -1.361 -0.7977  1.0363  0.7562
   92SAPC  H10Y 8911  -0.317   6.408  -1.317  0.0253 -0.8865  1.0681
   92SAPC  C311 8912  -0.217   6.301  -1.470  0.2223 -0.7021  0.2745
   92SAPC  H11X 8913  -0.292   6.221  -1.455 -0.8803  0.5234  1.5899
   92SAPC  H11Y 8914  -0.115   6.260  -1.486  0.6848  0.2403  0.6864
   92SAPC  C312 8915  -0.254   6.373  -1.603  0.2738 -0.1153  0.5408
   92SAPC  H12X 8916  -0.175   6.452  -1.601  1.4722 -1.3048  1.7898
   92SAPC  H12Y 8917  -0.350   6.429  -1.598  0.6370  0.6229 -0.3858
   92SAPC  C313 8918  -0.225   6.285  -1.733  0.2938  0.1655  0.3995
   92SAPC  H13X 8919  -0.133   6.234  -1.698 -0.4292 -0.6865  1.1054
   92SAPC  H13Y 8920  -0.204   6.352  -1.819 -1.5064 -1.2225 -1.2060
   92SAPC  C314 8921  -0.344   6.190  -1.767  0.6224 -0.1423 -0.5779
   92SAPC  H14X 8922  -0.426   6.250  -1.810 -0.1725 -0.7581  0.0455
   92SAPC  H14Y 8923  -0.382   6.147  -1.671  1.9823 -0.3206 -0.0976
   92SAPC  C315 8924  -0.313   6.075  -1.865 -0.4157 -0.1108 -0.2955
   92SAPC  H15X 8925  -0.294   6.128  -1.961  0.0596  0.2706  0.0051
   92SAPC  H15Y 8926  -0.405   6.016  -1.884  0.0323 -1.1249  0.6209
   92SAPC  C316 8927  -0.194   5.980  -1.828 -0.1351  0.3749 -0.0411
   92SAPC  H16X 8928  -0.217   5.930  -1.732 -0.4214 -2.0282 -1.2737
   92SAPC  H16Y 8929  -0.105   6.042  -1.803 -1.0874  1.2857  1.1633
   92SAPC  C317 8930  -0.154   5.865  -1.928  0.9494  1.3240  0.0303
   92SAPC  H17X 8931  -0.233   5.853  -2.005  1.6402  0.5095 -0.5624
   92SAPC  H17Y 8932  -0.157   5.767  -1.877  0.3946  0.1567 -2.1106
   92SAPC  C318 8933  -0.021   5.869  -1.997 -0.9099 -0.8222 -0.1954
   92SAPC  H18X 8934   0.061   5.896  -1.925 -0.6383  1.2855 -1.2196
   92SAPC  H18Y 8935  -0.015   5.928  -2.091  0.1404  0.9420  0.8996
   92SAPC  H18Z 8936  -0.006   5.765  -2.032 -1.7526 -0.8397 -0.5016
   93SAPC     N 8937   0.748   2.549   0.498 -0.5800 -0.2837  0.3399
   93SAPC   C12 8938   0.821   2.439   0.577  0.1082 -0.1831  0.2514
   93SAPC  H12A 8939   0.858   2.358   0.515 -0.3838  0.0627 -0.3722
   93SAPC  H12B 8940   0.746   2.391   0.637 -3.4056  4.1316 -0.2162
   93SAPC   C13 8941   0.645   2.495   0.397 -0.7136  0.4891 -0.4397
   93SAPC  H13A 8942   0.685   2.422   0.328 -2.8944 -0.7597 -0.4692
   93SAPC  H13B 8943   0.566   2.442   0.447 -0.5542 -0.7718 -1.4749
   93SAPC  H13C 8944   0.606   2.577   0.337 -0.9428  0.0301 -0.9255
   93SAPC   C14 8945   0.686   2.638   0.601  0.1910 -0.4323 -0.1234
   93SAPC  H14A 8946   0.754   2.674   0.677  0.9223 -2.8802  0.5041
   93SAPC  H14B 8947   0.654   2.722   0.542  2.6288  1.3715  0.9717
   93SAPC  H14C 8948   0.605   2.584   0.649  0.3161 -1.1130 -0.6587
   93SAPC   C15 8949   0.855   2.623   0.431 -0.3533 -0.5427  0.5277
   93SAPC  H15A 8950   0.936   2.647   0.498  0.1800 -0.5005 -0.1223
   93SAPC  H15B 8951   0.899   2.563   0.353 -1.4677  0.0563 -0.5992
   93SAPC  H15C 8952   0.833   2.722   0.393 -0.8327 -0.6063  0.6295
   93SAPC   C11 8953   0.939   2.473   0.673 -0.0985  0.1440 -0.7296
   93SAPC  H11A 8954   0.962   2.386   0.738  0.0312 -0.2837 -1.3393
   93SAPC  H11B 8955   0.909   2.561   0.734 -1.2710  1.1419 -2.6178
   93SAPC     P 8956   1.143   2.396   0.533 -0.0212  0.1542  0.0469
   93SAPC   O13 8957   1.274   2.460   0.517 -0.2411  0.7547  0.4235
   93SAPC   O14 8958   1.137   2.277   0.623 -0.2242 -0.1324  0.4658
   93SAPC   O12 8959   1.058   2.505   0.603  1.0046  0.4182 -0.2196
   93SAPC   O11 8960   1.063   2.369   0.399 -0.4818  0.2121  0.0365
   93SAPC    C1 8961   1.122   2.299   0.290 -0.3162 -0.3009 -0.0246
   93SAPC    HA 8962   1.204   2.232   0.326  0.6874  1.4201  1.0646
   93SAPC    HB 8963   1.039   2.240   0.247 -0.9034  1.2839 -1.1759
   93SAPC    C2 8964   1.180   2.399   0.181 -0.0756  0.4951 -0.2854
   93SAPC    HS 8965   1.262   2.452   0.234  0.2148 -0.0507 -0.1756
   93SAPC   O21 8966   1.068   2.483   0.141 -0.3230 -0.7694 -0.2228
   93SAPC   C21 8967   1.100   2.584   0.068  0.6211  0.0049 -0.4901
   93SAPC   O22 8968   1.214   2.621   0.043  0.4876 -0.5192  0.3150
   93SAPC   C22 8969   0.963   2.654   0.038  0.1045 -0.5781  0.3094
   93SAPC   H2R 8970   0.902   2.653   0.131 -0.5115 -1.1598 -0.0961
   93SAPC   H2S 8971   0.986   2.757   0.002 -3.9921  0.5319  0.4229
   93SAPC    C3 8972   1.232   2.326   0.053 -0.2979  0.7125  0.1330
   93SAPC    HX 8973   1.312   2.255   0.084  0.0406  0.2003 -1.7773
   93SAPC    HY 8974   1.284   2.386  -0.025 -2.2417 -1.1800 -2.8439
   93SAPC   O31 8975   1.116   2.259  -0.001 -0.9102  0.8391 -0.0042
   93SAPC   C31 8976   1.125   2.125  -0.018 -0.1693 -0.5933 -0.1375
   93SAPC   O32 8977   1.220   2.051  -0.011 -0.0889  0.5094  0.3321
   93SAPC   C32 8978   0.989   2.083  -0.071 -0.1313  0.0301 -0.4769
   93SAPC   H2X 8979   0.910   2.159  -0.050 -1.7005 -1.4763 -0.6780
   93SAPC   H2Y 8980   0.954   2.003  -0.003  2.2910 -1.5875 -1.0239
   93SAPC   C23 8981   0.878   2.584  -0.063 -0.2309  0.5502 -0.2200
   93SAPC   H3R 8982   0.774   2.607  -0.030 -0.3263  1.0589 -0.8521
   93SAPC   H3S 8983   0.883   2.473  -0.061  1.2356  0.5933 -0.5547
   93SAPC   C24 8984   0.905   2.633  -0.202 -0.0663 -0.2869 -0.1891
   93SAPC   H4R 8985   1.015   2.625  -0.220  0.2999  3.6767 -0.4967
   93SAPC   H4S 8986   0.889   2.742  -0.214  3.3644  0.0991 -2.7728
   93SAPC   C25 8987   0.828   2.561  -0.308 -0.4741  0.4474  0.2585
   93SAPC   H5R 8988   0.748   2.497  -0.267 -2.7921  2.3878 -0.9610
   93SAPC   C26 8989   0.857   2.552  -0.437  0.1438  0.0403  0.2768
   93SAPC   H6R 8990   0.791   2.494  -0.502 -3.8536  3.2875  1.0033
   93SAPC   C27 8991   0.966   2.626  -0.507 -0.6798 -0.0548 -0.0740
   93SAPC   H7R 8992   1.042   2.564  -0.558  1.0852  0.4026  1.8797
   93SAPC   H7S 8993   1.033   2.676  -0.435  2.0059 -2.2401 -0.9064
   93SAPC   C28 8994   0.913   2.734  -0.601  0.3913  0.0414 -0.3920
   93SAPC   H8R 8995   0.827   2.795  -0.570  0.1703 -0.7414  0.5595
   93SAPC   C29 8996   0.975   2.766  -0.718  0.4575 -0.1845  0.2181
   93SAPC   H9R 8997   0.924   2.847  -0.772  0.6592 -0.0363  0.2471
   93SAPC  C210 8998   1.097   2.718  -0.793  0.2408 -0.6405  0.4724
   93SAPC  H10R 8999   1.185   2.712  -0.726 -0.3606  2.0444  1.6525
   93SAPC  H10S 9000   1.102   2.795  -0.873 -0.9269 -1.5453 -0.5141
   93SAPC  C211 9001   1.080   2.586  -0.859 -0.1496 -0.4133 -0.1289
   93SAPC  H11R 9002   1.076   2.500  -0.790  1.4595  0.2382  0.8122
   93SAPC  C212 9003   1.079   2.557  -0.991  0.9687 -0.3599 -0.2822
   93SAPC  H12R 9004   1.051   2.455  -1.021  1.0392 -0.8836  1.3408
   93SAPC  C213 9005   1.085   2.647  -1.107  0.0104 -0.6585  0.3887
   93SAPC  H13R 9006   0.993   2.708  -1.115  1.4959  1.4241 -3.7100
   93SAPC  H13S 9007   1.061   2.587  -1.197 -1.8914 -1.5635  1.4359
   93SAPC  C214 9008   1.202   2.729  -1.140 -0.0948 -1.1001  0.1509
   93SAPC  H14R 9009   1.292   2.708  -1.080  0.0868 -0.5885  0.0637
   93SAPC  C215 9010   1.216   2.811  -1.249  0.3348  0.3639  0.4291
   93SAPC  H15R 9011   1.305   2.873  -1.267 -0.3094  0.8358 -1.3334
   93SAPC  C216 9012   1.119   2.815  -1.374 -0.0545  0.0851 -0.0713
   93SAPC  H16R 9013   1.096   2.920  -1.401 -0.2109  0.2427  0.6517
   93SAPC  H16S 9014   1.018   2.777  -1.347 -0.8822  1.4424 -1.1049
   93SAPC  C217 9015   1.170   2.758  -1.504 -0.0203  0.0154  0.5490
   93SAPC  H17R 9016   1.191   2.649  -1.503  1.7762  0.3071  2.7401
   93SAPC  H17S 9017   1.277   2.784  -1.517  0.5714 -2.2533  0.4277
   93SAPC  C218 9018   1.091   2.801  -1.626 -0.0499  0.2571  0.0932
   93SAPC  H18R 9019   0.981   2.788  -1.618 -0.5175  2.2853 -2.0700
   93SAPC  H18S 9020   1.117   2.729  -1.707 -2.4304 -0.3402 -0.2038
   93SAPC  C219 9021   1.135   2.943  -1.663 -0.4637 -0.1273  0.0275
   93SAPC  H19R 9022   1.242   2.936  -1.636 -0.6345 -0.8446  0.5805
   93SAPC  H19S 9023   1.100   3.027  -1.599 -0.7576  0.8618 -1.3845
   93SAPC  C220 9024   1.109   2.989  -1.804  0.1507  0.0454 -0.4529
   93SAPC  H20R 9025   1.179   3.072  -1.828  0.4898 -0.0962  0.0296
   93SAPC  H20S 9026   1.009   3.033  -1.826  0.1331  1.0349  1.4227
   93SAPC  H20T 9027   1.124   2.902  -1.871 -0.4537 -1.3099  1.1102
   93SAPC   C33 9028   0.981   2.022  -0.213  0.2795 -0.0576 -0.1957
   93SAPC   H3X 9029   0.883   1.969  -0.225  0.5491 -0.2806 -1.6162
   93SAPC   H3Y 9030   1.055   1.941  -0.229 -0.8145 -1.2690  0.6496
   93SAPC   C34 9031   0.984   2.131  -0.313  0.1868 -0.7714  0.2957
   93SAPC   H4X 9032   1.082   2.183  -0.313 -0.8804  1.3910  0.9543
   93SAPC   H4Y 9033   0.901   2.204  -0.300 -0.7513 -1.6082 -0.7831
   93SAPC   C35 9034   0.965   2.080  -0.455 -0.2398 -0.4380 -0.0347
   93SAPC   H5X 9035   0.894   1.996  -0.468 -1.0798  0.5544 -2.3162
   93SAPC   H5Y 9036   1.064   2.043  -0.490  0.3988  1.1602 -0.0485
   93SAPC   C36 9037   0.912   2.192  -0.547  0.6861 -0.0024  0.2746
   93SAPC   H6X 9038   0.996   2.252  -0.587  0.5875 -0.8523 -1.3090
   93SAPC   H6Y 9039   0.850   2.264  -0.489 -2.2470 -2.0960 -0.0323
   93SAPC   C37 9040   0.832   2.146  -0.671  0.0358 -0.2348 -0.0910
   93SAPC   H7X 9041   0.747   2.080  -0.643 -0.6015  0.0898 -1.2378
   93SAPC   H7Y 9042   0.902   2.086  -0.733 -0.3273 -2.8047  1.7779
   93SAPC   C38 9043   0.783   2.244  -0.763  0.3258  0.1005  0.3612
   93SAPC   H8X 9044   0.875   2.300  -0.788  0.6050  0.8330  2.8514
   93SAPC   H8Y 9045   0.711   2.318  -0.723 -1.7436 -1.1725 -0.7712
   93SAPC   C39 9046   0.691   2.191  -0.874 -0.3530 -0.2440  0.0623
   93SAPC   H9X 9047   0.647   2.279  -0.925 -0.4467  0.4894  1.3670
   93SAPC   H9Y 9048   0.604   2.143  -0.825 -1.0755  0.1743 -0.7847
   93SAPC  C310 9049   0.764   2.096  -0.974 -0.1161  0.2391 -0.3335
   93SAPC  H10X 9050   0.811   2.019  -0.909  0.3448 -0.0827 -1.0339
   93SAPC  H10Y 9051   0.843   2.159  -1.019  0.1623 -0.2725 -0.5682
   93SAPC  C311 9052   0.670   2.032  -1.075 -0.0509  0.5874 -0.3669
   93SAPC  H11X 9053   0.607   2.114  -1.117 -0.5187 -0.4555 -1.7876
   93SAPC  H11Y 9054   0.604   1.971  -1.010 -3.4025  2.5535 -1.6723
   93SAPC  C312 9055   0.735   1.959  -1.186 -0.1803 -0.3242  0.5047
   93SAPC  H12X 9056   0.806   2.031  -1.232 -1.5063  0.3174 -0.6057
   93SAPC  H12Y 9057   0.649   1.948  -1.255 -0.3260  0.4650  0.5539
   93SAPC  C313 9058   0.796   1.828  -1.142 -0.5525 -0.7336 -0.2107
   93SAPC  H13X 9059   0.725   1.770  -1.079  0.3314  0.9430  2.4915
   93SAPC  H13Y 9060   0.880   1.850  -1.072 -1.3378 -0.3736  0.6337
   93SAPC  C314 9061   0.854   1.756  -1.266 -0.5106  0.1779 -0.3690
   93SAPC  H14X 9062   0.765   1.722  -1.322 -1.2699 -0.0384  0.9227
   93SAPC  H14Y 9063   0.897   1.664  -1.219  2.3384  0.2879 -2.5170
   93SAPC  C315 9064   0.951   1.830  -1.359 -0.0476 -0.5170  0.4506
   93SAPC  H15X 9065   1.029   1.865  -1.288 -0.1916 -1.7801  1.2691
   93SAPC  H15Y 9066   0.903   1.915  -1.411  1.3642 -0.0298 -0.0822
   93SAPC  C316 9067   1.025   1.744  -1.455  0.2446  0.4155 -0.1399
   93SAPC  H16X 9068   1.071   1.657  -1.403  0.3990 -0.9258 -2.3804
   93SAPC  H16Y 9069   1.110   1.803  -1.494  0.3679 -0.1069 -0.6781
   93SAPC  C317 9070   0.938   1.689  -1.575 -0.1705  0.4336  0.8106
   93SAPC  H17X 9071   0.911   1.780  -1.633  2.8334  0.7139 -0.2886
   93SAPC  H17Y 9072   0.849   1.642  -1.528  0.0086 -0.3981  0.3367
   93SAPC  C318 9073   1.008   1.599  -1.674 -0.0400 -0.5045 -0.5212
   93SAPC  H18X 9074   0.939   1.552  -1.748 -1.9467  1.9438 -0.4382
   93SAPC  H18Y 9075   1.069   1.525  -1.618  0.1165  1.3272  1.9285
   93SAPC  H18Z 9076   1.074   1.663  -1.736 -0.8853 -0.8388 -1.8071
   94SAPC     N 9077   2.494   0.966   0.203  0.2998  0.4450 -0.3389
   94SAPC   C12 9078   2.498   1.003   0.349 -0.1670  0.3470 -0.5297
   94SAPC  H12A 9079   2.600   1.018   0.381 -0.2065 -0.6980  0.1302
   94SAPC  H12B 9080   2.464   0.923   0.413  2.2283 -0.1450  0.2223
   94SAPC   C13 9081   2.350   0.955   0.160  0.9424 -0.4683 -0.1411
   94SAPC  H13A 9082   2.290   0.888   0.219 -0.9608  0.0826 -1.3278
   94SAPC  H13B 9083   2.308   1.054   0.147  1.9725  0.0153  0.1104
   94SAPC  H13C 9084   2.349   0.918   0.058  1.6376 -0.1877 -0.2603
   94SAPC   C14 9085   2.572   1.066   0.120  0.4345 -0.0194 -0.5088
   94SAPC  H14A 9086   2.526   1.163   0.132  0.1832 -0.2674  0.6884
   94SAPC  H14B 9087   2.670   1.071   0.165  0.7010 -4.0661 -0.2605
   94SAPC  H14C 9088   2.576   1.044   0.014 -0.7306  2.4264 -1.1356
   94SAPC   C15 9089   2.566   0.836   0.196 -0.1182 -0.9376  1.0235
   94SAPC  H15A 9090   2.499   0.752   0.208 -2.7004  0.6401 -1.1054
   94SAPC  H15B 9091   2.627   0.819   0.108  0.7081  1.7464  0.9988
   94SAPC  H15C 9092   2.639   0.831   0.275  1.3294 -1.1841 -0.2801
   94SAPC   C11 9093   2.415   1.128   0.384  0.3963 -0.4169  0.4341
   94SAPC  H11A 9094   2.430   1.156   0.490 -1.0592  0.0878  0.5287
   94SAPC  H11B 9095   2.308   1.103   0.365  0.5154 -0.0388 -0.8213
   94SAPC     P 9096   2.352   1.350   0.264  0.2303 -0.0655 -0.2434
   94SAPC   O13 9097   2.275   1.395   0.385 -0.3804 -0.1292 -0.1898
   94SAPC   O14 9098   2.416   1.450   0.187 -0.1996 -0.2436 -0.3752
   94SAPC   O12 9099   2.463   1.247   0.311 -0.0421 -0.2156 -0.1357
   94SAPC   O11 9100   2.266   1.261   0.165  0.6508  0.4224 -0.6799
   94SAPC    C1 9101   2.160   1.324   0.094  0.0047 -0.0166 -0.3448
   94SAPC    HA 9102   2.073   1.254   0.095  0.5826 -0.8061 -1.8423
   94SAPC    HB 9103   2.117   1.416   0.138 -0.1704  0.4853 -1.5153
   94SAPC    C2 9104   2.193   1.346  -0.060 -0.1988 -0.3218  0.2788
   94SAPC    HS 9105   2.095   1.363  -0.109 -0.2878  0.3476  0.6710
   94SAPC   O21 9106   2.270   1.230  -0.108  0.1208  0.0142 -0.2105
   94SAPC   C21 9107   2.242   1.203  -0.228 -0.1991 -0.1039 -0.1695
   94SAPC   O22 9108   2.163   1.269  -0.300 -0.3166  0.0886  0.4682
   94SAPC   C22 9109   2.308   1.073  -0.264  0.0565  0.3120  0.3004
   94SAPC   H2R 9110   2.412   1.069  -0.227 -0.7418 -0.7597  2.7038
   94SAPC   H2S 9111   2.248   0.995  -0.212  1.4320 -1.1749 -0.2637
   94SAPC    C3 9112   2.283   1.464  -0.079 -0.2261 -0.2884 -0.2034
   94SAPC    HX 9113   2.389   1.434  -0.069  0.6323  1.9216 -2.0148
   94SAPC    HY 9114   2.260   1.536   0.002  0.2027  1.7758 -1.8455
   94SAPC   O31 9115   2.263   1.532  -0.203 -0.0994  0.0414  0.4687
   94SAPC   C31 9116   2.347   1.502  -0.305  0.6473  0.8325 -0.2429
   94SAPC   O32 9117   2.442   1.428  -0.291 -0.1382  0.1158  0.4902
   94SAPC   C32 9118   2.301   1.575  -0.427  0.1499 -0.5351 -0.4863
   94SAPC   H2X 9119   2.390   1.613  -0.481  1.4361 -0.3911  1.6125
   94SAPC   H2Y 9120   2.249   1.666  -0.390  1.4205 -0.2768  0.7608
   94SAPC   C23 9121   2.299   1.042  -0.413  0.5442 -0.2219  0.4089
   94SAPC   H3R 9122   2.195   1.060  -0.446 -0.3142  0.4693  3.1714
   94SAPC   H3S 9123   2.320   0.933  -0.426  1.2171  0.0227 -0.6507
   94SAPC   C24 9124   2.412   1.111  -0.498  0.4702 -0.1882 -0.2252
   94SAPC   H4R 9125   2.509   1.092  -0.448  0.0205  0.9227  1.1479
   94SAPC   H4S 9126   2.380   1.216  -0.480  0.0562 -0.2937 -0.3263
   94SAPC   C25 9127   2.413   1.070  -0.641  1.3215  0.0774  0.0706
   94SAPC   H5R 9128   2.359   0.977  -0.662 -0.1298  1.1273 -0.9771
   94SAPC   C26 9129   2.477   1.128  -0.736 -0.6706 -0.0845 -0.7297
   94SAPC   H6R 9130   2.464   1.090  -0.838 -1.9400  2.7692 -1.7408
   94SAPC   C27 9131   2.573   1.248  -0.719  0.2216  0.4583  0.1769
   94SAPC   H7R 9132   2.651   1.247  -0.798  0.2154  2.4519  0.0943
   94SAPC   H7S 9133   2.627   1.233  -0.623 -0.0265  2.8189  0.7481
   94SAPC   C28 9134   2.512   1.383  -0.717  0.2044 -0.3143 -0.0509
   94SAPC   H8R 9135   2.403   1.376  -0.705  0.3494 -1.3323  0.8748
   94SAPC   C29 9136   2.564   1.503  -0.745 -0.0350  0.5790  0.7122
   94SAPC   H9R 9137   2.500   1.592  -0.743 -1.0823 -0.1392  0.5848
   94SAPC  C210 9138   2.705   1.533  -0.780  0.2700 -0.2032 -0.6808
   94SAPC  H10R 9139   2.719   1.545  -0.890  2.7651  0.9269 -0.3062
   94SAPC  H10S 9140   2.774   1.448  -0.760 -0.2098 -0.2974  0.6418
   94SAPC  C211 9141   2.754   1.649  -0.703  0.7406 -0.6177  0.7883
   94SAPC  H11R 9142   2.757   1.619  -0.597 -1.7830  2.6939  1.9903
   94SAPC  C212 9143   2.787   1.773  -0.740  0.7041  0.7020  0.1434
   94SAPC  H12R 9144   2.813   1.840  -0.657 -0.4533 -0.2223  1.2820
   94SAPC  C213 9145   2.771   1.825  -0.883 -0.5503  0.1833 -0.3531
   94SAPC  H13R 9146   2.720   1.751  -0.947  2.8607 -1.7428 -1.0771
   94SAPC  H13S 9147   2.876   1.829  -0.921 -0.7160 -4.2987 -1.8310
   94SAPC  C214 9148   2.714   1.969  -0.897  0.1320 -0.1787 -0.3810
   94SAPC  H14R 9149   2.771   2.040  -0.835  0.3622 -0.3855 -0.3506
   94SAPC  C215 9150   2.618   2.011  -0.979  0.7602 -0.1266  0.0369
   94SAPC  H15R 9151   2.585   2.115  -0.975 -0.0661 -0.3334 -1.0949
   94SAPC  C216 9152   2.548   1.915  -1.071  0.6853 -0.3153  0.4267
   94SAPC  H16R 9153   2.506   1.832  -1.011  2.0581 -0.0182  1.8608
   94SAPC  H16S 9154   2.623   1.852  -1.124  1.1358  1.0319 -0.5978
   94SAPC  C217 9155   2.448   1.963  -1.172 -0.0279  0.2369 -0.2403
   94SAPC  H17R 9156   2.494   1.996  -1.267 -2.0994  1.6459 -0.8240
   94SAPC  H17S 9157   2.381   2.039  -1.126  0.0758  0.3522 -0.2792
   94SAPC  C218 9158   2.355   1.841  -1.211  0.4487  0.0897 -0.0780
   94SAPC  H18R 9159   2.298   1.820  -1.119  1.1421 -1.9317 -0.0609
   94SAPC  H18S 9160   2.435   1.766  -1.230  0.4946 -0.0962  0.7932
   94SAPC  C219 9161   2.266   1.855  -1.330 -0.3843 -0.2091  0.1164
   94SAPC  H19R 9162   2.321   1.875  -1.425  0.4145  1.6195  0.9151
   94SAPC  H19S 9163   2.201   1.945  -1.319  0.6926  0.6020  0.1060
   94SAPC  C220 9164   2.189   1.731  -1.359 -0.2419  0.0828 -0.1794
   94SAPC  H20R 9165   2.118   1.752  -1.442 -1.5234  3.0945  1.5232
   94SAPC  H20S 9166   2.125   1.725  -1.269 -0.6495  0.2647 -0.4544
   94SAPC  H20T 9167   2.258   1.644  -1.364  1.3199  0.9121  3.4594
   94SAPC   C33 9168   2.202   1.488  -0.512  0.3055 -0.0381  0.0485
   94SAPC   H3X 9169   2.104   1.484  -0.460 -0.8707  0.9160 -1.9443
   94SAPC   H3Y 9170   2.223   1.379  -0.520 -1.3236 -0.3393 -0.6682
   94SAPC   C34 9171   2.176   1.548  -0.653  0.1030  0.5932 -0.4174
   94SAPC   H4X 9172   2.269   1.559  -0.714  0.3256 -1.2063 -0.4640
   94SAPC   H4Y 9173   2.121   1.644  -0.651 -0.0368  0.5234  1.8662
   94SAPC   C35 9174   2.080   1.465  -0.743 -1.0812  0.0071  0.1035
   94SAPC   H5X 9175   1.984   1.464  -0.688 -0.3282  2.0909  1.6271
   94SAPC   H5Y 9176   2.128   1.365  -0.750 -0.5659  0.2529  0.0363
   94SAPC   C36 9177   2.065   1.525  -0.887 -0.7533 -0.2834 -0.1668
   94SAPC   H6X 9178   2.166   1.508  -0.928 -0.5995 -1.4433  0.6441
   94SAPC   H6Y 9179   2.053   1.636  -0.879 -0.1187 -0.2915  1.2014
   94SAPC   C37 9180   1.944   1.472  -0.970 -0.4134  0.3336 -0.6502
   94SAPC   H7X 9181   1.848   1.501  -0.923 -0.1425  0.3009 -0.0732
   94SAPC   H7Y 9182   1.944   1.361  -0.965 -0.4764  0.3394 -0.5167
   94SAPC   C38 9183   1.940   1.529  -1.114 -0.0833 -0.7368  0.4460
   94SAPC   H8X 9184   2.011   1.494  -1.192  1.8285  1.0796  1.3079
   94SAPC   H8Y 9185   1.950   1.639  -1.106 -1.0001 -0.7412  2.1872
   94SAPC   C39 9186   1.791   1.521  -1.174 -0.4277 -0.1836 -0.3216
   94SAPC   H9X 9187   1.726   1.580  -1.107  0.8584  0.8820  0.0334
   94SAPC   H9Y 9188   1.769   1.412  -1.164  1.1618 -0.5033 -0.0122
   94SAPC  C310 9189   1.774   1.561  -1.316  0.2772 -0.5242 -0.3400
   94SAPC  H10X 9190   1.838   1.651  -1.323 -0.6124  0.1898  0.4362
   94SAPC  H10Y 9191   1.669   1.594  -1.332  0.3151  0.3341  0.9816
   94SAPC  C311 9192   1.809   1.457  -1.427 -0.8063 -0.6844 -0.4888
   94SAPC  H11X 9193   1.735   1.376  -1.413  0.8904 -2.7054 -2.3951
   94SAPC  H11Y 9194   1.913   1.422  -1.411  0.0439  1.2009 -1.4973
   94SAPC  C312 9195   1.813   1.518  -1.562 -0.5023 -0.3050  0.4484
   94SAPC  H12X 9196   1.892   1.596  -1.554 -1.5832  0.7032  1.8597
   94SAPC  H12Y 9197   1.719   1.567  -1.597 -0.5131 -0.5068  0.1983
   94SAPC  C313 9198   1.857   1.409  -1.663  0.3370 -0.2053 -0.1458
   94SAPC  H13X 9199   1.937   1.351  -1.613 -2.6191 -2.8064  1.9665
   94SAPC  H13Y 9200   1.888   1.458  -1.758  0.0228 -1.5283 -0.9555
   94SAPC  C314 9201   1.738   1.327  -1.696  0.0536  0.5844  0.4448
   94SAPC  H14X 9202   1.650   1.393  -1.716 -0.0573  0.3631  0.2011
   94SAPC  H14Y 9203   1.702   1.254  -1.620 -0.6983 -2.0168 -2.2583
   94SAPC  C315 9204   1.769   1.233  -1.812 -0.6156 -0.0497 -0.1679
   94SAPC  H15X 9205   1.818   1.290  -1.893 -0.5443  1.5084  0.9345
   94SAPC  H15Y 9206   1.680   1.182  -1.855  0.6451 -1.6639 -1.0213
   94SAPC  C316 9207   1.863   1.112  -1.768 -0.1337 -0.4600 -0.0716
   94SAPC  H16X 9208   1.822   1.074  -1.672 -0.5675  1.5273  0.5884
   94SAPC  H16Y 9209   1.961   1.157  -1.743 -0.2243  0.1334 -0.7498
   94SAPC  C317 9210   1.878   1.005  -1.875 -0.2287 -0.6379 -0.0859
   94SAPC  H17X 9211   1.774   0.974  -1.899 -0.3002 -2.4803  2.2466
   94SAPC  H17Y 9212   1.919   0.917  -1.821  0.2457 -0.0530  0.5258
   94SAPC  C318 9213   1.968   1.052  -1.981  0.4498  0.1661  0.3072
   94SAPC  H18X 9214   1.913   1.132  -2.036 -0.7342 -2.0681 -1.9859
   94SAPC  H18Y 9215   1.969   0.974  -2.061  0.4303 -0.5818  1.0306
   94SAPC  H18Z 9216   2.070   1.090  -1.956  0.6289  2.4982 -3.1612
   95SAPC     N 9217   6.631   4.397   4.126 -0.0017 -0.0061  0.2344
   95SAPC   C12 9218   6.752   4.381   4.208  0.0238  0.5318  0.1239
   95SAPC  H12A 9219   6.752   4.276   4.232 -0.8287 -0.2078 -2.6406
   95SAPC  H12B 9220   6.740   4.426   4.305 -1.6750  0.3442  0.0260
   95SAPC   C13 9221   6.658   4.342   3.988 -0.0204  0.5196 -0.7936
   95SAPC  H13A 9222   6.691   4.239   3.990 -1.8026 -0.1704 -2.8800
   95SAPC  H13B 9223   6.567   4.345   3.929 -1.4144  0.0007  1.2375
   95SAPC  H13C 9224   6.733   4.400   3.938  2.2073 -0.3109  1.3813
   95SAPC   C14 9225   6.513   4.323   4.181  0.0911 -0.3665  0.1143
   95SAPC  H14A 9226   6.527   4.216   4.170  1.4733 -0.1416 -0.5799
   95SAPC  H14B 9227   6.495   4.349   4.284 -0.6086 -2.8119  0.6920
   95SAPC  H14C 9228   6.430   4.349   4.117  0.8163  1.7472 -0.0269
   95SAPC   C15 9229   6.589   4.538   4.118 -0.0442  0.1493 -0.5039
   95SAPC  H15A 9230   6.673   4.600   4.092 -0.0934  0.1045 -0.7763
   95SAPC  H15B 9231   6.504   4.551   4.052 -1.5874 -0.3081  1.3052
   95SAPC  H15C 9232   6.548   4.573   4.212 -1.7123  0.1415 -1.1822
   95SAPC   C11 9233   6.884   4.427   4.146 -0.1702  0.3648 -0.2118
   95SAPC  H11A 9234   6.890   4.535   4.119  0.5606  0.5832  0.7591
   95SAPC  H11B 9235   6.919   4.368   4.059 -1.0524 -0.8556  0.2459
   95SAPC     P 9236   7.115   4.350   4.251 -0.2351 -0.0428  0.7455
   95SAPC   O13 9237   7.110   4.210   4.199  0.5164  0.0740 -0.5722
   95SAPC   O14 9238   7.198   4.441   4.167  0.4004  0.0697  0.3187
   95SAPC   O12 9239   6.971   4.406   4.251  0.0711  0.2617  0.1162
   95SAPC   O11 9240   7.155   4.365   4.403 -0.4930 -0.2536  0.2598
   95SAPC    C1 9241   7.130   4.257   4.495  0.2019 -0.1088  0.4824
   95SAPC    HA 9242   7.099   4.159   4.452 -1.8255  0.6249  0.1432
   95SAPC    HB 9243   7.215   4.241   4.565  0.3164 -2.7842 -0.1337
   95SAPC    C2 9244   7.008   4.289   4.577  0.9916  0.5755  0.2428
   95SAPC    HS 9245   6.929   4.320   4.506  2.9247  1.6392 -1.5432
   95SAPC   O21 9246   7.046   4.390   4.672  0.1474  0.1699 -0.0962
   95SAPC   C21 9247   6.940   4.445   4.730 -0.7895  0.4635 -0.5105
   95SAPC   O22 9248   6.826   4.441   4.687 -0.0855 -0.7945  0.4605
   95SAPC   C22 9249   6.975   4.514   4.861 -0.2642 -0.2788 -0.0915
   95SAPC   H2R 9250   6.985   4.448   4.949 -0.0799  0.6992  0.6457
   95SAPC   H2S 9251   7.079   4.548   4.842  1.0374 -3.2653  1.1274
   95SAPC    C3 9252   6.951   4.158   4.645 -0.5027  0.1229  0.1997
   95SAPC    HX 9253   6.930   4.080   4.568 -0.8854 -1.3307  1.7258
   95SAPC    HY 9254   6.856   4.182   4.697 -1.4979 -0.4988 -1.2563
   95SAPC   O31 9255   7.049   4.098   4.731 -0.1398  0.0260  0.3506
   95SAPC   C31 9256   7.020   3.981   4.792 -0.0490 -0.0875  0.1002
   95SAPC   O32 9257   6.918   3.914   4.789 -0.2583  0.0130  0.0979
   95SAPC   C32 9258   7.147   3.947   4.875 -0.7301  0.2407  0.4755
   95SAPC   H2X 9259   7.215   3.878   4.821  1.5447  1.3850  1.7405
   95SAPC   H2Y 9260   7.111   3.880   4.955  0.1729  0.2328  0.8878
   95SAPC   C23 9261   6.873   4.620   4.912  0.2127  0.5897  0.2827
   95SAPC   H3R 9262   6.780   4.566   4.943  0.2759 -1.0003 -2.0385
   95SAPC   H3S 9263   6.845   4.678   4.822 -1.6102 -1.4802 -0.5929
   95SAPC   C24 9264   6.914   4.701   5.030 -0.0035 -0.4200 -0.2690
   95SAPC   H4R 9265   7.019   4.739   5.026 -0.8098  1.9164 -0.4951
   95SAPC   H4S 9266   6.901   4.653   5.129  0.6212  1.4503  0.7742
   95SAPC   C25 9267   6.823   4.826   5.032 -0.1962 -0.4243 -0.9380
   95SAPC   H5R 9268   6.809   4.874   4.934 -1.4604 -1.0776 -1.0976
   95SAPC   C26 9269   6.743   4.859   5.134 -0.3483 -0.1896 -0.0426
   95SAPC   H6R 9270   6.682   4.950   5.125 -1.0081 -0.4232  1.6979
   95SAPC   C27 9271   6.726   4.769   5.254 -0.1742 -0.3552  0.6917
   95SAPC   H7R 9272   6.679   4.826   5.337  0.6727  0.8361  0.3707
   95SAPC   H7S 9273   6.821   4.746   5.308 -0.5956 -0.9941  1.1809
   95SAPC   C28 9274   6.637   4.647   5.230 -0.1960  0.3247  0.5250
   95SAPC   H8R 9275   6.591   4.635   5.130 -1.8961  0.4556  1.2449
   95SAPC   C29 9276   6.610   4.561   5.334 -0.1114  0.0661 -0.5250
   95SAPC   H9R 9277   6.564   4.465   5.308 -1.7807  0.8311 -0.4972
   95SAPC  C210 9278   6.663   4.580   5.475 -0.4367 -0.4942 -0.1337
   95SAPC  H10R 9279   6.766   4.621   5.474 -0.6816  0.2228 -2.3768
   95SAPC  H10S 9280   6.678   4.481   5.523  3.0959  0.7989  1.8146
   95SAPC  C211 9281   6.581   4.659   5.572  0.1688  0.3936  0.1266
   95SAPC  H11R 9282   6.511   4.728   5.523 -0.7547 -2.4012 -2.8250
   95SAPC  C212 9283   6.578   4.633   5.706 -0.1096  0.3418  0.0036
   95SAPC  H12R 9284   6.520   4.704   5.768 -1.9377  0.0911 -1.3406
   95SAPC  C213 9285   6.648   4.538   5.787 -0.4976  0.1552 -1.1076
   95SAPC  H13R 9286   6.698   4.456   5.732  0.9442 -0.4616  1.0083
   95SAPC  H13S 9287   6.580   4.491   5.862  1.7123  0.8136  1.4899
   95SAPC  C214 9288   6.747   4.615   5.873 -0.0939 -0.8840 -0.0511
   95SAPC  H14R 9289   6.707   4.694   5.938 -0.1491 -0.6126 -0.4096
   95SAPC  C215 9290   6.881   4.607   5.862  0.5139  0.0148 -0.2334
   95SAPC  H15R 9291   6.952   4.670   5.918  1.0455  0.5551 -1.4792
   95SAPC  C216 9292   6.950   4.521   5.766 -0.2940  0.6137  0.6598
   95SAPC  H16R 9293   6.893   4.456   5.695  2.3792  0.8088 -1.8487
   95SAPC  H16S 9294   7.022   4.452   5.814  0.1581 -0.6215 -1.6681
   95SAPC  C217 9295   7.026   4.614   5.671 -0.4469  0.9352  0.6402
   95SAPC  H17R 9296   7.103   4.675   5.723 -0.2352 -0.0660  1.5352
   95SAPC  H17S 9297   6.953   4.678   5.617 -0.4650  0.3256 -0.0628
   95SAPC  C218 9298   7.096   4.552   5.547 -0.0442  0.6882 -0.1247
   95SAPC  H18R 9299   7.020   4.501   5.484  2.7731  1.2267 -4.3490
   95SAPC  H18S 9300   7.172   4.480   5.584 -1.3916  1.0209  3.6782
   95SAPC  C219 9301   7.153   4.654   5.450 -0.6884  0.2032  0.1878
   95SAPC  H19R 9302   7.243   4.701   5.495 -1.0111  1.4092 -0.3829
   95SAPC  H19S 9303   7.075   4.732   5.437 -0.8342 -0.0420 -0.4244
   95SAPC  C220 9304   7.183   4.602   5.312 -0.1068 -0.4338 -0.1511
   95SAPC  H20R 9305   7.215   4.682   5.241 -0.6002  0.0898  0.2034
   95SAPC  H20S 9306   7.086   4.562   5.277 -0.9423  1.6085 -0.3269
   95SAPC  H20T 9307   7.258   4.522   5.325  0.6896  0.2594 -0.3732
   95SAPC   C33 9308   7.227   4.069   4.929  0.4907  0.1589 -0.3841
   95SAPC   H3X 9309   7.248   4.148   4.853 -0.0709  0.6996  0.0204
   95SAPC   H3Y 9310   7.313   4.030   4.987 -2.2418 -3.1520  1.8714
   95SAPC   C34 9311   7.146   4.153   5.039 -0.4518 -0.7371 -0.3753
   95SAPC   H4X 9312   7.117   4.079   5.117  0.1162 -2.1875 -1.4977
   95SAPC   H4Y 9313   7.060   4.197   4.983  0.7788  0.4352 -1.4117
   95SAPC   C35 9314   7.220   4.261   5.114  0.9360 -0.0633 -0.3461
   95SAPC   H5X 9315   7.149   4.334   5.158  0.0306 -1.6676  0.9800
   95SAPC   H5Y 9316   7.281   4.319   5.042  0.6527  1.3970  0.5484
   95SAPC   C36 9317   7.329   4.209   5.221 -0.0644 -0.2822 -0.0975
   95SAPC   H6X 9318   7.423   4.268   5.228  0.7741 -1.5329 -0.4338
   95SAPC   H6Y 9319   7.369   4.114   5.179 -2.3954 -0.6740 -1.6608
   95SAPC   C37 9320   7.270   4.183   5.360  0.3682 -0.4507  0.2609
   95SAPC   H7X 9321   7.186   4.113   5.341  1.6687 -1.7877 -0.7486
   95SAPC   H7Y 9322   7.233   4.282   5.395 -2.9759 -0.4288 -2.7769
   95SAPC   C38 9323   7.376   4.138   5.465  0.3251  0.0841  0.3422
   95SAPC   H8X 9324   7.442   4.056   5.429  0.8554  0.1696  1.1137
   95SAPC   H8Y 9325   7.327   4.108   5.561  1.6422  2.0660  1.6912
   95SAPC   C39 9326   7.477   4.248   5.514  0.3436 -0.1698 -0.3634
   95SAPC   H9X 9327   7.425   4.331   5.565 -1.0994 -0.9771 -0.4889
   95SAPC   H9Y 9328   7.530   4.298   5.430  0.5736 -0.3526 -0.3274
   95SAPC  C310 9329   7.589   4.202   5.604 -0.2031 -0.3973 -0.7517
   95SAPC  H10X 9330   7.669   4.280   5.604 -1.7029  1.2762  1.4473
   95SAPC  H10Y 9331   7.641   4.108   5.575 -1.9420 -1.8004  0.4805
   95SAPC  C311 9332   7.534   4.184   5.744  0.2002  0.2084  0.7332
   95SAPC  H11X 9333   7.450   4.112   5.751  0.9244 -1.0592 -2.1926
   95SAPC  H11Y 9334   7.494   4.281   5.783  0.4842 -0.4646  2.8102
   95SAPC  C312 9335   7.633   4.124   5.845 -0.5758  0.2731  0.1345
   95SAPC  H12X 9336   7.723   4.185   5.864  1.2865 -1.4996 -2.3076
   95SAPC  H12Y 9337   7.679   4.038   5.792  2.2134  1.0879  1.0997
   95SAPC  C313 9338   7.567   4.104   5.978 -0.9842 -0.2689 -0.3370
   95SAPC  H13X 9339   7.477   4.040   5.968  0.8923 -3.6009  1.9711
   95SAPC  H13Y 9340   7.535   4.200   6.024 -0.2673 -0.2618  0.1693
   95SAPC  C314 9341   7.657   4.032   6.087  1.1045  0.0399  0.5040
   95SAPC  H14X 9342   7.744   4.100   6.101  3.0194 -1.0079 -4.2468
   95SAPC  H14Y 9343   7.702   3.942   6.038  1.3349  0.9140 -0.9466
   95SAPC  C315 9344   7.589   3.999   6.220 -0.0172  0.4433  0.1547
   95SAPC  H15X 9345   7.527   3.907   6.220  0.6837 -0.0949  2.8696
   95SAPC  H15Y 9346   7.507   4.072   6.241 -0.2678  0.2161 -0.0205
   95SAPC  C316 9347   7.681   4.004   6.345  0.0712  0.0044  0.1746
   95SAPC  H16X 9348   7.618   4.019   6.435  2.9946 -0.0637  2.3743
   95SAPC  H16Y 9349   7.745   4.095   6.338  0.5554 -0.1309  2.3777
   95SAPC  C317 9350   7.765   3.873   6.350  0.2741  0.2071  0.2369
   95SAPC  H17X 9351   7.842   3.859   6.271  0.0875 -1.7019  0.3267
   95SAPC  H17Y 9352   7.699   3.786   6.329 -0.7994  1.2374 -0.7163
   95SAPC  C318 9353   7.816   3.841   6.486  0.1039  0.3829 -0.5923
   95SAPC  H18X 9354   7.758   3.889   6.567  0.2831  0.9381 -0.7935
   95SAPC  H18Y 9355   7.916   3.888   6.499  0.1870 -0.1393  0.9336
   95SAPC  H18Z 9356   7.820   3.731   6.501 -2.1309 -0.2095 -3.5491
   96SAPC     N 9357   6.409   4.965   4.327  0.2129 -0.2100 -0.5606
   96SAPC   C12 9358   6.411   5.095   4.405  0.8091 -0.3098  0.4757
   96SAPC  H12A 9359   6.321   5.149   4.382  0.9170 -0.0493  0.6517
   96SAPC  H12B 9360   6.493   5.156   4.369 -0.7848  2.8773  1.8066
   96SAPC   C13 9361   6.303   4.868   4.369 -0.4262 -0.3737 -0.1464
   96SAPC  H13A 9362   6.208   4.919   4.369  0.5730  1.5761  0.4009
   96SAPC  H13B 9363   6.299   4.782   4.304  0.7797 -1.6210  1.3480
   96SAPC  H13C 9364   6.311   4.838   4.473  0.9116  2.4381  0.6746
   96SAPC   C14 9365   6.401   5.012   4.183  0.4161 -0.1692 -0.3713
   96SAPC  H14A 9366   6.313   5.074   4.173  1.0917  1.4411  2.6400
   96SAPC  H14B 9367   6.488   5.073   4.166  1.3096 -1.1588  0.4491
   96SAPC  H14C 9368   6.391   4.932   4.110 -0.5424 -0.9277  0.5576
   96SAPC   C15 9369   6.539   4.894   4.351 -0.2454 -0.0468  0.8229
   96SAPC  H15A 9370   6.620   4.953   4.313  0.7470 -0.3496  2.3733
   96SAPC  H15B 9371   6.571   4.874   4.452  2.1545 -0.6098  0.0188
   96SAPC  H15C 9372   6.536   4.803   4.294 -3.7196 -0.2872  1.1392
   96SAPC   C11 9373   6.417   5.075   4.556 -0.4089 -0.1445 -0.5250
   96SAPC  H11A 9374   6.326   5.020   4.588 -0.0227 -1.0981 -1.0023
   96SAPC  H11B 9375   6.411   5.174   4.606 -0.2677  0.9250 -2.5511
   96SAPC     P 9376   6.586   4.950   4.733  0.8711  0.3342  0.4869
   96SAPC   O13 9377   6.478   4.857   4.780 -0.4795  0.1254 -0.6829
   96SAPC   O14 9378   6.724   4.902   4.708 -0.3470 -0.3899  0.2345
   96SAPC   O12 9379   6.541   5.009   4.592  0.2239  0.4012 -0.6269
   96SAPC   O11 9380   6.592   5.075   4.827  0.2716  0.5742 -0.2199
   96SAPC    C1 9381   6.647   5.203   4.788 -0.1136 -0.8704  0.3343
   96SAPC    HA 9382   6.753   5.194   4.821  0.1536  0.7796  0.0262
   96SAPC    HB 9383   6.646   5.208   4.677 -0.7948 -3.2329  0.1862
   96SAPC    C2 9384   6.571   5.324   4.858 -0.1598  0.2269 -0.2475
   96SAPC    HS 9385   6.620   5.421   4.838 -0.2607  0.2734 -0.2696
   96SAPC   O21 9386   6.564   5.306   4.999  0.6513  0.1856 -0.0587
   96SAPC   C21 9387   6.678   5.310   5.065  0.8645  0.6131 -0.4204
   96SAPC   O22 9388   6.784   5.352   5.017  0.4616 -0.1626  0.0870
   96SAPC   C22 9389   6.655   5.252   5.199  0.2223  0.2349 -0.1596
   96SAPC   H2R 9390   6.582   5.321   5.246  1.8978  3.3276 -1.7835
   96SAPC   H2S 9391   6.615   5.149   5.188 -1.5791  0.8598  0.1761
   96SAPC    C3 9392   6.424   5.352   4.806  0.2392 -0.3366 -0.7097
   96SAPC    HX 9393   6.371   5.254   4.806 -1.4148  0.5115 -0.7910
   96SAPC    HY 9394   6.438   5.382   4.700 -0.8766  1.8613 -0.2816
   96SAPC   O31 9395   6.347   5.444   4.882  0.4225  0.0712 -0.5014
   96SAPC   C31 9396   6.365   5.577   4.858  0.0561  0.1990  0.4279
   96SAPC   O32 9397   6.457   5.614   4.788 -0.0023  0.2335 -0.0698
   96SAPC   C32 9398   6.263   5.662   4.929  0.2875 -0.2690  0.1440
   96SAPC   H2X 9399   6.170   5.670   4.869 -0.2644 -0.3198  0.9834
   96SAPC   H2Y 9400   6.294   5.767   4.949 -1.0992  0.0408  0.7426
   96SAPC   C23 9401   6.789   5.245   5.284  0.4398 -0.0191  0.8108
   96SAPC   H3R 9402   6.819   5.344   5.324 -2.2166 -0.0870  3.2554
   96SAPC   H3S 9403   6.871   5.201   5.223  2.3452  1.6737  1.9880
   96SAPC   C24 9404   6.760   5.152   5.402 -0.4279  0.1079 -0.0349
   96SAPC   H4R 9405   6.853   5.137   5.462 -1.9036 -2.3623  1.8287
   96SAPC   H4S 9406   6.737   5.051   5.361 -1.6154  0.7859 -1.0755
   96SAPC   C25 9407   6.638   5.190   5.485  0.0058  0.4979  0.2656
   96SAPC   H5R 9408   6.546   5.166   5.430  1.3420 -0.7599 -1.5529
   96SAPC   C26 9409   6.638   5.233   5.612 -0.2671  0.6182  0.6304
   96SAPC   H6R 9410   6.544   5.240   5.669 -1.5753 -0.3657 -1.3217
   96SAPC   C27 9411   6.758   5.263   5.699 -0.0375  0.3913  0.0449
   96SAPC   H7R 9412   6.810   5.349   5.652 -0.8951 -0.5600 -2.8111
   96SAPC   H7S 9413   6.820   5.174   5.726 -0.7532  0.3727  1.7728
   96SAPC   C28 9414   6.711   5.313   5.835 -1.1311  0.0797 -0.1519
   96SAPC   H8R 9415   6.750   5.410   5.871 -1.4440 -0.2871  1.2227
   96SAPC   C29 9416   6.646   5.237   5.930  0.0417  0.0407  0.7290
   96SAPC   H9R 9417   6.630   5.278   6.031 -2.2220 -1.5608  1.0972
   96SAPC  C210 9418   6.608   5.095   5.920  0.2808 -0.3036 -0.3263
   96SAPC  H10R 9419   6.597   5.062   5.814 -1.6868  0.4940 -0.4138
   96SAPC  H10S 9420   6.501   5.080   5.947  0.4883 -0.2611  0.5399
   96SAPC  C211 9421   6.702   5.017   6.004  0.9892 -0.1834 -0.9468
   96SAPC  H11R 9422   6.807   5.048   6.013  0.5010  1.0349  1.4959
   96SAPC  C212 9423   6.660   4.941   6.108 -0.0391  0.0024 -0.2152
   96SAPC  H12R 9424   6.737   4.899   6.174 -0.0804 -0.8870 -0.7182
   96SAPC  C213 9425   6.531   4.882   6.152  0.5331 -0.0071  0.0624
   96SAPC  H13R 9426   6.460   4.864   6.068  0.6126  0.6080 -0.1439
   96SAPC  H13S 9427   6.480   4.946   6.227 -0.6400 -1.5398  0.6297
   96SAPC  C214 9428   6.552   4.746   6.204 -0.1176 -0.3677 -0.7007
   96SAPC  H14R 9429   6.563   4.668   6.128 -0.1803 -1.3161  0.2372
   96SAPC  C215 9430   6.535   4.710   6.334 -0.5075 -0.2047  0.4108
   96SAPC  H15R 9431   6.544   4.605   6.367 -0.5154 -0.0580  0.8878
   96SAPC  C216 9432   6.521   4.806   6.442  0.3321 -0.6699  0.3849
   96SAPC  H16R 9433   6.430   4.868   6.425 -0.5876 -2.1126 -0.1329
   96SAPC  H16S 9434   6.613   4.869   6.450 -0.4561  0.5435  0.1788
   96SAPC  C217 9435   6.498   4.726   6.571  0.3645 -0.3572 -0.0678
   96SAPC  H17R 9436   6.508   4.788   6.663  3.3480  0.8498 -1.0813
   96SAPC  H17S 9437   6.570   4.642   6.579  0.3718 -0.3883 -0.4684
   96SAPC  C218 9438   6.357   4.656   6.586 -0.1460 -0.2258 -0.6423
   96SAPC  H18R 9439   6.329   4.601   6.493  0.7588 -2.0835  0.1396
   96SAPC  H18S 9440   6.284   4.740   6.581  0.9319  0.6568 -2.5099
   96SAPC  C219 9441   6.360   4.561   6.704  0.6101  0.1599  0.7162
   96SAPC  H19R 9442   6.254   4.529   6.694  0.1901  2.2177 -4.1064
   96SAPC  H19S 9443   6.368   4.615   6.801 -0.7957  0.6681  0.5772
   96SAPC  C220 9444   6.451   4.437   6.687  0.2937 -0.4561 -0.0153
   96SAPC  H20R 9445   6.417   4.349   6.746  1.1786  0.3415  1.7210
   96SAPC  H20S 9446   6.551   4.458   6.729 -0.3038 -2.9341  3.0419
   96SAPC  H20T 9447   6.448   4.419   6.577 -2.2110 -0.0651 -0.0670
   96SAPC   C33 9448   6.212   5.596   5.056  0.5992 -0.7393 -0.2573
   96SAPC   H3X 9449   6.295   5.557   5.118  0.2421 -2.0655 -0.5817
   96SAPC   H3Y 9450   6.138   5.514   5.041  1.5926 -1.4350 -1.4966
   96SAPC   C34 9451   6.138   5.698   5.138 -0.1736  0.3506 -0.7239
   96SAPC   H4X 9452   6.046   5.733   5.086  1.4981  2.1689 -2.6507
   96SAPC   H4Y 9453   6.199   5.784   5.175 -0.1475 -0.4029  1.1002
   96SAPC   C35 9454   6.091   5.640   5.276 -0.4570  0.2987 -0.4893
   96SAPC   H5X 9455   6.075   5.530   5.285  2.0581 -0.1067 -0.1091
   96SAPC   H5Y 9456   5.991   5.689   5.283 -0.0822  1.0405 -0.1689
   96SAPC   C36 9457   6.185   5.678   5.399  0.2801  0.1515 -0.3311
   96SAPC   H6X 9458   6.172   5.788   5.403  1.0564  0.2589 -0.6286
   96SAPC   H6Y 9459   6.288   5.653   5.367  0.4261 -1.6600  1.3764
   96SAPC   C37 9460   6.149   5.611   5.532 -0.9902  0.3985 -0.5506
   96SAPC   H7X 9461   6.201   5.671   5.609 -0.7114 -0.6094  0.0661
   96SAPC   H7Y 9462   6.183   5.505   5.540 -2.7065 -0.2138 -0.8187
   96SAPC   C38 9463   6.001   5.623   5.563  0.0077 -0.1745 -0.3129
   96SAPC   H8X 9464   5.949   5.544   5.504  1.0204 -0.7925 -0.4083
   96SAPC   H8Y 9465   5.960   5.721   5.531 -2.2137 -0.8461  0.2658
   96SAPC   C39 9466   5.974   5.623   5.712 -0.5521 -0.1221  0.0271
   96SAPC   H9X 9467   5.865   5.619   5.734 -0.3011 -0.7069  1.2685
   96SAPC   H9Y 9468   6.022   5.712   5.760 -1.2086  1.0727 -1.4535
   96SAPC  C310 9469   6.046   5.509   5.788  0.0599  0.1250  0.7906
   96SAPC  H10X 9470   6.152   5.498   5.756 -0.6839  0.5228 -2.1082
   96SAPC  H10Y 9471   5.995   5.418   5.751  0.5852 -1.2671  3.2861
   96SAPC  C311 9472   6.043   5.515   5.948 -0.4054  0.4302  0.1850
   96SAPC  H11X 9473   6.079   5.614   5.982  0.4105 -0.0962  0.9010
   96SAPC  H11Y 9474   6.116   5.433   5.966 -1.9641 -0.5871  2.4026
   96SAPC  C312 9475   5.911   5.494   6.020  0.4599 -0.1378  0.1019
   96SAPC  H12X 9476   5.852   5.408   5.982  0.6533  0.0760 -0.7099
   96SAPC  H12Y 9477   5.842   5.579   6.000  0.3607 -0.3029 -0.2694
   96SAPC  C313 9478   5.922   5.467   6.172 -0.7404  0.1352 -0.1973
   96SAPC  H13X 9479   5.820   5.431   6.194 -1.1768 -0.8497 -3.3289
   96SAPC  H13Y 9480   5.941   5.566   6.219  2.1319 -0.2193 -0.4268
   96SAPC  C314 9481   6.030   5.359   6.198  0.7714  0.0513  0.0742
   96SAPC  H14X 9482   6.125   5.410   6.170  1.3816 -1.1767 -0.1306
   96SAPC  H14Y 9483   6.013   5.271   6.133 -0.9971  1.2708 -1.2173
   96SAPC  C315 9484   6.051   5.312   6.344 -0.1761  0.5579 -0.1290
   96SAPC  H15X 9485   5.960   5.254   6.371  0.9465 -1.1613  0.1818
   96SAPC  H15Y 9486   6.065   5.394   6.418  2.6378 -1.1534  1.4257
   96SAPC  C316 9487   6.164   5.205   6.372  1.0462 -0.4246  0.0625
   96SAPC  H16X 9488   6.265   5.244   6.344 -0.7259  2.1954 -3.4054
   96SAPC  H16Y 9489   6.140   5.119   6.306  1.6102 -0.5144 -0.0367
   96SAPC  C317 9490   6.158   5.159   6.518  0.5603 -0.5934 -0.7089
   96SAPC  H17X 9491   6.057   5.115   6.533  0.3573 -0.0202 -0.3853
   96SAPC  H17Y 9492   6.157   5.251   6.580  1.8375  1.0021 -2.9005
   96SAPC  C318 9493   6.270   5.072   6.557 -0.3318 -0.3643  0.0542
   96SAPC  H18X 9494   6.371   5.120   6.558  0.0495 -1.0919 -1.3904
   96SAPC  H18Y 9495   6.285   4.980   6.498 -0.7751 -0.2832 -0.1902
   96SAPC  H18Z 9496   6.259   5.040   6.663 -0.3288 -0.9295 -0.1147
   97SAPC     N 9497   6.051   3.173   4.600 -0.2416 -0.5897 -0.8472
   97SAPC   C12 9498   6.077   3.304   4.675  0.0924 -0.2335  0.2735
   97SAPC  H12A 9499   6.006   3.307   4.755 -2.4200 -1.8120 -1.7325
   97SAPC  H12B 9500   6.057   3.384   4.606 -2.3619 -2.1420 -1.4065
   97SAPC   C13 9501   6.044   3.059   4.695  0.1928  0.1286  0.1585
   97SAPC  H13A 9502   6.009   2.969   4.646 -1.3215  2.0550 -2.6134
   97SAPC  H13B 9503   6.135   3.029   4.745 -1.2372 -0.5553  2.5157
   97SAPC  H13C 9504   5.981   3.089   4.777  0.3546  0.8837  0.0158
   97SAPC   C14 9505   5.918   3.176   4.536 -0.4063 -0.3937 -0.7058
   97SAPC  H14A 9506   5.841   3.211   4.604  1.2250 -3.0399  2.8306
   97SAPC  H14B 9507   5.920   3.248   4.455  2.8794 -0.6140 -0.9324
   97SAPC  H14C 9508   5.887   3.082   4.493 -0.6228 -0.0759 -1.2588
   97SAPC   C15 9509   6.153   3.147   4.492 -0.1740 -0.0277 -0.1291
   97SAPC  H15A 9510   6.145   3.044   4.461  0.5453 -0.0221 -0.3554
   97SAPC  H15B 9511   6.123   3.197   4.402  2.1419 -3.1919 -2.9082
   97SAPC  H15C 9512   6.251   3.173   4.530 -0.9117  1.4020  0.8587
   97SAPC   C11 9513   6.219   3.320   4.728 -1.3538 -0.0448 -0.5053
   97SAPC  H11A 9514   6.306   3.289   4.665 -1.0360 -3.5307  1.3944
   97SAPC  H11B 9515   6.216   3.255   4.818 -0.8888  0.9146  0.2157
   97SAPC     P 9516   6.252   3.566   4.651 -0.0866  0.1069  0.2538
   97SAPC   O13 9517   6.355   3.520   4.556  0.4639 -0.0247  0.2615
   97SAPC   O14 9518   6.119   3.589   4.595  0.2661 -0.3908  0.1083
   97SAPC   O12 9519   6.234   3.455   4.766  0.0646 -0.3783 -0.1112
   97SAPC   O11 9520   6.301   3.692   4.726 -0.2689  0.1566 -0.4532
   97SAPC    C1 9521   6.217   3.750   4.832 -0.6733  0.3785 -0.0352
   97SAPC    HA 9522   6.128   3.802   4.790 -0.1466 -0.0505 -1.7689
   97SAPC    HB 9523   6.176   3.663   4.889  0.3406 -0.5216 -0.6493
   97SAPC    C2 9524   6.297   3.827   4.929 -1.0505 -0.2713 -0.0574
   97SAPC    HS 9525   6.345   3.904   4.864  0.4080 -1.9151 -1.0167
   97SAPC   O21 9526   6.400   3.748   4.984  0.2097 -0.3628  0.5279
   97SAPC   C21 9527   6.518   3.815   5.009  0.0258 -0.0894  0.3683
   97SAPC   O22 9528   6.546   3.922   4.958  0.3549 -1.0406  0.1173
   97SAPC   C22 9529   6.608   3.731   5.092 -0.9759 -0.2582 -0.0385
   97SAPC   H2R 9530   6.581   3.745   5.198  1.2208 -1.2443  0.6942
   97SAPC   H2S 9531   6.605   3.623   5.065 -0.4325 -0.9587  2.5143
   97SAPC    C3 9532   6.210   3.895   5.041  0.2838 -0.5134 -0.2690
   97SAPC    HX 9533   6.135   3.823   5.079 -0.2875  1.8613  3.6255
   97SAPC    HY 9534   6.154   3.974   4.987  0.9619 -0.9918 -1.7140
   97SAPC   O31 9535   6.289   3.954   5.146 -0.5416  0.6228 -0.0131
   97SAPC   C31 9536   6.292   3.875   5.257 -0.2593  1.1023  0.0578
   97SAPC   O32 9537   6.231   3.770   5.277 -0.2376 -0.1522 -0.5768
   97SAPC   C32 9538   6.379   3.934   5.358  0.0461 -0.0109  0.4315
   97SAPC   H2X 9539   6.320   4.017   5.404  0.4857  0.8783 -0.5724
   97SAPC   H2Y 9540   6.472   3.983   5.323  1.4264 -0.7333  2.8433
   97SAPC   C23 9541   6.755   3.788   5.094  0.4307 -0.2107 -0.8124
   97SAPC   H3R 9542   6.754   3.895   5.122 -0.5206 -0.1797 -0.9454
   97SAPC   H3S 9543   6.802   3.783   4.993  0.4172  2.4647 -1.0031
   97SAPC   C24 9544   6.834   3.715   5.198 -0.3352  0.2204 -0.0472
   97SAPC   H4R 9545   6.786   3.705   5.298  2.0412 -0.7944  1.0734
   97SAPC   H4S 9546   6.917   3.786   5.216 -1.9189  2.2665 -0.4930
   97SAPC   C25 9547   6.879   3.580   5.148 -0.0881 -0.7000 -0.3139
   97SAPC   H5R 9548   6.938   3.592   5.056 -0.7995 -0.2654 -0.7211
   97SAPC   C26 9549   6.864   3.459   5.203 -0.1946  0.2262 -0.8055
   97SAPC   H6R 9550   6.901   3.374   5.144  0.1363  0.6027 -1.1565
   97SAPC   C27 9551   6.794   3.419   5.328  0.2026 -0.5421 -0.0833
   97SAPC   H7R 9552   6.831   3.487   5.407  0.4563 -1.6443  0.7839
   97SAPC   H7S 9553   6.807   3.310   5.350 -1.2404 -0.8058 -0.4052
   97SAPC   C28 9554   6.641   3.429   5.318 -0.5209 -0.1250 -0.0310
   97SAPC   H8R 9555   6.603   3.471   5.224  1.5916  1.8328 -0.1025
   97SAPC   C29 9556   6.544   3.405   5.402  1.0092  0.5509  0.2598
   97SAPC   H9R 9557   6.441   3.411   5.364  0.1845 -0.1021  2.2701
   97SAPC  C210 9558   6.565   3.372   5.540 -0.0022 -0.3080 -0.6567
   97SAPC  H10R 9559   6.523   3.457   5.596  1.6749  1.0669 -1.3896
   97SAPC  H10S 9560   6.673   3.354   5.562 -0.3567 -1.7234  0.0751
   97SAPC  C211 9561   6.501   3.241   5.574 -0.4097 -0.1088  0.2050
   97SAPC  H11R 9562   6.459   3.185   5.489 -0.1837  1.2109 -0.8211
   97SAPC  C212 9563   6.488   3.181   5.696  0.7206  0.0607  0.4042
   97SAPC  H12R 9564   6.418   3.097   5.707  0.5402  0.3090  1.2312
   97SAPC  C213 9565   6.527   3.243   5.822 -0.7470  0.3750 -0.5127
   97SAPC  H13R 9566   6.602   3.325   5.812  1.2085 -1.3285 -0.4393
   97SAPC  H13S 9567   6.585   3.162   5.871 -0.6598  0.0137 -1.1929
   97SAPC  C214 9568   6.414   3.278   5.918 -0.3034  0.4753  0.3856
   97SAPC  H14R 9569   6.321   3.291   5.862  0.2204  0.8682 -0.4137
   97SAPC  C215 9570   6.413   3.294   6.053  0.5200  0.2404 -0.3284
   97SAPC  H15R 9571   6.317   3.314   6.102  0.8456  1.1289 -0.0286
   97SAPC  C216 9572   6.532   3.268   6.141  0.0361 -0.1568  0.5206
   97SAPC  H16R 9573   6.626   3.259   6.082  0.6942 -2.1271  1.7873
   97SAPC  H16S 9574   6.518   3.173   6.197 -0.1257  0.5750  1.7594
   97SAPC  C217 9575   6.571   3.374   6.249 -0.6769  1.0581  0.0088
   97SAPC  H17R 9576   6.616   3.460   6.196  1.1891  2.3211  3.3370
   97SAPC  H17S 9577   6.651   3.307   6.289 -1.2434 -1.1498 -2.3281
   97SAPC  C218 9578   6.465   3.412   6.351 -0.3877 -0.6775  0.3300
   97SAPC  H18R 9579   6.423   3.315   6.384  3.0923 -2.5931 -0.3065
   97SAPC  H18S 9580   6.397   3.470   6.285  1.7330  0.5246 -0.9253
   97SAPC  C219 9581   6.513   3.503   6.466 -0.5568 -0.7622  0.2164
   97SAPC  H19R 9582   6.560   3.590   6.416  0.3457 -0.7712  1.0118
   97SAPC  H19S 9583   6.598   3.449   6.514 -0.6743  0.6060  2.0825
   97SAPC  C220 9584   6.394   3.542   6.554 -0.2850  0.2656  0.0616
   97SAPC  H20R 9585   6.337   3.457   6.597 -0.9622  0.7753  0.1977
   97SAPC  H20S 9586   6.325   3.608   6.497 -0.6016  1.0958  1.3662
   97SAPC  H20T 9587   6.438   3.609   6.631  2.7822 -0.0885 -1.2617
   97SAPC   C33 9588   6.433   3.826   5.460 -0.7427 -0.3992  0.1961
   97SAPC   H3X 9589   6.492   3.753   5.401  0.2938  2.0375 -2.0095
   97SAPC   H3Y 9590   6.350   3.782   5.518 -0.0616  0.3260  1.7890
   97SAPC   C34 9591   6.532   3.901   5.557  0.6505 -0.4114  0.3605
   97SAPC   H4X 9592   6.488   3.976   5.626 -0.3742  0.0855 -0.7974
   97SAPC   H4Y 9593   6.603   3.958   5.493  0.9686  1.3168  2.1795
   97SAPC   C35 9594   6.613   3.805   5.648 -0.3729 -0.0807 -0.3004
   97SAPC   H5X 9595   6.694   3.859   5.702  0.5065  0.3518 -1.9723
   97SAPC   H5Y 9596   6.661   3.734   5.576 -1.9361 -0.0165 -1.4584
   97SAPC   C36 9597   6.531   3.715   5.732  0.6514 -0.0780  0.5076
   97SAPC   H6X 9598   6.587   3.621   5.751 -0.9811 -0.6499  2.9577
   97SAPC   H6Y 9599   6.442   3.677   5.678  0.8641  0.7636 -0.4729
   97SAPC   C37 9600   6.479   3.782   5.859 -0.3430 -0.2718  0.0539
   97SAPC   H7X 9601   6.424   3.877   5.843  0.8100  0.2716 -0.8819
   97SAPC   H7Y 9602   6.566   3.829   5.909  1.5700 -1.4125 -1.9827
   97SAPC   C38 9603   6.414   3.683   5.959  0.7806  1.0353 -0.4843
   97SAPC   H8X 9604   6.493   3.639   6.023 -0.2903 -1.0528 -0.4855
   97SAPC   H8Y 9605   6.360   3.595   5.917  1.2782  0.0093  0.9277
   97SAPC   C39 9606   6.316   3.749   6.058 -0.8576 -0.0109  0.8940
   97SAPC   H9X 9607   6.277   3.678   6.133 -1.9639  0.7073  1.0212
   97SAPC   H9Y 9608   6.234   3.786   5.992  2.0352 -0.6388 -3.4815
   97SAPC  C310 9609   6.369   3.870   6.128 -0.0454 -0.3346 -0.1370
   97SAPC  H10X 9610   6.281   3.904   6.187  0.0986 -1.3558  0.6927
   97SAPC  H10Y 9611   6.386   3.944   6.048 -1.1022  0.0517 -0.0157
   97SAPC  C311 9612   6.487   3.848   6.216  0.0887 -0.3470  0.1228
   97SAPC  H11X 9613   6.570   3.805   6.156  0.0049 -1.2352  0.6227
   97SAPC  H11Y 9614   6.448   3.773   6.288 -0.1790 -1.2559 -0.9451
   97SAPC  C312 9615   6.543   3.972   6.289 -0.2221  0.0055  0.9403
   97SAPC  H12X 9616   6.612   3.935   6.368 -1.4906 -1.6290  1.3389
   97SAPC  H12Y 9617   6.458   4.034   6.325  1.4506  2.3437  1.0686
   97SAPC  C313 9618   6.627   4.063   6.200  0.5817  0.5648  0.2102
   97SAPC  H13X 9619   6.577   4.074   6.102 -0.3967  0.5107  0.6922
   97SAPC  H13Y 9620   6.727   4.014   6.200  0.7752  0.9309 -0.9442
   97SAPC  C314 9621   6.654   4.198   6.271  0.3288 -0.1033  0.3698
   97SAPC  H14X 9622   6.691   4.178   6.374 -0.2089  0.6628  0.7273
   97SAPC  H14Y 9623   6.562   4.261   6.272  2.6025  3.4723  0.6516
   97SAPC  C315 9624   6.761   4.278   6.201 -0.8289 -0.1460  0.3306
   97SAPC  H15X 9625   6.736   4.271   6.093 -1.4089  0.3812  0.4225
   97SAPC  H15Y 9626   6.854   4.222   6.220 -0.3564  0.3508 -0.4506
   97SAPC  C316 9627   6.780   4.427   6.217 -0.0071  0.5351  0.0976
   97SAPC  H16X 9628   6.691   4.471   6.167  1.4274  0.6317 -2.5101
   97SAPC  H16Y 9629   6.869   4.449   6.156  0.4682 -0.3017  0.4715
   97SAPC  C317 9630   6.812   4.485   6.356 -1.1164  0.0923 -0.5708
   97SAPC  H17X 9631   6.724   4.482   6.424 -0.4090 -0.7960  0.3345
   97SAPC  H17Y 9632   6.838   4.591   6.339  1.4977 -0.5290 -0.8452
   97SAPC  C318 9633   6.935   4.416   6.419  0.0330  0.0816 -0.0558
   97SAPC  H18X 9634   6.970   4.469   6.510 -1.4329  0.1300  0.5062
   97SAPC  H18Y 9635   7.016   4.411   6.343 -0.5252 -0.8339 -0.6070
   97SAPC  H18Z 9636   6.911   4.311   6.447  0.6644  0.0493  0.3745
   98SAPC     N 9637   3.286   2.389   4.570  0.1092 -0.7869  0.2152
   98SAPC   C12 9638   3.207   2.404   4.691 -0.3534 -0.0324  0.0037
   98SAPC  H12A 9639   3.249   2.478   4.758 -0.7399  0.0508  0.1565
   98SAPC  H12B 9640   3.212   2.314   4.751  0.1009 -0.7501 -1.0739
   98SAPC   C13 9641   3.326   2.524   4.524  0.0226  0.1558  0.0088
   98SAPC  H13A 9642   3.377   2.519   4.428  1.1516 -0.5797  0.6293
   98SAPC  H13B 9643   3.235   2.578   4.503  0.6068  0.1564 -3.0821
   98SAPC  H13C 9644   3.380   2.582   4.597 -0.2988  1.5373 -0.8039
   98SAPC   C14 9645   3.413   2.311   4.604  0.8695  0.1918  0.0873
   98SAPC  H14A 9646   3.400   2.207   4.630 -0.9427  0.3289 -0.1039
   98SAPC  H14B 9647   3.486   2.327   4.526  1.8007  2.1607  1.2687
   98SAPC  H14C 9648   3.465   2.349   4.691 -2.3872 -0.3555  2.4603
   98SAPC   C15 9649   3.209   2.316   4.459 -0.3876 -0.1349  0.2348
   98SAPC  H15A 9650   3.193   2.214   4.493 -2.2917  0.2594  0.6391
   98SAPC  H15B 9651   3.113   2.364   4.452  1.2691  3.4018 -0.4109
   98SAPC  H15C 9652   3.265   2.309   4.367 -1.0902  0.9719 -0.2873
   98SAPC   C11 9653   3.058   2.437   4.671 -0.7787 -0.2352 -0.5992
   98SAPC  H11A 9654   3.030   2.453   4.777  1.5040 -1.9289  0.3367
   98SAPC  H11B 9655   2.994   2.353   4.636  0.2640 -0.5481 -1.8430
   98SAPC     P 9656   2.886   2.604   4.607 -0.1556 -0.0051 -0.3367
   98SAPC   O13 9657   2.872   2.732   4.543  0.0834 -0.6862 -0.1933
   98SAPC   O14 9658   2.798   2.493   4.572 -0.5505 -0.7002  0.2509
   98SAPC   O12 9659   3.033   2.561   4.591 -0.5707  1.3111  0.3728
   98SAPC   O11 9660   2.879   2.627   4.765 -0.2338 -0.3218 -0.6862
   98SAPC    C1 9661   2.974   2.731   4.816  0.3211  0.5918  0.5477
   98SAPC    HA 9662   3.076   2.686   4.818 -0.1797 -0.5724  0.6292
   98SAPC    HB 9663   2.977   2.816   4.746  1.2053  1.1131  1.1894
   98SAPC    C2 9664   2.946   2.780   4.959  0.1944 -0.2020  1.0809
   98SAPC    HS 9665   3.039   2.823   5.002  0.6550 -0.9938  0.8832
   98SAPC   O21 9666   2.905   2.671   5.041 -0.5168  0.5805 -0.0226
   98SAPC   C21 9667   2.992   2.569   5.054  0.2556  0.0773  0.0573
   98SAPC   O22 9668   3.113   2.578   5.040 -0.4395  0.2906  0.1378
   98SAPC   C22 9669   2.919   2.439   5.093  0.1399  0.0953 -0.3475
   98SAPC   H2R 9670   2.861   2.464   5.185 -0.2607 -2.9337  0.3307
   98SAPC   H2S 9671   2.849   2.410   5.011  1.0643 -0.0935 -1.0847
   98SAPC    C3 9672   2.827   2.880   4.957 -0.8753  0.3191  0.0938
   98SAPC    HX 9673   2.742   2.840   4.899 -1.4914  2.6560 -0.7138
   98SAPC    HY 9674   2.864   2.967   4.898  1.7995 -0.7483  0.0308
   98SAPC   O31 9675   2.791   2.926   5.083 -0.1343  0.2297  0.5936
   98SAPC   C31 9676   2.690   2.861   5.143  0.8906 -0.0711 -0.8885
   98SAPC   O32 9677   2.630   2.767   5.108 -0.3334  0.4176 -0.2967
   98SAPC   C32 9678   2.667   2.937   5.275 -0.4573  0.1462 -0.1893
   98SAPC   H2X 9679   2.606   3.026   5.248 -1.8593 -1.2474 -1.9208
   98SAPC   H2Y 9680   2.767   2.967   5.313 -0.8454  1.5855 -0.2269
   98SAPC   C23 9681   3.019   2.320   5.102 -0.2602  0.0758 -0.8906
   98SAPC   H3R 9682   3.067   2.305   5.201  0.4178  0.2700 -1.1833
   98SAPC   H3S 9683   3.100   2.349   5.032 -0.3397  0.2322 -0.9191
   98SAPC   C24 9684   2.968   2.187   5.065 -0.3439  0.5959  0.0014
   98SAPC   H4R 9685   2.942   2.185   4.957 -1.8921  0.6985  0.3536
   98SAPC   H4S 9686   2.872   2.181   5.122 -0.6112 -2.0926 -0.5957
   98SAPC   C25 9687   3.057   2.075   5.098 -0.5112  0.5809  1.3119
   98SAPC   H5R 9688   3.138   2.058   5.026 -0.7651  0.0642  1.1425
   98SAPC   C26 9689   3.046   1.986   5.200 -0.5740  0.4807  0.2464
   98SAPC   H6R 9690   3.117   1.904   5.220 -2.3715 -1.2644 -0.1999
   98SAPC   C27 9691   2.933   1.993   5.295 -0.2091  0.3371  0.1842
   98SAPC   H7R 9692   2.913   1.894   5.342 -2.9870  0.9807  0.5830
   98SAPC   H7S 9693   2.838   2.030   5.250  0.4109  2.0920  0.2492
   98SAPC   C28 9694   2.975   2.088   5.409 -0.7263 -0.1825 -0.0068
   98SAPC   H8R 9695   3.024   2.183   5.383  1.5941 -0.2784  3.4587
   98SAPC   C29 9696   2.940   2.066   5.537 -0.2598 -0.3931  0.0952
   98SAPC   H9R 9697   2.968   2.145   5.609  0.8300 -0.4826 -0.2200
   98SAPC  C210 9698   2.853   1.956   5.590 -0.1888 -0.0065 -0.0941
   98SAPC  H10R 9699   2.920   1.887   5.645  0.1421  0.9102  0.6907
   98SAPC  H10S 9700   2.807   1.901   5.505 -0.0446  2.6884 -2.0493
   98SAPC  C211 9701   2.738   2.007   5.677 -0.3308 -0.3479  0.2049
   98SAPC  H11R 9702   2.649   2.033   5.619  0.2628 -0.1258 -0.6302
   98SAPC  C212 9703   2.727   2.002   5.809  0.6966 -0.3436 -1.0143
   98SAPC  H12R 9704   2.635   2.040   5.857  0.6270 -0.6850 -0.8717
   98SAPC  C213 9705   2.835   1.955   5.913  0.0370  0.6584  0.3428
   98SAPC  H13R 9706   2.840   2.041   5.983 -0.0709  2.8194 -2.1322
   98SAPC  H13S 9707   2.932   1.949   5.860 -0.7654 -1.2918 -1.0369
   98SAPC  C214 9708   2.807   1.826   5.983 -0.4229  0.2133  0.5647
   98SAPC  H14R 9709   2.794   1.739   5.917 -0.2210 -0.0603  0.8856
   98SAPC  C215 9710   2.772   1.801   6.116  0.2523  0.0393 -0.3225
   98SAPC  H15R 9711   2.752   1.700   6.154  1.4487  0.2526  0.9688
   98SAPC  C216 9712   2.767   1.894   6.227 -0.3373  0.1937  0.0114
   98SAPC  H16R 9713   2.777   2.003   6.207  0.9967 -0.1341 -1.2422
   98SAPC  H16S 9714   2.850   1.871   6.298 -1.8177 -0.4354  1.6126
   98SAPC  C217 9715   2.633   1.893   6.305 -0.5226  0.1627 -1.0929
   98SAPC  H17R 9716   2.545   1.927   6.247 -1.8636  2.7501  2.1632
   98SAPC  H17S 9717   2.644   1.971   6.383 -0.5737  1.4725 -2.3636
   98SAPC  C218 9718   2.607   1.764   6.378 -0.0161 -0.6417  0.3548
   98SAPC  H18R 9719   2.682   1.753   6.459  0.0544 -0.8492  0.2620
   98SAPC  H18S 9720   2.614   1.670   6.318  2.0769 -1.7519  2.2133
   98SAPC  C219 9721   2.470   1.750   6.438  0.6827 -0.1305  0.5726
   98SAPC  H19R 9722   2.398   1.770   6.356  0.0117  0.7357  1.3477
   98SAPC  H19S 9723   2.452   1.837   6.505 -0.2850 -1.5217  2.2096
   98SAPC  C220 9724   2.436   1.617   6.517 -0.8924  0.5807 -0.0174
   98SAPC  H20R 9725   2.343   1.629   6.577 -0.5838 -0.7618  0.7725
   98SAPC  H20S 9726   2.517   1.592   6.588 -2.0288 -0.8362  0.8391
   98SAPC  H20T 9727   2.410   1.538   6.443  0.5322  1.6744 -1.7695
   98SAPC   C33 9728   2.600   2.855   5.389 -0.1812  0.9391 -0.2252
   98SAPC   H3X 9729   2.635   2.750   5.397  0.2539  0.9361 -1.9325
   98SAPC   H3Y 9730   2.490   2.846   5.375 -0.9439  2.4330  3.5600
   98SAPC   C34 9731   2.617   2.914   5.533  0.5162 -1.1377  0.2556
   98SAPC   H4X 9732   2.592   3.021   5.520  0.7072 -1.2343 -0.9957
   98SAPC   H4Y 9733   2.723   2.911   5.569  0.7212  1.6391  0.0396
   98SAPC   C35 9734   2.523   2.850   5.640 -0.5349  0.4095 -0.4059
   98SAPC   H5X 9735   2.532   2.740   5.644  0.2948  0.4241 -1.4833
   98SAPC   H5Y 9736   2.415   2.873   5.626 -0.6415  0.2027  0.0427
   98SAPC   C36 9737   2.543   2.904   5.784 -0.2145 -0.3795  0.3143
   98SAPC   H6X 9738   2.653   2.908   5.804  0.4845  1.3133 -3.0343
   98SAPC   H6Y 9739   2.500   2.834   5.858  0.1954 -1.3002 -0.2948
   98SAPC   C37 9740   2.494   3.050   5.787  0.1879  0.0054  0.8422
   98SAPC   H7X 9741   2.389   3.060   5.752  0.7847 -0.8982 -1.3846
   98SAPC   H7Y 9742   2.543   3.107   5.706  0.1519 -2.1796 -0.8052
   98SAPC   C38 9743   2.490   3.120   5.930 -0.4399  0.6959  0.9456
   98SAPC   H8X 9744   2.424   3.062   5.998 -0.1922 -0.1612  0.4708
   98SAPC   H8Y 9745   2.456   3.224   5.915  0.6551  1.0054  0.4826
   98SAPC   C39 9746   2.624   3.114   5.996 -0.0234  0.1341  0.8745
   98SAPC   H9X 9747   2.702   3.154   5.927 -2.2818  0.5208 -1.6040
   98SAPC   H9Y 9748   2.647   3.006   6.011  0.6480 -0.2240 -2.0872
   98SAPC  C310 9749   2.628   3.182   6.135 -0.6681  0.7275  0.5695
   98SAPC  H10X 9750   2.555   3.130   6.201 -0.3422  1.0408  1.1828
   98SAPC  H10Y 9751   2.582   3.283   6.128  0.7354  1.3718  0.3905
   98SAPC  C311 9752   2.772   3.184   6.192  0.1259 -0.3360  0.3403
   98SAPC  H11X 9753   2.837   3.226   6.113  0.9088 -2.4286 -0.2082
   98SAPC  H11Y 9754   2.807   3.081   6.216 -1.1870 -1.0905 -0.8602
   98SAPC  C312 9755   2.782   3.266   6.325 -0.4063  0.0052 -1.1608
   98SAPC  H12X 9756   2.768   3.374   6.302 -2.9185  0.0018 -0.0171
   98SAPC  H12Y 9757   2.882   3.257   6.373 -0.3272 -1.9267 -1.6287
   98SAPC  C313 9758   2.680   3.229   6.428  0.4389  0.2636 -0.1394
   98SAPC  H13X 9759   2.659   3.121   6.413  1.1178 -0.1429  1.5808
   98SAPC  H13Y 9760   2.578   3.273   6.419 -0.2806 -0.7256  2.3726
   98SAPC  C314 9761   2.709   3.247   6.580  0.1560 -0.0926  0.2508
   98SAPC  H14X 9762   2.737   3.351   6.609 -1.8546 -0.3834  3.7096
   98SAPC  H14Y 9763   2.797   3.181   6.598  0.6510  0.3649 -0.4128
   98SAPC  C315 9764   2.589   3.202   6.668  0.3527  0.0919  1.0205
   98SAPC  H15X 9765   2.522   3.131   6.616 -1.0299 -0.4121  3.3604
   98SAPC  H15Y 9766   2.534   3.295   6.694  0.9540  0.7078  0.1749
   98SAPC  C316 9767   2.637   3.135   6.801  0.2765 -0.4173  0.4599
   98SAPC  H16X 9768   2.690   3.217   6.853  0.5692  0.4502 -1.1192
   98SAPC  H16Y 9769   2.707   3.053   6.776  0.4480  0.0134 -0.5273
   98SAPC  C317 9770   2.516   3.092   6.888 -0.0405  0.0488 -0.1306
   98SAPC  H17X 9771   2.493   2.986   6.866 -0.8389 -0.3611  2.3586
   98SAPC  H17Y 9772   2.429   3.156   6.861  0.1513 -0.1247 -1.1875
   98SAPC  C318 9773   2.553   3.113   7.033 -0.0555  0.4310  0.0739
   98SAPC  H18X 9774   2.641   3.046   7.047  1.2829  2.2324  0.6681
   98SAPC  H18Y 9775   2.468   3.083   7.098 -0.2707  2.6626  0.8827
   98SAPC  H18Z 9776   2.579   3.219   7.054 -0.2403  1.4616 -4.0559
   99SAPC     N 9777   3.904   5.201   4.051 -0.0790  0.4495  0.1929
   99SAPC   C12 9778   3.887   5.332   4.118  0.1961 -0.6077  0.1080
   99SAPC  H12A 9779   3.974   5.395   4.105 -0.1235 -0.0596  0.5396
   99SAPC  H12B 9780   3.892   5.311   4.224  1.5740 -1.4028 -0.0930
   99SAPC   C13 9781   3.927   5.221   3.906 -0.0440  0.1453 -0.1429
   99SAPC  H13A 9782   3.834   5.262   3.869 -0.6825 -1.3399 -0.2527
   99SAPC  H13B 9783   4.007   5.288   3.880  0.0112  0.0432 -0.2438
   99SAPC  H13C 9784   3.933   5.127   3.853  0.7410  0.5912 -0.8744
   99SAPC   C14 9785   4.033   5.131   4.100  0.3291  0.1269 -0.2844
   99SAPC  H14A 9786   4.121   5.174   4.054  1.2144 -1.7039 -0.3955
   99SAPC  H14B 9787   4.044   5.142   4.207  0.9334 -1.1651 -0.1939
   99SAPC  H14C 9788   4.039   5.026   4.074  0.8475 -0.2144  1.1522
   99SAPC   C15 9789   3.794   5.105   4.079 -0.4110 -0.2097  0.3100
   99SAPC  H15A 9790   3.814   5.000   4.064  1.1471 -0.1336  1.5347
   99SAPC  H15B 9791   3.756   5.118   4.179  3.8520  0.3407  2.0807
   99SAPC  H15C 9792   3.703   5.134   4.029  0.1649 -0.7154 -1.0909
   99SAPC   C11 9793   3.759   5.415   4.103 -0.2739 -0.4813  0.1626
   99SAPC  H11A 9794   3.666   5.371   4.145 -0.9052  1.5944  1.0959
   99SAPC  H11B 9795   3.746   5.435   3.995  0.5605  0.5442  0.2291
   99SAPC     P 9796   3.760   5.554   4.323  0.7169  0.3350  0.1142
   99SAPC   O13 9797   3.893   5.579   4.389  0.6717  0.5992  0.7431
   99SAPC   O14 9798   3.655   5.656   4.352 -0.2491  0.4812  0.6142
   99SAPC   O12 9799   3.786   5.544   4.166 -0.0220 -0.0242  0.3643
   99SAPC   O11 9800   3.703   5.415   4.375  0.1764  0.8347  0.4976
   99SAPC    C1 9801   3.607   5.416   4.481 -0.0197  0.0613  0.3676
   99SAPC    HA 9802   3.510   5.456   4.444 -0.4105  0.1315  1.4412
   99SAPC    HB 9803   3.598   5.312   4.518  2.7401 -0.7478 -0.8893
   99SAPC    C2 9804   3.658   5.479   4.614  0.6871  0.1346 -0.1409
   99SAPC    HS 9805   3.676   5.587   4.595 -0.6209  1.1230  3.4864
   99SAPC   O21 9806   3.789   5.428   4.649 -0.0145  0.2832 -0.3942
   99SAPC   C21 9807   3.875   5.509   4.703  0.7336  0.2519 -1.8834
   99SAPC   O22 9808   3.850   5.627   4.738 -0.3770  0.0362 -0.6652
   99SAPC   C22 9809   4.011   5.438   4.723 -0.5689  1.0874  0.1517
   99SAPC   H2R 9810   4.033   5.387   4.627  0.1384 -0.2333  1.0045
   99SAPC   H2S 9811   4.082   5.520   4.749  0.6378  0.0048  0.3254
   99SAPC    C3 9812   3.561   5.451   4.729  0.1649  0.6563 -0.5104
   99SAPC    HX 9813   3.548   5.342   4.747 -0.7500  1.1164  1.9003
   99SAPC    HY 9814   3.461   5.486   4.695  0.7447  1.0342 -1.8906
   99SAPC   O31 9815   3.596   5.520   4.854  0.0252  0.3738  0.6017
   99SAPC   C31 9816   3.548   5.653   4.853  0.4558 -0.0353 -0.8626
   99SAPC   O32 9817   3.472   5.703   4.774  0.1901  0.8818 -0.1599
   99SAPC   C32 9818   3.613   5.718   4.969  0.1564 -0.3171 -0.0690
   99SAPC   H2X 9819   3.723   5.722   4.952  0.5145 -1.3767  1.7951
   99SAPC   H2Y 9820   3.589   5.663   5.063 -1.3854  1.2728  0.5151
   99SAPC   C23 9821   3.997   5.329   4.824 -0.0617 -0.4224  0.4650
   99SAPC   H3R 9822   4.085   5.262   4.819  1.4408  1.5319 -0.3383
   99SAPC   H3S 9823   3.905   5.270   4.805 -1.3334  1.6843 -0.3201
   99SAPC   C24 9824   4.005   5.379   4.966 -0.5454 -0.0654  0.1161
   99SAPC   H4R 9825   4.089   5.449   4.987 -1.3398  0.8595  0.2769
   99SAPC   H4S 9826   4.034   5.293   5.029  0.5726  1.0938  1.2244
   99SAPC   C25 9827   3.877   5.432   5.016  0.3744 -0.1221 -0.0798
   99SAPC   H5R 9828   3.839   5.521   4.964  0.5228 -0.0126 -0.0031
   99SAPC   C26 9829   3.813   5.389   5.125 -0.3593  0.1173 -0.5814
   99SAPC   H6R 9830   3.710   5.426   5.133 -0.4024  0.0309 -0.7259
   99SAPC   C27 9831   3.846   5.291   5.237 -0.2678  1.1656 -0.4151
   99SAPC   H7R 9832   3.947   5.249   5.218  0.4447  3.2797 -1.5251
   99SAPC   H7S 9833   3.779   5.202   5.233  1.7060 -0.3694 -1.6931
   99SAPC   C28 9834   3.823   5.359   5.372  0.4222  0.3728  0.0134
   99SAPC   H8R 9835   3.852   5.465   5.377 -2.1925  1.1783 -0.5451
   99SAPC   C29 9836   3.801   5.287   5.483  0.1188  0.3026 -0.2005
   99SAPC   H9R 9837   3.816   5.344   5.576 -2.0204  0.5907  0.0383
   99SAPC  C210 9838   3.770   5.144   5.506 -0.7899  0.2315  0.1100
   99SAPC  H10R 9839   3.859   5.078   5.500 -1.2850 -0.4945  0.4840
   99SAPC  H10S 9840   3.697   5.107   5.430 -1.5756  1.7038  0.1142
   99SAPC  C211 9841   3.696   5.120   5.642 -0.1813 -0.3151 -0.7209
   99SAPC  H11R 9842   3.766   5.089   5.721  0.2176  0.1227 -0.8950
   99SAPC  C212 9843   3.568   5.155   5.668 -0.1986 -0.4716 -0.4422
   99SAPC  H12R 9844   3.521   5.128   5.764  1.2845 -0.0421  0.4397
   99SAPC  C213 9845   3.476   5.227   5.566  0.1107 -0.7224  0.4790
   99SAPC  H13R 9846   3.476   5.172   5.470 -0.3568  1.0021 -0.5515
   99SAPC  H13S 9847   3.515   5.328   5.544 -1.4751  0.1835  1.5932
   99SAPC  C214 9848   3.332   5.252   5.596  0.0104 -0.0746 -0.4554
   99SAPC  H14R 9849   3.301   5.357   5.603 -1.9705 -0.6169 -0.4304
   99SAPC  C215 9850   3.242   5.164   5.645  0.8232  0.1819 -1.1073
   99SAPC  H15R 9851   3.141   5.196   5.676  1.8787  2.5871  0.1336
   99SAPC  C216 9852   3.247   5.018   5.663 -0.1577  0.0181 -0.1381
   99SAPC  H16R 9853   3.321   4.978   5.589  0.6501  0.3584  0.4636
   99SAPC  H16S 9854   3.151   4.973   5.631 -1.3973  2.0115  0.5369
   99SAPC  C217 9855   3.276   4.959   5.804 -0.6301 -0.1612 -0.2630
   99SAPC  H17R 9856   3.187   4.971   5.869 -0.9092 -0.1937 -0.6359
   99SAPC  H17S 9857   3.349   5.024   5.857 -1.6819  1.7324 -1.0533
   99SAPC  C218 9858   3.324   4.809   5.808 -0.4155 -0.9061 -1.0446
   99SAPC  H18R 9859   3.421   4.798   5.754  0.3614 -1.3014  0.4001
   99SAPC  H18S 9860   3.253   4.744   5.752 -0.1269 -0.9641 -1.3490
   99SAPC  C219 9861   3.332   4.756   5.951  0.8289  0.0757  0.1525
   99SAPC  H19R 9862   3.309   4.648   5.944  2.5567 -0.2030 -2.3324
   99SAPC  H19S 9863   3.254   4.800   6.018  0.5400 -0.2997  0.0704
   99SAPC  C220 9864   3.466   4.779   6.011  0.5182 -0.2906  1.1859
   99SAPC  H20R 9865   3.468   4.733   6.112  0.8615 -1.9249  0.4610
   99SAPC  H20S 9866   3.502   4.884   6.003  0.8156 -0.4264  0.6793
   99SAPC  H20T 9867   3.543   4.732   5.946 -0.1114 -0.2589  0.4097
   99SAPC   C33 9868   3.557   5.858   4.982 -0.9393 -0.0541 -0.0696
   99SAPC   H3X 9869   3.451   5.865   5.016 -0.0195  0.2716  2.9680
   99SAPC   H3Y 9870   3.565   5.912   4.885 -0.7643  1.0862  0.5568
   99SAPC   C34 9871   3.649   5.951   5.065 -0.0542 -0.9605  0.0836
   99SAPC   H4X 9872   3.750   5.964   5.021 -0.1423 -1.1691 -0.1841
   99SAPC   H4Y 9873   3.667   5.906   5.165  0.0710  1.1677  1.0676
   99SAPC   C35 9874   3.574   6.083   5.075 -0.9318 -0.4360 -0.0369
   99SAPC   H5X 9875   3.472   6.067   5.118 -1.4572 -1.6712 -1.6472
   99SAPC   H5Y 9876   3.562   6.123   4.972 -2.0996  1.9356  0.9498
   99SAPC   C36 9877   3.641   6.184   5.168  0.6320 -0.0783  0.1878
   99SAPC   H6X 9878   3.606   6.284   5.135  2.3459 -0.1903 -2.2256
   99SAPC   H6Y 9879   3.750   6.179   5.148  0.6479 -1.2573  0.4859
   99SAPC   C37 9880   3.615   6.158   5.316 -0.2835 -0.5256  0.0731
   99SAPC   H7X 9881   3.652   6.055   5.335 -1.2550 -0.7495  0.8800
   99SAPC   H7Y 9882   3.505   6.166   5.334 -0.3391  2.7190 -1.0250
   99SAPC   C38 9883   3.687   6.259   5.409  0.3564  0.1985  0.3534
   99SAPC   H8X 9884   3.665   6.355   5.357 -1.1731 -1.9335 -3.2497
   99SAPC   H8Y 9885   3.797   6.243   5.397  0.5595  2.1580 -0.8221
   99SAPC   C39 9886   3.637   6.250   5.555  0.2546  0.2000 -0.5968
   99SAPC   H9X 9887   3.527   6.260   5.553  0.1345 -0.6341  0.6394
   99SAPC   H9Y 9888   3.672   6.336   5.615  0.8439 -0.3743 -0.1004
   99SAPC  C310 9889   3.671   6.114   5.623  0.1902  0.1055 -0.1845
   99SAPC  H10X 9890   3.776   6.079   5.612  0.4868 -0.5712  3.4134
   99SAPC  H10Y 9891   3.603   6.033   5.588  0.4973 -1.6212  2.8384
   99SAPC  C311 9892   3.648   6.120   5.773 -0.2383  0.4892 -0.1350
   99SAPC  H11X 9893   3.668   6.023   5.823  1.2683  1.2525  0.8241
   99SAPC  H11Y 9894   3.543   6.150   5.794 -0.2717 -0.3165  0.9042
   99SAPC  C312 9895   3.745   6.210   5.848 -0.3144 -0.7613 -0.3567
   99SAPC  H12X 9896   3.753   6.309   5.798 -0.3158 -1.2002 -1.2428
   99SAPC  H12Y 9897   3.847   6.167   5.838  0.1581  0.0369  0.8342
   99SAPC  C313 9898   3.694   6.240   5.990 -0.5293  0.2285 -0.4742
   99SAPC  H13X 9899   3.694   6.134   6.024 -0.0215 -0.5987 -2.8665
   99SAPC  H13Y 9900   3.592   6.282   5.979 -0.4957  0.3786 -0.1994
   99SAPC  C314 9901   3.790   6.326   6.085 -0.6406 -0.1009  0.3562
   99SAPC  H14X 9902   3.813   6.423   6.036 -1.1612  0.7144  1.6828
   99SAPC  H14Y 9903   3.888   6.275   6.100 -0.8483  0.1327  3.1431
   99SAPC  C315 9904   3.737   6.353   6.221  0.3829  0.1247 -0.3470
   99SAPC  H15X 9905   3.668   6.269   6.242 -0.3641 -0.2233 -3.5881
   99SAPC  H15Y 9906   3.675   6.445   6.217  0.8377  0.4721  0.3272
   99SAPC  C316 9907   3.849   6.359   6.321  0.0449 -0.0821  0.1898
   99SAPC  H16X 9908   3.925   6.279   6.315  0.8421  0.7526 -2.0593
   99SAPC  H16Y 9909   3.816   6.342   6.426  0.2714  0.8024  0.4175
   99SAPC  C317 9910   3.935   6.485   6.317 -0.5015  0.0890 -0.2843
   99SAPC  H17X 9911   3.878   6.576   6.346 -1.3451 -0.9390  1.4427
   99SAPC  H17Y 9912   3.972   6.507   6.215  1.7653  0.6604  0.5937
   99SAPC  C318 9913   4.058   6.463   6.409  0.1554  0.2082 -0.3345
   99SAPC  H18X 9914   4.093   6.565   6.434 -1.1415  0.4327  0.6818
   99SAPC  H18Y 9915   4.136   6.396   6.368  0.1025  0.9797 -1.7578
   99SAPC  H18Z 9916   4.019   6.407   6.496 -0.1173 -0.7161 -1.0264
  100SAPC     N 9917   1.377   0.441   4.524  0.1546 -0.7141  0.0910
  100SAPC   C12 9918   1.242   0.477   4.586 -0.1837  0.2229  0.5970
  100SAPC  H12A 9919   1.215   0.383   4.633 -0.1570 -1.2374 -2.1297
  100SAPC  H12B 9920   1.163   0.489   4.514  1.9958 -0.6006 -2.0776
  100SAPC   C13 9921   1.487   0.450   4.628 -0.6993 -0.0763 -0.7205
  100SAPC  H13A 9922   1.459   0.382   4.706  0.2940  2.3118  1.8743
  100SAPC  H13B 9923   1.589   0.442   4.593 -1.4100  1.8265 -3.6235
  100SAPC  H13C 9924   1.480   0.546   4.678  0.6299 -0.6555  0.6482
  100SAPC   C14 9925   1.371   0.318   4.439 -0.3390  0.4100 -0.6372
  100SAPC  H14A 9926   1.341   0.230   4.494  0.0267  1.1701  0.8252
  100SAPC  H14B 9927   1.311   0.317   4.349 -0.1602 -0.1349 -0.7570
  100SAPC  H14C 9928   1.469   0.302   4.395  0.1724  0.9592  0.2745
  100SAPC   C15 9929   1.410   0.551   4.422  0.1194 -0.3631  0.0957
  100SAPC  H15A 9930   1.510   0.537   4.383  0.8735 -0.1400  1.8307
  100SAPC  H15B 9931   1.342   0.553   4.339  2.7166  0.8038 -2.1518
  100SAPC  H15C 9932   1.404   0.646   4.472  0.9721  0.9941 -2.2581
  100SAPC   C11 9933   1.223   0.593   4.687 -0.2606 -0.0638 -0.6002
  100SAPC  H11A 9934   1.276   0.574   4.783 -2.9508  1.2743  1.2794
  100SAPC  H11B 9935   1.120   0.584   4.727  0.0640  1.1800  0.6069
  100SAPC     P 9936   1.159   0.792   4.523 -0.5019  0.2228  0.0534
  100SAPC   O13 9937   1.170   0.715   4.398 -0.6478 -0.3300  0.1404
  100SAPC   O14 9938   1.022   0.817   4.567 -0.1328 -0.6407 -0.0762
  100SAPC   O12 9939   1.244   0.727   4.635 -0.1734 -0.2021  0.1848
  100SAPC   O11 9940   1.223   0.937   4.513 -0.1291 -0.2272  0.0054
  100SAPC    C1 9941   1.360   0.976   4.530 -0.0933 -0.2776 -0.1905
  100SAPC    HA 9942   1.428   0.892   4.555 -0.5462 -0.2301  1.3185
  100SAPC    HB 9943   1.407   1.018   4.439  0.4032  1.4505  0.8345
  100SAPC    C2 9944   1.366   1.060   4.657 -0.1212 -0.1875  0.0794
  100SAPC    HS 9945   1.469   1.100   4.653 -0.5009  0.7122 -2.6882
  100SAPC   O21 9946   1.332   0.983   4.769  0.3222 -0.2977 -0.3923
  100SAPC   C21 9947   1.432   0.917   4.830 -0.1806 -0.7517  0.1858
  100SAPC   O22 9948   1.548   0.917   4.798 -0.4246  0.2041  0.8408
  100SAPC   C22 9949   1.377   0.852   4.957  0.1431 -0.7766  0.0766
  100SAPC   H2R 9950   1.368   0.921   5.044  0.0262 -0.5952 -0.0783
  100SAPC   H2S 9951   1.284   0.801   4.925 -0.0819  0.5291 -1.5117
  100SAPC    C3 9952   1.279   1.188   4.648  0.2723 -0.1777  0.5633
  100SAPC    HX 9953   1.176   1.151   4.632  0.5538 -0.2587 -1.2924
  100SAPC    HY 9954   1.312   1.248   4.560 -1.0398 -0.2012  0.0370
  100SAPC   O31 9955   1.296   1.272   4.768  0.0470 -0.4761  0.0799
  100SAPC   C31 9956   1.199   1.353   4.788 -0.5010 -0.5998 -0.4012
  100SAPC   O32 9957   1.096   1.356   4.722 -0.0189 -0.8609 -0.5747
  100SAPC   C32 9958   1.230   1.433   4.919  0.2862 -0.4513  1.0998
  100SAPC   H2X 9959   1.335   1.467   4.905 -0.4014  1.4485  0.1359
  100SAPC   H2Y 9960   1.226   1.366   5.007 -1.2665  0.2847  1.6176
  100SAPC   C23 9961   1.469   0.735   5.009  0.5012 -0.1444 -0.4625
  100SAPC   H3R 9962   1.578   0.756   4.994  1.5055 -2.6576  2.3068
  100SAPC   H3S 9963   1.450   0.636   4.964  0.2049 -1.5902  2.6279
  100SAPC   C24 9964   1.449   0.717   5.160  0.2644 -0.2107 -0.0118
  100SAPC   H4R 9965   1.342   0.696   5.183  0.5905 -1.4771  0.4697
  100SAPC   H4S 9966   1.474   0.814   5.207  0.1952 -0.8857  1.4533
  100SAPC   C25 9967   1.545   0.617   5.214  1.0792 -0.4583 -0.4456
  100SAPC   H5R 9968   1.648   0.622   5.174  1.1044 -1.2228 -0.4885
  100SAPC   C26 9969   1.516   0.523   5.303 -0.0225 -0.2999  0.0737
  100SAPC   H6R 9970   1.593   0.449   5.329 -1.1430 -1.2051  0.8958
  100SAPC   C27 9971   1.379   0.499   5.362  0.4336 -0.2689  0.3909
  100SAPC   H7R 9972   1.339   0.593   5.406  1.3802  0.8777 -1.1006
  100SAPC   H7S 9973   1.384   0.438   5.454 -1.1295 -1.8864 -0.5344
  100SAPC   C28 9974   1.280   0.436   5.265  0.3854  0.4999  0.2726
  100SAPC   H8R 9975   1.273   0.479   5.164 -0.2469 -2.7292 -1.1654
  100SAPC   C29 9976   1.204   0.326   5.291 -0.5971  0.3116 -0.5060
  100SAPC   H9R 9977   1.147   0.289   5.205  1.7824  0.0437 -2.0630
  100SAPC  C210 9978   1.199   0.246   5.421 -0.4860 -0.5538  0.1641
  100SAPC  H10R 9979   1.232   0.305   5.510 -0.5665 -0.3109  0.0324
  100SAPC  H10S 9980   1.278   0.168   5.405 -0.4288 -0.1468 -1.6601
  100SAPC  C211 9981   1.066   0.184   5.447 -0.6449  0.1200 -0.4108
  100SAPC  H11R 9982   1.085   0.076   5.455  1.4467  0.3843 -1.3145
  100SAPC  C212 9983   0.945   0.242   5.458  0.8200 -0.7151 -0.4638
  100SAPC  H12R 9984   0.863   0.178   5.494  0.4518  0.3979  0.7630
  100SAPC  C213 9985   0.906   0.389   5.435 -1.1487  0.3142  0.4883
  100SAPC  H13R 9986   0.838   0.395   5.347 -2.6807 -1.0309  1.5186
  100SAPC  H13S 9987   1.000   0.443   5.414  1.1421 -3.3742  0.2336
  100SAPC  C214 9988   0.837   0.445   5.551 -0.4183 -0.3600 -0.3032
  100SAPC  H14R 9989   0.913   0.479   5.623  1.5278 -0.8410 -2.0369
  100SAPC  C215 9990   0.707   0.444   5.584 -0.2267 -0.1800 -0.0265
  100SAPC  H15R 9991   0.684   0.478   5.687  2.0076  0.7923  0.2069
  100SAPC  C216 9992   0.595   0.408   5.486  0.4973  0.0383 -0.9519
  100SAPC  H16R 9993   0.630   0.366   5.389 -2.6213 -0.1400 -2.1044
  100SAPC  H16S 9994   0.526   0.493   5.473  0.2522  0.0647  0.3546
  100SAPC  C217 9995   0.508   0.299   5.555  0.0860 -1.6971  0.0666
  100SAPC  H17R 9996   0.403   0.299   5.519  0.4872  0.4897 -1.3249
  100SAPC  H17S 9997   0.501   0.336   5.660  3.4838 -0.4685 -0.0003
  100SAPC  C218 9998   0.567   0.161   5.553  0.5641 -0.3982 -1.3869
  100SAPC  H18R 9999   0.669   0.163   5.595  0.2749  2.2897 -0.6366
  100SAPC  H18S10000   0.577   0.117   5.452  1.4987 -1.6358 -0.7839
  100SAPC  C21910001   0.476   0.075   5.648 -0.2316 -0.7576 -0.2701
  100SAPC  H19R10002   0.525  -0.024   5.657  0.3593 -0.4830 -0.3935
  100SAPC  H19S10003   0.372   0.059   5.613 -0.9404  1.9631  0.2843
  100SAPC  C22010004   0.462   0.116   5.796 -0.0569 -0.5524 -0.4680
  100SAPC  H20R10005   0.408   0.042   5.859  1.1082  0.1623  1.4484
  100SAPC  H20S10006   0.422   0.220   5.809 -1.4761 -1.2078  0.7074
  100SAPC  H20T10007   0.561   0.124   5.846  0.3382  0.0417 -1.3248
  100SAPC   C3310008   1.137   1.555   4.947 -0.6911  0.2212 -0.6847
  100SAPC   H3X10009   1.034   1.515   4.962 -1.7815  1.9187 -2.9343
  100SAPC   H3Y10010   1.128   1.620   4.857  3.2480  3.1498  0.7648
  100SAPC   C3410011   1.180   1.630   5.074 -0.1141 -0.3196  0.0496
  100SAPC   H4X10012   1.283   1.668   5.056 -0.9663  3.2803  1.8230
  100SAPC   H4Y10013   1.171   1.555   5.155  0.5634  1.7848  2.1924
  100SAPC   C3510014   1.089   1.743   5.105  0.7520 -0.4658 -0.0192
  100SAPC   H5X10015   0.983   1.711   5.094  0.8715 -1.2294  0.9756
  100SAPC   H5Y10016   1.106   1.821   5.028 -1.8808 -0.2977 -0.5243
  100SAPC   C3610017   1.113   1.803   5.244  0.6849 -0.8909  0.9231
  100SAPC   H6X10018   1.208   1.860   5.244 -0.2005  0.6656  0.6985
  100SAPC   H6Y10019   1.125   1.715   5.311  1.7881 -2.3934 -1.1566
  100SAPC   C3710020   0.993   1.892   5.279  0.1810 -0.6036  0.2587
  100SAPC   H7X10021   0.904   1.861   5.219  0.8490  1.0225 -1.6904
  100SAPC   H7Y10022   0.997   2.001   5.259 -1.7241 -0.6239 -0.4279
  100SAPC   C3810023   0.957   1.871   5.428  0.1409  0.0326  0.1964
  100SAPC   H8X10024   0.921   1.767   5.442  0.9457 -0.6961 -2.5859
  100SAPC   H8Y10025   0.872   1.938   5.451  0.4301  0.5709 -0.2855
  100SAPC   C3910026   1.068   1.909   5.539 -0.0141 -0.4690  1.1607
  100SAPC   H9X10027   1.090   2.015   5.518 -0.3951 -0.1349  2.3538
  100SAPC   H9Y10028   1.156   1.844   5.518  0.2137 -0.0982  0.9567
  100SAPC  C31010029   1.020   1.901   5.680 -0.3991 -0.4347 -0.6315
  100SAPC  H10X10030   1.006   1.798   5.718 -0.6118 -1.1751 -2.6213
  100SAPC  H10Y10031   0.918   1.945   5.690  0.7633  2.2918  0.0645
  100SAPC  C31110032   1.112   1.968   5.787 -0.2267  0.6382 -0.1215
  100SAPC  H11X10033   1.111   2.075   5.759 -0.2277  0.6056 -0.2454
  100SAPC  H11Y10034   1.213   1.930   5.761  1.1006  3.4604  0.5154
  100SAPC  C31210035   1.086   1.937   5.940 -0.1307 -0.1240  0.2860
  100SAPC  H12X10036   1.049   1.834   5.956  2.5617 -1.3288 -0.6718
  100SAPC  H12Y10037   1.011   2.009   5.979  1.3566  1.9794 -0.5309
  100SAPC  C31310038   1.214   1.944   6.027  0.7016  0.2219 -0.1460
  100SAPC  H13X10039   1.245   2.051   6.026 -0.8616  0.6975  0.4677
  100SAPC  H13Y10040   1.295   1.878   5.989 -0.0717  0.7782 -2.9628
  100SAPC  C31410041   1.194   1.878   6.172  0.2111  0.5554 -0.2346
  100SAPC  H14X10042   1.289   1.902   6.225 -0.2399  1.1716  0.3170
  100SAPC  H14Y10043   1.195   1.767   6.169  1.0007  0.5024  0.9705
  100SAPC  C31510044   1.080   1.922   6.256  0.3631  0.0831 -0.1974
  100SAPC  H15X10045   0.981   1.893   6.213 -0.2891  0.1124  1.2234
  100SAPC  H15Y10046   1.084   2.030   6.284  1.3424 -0.6370  2.7361
  100SAPC  C31610047   1.090   1.867   6.394 -1.0564 -0.4938 -0.3890
  100SAPC  H16X10048   1.161   1.924   6.456 -0.0321 -0.3029 -1.7015
  100SAPC  H16Y10049   1.108   1.757   6.385 -1.9334 -0.7807  0.9886
  100SAPC  C31710050   0.962   1.872   6.479 -0.0039 -0.2441  0.3272
  100SAPC  H17X10051   0.888   1.797   6.442 -2.5595  0.6018  3.2931
  100SAPC  H17Y10052   0.920   1.974   6.468  0.1065 -0.0899  1.2817
  100SAPC  C31810053   0.985   1.840   6.628  0.0117  0.1832 -0.4088
  100SAPC  H18X10054   0.883   1.816   6.664  0.5917 -0.9455  0.5554
  100SAPC  H18Y10055   1.029   1.928   6.679 -0.0398 -0.6225  1.0796
  100SAPC  H18Z10056   1.055   1.754   6.637 -2.3589 -1.7466  0.8982
  101OSM      N10057   3.208   6.296   0.557 -1.0503 -0.7832  0.7144
  101OSM    C1510058   3.217   6.329   0.408 -0.3185 -0.4302  0.9155
  101OSM   H15A10059   3.219   6.236   0.354 -2.4783 -0.5308  0.9429
  101OSM   H15B10060   3.304   6.391   0.387  1.7364 -3.5348 -0.4643
  101OSM   H15C10061   3.127   6.380   0.376  0.8074 -0.3200 -2.5087
  101OSM    C1410062   3.204   6.425   0.633  0.2085  0.4497  0.4724
  101OSM   H14A10063   3.293   6.483   0.615 -0.0611  1.0876  1.1446
  101OSM   H14B10064   3.204   6.408   0.740  0.5395  0.1843  0.4339
  101OSM   H14C10065   3.116   6.480   0.605  1.6112  2.4733 -0.1400
  101OSM    C1310066   3.094   6.206   0.588  0.1818 -0.0678  0.0977
  101OSM   H13A10067   3.087   6.191   0.695 -0.4562 -0.9506 -0.0598
  101OSM   H13B10068   3.098   6.113   0.534 -0.5706  1.0818 -2.0382
  101OSM   H13C10069   2.999   6.247   0.556  0.2533 -0.7793 -1.0719
  101OSM    C1210070   3.337   6.226   0.601 -0.4021  0.2788 -0.0672
  101OSM   H12A10071   3.334   6.128   0.556  0.6361  0.9059 -1.5980
  101OSM   H12B10072   3.340   6.213   0.708  2.9168  0.6716  0.0131
  101OSM    C1110073   3.476   6.281   0.545 -0.3495 -0.0390 -0.7267
  101OSM   H11A10074   3.467   6.241   0.442 -4.1779 -3.4781  0.6528
  101OSM   H11B10075   3.555   6.218   0.591 -0.1048  2.1290  2.0787
  101OSM      P10076   3.545   6.519   0.455 -0.5222 -0.0046 -0.1532
  101OSM    O1310077   3.479   6.647   0.483  0.5858 -0.4317 -0.7760
  101OSM    O1410078   3.698   6.515   0.448  0.6743 -0.2412  0.4332
  101OSM    O1110079   3.488   6.456   0.324  0.4385 -0.3068  1.0494
  101OSM    O1210080   3.509   6.418   0.567  0.4467 -0.2405 -0.4828
  101OSM    C1S10081   3.414   6.536   0.225 -0.2970  0.4307 -0.2096
  101OSM    H1S10082   3.460   6.637   0.222 -0.2324  0.3797 -0.9283
  101OSM    H1T10083   3.307   6.550   0.251 -0.0097  0.8559  0.8023
  101OSM     NF10084   3.366   6.545  -0.024  0.0413 -0.4634  0.1775
  101OSM    HNF10085   3.274   6.519  -0.050 -1.2328  1.9868  1.9379
  101OSM    C2S10086   3.421   6.461   0.078  0.2542 -0.5200  0.8117
  101OSM    H2S10087   3.530   6.448   0.063  0.0527 -1.4630  0.1011
  101OSM    C3S10088   3.379   6.311   0.077 -0.0781  0.7005 -0.6696
  101OSM    H3S10089   3.269   6.293   0.085  0.0543  0.4931  0.9795
  101OSM     O310090   3.435   6.231   0.181  0.1346  0.3925 -0.9023
  101OSM    HO310091   3.468   6.283   0.255 -2.5371  0.6931  0.1721
  101OSM    C4S10092   3.414   6.263  -0.067  0.1911 -0.3738  0.1768
  101OSM    H4S10093   3.326   6.284  -0.129 -0.2692 -0.2480  0.8576
  101OSM    C5S10094   3.523   6.198  -0.128  0.0551 -0.4622 -0.5020
  101OSM    H5S10095   3.611   6.168  -0.068 -0.7396 -3.1078 -0.5639
  101OSM    C6S10096   3.547   6.172  -0.275 -0.2136  0.5148 -0.1177
  101OSM    H6S10097   3.581   6.067  -0.276  0.2712  0.6678  0.1156
  101OSM    H6T10098   3.628   6.233  -0.320  1.3976 -1.9918 -0.8188
  101OSM    C7S10099   3.420   6.171  -0.362 -0.4605  0.1385 -0.7991
  101OSM    H7S10100   3.367   6.269  -0.359  0.9600  0.9237  0.0179
  101OSM    H7T10101   3.353   6.091  -0.325  0.6045 -0.1420  0.5890
  101OSM    C8S10102   3.451   6.140  -0.507 -1.2832  0.4077 -0.1404
  101OSM    H8S10103   3.360   6.135  -0.571 -1.7249 -0.4891  0.5493
  101OSM    H8T10104   3.509   6.046  -0.504  0.1513  1.2662  0.2060
  101OSM    C9S10105   3.544   6.241  -0.581 -0.6705 -0.4851 -0.4196
  101OSM    H9S10106   3.643   6.238  -0.530 -1.5650  3.0077  1.8602
  101OSM    H9T10107   3.497   6.342  -0.583  0.7220  0.1764 -1.0322
  101OSM   C10S10108   3.569   6.192  -0.721  0.2311 -0.2504  0.6099
  101OSM   H10S10109   3.485   6.172  -0.791  1.8361 -0.6373 -1.3048
  101OSM   H10T10110   3.618   6.092  -0.717 -2.9257 -2.2007 -2.8231
  101OSM   C11S10111   3.649   6.295  -0.807 -0.2152 -0.1056 -0.1915
  101OSM   H11S10112   3.749   6.299  -0.760 -0.6659  2.1117  0.6953
  101OSM   H11T10113   3.606   6.395  -0.788  0.3298  0.4270 -1.6480
  101OSM   C12S10114   3.658   6.254  -0.951 -0.3102 -0.5447 -0.1592
  101OSM   H12S10115   3.630   6.147  -0.958 -2.2296 -0.2110  1.4144
  101OSM   H12T10116   3.760   6.266  -0.991 -0.7758 -2.7006 -2.2070
  101OSM   C13S10117   3.568   6.338  -1.044 -0.2587  0.4477  0.2960
  101OSM   H13S10118   3.605   6.442  -1.029  0.2441  0.2775  0.2532
  101OSM   H13T10119   3.462   6.328  -1.010 -0.3144 -0.3479 -0.0835
  101OSM   C14S10120   3.575   6.300  -1.195 -0.6122  0.4049  0.2180
  101OSM   H14S10121   3.685   6.296  -1.211 -0.2890  2.8508  1.3930
  101OSM   H14T10122   3.525   6.382  -1.252 -0.0455  2.4887  2.5273
  101OSM   C15S10123   3.508   6.170  -1.229 -0.2647  0.3457 -0.2775
  101OSM   H15S10124   3.398   6.186  -1.229 -0.1246  1.8490  2.0799
  101OSM   H15T10125   3.530   6.093  -1.152  3.1318  1.4351  0.0127
  101OSM   C16S10126   3.549   6.104  -1.365  0.1935  0.2328  0.3204
  101OSM   H16S10127   3.492   6.010  -1.382  0.9744  0.0105 -1.2902
  101OSM   H16T10128   3.652   6.062  -1.365 -0.9795 -3.0292 -1.2798
  101OSM   C17S10129   3.540   6.200  -1.491  0.5059  0.1348  0.4367
  101OSM   H17S10130   3.594   6.295  -1.469  2.0686 -0.4047 -0.8230
  101OSM   H17T10131   3.432   6.227  -1.495  0.7210  0.9094 -0.6685
  101OSM   C18S10132   3.585   6.148  -1.627  0.2745 -0.3608  0.3953
  101OSM   H18S10133   3.563   6.218  -1.710 -0.4295 -1.9608 -0.8198
  101OSM   H18T10134   3.532   6.055  -1.657  0.8116 -0.1156 -1.4751
  101OSM   H18U10135   3.696   6.138  -1.633  0.2722 -1.3226  1.5424
  101OSM    C1F10136   3.417   6.667  -0.050  0.1689  0.6369  0.2372
  101OSM     OF10137   3.524   6.698   0.001 -0.1364 -0.0325 -0.1126
  101OSM    C2F10138   3.335   6.753  -0.145 -0.4476  0.3449 -0.5021
  101OSM    H2F10139   3.296   6.845  -0.097 -3.2102 -0.2848 -1.3920
  101OSM    H2G10140   3.246   6.694  -0.174 -2.5928  3.1420  0.0210
  101OSM    C3F10141   3.415   6.799  -0.271 -0.6904  0.4274 -0.3730
  101OSM    H3F10142   3.462   6.709  -0.315 -0.5412  0.6180 -0.6133
  101OSM    H3G10143   3.499   6.865  -0.240 -0.2275  0.9596 -2.5508
  101OSM    C4F10144   3.327   6.872  -0.380  0.4489 -0.6287 -0.2746
  101OSM    H4F10145   3.283   6.967  -0.343  0.5113 -0.5102 -0.5016
  101OSM    H4G10146   3.245   6.803  -0.409  1.0745 -0.4907 -2.5562
  101OSM    C5F10147   3.416   6.894  -0.493  0.0976 -0.0823 -0.1288
  101OSM    H5F10148   3.440   6.793  -0.532 -0.2052 -0.1928 -0.0274
  101OSM    H5G10149   3.509   6.934  -0.447  0.0418  1.1697 -1.0380
  101OSM    C6F10150   3.353   6.986  -0.598 -0.5451 -0.4077  1.1358
  101OSM    H6F10151   3.342   7.086  -0.552 -1.1572  0.9669 -1.7676
  101OSM    H6G10152   3.252   6.955  -0.631 -0.4184 -0.4206  0.7546
  101OSM    C7F10153   3.440   6.983  -0.727  1.3104  0.1114 -0.3319
  101OSM    H7F10154   3.429   6.880  -0.767 -1.3082  0.3194 -0.2666
  101OSM    H7G10155   3.541   7.004  -0.686  0.3674  1.9638  1.2038
  101OSM    C8F10156   3.412   7.100  -0.819 -0.6736  0.6212  0.2384
  101OSM    H8F10157   3.426   7.187  -0.751 -2.1619  1.9613 -1.0861
  101OSM    H8G10158   3.306   7.100  -0.852 -0.6756  0.6543  0.2437
  101OSM    C9F10159   3.517   7.098  -0.922  0.0007 -0.2390 -0.1472
  101OSM    H9F10160   3.617   7.065  -0.891 -0.6260 -0.8029  1.3555
  101OSM   C10F10161   3.493   7.110  -1.060 -0.9106  0.1866  0.1209
  101OSM   H10F10162   3.581   7.099  -1.124  1.2659 -0.4204  2.9838
  101OSM   C11F10163   3.355   7.123  -1.123 -1.0605 -0.7605  0.2643
  101OSM   H11F10164   3.324   7.230  -1.130 -1.7811 -1.0015 -0.4526
  101OSM   H11G10165   3.280   7.075  -1.057 -0.4574 -0.5621  1.1032
  101OSM   C12F10166   3.365   7.065  -1.267 -0.9002 -0.7080 -0.1661
  101OSM   H12F10167   3.270   7.066  -1.325 -0.1379 -0.1442 -1.4526
  101OSM   H12G10168   3.404   6.961  -1.271  1.8924  0.2515 -0.0359
  101OSM   C13F10169   3.450   7.146  -1.369 -0.1610  0.4847  0.3011
  101OSM   H13F10170   3.553   7.156  -1.328 -0.1602 -1.6905  0.9855
  101OSM   H13G10171   3.394   7.237  -1.397 -1.3411 -0.6835 -1.3160
  101OSM   C14F10172   3.465   7.065  -1.499 -0.2437 -0.6142 -0.0902
  101OSM   H14F10173   3.363   7.061  -1.543 -0.2212  0.0210 -0.1989
  101OSM   H14G10174   3.500   6.960  -1.489 -0.6280 -0.8597 -1.2155
  101OSM   C15F10175   3.549   7.144  -1.601 -0.6022  0.6082 -0.2589
  101OSM   H15F10176   3.636   7.178  -1.542  0.3965 -1.8863 -0.1838
  101OSM   H15G10177   3.497   7.236  -1.635 -0.5303 -0.5238 -3.8576
  101OSM   C16F10178   3.600   7.068  -1.722  0.2492 -0.7582  0.0166
  101OSM   H16F10179   3.515   7.040  -1.787  1.0220  2.4304 -2.6474
  101OSM   H16G10180   3.659   6.982  -1.685 -0.3926 -0.1424  2.7029
  101OSM   C17F10181   3.707   7.152  -1.795 -0.2904  0.2000 -0.2929
  101OSM   H17F10182   3.796   7.168  -1.730 -1.2690 -2.1046  1.8005
  101OSM   H17G10183   3.664   7.252  -1.818  0.7212  0.9390  0.8845
  101OSM   C18F10184   3.770   7.083  -1.919 -0.0859  0.5630  0.0884
  101OSM   H18F10185   3.698   7.078  -2.003 -2.3431  1.2192  1.8876
  101OSM   H18G10186   3.790   6.975  -1.901  2.5937  0.7850 -1.0079
  101OSM   H18H10187   3.862   7.135  -1.955  1.1152 -2.2290 -1.2819
  102OSM      N10188   6.153   4.198   1.057 -0.5967 -0.9065 -0.1104
  102OSM    C1510189   6.137   4.113   1.181  0.2001  0.1732  0.5738
  102OSM   H15A10190   6.104   4.012   1.158 -0.4496  0.8848 -1.8742
  102OSM   H15B10191   6.061   4.157   1.245 -1.5934 -0.9319 -0.6853
  102OSM   H15C10192   6.226   4.110   1.241  0.0467  1.3664  0.8763
  102OSM    C1410193   6.211   4.331   1.106  0.2571  0.4853  0.0594
  102OSM   H14A10194   6.152   4.362   1.191 -1.7098  0.1766 -1.1439
  102OSM   H14B10195   6.206   4.403   1.025  1.1617  0.8874  0.3485
  102OSM   H14C10196   6.312   4.318   1.142 -0.3221 -1.6862  1.0367
  102OSM    C1310197   6.257   4.132   0.981 -0.7774 -0.4853  0.0502
  102OSM   H13A10198   6.350   4.164   1.025  0.0381 -1.1722 -1.0976
  102OSM   H13B10199   6.277   4.169   0.881 -0.0595 -0.3114  0.2550
  102OSM   H13C10200   6.255   4.024   0.986  2.1113 -0.6801 -1.1381
  102OSM    C1210201   6.032   4.211   0.977 -0.1592 -0.0687 -0.4010
  102OSM   H12A10202   5.956   4.257   1.039  0.1569 -0.6684  0.4511
  102OSM   H12B10203   5.995   4.115   0.943 -0.0391 -1.0385  2.0121
  102OSM    C1110204   6.029   4.300   0.847 -0.0825  0.0579 -0.9930
  102OSM   H11A10205   5.923   4.289   0.816 -1.0905  1.1847  1.6899
  102OSM   H11B10206   6.105   4.266   0.774  0.6318 -1.0899  0.2293
  102OSM      P10207   5.930   4.517   0.947 -0.5282  0.1861  0.2602
  102OSM    O1310208   5.877   4.446   1.060 -0.4130  0.0502  0.2571
  102OSM    O1410209   5.979   4.652   0.979  0.2460  0.0988  0.4980
  102OSM    O1110210   5.821   4.529   0.840  0.5494  0.9410  0.0611
  102OSM    O1210211   6.049   4.437   0.883 -0.7818 -0.0796  0.1628
  102OSM    C1S10212   5.805   4.620   0.732  0.1804 -0.2012  0.0778
  102OSM    H1S10213   5.864   4.712   0.752  1.6742 -1.2857  1.0106
  102OSM    H1T10214   5.698   4.642   0.715  0.3109 -0.5538 -1.3232
  102OSM     NF10215   5.882   4.676   0.505  0.1170 -0.6952  0.2433
  102OSM    HNF10216   5.811   4.695   0.438  0.6045 -2.6897 -0.9218
  102OSM    C2S10217   5.852   4.564   0.591  0.4506 -0.3994 -0.4512
  102OSM    H2S10218   5.945   4.505   0.606  1.0704  0.7924  0.6301
  102OSM    C3S10219   5.752   4.460   0.538  0.1907  0.6504  0.1885
  102OSM    H3S10220   5.655   4.511   0.521 -0.6140 -0.3779  1.5339
  102OSM     O310221   5.723   4.361   0.635  0.1183 -0.5065  0.5053
  102OSM    HO310222   5.721   4.406   0.720 -0.6691 -0.5101  0.5004
  102OSM    C4S10223   5.809   4.392   0.425  0.1335  0.7423  1.0031
  102OSM    H4S10224   5.903   4.337   0.442  0.1185 -0.0888 -1.2295
  102OSM    C5S10225   5.760   4.387   0.299 -0.7452  0.0828  0.0980
  102OSM    H5S10226   5.664   4.435   0.276  0.6586  1.7460 -2.8111
  102OSM    C6S10227   5.813   4.294   0.188 -0.5827  0.5010  0.2147
  102OSM    H6S10228   5.747   4.216   0.144 -0.9816  1.0483 -0.1724
  102OSM    H6T10229   5.894   4.234   0.235 -0.7832  0.7552  0.8920
  102OSM    C7S10230   5.858   4.369   0.066  0.4166  0.0248 -0.1781
  102OSM    H7S10231   5.927   4.447   0.105 -0.3587  0.0653  1.1419
  102OSM    H7T10232   5.780   4.423   0.008 -0.6466 -0.0269  1.1533
  102OSM    C8S10233   5.936   4.285  -0.034 -0.1344  0.3610  0.4261
  102OSM    H8S10234   5.867   4.219  -0.090  0.4473  0.5832 -0.5687
  102OSM    H8T10235   6.000   4.224   0.034 -0.4952 -2.7369 -1.7949
  102OSM    C9S10236   6.013   4.358  -0.140 -0.2591  0.2915  0.8355
  102OSM    H9S10237   6.051   4.456  -0.105 -0.2377  0.6862 -0.2750
  102OSM    H9T10238   5.953   4.368  -0.232  3.0737  1.2108 -1.4236
  102OSM   C10S10239   6.146   4.285  -0.181 -0.2528  0.1831  0.5822
  102OSM   H10S10240   6.130   4.175  -0.177  3.4653 -0.6900 -2.4797
  102OSM   H10T10241   6.217   4.319  -0.102 -0.1927  1.7895 -0.1203
  102OSM   C11S10242   6.196   4.333  -0.320  0.2147 -0.2142  0.2466
  102OSM   H11S10243   6.296   4.293  -0.345 -0.5130 -1.1648 -1.2925
  102OSM   H11T10244   6.209   4.443  -0.324  1.9501 -0.4118 -0.4480
  102OSM   C12S10245   6.099   4.277  -0.429  0.1019 -0.6951 -0.0311
  102OSM   H12S10246   5.994   4.299  -0.399  1.1545  2.0380  2.0260
  102OSM   H12T10247   6.111   4.166  -0.428  0.5553 -0.6567  1.8457
  102OSM   C13S10248   6.129   4.339  -0.569 -0.1885 -0.5360 -0.0803
  102OSM   H13S10249   6.232   4.362  -0.604 -1.0016  1.1571 -1.5065
  102OSM   H13T10250   6.086   4.441  -0.565  0.1943 -0.3909  0.4042
  102OSM   C14S10251   6.058   4.266  -0.686 -0.4560 -0.1706  0.0183
  102OSM   H14S10252   6.091   4.160  -0.693 -1.2181 -0.4792  0.8683
  102OSM   H14T10253   6.093   4.326  -0.773  1.5962  3.1057  2.8088
  102OSM   C15S10254   5.901   4.271  -0.687  0.3256  0.1389 -0.2570
  102OSM   H15S10255   5.857   4.372  -0.675  0.6831  0.1496  1.1769
  102OSM   H15T10256   5.867   4.201  -0.608 -1.3153  1.1993  0.0020
  102OSM   C16S10257   5.844   4.225  -0.827 -0.7624 -0.3910 -0.4433
  102OSM   H16S10258   5.761   4.154  -0.812 -1.8747  1.0286  0.3602
  102OSM   H16T10259   5.922   4.179  -0.891  1.3573  1.4401  0.6848
  102OSM   C17S10260   5.781   4.343  -0.912  0.0838 -0.4211 -0.4023
  102OSM   H17S10261   5.710   4.402  -0.849  1.5503 -0.0750  1.0023
  102OSM   H17T10262   5.723   4.300  -0.996 -0.8408  0.1581 -0.0783
  102OSM   C18S10263   5.899   4.431  -0.964  0.4717 -0.4386  0.9098
  102OSM   H18S10264   5.988   4.370  -0.991  0.4381  0.4769 -1.5091
  102OSM   H18T10265   5.927   4.495  -0.877 -2.4799 -1.4773  2.7814
  102OSM   H18U10266   5.887   4.504  -1.047  1.1491 -1.5243 -0.1555
  102OSM    C1F10267   6.007   4.733   0.501 -0.3700 -0.5452 -1.0439
  102OSM     OF10268   6.100   4.711   0.589 -0.2763  0.7277  0.2779
  102OSM    C2F10269   6.036   4.815   0.378 -0.9427 -0.6639 -0.8107
  102OSM    H2F10270   6.140   4.854   0.392 -0.1486 -2.9512  0.1365
  102OSM    H2G10271   5.975   4.907   0.363  2.2314  1.8399  0.4504
  102OSM    C3F10272   6.025   4.740   0.244  0.1705  0.3839 -0.3504
  102OSM    H3F10273   5.938   4.673   0.263 -0.4201  1.8066  2.5569
  102OSM    H3G10274   6.110   4.669   0.237 -0.6612 -0.8020  1.0636
  102OSM    C4F10275   6.015   4.828   0.122  0.0791 -0.9528 -0.4531
  102OSM    H4F10276   6.116   4.868   0.098  0.4955 -1.9944 -0.4891
  102OSM    H4G10277   5.945   4.910   0.148 -0.4721 -1.5473 -0.0539
  102OSM    C5F10278   5.969   4.745   0.001 -0.5109  0.2912 -0.0268
  102OSM    H5F10279   5.861   4.720   0.015 -0.1252 -0.6395  1.5112
  102OSM    H5G10280   6.018   4.646   0.006 -3.6833 -1.4191 -0.2515
  102OSM    C6F10281   6.007   4.811  -0.129  0.0864  0.0953 -0.0937
  102OSM    H6F10282   6.114   4.837  -0.113 -0.4184  2.0415  0.4253
  102OSM    H6G10283   5.961   4.912  -0.134  2.3863  1.2868  0.9184
  102OSM    C7F10284   5.969   4.747  -0.265 -0.5935  0.3789 -0.2410
  102OSM    H7F10285   5.862   4.718  -0.265 -0.7901  1.0493  1.0371
  102OSM    H7G10286   6.023   4.650  -0.259 -0.4487  0.5540  2.0332
  102OSM    C8F10287   6.004   4.817  -0.396 -0.6710  1.2022 -0.0529
  102OSM    H8F10288   6.114   4.803  -0.405 -0.9268 -1.6882  0.3672
  102OSM    H8G10289   5.964   4.920  -0.389 -0.2564  1.2691  1.8908
  102OSM    C9F10290   5.940   4.751  -0.514 -0.1752  0.1116  0.3514
  102OSM    H9F10291   5.831   4.745  -0.503 -0.2357  2.0743  1.1701
  102OSM   C10F10292   5.999   4.722  -0.631  0.6396 -0.3620  0.6394
  102OSM   H10F10293   5.930   4.677  -0.704 -0.6502  1.6926  0.5272
  102OSM   C11F10294   6.135   4.749  -0.688  0.1844 -0.2678  0.4023
  102OSM   H11F10295   6.189   4.652  -0.683 -1.8153 -1.4407  0.3205
  102OSM   H11G10296   6.182   4.818  -0.614 -0.1607  0.1753  0.2173
  102OSM   C12F10297   6.133   4.811  -0.832  0.6343 -0.1773 -0.4472
  102OSM   H12F10298   6.233   4.857  -0.843 -0.1681  1.7593 -0.0855
  102OSM   H12G10299   6.062   4.897  -0.827  1.1384  0.1650  2.2835
  102OSM   C13F10300   6.091   4.710  -0.945  0.0471 -0.3562  0.2540
  102OSM   H13F10301   5.985   4.680  -0.935 -0.6948  1.9213 -0.1105
  102OSM   H13G10302   6.154   4.618  -0.947 -0.3268 -0.6006 -0.6306
  102OSM   C14F10303   6.110   4.776  -1.086  0.4536 -0.0225  0.1105
  102OSM   H14F10304   6.220   4.793  -1.086  0.6943 -1.4139  1.0455
  102OSM   H14G10305   6.065   4.877  -1.095 -2.3746 -1.2999 -1.8622
  102OSM   C15F10306   6.054   4.697  -1.204  0.2847 -0.0134 -0.6233
  102OSM   H15F10307   5.945   4.713  -1.213  0.2505 -1.0012 -2.6992
  102OSM   H15G10308   6.080   4.589  -1.194 -0.0446 -0.0093  0.3150
  102OSM   C16F10309   6.111   4.755  -1.334  0.5983  0.8571  0.6113
  102OSM   H16F10310   6.221   4.739  -1.331  0.7801  2.0666  1.0664
  102OSM   H16G10311   6.091   4.864  -1.338  1.1394  0.9306 -0.7311
  102OSM   C17F10312   6.046   4.695  -1.460  0.1690 -0.6489  0.3435
  102OSM   H17F10313   5.937   4.715  -1.458  0.5134  1.7358 -0.6769
  102OSM   H17G10314   6.050   4.584  -1.460 -0.8338 -0.7422  2.6681
  102OSM   C18F10315   6.104   4.750  -1.591 -0.5022  0.6559 -0.4691
  102OSM   H18F10316   6.213   4.732  -1.591 -0.5774  0.1192 -1.4282
  102OSM   H18G10317   6.090   4.859  -1.604  0.0923  0.7972  0.0449
  102OSM   H18H10318   6.070   4.688  -1.677  0.1534 -0.6043  0.1554
  103OSM      N10319   3.156   0.627   0.309 -0.1829  0.3608  0.5350
  103OSM    C1510320   3.240   0.755   0.297 -0.6646  0.3128  0.2394
  103OSM   H15A10321   3.288   0.796   0.385 -3.0607  2.0221  0.8508
  103OSM   H15B10322   3.182   0.837   0.258 -2.8418 -0.7278  1.1671
  103OSM   H15C10323   3.310   0.746   0.215  1.9206 -0.7249  2.3931
  103OSM    C1410324   3.249   0.522   0.368  0.5181  0.1493 -0.6500
  103OSM   H14A10325   3.200   0.428   0.389 -1.6592  1.7424  2.1461
  103OSM   H14B10326   3.294   0.563   0.457 -2.5671  1.1649  0.5873
  103OSM   H14C10327   3.331   0.505   0.299  0.3042  0.7797 -1.0719
  103OSM    C1310328   3.043   0.668   0.401  0.0687  0.7222 -0.6247
  103OSM   H13A10329   3.086   0.701   0.494 -0.0325 -2.9083  0.8625
  103OSM   H13B10330   2.980   0.582   0.418  1.5201 -0.6874 -1.9600
  103OSM   H13C10331   2.985   0.749   0.360 -2.9460 -1.6728 -1.4871
  103OSM    C1210332   3.112   0.605   0.172  0.2640  0.2203  0.2136
  103OSM   H12A10333   3.197   0.578   0.111  1.5858 -1.4259  2.5756
  103OSM   H12B10334   3.077   0.698   0.130  0.8625  0.2646 -0.1994
  103OSM    C1110335   2.999   0.493   0.157 -0.2245  0.2580  0.5874
  103OSM   H11A10336   3.053   0.409   0.205  0.2448  0.2059 -0.0205
  103OSM   H11B10337   2.987   0.490   0.046  2.2741  1.4445  0.2302
  103OSM      P10338   2.754   0.410   0.192  0.0689  0.0430  0.2549
  103OSM    O1310339   2.813   0.274   0.183  0.2746 -0.2707  0.5351
  103OSM    O1410340   2.650   0.431   0.291  0.0084 -0.9029 -0.5430
  103OSM    O1110341   2.699   0.464   0.051 -0.7130 -0.0763  0.7084
  103OSM    O1210342   2.876   0.511   0.224  0.8200  0.2237 -0.0518
  103OSM    C1S10343   2.715   0.361  -0.049  0.8272 -0.3628 -0.3782
  103OSM    H1S10344   2.661   0.266  -0.029  1.3772 -0.8982 -1.3241
  103OSM    H1T10345   2.821   0.330  -0.065  1.6819  1.1273  1.9085
  103OSM     NF10346   2.651   0.328  -0.289 -0.2358 -0.1845  0.1843
  103OSM    HNF10347   2.717   0.326  -0.364 -0.9485 -3.3534 -0.5294
  103OSM    C2S10348   2.664   0.426  -0.184  0.1606 -0.1584 -0.5146
  103OSM    H2S10349   2.564   0.463  -0.153  0.5645  0.5437 -0.0187
  103OSM    C3S10350   2.751   0.558  -0.213  0.5647  0.6958  0.5472
  103OSM    H3S10351   2.858   0.528  -0.207  0.0544 -1.4000  0.0268
  103OSM     O310352   2.730   0.657  -0.112  0.3457 -0.3277 -0.2342
  103OSM    HO310353   2.727   0.603  -0.033 -1.4961 -0.6323 -0.4856
  103OSM    C4S10354   2.717   0.604  -0.352 -0.0446  0.7176 -0.3639
  103OSM    H4S10355   2.792   0.584  -0.430 -1.0392  0.6913 -1.3376
  103OSM    C5S10356   2.605   0.674  -0.386  0.0547 -0.3829  0.0774
  103OSM    H5S10357   2.529   0.704  -0.312 -1.4954 -2.3681 -0.5940
  103OSM    C6S10358   2.586   0.727  -0.522  0.0226 -0.2900 -0.0456
  103OSM    H6S10359   2.539   0.827  -0.510  1.7880  0.7050 -0.9705
  103OSM    H6T10360   2.532   0.652  -0.584  1.5844 -1.1379 -0.4391
  103OSM    C7S10361   2.720   0.754  -0.600  0.3529 -0.0551 -0.2098
  103OSM    H7S10362   2.764   0.661  -0.642  0.0384  0.1211 -0.9483
  103OSM    H7T10363   2.798   0.792  -0.530 -0.7491 -2.8655  2.8001
  103OSM    C8S10364   2.706   0.849  -0.726 -0.1889 -0.0775 -0.5896
  103OSM    H8S10365   2.698   0.954  -0.689  0.1386 -0.2101 -0.1270
  103OSM    H8T10366   2.612   0.818  -0.775 -1.1669  0.2903  0.9922
  103OSM    C9S10367   2.806   0.830  -0.840  0.0062  0.2200  1.3569
  103OSM    H9S10368   2.794   0.725  -0.875 -0.3887  0.4814  0.6929
  103OSM    H9T10369   2.909   0.844  -0.799  2.2518  0.0700 -3.5262
  103OSM   C10S10370   2.768   0.930  -0.950 -0.4461  0.4339  0.4484
  103OSM   H10S10371   2.781   1.030  -0.904 -0.1032 -0.9307  3.5811
  103OSM   H10T10372   2.669   0.904  -0.992  0.1349 -0.5469 -0.3658
  103OSM   C11S10373   2.867   0.917  -1.069 -0.8901  0.0977  0.2273
  103OSM   H11S10374   2.870   0.809  -1.093  0.1114 -0.1746  1.5098
  103OSM   H11T10375   2.969   0.946  -1.036 -0.9855  1.6662 -0.7511
  103OSM   C12S10376   2.821   0.991  -1.199  0.3933 -0.9111 -0.0910
  103OSM   H12S10377   2.791   1.091  -1.161  1.2224 -1.3867  1.9039
  103OSM   H12T10378   2.731   0.939  -1.238 -0.7330  0.4785  0.5652
  103OSM   C13S10379   2.941   1.013  -1.305  0.0100 -0.1616  0.0037
  103OSM   H13S10380   3.021   1.069  -1.252  2.7908 -2.1502 -1.8024
  103OSM   H13T10381   2.890   1.051  -1.395 -0.9293  0.0641  0.6194
  103OSM   C14S10382   3.022   0.890  -1.351  0.0971  0.0304 -0.2430
  103OSM   H14S10383   2.955   0.816  -1.401 -1.6532  0.9881  0.5732
  103OSM   H14T10384   3.068   0.841  -1.262 -1.3244 -0.2338  0.3913
  103OSM   C15S10385   3.124   0.944  -1.449 -0.2234 -0.7783  0.5622
  103OSM   H15S10386   3.168   1.041  -1.419 -1.4449 -0.2337  0.6279
  103OSM   H15T10387   3.077   0.964  -1.548 -0.8848  0.2409  1.0670
  103OSM   C16S10388   3.239   0.848  -1.486 -0.2673 -0.1234  0.1575
  103OSM   H16S10389   3.306   0.830  -1.399  0.5732  0.9360 -0.2561
  103OSM   H16T10390   3.311   0.891  -1.558  0.2326 -2.7752 -1.0329
  103OSM   C17S10391   3.198   0.710  -1.543  0.5604  0.3406  0.0422
  103OSM   H17S10392   3.155   0.719  -1.645  2.2615 -0.3599 -0.7789
  103OSM   H17T10393   3.116   0.672  -1.478  0.8225  1.1017  0.8274
  103OSM   C18S10394   3.303   0.597  -1.551 -0.7206 -0.5024  0.1364
  103OSM   H18S10395   3.254   0.500  -1.573 -0.5230 -0.4621 -0.5095
  103OSM   H18T10396   3.370   0.595  -1.463 -0.1126  0.9858 -0.2616
  103OSM   H18U10397   3.367   0.624  -1.638  0.6734  0.5779  1.4375
  103OSM    C1F10398   2.557   0.230  -0.275 -0.6388  0.2189  0.6407
  103OSM     OF10399   2.460   0.253  -0.204  0.1793  0.1643 -0.4536
  103OSM    C2F10400   2.583   0.100  -0.346 -0.0929  0.1706  0.3940
  103OSM    H2F10401   2.644   0.032  -0.284  1.1938 -2.0477 -2.9981
  103OSM    H2G10402   2.643   0.113  -0.439 -2.5454  0.8759 -1.1989
  103OSM    C3F10403   2.443   0.045  -0.387  0.1184 -0.0051  0.5060
  103OSM    H3F10404   2.391   0.121  -0.449 -0.2007 -1.9517 -1.7335
  103OSM    H3G10405   2.381   0.021  -0.298  0.0543  0.5208  0.6082
  103OSM    C4F10406   2.427  -0.082  -0.473  0.2148 -0.1258  0.2969
  103OSM    H4F10407   2.321  -0.077  -0.507  1.1596 -1.5301 -3.2541
  103OSM    H4G10408   2.437  -0.180  -0.420  0.8545 -0.7132 -0.8798
  103OSM    C5F10409   2.518  -0.083  -0.598 -0.7515 -0.0002 -0.4643
  103OSM    H5F10410   2.616  -0.063  -0.550 -0.4541 -0.9683 -0.6558
  103OSM    H5G10411   2.488  -0.003  -0.669 -1.4011  0.4343  0.2732
  103OSM    C6F10412   2.533  -0.222  -0.669 -0.1500  0.5634 -0.6287
  103OSM    H6F10413   2.435  -0.254  -0.710 -0.0605 -4.5882  2.2862
  103OSM    H6G10414   2.568  -0.300  -0.597  0.5609  2.8186  1.6395
  103OSM    C7F10415   2.631  -0.218  -0.786  0.5337 -0.3123  0.1059
  103OSM    H7F10416   2.720  -0.174  -0.738 -0.2900  0.6092  0.8376
  103OSM    H7G10417   2.597  -0.141  -0.859  0.3486 -0.0461  0.4692
  103OSM    C8F10418   2.647  -0.348  -0.846  0.2960  0.3818  0.0851
  103OSM    H8F10419   2.554  -0.377  -0.899 -2.5891  0.4233  4.6196
  103OSM    H8G10420   2.660  -0.421  -0.764  1.3809 -1.4351 -1.6287
  103OSM    C9F10421   2.770  -0.350  -0.939  0.3669 -0.6684  0.3619
  103OSM    H9F10422   2.870  -0.340  -0.894  0.0672  1.0117  0.7331
  103OSM   C10F10423   2.768  -0.351  -1.077 -0.0324 -0.0832 -0.3351
  103OSM   H10F10424   2.862  -0.341  -1.133  0.9714 -1.5857  0.9584
  103OSM   C11F10425   2.648  -0.358  -1.168 -0.3206 -0.5657  0.7270
  103OSM   H11F10426   2.570  -0.287  -1.133 -0.6815 -0.7242  0.2579
  103OSM   H11G10427   2.589  -0.453  -1.167 -1.6948  0.2491  0.0779
  103OSM   C12F10428   2.670  -0.310  -1.319  0.1939  0.1660 -0.3411
  103OSM   H12F10429   2.729  -0.216  -1.321 -2.5403  1.9772 -1.2163
  103OSM   H12G10430   2.567  -0.288  -1.356  0.0380  0.5403  0.3195
  103OSM   C13F10431   2.735  -0.422  -1.404  0.2001 -0.4222 -0.0632
  103OSM   H13F10432   2.658  -0.499  -1.423 -0.3793  0.8228 -3.6204
  103OSM   H13G10433   2.834  -0.449  -1.360  1.0870  1.3489 -0.8561
  103OSM   C14F10434   2.779  -0.376  -1.544  0.2300  0.2368  0.6677
  103OSM   H14F10435   2.823  -0.467  -1.590 -2.3667 -0.1074 -1.3941
  103OSM   H14G10436   2.849  -0.290  -1.549  0.8396 -0.2673  0.3848
  103OSM   C15F10437   2.667  -0.344  -1.645  0.4480 -0.2889 -0.1594
  103OSM   H15F10438   2.615  -0.250  -1.619 -0.7719 -0.4523 -1.8578
  103OSM   H15G10439   2.590  -0.423  -1.655  1.1338 -1.0193  0.1906
  103OSM   C16F10440   2.711  -0.333  -1.797  0.0879  0.2705 -1.0642
  103OSM   H16F10441   2.783  -0.251  -1.817  0.1633  0.7306  0.9251
  103OSM   H16G10442   2.621  -0.321  -1.862 -2.3438 -2.6984  1.3939
  103OSM   C17F10443   2.795  -0.447  -1.849 -0.4528  0.3976  0.3199
  103OSM   H17F10444   2.744  -0.545  -1.842  3.0006 -1.6590 -0.7745
  103OSM   H17G10445   2.897  -0.446  -1.803 -0.3527 -1.0726  0.1845
  103OSM   C18F10446   2.827  -0.418  -2.000 -0.8784  1.3343  0.5316
  103OSM   H18F10447   2.915  -0.472  -2.042 -1.8730  1.1219 -1.4486
  103OSM   H18G10448   2.872  -0.317  -2.013  1.5204  0.2185 -0.5502
  103OSM   H18H10449   2.739  -0.438  -2.065 -0.1380  1.0848 -0.4303
  104OSM      N10450   4.419   6.787   0.495  0.5359 -0.0780 -0.1371
  104OSM    C1510451   4.444   6.746   0.344 -0.6033  0.4856  0.0487
  104OSM   H15A10452   4.405   6.822   0.277 -1.7911  0.9118  1.1787
  104OSM   H15B10453   4.391   6.655   0.322 -0.4947  0.2449  0.7577
  104OSM   H15C10454   4.550   6.727   0.335 -0.4539  0.5105  1.5008
  104OSM    C1410455   4.495   6.692   0.573 -0.1602 -0.0526  0.4107
  104OSM   H14A10456   4.598   6.708   0.547 -0.5977  0.1784 -1.3311
  104OSM   H14B10457   4.472   6.587   0.576  0.9326 -0.2835  1.8592
  104OSM   H14C10458   4.488   6.728   0.675  0.5076  0.3403  0.3236
  104OSM    C1310459   4.483   6.919   0.502 -0.2266  0.0091  0.2374
  104OSM   H13A10460   4.586   6.910   0.473 -1.0323 -0.7596 -2.6296
  104OSM   H13B10461   4.485   6.954   0.605  1.7127 -1.0104  0.5969
  104OSM   H13C10462   4.445   6.994   0.434  2.6503  0.4139 -1.0538
  104OSM    C1210463   4.269   6.775   0.520  0.1118 -0.6928  0.4102
  104OSM   H12A10464   4.250   6.802   0.623 -0.2269 -1.0841  0.4508
  104OSM   H12B10465   4.239   6.672   0.513 -1.1182 -0.2786 -0.7561
  104OSM    C1110466   4.176   6.865   0.444 -0.1865 -0.9667  0.2254
  104OSM   H11A10467   4.074   6.821   0.448 -0.2074 -0.8386  1.4183
  104OSM   H11B10468   4.208   6.883   0.339  1.5298  1.5232  1.0629
  104OSM      P10469   4.202   7.128   0.459 -0.0807 -0.1319 -0.0865
  104OSM    O1310470   4.089   7.218   0.508 -0.7477 -0.3344  0.1580
  104OSM    O1410471   4.340   7.171   0.494  0.0526  0.3845 -0.2949
  104OSM    O1110472   4.199   7.131   0.301  0.5441 -0.4465  0.1962
  104OSM    O1210473   4.176   6.984   0.514  0.0587 -0.0031  0.1042
  104OSM    C1S10474   4.069   7.145   0.240  0.4368  0.4012  0.9582
  104OSM    H1S10475   4.017   7.235   0.279  0.8656 -0.4030  3.5345
  104OSM    H1T10476   4.000   7.061   0.262 -3.0351  2.0007 -2.4871
  104OSM     NF10477   3.943   7.195   0.032 -0.5461  0.0719  0.2417
  104OSM    HNF10478   3.891   7.119  -0.007 -0.2698 -0.1960  0.3953
  104OSM    C2S10479   4.076   7.159   0.085 -0.1874  0.1107  0.0625
  104OSM    H2S10480   4.144   7.245   0.070 -2.3375  1.7079 -0.9910
  104OSM    C3S10481   4.158   7.041   0.020 -0.2497 -0.1675 -0.8086
  104OSM    H3S10482   4.111   6.941   0.031  0.6383 -0.4262  1.1300
  104OSM     O310483   4.281   7.013   0.090  0.3813 -0.0084  0.5137
  104OSM    HO310484   4.274   7.067   0.170  1.5696  1.0050 -0.0161
  104OSM    C4S10485   4.179   7.077  -0.126 -0.5137  0.6093  0.4041
  104OSM    H4S10486   4.264   7.144  -0.143  1.2701 -2.2070 -2.9959
  104OSM    C5S10487   4.129   7.028  -0.240 -0.1031 -0.0800 -0.2436
  104OSM    H5S10488   4.036   6.971  -0.230  0.6217 -1.2015  0.4374
  104OSM    C6S10489   4.163   7.052  -0.383  0.0838 -0.4720 -0.5920
  104OSM    H6S10490   4.079   7.063  -0.454  0.6583  0.6492 -1.1168
  104OSM    H6T10491   4.223   6.963  -0.410  2.1401  0.5339  0.4573
  104OSM    C7S10492   4.265   7.168  -0.409  0.7417  0.7660 -0.2920
  104OSM    H7S10493   4.280   7.160  -0.519 -2.7911  0.6006 -0.8551
  104OSM    H7T10494   4.361   7.160  -0.353  1.6677 -1.2643 -2.0282
  104OSM    C8S10495   4.215   7.314  -0.393  0.2653 -0.4869 -0.1404
  104OSM    H8S10496   4.187   7.321  -0.286  2.0418  0.6044  0.3089
  104OSM    H8T10497   4.117   7.331  -0.443  0.6422 -3.0633 -1.9080
  104OSM    C9S10498   4.319   7.422  -0.429 -0.1444 -0.2940 -0.3707
  104OSM    H9S10499   4.413   7.420  -0.370 -0.8325 -2.0678  0.7389
  104OSM    H9T10500   4.262   7.516  -0.414 -0.9061 -0.8094  0.0061
  104OSM   C10S10501   4.364   7.417  -0.573  0.2437 -0.4627  0.0769
  104OSM   H10S10502   4.282   7.433  -0.646  0.7629  2.8283  0.0547
  104OSM   H10T10503   4.404   7.314  -0.589  1.5812  0.1809 -0.9488
  104OSM   C11S10504   4.475   7.519  -0.605  0.1738  0.1736  0.5679
  104OSM   H11S10505   4.558   7.507  -0.532  0.8621 -2.7827 -0.5351
  104OSM   H11T10506   4.433   7.621  -0.596  1.0627  0.5109  1.0688
  104OSM   C12S10507   4.541   7.501  -0.738  0.0421  1.1554  0.7811
  104OSM   H12S10508   4.601   7.407  -0.740  1.4235  2.0293  0.1913
  104OSM   H12T10509   4.615   7.581  -0.757 -0.2363  0.8493 -2.0152
  104OSM   C13S10510   4.449   7.522  -0.859  0.3048 -0.5580  0.2183
  104OSM   H13S10511   4.400   7.620  -0.842  0.1366 -0.5460 -0.3163
  104OSM   H13T10512   4.378   7.437  -0.865  0.7699 -0.8645 -1.9344
  104OSM   C14S10513   4.518   7.516  -0.999  0.1500 -0.4205  0.1048
  104OSM   H14S10514   4.559   7.414  -1.011  0.3161 -0.5114  1.3404
  104OSM   H14T10515   4.607   7.581  -1.014 -0.5055  0.9510  1.8104
  104OSM   C15S10516   4.421   7.550  -1.110  0.8453  0.1155  0.0832
  104OSM   H15S10517   4.368   7.644  -1.085  0.8345 -0.2088  1.3698
  104OSM   H15T10518   4.348   7.467  -1.124 -0.3487  1.2957 -0.9118
  104OSM   C16S10519   4.486   7.558  -1.252  0.1120  0.0781 -0.1287
  104OSM   H16S10520   4.554   7.475  -1.281  0.5480  0.3589  0.0775
  104OSM   H16T10521   4.557   7.644  -1.248  2.7405 -1.9960  1.9941
  104OSM   C17S10522   4.382   7.571  -1.363 -0.3744 -1.1814 -0.6458
  104OSM   H17S10523   4.305   7.643  -1.328  2.1705  0.5397  1.9638
  104OSM   H17T10524   4.334   7.471  -1.360 -0.1682 -1.2782  1.5661
  104OSM   C18S10525   4.441   7.605  -1.502  0.6572  0.0468 -0.7805
  104OSM   H18S10526   4.491   7.703  -1.488 -0.6723  0.7022 -0.4345
  104OSM   H18T10527   4.352   7.610  -1.569  0.8648 -1.1223 -1.1833
  104OSM   H18U10528   4.502   7.518  -1.536  1.0222  0.1821 -0.4719
  104OSM    C1F10529   3.882   7.314   0.061 -0.1398 -0.1137  0.0512
  104OSM     OF10530   3.952   7.415   0.099  0.1746  0.1744  0.1904
  104OSM    C2F10531   3.738   7.320   0.033  0.0374  0.5056 -0.1600
  104OSM    H2F10532   3.697   7.362   0.127 -3.4941 -1.6287 -0.5345
  104OSM    H2G10533   3.701   7.217   0.014 -1.3814  1.1209 -0.8495
  104OSM    C3F10534   3.699   7.410  -0.082  0.1816  0.7107  0.5253
  104OSM    H3F10535   3.744   7.511  -0.074  0.0066  0.7767  0.6926
  104OSM    H3G10536   3.588   7.419  -0.091  0.1834 -0.0841 -0.4952
  104OSM    C4F10537   3.743   7.358  -0.223 -0.2452  0.6068 -0.4185
  104OSM    H4F10538   3.853   7.342  -0.230 -0.4657 -1.8327  0.4940
  104OSM    H4G10539   3.725   7.426  -0.309 -0.3103 -1.2450 -1.9599
  104OSM    C5F10540   3.667   7.228  -0.269 -0.3675  0.2574 -0.4025
  104OSM    H5F10541   3.562   7.258  -0.254 -0.6004 -1.1441  0.9935
  104OSM    H5G10542   3.682   7.144  -0.198 -2.0902  0.3307  0.0813
  104OSM    C6F10543   3.690   7.187  -0.417  0.4048 -0.1828  0.1476
  104OSM    H6F10544   3.665   7.274  -0.481  4.2318  1.2355  0.3544
  104OSM    H6G10545   3.626   7.101  -0.445  1.2924 -0.3647 -1.4309
  104OSM    C7F10546   3.829   7.140  -0.457  0.3557  0.3199  0.3714
  104OSM    H7F10547   3.854   7.072  -0.373 -0.0045  0.8205  0.8835
  104OSM    H7G10548   3.905   7.222  -0.467  0.6004  0.0638  0.1159
  104OSM    C8F10549   3.828   7.063  -0.598  0.1963 -0.0167 -0.5333
  104OSM    H8F10550   3.741   6.995  -0.598 -0.9288  1.1548  3.2786
  104OSM    H8G10551   3.922   7.004  -0.601 -1.1398 -2.3004  0.3126
  104OSM    C9F10552   3.808   7.163  -0.712  0.0491 -0.6673 -0.0059
  104OSM    H9F10553   3.730   7.241  -0.700 -0.6154 -1.4523  0.9108
  104OSM   C10F10554   3.890   7.181  -0.812  0.2791  0.1250  1.1508
  104OSM   H10F10555   3.851   7.252  -0.886  0.8048 -0.6764  0.0769
  104OSM   C11F10556   4.023   7.116  -0.845 -0.2853  0.4968  0.1343
  104OSM   H11F10557   4.002   7.042  -0.925  2.4131 -0.9222  0.6022
  104OSM   H11G10558   4.070   7.061  -0.760  0.5435  1.5151  0.3604
  104OSM   C12F10559   4.132   7.222  -0.886  0.5563  0.6155  0.4210
  104OSM   H12F10560   4.145   7.288  -0.798  0.4872  0.0886  0.8353
  104OSM   H12G10561   4.105   7.282  -0.976 -0.1667 -1.7284 -1.0404
  104OSM   C13F10562   4.265   7.149  -0.907  0.0095  0.1007  0.1159
  104OSM   H13F10563   4.296   7.101  -0.811  0.2338  0.9712  0.4819
  104OSM   H13G10564   4.348   7.218  -0.930 -0.3445  0.5527  0.1867
  104OSM   C14F10565   4.259   7.046  -1.021  0.2638 -0.6770 -0.2056
  104OSM   H14F10566   4.190   6.960  -1.008  0.5096 -0.8384  0.0492
  104OSM   H14G10567   4.363   7.008  -1.007  0.3581 -0.3783 -0.1028
  104OSM   C15F10568   4.255   7.105  -1.159 -0.0289 -0.6158 -0.1280
  104OSM   H15F10569   4.308   7.202  -1.147  0.2670 -0.8806  0.8231
  104OSM   H15G10570   4.155   7.130  -1.201 -0.1463  1.5322  1.2709
  104OSM   C16F10571   4.331   7.010  -1.252 -0.1204  0.2665 -0.3998
  104OSM   H16F10572   4.275   6.915  -1.237 -2.4984  1.7400  0.5626
  104OSM   H16G10573   4.434   6.998  -1.212  0.0635  1.2509 -0.5562
  104OSM   C17F10574   4.326   7.048  -1.395 -0.4092  0.6466 -0.1006
  104OSM   H17F10575   4.375   7.147  -1.409 -0.5965  0.7216 -0.2451
  104OSM   H17G10576   4.222   7.069  -1.427 -0.6131  0.3871  0.4058
  104OSM   C18F10577   4.392   6.940  -1.477  0.2413  0.0726  0.2507
  104OSM   H18F10578   4.502   6.957  -1.469  0.4700  0.6172 -2.8509
  104OSM   H18G10579   4.368   6.960  -1.584  0.1263 -1.1258  0.0338
  104OSM   H18H10580   4.363   6.839  -1.442  0.0002 -0.1222 -0.4868
  105OSM      N10581   5.440   6.686   0.445  0.1658 -0.4300 -0.2715
  105OSM    C1510582   5.432   6.543   0.496  0.0803  0.4795  0.8581
  105OSM   H15A10583   5.457   6.530   0.601 -1.3402  1.5468  1.3509
  105OSM   H15B10584   5.487   6.474   0.433 -1.3556 -0.6792  0.8345
  105OSM   H15C10585   5.329   6.512   0.485 -0.0893  1.4925 -0.5514
  105OSM    C1410586   5.579   6.744   0.469  0.0407  0.4724  0.1006
  105OSM   H14A10587   5.569   6.851   0.458 -1.4039  0.4233  0.7132
  105OSM   H14B10588   5.656   6.712   0.400  2.4541  3.0976  1.4035
  105OSM   H14C10589   5.611   6.727   0.570  1.3295  1.9482 -0.0341
  105OSM    C1310590   5.415   6.678   0.305 -0.2322 -0.0654  0.3102
  105OSM   H13A10591   5.343   6.602   0.279  3.1056 -2.7234 -1.9620
  105OSM   H13B10592   5.505   6.656   0.250 -0.8076  2.3736 -1.8026
  105OSM   H13C10593   5.367   6.767   0.266  0.7234 -0.0156 -0.7916
  105OSM    C1210594   5.337   6.766   0.524 -0.1172  0.6389  0.7436
  105OSM   H12A10595   5.342   6.874   0.512 -0.1196  0.5776  0.1228
  105OSM   H12B10596   5.361   6.737   0.625  1.3467  0.1793  0.2900
  105OSM    C1110597   5.193   6.725   0.496 -0.0136 -0.5470 -0.4212
  105OSM   H11A10598   5.134   6.756   0.585  0.6083 -1.0517  0.1788
  105OSM   H11B10599   5.181   6.614   0.498 -1.2817 -0.4072  1.3081
  105OSM      P10600   5.072   6.925   0.367  0.0670 -0.1252 -0.0401
  105OSM    O1310601   4.928   6.912   0.374 -0.2408 -0.3588  0.3899
  105OSM    O1410602   5.142   7.014   0.462 -0.1889  0.3198 -0.1517
  105OSM    O1110603   5.111   6.970   0.224 -0.1416  0.3943  0.6442
  105OSM    O1210604   5.142   6.781   0.371  0.2522 -0.2072 -0.1768
  105OSM    C1S10605   5.207   6.903   0.144 -0.3970  0.1389  0.2010
  105OSM    H1S10606   5.172   6.798   0.134  0.7919 -0.1520 -1.2804
  105OSM    H1T10607   5.304   6.900   0.197 -1.0306  0.4598  1.4166
  105OSM     NF10608   5.330   6.890  -0.064 -0.2212  0.5284 -0.1422
  105OSM    HNF10609   5.423   6.922  -0.049  0.5077 -1.8349  0.8286
  105OSM    C2S10610   5.226   6.966   0.004 -0.1432  0.4243  0.0953
  105OSM    H2S10611   5.130   6.965  -0.053 -0.1261  0.7871  0.0626
  105OSM    C3S10612   5.271   7.119   0.011  0.6741  0.3334 -0.1510
  105OSM    H3S10613   5.377   7.119   0.045  1.0804  0.8212 -1.3460
  105OSM     O310614   5.193   7.202   0.095  0.2846  0.4923 -0.0888
  105OSM    HO310615   5.155   7.135   0.153  0.2991  0.8259  0.3125
  105OSM    C4S10616   5.268   7.177  -0.129  0.0025 -0.2293 -0.2316
  105OSM    H4S10617   5.167   7.189  -0.170 -0.5937 -1.4942  0.7885
  105OSM    C5S10618   5.372   7.221  -0.204  0.2482 -0.4237  0.1758
  105OSM    H5S10619   5.474   7.200  -0.170 -0.5691 -2.0787  1.7476
  105OSM    C6S10620   5.343   7.277  -0.345  0.2269 -0.0545  0.0350
  105OSM    H6S10621   5.431   7.339  -0.374  0.8937  0.2602  2.4913
  105OSM    H6T10622   5.255   7.344  -0.351  2.4718  3.3238  1.5201
  105OSM    C7S10623   5.325   7.159  -0.440  0.3841  0.5155  0.2993
  105OSM    H7S10624   5.231   7.105  -0.413 -0.0027  1.0616  0.0577
  105OSM    H7T10625   5.415   7.094  -0.438 -0.3986 -0.9173 -3.6583
  105OSM    C8S10626   5.305   7.213  -0.588  0.0733  0.6138  0.4317
  105OSM    H8S10627   5.393   7.273  -0.620 -0.8235  0.5254 -2.5130
  105OSM    H8T10628   5.219   7.284  -0.592  1.1089  1.8600 -1.0572
  105OSM    C9S10629   5.305   7.108  -0.702 -0.4631 -0.0223  0.0857
  105OSM    H9S10630   5.245   7.021  -0.669 -0.8001 -0.4511 -1.5801
  105OSM    H9T10631   5.411   7.077  -0.710 -0.7116 -0.7035 -0.7127
  105OSM   C10S10632   5.267   7.162  -0.843  0.3686 -0.5708 -0.4314
  105OSM   H10S10633   5.320   7.258  -0.860 -1.9339  0.5487 -1.8596
  105OSM   H10T10634   5.159   7.188  -0.834  0.4516 -0.6390  1.0472
  105OSM   C11S10635   5.291   7.052  -0.951  0.3557  0.4054  0.0127
  105OSM   H11S10636   5.229   6.963  -0.926  0.3298  0.5017  0.3026
  105OSM   H11T10637   5.396   7.015  -0.950 -0.0298 -0.7333  0.9764
  105OSM   C12S10638   5.251   7.091  -1.093  0.4335 -0.1830  0.1985
  105OSM   H12S10639   5.310   7.182  -1.116  1.0723 -0.3197  1.2583
  105OSM   H12T10640   5.143   7.116  -1.083  0.5208  0.2510  0.0365
  105OSM   C13S10641   5.265   6.981  -1.196  0.8397  0.7182  0.0137
  105OSM   H13S10642   5.189   6.900  -1.189  2.4660 -0.7591  2.0621
  105OSM   H13T10643   5.358   6.924  -1.174  1.8674  1.6664 -1.6792
  105OSM   C14S10644   5.273   7.031  -1.337  0.6527  0.3160  0.8359
  105OSM   H14S10645   5.358   7.100  -1.356  1.1388 -1.2891 -4.7252
  105OSM   H14T10646   5.187   7.091  -1.374  0.3664 -0.9366 -0.6436
  105OSM   C15S10647   5.284   6.918  -1.438  0.0547 -0.1276  0.0030
  105OSM   H15S10648   5.194   6.853  -1.435 -0.5000  0.5733 -1.0910
  105OSM   H15T10649   5.367   6.847  -1.419 -0.9014 -1.1393  0.5148
  105OSM   C16S10650   5.296   6.975  -1.579 -0.0575  0.7845 -0.5030
  105OSM   H16S10651   5.399   7.017  -1.573  0.7825 -1.2958  2.4056
  105OSM   H16T10652   5.211   7.044  -1.597 -0.4349  0.0056 -1.7869
  105OSM   C17S10653   5.295   6.867  -1.691  0.4195  0.6930 -0.2338
  105OSM   H17S10654   5.315   6.772  -1.638  0.5852  0.7535 -0.1885
  105OSM   H17T10655   5.375   6.893  -1.763  1.6441  1.8451  1.4589
  105OSM   C18S10656   5.168   6.839  -1.785 -0.4775 -0.1503  0.2733
  105OSM   H18S10657   5.188   6.907  -1.871  0.8823 -1.3492 -0.4092
  105OSM   H18T10658   5.071   6.864  -1.737 -1.6390 -1.3050 -1.3547
  105OSM   H18U10659   5.162   6.732  -1.814  0.0105  0.2838 -1.5512
  105OSM    C1F10660   5.310   6.761  -0.106 -0.3302 -0.5193  0.4985
  105OSM     OF10661   5.206   6.701  -0.095  0.8360 -0.1691  0.6033
  105OSM    C2F10662   5.425   6.704  -0.179 -0.1544  0.5180 -0.0610
  105OSM    H2F10663   5.492   6.663  -0.100 -3.1564 -0.0306  2.3850
  105OSM    H2G10664   5.478   6.783  -0.237 -0.0149  1.2922  1.0965
  105OSM    C3F10665   5.393   6.580  -0.274 -0.2025 -0.3090  0.6473
  105OSM    H3F10666   5.304   6.519  -0.247 -0.3902 -2.4263 -3.8728
  105OSM    H3G10667   5.478   6.509  -0.276  1.1903  1.3076 -1.2480
  105OSM    C4F10668   5.389   6.621  -0.426  0.4147 -0.1535 -0.0463
  105OSM    H4F10669   5.398   6.531  -0.490 -0.2765  0.5840 -1.2328
  105OSM    H4G10670   5.479   6.681  -0.451 -0.5837  1.5809  0.3229
  105OSM    C5F10671   5.259   6.699  -0.474 -0.1331  0.3699  0.1256
  105OSM    H5F10672   5.262   6.788  -0.407  0.5963 -0.0606  0.6868
  105OSM    H5G10673   5.177   6.633  -0.439 -0.4431 -0.0079 -1.2683
  105OSM    C6F10674   5.247   6.734  -0.624  0.1911 -0.0864  0.0821
  105OSM    H6F10675   5.336   6.783  -0.669  0.2243  0.0785  0.3250
  105OSM    H6G10676   5.157   6.798  -0.642 -0.3524 -0.8919 -0.1225
  105OSM    C7F10677   5.232   6.606  -0.711 -0.1193 -0.3899 -0.3932
  105OSM    H7F10678   5.130   6.565  -0.696  0.4038 -1.1556  1.3064
  105OSM    H7G10679   5.307   6.530  -0.681  1.8509  1.7542  0.4866
  105OSM    C8F10680   5.232   6.629  -0.864  0.5094 -0.2974  0.3758
  105OSM    H8F10681   5.317   6.698  -0.886 -0.1433  1.3603  2.6686
  105OSM    H8G10682   5.146   6.693  -0.894  0.6203  0.4009  1.4694
  105OSM    C9F10683   5.211   6.505  -0.946 -0.0447 -0.2697  0.2497
  105OSM    H9F10684   5.115   6.452  -0.937 -0.0447 -0.0998  1.4399
  105OSM   C10F10685   5.307   6.457  -1.024  0.3709 -0.2175 -0.4357
  105OSM   H10F10686   5.281   6.365  -1.078  0.4211 -0.4562 -0.0566
  105OSM   C11F10687   5.449   6.515  -1.049 -0.1354  0.0878  0.3272
  105OSM   H11F10688   5.502   6.516  -0.951 -1.7169  1.3586  1.2251
  105OSM   H11G10689   5.450   6.626  -1.060 -0.3278  0.3134  2.3339
  105OSM   C12F10690   5.535   6.445  -1.154 -0.5412  0.0805  0.5383
  105OSM   H12F10691   5.547   6.336  -1.134  0.2248 -0.3468 -1.9007
  105OSM   H12G10692   5.641   6.479  -1.161 -0.5948 -0.0923 -4.2056
  105OSM   C13F10693   5.474   6.465  -1.294 -0.3641  0.2207  0.0864
  105OSM   H13F10694   5.454   6.573  -1.314  2.5015  0.8026 -0.0131
  105OSM   H13G10695   5.376   6.412  -1.293 -0.9303  1.2272 -0.5756
  105OSM   C14F10696   5.566   6.412  -1.399  0.1054 -0.3601  0.0535
  105OSM   H14F10697   5.559   6.301  -1.393 -3.0000 -0.4036 -1.9471
  105OSM   H14G10698   5.669   6.452  -1.391 -0.0894  0.4417 -1.2082
  105OSM   C15F10699   5.528   6.464  -1.541  0.1102  0.0110 -0.6368
  105OSM   H15F10700   5.517   6.574  -1.532 -2.6940 -0.2225 -0.2225
  105OSM   H15G10701   5.424   6.430  -1.564  0.3029 -1.7404  0.7682
  105OSM   C16F10702   5.614   6.413  -1.651 -0.2596 -0.4103  0.3045
  105OSM   H16F10703   5.613   6.303  -1.636 -1.2113 -0.3083  1.0957
  105OSM   H16G10704   5.719   6.447  -1.644  0.5527 -2.6969  0.0975
  105OSM   C17F10705   5.558   6.437  -1.795 -0.6477  0.0822 -0.0366
  105OSM   H17F10706   5.561   6.547  -1.814  0.5910 -0.0866 -0.9822
  105OSM   H17G10707   5.454   6.401  -1.803 -1.6261  2.4332  1.0202
  105OSM   C18F10708   5.651   6.374  -1.903  0.2968 -0.8411 -0.2309
  105OSM   H18F10709   5.674   6.271  -1.869 -1.3668 -0.9238  0.7172
  105OSM   H18G10710   5.744   6.434  -1.917  0.8690 -1.5793  0.2832
  105OSM   H18H10711   5.595   6.369  -1.998 -0.7115 -1.7202  0.3914
  106OSM      N10712   4.401   5.310   0.910  0.4413  0.4661 -0.0615
  106OSM    C1510713   4.338   5.269   1.041 -0.0004  0.0808  0.0852
  106OSM   H15A10714   4.256   5.338   1.052  0.2859  0.7680 -1.8059
  106OSM   H15B10715   4.416   5.276   1.116 -0.2087 -1.0372  0.4281
  106OSM   H15C10716   4.315   5.163   1.040 -0.0142  0.0735  0.6456
  106OSM    C1410717   4.430   5.458   0.903  0.1151  0.1331  0.5059
  106OSM   H14A10718   4.504   5.486   0.977  1.7622 -0.9437 -0.6455
  106OSM   H14B10719   4.349   5.527   0.919  1.8689  2.3342  0.4715
  106OSM   H14C10720   4.474   5.472   0.806  1.2567 -1.0289  0.8234
  106OSM    C1310721   4.517   5.231   0.886 -0.9207 -0.1678 -0.1740
  106OSM   H13A10722   4.600   5.252   0.951 -1.2810 -0.2883  0.3286
  106OSM   H13B10723   4.558   5.262   0.791 -3.0894  1.6897 -0.5951
  106OSM   H13C10724   4.498   5.125   0.879 -0.3708 -0.2892  0.1619
  106OSM    C1210725   4.294   5.278   0.795 -0.6160 -0.7725 -0.4256
  106OSM   H12A10726   4.210   5.345   0.806 -0.6241 -0.9323  0.5292
  106OSM   H12B10727   4.245   5.186   0.826 -1.6992 -0.0507  0.0772
  106OSM    C1110728   4.355   5.270   0.643  0.1191 -0.2366 -0.7192
  106OSM   H11A10729   4.276   5.226   0.578  0.2808 -1.1646 -0.2950
  106OSM   H11B10730   4.430   5.189   0.641  1.2558  0.6394  1.8189
  106OSM      P10731   4.299   5.488   0.532  0.1497 -0.4112  0.6118
  106OSM    O1310732   4.161   5.436   0.561  0.4881  0.2626  0.7690
  106OSM    O1410733   4.335   5.621   0.582 -0.1941 -0.4452 -0.4262
  106OSM    O1110734   4.324   5.499   0.376  0.8289  0.2287  0.3175
  106OSM    O1210735   4.407   5.395   0.590  0.0864 -0.3426 -0.4200
  106OSM    C1S10736   4.393   5.394   0.305  0.4368 -0.0906 -0.5077
  106OSM    H1S10737   4.419   5.308   0.369  2.6249  0.8310 -0.0880
  106OSM    H1T10738   4.495   5.425   0.275  1.5558 -0.4348  2.6004
  106OSM     NF10739   4.394   5.258   0.086  0.0816  0.5094  0.3843
  106OSM    HNF10740   4.421   5.294  -0.003 -1.9783  1.6162  0.1266
  106OSM    C2S10741   4.316   5.352   0.173  0.2951 -0.4305  0.0282
  106OSM    H2S10742   4.232   5.292   0.215  2.1422 -2.1602  1.4134
  106OSM    C3S10743   4.256   5.474   0.083 -0.0084  0.8016  0.1016
  106OSM    H3S10744   4.350   5.519   0.043  1.5827 -0.9293  1.6645
  106OSM     O310745   4.195   5.574   0.153 -1.1614 -0.2718 -0.5337
  106OSM    HO310746   4.220   5.554   0.243  0.5054  1.8150 -0.4514
  106OSM    C4S10747   4.178   5.429  -0.036 -0.0227 -0.1695  1.0101
  106OSM    H4S10748   4.236   5.404  -0.126  0.4754  0.3226  1.1889
  106OSM    C5S10749   4.049   5.428  -0.061 -0.8798  0.0602 -0.4510
  106OSM    H5S10750   3.977   5.484   0.001 -0.8119  1.4107 -1.5420
  106OSM    C6S10751   3.984   5.396  -0.186  0.2323  0.6253  1.1197
  106OSM    H6S10752   3.887   5.451  -0.190  1.5895  3.0894 -0.7462
  106OSM    H6T10753   3.949   5.291  -0.190 -0.9290  1.0283 -0.1743
  106OSM    C7S10754   4.055   5.451  -0.313 -0.0869  0.3323 -0.2849
  106OSM    H7S10755   4.154   5.407  -0.340 -0.8702 -1.7485  0.0709
  106OSM    H7T10756   4.080   5.559  -0.303 -3.2642  1.2196 -0.9859
  106OSM    C8S10757   3.961   5.443  -0.437 -0.2694 -0.3929 -0.0605
  106OSM    H8S10758   3.882   5.521  -0.430  0.7556  0.5646  1.2456
  106OSM    H8T10759   3.915   5.342  -0.441 -1.9962  0.3503 -0.1189
  106OSM    C9S10760   4.044   5.472  -0.563  0.7684 -0.0072 -0.2719
  106OSM    H9S10761   4.114   5.386  -0.576  0.7809  0.2176 -1.9047
  106OSM    H9T10762   4.097   5.567  -0.541 -1.0704  0.9676  0.1529
  106OSM   C10S10763   3.972   5.483  -0.697 -0.0934 -0.3380 -0.0884
  106OSM   H10S10764   3.901   5.569  -0.694  0.4910  0.2414 -1.8550
  106OSM   H10T10765   3.900   5.400  -0.716 -2.1862  1.3390  0.0672
  106OSM   C11S10766   4.066   5.501  -0.816 -0.0423 -0.5405  0.5558
  106OSM   H11S10767   4.140   5.418  -0.814 -0.3073 -0.8043  3.5544
  106OSM   H11T10768   4.113   5.599  -0.795 -0.3368 -0.1962 -0.3209
  106OSM   C12S10769   4.001   5.505  -0.957 -0.3037 -0.6117  0.0810
  106OSM   H12S10770   3.934   5.593  -0.959  0.5767  0.0616 -0.4273
  106OSM   H12T10771   3.944   5.410  -0.970  1.8855 -1.9275 -0.3243
  106OSM   C13S10772   4.106   5.506  -1.065 -0.2467  0.2763 -0.5507
  106OSM   H13S10773   4.142   5.401  -1.079  1.0466  0.5837  0.2602
  106OSM   H13T10774   4.194   5.567  -1.035 -0.1939 -0.0083 -0.1135
  106OSM   C14S10775   4.043   5.570  -1.188  0.0228  0.1310  0.1937
  106OSM   H14S10776   4.035   5.678  -1.161  1.3653  0.0398  1.0287
  106OSM   H14T10777   3.941   5.527  -1.201 -0.0285  0.6016 -1.1105
  106OSM   C15S10778   4.114   5.547  -1.324 -0.0386  0.1520 -0.3145
  106OSM   H15S10779   4.218   5.585  -1.314 -0.6869  1.5840  1.4800
  106OSM   H15T10780   4.060   5.616  -1.393 -0.7702 -1.1005 -1.0248
  106OSM   C16S10781   4.117   5.408  -1.371  0.0130  1.0507  0.3710
  106OSM   H16S10782   4.016   5.365  -1.391  0.3849 -0.7870  2.1855
  106OSM   H16T10783   4.141   5.335  -1.291 -1.0741 -0.2659 -0.4458
  106OSM   C17S10784   4.214   5.387  -1.491  0.4981 -0.0179 -0.0387
  106OSM   H17S10785   4.219   5.280  -1.520  2.9227 -0.2260  0.9327
  106OSM   H17T10786   4.318   5.410  -1.458  1.9172 -1.2487 -3.1916
  106OSM   C18S10787   4.189   5.464  -1.624  0.1482  0.5038 -0.8704
  106OSM   H18S10788   4.181   5.572  -1.596  1.8696  0.3609  0.2876
  106OSM   H18T10789   4.093   5.441  -1.675 -0.9459  2.1828  0.3054
  106OSM   H18U10790   4.274   5.446  -1.692  1.8325  1.1095  0.9948
  106OSM    C1F10791   4.457   5.156   0.132 -0.3453  0.9078 -0.0907
  106OSM     OF10792   4.444   5.112   0.246  0.1254  0.0056 -0.6183
  106OSM    C2F10793   4.555   5.099   0.041  0.7392  0.3107  0.5161
  106OSM    H2F10794   4.630   5.179   0.024  0.0767  0.1727 -4.4900
  106OSM    H2G10795   4.503   5.063  -0.051  0.6466  0.0257  0.6786
  106OSM    C3F10796   4.620   4.977   0.114 -0.7161  0.0252 -0.3653
  106OSM    H3F10797   4.546   4.897   0.137  1.6376 -1.5914  2.2703
  106OSM    H3G10798   4.675   5.017   0.202 -2.2834 -0.5649  0.9250
  106OSM    C4F10799   4.730   4.899   0.038 -1.2118  0.4539 -0.2288
  106OSM    H4F10800   4.686   4.824  -0.031  0.6732 -0.1461 -0.8686
  106OSM    H4G10801   4.790   4.836   0.107  0.2154 -0.0191 -1.8123
  106OSM    C5F10802   4.836   4.980  -0.044  0.4879  0.3568  0.2382
  106OSM    H5F10803   4.864   5.068   0.018  0.8005  1.5847 -1.5817
  106OSM    H5G10804   4.795   5.029  -0.135  0.3860 -0.7822 -0.3550
  106OSM    C6F10805   4.960   4.896  -0.087  0.3889 -0.4462 -0.1441
  106OSM    H6F10806   5.031   4.904  -0.001 -1.6093  0.7679  1.4765
  106OSM    H6G10807   5.015   4.955  -0.163 -1.1562 -0.7451 -1.5368
  106OSM    C7F10808   4.947   4.752  -0.132 -0.4692 -0.5120  0.2019
  106OSM    H7F10809   4.908   4.693  -0.046 -3.0052  0.0635 -0.4912
  106OSM    H7G10810   5.050   4.712  -0.147  0.2802  0.9957  1.0790
  106OSM    C8F10811   4.849   4.713  -0.243 -0.4126  0.3677 -0.3272
  106OSM    H8F10812   4.755   4.756  -0.203  0.1467 -1.9025  4.0119
  106OSM    H8G10813   4.807   4.611  -0.245 -0.5043  0.3363  1.5598
  106OSM    C9F10814   4.895   4.773  -0.381  0.1028 -0.7315  0.1591
  106OSM    H9F10815   5.002   4.764  -0.403 -0.3267  0.5570 -3.0318
  106OSM   C10F10816   4.832   4.854  -0.467  0.1490  0.2388 -0.1894
  106OSM   H10F10817   4.885   4.895  -0.554 -1.7764  1.4629 -0.8366
  106OSM   C11F10818   4.687   4.896  -0.462 -0.1406  0.4330 -0.3400
  106OSM   H11F10819   4.680   4.985  -0.396  1.9995  1.5356 -1.4692
  106OSM   H11G10820   4.615   4.818  -0.430 -1.2475  1.9811  1.0882
  106OSM   C12F10821   4.644   4.934  -0.604  0.1697 -1.0104 -0.3729
  106OSM   H12F10822   4.703   5.024  -0.634  0.9678 -1.4266 -0.0880
  106OSM   H12G10823   4.538   4.967  -0.602  0.0408 -1.4651  1.2496
  106OSM   C13F10824   4.663   4.819  -0.698  0.7755  0.0140  0.4382
  106OSM   H13F10825   4.621   4.732  -0.642 -0.3527  2.5774  3.9632
  106OSM   H13G10826   4.771   4.804  -0.720  0.1184 -1.0560 -2.5216
  106OSM   C14F10827   4.596   4.840  -0.833  0.8347  0.7644  0.0440
  106OSM   H14F10828   4.632   4.933  -0.883  1.9823 -0.3480 -1.2665
  106OSM   H14G10829   4.486   4.857  -0.830  0.9332  1.8437 -1.3459
  106OSM   C15F10830   4.635   4.730  -0.932  0.7147 -0.1733 -0.1240
  106OSM   H15F10831   4.576   4.644  -0.893  0.5770 -0.5818 -1.2019
  106OSM   H15G10832   4.742   4.705  -0.919  1.0459  0.8147 -0.8469
  106OSM   C16F10833   4.600   4.748  -1.081  0.5792 -0.1583 -0.3385
  106OSM   H16F10834   4.661   4.831  -1.122  1.4490 -0.6334 -0.0275
  106OSM   H16G10835   4.499   4.794  -1.090  1.5424  1.7275 -2.3480
  106OSM   C17F10836   4.613   4.624  -1.168 -0.1170  0.2904  1.1987
  106OSM   H17F10837   4.550   4.535  -1.143  1.3207 -1.0351  0.2985
  106OSM   H17G10838   4.717   4.587  -1.156 -0.9395 -3.6217 -1.5882
  106OSM   C18F10839   4.600   4.651  -1.317  0.1127  0.0028 -0.2637
  106OSM   H18F10840   4.642   4.752  -1.335  1.2926 -0.2744  0.8228
  106OSM   H18G10841   4.496   4.643  -1.355  0.7271 -0.3692 -1.9236
  106OSM   H18H10842   4.661   4.582  -1.378  0.5019 -0.8997  1.1007
  107OSM      N10843   5.597   3.274   0.814  0.1219 -0.4401  0.1312
  107OSM    C1510844   5.622   3.415   0.833 -0.5523 -0.6134 -0.3514
  107OSM   H15A10845   5.535   3.476   0.817  0.3024  0.4197 -1.2830
  107OSM   H15B10846   5.697   3.453   0.764 -0.8414  0.7804  0.0677
  107OSM   H15C10847   5.661   3.439   0.931  0.8831 -0.8970 -0.8238
  107OSM    C1410848   5.720   3.197   0.852 -0.7638  0.6920 -0.2711
  107OSM   H14A10849   5.750   3.215   0.954 -5.6569  2.5303  1.1115
  107OSM   H14B10850   5.813   3.229   0.808  0.5505 -0.4171  1.5349
  107OSM   H14C10851   5.714   3.092   0.826  2.3045  0.3719 -0.1483
  107OSM    C1310852   5.492   3.244   0.914  0.2855  0.2573  0.3947
  107OSM   H13A10853   5.461   3.140   0.917  1.4997 -0.1339  3.2958
  107OSM   H13B10854   5.400   3.293   0.887 -0.2878 -1.5690 -1.1901
  107OSM   H13C10855   5.518   3.270   1.015  2.5424 -0.2691  0.0164
  107OSM    C1210856   5.571   3.227   0.668  0.1291  0.1504 -0.3708
  107OSM   H12A10857   5.660   3.246   0.610  0.9853  1.2367  1.2337
  107OSM   H12B10858   5.498   3.292   0.621 -0.2579 -1.2593 -1.8254
  107OSM    C1110859   5.528   3.074   0.646  0.0167  0.7424  0.2662
  107OSM   H11A10860   5.588   3.004   0.708 -1.4422 -0.7889  0.0183
  107OSM   H11B10861   5.553   3.058   0.539  0.2300 -0.6553  0.5070
  107OSM      P10862   5.272   3.093   0.582 -0.2670  0.1916  0.0547
  107OSM    O1310863   5.151   3.013   0.615 -0.8741 -0.1357  0.1292
  107OSM    O1410864   5.263   3.239   0.568 -0.3995  0.1162  0.6285
  107OSM    O1110865   5.338   3.036   0.453  0.0760 -0.2445 -0.2245
  107OSM    O1210866   5.386   3.061   0.685 -0.4037  0.2022 -0.8230
  107OSM    C1S10867   5.249   2.989   0.345 -0.5704  0.0349 -0.6036
  107OSM    H1S10868   5.171   3.067   0.333  2.8197  3.7151 -0.8672
  107OSM    H1T10869   5.201   2.898   0.385 -0.3685  0.6280  1.0887
  107OSM     NF10870   5.236   2.941   0.105  0.3269 -0.7099  0.2489
  107OSM    HNF10871   5.239   2.852   0.061  0.8378 -1.2693  1.3812
  107OSM    C2S10872   5.328   2.960   0.214 -0.0438 -0.2460  0.3785
  107OSM    H2S10873   5.382   3.053   0.188 -0.0782 -0.3451 -0.0495
  107OSM    C3S10874   5.432   2.852   0.235  0.3179 -0.4335 -0.4132
  107OSM    H3S10875   5.386   2.753   0.255  1.6082 -1.0092 -0.1838
  107OSM     O310876   5.514   2.886   0.343 -0.4149 -0.3819 -0.3108
  107OSM    HO310877   5.462   2.952   0.391  2.0723  1.4340  0.0625
  107OSM    C4S10878   5.508   2.832   0.106 -0.1618  0.6949 -0.1280
  107OSM    H4S10879   5.463   2.763   0.032  1.4364  1.4358 -1.8684
  107OSM    C5S10880   5.631   2.885   0.074 -0.3744 -0.7698 -0.1489
  107OSM    H5S10881   5.671   2.959   0.145 -0.0459 -0.6238 -0.4854
  107OSM    C6S10882   5.717   2.871  -0.051  0.3518  0.0750 -0.2589
  107OSM    H6S10883   5.816   2.837  -0.015  2.3254  1.1433 -4.1706
  107OSM    H6T10884   5.729   2.969  -0.100 -2.2653  0.1340 -0.9359
  107OSM    C7S10885   5.680   2.786  -0.176  0.3440 -0.5464  0.1086
  107OSM    H7S10886   5.577   2.826  -0.186  0.8113  1.1537  1.6229
  107OSM    H7T10887   5.675   2.680  -0.142 -0.1108 -1.1985 -1.8686
  107OSM    C8S10888   5.754   2.795  -0.302 -0.6124 -0.2944 -0.6120
  107OSM    H8S10889   5.855   2.750  -0.293 -0.2834  0.4434 -0.6034
  107OSM    H8T10890   5.778   2.903  -0.307 -2.4536  0.3246  1.9683
  107OSM    C9S10891   5.674   2.738  -0.420 -0.3552  0.3691 -0.1680
  107OSM    H9S10892   5.582   2.799  -0.433 -0.5794  0.4979  1.7079
  107OSM    H9T10893   5.633   2.635  -0.415  1.2723 -0.2962  0.1794
  107OSM   C10S10894   5.760   2.739  -0.545 -0.2481 -0.1198 -0.3674
  107OSM   H10S10895   5.809   2.640  -0.553 -1.7587 -0.8456 -1.1441
  107OSM   H10T10896   5.836   2.818  -0.530 -1.0761  0.1018  4.0630
  107OSM   C11S10897   5.676   2.786  -0.667 -0.3338  0.0623  0.2225
  107OSM   H11S10898   5.640   2.890  -0.651 -1.7285 -0.4188  0.2966
  107OSM   H11T10899   5.588   2.718  -0.670 -1.3393  1.1965  2.2287
  107OSM   C12S10900   5.760   2.768  -0.798  0.1510 -0.1045  0.0807
  107OSM   H12S10901   5.793   2.662  -0.796 -1.4997 -0.6497 -0.3589
  107OSM   H12T10902   5.844   2.839  -0.778 -2.8306  3.7800 -0.0315
  107OSM   C13S10903   5.690   2.814  -0.925  0.1146 -0.4206  0.1877
  107OSM   H13S10904   5.729   2.914  -0.953 -1.8837 -0.2410 -2.2273
  107OSM   H13T10905   5.581   2.819  -0.902 -0.1754 -1.0165 -0.9933
  107OSM   C14S10906   5.718   2.724  -1.043  0.6444  0.3025 -0.1940
  107OSM   H14S10907   5.692   2.617  -1.026  1.7328  0.3385  2.0338
  107OSM   H14T10908   5.829   2.721  -1.050  0.5740 -2.1797 -1.6323
  107OSM   C15S10909   5.656   2.770  -1.178 -0.2697  0.0452  0.0098
  107OSM   H15S10910   5.690   2.871  -1.208 -1.0386  0.3413  0.0995
  107OSM   H15T10911   5.548   2.770  -1.152 -0.6830 -3.0008 -1.2755
  107OSM   C16S10912   5.673   2.659  -1.284  0.1159  0.3280  1.2300
  107OSM   H16S10913   5.592   2.674  -1.359  0.9421 -0.4157  0.1559
  107OSM   H16T10914   5.659   2.558  -1.240 -1.7439  0.4220  0.9413
  107OSM   C17S10915   5.810   2.666  -1.355  0.6899 -0.8842 -0.4525
  107OSM   H17S10916   5.838   2.566  -1.393  0.7193  0.0994 -3.2019
  107OSM   H17T10917   5.898   2.686  -1.290  1.4955  0.1431 -1.8077
  107OSM   C18S10918   5.827   2.768  -1.470 -0.4431 -0.8847 -0.7006
  107OSM   H18S10919   5.743   2.836  -1.496 -0.0695 -0.3942 -0.6380
  107OSM   H18T10920   5.844   2.711  -1.564 -0.3359 -2.5005  0.2781
  107OSM   H18U10921   5.910   2.840  -1.454 -1.8190  0.5922  0.0570
  107OSM    C1F10922   5.153   3.035   0.055  0.2075  0.7150 -0.5819
  107OSM     OF10923   5.142   3.147   0.101 -0.1700 -0.0645  0.0901
  107OSM    C2F10924   5.072   2.996  -0.070 -0.2154 -0.4277 -0.4325
  107OSM    H2F10925   4.972   2.969  -0.030  1.0949  0.4981  4.0341
  107OSM    H2G10926   5.118   2.899  -0.099  1.6346  0.5161 -0.7983
  107OSM    C3F10927   5.075   3.102  -0.172  0.4235  0.7098 -0.5591
  107OSM    H3F10928   5.180   3.105  -0.209  0.5536  0.9387 -0.1807
  107OSM    H3G10929   5.054   3.201  -0.125  3.3997  0.2989  1.9873
  107OSM    C4F10930   4.977   3.060  -0.290 -1.2016 -0.8077 -0.1312
  107OSM    H4F10931   4.873   3.064  -0.249 -0.8782 -1.8566  0.8538
  107OSM    H4G10932   5.017   2.960  -0.320 -0.3124 -0.6544  0.5028
  107OSM    C5F10933   4.985   3.154  -0.409 -0.1590 -0.6757  0.3115
  107OSM    H5F10934   4.923   3.104  -0.486  1.4827 -1.1229 -0.7721
  107OSM    H5G10935   5.090   3.165  -0.443  0.0194  1.1660  1.3671
  107OSM    C6F10936   4.925   3.295  -0.380  0.1823 -0.5426  0.6282
  107OSM    H6F10937   4.987   3.361  -0.316  0.4324 -0.2437  0.0904
  107OSM    H6G10938   4.830   3.278  -0.327 -0.0974  0.1117  0.3459
  107OSM    C7F10939   4.884   3.372  -0.506  0.1317  0.3170 -0.2063
  107OSM    H7F10940   4.792   3.324  -0.546  1.8390 -3.2882 -0.1739
  107OSM    H7G10941   4.960   3.339  -0.581  0.6651 -1.2368  0.9649
  107OSM    C8F10942   4.872   3.522  -0.500  0.4358  0.8635  1.0174
  107OSM    H8F10943   4.860   3.564  -0.602  2.5358 -0.5593  0.1044
  107OSM    H8G10944   4.964   3.570  -0.461  0.5921  1.0405  0.4473
  107OSM    C9F10945   4.769   3.561  -0.401  0.4132 -0.4473  0.0805
  107OSM    H9F10946   4.808   3.580  -0.300 -1.8414  0.0812  0.9056
  107OSM   C10F10947   4.641   3.565  -0.428 -0.3096 -0.0419 -0.4374
  107OSM   H10F10948   4.574   3.620  -0.361 -0.8868 -0.1894 -0.8758
  107OSM   C11F10949   4.579   3.538  -0.563  0.3565  0.5695 -0.0705
  107OSM   H11F10950   4.489   3.474  -0.554  1.3985 -0.7991  1.0794
  107OSM   H11G10951   4.637   3.472  -0.630 -1.3022 -0.1258 -0.8674
  107OSM   C12F10952   4.547   3.672  -0.642  0.1809 -0.6729 -0.2121
  107OSM   H12F10953   4.496   3.734  -0.565  0.7044 -1.3518  0.6976
  107OSM   H12G10954   4.477   3.639  -0.721 -2.0636 -0.9136  1.7590
  107OSM   C13F10955   4.672   3.747  -0.691  0.4445 -0.7175  0.2102
  107OSM   H13F10956   4.735   3.669  -0.738 -0.1540 -1.3021  0.3688
  107OSM   H13G10957   4.723   3.799  -0.607 -0.2705  1.9897 -0.9012
  107OSM   C14F10958   4.644   3.866  -0.787 -0.3867  0.0216  0.1269
  107OSM   H14F10959   4.563   3.920  -0.734 -0.8203  1.6412 -2.0383
  107OSM   H14G10960   4.592   3.827  -0.876 -1.9251  0.0121  1.0061
  107OSM   C15F10961   4.765   3.958  -0.835 -0.1131  0.3008 -0.2263
  107OSM   H15F10962   4.774   4.027  -0.748 -1.3807  0.4973 -0.2226
  107OSM   H15G10963   4.740   4.012  -0.929  1.7795 -0.3835 -1.1678
  107OSM   C16F10964   4.902   3.892  -0.855  0.4122  0.5055  0.0107
  107OSM   H16F10965   4.940   3.860  -0.755 -1.1653  0.7895  0.7237
  107OSM   H16G10966   4.975   3.967  -0.893  1.4000 -0.3484  0.1524
  107OSM   C17F10967   4.912   3.776  -0.959 -0.5044 -0.5219 -0.0871
  107OSM   H17F10968   4.909   3.816  -1.063  0.8463  0.8611  0.3777
  107OSM   H17G10969   4.826   3.706  -0.955  0.1710 -1.4276 -0.9039
  107OSM   C18F10970   5.048   3.694  -0.954 -0.1419 -0.8783  0.2764
  107OSM   H18F10971   5.073   3.663  -0.850 -1.0525 -0.4347  0.6442
  107OSM   H18G10972   5.125   3.764  -0.993 -2.7678  1.7902 -0.5137
  107OSM   H18H10973   5.052   3.607  -1.024 -2.6994  0.3563 -1.5790
  108OSM      N10974   0.165   1.852   0.660 -0.3256  0.6866  0.2323
  108OSM    C1510975   0.210   1.732   0.723 -0.2251 -0.1905  0.4410
  108OSM   H15A10976   0.199   1.736   0.830 -2.7184 -0.7996  0.2596
  108OSM   H15B10977   0.316   1.718   0.702 -0.2295  1.1018 -0.5823
  108OSM   H15C10978   0.156   1.643   0.694  0.7000 -0.5023 -0.4179
  108OSM    C1410979   0.154   1.830   0.514 -0.1965  0.4722  0.0052
  108OSM   H14A10980   0.254   1.820   0.474 -0.7138 -0.0504 -1.2068
  108OSM   H14B10981   0.103   1.919   0.482  0.4410  0.1209 -2.1081
  108OSM   H14C10982   0.095   1.747   0.478  0.3021  1.3089 -2.9925
  108OSM    C1310983   0.040   1.897   0.719  1.0006  0.7648  0.0449
  108OSM   H13A10984   0.053   1.907   0.825 -0.9607 -1.3777  0.5746
  108OSM   H13B10985  -0.044   1.834   0.691  1.6007 -0.3041  0.6164
  108OSM   H13C10986   0.009   1.988   0.669  1.7536  0.5011 -0.9196
  108OSM    C1210987   0.277   1.951   0.680 -0.4322  0.2028 -0.6361
  108OSM   H12A10988   0.364   1.909   0.632  0.1775 -2.4471  2.4293
  108OSM   H12B10989   0.308   1.953   0.784 -1.5006 -0.2427 -0.2992
  108OSM    C1110990   0.247   2.092   0.641  0.1765 -0.1651 -0.0606
  108OSM   H11A10991   0.333   2.158   0.667 -0.7279  1.1652 -0.3170
  108OSM   H11B10992   0.167   2.121   0.713 -1.1678 -0.6807 -1.3001
  108OSM      P10993   0.250   2.221   0.404 -0.0480  0.1907  0.0717
  108OSM    O1310994   0.134   2.300   0.353 -0.0325  0.2154  0.6443
  108OSM    O1410995   0.364   2.293   0.464 -0.1108 -0.3830 -0.3184
  108OSM    O1110996   0.307   2.118   0.287  0.1878  0.3011 -0.1436
  108OSM    O1210997   0.193   2.120   0.513  0.5902 -0.0416  0.0746
  108OSM    C1S10998   0.219   2.018   0.236 -0.7477 -0.2510 -0.0151
  108OSM    H1S10999   0.113   2.051   0.231 -0.1005  2.5284  2.2604
  108OSM    H1T11000   0.235   1.926   0.297  1.5588  0.3464  0.3686
  108OSM     NF11001   0.178   1.908   0.013  0.6529  0.0754 -0.1228
  108OSM    HNF11002   0.181   1.809   0.022  0.5985 -0.0329 -1.2274
  108OSM    C2S11003   0.273   1.983   0.092 -0.5685  0.4836  0.4804
  108OSM    H2S11004   0.295   2.081   0.044 -1.1715  0.2827 -0.2261
  108OSM    C3S11005   0.411   1.911   0.098  0.0016  0.4141 -0.1729
  108OSM    H3S11006   0.401   1.817   0.156  0.6314  0.9076  0.7711
  108OSM     O311007   0.504   1.978   0.178 -0.1987 -0.0441  0.3778
  108OSM    HO311008   0.452   2.051   0.214  1.9043  0.7866  1.9733
  108OSM    C4S11009   0.450   1.877  -0.047  0.3387  0.2526 -0.4299
  108OSM    H4S11010   0.418   1.773  -0.067  1.1554  0.2192 -1.6470
  108OSM    C5S11011   0.523   1.946  -0.140 -0.2548  0.3265 -0.2817
  108OSM    H5S11012   0.565   2.042  -0.106 -0.2843 -0.0828  0.9322
  108OSM    C6S11013   0.564   1.895  -0.277 -0.4555 -0.0654 -0.7605
  108OSM    H6S11014   0.650   1.830  -0.249 -2.6926 -1.6538  3.3336
  108OSM    H6T11015   0.606   1.979  -0.335 -0.9536  0.8911  0.2253
  108OSM    C7S11016   0.464   1.799  -0.342  0.1022 -0.3763  0.3563
  108OSM    H7S11017   0.364   1.848  -0.350  1.1691  1.7165 -0.9945
  108OSM    H7T11018   0.451   1.699  -0.295  3.5426 -0.9004  0.4382
  108OSM    C8S11019   0.523   1.759  -0.486 -0.3124  0.5159 -0.1634
  108OSM    H8S11020   0.442   1.688  -0.511  0.3534 -0.8871  1.4822
  108OSM    H8T11021   0.612   1.698  -0.461 -0.5937 -0.1874 -0.8573
  108OSM    C9S11022   0.535   1.872  -0.582 -0.3707  0.4169  0.7756
  108OSM    H9S11023   0.622   1.928  -0.541 -0.4484  0.0644  1.4287
  108OSM    H9T11024   0.455   1.948  -0.580 -0.4180  0.4470 -0.7429
  108OSM   C10S11025   0.561   1.825  -0.725  0.5042  0.1689  0.5854
  108OSM   H10S11026   0.635   1.742  -0.727 -0.2059 -0.4644 -1.2339
  108OSM   H10T11027   0.595   1.910  -0.787 -1.0704  1.0284  0.8497
  108OSM   C11S11028   0.433   1.783  -0.796  0.5949  0.2332  0.4259
  108OSM   H11S11029   0.350   1.855  -0.807  0.0722 -0.5169 -0.7866
  108OSM   H11T11030   0.405   1.694  -0.735  0.4615 -0.1949 -0.2547
  108OSM   C12S11031   0.467   1.731  -0.943 -0.3847  0.3369  0.8499
  108OSM   H12S11032   0.569   1.769  -0.968 -1.1896  1.9157 -0.1989
  108OSM   H12T11033   0.394   1.775  -1.013 -0.2704 -1.1198 -0.2181
  108OSM   C13S11034   0.453   1.582  -0.962 -0.4738 -0.2703  0.0701
  108OSM   H13S11035   0.343   1.568  -0.963 -1.0048  3.0215 -1.0357
  108OSM   H13T11036   0.511   1.532  -0.881  0.8515  0.1683 -0.5824
  108OSM   C14S11037   0.507   1.528  -1.094  0.0643 -0.1415 -0.4304
  108OSM   H14S11038   0.494   1.418  -1.096 -0.1846 -0.1245  0.1610
  108OSM   H14T11039   0.616   1.547  -1.106  0.0419  0.7763  0.6776
  108OSM   C15S11040   0.432   1.590  -1.216 -0.3202  0.8936 -0.3881
  108OSM   H15S11041   0.458   1.697  -1.206  0.7460  0.5736  0.4558
  108OSM   H15T11042   0.323   1.571  -1.207 -0.5510  1.6527 -1.4847
  108OSM   C16S11043   0.484   1.544  -1.357  0.3194  0.1887 -0.0051
  108OSM   H16S11044   0.466   1.435  -1.368 -2.2141  0.7240 -2.5318
  108OSM   H16T11045   0.593   1.564  -1.369 -0.0466  1.8551 -0.8565
  108OSM   C17S11046   0.417   1.618  -1.473  0.0374 -0.1861  0.2722
  108OSM   H17S11047   0.308   1.603  -1.480  0.1565 -1.2618  0.5384
  108OSM   H17T11048   0.445   1.577  -1.573 -1.5867 -3.0691  0.8824
  108OSM   C18S11049   0.448   1.769  -1.473  0.7140  0.2958  0.0711
  108OSM   H18S11050   0.386   1.806  -1.389 -1.0209  0.3159 -1.1639
  108OSM   H18T11051   0.420   1.819  -1.568 -3.6750 -0.7434  0.6357
  108OSM   H18U11052   0.555   1.792  -1.453 -0.0441  2.6186  2.0020
  108OSM    C1F11053   0.068   1.971  -0.033  0.1229  0.8119 -0.6159
  108OSM     OF11054   0.056   2.091  -0.014  0.6795  0.0127  0.4789
  108OSM    C2F11055  -0.033   1.885  -0.101  0.2319  0.2580  0.0727
  108OSM    H2F11056  -0.116   1.894  -0.028  1.2656 -2.4942  1.7423
  108OSM    H2G11057   0.003   1.781  -0.116 -1.6846 -0.4194 -0.1733
  108OSM    C3F11058  -0.069   1.949  -0.234  0.0054 -0.5034 -0.4462
  108OSM    H3F11059  -0.094   2.056  -0.217  1.1918 -0.0359 -1.4986
  108OSM    H3G11060  -0.150   1.882  -0.269  0.4105 -0.1992 -2.0185
  108OSM    C4F11061   0.038   1.959  -0.336 -0.3115  0.5059  0.0210
  108OSM    H4F11062   0.082   1.857  -0.346 -0.7549  0.4084 -1.1325
  108OSM    H4G11063   0.120   2.029  -0.310  1.0903 -1.5509  1.4267
  108OSM    C5F11064  -0.012   2.007  -0.470  0.6094 -0.4972 -0.5019
  108OSM    H5F11065  -0.063   2.105  -0.462  0.1403 -0.8941  2.1564
  108OSM    H5G11066  -0.090   1.938  -0.509 -1.1046 -1.3702  3.9258
  108OSM    C6F11067   0.105   2.033  -0.569  0.1040 -0.0760 -0.2130
  108OSM    H6F11068   0.167   1.942  -0.587 -0.6831 -0.5534 -0.5994
  108OSM    H6G11069   0.161   2.122  -0.535 -1.0746 -0.0924  1.8956
  108OSM    C7F11070   0.058   2.092  -0.704 -0.4526 -0.7873  0.2268
  108OSM    H7F11071  -0.019   2.165  -0.672  0.8281  0.2110  1.1246
  108OSM    H7G11072   0.001   2.009  -0.750 -0.7463 -0.5895  0.2336
  108OSM    C8F11073   0.172   2.147  -0.795  0.3920  0.9588 -0.0460
  108OSM    H8F11074   0.222   2.051  -0.819 -0.8514  0.4083 -0.4959
  108OSM    H8G11075   0.237   2.214  -0.734  0.2626  0.2238  0.9301
  108OSM    C9F11076   0.120   2.216  -0.921  0.1901 -0.8226  0.1649
  108OSM    H9F11077   0.036   2.286  -0.907  1.4093  0.7369 -0.0851
  108OSM   C10F11078   0.168   2.192  -1.045 -0.1752  0.2306 -0.1579
  108OSM   H10F11079   0.118   2.235  -1.133 -2.9333 -0.3731  1.0026
  108OSM   C11F11080   0.272   2.094  -1.086 -0.6919  0.5526  0.8966
  108OSM   H11F11081   0.296   2.016  -1.010 -2.0900 -0.9885 -0.1775
  108OSM   H11G11082   0.360   2.160  -1.104 -0.9675  0.2466 -1.9908
  108OSM   C12F11083   0.258   2.024  -1.226 -0.3789 -0.6922  0.8197
  108OSM   H12F11084   0.165   1.963  -1.226  0.0132 -1.3015  0.8064
  108OSM   H12G11085   0.347   1.959  -1.242 -0.5353 -0.3431 -1.9873
  108OSM   C13F11086   0.251   2.120  -1.347 -0.1574  0.0580  0.8350
  108OSM   H13F11087   0.350   2.122  -1.398 -0.1212 -0.0234  0.9005
  108OSM   H13G11088   0.225   2.222  -1.310 -3.7799 -0.2895 -0.4199
  108OSM   C14F11089   0.152   2.086  -1.457 -0.2376 -0.2938 -0.2431
  108OSM   H14F11090   0.054   2.057  -1.414 -0.2607 -0.8720 -0.6821
  108OSM   H14G11091   0.198   1.999  -1.508  1.3102  1.5867 -2.2184
  108OSM   C15F11092   0.125   2.214  -1.546 -0.3462  0.3069 -0.6016
  108OSM   H15F11093   0.223   2.245  -1.590 -1.4761  1.7885 -2.1852
  108OSM   H15G11094   0.071   2.293  -1.489 -0.6885 -0.5693  0.3235
  108OSM   C16F11095   0.039   2.183  -1.670 -0.0624 -0.6615  0.0144
  108OSM   H16F11096  -0.043   2.120  -1.629  0.3365  1.1429  4.0619
  108OSM   H16G11097   0.089   2.117  -1.743  0.7729 -0.9574  0.8334
  108OSM   C17F11098  -0.009   2.307  -1.741  0.6761 -0.1859 -0.2896
  108OSM   H17F11099   0.088   2.358  -1.761  1.1025 -0.0106  1.9847
  108OSM   H17G11100  -0.078   2.358  -1.670  1.0306 -0.1284  0.0137
  108OSM   C18F11101  -0.086   2.281  -1.869  0.0560  0.0334  0.5952
  108OSM   H18F11102  -0.141   2.185  -1.854  1.2283 -0.3133  3.0891
  108OSM   H18G11103  -0.028   2.279  -1.964 -0.5728 -0.6014  0.2102
  108OSM   H18H11104  -0.167   2.355  -1.886  0.4664  0.1614 -0.9084
  109OSM      N11105   1.930   3.681   0.692 -0.2489 -1.1001 -0.1496
  109OSM    C1511106   2.020   3.790   0.635 -0.4101 -0.2251  0.2032
  109OSM   H15A11107   1.963   3.870   0.590 -1.1699  0.0252  1.5653
  109OSM   H15B11108   2.079   3.736   0.562 -1.8242 -3.2487  1.1356
  109OSM   H15C11109   2.086   3.834   0.708  0.6948 -0.9078 -0.3584
  109OSM    C1411110   2.026   3.583   0.750  0.0917  0.3183 -0.0200
  109OSM   H14A11111   2.093   3.541   0.676 -0.4710 -1.0432  0.2055
  109OSM   H14B11112   1.979   3.500   0.801  1.2987 -0.0658  0.4952
  109OSM   H14C11113   2.088   3.630   0.825 -1.1972  1.1889  0.5226
  109OSM    C1311114   1.835   3.741   0.794 -0.0193  0.6077 -0.3050
  109OSM   H13A11115   1.762   3.679   0.843 -1.6702  2.3740 -0.4086
  109OSM   H13B11116   1.786   3.828   0.754  2.3184  1.8810 -0.5879
  109OSM   H13C11117   1.897   3.784   0.872 -0.2211 -1.0603  0.8277
  109OSM    C1211118   1.851   3.612   0.583 -0.7026  0.4839 -0.1834
  109OSM   H12A11119   1.769   3.675   0.552 -0.6116  0.3727 -0.6519
  109OSM   H12B11120   1.802   3.528   0.630 -1.5615  1.1725  0.1966
  109OSM    C1111121   1.921   3.560   0.451 -0.3340 -0.4806 -1.0291
  109OSM   H11A11122   1.958   3.655   0.407 -0.0707  0.1174  0.4271
  109OSM   H11B11123   1.835   3.525   0.391 -0.3193  1.6089 -2.3393
  109OSM      P11124   2.056   3.328   0.417  0.2358  0.0674 -0.2529
  109OSM    O1311125   2.164   3.265   0.491  0.1541  0.3735 -0.1890
  109OSM    O1411126   1.924   3.260   0.417  0.0567 -0.6674  0.1150
  109OSM    O1111127   2.106   3.355   0.278  0.5091 -0.4820  0.8513
  109OSM    O1211128   2.032   3.470   0.477  0.6749 -0.4223  0.2640
  109OSM    C1S11129   2.016   3.409   0.173 -0.5996  0.3409 -0.4562
  109OSM    H1S11130   2.033   3.518   0.168 -0.8576  0.4343  0.5268
  109OSM    H1T11131   1.908   3.391   0.192 -0.4342  0.9713  1.2734
  109OSM     NF11132   1.933   3.379  -0.059  0.3465 -0.6348  0.3756
  109OSM    HNF11133   1.866   3.310  -0.087 -0.6972  0.3096  0.4769
  109OSM    C2S11134   2.041   3.346   0.028 -0.2031  0.3358 -0.2624
  109OSM    H2S11135   2.132   3.403   0.001 -0.6670  0.8918 -0.6539
  109OSM    C3S11136   2.084   3.193   0.045  0.4108  0.5598  0.5880
  109OSM    H3S11137   2.009   3.128   0.096  1.3831 -1.9732 -0.9667
  109OSM     O311138   2.206   3.173   0.118  0.2929 -0.2235  0.0098
  109OSM    HO311139   2.233   3.256   0.158  3.2156 -1.0681  0.0594
  109OSM    C4S11140   2.102   3.119  -0.088  0.1787  0.6853  0.3127
  109OSM    H4S11141   2.017   3.133  -0.157 -0.7928  0.3664  1.4098
  109OSM    C5S11142   2.212   3.063  -0.137  0.1661  0.7545  0.2446
  109OSM    H5S11143   2.309   3.077  -0.086  0.1648 -0.6737  0.6875
  109OSM    C6S11144   2.227   3.018  -0.279 -0.3440  0.6217 -0.9485
  109OSM    H6S11145   2.210   2.908  -0.275 -0.1214  0.6067  2.6787
  109OSM    H6T11146   2.333   3.029  -0.310  0.7954 -1.5709  1.7217
  109OSM    C7S11147   2.130   3.070  -0.386 -0.2392  0.0876 -0.0458
  109OSM    H7S11148   2.136   3.176  -0.420 -2.1381 -0.3076 -1.7782
  109OSM    H7T11149   2.023   3.063  -0.358  0.1008 -0.0465  1.2751
  109OSM    C8S11150   2.135   2.991  -0.517 -0.0391 -0.0262 -0.7013
  109OSM    H8S11151   2.088   2.895  -0.485 -0.0198  0.2776  0.2660
  109OSM    H8T11152   2.239   2.961  -0.543 -0.2476  0.3660 -2.0867
  109OSM    C9S11153   2.071   3.043  -0.641  0.2069 -0.3682 -0.3083
  109OSM    H9S11154   2.108   3.145  -0.665 -1.1568  0.2632  0.1557
  109OSM    H9T11155   1.960   3.050  -0.630  0.2376  0.2724 -0.4014
  109OSM   C10S11156   2.092   2.949  -0.757  0.6210  0.6954 -0.2251
  109OSM   H10S11157   2.061   2.846  -0.728 -0.1434  1.2240  0.9062
  109OSM   H10T11158   2.198   2.941  -0.788  1.4328  2.7155  1.7586
  109OSM   C11S11159   2.028   2.996  -0.886  0.0134 -0.2304  0.5229
  109OSM   H11S11160   2.077   3.092  -0.912  0.7142 -0.6705  0.1895
  109OSM   H11T11161   1.923   3.027  -0.869  0.3303  0.6797  0.8924
  109OSM   C12S11162   2.044   2.899  -1.010  0.5015 -0.1104 -0.0190
  109OSM   H12S11163   1.975   2.814  -0.988 -0.8725  0.6627 -1.1783
  109OSM   H12T11164   2.148   2.863  -1.000  0.6362  0.3546  0.3154
  109OSM   C13S11165   2.004   2.952  -1.147 -0.5212 -0.1825  0.0220
  109OSM   H13S11166   1.899   2.985  -1.138 -0.1516  1.6668 -1.7905
  109OSM   H13T11167   2.013   2.872  -1.223  0.5028 -1.4643  1.4124
  109OSM   C14S11168   2.078   3.081  -1.196 -0.0862  0.0200  0.5512
  109OSM   H14S11169   2.060   3.165  -1.125  0.6289  0.4775  0.2064
  109OSM   H14T11170   2.031   3.102  -1.294 -0.2461  0.7651  0.7789
  109OSM   C15S11171   2.234   3.061  -1.219 -0.1781 -1.0341  0.1175
  109OSM   H15S11172   2.277   3.054  -1.117  0.3316  1.6576  0.1694
  109OSM   H15T11173   2.283   3.156  -1.251  0.4235 -0.5395  2.3637
  109OSM   C16S11174   2.281   2.944  -1.307  0.3358  0.2747 -0.0250
  109OSM   H16S11175   2.247   2.850  -1.258  1.4896  0.9869  2.2723
  109OSM   H16T11176   2.392   2.947  -1.312  0.3495 -1.0663 -1.7657
  109OSM   C17S11177   2.225   2.931  -1.449  0.4432 -0.9510 -0.4473
  109OSM   H17S11178   2.252   3.014  -1.518 -1.3171  1.0514  1.1282
  109OSM   H17T11179   2.114   2.942  -1.449  0.2947 -1.5779  2.6359
  109OSM   C18S11180   2.259   2.797  -1.520  0.1004  0.0869  0.0643
  109OSM   H18S11181   2.208   2.799  -1.618  0.3371  3.2900 -0.0996
  109OSM   H18T11182   2.222   2.714  -1.455  0.5501  0.6570  1.0878
  109OSM   H18U11183   2.369   2.780  -1.531 -0.1403 -1.5680 -0.0832
  109OSM    C1F11184   1.899   3.506  -0.087  0.2189 -0.5055  0.7112
  109OSM     OF11185   1.972   3.600  -0.050 -0.0469  0.1248  0.7740
  109OSM    C2F11186   1.775   3.530  -0.173 -0.0867  0.7610 -0.4355
  109OSM    H2F11187   1.685   3.548  -0.110 -1.2587 -3.0647 -0.7742
  109OSM    H2G11188   1.755   3.448  -0.244  0.1087  0.4820 -0.1707
  109OSM    C3F11189   1.792   3.661  -0.254 -0.0445  1.2796 -0.5005
  109OSM    H3F11190   1.899   3.666  -0.285 -0.1639  0.6919 -1.0349
  109OSM    H3G11191   1.786   3.750  -0.189 -0.0390  0.6703  0.3560
  109OSM    C4F11192   1.701   3.673  -0.375  0.3874  0.2347 -0.2445
  109OSM    H4F11193   1.713   3.586  -0.443  0.5495  0.4259 -0.4653
  109OSM    H4G11194   1.736   3.763  -0.431  1.2464 -0.3749 -0.7242
  109OSM    C5F11195   1.553   3.690  -0.339  0.2175  0.3972  0.6716
  109OSM    H5F11196   1.539   3.793  -0.299 -2.5073 -0.0261  1.0035
  109OSM    H5G11197   1.526   3.614  -0.263 -0.9782 -0.2543 -0.3684
  109OSM    C6F11198   1.463   3.673  -0.465 -0.7170 -0.8698 -0.3745
  109OSM    H6F11199   1.454   3.567  -0.494 -1.9969 -0.8336 -0.1506
  109OSM    H6G11200   1.513   3.725  -0.550 -1.1456  2.8231  1.4087
  109OSM    C7F11201   1.328   3.738  -0.438  0.6513 -0.5325 -0.7482
  109OSM    H7F11202   1.267   3.757  -0.529 -1.8091 -0.0172  0.8922
  109OSM    H7G11203   1.341   3.844  -0.405  2.4207 -0.6781 -0.8876
  109OSM    C8F11204   1.243   3.653  -0.343  0.4673 -0.7002  0.4067
  109OSM    H8F11205   1.296   3.640  -0.246  0.3843  2.5667  1.0058
  109OSM    H8G11206   1.224   3.554  -0.389  0.1138 -0.2790 -0.3667
  109OSM    C9F11207   1.115   3.733  -0.332 -0.0989 -0.0211  0.6212
  109OSM    H9F11208   1.129   3.834  -0.291 -3.2481  1.0179 -0.5140
  109OSM   C10F11209   0.990   3.700  -0.373  0.2410  0.3418  0.6640
  109OSM   H10F11210   0.908   3.770  -0.351 -0.3858 -0.1230 -0.1497
  109OSM   C11F11211   0.947   3.578  -0.454  0.0451 -0.2850  0.1702
  109OSM   H11F11212   0.848   3.539  -0.422  1.4942 -1.8262  3.1230
  109OSM   H11G11213   1.019   3.498  -0.426  0.2247 -0.3295 -0.4116
  109OSM   C12F11214   0.958   3.587  -0.610 -0.8800 -0.0325  0.1393
  109OSM   H12F11215   0.931   3.486  -0.648  1.0682 -0.9114  0.9313
  109OSM   H12G11216   1.068   3.585  -0.626 -0.4216 -5.1970  1.8624
  109OSM   C13F11217   0.871   3.700  -0.674  0.1603  0.2858  0.2896
  109OSM   H13F11218   0.873   3.788  -0.606 -0.0944 -0.6403  1.5283
  109OSM   H13G11219   0.764   3.671  -0.677  0.2224  0.1347 -0.6820
  109OSM   C14F11220   0.922   3.741  -0.813  0.1050  0.7064 -0.0104
  109OSM   H14F11221   1.027   3.773  -0.795  0.5255  0.7072 -2.2795
  109OSM   H14G11222   0.863   3.829  -0.846 -1.0213  1.5788  3.7682
  109OSM   C15F11223   0.922   3.627  -0.912 -0.1205 -0.1014  0.0661
  109OSM   H15F11224   0.983   3.543  -0.873  1.1701  1.6211  1.9980
  109OSM   H15G11225   0.980   3.660  -1.001  1.0561  1.9092  1.4905
  109OSM   C16F11226   0.784   3.592  -0.959 -0.0123  0.0564  0.0895
  109OSM   H16F11227   0.741   3.685  -1.003 -0.7334 -0.2389  0.1476
  109OSM   H16G11228   0.725   3.565  -0.869 -1.3330 -0.3131 -0.8581
  109OSM   C17F11229   0.774   3.482  -1.065 -0.7111 -0.1334  0.2711
  109OSM   H17F11230   0.814   3.384  -1.033 -2.2345 -0.3229  1.7054
  109OSM   H17G11231   0.829   3.525  -1.152 -1.1215  1.2112  0.6417
  109OSM   C18F11232   0.623   3.472  -1.096 -1.2335 -0.0538  0.0076
  109OSM   H18F11233   0.569   3.425  -1.011  0.2535  2.8852  2.8004
  109OSM   H18G11234   0.616   3.418  -1.193  2.0818  0.4150 -0.6354
  109OSM   H18H11235   0.584   3.576  -1.103 -0.9910  0.0117 -0.4170
  110OSM      N11236   0.934   6.862   0.010  0.0307 -0.2843 -0.2448
  110OSM    C1511237   1.067   6.895  -0.061 -0.1754 -0.2770 -0.5172
  110OSM   H15A11238   1.064   6.871  -0.166  1.0175 -1.2496 -0.3514
  110OSM   H15B11239   1.156   6.846  -0.024 -0.7722 -0.2119  1.0892
  110OSM   H15C11240   1.089   7.001  -0.062  1.6860 -0.5463 -3.9674
  110OSM    C1411241   0.906   6.719  -0.010  0.0360  0.6828 -0.0031
  110OSM   H14A11242   0.834   6.674   0.057  1.3674 -1.2406  0.2207
  110OSM   H14B11243   0.995   6.658  -0.006  0.6043  1.5643  2.5134
  110OSM   H14C11244   0.857   6.700  -0.104  0.6541 -0.1749 -0.1634
  110OSM    C1311245   0.945   6.874   0.158 -0.2042  0.3104 -0.9215
  110OSM   H13A11246   0.858   6.836   0.209  0.7301  0.0565  0.5597
  110OSM   H13B11247   0.934   6.973   0.199 -0.0115 -0.5411  1.3558
  110OSM   H13C11248   1.030   6.817   0.193  0.2691  1.5680  0.0376
  110OSM    C1211249   0.824   6.939  -0.055  0.0704 -0.3167  0.4410
  110OSM   H12A11250   0.733   6.898  -0.014  1.0611 -1.4831  1.5691
  110OSM   H12B11251   0.822   6.915  -0.161 -0.6325  0.6997  0.2160
  110OSM    C1111252   0.832   7.089  -0.028 -0.0487 -0.1968  0.7430
  110OSM   H11A11253   0.914   7.134  -0.087 -1.3806  0.9608 -0.2903
  110OSM   H11B11254   0.855   7.113   0.078 -0.1554  2.1185  0.2850
  110OSM      P11255   0.577   7.129   0.025 -0.1066  0.1186 -0.3287
  110OSM    O1311256   0.586   6.989   0.080  0.5635 -0.6801  0.3387
  110OSM    O1411257   0.569   7.240   0.121  0.4514 -0.1317  0.0885
  110OSM    O1111258   0.459   7.127  -0.073  0.4431  0.5879 -0.1753
  110OSM    O1211259   0.709   7.150  -0.065 -0.4658 -0.4037 -0.6861
  110OSM    C1S11260   0.466   7.070  -0.203  0.1018 -0.4512 -0.0874
  110OSM    H1S11261   0.495   6.964  -0.190  1.2643 -0.2892 -1.1026
  110OSM    H1T11262   0.546   7.125  -0.258  0.6804 -0.4191  0.7617
  110OSM     NF11263   0.331   7.028  -0.406  0.7832  0.0989  0.0573
  110OSM    HNF11264   0.311   7.084  -0.487  0.3738  0.5737  0.4801
  110OSM    C2S11265   0.328   7.090  -0.277  0.6358 -0.6119  0.0133
  110OSM    H2S11266   0.254   7.045  -0.208 -1.3664 -0.1984 -1.7799
  110OSM    C3S11267   0.295   7.245  -0.275  0.7005 -0.7095 -0.0200
  110OSM    H3S11268   0.371   7.301  -0.333 -0.4083  0.5333 -0.3143
  110OSM     O311269   0.304   7.308  -0.143  0.0573 -0.3992 -0.3280
  110OSM    HO311270   0.355   7.242  -0.096 -0.8507 -0.1929  1.0069
  110OSM    C4S11271   0.157   7.272  -0.329 -0.1581  0.3316  0.6919
  110OSM    H4S11272   0.075   7.229  -0.269  0.7524 -2.0124  0.3948
  110OSM    C5S11273   0.126   7.341  -0.440 -0.4758 -0.2243  0.2367
  110OSM    H5S11274   0.213   7.368  -0.500 -1.7946  1.5050 -1.0185
  110OSM    C6S11275  -0.008   7.364  -0.496 -0.1158 -0.3835  0.5897
  110OSM    H6S11276  -0.021   7.474  -0.499 -3.0836 -0.6183  1.8190
  110OSM    H6T11277  -0.084   7.321  -0.428 -0.2776 -0.5577  0.3025
  110OSM    C7S11278  -0.030   7.319  -0.644 -0.1236 -0.4058 -0.7501
  110OSM    H7S11279  -0.014   7.209  -0.638 -2.3701 -0.7033  1.4029
  110OSM    H7T11280   0.053   7.353  -0.710 -0.1627 -2.5470 -1.9912
  110OSM    C8S11281  -0.161   7.352  -0.698 -0.0076 -0.0377 -0.0155
  110OSM    H8S11282  -0.165   7.463  -0.686  1.5920 -0.0620  1.0416
  110OSM    H8T11283  -0.242   7.312  -0.633 -1.1098 -0.4943 -1.6095
  110OSM    C9S11284  -0.190   7.312  -0.848 -0.3433  0.6565 -0.2388
  110OSM    H9S11285  -0.175   7.202  -0.860  1.4779  0.6997  1.1645
  110OSM    H9T11286  -0.113   7.359  -0.912 -0.4987  0.5232 -0.5252
  110OSM   C10S11287  -0.327   7.353  -0.898  0.2145 -1.2153 -1.0030
  110OSM   H10S11288  -0.349   7.448  -0.845 -1.5949 -2.2755  0.2664
  110OSM   H10T11289  -0.408   7.283  -0.867  0.8359 -1.0011  1.3260
  110OSM   C11S11290  -0.340   7.381  -1.045 -0.3081  0.2557  0.4391
  110OSM   H11S11291  -0.274   7.466  -1.072 -0.6920  0.0272 -1.3955
  110OSM   H11T11292  -0.445   7.415  -1.057 -0.4713  0.3049  1.8525
  110OSM   C12S11293  -0.303   7.280  -1.150  0.5875  0.3130  0.7425
  110OSM   H12S11294  -0.374   7.197  -1.169  1.2911 -0.3930  1.1514
  110OSM   H12T11295  -0.204   7.234  -1.131  1.4590  1.4797 -0.7100
  110OSM   C13S11296  -0.295   7.335  -1.297 -0.2703  0.0097  0.5737
  110OSM   H13S11297  -0.233   7.427  -1.295  2.8022 -1.8749 -0.8596
  110OSM   H13T11298  -0.394   7.366  -1.336 -0.5116 -1.7426 -0.2976
  110OSM   C14S11299  -0.230   7.247  -1.406 -0.4610  0.0622  0.5001
  110OSM   H14S11300  -0.279   7.152  -1.378  0.4915 -0.5165  0.2554
  110OSM   H14T11301  -0.119   7.245  -1.398 -0.3477  0.3423 -0.7307
  110OSM   C15S11302  -0.273   7.287  -1.546  0.2158 -0.0357  1.3737
  110OSM   H15S11303  -0.255   7.395  -1.566 -1.8090 -0.0931 -1.1433
  110OSM   H15T11304  -0.379   7.270  -1.573  0.1660  0.5394  1.1884
  110OSM   C16S11305  -0.186   7.222  -1.656  0.2228  0.1400  0.7370
  110OSM   H16S11306  -0.179   7.112  -1.642 -2.0895  0.1623  2.8265
  110OSM   H16T11307  -0.083   7.262  -1.649  0.3157  0.1706 -0.5463
  110OSM   C17S11308  -0.247   7.230  -1.788  0.4794 -0.1741  0.6913
  110OSM   H17S11309  -0.273   7.334  -1.816  2.1645  0.4203  1.2128
  110OSM   H17T11310  -0.345   7.178  -1.794  0.4363 -0.0941  0.7107
  110OSM   C18S11311  -0.166   7.173  -1.906 -0.6438  0.1306  0.2475
  110OSM   H18S11312  -0.064   7.216  -1.913 -0.2227 -0.8902  0.0341
  110OSM   H18T11313  -0.210   7.182  -2.008 -0.5428 -1.0129  0.0961
  110OSM   H18U11314  -0.156   7.064  -1.888 -1.6848  0.0708  0.5680
  110OSM    C1F11315   0.358   6.901  -0.432 -0.8082  0.0419  0.4935
  110OSM     OF11316   0.370   6.818  -0.342  0.1509 -0.0762 -0.1687
  110OSM    C2F11317   0.370   6.858  -0.581  0.0030 -0.0877 -0.7008
  110OSM    H2F11318   0.464   6.898  -0.626 -0.5792 -0.3285 -2.1846
  110OSM    H2G11319   0.274   6.886  -0.628 -1.0289 -3.4186 -0.8639
  110OSM    C3F11320   0.382   6.701  -0.593  0.0014 -0.3274  0.1831
  110OSM    H3F11321   0.307   6.649  -0.530 -1.2339  1.3288  0.1611
  110OSM    H3G11322   0.484   6.675  -0.557  0.1480 -3.2008 -1.9524
  110OSM    C4F11323   0.393   6.641  -0.734  0.3726  0.4381  0.2549
  110OSM    H4F11324   0.383   6.530  -0.731  2.9094  0.1713  1.5629
  110OSM    H4G11325   0.493   6.655  -0.781 -0.3518 -0.7003 -1.7882
  110OSM    C5F11326   0.284   6.698  -0.833 -0.7523  0.2143  0.0287
  110OSM    H5F11327   0.294   6.808  -0.843 -2.3757  0.4716  0.8518
  110OSM    H5G11328   0.186   6.677  -0.786 -0.4196 -1.2009  0.1316
  110OSM    C6F11329   0.293   6.636  -0.980 -0.2454 -0.2839  0.7897
  110OSM    H6F11330   0.284   6.526  -0.966  3.2968 -0.5919  1.5796
  110OSM    H6G11331   0.394   6.646  -1.025 -0.3128 -1.4088  0.3417
  110OSM    C7F11332   0.169   6.681  -1.065 -0.1537 -0.4766 -0.4845
  110OSM    H7F11333   0.171   6.789  -1.093 -0.2065 -0.5740 -0.8572
  110OSM    H7G11334   0.068   6.662  -1.023 -0.0174  0.8021  0.4890
  110OSM    C8F11335   0.159   6.599  -1.196  0.1359 -0.3387  0.2541
  110OSM    H8F11336   0.061   6.626  -1.239  1.0785  0.8084 -1.2407
  110OSM    H8G11337   0.155   6.491  -1.169  2.2599 -0.0367  2.1331
  110OSM    C9F11338   0.275   6.625  -1.287 -0.2713  0.7789  0.1193
  110OSM    H9F11339   0.361   6.674  -1.241  0.7479 -1.2822  0.5262
  110OSM   C10F11340   0.292   6.560  -1.401 -0.7696 -0.0201 -0.6102
  110OSM   H10F11341   0.375   6.581  -1.470 -0.1417 -0.4154 -0.0001
  110OSM   C11F11342   0.182   6.472  -1.460 -0.1928  0.4468 -0.2432
  110OSM   H11F11343   0.082   6.494  -1.418 -0.4133 -1.9506  0.6381
  110OSM   H11G11344   0.195   6.366  -1.429  0.9392  0.9609  1.1428
  110OSM   C12F11345   0.157   6.472  -1.613 -0.5820 -1.2591  0.2638
  110OSM   H12F11346   0.098   6.382  -1.640 -2.8782  0.4969 -0.8842
  110OSM   H12G11347   0.259   6.468  -1.658 -0.3062  0.0033  0.7269
  110OSM   C13F11348   0.105   6.601  -1.672  0.2927 -0.6057 -0.7345
  110OSM   H13F11349   0.180   6.682  -1.658 -0.5080  0.7516 -3.5691
  110OSM   H13G11350   0.011   6.633  -1.621 -0.5089  0.9815 -3.0675
  110OSM   C14F11351   0.065   6.582  -1.817  0.3355  0.0752 -0.2482
  110OSM   H14F11352  -0.027   6.520  -1.824  0.7273 -0.4041 -1.2629
  110OSM   H14G11353   0.142   6.532  -1.879  1.9779  1.6618  0.4300
  110OSM   C15F11354   0.034   6.720  -1.884 -0.4839  0.2277 -0.1964
  110OSM   H15F11355   0.132   6.773  -1.886 -0.3128  0.0398  1.7500
  110OSM   H15G11356  -0.042   6.774  -1.824 -0.7085 -2.5684  2.2342
  110OSM   C16F11357  -0.025   6.695  -2.030 -0.0659 -0.0769 -0.0005
  110OSM   H16F11358  -0.110   6.624  -2.016 -0.3679 -0.3605 -2.6782
  110OSM   H16G11359   0.057   6.652  -2.092  1.4241  1.3275  0.9366
  110OSM   C17F11360  -0.083   6.818  -2.099 -0.4730 -0.0791  0.2042
  110OSM   H17F11361  -0.045   6.824  -2.203  0.8439  2.0810  0.7312
  110OSM   H17G11362  -0.045   6.906  -2.042  0.8548 -1.2368  1.1850
  110OSM   C18F11363  -0.230   6.824  -2.125  0.0697 -0.1916  0.0930
  110OSM   H18F11364  -0.256   6.916  -2.181 -0.2804 -1.2358 -1.5112
  110OSM   H18G11365  -0.285   6.827  -2.028 -0.0823  2.1360 -0.0187
  110OSM   H18H11366  -0.262   6.735  -2.183 -0.4610  1.3126 -2.0354
  111OSM      N11367   1.711   5.910   0.691 -0.8090  0.5957 -0.4063
  111OSM    C1511368   1.729   5.765   0.651 -0.4017  0.0472 -0.2151
  111OSM   H15A11369   1.678   5.749   0.557 -2.4138  1.5909  0.5159
  111OSM   H15B11370   1.693   5.698   0.727 -0.7658  1.6837  1.1206
  111OSM   H15C11371   1.831   5.735   0.633  0.1101 -0.4396  2.9253
  111OSM    C1411372   1.567   5.944   0.736  0.0564 -0.6907  1.0676
  111OSM   H14A11373   1.535   5.885   0.822  0.6363  1.1702  2.6201
  111OSM   H14B11374   1.488   5.931   0.663 -2.3401  1.3202  3.1237
  111OSM   H14C11375   1.577   6.040   0.783  1.7476 -0.2962 -0.0241
  111OSM    C1311376   1.797   5.935   0.812  0.2851 -0.0846  0.3185
  111OSM   H13A11377   1.789   5.860   0.890  0.2112 -1.5217 -1.0106
  111OSM   H13B11378   1.772   6.030   0.855 -2.1067 -0.9385  1.0121
  111OSM   H13C11379   1.899   5.937   0.778 -0.1216  0.5081 -0.9145
  111OSM    C1211380   1.750   6.008   0.584  0.2061 -0.4826  0.4027
  111OSM   H12A11381   1.851   5.997   0.547  0.0151  0.2474 -0.3953
  111OSM   H12B11382   1.739   6.108   0.625 -0.0488 -0.8476  1.2337
  111OSM    C1111383   1.662   6.021   0.452  0.4192 -0.3269 -0.2045
  111OSM   H11A11384   1.699   6.093   0.376  1.1381  2.7350  2.7840
  111OSM   H11B11385   1.579   6.084   0.493 -0.3521 -0.3672 -1.6615
  111OSM      P11386   1.465   5.849   0.403  0.1961 -0.3926  0.0663
  111OSM    O1311387   1.458   5.700   0.409 -0.3326  0.5620  0.1151
  111OSM    O1411388   1.390   5.924   0.507 -0.4107 -0.2200 -0.1642
  111OSM    O1111389   1.413   5.899   0.256  0.1708 -0.1631  1.1255
  111OSM    O1211390   1.617   5.899   0.392  0.1974  0.2994  0.0406
  111OSM    C1S11391   1.456   5.843   0.137 -0.6068  0.0819  0.2321
  111OSM    H1S11392   1.449   5.732   0.144  1.7031 -0.3925 -2.7745
  111OSM    H1T11393   1.565   5.863   0.127 -0.7096  1.6069  1.6750
  111OSM     NF11394   1.407   5.823  -0.099 -0.4845  0.6672  0.3172
  111OSM    HNF11395   1.456   5.870  -0.173  0.6695  0.7124  1.0796
  111OSM    C2S11396   1.378   5.900   0.018 -0.3280 -0.3131  0.0576
  111OSM    H2S11397   1.270   5.890   0.041  0.1032 -2.0100  1.5213
  111OSM    C3S11398   1.409   6.054  -0.002  0.7082  0.5247  0.1254
  111OSM    H3S11399   1.516   6.054  -0.032  1.0732  0.9921  1.3876
  111OSM     O311400   1.419   6.133   0.114  0.2764  0.1158 -0.0783
  111OSM    HO311401   1.426   6.070   0.185 -0.3980  1.7679  1.5433
  111OSM    C4S11402   1.309   6.120  -0.096  0.1247  0.1460  0.4632
  111OSM    H4S11403   1.205   6.109  -0.064  0.0691 -0.2351  0.1608
  111OSM    C5S11404   1.339   6.183  -0.206  0.2760  0.0320  0.6732
  111OSM    H5S11405   1.442   6.192  -0.245 -0.5445 -1.1194 -1.9364
  111OSM    C6S11406   1.234   6.232  -0.305  0.0936 -0.6184  0.1785
  111OSM    H6S11407   1.241   6.343  -0.298  3.8526 -0.6195 -0.9637
  111OSM    H6T11408   1.133   6.203  -0.269  0.8371 -3.2542  0.3801
  111OSM    C7S11409   1.262   6.187  -0.452 -0.7822  0.0357  0.0826
  111OSM    H7S11410   1.252   6.079  -0.475  0.3212  0.0749 -0.6785
  111OSM    H7T11411   1.356   6.231  -0.494 -0.9508 -0.3700 -0.7294
  111OSM    C8S11412   1.154   6.252  -0.543  0.0583 -0.3394  0.3456
  111OSM    H8S11413   1.171   6.361  -0.554 -0.3055 -0.0666  2.1471
  111OSM    H8T11414   1.047   6.233  -0.519  0.3888 -2.4011  0.4279
  111OSM    C9S11415   1.167   6.194  -0.688 -0.4737 -0.0402 -0.6265
  111OSM    H9S11416   1.185   6.084  -0.692  1.1258  0.2176 -1.3429
  111OSM    H9T11417   1.268   6.233  -0.715 -0.9779  0.5500 -1.7182
  111OSM   C10S11418   1.069   6.240  -0.802 -0.1656 -0.0954 -0.2220
  111OSM   H10S11419   1.074   6.350  -0.817 -1.3923 -0.2154 -1.7541
  111OSM   H10T11420   0.975   6.207  -0.754 -1.7057  2.3224 -1.3914
  111OSM   C11S11421   1.081   6.163  -0.939  0.0416  0.4416 -0.1714
  111OSM   H11S11422   1.005   6.183  -1.018  1.0524 -0.0965 -1.3106
  111OSM   H11T11423   1.091   6.054  -0.921 -0.1309  0.1677 -1.6151
  111OSM   C12S11424   1.208   6.220  -0.999  0.5891  0.0328 -0.1451
  111OSM   H12S11425   1.285   6.183  -0.928 -0.3924 -0.5163  0.6528
  111OSM   H12T11426   1.208   6.331  -0.992  0.9419 -0.0441  1.2323
  111OSM   C13S11427   1.236   6.172  -1.134  0.6256 -0.5076  0.1781
  111OSM   H13S11428   1.229   6.061  -1.139 -0.7821 -0.3738 -1.3735
  111OSM   H13T11429   1.338   6.198  -1.169  1.1016 -1.4671  0.7798
  111OSM   C14S11430   1.141   6.210  -1.250  0.4950  0.1540  0.4470
  111OSM   H14S11431   1.171   6.313  -1.278 -0.9728  1.0798  2.1039
  111OSM   H14T11432   1.034   6.212  -1.220  0.5446 -0.2596  0.6701
  111OSM   C15S11433   1.155   6.117  -1.374 -0.1962  0.1898  0.0807
  111OSM   H15S11434   1.118   6.023  -1.328 -1.8768  0.5587 -0.4218
  111OSM   H15T11435   1.256   6.106  -1.418  0.1343 -0.3189  0.9465
  111OSM   C16S11436   1.072   6.168  -1.495 -0.1043 -0.3775  0.4409
  111OSM   H16S11437   1.081   6.278  -1.505  1.0435 -0.4557  0.5282
  111OSM   H16T11438   0.966   6.135  -1.487 -0.1169 -0.9558 -1.4752
  111OSM   C17S11439   1.140   6.123  -1.629  0.4187 -0.1578 -0.8514
  111OSM   H17S11440   1.113   6.018  -1.655  0.0695 -0.8063  1.8586
  111OSM   H17T11441   1.247   6.144  -1.610  0.0931  0.1813  0.7280
  111OSM   C18S11442   1.092   6.215  -1.747 -0.5994 -0.2646  0.2937
  111OSM   H18S11443   1.171   6.212  -1.826 -0.9072 -0.8757  0.0067
  111OSM   H18T11444   1.079   6.319  -1.710 -1.5605 -0.3611  0.2590
  111OSM   H18U11445   1.002   6.171  -1.795 -0.4463 -1.2163  0.8742
  111OSM    C1F11446   1.349   5.699  -0.118 -0.5108 -0.2659  0.2780
  111OSM     OF11447   1.259   5.657  -0.049 -0.0156  0.3863  0.1301
  111OSM    C2F11448   1.393   5.627  -0.242 -0.8190 -0.3009 -0.1031
  111OSM    H2F11449   1.498   5.656  -0.265 -0.9103  0.9351  0.9796
  111OSM    H2G11450   1.320   5.652  -0.322 -2.5290 -3.1198  0.4520
  111OSM    C3F11451   1.384   5.472  -0.233 -0.1744 -0.0563  1.1367
  111OSM    H3F11452   1.278   5.437  -0.230 -0.6693  1.3054  0.4514
  111OSM    H3G11453   1.432   5.442  -0.137  0.6683  2.6044  1.6300
  111OSM    C4F11454   1.455   5.400  -0.348 -0.9583 -0.7681 -0.0346
  111OSM    H4F11455   1.468   5.293  -0.319  0.2312 -0.7821 -0.5613
  111OSM    H4G11456   1.553   5.449  -0.364 -2.1915  2.2554  1.0636
  111OSM    C5F11457   1.386   5.394  -0.486  0.1960  0.4916 -0.1762
  111OSM    H5F11458   1.347   5.496  -0.507 -2.9258 -0.5190  0.1953
  111OSM    H5G11459   1.306   5.318  -0.475  0.3441  0.4721  0.8127
  111OSM    C6F11460   1.483   5.344  -0.595  0.4817  0.4351 -0.6487
  111OSM    H6F11461   1.550   5.276  -0.538 -1.7253  0.6576  2.4827
  111OSM    H6G11462   1.542   5.425  -0.642  0.2680  0.5569 -0.7086
  111OSM    C7F11463   1.406   5.268  -0.700 -0.1777  0.5327  0.4600
  111OSM    H7F11464   1.328   5.339  -0.734  0.7645  1.6684  0.5891
  111OSM    H7G11465   1.367   5.174  -0.656 -0.6859  0.1167 -0.8120
  111OSM    C8F11466   1.497   5.248  -0.828  0.4360 -0.1719 -0.6260
  111OSM    H8F11467   1.583   5.185  -0.797  1.1292  1.2290  0.4084
  111OSM    H8G11468   1.536   5.350  -0.846  0.2619  0.2029  0.9813
  111OSM    C9F11469   1.417   5.181  -0.941  0.3407 -0.0895  0.2952
  111OSM    H9F11470   1.373   5.084  -0.917  0.1870 -0.2831 -0.7416
  111OSM   C10F11471   1.407   5.229  -1.068 -0.2151  0.5391 -0.7193
  111OSM   H10F11472   1.335   5.188  -1.140 -0.0060  1.5340 -1.5202
  111OSM   C11F11473   1.464   5.359  -1.123  0.2864  0.5716  0.1550
  111OSM   H11F11474   1.530   5.404  -1.046 -1.6312  1.7363  1.2059
  111OSM   H11G11475   1.383   5.432  -1.143  1.6946  2.3720  0.7608
  111OSM   C12F11476   1.551   5.334  -1.251  0.3870  0.3625 -0.5334
  111OSM   H12F11477   1.574   5.441  -1.270  0.6366  0.1115 -1.7613
  111OSM   H12G11478   1.479   5.302  -1.330  0.2344 -1.2805  0.2177
  111OSM   C13F11479   1.689   5.257  -1.230  0.8450 -0.9436  0.0393
  111OSM   H13F11480   1.678   5.175  -1.157 -1.1752 -0.7788 -0.0121
  111OSM   H13G11481   1.744   5.328  -1.164 -0.5814 -0.2127  0.4823
  111OSM   C14F11482   1.775   5.232  -1.358 -0.3248 -0.1202  0.0952
  111OSM   H14F11483   1.717   5.178  -1.435  0.9315 -0.3275 -0.7385
  111OSM   H14G11484   1.874   5.184  -1.343 -0.8252 -2.0363 -2.3069
  111OSM   C15F11485   1.822   5.378  -1.399 -0.2386  0.0093 -0.0446
  111OSM   H15F11486   1.907   5.387  -1.329 -0.0789  0.2785 -0.2734
  111OSM   H15G11487   1.733   5.442  -1.380  0.0991  0.2582  0.7248
  111OSM   C16F11488   1.874   5.378  -1.549  0.0762 -0.1177  0.0766
  111OSM   H16F11489   1.943   5.291  -1.557 -1.2405 -1.3831  1.7063
  111OSM   H16G11490   1.935   5.470  -1.556 -1.1482  0.6962 -0.3154
  111OSM   C17F11491   1.763   5.383  -1.654 -0.1054  0.0557  0.5060
  111OSM   H17F11492   1.672   5.432  -1.615  1.6288  2.9535  1.2324
  111OSM   H17G11493   1.738   5.277  -1.676  2.2734 -0.7567  1.3867
  111OSM   C18F11494   1.812   5.442  -1.789 -0.6928 -0.4498  0.2744
  111OSM   H18F11495   1.733   5.418  -1.863 -0.9346 -0.4182  0.5186
  111OSM   H18G11496   1.902   5.386  -1.822 -0.2639  0.0885  0.5277
  111OSM   H18H11497   1.846   5.547  -1.796 -0.3983 -0.5695 -0.1080
  112OSM      N11498   6.333   3.447   0.547 -0.0712  1.3184  0.2872
  112OSM    C1511499   6.428   3.342   0.599  0.1480  0.5133 -0.0151
  112OSM   H15A11500   6.470   3.275   0.526 -1.4704 -1.1408  0.4666
  112OSM   H15B11501   6.373   3.268   0.656  0.2890 -0.3900 -1.0101
  112OSM   H15C11502   6.505   3.391   0.655  1.5716 -0.6685 -0.8653
  112OSM    C1411503   6.263   3.530   0.655  0.1255 -0.0619  0.3863
  112OSM   H14A11504   6.190   3.595   0.608 -0.3622 -0.7087  0.2456
  112OSM   H14B11505   6.333   3.587   0.715 -1.7438  2.9243 -0.0122
  112OSM   H14C11506   6.205   3.463   0.716  0.7515 -1.0286 -0.0711
  112OSM    C1311507   6.418   3.538   0.467  0.3765  0.3210  0.8471
  112OSM   H13A11508   6.462   3.503   0.375  1.9984  1.9252  0.9428
  112OSM   H13B11509   6.497   3.577   0.530 -0.5117  1.7441  1.1274
  112OSM   H13C11510   6.368   3.631   0.442  1.2890  1.2352  2.2434
  112OSM    C1211511   6.229   3.381   0.468 -0.5978  0.0052 -0.1101
  112OSM   H12A11512   6.181   3.306   0.529  0.1399  0.9080  1.6604
  112OSM   H12B11513   6.285   3.320   0.399 -1.1489 -0.9928  0.2993
  112OSM    C1111514   6.117   3.468   0.406 -0.4058 -0.2889 -0.1413
  112OSM   H11A11515   6.072   3.393   0.337  1.0426 -1.9118  0.6004
  112OSM   H11B11516   6.155   3.546   0.336 -0.2781 -0.9079 -0.7838
  112OSM      P11517   5.911   3.426   0.567 -0.0310 -0.1432 -0.1525
  112OSM    O1311518   5.971   3.335   0.674 -0.1970  0.2230 -0.0025
  112OSM    O1411519   5.799   3.511   0.615 -0.1281  0.0181 -0.1321
  112OSM    O1111520   5.849   3.338   0.454 -0.1976 -0.4231  0.0233
  112OSM    O1211521   6.022   3.519   0.495  0.7069 -0.4314 -0.6542
  112OSM    C1S11522   5.735   3.377   0.369 -0.2016 -1.1728 -0.0290
  112OSM    H1S11523   5.696   3.478   0.392 -0.3977 -0.9319 -1.3471
  112OSM    H1T11524   5.647   3.310   0.372  0.4622 -2.0543  1.0431
  112OSM     NF11525   5.687   3.448   0.136  0.0329 -0.1145 -0.5417
  112OSM    HNF11526   5.627   3.392   0.079 -0.0587  0.0241 -0.5810
  112OSM    C2S11527   5.784   3.371   0.214 -0.8230  0.3791 -0.0888
  112OSM    H2S11528   5.875   3.434   0.205 -0.5263 -0.2602 -2.2110
  112OSM    C3S11529   5.813   3.228   0.177  0.2402  0.0270  0.2786
  112OSM    H3S11530   5.716   3.175   0.186  0.3011 -0.2762 -0.6841
  112OSM     O311531   5.908   3.166   0.263  0.0429 -0.6172  0.3590
  112OSM    HO311532   5.907   3.218   0.345  1.5142 -1.1380  0.7285
  112OSM    C4S11533   5.852   3.214   0.034 -0.3517 -0.2247  0.8300
  112OSM    H4S11534   5.795   3.148  -0.032 -0.3992  1.0010 -0.3935
  112OSM    C5S11535   5.971   3.250  -0.017  0.3587 -0.1776  0.0777
  112OSM    H5S11536   6.047   3.281   0.056  0.1611 -0.8967  0.5952
  112OSM    C6S11537   6.040   3.214  -0.145 -0.4107  0.0688 -0.1315
  112OSM    H6S11538   6.112   3.133  -0.119 -0.5263 -0.2558 -0.8004
  112OSM    H6T11539   6.101   3.296  -0.190  0.2454 -0.6140 -0.5128
  112OSM    C7S11540   5.948   3.160  -0.254  0.5768  0.3972 -0.0069
  112OSM    H7S11541   5.858   3.221  -0.274 -0.9778 -2.2889 -1.8321
  112OSM    H7T11542   5.905   3.067  -0.210 -0.4565  1.6072  1.6373
  112OSM    C8S11543   6.013   3.127  -0.384 -0.3953  0.3450  0.6490
  112OSM    H8S11544   5.985   3.027  -0.423 -0.6414  1.0195 -0.9831
  112OSM    H8T11545   6.123   3.124  -0.367  0.0724 -0.4398 -2.0238
  112OSM    C9S11546   5.986   3.234  -0.495 -0.3886 -0.3086  0.3168
  112OSM    H9S11547   6.041   3.329  -0.481 -0.2930 -0.3500  0.2278
  112OSM    H9T11548   5.884   3.275  -0.483  1.1071  2.8855  4.2158
  112OSM   C10S11549   6.003   3.170  -0.638  0.4669  0.1749 -0.5063
  112OSM   H10S11550   5.927   3.089  -0.639 -2.3698  2.6968 -1.4578
  112OSM   H10T11551   6.102   3.124  -0.659  0.6680  0.3127  0.0981
  112OSM   C11S11552   5.964   3.264  -0.756  0.4938  0.6067 -0.5547
  112OSM   H11S11553   6.035   3.349  -0.756  0.1138  0.9351 -0.1532
  112OSM   H11T11554   5.867   3.310  -0.727 -0.1799  0.7875 -2.8914
  112OSM   C12S11555   5.942   3.183  -0.888  0.2988 -0.1154  0.2432
  112OSM   H12S11556   5.873   3.096  -0.879  0.8956 -0.5301  0.9376
  112OSM   H12T11557   6.042   3.138  -0.906  0.4684 -0.4280  1.8112
  112OSM   C13S11558   5.888   3.272  -1.000 -0.4325 -0.0029 -0.4020
  112OSM   H13S11559   5.956   3.360  -0.994 -0.8834  0.4136 -1.2049
  112OSM   H13T11560   5.783   3.302  -0.981  0.3712  2.8299  0.0712
  112OSM   C14S11561   5.909   3.223  -1.138 -0.6068  0.3269 -0.1061
  112OSM   H14S11562   5.849   3.129  -1.145 -1.6009  0.9643 -0.4303
  112OSM   H14T11563   6.015   3.204  -1.162 -0.1666  1.0834  1.1253
  112OSM   C15S11564   5.842   3.321  -1.230  0.0348 -0.0598  0.3711
  112OSM   H15S11565   5.911   3.407  -1.226  0.7882 -0.6599  0.4585
  112OSM   H15T11566   5.738   3.349  -1.203 -0.9930 -1.0208 -2.2642
  112OSM   C16S11567   5.829   3.273  -1.372 -0.8990 -0.1185  0.1471
  112OSM   H16S11568   5.925   3.223  -1.397 -1.2689 -0.5221 -0.4919
  112OSM   H16T11569   5.808   3.363  -1.433 -3.5651 -0.5989  0.2495
  112OSM   C17S11570   5.698   3.198  -1.395  0.3294 -0.1864  0.5232
  112OSM   H17S11571   5.617   3.269  -1.368  0.9078  0.6596  0.1053
  112OSM   H17T11572   5.688   3.121  -1.316  2.2029 -1.5372 -0.4703
  112OSM   C18S11573   5.667   3.156  -1.543  0.1142  0.5841 -0.8567
  112OSM   H18S11574   5.661   3.244  -1.611  0.6819  0.6386 -0.8413
  112OSM   H18T11575   5.576   3.094  -1.557  2.0022 -2.2583 -1.1511
  112OSM   H18U11576   5.745   3.083  -1.572 -0.5805 -0.5830  0.1448
  112OSM    C1F11577   5.666   3.580   0.144 -0.1107 -0.0423 -0.5411
  112OSM     OF11578   5.749   3.644   0.208  0.3882 -0.4073 -0.1743
  112OSM    C2F11579   5.551   3.637   0.064 -0.4075 -0.7034  0.3455
  112OSM    H2F11580   5.469   3.564   0.077  0.9467 -1.9423  2.5416
  112OSM    H2G11581   5.580   3.641  -0.044  0.9524  1.0980  0.7164
  112OSM    C3F11582   5.513   3.782   0.113  0.4183  0.2026 -0.1078
  112OSM    H3F11583   5.514   3.793   0.224  1.8235 -0.9514  0.0238
  112OSM    H3G11584   5.410   3.803   0.076 -0.4602 -1.5861  1.1548
  112OSM    C4F11585   5.606   3.890   0.054 -0.1368 -0.1163 -0.7623
  112OSM    H4F11586   5.709   3.857   0.080 -0.2821  0.1342  0.1966
  112OSM    H4G11587   5.589   3.988   0.103  0.3730 -0.5196  0.2654
  112OSM    C5F11588   5.587   3.911  -0.094  0.0336  0.5067 -0.1116
  112OSM    H5F11589   5.477   3.906  -0.111 -0.1377 -0.1815  1.0919
  112OSM    H5G11590   5.635   3.843  -0.168  0.5578  2.2553 -1.4308
  112OSM    C6F11591   5.650   4.048  -0.134 -0.3941 -0.9149 -0.5377
  112OSM    H6F11592   5.761   4.043  -0.128 -0.4510 -0.8630  1.5038
  112OSM    H6G11593   5.610   4.123  -0.062  1.2779 -0.8962  0.4124
  112OSM    C7F11594   5.614   4.079  -0.277 -0.1579 -0.6890 -0.2305
  112OSM    H7F11595   5.505   4.080  -0.299  0.2915 -0.0752 -2.6794
  112OSM    H7G11596   5.659   4.001  -0.343  0.9853 -1.2190  1.1077
  112OSM    C8F11597   5.662   4.215  -0.331 -0.1281 -0.6964 -0.0826
  112OSM    H8F11598   5.668   4.207  -0.442 -3.1912  0.4768 -0.4144
  112OSM    H8G11599   5.767   4.230  -0.300 -0.1060  1.7467 -1.1742
  112OSM    C9F11600   5.575   4.330  -0.275 -0.4071  0.2192 -0.2133
  112OSM    H9F11601   5.536   4.323  -0.173  1.5066 -2.4637  0.4484
  112OSM   C10F11602   5.525   4.422  -0.358 -0.2427 -0.1654  0.1306
  112OSM   H10F11603   5.450   4.493  -0.320 -0.3166 -1.5413  2.7751
  112OSM   C11F11604   5.555   4.443  -0.506  0.6215 -0.1800  1.0623
  112OSM   H11F11605   5.464   4.416  -0.563  0.3268  2.2620  0.2871
  112OSM   H11G11606   5.643   4.381  -0.534  0.5768  0.4721 -0.5877
  112OSM   C12F11607   5.582   4.588  -0.541  0.2688  0.0886 -0.2316
  112OSM   H12F11608   5.667   4.621  -0.478 -2.1193  1.4737  2.5274
  112OSM   H12G11609   5.493   4.654  -0.531  0.3991  1.1131 -4.3200
  112OSM   C13F11610   5.615   4.609  -0.689  0.2378  0.3795 -0.4119
  112OSM   H13F11611   5.542   4.560  -0.757  3.3143  0.0587 -3.7857
  112OSM   H13G11612   5.710   4.557  -0.716  0.4615  0.8945 -0.6341
  112OSM   C14F11613   5.641   4.748  -0.736 -0.4441 -0.0660 -0.1601
  112OSM   H14F11614   5.719   4.788  -0.668 -0.7660 -0.4314  0.4319
  112OSM   H14G11615   5.543   4.801  -0.733 -1.0218 -1.0923 -0.6304
  112OSM   C15F11616   5.694   4.750  -0.887  0.0548  0.8846 -0.1066
  112OSM   H15F11617   5.784   4.685  -0.890  0.5433  1.4642  1.0422
  112OSM   H15G11618   5.719   4.855  -0.914 -0.7239  0.5253 -2.4099
  112OSM   C16F11619   5.581   4.697  -0.981  0.1004 -0.4557  0.0446
  112OSM   H16F11620   5.497   4.769  -0.983  0.5922  0.1136 -1.2613
  112OSM   H16G11621   5.546   4.598  -0.946  1.1377 -1.2591 -1.1004
  112OSM   C17F11622   5.623   4.673  -1.129 -1.0039  0.4327 -0.7349
  112OSM   H17F11623   5.691   4.586  -1.144  1.0047  1.3658  2.1647
  112OSM   H17G11624   5.681   4.765  -1.153 -0.2679  0.1571 -0.0657
  112OSM   C18F11625   5.507   4.669  -1.224  0.4548 -0.3676 -0.6418
  112OSM   H18F11626   5.431   4.591  -1.206 -3.9123  3.1765 -1.7845
  112OSM   H18G11627   5.543   4.662  -1.329  2.8394 -1.1319  0.1660
  112OSM   H18H11628   5.440   4.758  -1.219 -1.3655 -1.7457  2.6837
  113OSM      N11629   2.551   4.565   0.313 -0.4143  0.6759  0.3081
  113OSM    C1511630   2.645   4.496   0.407 -0.7459 -0.5725 -0.0971
  113OSM   H15A11631   2.730   4.560   0.428 -0.3162 -0.9043 -0.8080
  113OSM   H15B11632   2.681   4.403   0.366 -1.2145 -0.5752 -0.5112
  113OSM   H15C11633   2.597   4.482   0.503 -0.7932  0.9225  0.1265
  113OSM    C1411634   2.632   4.603   0.191 -0.1708 -0.4734  0.1927
  113OSM   H14A11635   2.572   4.636   0.107  0.5051  0.0650 -0.0890
  113OSM   H14B11636   2.699   4.525   0.158  2.0840  2.0589 -1.6275
  113OSM   H14C11637   2.702   4.681   0.218 -0.2070 -0.5339  0.4723
  113OSM    C1311638   2.448   4.464   0.265 -0.3587 -0.2309  1.1609
  113OSM   H13A11639   2.511   4.391   0.216  1.4160  2.3298 -0.6443
  113OSM   H13B11640   2.378   4.506   0.195  0.2328 -0.6943  0.2698
  113OSM   H13C11641   2.404   4.422   0.354 -1.2952  1.2616  1.4373
  113OSM    C1211642   2.484   4.685   0.365 -1.0086 -0.1150  0.1379
  113OSM   H12A11643   2.408   4.722   0.296 -0.0827  0.2098 -0.7364
  113OSM   H12B11644   2.563   4.758   0.373 -1.9324  1.0459 -0.8502
  113OSM    C1111645   2.437   4.670   0.507 -0.0443 -0.2341  0.1499
  113OSM   H11A11646   2.524   4.685   0.575  0.1603 -0.1801 -0.1217
  113OSM   H11B11647   2.401   4.565   0.519 -0.1801 -0.0702  1.3100
  113OSM      P11648   2.190   4.727   0.535  0.3263  0.1755  0.2840
  113OSM    O1311649   2.180   4.608   0.622  0.0703 -0.5427 -0.1575
  113OSM    O1411650   2.110   4.850   0.574 -0.4631  0.4744  0.1607
  113OSM    O1111651   2.153   4.690   0.386  0.1082 -0.8057  0.6126
  113OSM    O1211652   2.337   4.772   0.529  0.2661  0.0637 -0.3972
  113OSM    C1S11653   2.149   4.767   0.272  0.6022  0.4232 -0.2717
  113OSM    H1S11654   2.237   4.834   0.284  2.6495 -1.8241 -1.7360
  113OSM    H1T11655   2.055   4.826   0.275 -0.8056 -1.7412  0.9658
  113OSM     NF11656   2.186   4.737   0.028  0.5841  0.0508 -0.2665
  113OSM    HNF11657   2.111   4.758  -0.034  0.6768  3.1015  0.4992
  113OSM    C2S11658   2.146   4.672   0.148 -0.8093 -1.1134  0.3204
  113OSM    H2S11659   2.219   4.591   0.168 -0.1262 -0.1125  2.0836
  113OSM    C3S11660   2.014   4.593   0.142 -0.5268  0.2597 -0.0468
  113OSM    H3S11661   1.936   4.671   0.131 -0.6784  0.1281  0.0916
  113OSM     O311662   1.978   4.513   0.254  0.0533  1.0863 -0.1660
  113OSM    HO311663   2.037   4.538   0.325  0.0148  3.1976 -0.7911
  113OSM    C4S11664   2.011   4.507   0.022  0.1444  0.1148  0.5664
  113OSM    H4S11665   2.092   4.432   0.015 -0.9921 -1.3070  1.8761
  113OSM    C5S11666   1.927   4.531  -0.085  0.1018 -0.0722  0.0550
  113OSM    H5S11667   1.867   4.623  -0.078  1.4978  1.1136 -2.1862
  113OSM    C6S11668   1.935   4.457  -0.220  0.1988  0.1862  1.1157
  113OSM    H6S11669   1.850   4.387  -0.233 -0.7555  1.7223 -1.7155
  113OSM    H6T11670   2.027   4.394  -0.217 -0.1151 -0.3004  0.6067
  113OSM    C7S11671   1.943   4.565  -0.325 -0.0795  0.7336  0.4207
  113OSM    H7S11672   2.030   4.631  -0.305  1.9516 -2.1704  1.9927
  113OSM    H7T11673   1.856   4.632  -0.313 -0.2201  0.3631  1.6042
  113OSM    C8S11674   1.951   4.502  -0.467  0.4626 -0.4556 -0.4378
  113OSM    H8S11675   1.877   4.420  -0.478 -1.8186  1.1566  1.7796
  113OSM    H8T11676   2.049   4.449  -0.472  1.1075  0.6955 -0.5317
  113OSM    C9S11677   1.939   4.601  -0.581 -0.9114  0.5150  0.5617
  113OSM    H9S11678   2.030   4.665  -0.577 -0.0987 -0.4398 -1.3310
  113OSM    H9T11679   1.848   4.663  -0.563 -0.4425  1.5212 -0.3828
  113OSM   C10S11680   1.926   4.544  -0.724  0.2282 -0.0423  0.5039
  113OSM   H10S11681   1.840   4.474  -0.719  0.6346 -0.5223  0.8491
  113OSM   H10T11682   2.016   4.485  -0.752 -1.4172 -3.3346  1.6622
  113OSM   C11S11683   1.915   4.643  -0.845  0.4144 -0.6518  0.0792
  113OSM   H11S11684   2.004   4.708  -0.857 -0.5009  0.3910 -1.4030
  113OSM   H11T11685   1.826   4.708  -0.824  0.4175 -0.8480  0.7276
  113OSM   C12S11686   1.888   4.579  -0.979  0.1247 -0.1223  0.1568
  113OSM   H12S11687   1.795   4.524  -0.956  1.0606 -1.2478  1.4700
  113OSM   H12T11688   1.964   4.509  -1.021  1.7580  0.9945  1.1043
  113OSM   C13S11689   1.862   4.670  -1.100 -0.6859 -0.2511  0.3838
  113OSM   H13S11690   1.864   4.608  -1.192  2.0046  1.1642 -0.6163
  113OSM   H13T11691   1.946   4.742  -1.103  0.6524 -1.6381  2.1375
  113OSM   C14S11692   1.723   4.746  -1.086 -0.0604  0.5445 -0.1823
  113OSM   H14S11693   1.734   4.798  -0.988 -0.5063 -0.4355  0.4027
  113OSM   H14T11694   1.641   4.671  -1.083  1.2079 -0.9171 -0.3377
  113OSM   C15S11695   1.696   4.854  -1.191  0.3666  0.3075 -0.3517
  113OSM   H15S11696   1.776   4.932  -1.197  0.0349  0.7372  0.5884
  113OSM   H15T11697   1.611   4.910  -1.146 -1.8613  0.2380 -4.0909
  113OSM   C16S11698   1.660   4.803  -1.329 -0.0682  0.1736  0.7114
  113OSM   H16S11699   1.627   4.697  -1.334  0.0531  0.1846 -0.7814
  113OSM   H16T11700   1.759   4.807  -1.379 -0.1988  0.0981  0.4476
  113OSM   C17S11701   1.555   4.892  -1.403 -0.7843 -0.2877  0.2447
  113OSM   H17S11702   1.587   4.998  -1.414  1.0101 -0.7440  0.8109
  113OSM   H17T11703   1.463   4.907  -1.341  0.5793  1.9617  1.8683
  113OSM   C18S11704   1.534   4.836  -1.545 -0.1697 -0.4643 -0.2232
  113OSM   H18S11705   1.483   4.738  -1.543  0.7919 -1.0346 -1.8378
  113OSM   H18T11706   1.625   4.823  -1.608  0.2322  2.1299 -0.3112
  113OSM   H18U11707   1.455   4.891  -1.600  0.3709 -1.5902 -2.2043
  113OSM    C1F11708   2.306   4.788  -0.006  0.1116  0.6055 -0.2340
  113OSM     OF11709   2.396   4.794   0.075  0.2112  0.1853  0.5268
  113OSM    C2F11710   2.317   4.816  -0.153 -0.4554 -0.2659  0.1102
  113OSM    H2F11711   2.272   4.915  -0.175 -1.1755 -0.4223  0.8133
  113OSM    H2G11712   2.264   4.733  -0.205 -3.9325  0.6467  1.8292
  113OSM    C3F11713   2.467   4.820  -0.195 -0.2403 -0.3080 -0.8824
  113OSM    H3F11714   2.520   4.727  -0.165  0.8402  0.5236 -0.0934
  113OSM    H3G11715   2.514   4.905  -0.140 -1.6682 -1.1259  1.7867
  113OSM    C4F11716   2.482   4.858  -0.339  0.0433  0.4078  0.6623
  113OSM    H4F11717   2.585   4.880  -0.375  0.2563 -2.1147 -0.4803
  113OSM    H4G11718   2.425   4.950  -0.366  0.8044  0.0374 -2.5961
  113OSM    C5F11719   2.434   4.753  -0.445  0.2084 -0.1940 -0.0208
  113OSM    H5F11720   2.327   4.741  -0.418  0.3138 -0.6148  0.2054
  113OSM    H5G11721   2.487   4.656  -0.437  0.9341 -0.1258 -2.7285
  113OSM    C6F11722   2.444   4.800  -0.591 -0.6500  0.1417 -0.3070
  113OSM    H6F11723   2.547   4.804  -0.632 -1.1336  1.7739 -1.4205
  113OSM    H6G11724   2.393   4.898  -0.595  0.3238  0.7015  0.4029
  113OSM    C7F11725   2.380   4.701  -0.683  0.7818 -0.3796 -0.0089
  113OSM    H7F11726   2.275   4.694  -0.648  0.4132 -1.3829 -1.2228
  113OSM    H7G11727   2.432   4.603  -0.672  4.4073  1.4763  1.1504
  113OSM    C8F11728   2.377   4.752  -0.831 -0.1909 -0.1464  0.5945
  113OSM    H8F11729   2.483   4.754  -0.866  0.6025  0.7420  2.8908
  113OSM    H8G11730   2.334   4.854  -0.843  1.9484  0.5840 -1.8085
  113OSM    C9F11731   2.292   4.643  -0.895  0.2758 -0.2949 -0.2628
  113OSM    H9F11732   2.225   4.597  -0.820  0.4610 -0.7925 -0.3969
  113OSM   C10F11733   2.314   4.575  -1.003  0.6811  0.0456  0.3014
  113OSM   H10F11734   2.240   4.500  -1.033  0.3897 -0.2778  1.7463
  113OSM   C11F11735   2.410   4.625  -1.106 -0.2379  0.1192 -0.2763
  113OSM   H11F11736   2.490   4.548  -1.116  0.6969  0.5423  2.8074
  113OSM   H11G11737   2.462   4.721  -1.087  0.4113  0.2441 -2.4710
  113OSM   C12F11738   2.344   4.636  -1.244  0.2035 -0.0487  0.2127
  113OSM   H12F11739   2.396   4.706  -1.312 -0.5716  0.6069  0.2828
  113OSM   H12G11740   2.239   4.673  -1.236  0.3952  2.1372 -4.2087
  113OSM   C13F11741   2.342   4.497  -1.315  0.4330 -0.6507 -0.2207
  113OSM   H13F11742   2.264   4.431  -1.270  1.2001 -1.2474  0.2590
  113OSM   H13G11743   2.441   4.448  -1.301  1.3251  0.8470 -1.0503
  113OSM   C14F11744   2.301   4.504  -1.459  0.2683 -0.2863  0.4277
  113OSM   H14F11745   2.316   4.414  -1.523 -1.8180 -1.2001  1.1241
  113OSM   H14G11746   2.344   4.590  -1.515 -2.5709  0.3268 -1.0274
  113OSM   C15F11747   2.151   4.553  -1.480 -0.7494  0.6743  0.4972
  113OSM   H15F11748   2.129   4.590  -1.583 -2.9524 -2.2435 -0.2275
  113OSM   H15G11749   2.132   4.628  -1.400 -1.1874  0.1969  0.8439
  113OSM   C16F11750   2.052   4.440  -1.445  0.4969  0.7969 -0.4284
  113OSM   H16F11751   2.078   4.399  -1.345  0.0032 -0.5355 -0.8125
  113OSM   H16G11752   2.070   4.356  -1.516  2.8561 -0.6154  1.6981
  113OSM   C17F11753   1.904   4.479  -1.444 -0.1024  0.9107  0.4340
  113OSM   H17F11754   1.872   4.514  -1.544  0.8037  1.6808  0.3990
  113OSM   H17G11755   1.903   4.560  -1.369  0.6688  0.1774  1.2630
  113OSM   C18F11756   1.815   4.364  -1.405 -0.9040  0.3559  0.5074
  113OSM   H18F11757   1.823   4.277  -1.473 -0.3202  0.8867 -0.1185
  113OSM   H18G11758   1.709   4.399  -1.410 -1.4259 -1.2578 -0.5980
  113OSM   H18H11759   1.845   4.312  -1.311 -2.7330 -1.8061 -0.0063
  114OSM      N11760   5.782   2.624   0.413  0.1875 -0.1324 -0.2403
  114OSM    C1511761   5.899   2.555   0.463 -0.3583  0.0776 -0.3500
  114OSM   H15A11762   5.884   2.448   0.471  0.3422 -0.0388 -0.5149
  114OSM   H15B11763   5.933   2.590   0.559  1.7137  0.5553 -1.1957
  114OSM   H15C11764   5.985   2.566   0.399 -0.1875  0.1933 -0.1043
  114OSM    C1411765   5.764   2.585   0.266  0.3393  0.4976  0.1689
  114OSM   H14A11766   5.852   2.606   0.207 -0.3294 -0.6373 -1.3038
  114OSM   H14B11767   5.689   2.646   0.220 -0.9880 -1.5919 -0.5776
  114OSM   H14C11768   5.710   2.492   0.254 -1.1637  1.1922  1.2358
  114OSM    C1311769   5.662   2.569   0.482  0.4043  0.0708 -0.2633
  114OSM   H13A11770   5.647   2.465   0.456 -1.4076  0.5909 -1.4994
  114OSM   H13B11771   5.571   2.619   0.451  0.5740  0.3664 -0.2937
  114OSM   H13C11772   5.665   2.569   0.590 -0.0065  3.6810 -0.1376
  114OSM    C1211773   5.798   2.774   0.441  0.1489 -1.3010 -0.6032
  114OSM   H12A11774   5.711   2.826   0.405  0.7413  1.4623  1.6513
  114OSM   H12B11775   5.886   2.813   0.392  0.6763 -0.3711  1.0199
  114OSM    C1111776   5.823   2.821   0.585  0.6526 -0.0028 -0.0276
  114OSM   H11A11777   5.734   2.796   0.647  1.1241  0.7278  0.9925
  114OSM   H11B11778   5.832   2.932   0.576  1.3180 -0.0085  0.4600
  114OSM      P11779   6.078   2.830   0.640 -0.4296 -0.0774 -0.6656
  114OSM    O1311780   6.088   2.953   0.726  0.1747 -0.1571  0.5404
  114OSM    O1411781   6.186   2.736   0.665 -0.1991  0.7392 -0.1045
  114OSM    O1111782   6.080   2.885   0.495  0.1454 -0.2964  0.0300
  114OSM    O1211783   5.932   2.772   0.660 -0.1261 -0.6953  0.0253
  114OSM    C1S11784   6.148   2.815   0.391 -0.1130  0.1500  0.2291
  114OSM    H1S11785   6.089   2.728   0.354 -1.2512  0.6283  0.8777
  114OSM    H1T11786   6.248   2.773   0.418  0.3057  0.6708 -0.4881
  114OSM     NF11787   6.208   2.851   0.152  0.3028  0.4439 -0.2406
  114OSM    HNF11788   6.288   2.884   0.103  2.8682 -1.4990  2.2799
  114OSM    C2S11789   6.168   2.913   0.276  0.0961  0.1570 -1.0006
  114OSM    H2S11790   6.069   2.961   0.260  1.1120  2.9197  0.3473
  114OSM    C3S11791   6.264   3.027   0.329  0.4091 -0.4806  0.5020
  114OSM    H3S11792   6.363   2.982   0.353  0.8402 -0.4214 -1.0718
  114OSM     O311793   6.223   3.103   0.445  0.9664 -0.5262  0.0533
  114OSM    HO311794   6.141   3.060   0.472 -0.6502  2.6213  0.5841
  114OSM    C4S11795   6.289   3.130   0.209  0.4431  0.7099  0.0887
  114OSM    H4S11796   6.205   3.201   0.203  1.0560  1.3609 -1.3073
  114OSM    C5S11797   6.402   3.144   0.132 -0.0815  0.7550  0.1542
  114OSM    H5S11798   6.487   3.080   0.162 -1.3733 -0.1283  2.1104
  114OSM    C6S11799   6.432   3.252   0.033 -0.0409  0.2198  0.6277
  114OSM    H6S11800   6.537   3.289   0.037  1.0600 -2.5735 -0.5138
  114OSM    H6T11801   6.356   3.330   0.058 -2.2319 -2.0102  1.3286
  114OSM    C7S11802   6.410   3.197  -0.111  0.3268 -0.3549 -0.0378
  114OSM    H7S11803   6.305   3.162  -0.119 -0.7676  2.3852  0.9457
  114OSM    H7T11804   6.479   3.113  -0.134  1.6757  0.5824  0.4419
  114OSM    C8S11805   6.417   3.299  -0.225 -0.1230 -0.0201 -0.3670
  114OSM    H8S11806   6.507   3.364  -0.227 -1.7275  2.4429  1.2295
  114OSM    H8T11807   6.325   3.361  -0.211 -0.5676 -0.6216 -0.5911
  114OSM    C9S11808   6.411   3.242  -0.365 -0.0009  0.1827 -0.3587
  114OSM    H9S11809   6.319   3.181  -0.370  0.4800 -0.6264  0.4496
  114OSM    H9T11810   6.500   3.180  -0.388  0.0743  0.3340 -0.4751
  114OSM   C10S11811   6.392   3.340  -0.481 -0.3566  0.8761  0.2009
  114OSM   H10S11812   6.472   3.418  -0.480 -0.1776  0.7248 -0.6941
  114OSM   H10T11813   6.290   3.379  -0.465 -0.7047  0.7013 -1.3965
  114OSM   C11S11814   6.381   3.273  -0.624  0.6144 -0.0260 -0.2254
  114OSM   H11S11815   6.280   3.227  -0.629 -0.8255  2.8637  0.2329
  114OSM   H11T11816   6.457   3.195  -0.646  0.1991 -0.0927 -1.4584
  114OSM   C12S11817   6.375   3.381  -0.739 -0.0848 -0.0428 -0.2380
  114OSM   H12S11818   6.448   3.462  -0.721 -0.3985  0.4744 -1.2401
  114OSM   H12T11819   6.278   3.435  -0.732  1.1572  2.1055  3.4620
  114OSM   C13S11820   6.380   3.316  -0.878  0.1397  0.7915 -0.5242
  114OSM   H13S11821   6.307   3.231  -0.881  2.9170 -1.8966  1.7387
  114OSM   H13T11822   6.483   3.277  -0.888  0.6482  1.1078  2.7358
  114OSM   C14S11823   6.332   3.410  -0.988 -0.2838  0.1022 -0.0250
  114OSM   H14S11824   6.424   3.471  -0.999  1.2426 -2.1614 -0.5170
  114OSM   H14T11825   6.251   3.473  -0.946 -0.3511  1.4882 -2.1267
  114OSM   C15S11826   6.303   3.345  -1.132 -0.4731  0.4961  0.0104
  114OSM   H15S11827   6.229   3.264  -1.118 -2.9065  2.6923  0.7582
  114OSM   H15T11828   6.399   3.299  -1.162 -0.2619 -0.2533  1.7023
  114OSM   C16S11829   6.248   3.442  -1.232 -0.3045  0.4963  0.9237
  114OSM   H16S11830   6.330   3.517  -1.235  1.5940 -1.4874  0.9078
  114OSM   H16T11831   6.149   3.483  -1.204 -1.0838 -0.3511 -0.4801
  114OSM   C17S11832   6.240   3.361  -1.372 -0.0299 -1.2446 -0.5817
  114OSM   H17S11833   6.167   3.277  -1.365 -1.6244  0.1246  0.1327
  114OSM   H17T11834   6.339   3.324  -1.405  1.5304  0.8697  1.4386
  114OSM   C18S11835   6.169   3.447  -1.477  0.0816  0.0164 -0.2081
  114OSM   H18S11836   6.071   3.484  -1.439 -0.3765  0.4200 -1.6852
  114OSM   H18T11837   6.150   3.394  -1.573 -1.8269 -2.1639  1.2498
  114OSM   H18U11838   6.234   3.535  -1.498  0.8871 -0.6519 -0.5770
  114OSM    C1F11839   6.142   2.758   0.096 -0.0416 -0.4754  0.1246
  114OSM     OF11840   6.034   2.730   0.134  0.0363 -0.2531 -0.1216
  114OSM    C2F11841   6.207   2.687  -0.019  0.0640 -0.0544 -0.9962
  114OSM    H2F11842   6.312   2.664   0.006 -0.3205 -1.4149 -0.5538
  114OSM    H2G11843   6.208   2.767  -0.096  1.0612  0.0022 -0.9362
  114OSM    C3F11844   6.128   2.564  -0.072  0.4999 -0.0146 -0.1613
  114OSM    H3F11845   6.023   2.595  -0.085  0.9285  1.6423  0.1791
  114OSM    H3G11846   6.122   2.484   0.006 -1.0385  0.6197  0.4088
  114OSM    C4F11847   6.187   2.513  -0.204 -0.4192  0.7322 -0.4595
  114OSM    H4F11848   6.157   2.407  -0.220 -1.6856  0.7731  1.4019
  114OSM    H4G11849   6.297   2.527  -0.192 -0.1480 -0.8359 -0.8576
  114OSM    C5F11850   6.140   2.606  -0.321 -0.5942 -0.0433  0.6799
  114OSM    H5F11851   6.186   2.706  -0.303  1.0744 -0.2022 -2.1926
  114OSM    H5G11852   6.029   2.607  -0.315 -0.5691  1.0819  1.2858
  114OSM    C6F11853   6.183   2.557  -0.464  0.1721  0.3760 -0.8221
  114OSM    H6F11854   6.293   2.543  -0.471  0.5423  2.7624 -0.7855
  114OSM    H6G11855   6.154   2.646  -0.525 -0.7313  1.5413  1.2016
  114OSM    C7F11856   6.114   2.424  -0.499  0.1953 -0.0526 -0.6264
  114OSM    H7F11857   6.005   2.445  -0.492  0.1343  0.3900 -2.3093
  114OSM    H7G11858   6.138   2.342  -0.429 -2.3785  0.3857  0.9079
  114OSM    C8F11859   6.142   2.381  -0.639 -0.0548  0.6412 -0.0565
  114OSM    H8F11860   6.075   2.297  -0.667  0.6768  0.9956 -3.3081
  114OSM    H8G11861   6.242   2.334  -0.640  0.2863  1.3501  0.3813
  114OSM    C9F11862   6.128   2.493  -0.742  0.1290  0.0884  0.1435
  114OSM    H9F11863   6.032   2.545  -0.735 -0.2282 -0.5658  0.1680
  114OSM   C10F11864   6.211   2.530  -0.839 -0.4223 -0.5305  0.2775
  114OSM   H10F11865   6.186   2.622  -0.894  1.3798  1.4524  2.5806
  114OSM   C11F11866   6.342   2.473  -0.881  0.6527 -0.2497 -0.3498
  114OSM   H11F11867   6.390   2.416  -0.799  1.9949  1.6308  0.2436
  114OSM   H11G11868   6.413   2.548  -0.921  0.4235 -0.1613 -0.5963
  114OSM   C12F11869   6.308   2.376  -1.000 -0.7803  0.1338  0.8288
  114OSM   H12F11870   6.231   2.303  -0.968 -1.6405  0.0200 -1.3736
  114OSM   H12G11871   6.398   2.319  -1.032 -1.0869  0.2274 -0.2162
  114OSM   C13F11872   6.252   2.436  -1.126 -0.0617 -0.2725  0.6117
  114OSM   H13F11873   6.313   2.523  -1.160 -0.6941 -0.7002 -1.7950
  114OSM   H13G11874   6.152   2.478  -1.103 -1.3011 -1.6763 -1.8702
  114OSM   C14F11875   6.234   2.332  -1.244 -0.0091  0.0790  0.6581
  114OSM   H14F11876   6.199   2.236  -1.200 -2.1604  0.5089 -0.0218
  114OSM   H14G11877   6.336   2.305  -1.280 -1.1021 -0.6850 -2.0607
  114OSM   C15F11878   6.149   2.382  -1.353  0.2542 -0.1837  0.1783
  114OSM   H15F11879   6.179   2.488  -1.366  1.7548 -0.8150 -1.9072
  114OSM   H15G11880   6.040   2.375  -1.328  0.2729  1.0791  0.7116
  114OSM   C16F11881   6.169   2.303  -1.483 -0.0951 -0.2853  0.4648
  114OSM   H16F11882   6.276   2.309  -1.510 -0.2873 -1.5897 -0.6949
  114OSM   H16G11883   6.110   2.348  -1.566 -0.3162 -1.9015 -0.2922
  114OSM   C17F11884   6.135   2.152  -1.474  1.0929  0.0764 -1.1444
  114OSM   H17F11885   6.043   2.134  -1.414  2.6281  1.9819  2.0627
  114OSM   H17G11886   6.212   2.112  -1.403  0.1716  2.2080  1.2154
  114OSM   C18F11887   6.132   2.083  -1.606  0.1044 -0.0547  0.3415
  114OSM   H18F11888   6.143   1.974  -1.587  2.7935  0.4567  2.3780
  114OSM   H18G11889   6.220   2.105  -1.671 -0.0595 -0.1223  0.0972
  114OSM   H18H11890   6.046   2.117  -1.668  1.3492  2.5443 -0.1030
  115OSM      N11891   5.386   0.885   0.811  0.0025 -0.3310 -0.0408
  115OSM    C1511892   5.315   0.756   0.847 -0.3654  0.1258  0.7145
  115OSM   H15A11893   5.386   0.676   0.831  0.1681  0.8750 -0.9115
  115OSM   H15B11894   5.223   0.743   0.793 -0.6333  1.1709  0.9114
  115OSM   H15C11895   5.293   0.766   0.952 -1.7597  2.6896  0.2492
  115OSM    C1411896   5.300   1.001   0.839  0.0899 -0.2316 -0.6539
  115OSM   H14A11897   5.281   1.021   0.944  0.9813 -0.5084 -0.4353
  115OSM   H14B11898   5.203   0.992   0.791  0.3356 -0.5352 -1.0954
  115OSM   H14C11899   5.332   1.098   0.804  0.7196  0.0109  0.5403
  115OSM    C1311900   5.507   0.901   0.895 -0.3660  0.1764 -0.2724
  115OSM   H13A11901   5.485   0.909   1.001  1.0116  0.2667  0.0301
  115OSM   H13B11902   5.552   0.997   0.873  0.6209  0.0373  0.9817
  115OSM   H13C11903   5.580   0.828   0.863 -0.9683  0.5502 -2.6627
  115OSM    C1211904   5.429   0.891   0.664 -0.7102 -0.0057  0.5915
  115OSM   H12A11905   5.523   0.841   0.648 -0.1179  1.7035 -1.6200
  115OSM   H12B11906   5.463   0.990   0.639  0.3735 -1.0066 -2.2949
  115OSM    C1111907   5.329   0.847   0.556 -0.3408  0.2105 -0.3068
  115OSM   H11A11908   5.277   0.750   0.573  2.1119 -0.8158  1.9892
  115OSM   H11B11909   5.374   0.829   0.456  1.0069  0.2046  0.2851
  115OSM      P11910   5.246   1.086   0.490 -0.0747  0.0459 -0.0135
  115OSM    O1311911   5.134   1.165   0.552 -0.2408  0.2492  1.1413
  115OSM    O1411912   5.387   1.133   0.516  0.0388  0.4603  0.1579
  115OSM    O1111913   5.230   1.078   0.332  0.2552 -0.6661  0.1709
  115OSM    O1211914   5.224   0.938   0.554 -0.1453 -0.8251 -0.0560
  115OSM    C1S11915   5.171   0.954   0.279  0.3252 -0.0621  0.2138
  115OSM    H1S11916   5.064   0.984   0.278  0.6856  1.3624  1.7828
  115OSM    H1T11917   5.181   0.859   0.336 -0.9700 -0.0317  0.5236
  115OSM     NF11918   5.149   0.802   0.087  0.6291 -0.5430  0.1276
  115OSM    HNF11919   5.196   0.714   0.093  1.4130 -0.4433 -2.8422
  115OSM    C2S11920   5.214   0.928   0.128  0.3204  0.4463 -0.1775
  115OSM    H2S11921   5.163   1.009   0.073 -1.2482 -0.8331 -0.6557
  115OSM    C3S11922   5.361   0.934   0.097 -0.8001 -0.0474 -0.4193
  115OSM    H3S11923   5.408   0.855   0.160  0.0673  1.9087  1.4987
  115OSM     O311924   5.427   1.050   0.150  0.0905 -0.0287 -0.0523
  115OSM    HO311925   5.362   1.073   0.218  1.1497  1.1623  0.6127
  115OSM    C4S11926   5.390   0.910  -0.046 -0.7260 -0.3059  0.2535
  115OSM    H4S11927   5.344   0.986  -0.111 -0.1881  1.6261  2.0417
  115OSM    C5S11928   5.471   0.821  -0.098 -0.2106 -0.5284 -0.2564
  115OSM    H5S11929   5.535   0.763  -0.031  0.2511  0.9554  0.6477
  115OSM    C6S11930   5.502   0.803  -0.244 -0.1186  0.0472 -0.0798
  115OSM    H6S11931   5.445   0.874  -0.308  1.3163  1.7995  0.4919
  115OSM    H6T11932   5.482   0.699  -0.278 -3.2247  0.2349  0.8684
  115OSM    C7S11933   5.655   0.832  -0.273  0.1574  0.5376  0.4925
  115OSM    H7S11934   5.719   0.780  -0.199 -0.8774 -0.0021  1.0191
  115OSM    H7T11935   5.671   0.942  -0.266 -1.6709  0.8491  0.2327
  115OSM    C8S11936   5.704   0.794  -0.414 -0.5817  0.0209 -0.0508
  115OSM    H8S11937   5.669   0.692  -0.442  0.7926 -0.9755  1.6639
  115OSM    H8T11938   5.815   0.790  -0.409 -0.5849 -1.4572 -0.7024
  115OSM    C9S11939   5.679   0.890  -0.535  0.4405  0.1420 -0.2874
  115OSM    H9S11940   5.729   0.988  -0.523 -0.7016  0.5608  1.2766
  115OSM    H9T11941   5.572   0.914  -0.552  0.1532  0.3983  1.6653
  115OSM   C10S11942   5.728   0.831  -0.664 -0.8600  0.1496  0.5111
  115OSM   H10S11943   5.702   0.723  -0.665  0.7227 -0.2489  0.1798
  115OSM   H10T11944   5.838   0.834  -0.675 -1.0259 -0.2952 -1.7862
  115OSM   C11S11945   5.659   0.895  -0.786  0.3665 -0.0898  0.4840
  115OSM   H11S11946   5.658   1.004  -0.767  0.3063  0.2539 -1.2759
  115OSM   H11T11947   5.551   0.870  -0.779  0.0181  1.0408 -0.4877
  115OSM   C12S11948   5.708   0.880  -0.929 -0.4061  1.1732 -0.0318
  115OSM   H12S11949   5.728   0.771  -0.935 -2.0802  0.8736 -0.5297
  115OSM   H12T11950   5.800   0.941  -0.941 -0.4833  1.4918  0.9011
  115OSM   C13S11951   5.602   0.921  -1.029  0.7255  0.3932  0.0571
  115OSM   H13S11952   5.578   1.030  -1.026 -0.0708  0.2055  2.0028
  115OSM   H13T11953   5.511   0.865  -1.000  1.5068 -0.5383  0.7329
  115OSM   C14S11954   5.652   0.876  -1.166 -0.1386  0.3908  0.0453
  115OSM   H14S11955   5.638   0.766  -1.170  1.0878  0.1827  0.8203
  115OSM   H14T11956   5.757   0.904  -1.185  0.7249 -2.2310  0.5094
  115OSM   C15S11957   5.572   0.940  -1.283 -0.0260  0.0923  0.3491
  115OSM   H15S11958   5.574   1.051  -1.276  1.2227  0.0161  1.6625
  115OSM   H15T11959   5.468   0.903  -1.276 -0.3024  0.1621 -2.2996
  115OSM   C16S11960   5.622   0.879  -1.417 -0.1250 -0.0412  0.5408
  115OSM   H16S11961   5.633   0.769  -1.421 -0.6892 -0.0649 -1.3035
  115OSM   H16T11962   5.723   0.924  -1.427  0.5876 -1.7127 -0.0196
  115OSM   C17S11963   5.543   0.929  -1.546  0.1467  0.7680 -0.5781
  115OSM   H17S11964   5.570   1.034  -1.569  0.5162  0.8406  0.1704
  115OSM   H17T11965   5.437   0.927  -1.511  0.5673 -0.3806  0.7287
  115OSM   C18S11966   5.562   0.836  -1.661  0.3150  0.1963  0.4597
  115OSM   H18S11967   5.537   0.732  -1.632 -1.5257  0.4660  0.0146
  115OSM   H18T11968   5.666   0.844  -1.698  0.7960  1.1961  1.9446
  115OSM   H18U11969   5.492   0.864  -1.743 -0.8037 -2.1066  0.5529
  115OSM    C1F11970   5.016   0.799   0.064 -0.0064 -0.3671  0.5501
  115OSM     OF11971   4.940   0.887   0.095  0.1179  0.3340  0.2836
  115OSM    C2F11972   4.979   0.679  -0.026  0.7437  0.1216  0.1956
  115OSM    H2F11973   4.882   0.648   0.019  0.5579  0.7963  0.2651
  115OSM    H2G11974   5.053   0.599  -0.007 -1.5253 -2.1938 -0.1322
  115OSM    C3F11975   4.959   0.717  -0.174  0.4610 -0.3612  0.3180
  115OSM    H3F11976   4.897   0.809  -0.173  2.0406  0.7472 -0.5068
  115OSM    H3G11977   4.907   0.629  -0.217  0.3046 -0.2087  0.1929
  115OSM    C4F11978   5.085   0.750  -0.260  0.1307  0.7738 -0.2867
  115OSM    H4F11979   5.164   0.672  -0.249  1.0803  1.9330  1.7911
  115OSM    H4G11980   5.122   0.844  -0.213 -1.2532  1.5738 -0.7619
  115OSM    C5F11981   5.037   0.780  -0.398 -0.1022 -0.0298 -0.5003
  115OSM    H5F11982   4.992   0.882  -0.396  0.8080  0.4335 -2.2502
  115OSM    H5G11983   4.972   0.700  -0.439  2.1011 -2.1664  0.0180
  115OSM    C6F11984   5.146   0.784  -0.513 -0.6076  0.4785 -0.8461
  115OSM    H6F11985   5.197   0.685  -0.518 -0.9082  0.3642 -1.6922
  115OSM    H6G11986   5.215   0.867  -0.487 -0.9665  0.5630 -0.1400
  115OSM    C7F11987   5.082   0.803  -0.653  0.2275  0.2747 -0.0543
  115OSM    H7F11988   4.994   0.871  -0.651 -0.5636 -0.7005  3.1247
  115OSM    H7G11989   5.053   0.702  -0.689  1.0263  0.6575 -1.9011
  115OSM    C8F11990   5.183   0.853  -0.759 -0.5941 -0.5457 -0.9295
  115OSM    H8F11991   5.204   0.961  -0.744  1.1035 -0.8052 -1.2970
  115OSM    H8G11992   5.114   0.851  -0.846 -1.3532  3.2839 -0.5737
  115OSM    C9F11993   5.313   0.775  -0.777  0.4352  0.0594 -0.0659
  115OSM    H9F11994   5.385   0.787  -0.695  1.6946  0.1200 -1.1465
  115OSM   C10F11995   5.338   0.685  -0.880 -0.7390 -0.0401  0.3664
  115OSM   H10F11996   5.431   0.627  -0.877 -1.8540 -1.8998 -0.0024
  115OSM   C11F11997   5.256   0.655  -0.998 -0.6260  0.1744 -0.4528
  115OSM   H11F11998   5.197   0.746  -1.024 -2.9057 -0.9451  0.5440
  115OSM   H11G11999   5.189   0.570  -0.972 -0.3539  0.4667  1.3366
  115OSM   C12F12000   5.340   0.609  -1.122  0.5616 -0.0873 -0.3269
  115OSM   H12F12001   5.404   0.526  -1.086 -2.0323 -1.0957  2.3340
  115OSM   H12G12002   5.405   0.694  -1.153 -1.5898  2.4256  1.5749
  115OSM   C13F12003   5.255   0.565  -1.234 -0.3243  0.2750 -0.2844
  115OSM   H13F12004   5.190   0.649  -1.266  0.0384  0.7402  0.1821
  115OSM   H13G12005   5.191   0.478  -1.206  1.2838  0.0303  3.1703
  115OSM   C14F12006   5.343   0.506  -1.353  0.2181  0.1466  0.1616
  115OSM   H14F12007   5.382   0.402  -1.341 -1.0626 -0.7975 -2.9190
  115OSM   H14G12008   5.421   0.580  -1.382  2.9594 -3.1088 -1.5272
  115OSM   C15F12009   5.256   0.493  -1.484 -0.7128  0.1369  0.1309
  115OSM   H15F12010   5.233   0.600  -1.502 -1.0342 -0.1276 -1.0738
  115OSM   H15G12011   5.163   0.439  -1.458 -0.6272 -0.1738 -0.2056
  115OSM   C16F12012   5.334   0.436  -1.602  0.1494 -0.1656 -0.7898
  115OSM   H16F12013   5.398   0.351  -1.572 -1.2477 -0.8376  0.4031
  115OSM   H16G12014   5.401   0.522  -1.623  1.8712 -1.6943 -1.7332
  115OSM   C17F12015   5.244   0.403  -1.724  0.2228  0.8876 -0.4886
  115OSM   H17F12016   5.177   0.324  -1.685  0.2231  0.5612 -1.1286
  115OSM   H17G12017   5.309   0.364  -1.805  2.6707  0.6004  1.5022
  115OSM   C18F12018   5.151   0.518  -1.782  0.5534  0.3367 -0.7994
  115OSM   H18F12019   5.074   0.557  -1.711  1.6239  0.9118  0.0822
  115OSM   H18G12020   5.101   0.490  -1.877  0.9029 -0.5695 -0.7234
  115OSM   H18H12021   5.223   0.599  -1.806  2.4581 -0.6173  1.2463
  116OSM      N12022   0.184   3.502   0.775  0.2551 -0.3167 -0.2640
  116OSM    C1512023   0.288   3.604   0.739 -0.5686  0.1374 -0.7032
  116OSM   H15A12024   0.253   3.673   0.664 -1.1370  0.3625 -0.2418
  116OSM   H15B12025   0.372   3.559   0.687 -0.1820  0.3228 -0.2512
  116OSM   H15C12026   0.330   3.663   0.820  1.7996 -1.3592 -0.7323
  116OSM    C1412027   0.230   3.400   0.870 -0.0864  0.7851 -0.0696
  116OSM   H14A12028   0.284   3.444   0.952 -0.0029  3.2417 -1.3732
  116OSM   H14B12029   0.296   3.334   0.814 -0.1955  2.7407 -2.6719
  116OSM   H14C12030   0.147   3.348   0.916  1.3277 -2.0624 -0.4949
  116OSM    C1312031   0.063   3.566   0.835  0.2560  0.3368  0.2123
  116OSM   H13A12032  -0.021   3.500   0.845 -0.4841  1.3559  0.8567
  116OSM   H13B12033   0.031   3.650   0.775 -4.4642 -1.0256  0.4151
  116OSM   H13C12034   0.076   3.608   0.934 -0.3607 -1.0677  0.9054
  116OSM    C1212035   0.138   3.437   0.647  0.6868  0.5325  0.0611
  116OSM   H12A12036   0.074   3.505   0.592 -0.6327 -1.7405 -1.3903
  116OSM   H12B12037   0.076   3.350   0.660 -1.5953  2.2567  1.8432
  116OSM    C1112038   0.250   3.401   0.550 -0.5891  1.0478  0.2941
  116OSM   H11A12039   0.299   3.494   0.514  1.0707  0.4492  0.9269
  116OSM   H11B12040   0.204   3.355   0.459  0.4951 -0.4791  0.4859
  116OSM      P12041   0.492   3.311   0.603  0.3816  0.0929 -0.3055
  116OSM    O1312042   0.548   3.448   0.630 -0.1378  0.6261  0.3085
  116OSM    O1412043   0.546   3.193   0.672  0.0556  0.5502  0.4659
  116OSM    O1112044   0.518   3.292   0.451 -0.6458 -0.0291  0.4055
  116OSM    O1212045   0.339   3.307   0.616 -0.5525 -0.6269 -0.1342
  116OSM    C1S12046   0.456   3.190   0.375  0.2794 -0.4687 -0.0267
  116OSM    H1S12047   0.367   3.146   0.425 -0.6368  0.7457 -0.5436
  116OSM    H1T12048   0.512   3.094   0.365 -0.4118 -0.7473 -1.5239
  116OSM     NF12049   0.338   3.139   0.161 -0.2454  0.4051  0.5436
  116OSM    HNF12050   0.376   3.108   0.074 -0.0590 -0.2100  0.8349
  116OSM    C2S12051   0.407   3.236   0.238  0.4399 -0.3320  0.0995
  116OSM    H2S12052   0.339   3.321   0.259 -0.7081 -1.5578  1.6238
  116OSM    C3S12053   0.518   3.311   0.162  0.2480  0.0254  0.0410
  116OSM    H3S12054   0.594   3.236   0.132 -0.6704 -0.7545 -0.3578
  116OSM     O312055   0.601   3.404   0.234  0.3226  0.8692  0.0298
  116OSM    HO312056   0.564   3.391   0.322  1.2690  1.7933  0.5978
  116OSM    C4S12057   0.466   3.370   0.037  0.3863 -0.2751  0.6582
  116OSM    H4S12058   0.476   3.311  -0.056 -0.7607 -2.2121  1.6908
  116OSM    C5S12059   0.394   3.484   0.023  0.1429 -0.4468 -0.3090
  116OSM    H5S12060   0.365   3.550   0.106 -2.2585 -0.8424 -0.7622
  116OSM    C6S12061   0.351   3.533  -0.110  0.5788 -0.0346 -0.1404
  116OSM    H6S12062   0.367   3.643  -0.119  2.1848 -0.4008 -2.8138
  116OSM    H6T12063   0.241   3.520  -0.117  0.8497 -3.2130  0.0487
  116OSM    C7S12064   0.427   3.478  -0.232 -0.4026  0.3609 -0.2728
  116OSM    H7S12065   0.426   3.367  -0.244  4.0980  0.0916  0.1490
  116OSM    H7T12066   0.536   3.500  -0.233 -0.4499  0.6974  0.7793
  116OSM    C8S12067   0.373   3.534  -0.368  0.4731  0.4202  0.4564
  116OSM    H8S12068   0.335   3.638  -0.354  1.1771  1.0389 -1.7429
  116OSM    H8T12069   0.306   3.463  -0.420  1.8831 -2.1769  1.9869
  116OSM    C9S12070   0.487   3.542  -0.471 -0.5640  0.6418  0.6574
  116OSM    H9S12071   0.532   3.443  -0.492 -2.5047 -0.3583  0.9720
  116OSM    H9T12072   0.570   3.607  -0.434 -0.0614 -0.0959  0.8597
  116OSM   C10S12073   0.440   3.605  -0.608 -0.1023 -0.1178  0.6922
  116OSM   H10S12074   0.527   3.606  -0.678  0.7648  3.4845  1.5815
  116OSM   H10T12075   0.419   3.713  -0.591  3.0364  0.7550 -0.2492
  116OSM   C11S12076   0.316   3.544  -0.680  0.0284 -0.6310  0.1740
  116OSM   H11S12077   0.227   3.568  -0.617  0.3876  5.1764 -0.9708
  116OSM   H11T12078   0.329   3.434  -0.685 -0.4342 -0.7953  1.7368
  116OSM   C12S12079   0.309   3.600  -0.824  0.1963 -0.3901  0.2106
  116OSM   H12S12080   0.409   3.576  -0.867 -0.0817 -2.3575  0.6086
  116OSM   H12T12081   0.296   3.711  -0.828 -1.9280 -0.6147 -3.7556
  116OSM   C13S12082   0.198   3.542  -0.911  0.2519  0.1943 -0.7567
  116OSM   H13S12083   0.099   3.580  -0.878  0.5309  1.1347 -0.9597
  116OSM   H13T12084   0.193   3.431  -0.905  2.5257 -0.0747 -2.4425
  116OSM   C14S12085   0.193   3.576  -1.065 -0.1577 -0.5437 -0.4241
  116OSM   H14S12086   0.293   3.547  -1.105  0.4698  1.6470 -0.5903
  116OSM   H14T12087   0.169   3.683  -1.082 -2.1648 -1.0660 -1.1778
  116OSM   C15S12088   0.088   3.490  -1.145 -0.1652  0.1075 -0.2093
  116OSM   H15S12089  -0.011   3.515  -1.102  0.2696  2.0686 -0.2320
  116OSM   H15T12090   0.096   3.380  -1.129  0.7322 -0.0826 -1.7833
  116OSM   C16S12091   0.096   3.519  -1.302  0.8070  0.0583 -0.0915
  116OSM   H16S12092   0.022   3.444  -1.338  0.9436  0.1843 -0.6346
  116OSM   H16T12093   0.195   3.489  -1.341  0.4043  1.6645 -2.5683
  116OSM   C17S12094   0.076   3.662  -1.356  0.2727 -0.2184  0.1633
  116OSM   H17S12095   0.149   3.741  -1.330 -1.3240  1.2056  0.4946
  116OSM   H17T12096  -0.024   3.698  -1.322  0.6349  0.9040  0.0775
  116OSM   C18S12097   0.068   3.663  -1.509  1.0776 -0.2074  0.2564
  116OSM   H18S12098   0.173   3.663  -1.545  1.6291 -1.4065  1.7453
  116OSM   H18T12099   0.011   3.754  -1.538 -1.9430 -2.0916 -0.1670
  116OSM   H18U12100   0.022   3.574  -1.558 -0.1982  0.3383  0.4133
  116OSM    C1F12101   0.219   3.096   0.205 -0.0230  0.0217 -1.0080
  116OSM     OF12102   0.176   3.139   0.312 -0.3232  0.1658 -0.2145
  116OSM    C2F12103   0.129   3.020   0.112 -0.0214 -0.0150  0.5304
  116OSM    H2F12104   0.138   2.911   0.129 -2.4436 -0.6276 -1.3930
  116OSM    H2G12105   0.150   3.040   0.004 -0.9507  1.7997  0.6461
  116OSM    C3F12106  -0.019   3.042   0.144  0.6254  0.3222 -0.5216
  116OSM    H3F12107  -0.027   3.017   0.252 -0.8789  2.4390 -0.0948
  116OSM    H3G12108  -0.081   2.973   0.083  0.1226  0.1602  0.1639
  116OSM    C4F12109  -0.071   3.190   0.135  0.3755 -0.2051  0.2970
  116OSM    H4F12110  -0.002   3.266   0.178  0.0359  1.9977 -2.7543
  116OSM    H4G12111  -0.165   3.198   0.194  0.3507  2.0430  0.0388
  116OSM    C5F12112  -0.101   3.227  -0.009 -0.3144  0.1652  0.0894
  116OSM    H5F12113  -0.131   3.334  -0.014  0.0184  0.3877  2.0197
  116OSM    H5G12114  -0.191   3.165  -0.031  0.7279 -0.8244 -1.6605
  116OSM    C6F12115   0.014   3.218  -0.115 -0.1776 -0.6754  0.2955
  116OSM    H6F12116   0.023   3.110  -0.142 -2.9304 -1.2760  1.4931
  116OSM    H6G12117   0.102   3.274  -0.078 -2.0133  1.4899  1.6152
  116OSM    C7F12118  -0.017   3.290  -0.251  0.1484 -1.0329 -0.0625
  116OSM    H7F12119   0.007   3.396  -0.229  2.5132 -1.8452  1.6214
  116OSM    H7G12120  -0.125   3.267  -0.269  0.4955 -2.3689 -0.5978
  116OSM    C8F12121   0.070   3.238  -0.365 -0.9549  0.8211  0.0625
  116OSM    H8F12122   0.044   3.131  -0.381  0.8427  0.2933  0.4198
  116OSM    H8G12123   0.176   3.229  -0.334 -0.9435 -1.3379 -0.3988
  116OSM    C9F12124   0.049   3.311  -0.493 -0.4413 -0.2910 -0.2302
  116OSM    H9F12125   0.090   3.413  -0.485 -0.2339 -0.4231  0.5756
  116OSM   C10F12126   0.002   3.264  -0.607  0.1700  0.2660  0.5544
  116OSM   H10F12127  -0.003   3.325  -0.699 -0.8752 -0.8402 -0.1521
  116OSM   C11F12128  -0.066   3.131  -0.622 -0.2719 -0.7112 -0.0236
  116OSM   H11F12129  -0.174   3.152  -0.603  0.0626  0.5179  0.6323
  116OSM   H11G12130  -0.031   3.055  -0.549  1.0857 -1.3017 -1.2491
  116OSM   C12F12131  -0.038   3.073  -0.761  0.6746  0.0483  0.1407
  116OSM   H12F12132  -0.106   2.985  -0.765 -0.4702  0.9275 -0.4619
  116OSM   H12G12133   0.069   3.060  -0.788  0.4741  0.0510 -0.6840
  116OSM   C13F12134  -0.107   3.163  -0.871  0.2319 -0.2675 -0.0898
  116OSM   H13F12135  -0.049   3.258  -0.877 -2.2399  1.2263 -2.8996
  116OSM   H13G12136  -0.205   3.188  -0.826  1.0682  2.2775  0.5395
  116OSM   C14F12137  -0.122   3.116  -1.016  0.1143  0.8096 -0.3782
  116OSM   H14F12138  -0.188   3.027  -1.011  1.4546 -0.2016 -0.0827
  116OSM   H14G12139  -0.021   3.083  -1.049  0.2671  0.6646  0.2247
  116OSM   C15F12140  -0.174   3.224  -1.110 -0.2319 -0.3086 -0.2995
  116OSM   H15F12141  -0.131   3.317  -1.067  1.0588 -0.7632 -0.5340
  116OSM   H15G12142  -0.284   3.222  -1.099 -0.1945  1.2393  0.4933
  116OSM   C16F12143  -0.132   3.215  -1.257 -0.0053 -0.3274 -0.5365
  116OSM   H16F12144  -0.021   3.212  -1.259  0.0172  0.3528 -0.9400
  116OSM   H16G12145  -0.168   3.299  -1.320  0.5573 -0.3574 -0.9053
  116OSM   C17F12146  -0.186   3.089  -1.322 -0.6452  0.6502  0.4731
  116OSM   H17F12147  -0.175   3.010  -1.245  1.1835  2.3465  2.0620
  116OSM   H17G12148  -0.122   3.048  -1.403  2.4129  2.3688  1.8686
  116OSM   C18F12149  -0.336   3.099  -1.374 -0.4129  0.1273  0.3442
  116OSM   H18F12150  -0.343   3.188  -1.440  0.7690 -0.7800 -1.0472
  116OSM   H18G12151  -0.396   3.120  -1.283  1.6803 -1.2573  2.1436
  116OSM   H18H12152  -0.382   3.007  -1.415 -1.0033 -0.0285  1.3189
  117OSM      N12153   0.580   6.153   0.470  0.2570  0.8878  0.1496
  117OSM    C1512154   0.483   6.039   0.483  0.4562  0.6887  0.1897
  117OSM   H15A12155   0.388   6.072   0.523 -0.0437  0.7540 -1.0181
  117OSM   H15B12156   0.525   5.957   0.540 -0.8899 -0.0865  0.0976
  117OSM   H15C12157   0.473   5.995   0.385 -1.2983 -1.6094  1.2977
  117OSM    C1412158   0.588   6.205   0.613  0.0097 -0.2198 -0.1725
  117OSM   H14A12159   0.652   6.292   0.609 -1.9009  1.2125 -2.1963
  117OSM   H14B12160   0.610   6.126   0.682 -1.0094  0.6488  1.1942
  117OSM   H14C12161   0.490   6.247   0.629 -0.3812 -1.6358  1.3429
  117OSM    C1312162   0.718   6.113   0.436  0.4794 -0.5087 -0.5535
  117OSM   H13A12163   0.725   6.087   0.331  0.2757 -0.3416 -0.6103
  117OSM   H13B12164   0.742   6.034   0.505  0.5399 -0.0031  0.0111
  117OSM   H13C12165   0.787   6.192   0.462  1.0339 -1.3130  0.4803
  117OSM    C1212166   0.527   6.269   0.384  0.3477  0.0362 -0.6266
  117OSM   H12A12167   0.422   6.260   0.408  1.2041  1.0520  5.0365
  117OSM   H12B12168   0.557   6.240   0.285  0.8035 -0.9503 -0.2132
  117OSM    C1112169   0.575   6.416   0.423  0.6693  0.0471 -0.3593
  117OSM   H11A12170   0.558   6.417   0.533  1.0820 -1.5014 -0.2659
  117OSM   H11B12171   0.515   6.498   0.376  0.0624 -0.0256  0.2744
  117OSM      P12172   0.758   6.464   0.243  0.6156 -0.0884  0.3634
  117OSM    O1312173   0.711   6.597   0.213  0.5170 -0.2893 -0.0441
  117OSM    O1412174   0.898   6.437   0.221  0.1831  0.2153  0.3460
  117OSM    O1112175   0.669   6.363   0.159 -0.2769 -0.0096 -0.1942
  117OSM    O1212176   0.711   6.432   0.394 -0.8315  0.0508 -0.7367
  117OSM    C1S12177   0.660   6.376   0.018 -0.1568  0.1255  0.3488
  117OSM    H1S12178   0.678   6.479  -0.019 -0.0847  0.0675  0.2231
  117OSM    H1T12179   0.556   6.349  -0.010  0.4569  0.6841 -2.7350
  117OSM     NF12180   0.770   6.298  -0.189  0.2818  0.2192 -0.1554
  117OSM    HNF12181   0.728   6.234  -0.253 -0.6663  0.9050 -0.2396
  117OSM    C2S12182   0.761   6.273  -0.048  0.4483  0.5060 -0.4754
  117OSM    H2S12183   0.864   6.279  -0.009  0.2673 -0.8303  0.2532
  117OSM    C3S12184   0.720   6.127  -0.010  0.3920 -0.0726 -0.9213
  117OSM    H3S12185   0.609   6.121  -0.017  0.3703 -1.1615  0.0418
  117OSM     O312186   0.737   6.095   0.129 -0.2046  0.0175 -1.3821
  117OSM    HO312187   0.760   6.180   0.168 -0.0995 -0.4238 -0.4339
  117OSM    C4S12188   0.788   6.031  -0.101 -0.2640  0.0677 -0.0756
  117OSM    H4S12189   0.737   6.000  -0.193  1.0961 -0.1575 -0.7815
  117OSM    C5S12190   0.912   5.979  -0.074  0.9955  0.0254  0.1446
  117OSM    H5S12191   0.962   6.008   0.020  2.1066  0.8747 -0.6797
  117OSM    C6S12192   0.992   5.888  -0.156  0.2843  1.0446  0.3771
  117OSM    H6S12193   0.970   5.782  -0.131 -0.4580  1.1594  0.2379
  117OSM    H6T12194   1.101   5.899  -0.135 -0.1054  0.1844  3.3530
  117OSM    C7S12195   0.966   5.908  -0.308 -0.3091  0.3258  0.1640
  117OSM    H7S12196   0.978   6.015  -0.338 -0.7531 -0.1812 -1.9348
  117OSM    H7T12197   0.863   5.876  -0.336 -0.3064  0.9856 -0.6381
  117OSM    C8S12198   1.054   5.824  -0.397  0.6371  0.1483 -0.2626
  117OSM    H8S12199   1.048   5.716  -0.373 -1.4344 -0.1512 -1.8645
  117OSM    H8T12200   1.160   5.854  -0.382  1.8010 -2.2417 -2.9192
  117OSM    C9S12201   1.027   5.834  -0.546 -0.1265 -0.0550  0.2070
  117OSM    H9S12202   1.023   5.943  -0.567 -0.6582  0.2054  1.5781
  117OSM    H9T12203   0.925   5.791  -0.556  0.2082 -0.9830  0.7120
  117OSM   C10S12204   1.128   5.757  -0.631  0.2699 -0.1285  0.4780
  117OSM   H10S12205   1.117   5.646  -0.636  0.5928 -0.1329 -0.3529
  117OSM   H10T12206   1.234   5.785  -0.609  0.2472  0.7440 -0.4599
  117OSM   C11S12207   1.111   5.797  -0.780 -0.0125  0.3380  0.1944
  117OSM   H11S12208   1.127   5.906  -0.794 -1.3597  0.7566  1.6052
  117OSM   H11T12209   1.012   5.766  -0.820 -0.1913 -2.0492  2.2039
  117OSM   C12S12210   1.206   5.725  -0.878  0.4128 -0.4711 -0.8105
  117OSM   H12S12211   1.183   5.616  -0.876 -0.6936 -0.2456 -0.9544
  117OSM   H12T12212   1.315   5.731  -0.856  0.2132 -0.8536  0.3776
  117OSM   C13S12213   1.175   5.768  -1.018  0.4039 -0.3604  0.6547
  117OSM   H13S12214   1.218   5.871  -1.023  3.7310 -1.6621 -0.4386
  117OSM   H13T12215   1.068   5.777  -1.045  0.4102  1.7127  1.1372
  117OSM   C14S12216   1.239   5.677  -1.134  0.6889  0.3050 -0.1803
  117OSM   H14S12217   1.179   5.584  -1.130  0.4891  0.3235 -2.0776
  117OSM   H14T12218   1.342   5.646  -1.105  0.5913 -1.0902 -1.2491
  117OSM   C15S12219   1.247   5.749  -1.271  0.7700  0.2552 -0.3659
  117OSM   H15S12220   1.315   5.837  -1.269  1.6143 -0.3973  0.3816
  117OSM   H15T12221   1.141   5.775  -1.289 -0.4410 -2.4077  2.1467
  117OSM   C16S12222   1.299   5.665  -1.389  0.0919  0.0672 -0.2586
  117OSM   H16S12223   1.244   5.568  -1.390  0.2415 -0.1594 -4.2994
  117OSM   H16T12224   1.409   5.648  -1.378  0.0773 -1.3211 -1.7989
  117OSM   C17S12225   1.286   5.732  -1.528 -0.6654 -0.4350  0.6926
  117OSM   H17S12226   1.317   5.658  -1.605  2.0484  1.6400 -0.3362
  117OSM   H17T12227   1.351   5.821  -1.518  0.6947 -1.0210 -1.9975
  117OSM   C18S12228   1.145   5.780  -1.560 -0.2541  0.8575 -0.1596
  117OSM   H18S12229   1.111   5.869  -1.504 -1.7029  0.5577 -0.5277
  117OSM   H18T12230   1.080   5.693  -1.533 -2.0048  1.3944 -2.3594
  117OSM   H18U12231   1.140   5.796  -1.669  2.1489 -0.1212 -0.4761
  117OSM    C1F12232   0.824   6.406  -0.240 -0.2604  0.9497  0.3545
  117OSM     OF12233   0.896   6.481  -0.178 -0.1423  0.5851  0.4010
  117OSM    C2F12234   0.795   6.432  -0.382 -0.8943  0.0450  0.3910
  117OSM    H2F12235   0.685   6.431  -0.397 -1.4845  0.3340  3.9166
  117OSM    H2G12236   0.843   6.354  -0.445 -0.3162  0.7086  0.0070
  117OSM    C3F12237   0.851   6.570  -0.440 -0.9992 -0.0676  0.4174
  117OSM    H3F12238   0.961   6.556  -0.431 -1.2018 -1.2804  1.2916
  117OSM    H3G12239   0.824   6.660  -0.380 -3.4254 -1.3172  1.3589
  117OSM    C4F12240   0.811   6.587  -0.583 -0.3445  0.3618 -0.4221
  117OSM    H4F12241   0.707   6.626  -0.581 -0.2671  0.5447  1.8651
  117OSM    H4G12242   0.806   6.494  -0.644 -1.9106  0.4326 -0.4438
  117OSM    C5F12243   0.895   6.686  -0.664  0.4283  0.1247 -0.8231
  117OSM    H5F12244   0.999   6.647  -0.672  0.1879 -0.9966  1.0348
  117OSM    H5G12245   0.905   6.784  -0.612 -2.1967  0.9046 -1.6430
  117OSM    C6F12246   0.839   6.712  -0.798  0.6900 -0.0975 -0.6777
  117OSM    H6F12247   0.876   6.808  -0.839 -2.5279  1.2808 -0.6404
  117OSM    H6G12248   0.729   6.727  -0.796  0.5927 -0.8262  1.5171
  117OSM    C7F12249   0.885   6.602  -0.890  0.2412  0.4530 -0.6567
  117OSM    H7F12250   0.842   6.504  -0.862  2.2731 -0.4746 -0.6278
  117OSM    H7G12251   0.994   6.588  -0.875 -0.1825 -1.6005  0.8439
  117OSM    C8F12252   0.843   6.605  -1.038  0.0011  0.2409 -0.0435
  117OSM    H8F12253   0.864   6.702  -1.088  1.1263  0.0795  0.0975
  117OSM    H8G12254   0.733   6.594  -1.037  0.0965 -0.8029  0.5112
  117OSM    C9F12255   0.900   6.506  -1.134  0.1852  0.1444 -0.5361
  117OSM    H9F12256   0.933   6.411  -1.089  0.5331  0.1881 -0.6980
  117OSM   C10F12257   0.914   6.513  -1.270  0.0207  0.3237  0.5310
  117OSM   H10F12258   0.965   6.433  -1.326  0.0154  2.8327 -3.4592
  117OSM   C11F12259   0.863   6.625  -1.355 -0.2761 -0.1413  0.0556
  117OSM   H11F12260   0.941   6.642  -1.432  1.3932  0.6675  1.8309
  117OSM   H11G12261   0.876   6.723  -1.305  1.5907  0.7865 -2.0461
  117OSM   C12F12262   0.728   6.599  -1.414 -0.0671 -1.1110  0.4724
  117OSM   H12F12263   0.700   6.694  -1.464  0.8296 -1.5168 -0.8426
  117OSM   H12G12264   0.640   6.578  -1.350 -0.4017  2.1411  1.2674
  117OSM   C13F12265   0.731   6.496  -1.534 -0.0082  0.4919 -0.0221
  117OSM   H13F12266   0.747   6.398  -1.484  1.0764  1.0440  0.7560
  117OSM   H13G12267   0.814   6.537  -1.596 -1.7388 -1.5154 -4.0394
  117OSM   C14F12268   0.615   6.483  -1.633  0.9782 -0.6589  0.0497
  117OSM   H14F12269   0.521   6.474  -1.574  1.1002  2.4382  0.8731
  117OSM   H14G12270   0.630   6.387  -1.688  0.4996 -1.1796  0.8045
  117OSM   C15F12271   0.605   6.599  -1.737  0.2139  0.1801 -0.1470
  117OSM   H15F12272   0.707   6.627  -1.770 -0.1799  0.1243 -1.4430
  117OSM   H15G12273   0.561   6.691  -1.693 -1.0756  0.1885 -1.3971
  117OSM   C16F12274   0.508   6.561  -1.855  0.0956  0.8906  0.1429
  117OSM   H16F12275   0.405   6.549  -1.814  0.6333 -4.1293  0.6282
  117OSM   H16G12276   0.534   6.456  -1.883  1.5178  1.3305 -0.2983
  117OSM   C17F12277   0.517   6.656  -1.974  0.0382 -0.4921 -0.0860
  117OSM   H17F12278   0.617   6.664  -2.021 -0.2214  1.5392 -0.3979
  117OSM   H17G12279   0.494   6.754  -1.927 -0.8796  0.3742 -2.1876
  117OSM   C18F12280   0.413   6.613  -2.078 -0.6647  0.0454 -0.7557
  117OSM   H18F12281   0.416   6.683  -2.164  0.3431 -0.2026 -0.9388
  117OSM   H18G12282   0.309   6.609  -2.040  0.0178 -0.8202  1.2226
  117OSM   H18H12283   0.443   6.510  -2.108  1.8313  0.0546  1.2727
  118OSM      N12284   2.643   5.112   0.622 -0.3163  0.5004  0.1805
  118OSM    C1512285   2.608   5.002   0.529  0.3312  0.0847 -0.2544
  118OSM   H15A12286   2.616   4.908   0.583  0.4428  1.0113  1.4136
  118OSM   H15B12287   2.674   4.992   0.444  0.7302 -1.4559  0.1884
  118OSM   H15C12288   2.509   5.016   0.489  0.6862  0.1289 -1.1274
  118OSM    C1412289   2.588   5.081   0.759 -0.3751  0.2189 -0.5974
  118OSM   H14A12290   2.480   5.080   0.752 -0.3079  0.5492 -1.8488
  118OSM   H14B12291   2.622   5.156   0.829 -0.5460  0.4391 -0.7487
  118OSM   H14C12292   2.616   4.981   0.791  1.9035  0.7366 -0.8153
  118OSM    C1312293   2.789   5.113   0.646  0.4841  0.1371 -0.7772
  118OSM   H13A12294   2.806   5.178   0.730  1.5479  1.0718 -1.6956
  118OSM   H13B12295   2.835   5.162   0.562 -0.4148  2.7254  0.1449
  118OSM   H13C12296   2.829   5.014   0.662 -2.0588 -0.9537 -0.5775
  118OSM    C1212297   2.600   5.247   0.567 -0.1151  0.4979  0.8747
  118OSM   H12A12298   2.631   5.329   0.630  1.8853  1.1166 -0.8014
  118OSM   H12B12299   2.492   5.249   0.571 -0.2082 -1.3736 -0.0232
  118OSM    C1112300   2.647   5.288   0.427  0.0493 -0.0349  0.5688
  118OSM   H11A12301   2.571   5.362   0.393  0.4272  0.4688  0.7992
  118OSM   H11B12302   2.647   5.208   0.350  2.8478  0.8240 -0.4554
  118OSM      P12303   2.829   5.462   0.492  0.3180  0.0088  0.1210
  118OSM    O1312304   2.715   5.539   0.542  0.2851  0.4986 -0.3008
  118OSM    O1412305   2.944   5.448   0.574  0.2197  0.6010  0.1312
  118OSM    O1112306   2.885   5.526   0.358  0.3380 -0.5266  0.3881
  118OSM    O1212307   2.786   5.320   0.436  0.6710  0.3807  0.2427
  118OSM    C1S12308   2.923   5.466   0.235  0.1950 -1.0016 -0.1121
  118OSM    H1S12309   2.866   5.374   0.210  1.0728 -1.2422 -1.3308
  118OSM    H1T12310   3.026   5.424   0.244  0.1819 -0.9902  0.0965
  118OSM     NF12311   2.956   5.510   0.001 -0.4937 -0.4068  0.7855
  118OSM    HNF12312   3.023   5.564  -0.051 -1.9251 -1.1677 -2.0594
  118OSM    C2S12313   2.915   5.574   0.122  0.1045  0.6312 -0.3282
  118OSM    H2S12314   2.810   5.609   0.107 -1.4951 -2.6801  1.8620
  118OSM    C3S12315   2.993   5.705   0.154  0.3590  0.2759 -0.3201
  118OSM    H3S12316   3.088   5.662   0.194 -0.6392 -3.2074 -1.3655
  118OSM     O312317   2.933   5.785   0.260 -0.1452 -0.0675  0.0247
  118OSM    HO312318   2.871   5.723   0.300 -0.7782  0.2333 -0.4743
  118OSM    C4S12319   2.997   5.789   0.034 -0.3511  0.4812  0.0760
  118OSM    H4S12320   2.899   5.822  -0.003 -0.6627  1.7513  1.8462
  118OSM    C5S12321   3.117   5.828  -0.019  0.1281 -0.3172 -0.3877
  118OSM    H5S12322   3.206   5.798   0.038 -0.9044 -1.2642  0.8018
  118OSM    C6S12323   3.129   5.919  -0.142 -0.2245 -0.2606 -0.0508
  118OSM    H6S12324   3.140   5.849  -0.227  1.9841 -2.8317  2.1712
  118OSM    H6T12325   3.218   5.985  -0.134  1.0131 -1.9515  0.7625
  118OSM    C7S12326   3.012   6.016  -0.151  0.2693  0.6378 -0.2585
  118OSM    H7S12327   2.985   6.067  -0.056 -2.6051  0.2424 -0.7514
  118OSM    H7T12328   2.921   5.958  -0.178 -0.2763 -0.1722  2.9493
  118OSM    C8S12329   3.038   6.122  -0.255  0.3267 -0.3363  0.0229
  118OSM    H8S12330   3.128   6.184  -0.236  0.1914 -0.1840  0.1804
  118OSM    H8T12331   2.962   6.204  -0.254  2.3573  1.9485 -4.3406
  118OSM    C9S12332   3.031   6.076  -0.400  0.6560  0.3537  0.3725
  118OSM    H9S12333   2.933   6.038  -0.437  0.0620  2.9949 -0.9846
  118OSM    H9T12334   3.110   5.999  -0.412 -1.7196 -1.8654 -2.5277
  118OSM   C10S12335   3.067   6.179  -0.505  0.2403  0.1307  0.1725
  118OSM   H10S12336   3.170   6.216  -0.483  1.1554 -1.9596 -0.3453
  118OSM   H10T12337   2.991   6.260  -0.498  0.4725  0.3586  0.1108
  118OSM   C11S12338   3.075   6.113  -0.641 -0.1996 -0.2561  0.5408
  118OSM   H11S12339   2.977   6.063  -0.654  0.7205 -1.8925 -0.5137
  118OSM   H11T12340   3.145   6.028  -0.659 -0.7838 -1.0051  1.7059
  118OSM   C12S12341   3.077   6.219  -0.749 -0.1504  0.1098  0.1789
  118OSM   H12S12342   3.172   6.276  -0.749  1.5963 -2.6081  0.0514
  118OSM   H12T12343   2.990   6.285  -0.729  0.6454  0.5147  2.6417
  118OSM   C13S12344   3.065   6.151  -0.883  0.6242  0.3154 -0.1231
  118OSM   H13S12345   2.963   6.109  -0.880  0.6267  0.0778 -2.1561
  118OSM   H13T12346   3.129   6.062  -0.898 -0.1465  0.0463 -2.0138
  118OSM   C14S12347   3.092   6.247  -0.997 -0.3750  0.1957  0.4216
  118OSM   H14S12348   3.199   6.274  -1.008 -1.2407  3.3656 -1.9939
  118OSM   H14T12349   3.030   6.337  -0.973 -0.4571  0.8560 -1.9910
  118OSM   C15S12350   3.056   6.177  -1.133  0.2823  0.2899  0.5744
  118OSM   H15S12351   3.084   6.246  -1.216 -1.2022  0.2034 -0.0368
  118OSM   H15T12352   2.945   6.177  -1.138  0.2608  2.6514 -0.3036
  118OSM   C16S12353   3.117   6.040  -1.154  0.3634  0.9314 -0.4593
  118OSM   H16S12354   3.073   5.969  -1.081 -0.2075 -0.2161 -1.8642
  118OSM   H16T12355   3.228   6.045  -1.143  0.6669 -3.0066 -0.1784
  118OSM   C17S12356   3.099   5.986  -1.296  0.6483 -0.5614 -0.2670
  118OSM   H17S12357   3.124   6.063  -1.373 -2.0889  1.4669  0.7135
  118OSM   H17T12358   2.990   5.973  -1.312  0.3335  0.9744  0.4039
  118OSM   C18S12359   3.177   5.854  -1.328  0.3199 -0.7389 -0.6345
  118OSM   H18S12360   3.156   5.825  -1.433 -2.4294 -0.5096 -0.2217
  118OSM   H18T12361   3.152   5.767  -1.263 -1.5664 -0.3528 -0.7877
  118OSM   H18U12362   3.284   5.881  -1.316  0.1800  0.7933 -2.3546
  118OSM    C1F12363   2.895   5.406  -0.053  1.1601  0.7677  0.1994
  118OSM     OF12364   2.784   5.365  -0.012 -0.6576 -0.3745  0.1943
  118OSM    C2F12365   2.954   5.339  -0.165  0.9308 -0.0140 -0.3848
  118OSM    H2F12366   3.064   5.338  -0.151  0.7102  1.1722  1.9802
  118OSM    H2G12367   2.930   5.393  -0.258 -2.8810  0.3190  0.6189
  118OSM    C3F12368   2.919   5.189  -0.172 -0.4664  0.1081  0.0219
  118OSM    H3F12369   2.809   5.178  -0.160 -0.1206 -1.7401  2.2260
  118OSM    H3G12370   2.967   5.136  -0.087 -1.1542  0.6170  0.7409
  118OSM    C4F12371   2.967   5.131  -0.309  0.2140  0.6050 -0.6510
  118OSM    H4F12372   2.911   5.182  -0.390  1.5891  1.4330 -1.1051
  118OSM    H4G12373   2.934   5.025  -0.301 -2.1519  1.3895  1.5807
  118OSM    C5F12374   3.116   5.120  -0.347  0.0852  0.3150 -0.0074
  118OSM    H5F12375   3.167   5.083  -0.256 -0.8049 -1.5056 -0.2087
  118OSM    H5G12376   3.160   5.219  -0.373 -0.0144 -0.3246 -3.0487
  118OSM    C6F12377   3.159   5.026  -0.463 -0.8154 -1.0485  0.1325
  118OSM    H6F12378   3.133   4.921  -0.438 -0.2187 -1.2706 -0.1642
  118OSM    H6G12379   3.270   5.027  -0.453 -0.9139  0.5477  1.6355
  118OSM    C7F12380   3.110   5.050  -0.608 -0.4500 -0.1347  0.0238
  118OSM    H7F12381   3.000   5.047  -0.596 -0.3304  2.3775  3.1006
  118OSM    H7G12382   3.129   4.964  -0.676 -3.3629 -0.0565 -1.0127
  118OSM    C8F12383   3.150   5.178  -0.674  0.5263 -0.4257  0.2313
  118OSM    H8F12384   3.261   5.183  -0.680  0.5144  2.4877  0.8712
  118OSM    H8G12385   3.126   5.259  -0.602 -1.0889 -0.6724  0.0017
  118OSM    C9F12386   3.069   5.205  -0.802  0.3342  0.1730 -0.2885
  118OSM    H9F12387   2.968   5.242  -0.780  0.0994  0.4414 -1.7425
  118OSM   C10F12388   3.099   5.192  -0.933  0.0837 -1.1784 -0.0923
  118OSM   H10F12389   3.017   5.205  -1.005  0.3540  2.2419  0.0578
  118OSM   C11F12390   3.234   5.144  -0.988  0.2520 -0.7004 -0.3545
  118OSM   H11F12391   3.277   5.091  -0.900 -0.5431  1.6843  1.6083
  118OSM   H11G12392   3.308   5.224  -1.011 -0.7776  0.9204  1.6578
  118OSM   C12F12393   3.228   5.046  -1.110 -0.3072  0.4872  0.0946
  118OSM   H12F12394   3.153   4.969  -1.083 -0.7942  1.8986  3.1800
  118OSM   H12G12395   3.321   4.987  -1.127 -0.0343  0.2082  2.2110
  118OSM   C13F12396   3.176   5.100  -1.243 -0.0649 -0.2586 -0.7190
  118OSM   H13F12397   3.079   5.147  -1.218 -0.2379 -0.1758 -1.5200
  118OSM   H13G12398   3.154   5.010  -1.304 -0.0810 -1.5004  1.0379
  118OSM   C14F12399   3.264   5.214  -1.299  0.2348 -0.2020 -0.4989
  118OSM   H14F12400   3.359   5.174  -1.342  1.4906  3.0658 -1.0195
  118OSM   H14G12401   3.281   5.279  -1.211 -0.5336 -0.6741  0.0140
  118OSM   C15F12402   3.195   5.289  -1.407  0.1384  0.7033 -0.1227
  118OSM   H15F12403   3.099   5.327  -1.367 -1.4213 -0.3829 -2.6032
  118OSM   H15G12404   3.179   5.219  -1.492  1.0405 -0.7756  0.8880
  118OSM   C16F12405   3.262   5.411  -1.460 -0.2975 -0.2368  0.1357
  118OSM   H16F12406   3.337   5.394  -1.540 -1.9592 -0.9241 -1.3360
  118OSM   H16G12407   3.305   5.469  -1.375 -1.3208  1.0205 -0.1805
  118OSM   C17F12408   3.166   5.500  -1.535  0.2451 -0.0694 -0.6397
  118OSM   H17F12409   3.119   5.572  -1.464  3.5275  1.5700  0.0685
  118OSM   H17G12410   3.090   5.439  -1.588  0.6006 -1.8246  0.7858
  118OSM   C18F12411   3.244   5.574  -1.643  0.1170 -0.3494 -0.2335
  118OSM   H18F12412   3.171   5.622  -1.711 -0.6068  2.6032  2.3993
  118OSM   H18G12413   3.304   5.507  -1.708  2.9467 -0.0339  1.8474
  118OSM   H18H12414   3.320   5.637  -1.593  0.3494 -1.6843  1.1724
  119OSM      N12415   3.031   2.547   0.470 -0.2753 -0.0760 -0.0605
  119OSM    C1512416   3.099   2.540   0.603 -0.5263  0.3306 -0.3262
  119OSM   H15A12417   3.071   2.617   0.674  2.4585 -0.0439  1.4214
  119OSM   H15B12418   3.207   2.552   0.597 -0.4053 -0.5766 -0.0240
  119OSM   H15C12419   3.082   2.441   0.640 -0.4932  0.1525 -0.7791
  119OSM    C1412420   3.077   2.660   0.397 -0.2064 -0.3368 -0.2874
  119OSM   H14A12421   3.046   2.753   0.442  1.1373 -0.0278  0.0667
  119OSM   H14B12422   3.030   2.661   0.300  1.0451 -0.6321 -0.9274
  119OSM   H14C12423   3.185   2.658   0.387 -0.1499 -0.8814  0.3667
  119OSM    C1312424   3.083   2.439   0.389 -0.1166  0.6619  0.8396
  119OSM   H13A12425   3.075   2.341   0.435 -1.5958 -0.4374 -1.5451
  119OSM   H13B12426   3.188   2.455   0.370  0.3045 -2.5431 -0.1331
  119OSM   H13C12427   3.040   2.434   0.290 -2.4071 -2.8627  1.8269
  119OSM    C1212428   2.882   2.532   0.484 -0.1995 -0.3352 -0.0210
  119OSM   H12A12429   2.873   2.439   0.539  2.9224 -0.4290  0.5146
  119OSM   H12B12430   2.824   2.531   0.393 -1.0473  0.3799  0.5057
  119OSM    C1112431   2.817   2.645   0.559 -0.1116  0.5919  0.3897
  119OSM   H11A12432   2.864   2.742   0.532  4.2309 -1.4674 -0.3633
  119OSM   H11B12433   2.835   2.644   0.668  1.8359  1.7408  0.1279
  119OSM      P12434   2.586   2.760   0.513  0.1689 -0.1331 -0.2235
  119OSM    O1312435   2.459   2.720   0.451  0.6261  0.7161 -0.1428
  119OSM    O1412436   2.579   2.840   0.641  0.0904 -0.1037 -0.5998
  119OSM    O1112437   2.661   2.847   0.405  0.1482 -0.2813 -0.6584
  119OSM    O1212438   2.674   2.628   0.534  0.0864  0.0404 -0.6694
  119OSM    C1S12439   2.684   2.787   0.276  0.7005 -0.2208  0.6458
  119OSM    H1S12440   2.593   2.741   0.231  0.4230  1.0400 -0.1420
  119OSM    H1T12441   2.763   2.711   0.288  0.4448 -0.6177 -0.1296
  119OSM     NF12442   2.719   2.844   0.048 -0.0266  0.6356 -0.2579
  119OSM    HNF12443   2.807   2.828   0.004 -0.0952  1.2909 -0.6447
  119OSM    C2S12444   2.727   2.896   0.179 -0.1809 -0.0695  0.2613
  119OSM    H2S12445   2.658   2.982   0.171  2.5107  2.2058 -0.2655
  119OSM    C3S12446   2.873   2.959   0.223  0.2390  0.2667 -0.2274
  119OSM    H3S12447   2.943   2.874   0.214 -0.2972 -0.4462  1.8465
  119OSM     O312448   2.888   2.995   0.360 -0.0900 -0.1040 -0.0901
  119OSM    HO312449   2.808   2.963   0.403 -0.7267 -0.1889 -1.2845
  119OSM    C4S12450   2.934   3.058   0.132  0.1361  0.3525  0.5473
  119OSM    H4S12451   2.994   3.003   0.057 -0.2546 -2.1612  1.9670
  119OSM    C5S12452   2.933   3.196   0.128 -0.0999 -0.1238  1.2379
  119OSM    H5S12453   2.880   3.250   0.207  0.4466  0.8280  0.9676
  119OSM    C6S12454   2.999   3.284   0.025  0.4296 -0.0429 -0.2294
  119OSM    H6S12455   3.085   3.330   0.077  0.4806 -2.5511  2.0920
  119OSM    H6T12456   2.936   3.370  -0.005  1.5523  0.7294 -0.4234
  119OSM    C7S12457   3.057   3.219  -0.106 -0.3302 -0.0467  1.2773
  119OSM    H7S12458   3.112   3.125  -0.080 -1.9628 -2.4143 -2.8038
  119OSM    H7T12459   3.124   3.292  -0.156 -2.1869  1.8507  1.4298
  119OSM    C8S12460   2.953   3.169  -0.215 -0.0749 -0.0113  0.0944
  119OSM    H8S12461   2.881   3.248  -0.247  0.8501  0.9635  0.3420
  119OSM    H8T12462   2.895   3.087  -0.169  0.8572 -2.2703 -2.4896
  119OSM    C9S12463   3.022   3.107  -0.339 -0.4436  0.2317 -0.1178
  119OSM    H9S12464   3.118   3.062  -0.307 -0.0585  0.0736 -1.4616
  119OSM    H9T12465   3.033   3.184  -0.418 -1.7320 -1.4399 -2.0221
  119OSM   C10S12466   2.934   3.011  -0.413 -0.0510  0.4906  0.0955
  119OSM   H10S12467   2.828   3.035  -0.392  0.1656  2.5211 -0.8524
  119OSM   H10T12468   2.961   2.916  -0.362  0.0257  1.9376  2.9628
  119OSM   C11S12469   2.970   2.995  -0.564  0.0930  0.1288  0.5923
  119OSM   H11S12470   3.077   2.965  -0.575  0.1405  0.2004  0.8544
  119OSM   H11T12471   2.955   3.090  -0.619 -0.6001 -0.2891  0.0439
  119OSM   C12S12472   2.863   2.896  -0.634 -0.0036 -0.0363 -0.8042
  119OSM   H12S12473   2.762   2.941  -0.625  0.3920  0.4383  3.6076
  119OSM   H12T12474   2.847   2.805  -0.571  1.3814  0.5185  0.4180
  119OSM   C13S12475   2.894   2.865  -0.782  0.2874  0.0158  0.6005
  119OSM   H13S12476   2.994   2.817  -0.789 -0.5897 -1.9177  0.4623
  119OSM   H13T12477   2.902   2.956  -0.844 -1.9013  0.3198  0.6752
  119OSM   C14S12478   2.799   2.761  -0.840  0.5483  0.6507 -0.0412
  119OSM   H14S12479   2.696   2.798  -0.817 -0.1725 -0.1545 -1.7648
  119OSM   H14T12480   2.815   2.666  -0.785  0.0385  0.5742 -0.0127
  119OSM   C15S12481   2.814   2.729  -0.991 -0.3861 -0.2203  0.3454
  119OSM   H15S12482   2.910   2.674  -1.003 -0.5469 -0.6022  0.7724
  119OSM   H15T12483   2.827   2.828  -1.040  3.6269 -0.0006  1.4655
  119OSM   C16S12484   2.689   2.648  -1.048 -0.2728  0.4685 -0.0242
  119OSM   H16S12485   2.605   2.709  -1.009  1.1194  0.6550  2.9316
  119OSM   H16T12486   2.683   2.546  -1.005 -0.2917  1.0900  1.4994
  119OSM   C17S12487   2.685   2.637  -1.198  0.4153 -0.1724 -0.0770
  119OSM   H17S12488   2.592   2.583  -1.225 -0.1060  1.3209 -1.3546
  119OSM   H17T12489   2.772   2.583  -1.241  1.2503  0.9399  0.1709
  119OSM   C18S12490   2.667   2.773  -1.256  0.2698  0.0899 -0.1657
  119OSM   H18S12491   2.766   2.823  -1.258  0.6670 -0.7041 -0.7361
  119OSM   H18T12492   2.603   2.843  -1.198 -1.6075  1.2650 -3.3512
  119OSM   H18U12493   2.619   2.778  -1.356 -0.2750 -1.7134 -0.0231
  119OSM    C1F12494   2.603   2.816  -0.014  0.7084  1.4567 -0.7535
  119OSM     OF12495   2.496   2.843   0.037 -0.0786  0.1993  0.2042
  119OSM    C2F12496   2.618   2.753  -0.154 -0.3716 -0.6805 -0.2276
  119OSM    H2F12497   2.640   2.645  -0.139  1.8753 -0.3164 -0.6678
  119OSM    H2G12498   2.712   2.788  -0.202 -0.9499 -1.5893 -2.1548
  119OSM    C3F12499   2.506   2.788  -0.256  0.8154 -0.5002 -0.3167
  119OSM    H3F12500   2.529   2.893  -0.283  3.3645 -0.8263  0.3124
  119OSM    H3G12501   2.406   2.780  -0.209  0.7269 -0.8088 -0.5515
  119OSM    C4F12502   2.505   2.696  -0.380 -0.6058  0.8836  0.1447
  119OSM    H4F12503   2.509   2.588  -0.356  1.3936  0.8282 -0.2452
  119OSM    H4G12504   2.604   2.711  -0.428 -0.5669 -1.3978 -0.6040
  119OSM    C5F12505   2.405   2.727  -0.496 -0.3727 -0.1667  0.6422
  119OSM    H5F12506   2.434   2.831  -0.523 -1.5864  0.1442  0.4836
  119OSM    H5G12507   2.300   2.718  -0.459  0.1331 -3.2652  1.5976
  119OSM    C6F12508   2.408   2.631  -0.614 -0.0349  0.2714  0.8054
  119OSM    H6F12509   2.396   2.527  -0.578 -1.8250  0.1337 -0.0829
  119OSM    H6G12510   2.512   2.631  -0.653 -0.2368 -1.3450  0.1829
  119OSM    C7F12511   2.299   2.672  -0.712 -0.2982  0.5391  0.5753
  119OSM    H7F12512   2.323   2.769  -0.761 -1.5001 -0.2897 -1.8231
  119OSM    H7G12513   2.198   2.667  -0.665 -0.8572 -1.8606 -0.7160
  119OSM    C8F12514   2.307   2.550  -0.810 -0.2688  0.3384 -0.0240
  119OSM    H8F12515   2.308   2.452  -0.758  2.2829  0.1257 -0.3582
  119OSM    H8G12516   2.403   2.558  -0.864 -1.0156 -0.0114 -1.4673
  119OSM    C9F12517   2.199   2.554  -0.914 -0.5592  0.0096 -0.5719
  119OSM    H9F12518   2.105   2.576  -0.862  0.2186  0.0262  0.8701
  119OSM   C10F12519   2.208   2.554  -1.049 -0.1953 -0.4379  0.1241
  119OSM   H10F12520   2.116   2.560  -1.110  0.1842 -2.0333 -0.6580
  119OSM   C11F12521   2.327   2.523  -1.136 -0.0379  0.0454  0.1212
  119OSM   H11F12522   2.415   2.486  -1.080 -0.4372 -0.7177  0.2540
  119OSM   H11G12523   2.366   2.616  -1.184  2.2993 -1.0388 -0.2344
  119OSM   C12F12524   2.286   2.409  -1.230 -0.1145 -0.2624 -0.1756
  119OSM   H12F12525   2.191   2.430  -1.284 -2.1012  0.1575  3.2247
  119OSM   H12G12526   2.269   2.313  -1.178  2.4999 -0.6447  0.1171
  119OSM   C13F12527   2.391   2.386  -1.339  0.1742  0.0555 -0.1105
  119OSM   H13F12528   2.491   2.353  -1.303  0.4647  1.5223  0.4986
  119OSM   H13G12529   2.417   2.479  -1.394  1.2526  0.2619  0.6978
  119OSM   C14F12530   2.342   2.287  -1.442  0.4520 -0.6009  0.2114
  119OSM   H14F12531   2.251   2.322  -1.495 -0.1735  0.1965  1.7872
  119OSM   H14G12532   2.330   2.189  -1.391  3.8046 -0.8584  0.7665
  119OSM   C15F12533   2.450   2.267  -1.557  0.6674  0.0170 -0.2709
  119OSM   H15F12534   2.531   2.204  -1.516  1.7720 -0.2606 -2.7284
  119OSM   H15G12535   2.486   2.369  -1.586 -2.1065  1.4939  1.0687
  119OSM   C16F12536   2.374   2.202  -1.672  0.2515  0.0347  0.7152
  119OSM   H16F12537   2.280   2.256  -1.697  0.7637  0.8509  0.5146
  119OSM   H16G12538   2.355   2.096  -1.642 -0.5966  0.4590  1.7122
  119OSM   C17F12539   2.464   2.202  -1.799 -0.1836 -0.7681 -0.3585
  119OSM   H17F12540   2.564   2.171  -1.761 -0.8205 -0.9142  1.2612
  119OSM   H17G12541   2.474   2.302  -1.846  1.2800 -0.2783  0.9276
  119OSM   C18F12542   2.413   2.103  -1.902  0.4494 -0.0155 -0.5914
  119OSM   H18F12543   2.404   1.998  -1.865 -0.8102  0.6232  1.0287
  119OSM   H18G12544   2.476   2.110  -1.993 -0.3695  2.2067 -1.0434
  119OSM   H18H12545   2.315   2.142  -1.938  1.1630  1.1340 -1.3390
  120OSM      N12546   6.460   0.561   0.794 -0.5040  0.2308  0.0272
  120OSM    C1512547   6.403   0.476   0.683 -0.4241  0.0518 -0.6638
  120OSM   H15A12548   6.480   0.422   0.630  0.5485 -0.5735  1.2919
  120OSM   H15B12549   6.350   0.541   0.614  0.2798  3.7738  1.9541
  120OSM   H15C12550   6.339   0.397   0.718  1.3846 -1.1446  0.0792
  120OSM    C1412551   6.358   0.665   0.830  0.1701  0.3283  0.2842
  120OSM   H14A12552   6.400   0.728   0.907  0.3060  0.7810 -0.1542
  120OSM   H14B12553   6.266   0.620   0.866  0.4834 -1.6957 -1.2476
  120OSM   H14C12554   6.349   0.736   0.749  1.2997  0.6048  0.3910
  120OSM    C1312555   6.504   0.483   0.912  0.7141  0.0280  0.1713
  120OSM   H13A12556   6.420   0.434   0.960  0.7138  1.3206  1.5281
  120OSM   H13B12557   6.546   0.546   0.988  1.9809 -0.1508 -0.3606
  120OSM   H13C12558   6.569   0.401   0.885 -0.7671 -0.8143 -1.0393
  120OSM    C1212559   6.583   0.631   0.741  0.4214 -0.1973  0.2856
  120OSM   H12A12560   6.664   0.561   0.725 -0.2002 -0.6368 -1.0463
  120OSM   H12B12561   6.618   0.695   0.820  0.3960  0.2661 -0.0755
  120OSM    C1112562   6.584   0.701   0.606 -0.1787  0.4202  0.1333
  120OSM   H11A12563   6.504   0.778   0.614 -0.6614 -0.1202  0.6449
  120OSM   H11B12564   6.570   0.627   0.524  2.2452  1.2967 -1.1590
  120OSM      P12565   6.735   0.909   0.549  0.0523 -0.0235 -0.2893
  120OSM    O1312566   6.664   0.988   0.650 -0.6332  0.3815  0.4138
  120OSM    O1412567   6.882   0.935   0.530 -0.2069  0.0475  0.3230
  120OSM    O1112568   6.649   0.923   0.424 -0.2991  0.6897 -0.1722
  120OSM    O1212569   6.708   0.764   0.591 -0.2877  0.0595 -0.0908
  120OSM    C1S12570   6.663   0.842   0.309  0.0149 -0.5751 -0.3910
  120OSM    H1S12571   6.691   0.736   0.326  3.2360 -0.0508 -1.6485
  120OSM    H1T12572   6.755   0.867   0.251  1.0275 -3.2293 -0.1014
  120OSM     NF12573   6.570   0.756   0.101  0.7785 -0.5908 -0.3903
  120OSM    HNF12574   6.628   0.791   0.028 -2.9825  0.9799 -2.9825
  120OSM    C2S12575   6.540   0.849   0.211 -0.4061 -0.8389  0.1468
  120OSM    H2S12576   6.452   0.813   0.270 -2.0752  3.2785  0.5369
  120OSM    C3S12577   6.507   0.992   0.175 -0.0617  0.3585  0.0111
  120OSM    H3S12578   6.598   1.037   0.130  0.3712  2.0581  2.3794
  120OSM     O312579   6.487   1.075   0.295 -0.8950  0.0247  0.0387
  120OSM    HO312580   6.560   1.042   0.348  0.1664  0.5199 -1.0776
  120OSM    C4S12581   6.401   1.007   0.075  0.3084 -0.2199  0.2373
  120OSM    H4S12582   6.441   0.990  -0.026 -1.2086  0.9203 -0.6094
  120OSM    C5S12583   6.287   1.073   0.075 -0.2358 -0.0490  0.2317
  120OSM    H5S12584   6.257   1.116   0.171 -2.0312  1.1419 -0.8161
  120OSM    C6S12585   6.207   1.111  -0.046  0.3023 -0.1831 -0.4896
  120OSM    H6S12586   6.160   1.212  -0.043 -0.2087 -0.4016 -0.8949
  120OSM    H6T12587   6.113   1.053  -0.037 -0.2758  0.8784  0.5511
  120OSM    C7S12588   6.266   1.088  -0.182 -0.2900  0.3977  0.0746
  120OSM    H7S12589   6.293   0.982  -0.200 -0.3609  0.2757  0.6641
  120OSM    H7T12590   6.361   1.145  -0.178 -0.4235  0.6005  0.4088
  120OSM    C8S12591   6.177   1.140  -0.302  0.1682 -0.1763  0.7042
  120OSM    H8S12592   6.164   1.250  -0.303  1.2401 -0.0275  1.7349
  120OSM    H8T12593   6.072   1.104  -0.286  0.1318 -1.0931 -1.2952
  120OSM    C9S12594   6.216   1.093  -0.445 -0.5373 -0.4598  0.1613
  120OSM    H9S12595   6.219   0.982  -0.435  1.2657 -0.4203  0.2796
  120OSM    H9T12596   6.316   1.140  -0.456 -1.2104  0.6873 -1.4188
  120OSM   C10S12597   6.112   1.131  -0.548 -0.0936 -0.2988  0.1852
  120OSM   H10S12598   6.096   1.240  -0.541  1.6978  0.3549 -3.2837
  120OSM   H10T12599   6.016   1.076  -0.544  1.9306 -4.2670  0.1021
  120OSM   C11S12600   6.179   1.103  -0.685 -0.2437  0.4839 -0.2294
  120OSM   H11S12601   6.193   0.994  -0.699 -1.1876  0.1251  1.3561
  120OSM   H11T12602   6.273   1.162  -0.692  0.3108 -0.5710 -2.6344
  120OSM   C12S12603   6.080   1.141  -0.796  0.2148  0.0322  0.8883
  120OSM   H12S12604   6.068   1.251  -0.810 -0.2369 -0.2487 -1.1137
  120OSM   H12T12605   5.982   1.092  -0.776  0.2049 -0.8625 -1.1586
  120OSM   C13S12606   6.129   1.093  -0.930  0.3691  0.0812  1.1333
  120OSM   H13S12607   6.106   0.984  -0.936 -0.2214  0.0460  3.3629
  120OSM   H13T12608   6.240   1.098  -0.934  0.3306  1.3906  1.3757
  120OSM   C14S12609   6.061   1.167  -1.044 -0.2389  0.5523 -0.3961
  120OSM   H14S12610   6.089   1.274  -1.058  0.8591  0.8255  3.0327
  120OSM   H14T12611   5.951   1.167  -1.030 -0.4761 -1.0239 -1.9141
  120OSM   C15S12612   6.093   1.088  -1.184 -0.5920 -1.0586 -0.4959
  120OSM   H15S12613   6.053   0.986  -1.165 -0.1259 -0.9875  0.9597
  120OSM   H15T12614   6.203   1.093  -1.200 -0.5559  0.2871  0.0196
  120OSM   C16S12615   6.025   1.148  -1.312 -0.0259 -0.2197 -0.9467
  120OSM   H16S12616   5.915   1.140  -1.323  0.2772 -3.6700 -3.3030
  120OSM   H16T12617   6.061   1.089  -1.399  0.8075 -0.3624 -0.5196
  120OSM   C17S12618   6.073   1.293  -1.337  0.5464  0.2874 -0.0657
  120OSM   H17S12619   6.046   1.368  -1.259 -1.6299  1.0706 -1.4808
  120OSM   H17T12620   6.028   1.326  -1.434 -0.0593  1.2026  0.5092
  120OSM   C18S12621   6.225   1.292  -1.359 -0.0721  0.2677 -0.4463
  120OSM   H18S12622   6.257   1.377  -1.423  1.0636 -1.4370 -2.2484
  120OSM   H18T12623   6.256   1.195  -1.401  0.4423 -0.1316  0.7890
  120OSM   H18U12624   6.277   1.298  -1.261 -1.4658  1.1463  0.2728
  120OSM    C1F12625   6.570   0.626   0.125 -0.4586  0.1986  0.4812
  120OSM     OF12626   6.538   0.588   0.236  0.3459  0.3796  0.6974
  120OSM    C2F12627   6.635   0.539   0.023 -0.3822  0.1676  0.5321
  120OSM    H2F12628   6.676   0.453   0.080 -0.6770 -0.8248 -0.7034
  120OSM    H2G12629   6.715   0.591  -0.033  1.0238 -2.2516  0.1564
  120OSM    C3F12630   6.534   0.510  -0.090  0.2202 -0.1033  0.1108
  120OSM    H3F12631   6.490   0.599  -0.139  1.9188 -0.0369 -1.4063
  120OSM    H3G12632   6.454   0.457  -0.035  0.8531 -1.2705 -0.0423
  120OSM    C4F12633   6.583   0.416  -0.192 -0.1220  0.4099  1.6384
  120OSM    H4F12634   6.667   0.352  -0.155  0.1518  0.8659  1.8088
  120OSM    H4G12635   6.625   0.465  -0.282 -1.8027 -1.9130 -0.5388
  120OSM    C5F12636   6.469   0.325  -0.246 -0.8104 -0.4107  0.0736
  120OSM    H5F12637   6.372   0.334  -0.193 -1.3801  1.7572 -1.2387
  120OSM    H5G12638   6.504   0.219  -0.237  1.3811  0.2711  0.2911
  120OSM    C6F12639   6.445   0.354  -0.400  0.0134 -0.0097 -0.3089
  120OSM    H6F12640   6.536   0.312  -0.448  0.4408 -0.7843  1.1326
  120OSM    H6G12641   6.463   0.462  -0.422  3.1262 -0.3338  0.3007
  120OSM    C7F12642   6.310   0.289  -0.445 -0.0655  0.4000  0.4070
  120OSM    H7F12643   6.221   0.325  -0.389 -1.9731 -2.1567 -0.7688
  120OSM    H7G12644   6.314   0.184  -0.409 -0.4356  0.6196  1.1257
  120OSM    C8F12645   6.282   0.303  -0.595 -0.3123  0.6296  0.6164
  120OSM    H8F12646   6.285   0.411  -0.623 -1.5576  0.7278  0.7968
  120OSM    H8G12647   6.179   0.272  -0.624 -1.0244  2.8035  0.6027
  120OSM    C9F12648   6.385   0.231  -0.683  0.5852  0.3725 -0.1457
  120OSM    H9F12649   6.489   0.260  -0.663 -0.2052  2.0521  1.9698
  120OSM   C10F12650   6.363   0.116  -0.758  0.1997 -0.0459 -0.2117
  120OSM   H10F12651   6.448   0.081  -0.819  0.0240  1.1492 -1.1918
  120OSM   C11F12652   6.221   0.059  -0.794 -0.4006 -0.2577  0.0921
  120OSM   H11F12653   6.136   0.097  -0.734 -0.0161  0.1565  0.3837
  120OSM   H11G12654   6.225  -0.052  -0.800  0.2668 -0.2024 -0.7823
  120OSM   C12F12655   6.180   0.094  -0.944 -0.1262 -0.3544  0.3027
  120OSM   H12F12656   6.178   0.205  -0.948 -0.3095 -0.3927 -1.5032
  120OSM   H12G12657   6.077   0.060  -0.967  0.3490 -0.7673 -1.3037
  120OSM   C13F12658   6.276   0.047  -1.050 -0.9168  0.5570  0.7214
  120OSM   H13F12659   6.309  -0.054  -1.018  0.1679 -0.4687 -3.1433
  120OSM   H13G12660   6.362   0.113  -1.073  0.1053 -0.4328  1.6166
  120OSM   C14F12661   6.206   0.015  -1.178 -0.1659 -0.0005  0.4261
  120OSM   H14F12662   6.110  -0.039  -1.167  1.3283 -2.8137  0.4983
  120OSM   H14G12663   6.272  -0.050  -1.239 -1.6105 -0.6503 -0.4808
  120OSM   C15F12664   6.155   0.135  -1.254 -0.2161  0.6735 -0.0164
  120OSM   H15F12665   6.065   0.175  -1.201 -0.5395  1.0559 -0.8417
  120OSM   H15G12666   6.120   0.102  -1.354 -1.4576  1.6223  0.0857
  120OSM   C16F12667   6.265   0.237  -1.284 -0.4472 -0.3613 -0.4887
  120OSM   H16F12668   6.349   0.201  -1.348 -0.0597  1.2556 -0.9453
  120OSM   H16G12669   6.307   0.290  -1.197  0.0193 -1.3828 -0.0709
  120OSM   C17F12670   6.217   0.355  -1.374 -0.3989  0.3006  0.5182
  120OSM   H17F12671   6.305   0.422  -1.364  0.3661 -0.7142  0.6848
  120OSM   H17G12672   6.127   0.401  -1.328 -0.5934 -0.4091  0.8679
  120OSM   C18F12673   6.196   0.317  -1.519 -0.5514 -0.0007  0.0904
  120OSM   H18F12674   6.158   0.402  -1.579 -1.7051  0.2702  1.1473
  120OSM   H18G12675   6.122   0.234  -1.520 -1.9745  1.2219  0.6038
  120OSM   H18H12676   6.287   0.295  -1.579 -1.0308  3.2682 -2.0865
  121OSM      N12677   0.214   4.865   0.534  1.1698 -0.1933  0.5267
  121OSM    C1512678   0.257   5.001   0.564  0.2598 -0.4569 -0.4922
  121OSM   H15A12679   0.324   5.006   0.648 -0.1415  0.1681 -0.1969
  121OSM   H15B12680   0.175   5.071   0.576  1.9871  1.7653 -1.0527
  121OSM   H15C12681   0.308   5.056   0.487 -0.0245  0.7663  0.1542
  121OSM    C1412682   0.135   4.804   0.653  0.2290  0.0563 -0.2122
  121OSM   H14A12683   0.043   4.860   0.666  1.2061  1.4103  1.2636
  121OSM   H14B12684   0.192   4.812   0.745  0.6417  3.2519 -0.6309
  121OSM   H14C12685   0.108   4.702   0.632 -1.7116  0.2620  0.9844
  121OSM    C1312686   0.130   4.873   0.417  0.6805  0.4693  0.7572
  121OSM   H13A12687   0.035   4.918   0.441  0.8985  1.0511  0.5340
  121OSM   H13B12688   0.102   4.774   0.382 -0.5380  1.1135 -0.1772
  121OSM   H13C12689   0.185   4.930   0.344 -2.0167  2.3455  0.0568
  121OSM    C1212690   0.343   4.793   0.492  0.3511 -0.1332  0.0865
  121OSM   H12A12691   0.412   4.814   0.572  1.5133 -1.1077 -0.6333
  121OSM   H12B12692   0.379   4.840   0.402 -3.4405 -0.4684 -1.7940
  121OSM    C1112693   0.322   4.643   0.468 -0.3437 -0.0375  0.7788
  121OSM   H11A12694   0.244   4.624   0.391  1.2417  1.7068 -1.3851
  121OSM   H11B12695   0.276   4.598   0.558 -0.1808 -1.7043  0.0732
  121OSM      P12696   0.514   4.581   0.291 -0.0750  0.4169  0.3457
  121OSM    O1312697   0.538   4.725   0.261  0.1548  0.0270 -0.4346
  121OSM    O1412698   0.631   4.487   0.295 -0.2702 -0.6581  0.0874
  121OSM    O1112699   0.406   4.517   0.185 -0.2925 -0.2911 -0.2554
  121OSM    O1212700   0.440   4.568   0.437 -0.0094 -0.6780 -0.2295
  121OSM    C1S12701   0.461   4.415   0.097  0.2867 -0.3925 -0.0540
  121OSM    H1S12702   0.480   4.322   0.155  0.4218 -1.3745 -1.6175
  121OSM    H1T12703   0.552   4.448   0.044  0.7220 -1.0468  0.2715
  121OSM     NF12704   0.419   4.289  -0.114  0.3062 -0.4777  0.0435
  121OSM    HNF12705   0.451   4.343  -0.192 -0.0014 -2.6714 -1.6977
  121OSM    C2S12706   0.360   4.374  -0.012  0.2491 -0.2776  0.1125
  121OSM    H2S12707   0.282   4.303   0.024  1.0562 -2.1997 -1.6793
  121OSM    C3S12708   0.275   4.485  -0.078  0.0108 -0.8005 -0.5275
  121OSM    H3S12709   0.333   4.559  -0.137 -1.5880  0.2841 -0.8051
  121OSM     O312710   0.198   4.552   0.024 -0.2166 -0.2856 -0.1532
  121OSM    HO312711   0.254   4.529   0.099 -1.4784 -0.9606  0.6151
  121OSM    C4S12712   0.163   4.432  -0.168  1.5945 -0.2923 -0.3028
  121OSM    H4S12713   0.086   4.372  -0.117  1.4365  0.0747 -0.1061
  121OSM    C5S12714   0.161   4.442  -0.300 -0.0989  0.0865 -0.2434
  121OSM    H5S12715   0.246   4.484  -0.355 -1.8974  1.4792 -2.0837
  121OSM    C6S12716   0.057   4.372  -0.379  0.1214  0.0809  0.4360
  121OSM    H6S12717   0.011   4.292  -0.317 -0.1877 -0.6604 -0.7177
  121OSM    H6T12718   0.106   4.312  -0.459 -1.5918 -0.0841 -0.5477
  121OSM    C7S12719  -0.038   4.481  -0.437 -0.0044  0.4558  0.1031
  121OSM    H7S12720  -0.067   4.560  -0.364 -1.7291 -0.0792  0.0467
  121OSM    H7T12721  -0.136   4.433  -0.454  0.2136 -0.9195  2.3518
  121OSM    C8S12722   0.023   4.544  -0.568  0.1785  0.3278 -0.1974
  121OSM    H8S12723   0.132   4.565  -0.560  0.9146 -3.3450  1.6799
  121OSM    H8T12724  -0.031   4.639  -0.586  0.9763  0.7443 -0.4341
  121OSM    C9S12725  -0.016   4.460  -0.690 -0.1585 -0.3775  0.4993
  121OSM    H9S12726  -0.125   4.442  -0.681 -0.9537  4.0201  2.5135
  121OSM    H9T12727   0.042   4.366  -0.695 -0.5506 -0.6022  0.1179
  121OSM   C10S12728   0.020   4.535  -0.824 -0.2259  0.0127  0.5900
  121OSM   H10S12729   0.123   4.574  -0.821 -0.4604  0.5705  2.5331
  121OSM   H10T12730  -0.051   4.621  -0.826 -0.4046 -0.1044  1.5304
  121OSM   C11S12731  -0.001   4.455  -0.956  0.3312 -0.5593 -0.2418
  121OSM   H11S12732  -0.102   4.408  -0.961 -0.5957  1.4383 -1.6895
  121OSM   H11T12733   0.080   4.378  -0.951 -0.8843 -1.8950 -0.3853
  121OSM   C12S12734   0.015   4.542  -1.086 -0.3585  0.3079 -0.0622
  121OSM   H12S12735   0.104   4.601  -1.057 -0.7590  1.3817 -0.9172
  121OSM   H12T12736  -0.061   4.624  -1.087 -0.3202  0.3388 -1.4966
  121OSM   C13S12737   0.018   4.474  -1.223 -0.4813  0.1074  0.4177
  121OSM   H13S12738  -0.075   4.419  -1.249 -0.8139  1.3949 -1.2411
  121OSM   H13T12739   0.094   4.393  -1.214  1.4629  1.8952  0.8204
  121OSM   C14S12740   0.066   4.569  -1.336 -1.0453  0.0860  0.7671
  121OSM   H14S12741   0.003   4.660  -1.346 -0.5025  0.2788 -1.2088
  121OSM   H14T12742   0.081   4.516  -1.432 -0.6207  0.6338  0.5254
  121OSM   C15S12743   0.212   4.620  -1.307 -0.1074  0.5371  0.2462
  121OSM   H15S12744   0.264   4.543  -1.247  1.7213  1.3877 -0.1903
  121OSM   H15T12745   0.189   4.714  -1.251 -3.2046 -0.0781  0.1847
  121OSM   C16S12746   0.296   4.658  -1.427  0.4872 -1.0152 -0.3190
  121OSM   H16S12747   0.390   4.702  -1.389  0.3521 -1.1304  0.1569
  121OSM   H16T12748   0.253   4.732  -1.498 -1.6959  0.9032  2.7706
  121OSM   C17S12749   0.349   4.530  -1.507 -0.3177  0.3120 -0.0764
  121OSM   H17S12750   0.256   4.483  -1.544  0.3273  0.3652 -1.8638
  121OSM   H17T12751   0.395   4.458  -1.435  3.2565  2.0849 -0.3529
  121OSM   C18S12752   0.458   4.558  -1.615 -0.0215  0.0481 -0.6751
  121OSM   H18S12753   0.487   4.461  -1.660  0.0577 -0.7798  1.0870
  121OSM   H18T12754   0.540   4.610  -1.560 -0.7884  0.5903 -0.0119
  121OSM   H18U12755   0.419   4.620  -1.698 -0.2208  0.1400 -0.5144
  121OSM    C1F12756   0.456   4.161  -0.109 -0.1761  0.0811  0.4661
  121OSM     OF12757   0.400   4.091  -0.025  0.1527  0.0347  0.4801
  121OSM    C2F12758   0.552   4.118  -0.218 -0.1671  0.1040  0.2172
  121OSM    H2F12759   0.655   4.139  -0.182 -0.1594 -2.0029  1.6168
  121OSM    H2G12760   0.537   4.172  -0.314 -0.2702  0.6295  0.5265
  121OSM    C3F12761   0.557   3.968  -0.242 -0.6155  0.1781  0.5058
  121OSM    H3F12762   0.466   3.943  -0.300 -0.0948 -0.7002  0.0522
  121OSM    H3G12763   0.552   3.914  -0.145  1.0441  2.1080  1.7441
  121OSM    C4F12764   0.690   3.925  -0.316  0.1681 -0.2833  1.0252
  121OSM    H4F12765   0.689   3.815  -0.329  1.3137 -0.2495  0.4904
  121OSM    H4G12766   0.778   3.962  -0.259  1.4584  2.9444 -2.6107
  121OSM    C5F12767   0.705   3.983  -0.454 -0.5657  0.2895 -1.0409
  121OSM    H5F12768   0.809   3.958  -0.487 -1.0603  1.6345 -3.9279
  121OSM    H5G12769   0.705   4.093  -0.438 -1.1304  0.0837  0.5890
  121OSM    C6F12770   0.599   3.947  -0.557  1.1707  0.0663 -0.0290
  121OSM    H6F12771   0.493   3.960  -0.527  0.9343  0.4347 -0.9722
  121OSM    H6G12772   0.612   3.843  -0.592  1.2045  0.7729 -2.2853
  121OSM    C7F12773   0.606   4.040  -0.681  0.6566  0.1625  0.2040
  121OSM    H7F12774   0.710   4.075  -0.702  0.7520 -0.1474  0.1597
  121OSM    H7G12775   0.545   4.130  -0.656 -0.9792 -1.0356  0.6805
  121OSM    C8F12776   0.563   3.965  -0.808  0.1166  0.9486 -0.4347
  121OSM    H8F12777   0.499   3.880  -0.777 -0.3659  0.9032 -1.4916
  121OSM    H8G12778   0.653   3.915  -0.850  1.9832  1.9972  2.0416
  121OSM    C9F12779   0.494   4.061  -0.907 -0.1602 -0.1328 -0.1952
  121OSM    H9F12780   0.506   4.169  -0.887 -1.2922 -0.0216 -0.0411
  121OSM   C10F12781   0.416   4.026  -1.013  0.9762 -0.4143 -0.8636
  121OSM   H10F12782   0.377   4.114  -1.067  1.0356  0.0715 -0.1390
  121OSM   C11F12783   0.383   3.901  -1.069  0.0077  0.4627 -0.3357
  121OSM   H11F12784   0.283   3.857  -1.046  1.2532 -2.1939  0.4304
  121OSM   H11G12785   0.458   3.831  -1.026  1.1207  1.1717 -1.0689
  121OSM   C12F12786   0.397   3.884  -1.222  0.2433 -0.3862  0.3924
  121OSM   H12F12787   0.384   3.777  -1.248  2.3020 -0.3627 -0.9760
  121OSM   H12G12788   0.497   3.906  -1.265  0.4004  0.2342  1.0532
  121OSM   C13F12789   0.291   3.968  -1.301  0.4976 -0.0486  1.1587
  121OSM   H13F12790   0.302   4.075  -1.273 -3.2000  0.9156 -0.4105
  121OSM   H13G12791   0.183   3.956  -1.274 -0.3239  1.3588 -1.1464
  121OSM   C14F12792   0.289   3.960  -1.455 -0.6082  0.3006 -0.5870
  121OSM   H14F12793   0.197   4.000  -1.503 -1.2997 -0.3520  0.1770
  121OSM   H14G12794   0.293   3.854  -1.487 -0.4964  0.2330 -0.3527
  121OSM   C15F12795   0.404   4.039  -1.531  0.4821  1.1151  0.2291
  121OSM   H15F12796   0.499   4.020  -1.475 -0.3016 -1.2019  0.9183
  121OSM   H15G12797   0.380   4.146  -1.515 -0.2465  1.3602 -2.1811
  121OSM   C16F12798   0.421   3.984  -1.680 -0.5507 -0.3097  0.0751
  121OSM   H16F12799   0.321   3.991  -1.728  0.3018  0.7689 -1.6449
  121OSM   H16G12800   0.467   3.884  -1.667 -1.5267 -0.5764  1.8680
  121OSM   C17F12801   0.517   4.068  -1.762  0.6138  0.2670  0.2709
  121OSM   H17F12802   0.590   4.105  -1.686  1.1999 -0.1247 -0.0902
  121OSM   H17G12803   0.458   4.149  -1.809  1.0220  0.9386  0.8847
  121OSM   C18F12804   0.605   3.992  -1.862 -0.0887 -0.0579 -0.0163
  121OSM   H18F12805   0.669   3.916  -1.812 -2.0602 -2.5482 -1.0474
  121OSM   H18G12806   0.672   4.067  -1.911 -0.2479 -0.1798 -0.4212
  121OSM   H18H12807   0.532   3.952  -1.935  0.2092  2.4186 -1.8168
  122OSM      N12808   0.426   5.472   1.094 -0.2229 -0.3054  0.5296
  122OSM    C1512809   0.451   5.620   1.099  0.4605 -0.5217 -0.7164
  122OSM   H15A12810   0.532   5.636   1.168 -1.0296  0.0212  0.9660
  122OSM   H15B12811   0.360   5.663   1.139 -0.1054 -1.2914 -1.1328
  122OSM   H15C12812   0.484   5.652   1.001  0.0551  1.1195 -0.3388
  122OSM    C1412813   0.556   5.403   1.047 -0.5045 -0.1772 -0.2140
  122OSM   H14A12814   0.623   5.427   1.128 -2.6786  0.0653  1.6195
  122OSM   H14B12815   0.591   5.447   0.954  0.4126 -0.0218  0.1961
  122OSM   H14C12816   0.535   5.298   1.032  1.8053 -0.5544 -1.2997
  122OSM    C1312817   0.390   5.420   1.231 -0.1211 -0.2328  0.1254
  122OSM   H13A12818   0.472   5.437   1.299 -1.4282 -0.4886  1.8405
  122OSM   H13B12819   0.370   5.314   1.232 -1.8714  0.0536  1.7825
  122OSM   H13C12820   0.298   5.468   1.263  0.2357 -0.0683  0.9489
  122OSM    C1212821   0.311   5.442   0.997 -0.5487  0.1114 -0.0981
  122OSM   H12A12822   0.223   5.494   1.032 -1.8901 -0.9765 -1.6679
  122OSM   H12B12823   0.284   5.338   1.009 -1.9602  0.3207 -1.2113
  122OSM    C1112824   0.324   5.485   0.851 -0.0451 -0.0265  0.1954
  122OSM   H11A12825   0.248   5.424   0.798  0.7810 -1.4264  0.5809
  122OSM   H11B12826   0.419   5.447   0.807 -0.0030  0.2430  0.0463
  122OSM      P12827   0.311   5.706   0.701  0.2597  0.4305 -0.1474
  122OSM    O1312828   0.171   5.694   0.651  0.5234  0.5838 -0.3344
  122OSM    O1412829   0.369   5.844   0.726 -0.1099 -0.4021  0.1885
  122OSM    O1112830   0.422   5.628   0.619  0.1913 -0.0599  0.2401
  122OSM    O1212831   0.315   5.624   0.837  0.1846 -0.2302  0.0363
  122OSM    C1S12832   0.395   5.511   0.541  0.2278  0.1805 -0.2613
  122OSM    H1S12833   0.301   5.458   0.569 -0.2211  0.0381 -1.9430
  122OSM    H1T12834   0.480   5.442   0.560  1.8818  2.1765 -0.0104
  122OSM     NF12835   0.339   5.424   0.327 -0.0524 -0.2825  0.4274
  122OSM    HNF12836   0.412   5.358   0.309  0.3788  0.3866 -0.3366
  122OSM    C2S12837   0.394   5.547   0.390 -0.7332 -0.1680 -0.3095
  122OSM    H2S12838   0.311   5.616   0.366 -0.5940  0.5631  1.1862
  122OSM    C3S12839   0.530   5.607   0.337 -0.1965  0.3314 -1.2107
  122OSM    H3S12840   0.601   5.522   0.345 -1.6544 -0.7732  0.9052
  122OSM     O312841   0.587   5.710   0.417 -0.2524 -0.3202  0.2383
  122OSM    HO312842   0.537   5.693   0.497  1.4870 -0.4805  1.3414
  122OSM    C4S12843   0.508   5.660   0.200 -0.6387  0.2190  0.0114
  122OSM    H4S12844   0.501   5.581   0.124 -1.9595  1.2669 -1.0014
  122OSM    C5S12845   0.467   5.792   0.164 -0.1453 -0.1706 -0.5625
  122OSM    H5S12846   0.460   5.863   0.248 -2.4495 -1.3886  0.3770
  122OSM    C6S12847   0.443   5.854   0.026  0.2235  0.1677  0.1479
  122OSM    H6S12848   0.460   5.963   0.031 -0.7416  0.3995 -1.0462
  122OSM    H6T12849   0.334   5.834   0.015  0.1863  0.3835  0.1209
  122OSM    C7S12850   0.509   5.796  -0.108 -0.3873 -0.0295  0.3092
  122OSM    H7S12851   0.620   5.792  -0.107 -0.3331  1.2561  0.9451
  122OSM    H7T12852   0.483   5.879  -0.177  0.2435 -0.4490 -0.4605
  122OSM    C8S12853   0.438   5.659  -0.149  0.2999  0.3308 -0.2652
  122OSM    H8S12854   0.330   5.675  -0.134  0.4512  0.8055  0.3480
  122OSM    H8T12855   0.455   5.579  -0.074 -0.1625 -0.3104 -0.8264
  122OSM    C9S12856   0.491   5.610  -0.284  0.2365  0.1089  1.0426
  122OSM    H9S12857   0.452   5.506  -0.296 -2.2430  1.0686  0.0377
  122OSM    H9T12858   0.601   5.603  -0.287  0.1331 -1.8494  0.2837
  122OSM   C10S12859   0.429   5.679  -0.407  1.2211  1.2259 -0.4075
  122OSM   H10S12860   0.448   5.789  -0.408  1.3722  1.2147  0.4790
  122OSM   H10T12861   0.320   5.671  -0.387  1.5351  0.9501  1.4036
  122OSM   C11S12862   0.469   5.612  -0.530  0.8340 -0.2061 -0.5773
  122OSM   H11S12863   0.441   5.505  -0.535 -0.4253  0.1481 -3.6300
  122OSM   H11T12864   0.579   5.619  -0.534  0.9595 -0.0237  1.6846
  122OSM   C12S12865   0.414   5.680  -0.652 -0.6379  0.2046 -0.4806
  122OSM   H12S12866   0.437   5.789  -0.644 -0.8003  0.1749  0.5292
  122OSM   H12T12867   0.303   5.674  -0.641 -0.6639  2.0554  0.7358
  122OSM   C13S12868   0.447   5.609  -0.779  0.1069 -0.0516 -0.0618
  122OSM   H13S12869   0.422   5.501  -0.774  0.8647 -0.3224 -1.4815
  122OSM   H13T12870   0.557   5.618  -0.795  0.2721 -1.3296  0.2312
  122OSM   C14S12871   0.372   5.668  -0.903  0.2403 -0.0572  0.1975
  122OSM   H14S12872   0.405   5.774  -0.913 -1.5723  0.4868 -0.4112
  122OSM   H14T12873   0.262   5.666  -0.886 -0.2121 -1.1052 -2.4170
  122OSM   C15S12874   0.382   5.594  -1.039 -0.7158 -0.6922  0.0333
  122OSM   H15S12875   0.369   5.484  -1.034 -0.0231 -0.9195 -2.1430
  122OSM   H15T12876   0.485   5.616  -1.074 -0.9506 -1.8296 -1.4413
  122OSM   C16S12877   0.284   5.654  -1.146  0.3681  0.3916 -0.6112
  122OSM   H16S12878   0.315   5.758  -1.170  0.9474  0.7532  1.4675
  122OSM   H16T12879   0.185   5.671  -1.100 -1.0352 -0.1632 -3.2627
  122OSM   C17S12880   0.279   5.562  -1.266 -0.6463  0.9670 -0.1271
  122OSM   H17S12881   0.194   5.586  -1.334  0.0061  3.3264 -0.1822
  122OSM   H17T12882   0.255   5.455  -1.248 -0.2005  0.9752  0.5249
  122OSM   C18S12883   0.411   5.567  -1.352  0.4042  0.0052  0.1066
  122OSM   H18S12884   0.437   5.674  -1.359 -1.1379  0.5484  1.9331
  122OSM   H18T12885   0.404   5.526  -1.455 -2.2360  0.1064  0.1989
  122OSM   H18U12886   0.489   5.514  -1.293  1.8245  0.1501 -1.5392
  122OSM    C1F12887   0.218   5.384   0.320 -0.1652  0.0348  0.7249
  122OSM     OF12888   0.126   5.442   0.369 -0.2501 -0.3883 -0.4679
  122OSM    C2F12889   0.191   5.246   0.264 -0.3918 -0.1387  0.3656
  122OSM    H2F12890   0.148   5.178   0.340 -0.7148  0.3387  0.6175
  122OSM    H2G12891   0.285   5.207   0.220 -1.8989 -3.6729  0.0053
  122OSM    C3F12892   0.099   5.251   0.143  0.3829 -0.3427  0.6160
  122OSM    H3F12893  -0.007   5.276   0.163 -1.2167 -2.6331 -3.7311
  122OSM    H3G12894   0.090   5.145   0.112  0.4564  0.8782 -4.3968
  122OSM    C4F12895   0.148   5.342   0.025  0.3543  0.0185 -0.2950
  122OSM    H4F12896   0.243   5.301  -0.015  2.1429  1.5639  2.0815
  122OSM    H4G12897   0.174   5.436   0.078 -1.1126 -1.2221  2.9233
  122OSM    C5F12898   0.039   5.375  -0.079  0.6331  0.5244  1.1914
  122OSM    H5F12899  -0.017   5.460  -0.034  2.0252  3.1875 -1.6935
  122OSM    H5G12900  -0.029   5.290  -0.099  1.0110  0.2046  1.2587
  122OSM    C6F12901   0.093   5.437  -0.209  0.7073 -0.7327 -0.0834
  122OSM    H6F12902   0.157   5.355  -0.249  0.4845 -2.0769  2.1587
  122OSM    H6G12903   0.154   5.529  -0.198 -0.0866 -0.0650 -1.0652
  122OSM    C7F12904  -0.008   5.468  -0.318  0.4878 -0.0406 -1.1566
  122OSM    H7F12905  -0.080   5.541  -0.276  2.1108  0.7848  0.3308
  122OSM    H7G12906  -0.070   5.377  -0.332 -1.0323  0.6460  0.7487
  122OSM    C8F12907   0.057   5.523  -0.443 -0.1235 -0.3925 -0.3769
  122OSM    H8F12908   0.128   5.603  -0.414  0.0510 -0.8457  0.4627
  122OSM    H8G12909  -0.017   5.567  -0.513 -0.6974 -2.8348 -1.4065
  122OSM    C9F12910   0.124   5.421  -0.533 -0.1257 -0.4088 -0.7204
  122OSM    H9F12911   0.177   5.346  -0.471  2.4745  1.6896 -0.2662
  122OSM   C10F12912   0.117   5.403  -0.669 -0.0103  0.0487 -0.4390
  122OSM   H10F12913   0.181   5.329  -0.719  0.3785  0.6318 -0.8170
  122OSM   C11F12914   0.052   5.501  -0.760 -0.6468  0.3610  0.0334
  122OSM   H11F12915   0.115   5.520  -0.850 -1.5358  0.6501 -0.5415
  122OSM   H11G12916   0.054   5.607  -0.726 -0.1729 -0.1089  1.5689
  122OSM   C12F12917  -0.100   5.458  -0.779  0.3792  0.9641 -0.3087
  122OSM   H12F12918  -0.146   5.473  -0.679 -1.4047  0.8923 -1.0876
  122OSM   H12G12919  -0.098   5.350  -0.804  0.7469  0.6220  1.1219
  122OSM   C13F12920  -0.188   5.542  -0.874 -0.2019  0.3157  0.2211
  122OSM   H13F12921  -0.177   5.648  -0.842  0.2996  0.3250  0.0146
  122OSM   H13G12922  -0.295   5.512  -0.866 -0.5304  1.5583  0.7810
  122OSM   C14F12923  -0.136   5.523  -1.012 -0.2112 -0.2540  0.0290
  122OSM   H14F12924  -0.131   5.414  -1.031 -0.0778 -0.1431 -0.5946
  122OSM   H14G12925  -0.032   5.562  -1.021 -0.4908  0.2110 -1.4112
  122OSM   C15F12926  -0.220   5.598  -1.116 -0.2728  0.1673  0.2454
  122OSM   H15F12927  -0.224   5.704  -1.085 -0.0156  0.5183 -0.8666
  122OSM   H15G12928  -0.321   5.552  -1.116 -0.3865  0.3892 -0.6503
  122OSM   C16F12929  -0.153   5.596  -1.256  0.1311 -0.2505 -0.6168
  122OSM   H16F12930  -0.144   5.489  -1.288 -2.6195 -0.1199 -2.0377
  122OSM   H16G12931  -0.054   5.645  -1.264 -0.4334  0.9680 -0.2512
  122OSM   C17F12932  -0.232   5.672  -1.363  0.0177  0.5159  0.6680
  122OSM   H17F12933  -0.246   5.780  -1.342 -0.1334  0.8411 -0.9149
  122OSM   H17G12934  -0.333   5.627  -1.354 -0.5127  1.7362  1.0004
  122OSM   C18F12935  -0.165   5.642  -1.500  0.5667 -0.1028  0.0681
  122OSM   H18F12936  -0.197   5.544  -1.542 -2.4918  2.0333 -3.2683
  122OSM   H18G12937  -0.055   5.652  -1.503  0.6271 -0.8255 -0.5726
  122OSM   H18H12938  -0.209   5.719  -1.567 -2.1750  0.6048  2.4710
  123OSM      N12939   1.358   6.383   3.978 -0.2946 -0.0919 -0.3901
  123OSM    C1512940   1.292   6.408   3.840  0.0444  0.5428  0.1970
  123OSM   H15A12941   1.258   6.314   3.801 -1.0544  0.6298  0.9030
  123OSM   H15B12942   1.358   6.450   3.766  2.3003 -0.6941  1.3795
  123OSM   H15C12943   1.208   6.473   3.858  0.5328  0.8046  1.7001
  123OSM    C1412944   1.474   6.296   3.954  0.4118  0.1013  0.2870
  123OSM   H14A12945   1.534   6.280   4.042  1.7896 -0.2795 -0.6861
  123OSM   H14B12946   1.538   6.332   3.875  0.0287 -0.0442 -0.0953
  123OSM   H14C12947   1.445   6.205   3.903  0.0331 -0.1896  1.0162
  123OSM    C1312948   1.416   6.515   4.024 -0.2844 -0.0715  0.2696
  123OSM   H13A12949   1.444   6.497   4.127 -1.2239  0.8622  0.7099
  123OSM   H13B12950   1.336   6.588   4.025 -1.2496 -1.1053  1.3281
  123OSM   H13C12951   1.506   6.539   3.970  0.0769 -1.6520  0.1214
  123OSM    C1212952   1.265   6.321   4.079  0.1871  0.5835 -0.3141
  123OSM   H12A12953   1.232   6.228   4.036  0.6976 -0.0991  0.7281
  123OSM   H12B12954   1.172   6.376   4.087  0.3222  0.7207  0.4104
  123OSM    C1112955   1.319   6.286   4.226  0.3083 -0.1057 -0.0447
  123OSM   H11A12956   1.418   6.242   4.203 -0.9073 -2.2732 -1.4771
  123OSM   H11B12957   1.253   6.211   4.275 -1.5157  1.5313  0.1284
  123OSM      P12958   1.206   6.457   4.382 -0.1324  0.4324 -0.4655
  123OSM    O1312959   1.229   6.590   4.441 -0.1652  0.1890 -0.2018
  123OSM    O1412960   1.085   6.429   4.304  0.5787  0.0926 -0.3603
  123OSM    O1112961   1.206   6.354   4.492 -0.7077 -0.1159 -0.1371
  123OSM    O1212962   1.333   6.410   4.294 -0.1430  0.1065 -0.4502
  123OSM    C1S12963   1.325   6.317   4.566 -0.0712  0.0158  0.4215
  123OSM    H1S12964   1.375   6.409   4.603  0.0215 -0.4315  1.4312
  123OSM    H1T12965   1.394   6.255   4.506  0.5428  0.2587  0.8676
  123OSM     NF12966   1.394   6.227   4.787 -0.3545 -0.2702  0.0609
  123OSM    HNF12967   1.444   6.141   4.783  1.3557  0.6043  1.3629
  123OSM    C2S12968   1.291   6.233   4.689 -0.8584  0.0467  0.0631
  123OSM    H2S12969   1.208   6.286   4.741 -1.2520  1.1295 -1.5829
  123OSM    C3S12970   1.240   6.096   4.632 -0.6166  0.0074 -0.4006
  123OSM    H3S12971   1.319   6.050   4.569  0.2587 -1.7146  1.8399
  123OSM     O312972   1.128   6.105   4.548  0.2194 -0.3207  0.2228
  123OSM    HO312973   1.140   6.195   4.515  2.0956 -0.9422 -0.9406
  123OSM    C4S12974   1.207   5.995   4.738  0.6066 -0.1370  0.4632
  123OSM    H4S12975   1.139   6.039   4.813 -0.3763 -3.2294  1.5375
  123OSM    C5S12976   1.239   5.867   4.741  0.1202 -0.2755 -0.4902
  123OSM    H5S12977   1.295   5.826   4.656 -0.9646  0.1031 -1.3993
  123OSM    C6S12978   1.218   5.769   4.856 -0.6133 -0.4239  0.5214
  123OSM    H6S12979   1.302   5.696   4.859 -0.3252 -0.0833  3.1425
  123OSM    H6T12980   1.126   5.713   4.830 -1.2313  0.2410  1.2274
  123OSM    C7S12981   1.205   5.831   4.999 -0.0677  0.0308  0.3867
  123OSM    H7S12982   1.172   5.744   5.059 -2.6626  0.1541 -0.7398
  123OSM    H7T12983   1.127   5.909   4.989 -0.1922 -0.3318 -2.0529
  123OSM    C8S12984   1.343   5.881   5.049 -0.0555  0.3531  0.0019
  123OSM    H8S12985   1.385   5.945   4.969  4.6898 -1.8699  0.3624
  123OSM    H8T12986   1.416   5.797   5.057 -1.5127 -0.8503  1.5235
  123OSM    C9S12987   1.321   5.958   5.179 -0.1452  0.4088  0.0624
  123OSM    H9S12988   1.243   5.907   5.240  0.8855 -2.1837 -0.6650
  123OSM    H9T12989   1.293   6.063   5.153  2.1333  0.9463 -0.4116
  123OSM   C10S12990   1.447   5.965   5.266 -0.1701  0.5876  0.5766
  123OSM   H10S12991   1.532   6.006   5.207  1.0628 -0.0345  1.8457
  123OSM   H10T12992   1.481   5.861   5.284 -2.5947 -0.1719  1.0318
  123OSM   C11S12993   1.416   6.046   5.394 -0.1965 -0.1335  0.6668
  123OSM   H11S12994   1.320   6.003   5.429 -0.6451 -0.8017 -1.2427
  123OSM   H11T12995   1.386   6.150   5.371 -0.5062 -0.1735  0.8910
  123OSM   C12S12996   1.522   6.025   5.504  0.2069  0.2323  0.2488
  123OSM   H12S12997   1.616   6.081   5.488 -0.3747  1.8140  2.0041
  123OSM   H12T12998   1.551   5.919   5.514 -1.9304 -0.3293  1.0612
  123OSM   C13S12999   1.485   6.073   5.637  0.3813 -0.2725  0.0468
  123OSM   H13S13000   1.401   6.004   5.662  0.7331 -1.1141 -1.0159
  123OSM   H13T13001   1.429   6.168   5.620 -3.7367 -2.5216 -0.4618
  123OSM   C14S13002   1.588   6.076   5.738  0.1804  0.2497 -0.8379
  123OSM   H14S13003   1.684   6.122   5.706  0.3580  0.6152  0.1591
  123OSM   H14T13004   1.622   5.980   5.783  0.6902  1.5260  1.6934
  123OSM   C15S13005   1.544   6.170   5.852  0.4018  0.3854 -0.0099
  123OSM   H15S13006   1.436   6.150   5.867  0.4186  0.6901  0.5357
  123OSM   H15T13007   1.545   6.271   5.806 -1.1740  0.8776  0.9478
  123OSM   C16S13008   1.632   6.156   5.980 -0.5230  0.6187  0.5223
  123OSM   H16S13009   1.732   6.200   5.960 -0.8614  1.3157  0.3053
  123OSM   H16T13010   1.651   6.053   6.016 -2.0469  0.8000  1.9420
  123OSM   C17S13011   1.564   6.236   6.091 -0.0493 -0.0485  0.8494
  123OSM   H17S13012   1.620   6.228   6.186  0.0707 -0.8669  0.7171
  123OSM   H17T13013   1.465   6.188   6.105  0.6560 -0.8680  3.4261
  123OSM   C18S13014   1.525   6.385   6.056 -0.6259  0.1925 -0.1654
  123OSM   H18S13015   1.609   6.458   6.058 -1.4496  1.2071  2.8755
  123OSM   H18T13016   1.442   6.430   6.114 -0.7339  1.3749 -1.2070
  123OSM   H18U13017   1.493   6.393   5.950  1.3591  0.7604 -0.7747
  123OSM    C1F13018   1.447   6.322   4.854  0.0593 -0.4814 -0.6548
  123OSM     OF13019   1.403   6.435   4.837 -0.1988  0.2963 -0.1655
  123OSM    C2F13020   1.555   6.282   4.956  0.4869  0.2955  0.4404
  123OSM    H2F13021   1.653   6.321   4.921  0.7297  0.2034  1.0100
  123OSM    H2G13022   1.573   6.173   4.959 -2.3798 -0.2378  1.2351
  123OSM    C3F13023   1.530   6.325   5.101  0.0578  0.4584 -0.7634
  123OSM    H3F13024   1.438   6.276   5.138  0.7903 -0.5587 -0.2706
  123OSM    H3G13025   1.487   6.427   5.090 -0.5786  0.2133 -0.6086
  123OSM    C4F13026   1.637   6.307   5.203 -0.1009  0.0222 -0.0007
  123OSM    H4F13027   1.736   6.349   5.174  0.6296 -1.5495  0.1127
  123OSM    H4G13028   1.656   6.200   5.227  2.0966  0.5252  0.7900
  123OSM    C5F13029   1.610   6.383   5.335 -0.6378  0.3770  0.6249
  123OSM    H5F13030   1.519   6.337   5.380 -1.0863 -0.8584 -1.3811
  123OSM    H5G13031   1.574   6.486   5.312 -0.9301  0.9681  3.3829
  123OSM    C6F13032   1.716   6.381   5.443 -0.5671 -0.2028 -0.2216
  123OSM    H6F13033   1.811   6.421   5.400  0.0961 -2.6271 -1.1845
  123OSM    H6G13034   1.726   6.273   5.468 -1.5987 -0.2728 -0.1032
  123OSM    C7F13035   1.673   6.451   5.571  0.3452 -0.1280 -0.2499
  123OSM    H7F13036   1.571   6.420   5.603 -0.1370  2.2827  0.8210
  123OSM    H7G13037   1.658   6.560   5.558  1.1753  0.1006  0.5965
  123OSM    C8F13038   1.786   6.439   5.672 -0.2739  0.0956  0.2057
  123OSM    H8F13039   1.874   6.461   5.608 -0.4245  1.7931  0.5307
  123OSM    H8G13040   1.796   6.330   5.692  1.0933  0.3177  0.8057
  123OSM    C9F13041   1.775   6.524   5.795  0.4908  0.5540  0.0689
  123OSM    H9F13042   1.672   6.551   5.820  0.7787  0.8315  1.0042
  123OSM   C10F13043   1.876   6.556   5.880  0.4619 -0.7636 -0.1797
  123OSM   H10F13044   1.852   6.614   5.970  1.5568 -1.0487  0.3111
  123OSM   C11F13045   2.013   6.497   5.866 -0.0691 -0.5269  0.3051
  123OSM   H11F13046   2.087   6.575   5.837 -0.2544 -0.1224  0.8940
  123OSM   H11G13047   2.016   6.420   5.787 -0.1813 -1.4034  1.1441
  123OSM   C12F13048   2.066   6.436   5.999  0.2682  0.2177 -0.0379
  123OSM   H12F13049   2.079   6.514   6.077 -0.0536 -0.1268  0.3660
  123OSM   H12G13050   2.168   6.403   5.971  0.5599  2.0702 -1.3185
  123OSM   C13F13051   1.984   6.315   6.042  0.9725 -0.1377  0.0062
  123OSM   H13F13052   2.013   6.224   5.986  1.9868 -1.1039  2.0117
  123OSM   H13G13053   1.875   6.334   6.038  1.0199  0.0679 -0.3331
  123OSM   C14F13054   2.003   6.278   6.195 -0.1119  0.5761 -0.0425
  123OSM   H14F13055   2.026   6.371   6.251  1.5416  1.4554 -2.0656
  123OSM   H14G13056   2.092   6.212   6.200  0.5672  1.4913  0.1641
  123OSM   C15F13057   1.875   6.220   6.256 -0.3669 -0.7577 -0.0323
  123OSM   H15F13058   1.833   6.131   6.205 -3.9306  1.0441 -0.5192
  123OSM   H15G13059   1.790   6.291   6.260 -0.7496 -1.2534  0.8809
  123OSM   C16F13060   1.907   6.167   6.393 -0.0203 -0.1859 -0.3710
  123OSM   H16F13061   2.004   6.112   6.389  0.2728  0.0452  2.1782
  123OSM   H16G13062   1.827   6.097   6.426  1.8674 -1.1711  2.5504
  123OSM   C17F13063   1.912   6.259   6.511  0.0156  0.2303 -0.1243
  123OSM   H17F13064   1.948   6.209   6.604  0.2477 -0.4434 -0.5655
  123OSM   H17G13065   1.811   6.302   6.526  0.9534  2.2625  0.6782
  123OSM   C18F13066   2.006   6.381   6.503  0.3064 -0.4673 -0.1928
  123OSM   H18F13067   1.962   6.457   6.435 -0.1201 -2.3482 -2.1304
  123OSM   H18G13068   2.101   6.350   6.453  0.0691 -1.8687  0.1831
  123OSM   H18H13069   2.022   6.437   6.597  1.5718 -0.7125 -0.2382
  124OSM      N13070   2.777   6.442   4.201  0.4849 -0.2121 -0.0138
  124OSM    C1513071   2.879   6.330   4.189 -0.0552  0.3424 -0.0739
  124OSM   H15A13072   2.857   6.259   4.110  0.0407  1.1356 -0.8276
  124OSM   H15B13073   2.896   6.284   4.285  1.4078  1.2502  0.1443
  124OSM   H15C13074   2.974   6.365   4.149 -0.9603 -0.3826 -3.1313
  124OSM    C1413075   2.723   6.494   4.065 -0.1327 -0.0928 -0.4530
  124OSM   H14A13076   2.661   6.577   4.094 -1.0563 -0.4792 -1.2544
  124OSM   H14B13077   2.665   6.429   4.001 -1.0050 -3.4287  3.2816
  124OSM   H14C13078   2.805   6.537   4.010 -1.0628  0.8499 -1.1493
  124OSM    C1313079   2.662   6.376   4.268  0.6073 -0.0113 -0.2181
  124OSM   H13A13080   2.628   6.293   4.208  1.7499 -0.8782  0.2874
  124OSM   H13B13081   2.582   6.447   4.278  1.4314  0.8922  0.1727
  124OSM   H13C13082   2.679   6.348   4.371  0.1445 -3.7994 -1.0145
  124OSM    C1213083   2.845   6.551   4.278  0.5981 -0.7695  0.5005
  124OSM   H12A13084   2.932   6.585   4.224 -0.5109 -0.0531 -0.8876
  124OSM   H12B13085   2.886   6.511   4.370 -0.3485 -1.1366  0.7719
  124OSM    C1113086   2.768   6.675   4.318  0.2623  0.5267 -0.5390
  124OSM   H11A13087   2.839   6.749   4.361  1.3194 -0.0295 -1.2823
  124OSM   H11B13088   2.695   6.644   4.396 -0.7840  1.4094 -1.1303
  124OSM      P13089   2.720   6.877   4.156  0.0347  0.3920 -0.1321
  124OSM    O1313090   2.844   6.887   4.078 -0.2687  0.1724 -0.0815
  124OSM    O1413091   2.603   6.921   4.083 -0.1639  0.3743  0.0523
  124OSM    O1113092   2.750   6.972   4.277 -0.4028  0.1579  0.4518
  124OSM    O1213093   2.697   6.734   4.212  0.0285  0.6818 -0.0446
  124OSM    C1S13094   2.681   6.980   4.399  0.7449 -0.1633 -0.2020
  124OSM    H1S13095   2.669   6.880   4.445  0.4387  0.9735  2.3760
  124OSM    H1T13096   2.585   7.027   4.367 -0.1176 -0.3543  1.9780
  124OSM     NF13097   2.685   7.079   4.618  0.8105 -0.1159  0.9881
  124OSM    HNF13098   2.635   7.163   4.637 -0.2182 -0.2507 -0.8923
  124OSM    C2S13099   2.761   7.074   4.490  0.5558  0.6496 -0.8863
  124OSM    H2S13100   2.850   7.014   4.518 -0.1745  0.6671  1.8131
  124OSM    C3S13101   2.802   7.208   4.433 -0.2434  0.5701 -0.0470
  124OSM    H3S13102   2.712   7.252   4.385 -0.1739  0.9185  0.1366
  124OSM     O313103   2.895   7.200   4.325 -0.1865  0.0780  0.0282
  124OSM    HO313104   2.895   7.106   4.306  0.8997 -0.1939  1.2579
  124OSM    C4S13105   2.849   7.296   4.552 -0.2241 -0.0884 -0.4627
  124OSM    H4S13106   2.779   7.379   4.569 -0.4917  0.0570 -2.0836
  124OSM    C5S13107   2.969   7.304   4.617 -0.2716  0.3315 -0.4034
  124OSM    H5S13108   3.051   7.237   4.585 -0.6960 -1.4438  1.9660
  124OSM    C6S13109   3.002   7.401   4.726  0.3659  0.4522 -0.1766
  124OSM    H6S13110   3.026   7.504   4.691  0.3443  0.0717 -1.3415
  124OSM    H6T13111   3.093   7.365   4.778  0.2372  0.6096  0.1641
  124OSM    C7S13112   2.889   7.402   4.829 -0.5276 -0.2348 -1.1752
  124OSM    H7S13113   2.855   7.296   4.838  0.7198 -0.6384 -0.9234
  124OSM    H7T13114   2.795   7.456   4.805 -0.5008  1.2698  1.7181
  124OSM    C8S13115   2.936   7.454   4.967 -0.1759  0.9425 -0.6671
  124OSM    H8S13116   2.949   7.565   4.964 -1.0998  1.0516 -1.9299
  124OSM    H8T13117   3.030   7.401   4.991 -0.8795 -0.1077 -0.1692
  124OSM    C9S13118   2.843   7.425   5.082 -0.3339  0.0082 -0.0353
  124OSM    H9S13119   2.833   7.316   5.100 -0.0095 -0.6181 -3.0437
  124OSM    H9T13120   2.744   7.469   5.057  1.3381  2.9727 -2.1643
  124OSM   C10S13121   2.894   7.478   5.212 -0.4937 -0.5850 -0.1159
  124OSM   H10S13122   2.916   7.587   5.206  2.8156 -0.8866  3.1634
  124OSM   H10T13123   2.991   7.436   5.243  0.9838  3.0005  0.6118
  124OSM   C11S13124   2.793   7.458   5.329  0.0761  0.4096 -0.2245
  124OSM   H11S13125   2.774   7.351   5.350  4.8344 -1.0209 -1.8455
  124OSM   H11T13126   2.696   7.504   5.300  0.1546  0.0943 -0.9877
  124OSM   C12S13127   2.840   7.526   5.463  0.0276 -0.1807 -0.3430
  124OSM   H12S13128   2.869   7.632   5.443 -1.3211  0.5741  1.3753
  124OSM   H12T13129   2.926   7.476   5.513 -1.0686 -0.3702  1.4583
  124OSM   C13S13130   2.731   7.525   5.571 -0.2427  0.1372  0.0857
  124OSM   H13S13131   2.706   7.420   5.596  0.3945 -0.0681 -0.1249
  124OSM   H13T13132   2.638   7.571   5.531 -1.6306 -2.3699  0.2123
  124OSM   C14S13133   2.772   7.595   5.700  0.0375 -0.2824  0.1711
  124OSM   H14S13134   2.801   7.702   5.690  0.7377 -0.4569  0.2565
  124OSM   H14T13135   2.864   7.541   5.730  1.0051  1.8725  1.3210
  124OSM   C15S13136   2.674   7.582   5.813 -0.7444  0.0746 -0.4472
  124OSM   H15S13137   2.629   7.480   5.814 -0.1806 -0.2991 -3.6333
  124OSM   H15T13138   2.599   7.663   5.799  1.7796  2.8502  0.9734
  124OSM   C16S13139   2.748   7.600   5.948 -0.7724 -0.8980  0.0897
  124OSM   H16S13140   2.791   7.703   5.949  1.0824 -1.6269  1.9326
  124OSM   H16T13141   2.830   7.525   5.955 -1.3461 -1.3478  2.6185
  124OSM   C17S13142   2.667   7.584   6.076  0.5262  0.3663 -0.5225
  124OSM   H17S13143   2.616   7.486   6.072 -1.5524  1.4396 -2.4019
  124OSM   H17T13144   2.593   7.667   6.085 -0.3322 -0.2645 -1.4931
  124OSM   C18S13145   2.748   7.586   6.201  0.7522  0.5494 -1.5446
  124OSM   H18S13146   2.683   7.554   6.285  0.3268  1.7508 -1.4013
  124OSM   H18T13147   2.776   7.692   6.219  1.9293  0.0079  0.0563
  124OSM   H18U13148   2.843   7.528   6.191 -0.1709 -1.5776  0.9012
  124OSM    C1F13149   2.660   6.973   4.694 -0.0664 -0.1895  0.2089
  124OSM     OF13150   2.727   6.869   4.697  0.3367 -0.4801  0.5933
  124OSM    C2F13151   2.549   6.991   4.795 -0.3539 -0.2798  0.0162
  124OSM    H2F13152   2.468   7.050   4.746 -0.2377 -0.7996 -0.8306
  124OSM    H2G13153   2.597   7.051   4.875 -0.9150  1.8751 -1.1858
  124OSM    C3F13154   2.488   6.862   4.847 -0.8064 -0.4829  0.1390
  124OSM    H3F13155   2.563   6.796   4.896  0.0203  0.1857 -0.2098
  124OSM    H3G13156   2.438   6.806   4.766 -0.4596  0.9772 -1.1184
  124OSM    C4F13157   2.377   6.886   4.952 -0.2071 -0.0185  0.5193
  124OSM    H4F13158   2.306   6.962   4.914  0.7950  0.1597 -1.0654
  124OSM    H4G13159   2.424   6.929   5.043  0.6121  2.2033 -0.8816
  124OSM    C5F13160   2.314   6.753   4.987  0.2035 -0.1036 -0.2547
  124OSM    H5F13161   2.382   6.678   5.035  0.4752 -0.8248 -1.7013
  124OSM    H5G13162   2.264   6.708   4.899 -1.3018  1.0076  0.0040
  124OSM    C6F13163   2.192   6.776   5.088  0.4865 -0.2409  0.0121
  124OSM    H6F13164   2.152   6.675   5.110 -2.1106  0.5825 -0.5132
  124OSM    H6G13165   2.112   6.828   5.030 -0.1923  0.1461  1.2443
  124OSM    C7F13166   2.230   6.860   5.214  0.5079  0.4273 -0.8144
  124OSM    H7F13167   2.272   6.958   5.182  3.8274 -0.0122  1.5976
  124OSM    H7G13168   2.314   6.814   5.271  1.1014  1.2052 -1.0414
  124OSM    C8F13169   2.119   6.877   5.313  0.2881  0.0793 -0.0497
  124OSM    H8F13170   2.044   6.931   5.252  1.0982 -0.0887 -1.2328
  124OSM    H8G13171   2.147   6.948   5.394 -1.7344  2.8323 -1.6244
  124OSM    C9F13172   2.073   6.744   5.365  0.5544  0.0054 -0.5638
  124OSM    H9F13173   2.099   6.657   5.304  1.1479  0.8466 -1.5365
  124OSM   C10F13174   2.020   6.727   5.492 -0.8658  0.4373  0.4508
  124OSM   H10F13175   1.995   6.625   5.524  3.0422 -0.8372 -0.0041
  124OSM   C11F13176   2.005   6.838   5.592  1.2489  0.8361 -0.0842
  124OSM   H11F13177   1.933   6.800   5.668  2.9446 -3.1337 -0.2190
  124OSM   H11G13178   1.972   6.936   5.551  0.0915  1.6246  2.4825
  124OSM   C12F13179   2.143   6.872   5.656 -0.1997  0.2247 -0.9083
  124OSM   H12F13180   2.216   6.866   5.573 -0.0833 -2.0779 -0.7009
  124OSM   H12G13181   2.172   6.791   5.726 -2.0809  0.3452  0.0883
  124OSM   C13F13182   2.143   7.006   5.734  0.3299 -0.4802 -0.9858
  124OSM   H13F13183   2.079   7.084   5.688  0.8470  1.9890  2.1585
  124OSM   H13G13184   2.246   7.046   5.745  1.2766 -2.9962  0.0557
  124OSM   C14F13185   2.099   6.977   5.883 -0.2886 -0.8421  0.5112
  124OSM   H14F13186   2.034   6.887   5.888  0.0726 -1.0612  1.3665
  124OSM   H14G13187   2.047   7.071   5.913  3.0174  1.3976 -0.1904
  124OSM   C15F13188   2.220   6.964   5.978  0.0501 -0.2988  0.0177
  124OSM   H15F13189   2.289   7.047   5.950 -0.0643 -0.8555 -2.1230
  124OSM   H15G13190   2.279   6.875   5.948  0.6827  0.1355 -0.0352
  124OSM   C16F13191   2.188   6.979   6.127  0.2723  0.2199  0.6386
  124OSM   H16F13192   2.128   7.072   6.134 -2.1152 -0.8808 -2.6003
  124OSM   H16G13193   2.288   6.975   6.176  1.1197 -0.4181 -1.0527
  124OSM   C17F13194   2.111   6.859   6.183  0.4316  0.6857  0.1835
  124OSM   H17F13195   2.147   6.761   6.146 -3.4107 -0.0469 -2.1367
  124OSM   H17G13196   2.010   6.862   6.138  0.4127 -2.2065 -0.1968
  124OSM   C18F13197   2.095   6.867   6.334 -0.2898 -0.0773 -0.3830
  124OSM   H18F13198   2.190   6.839   6.386 -1.6794 -0.6477  2.0041
  124OSM   H18G13199   2.004   6.812   6.366  0.0635  0.3213  1.4211
  124OSM   H18H13200   2.076   6.971   6.366 -1.9865 -1.0222  2.0360
  125OSM      N13201   2.857   1.500   4.676  0.6685 -0.1579 -0.7502
  125OSM    C1513202   2.807   1.497   4.540 -0.4428 -0.0949 -0.2493
  125OSM   H15A13203   2.796   1.393   4.514 -0.2796 -0.5590  1.4556
  125OSM   H15B13204   2.869   1.543   4.464  0.1718 -1.0052 -0.3055
  125OSM   H15C13205   2.708   1.539   4.529  0.2057  1.0520 -2.6009
  125OSM    C1413206   3.005   1.463   4.679  0.1662 -0.1096 -0.1234
  125OSM   H14A13207   3.029   1.358   4.667  0.6672 -0.1484  1.0145
  125OSM   H14B13208   3.057   1.483   4.772  2.3376 -5.7420  0.2696
  125OSM   H14C13209   3.052   1.515   4.597 -0.4562 -1.4177 -1.3603
  125OSM    C1313210   2.840   1.636   4.736  0.0932 -0.0898  0.0870
  125OSM   H13A13211   2.744   1.679   4.711  0.2982  0.7149  0.6565
  125OSM   H13B13212   2.923   1.692   4.696  1.7368 -2.4602 -0.0118
  125OSM   H13C13213   2.856   1.639   4.842  2.3941 -0.5172 -0.1977
  125OSM    C1213214   2.781   1.411   4.776 -0.1547 -1.0966  0.0572
  125OSM   H12A13215   2.684   1.457   4.784  0.8170  1.0867  0.1033
  125OSM   H12B13216   2.822   1.405   4.876  0.8090 -0.2626 -0.2712
  125OSM    C1113217   2.773   1.263   4.731  0.1328  0.5678 -0.0229
  125OSM   H11A13218   2.752   1.258   4.622  0.4690 -0.8574 -0.0525
  125OSM   H11B13219   2.688   1.219   4.788  0.4304  0.8094  0.6237
  125OSM      P13220   2.955   1.152   4.901 -0.0206  0.3412 -0.1474
  125OSM    O1313221   3.053   1.041   4.873 -0.2901 -0.2792 -0.7378
  125OSM    O1413222   3.005   1.274   4.969  0.3190 -0.3140  0.1449
  125OSM    O1113223   2.827   1.093   4.975  0.4964 -0.2090 -0.1950
  125OSM    O1213224   2.892   1.193   4.760 -0.2710  0.2018 -0.3879
  125OSM    C1S13225   2.841   1.034   5.107  0.3405 -0.7460  0.4862
  125OSM    H1S13226   2.881   1.112   5.176  0.4131 -0.6940  0.3850
  125OSM    H1T13227   2.905   0.944   5.107  0.3168 -0.7813 -0.8333
  125OSM     NF13228   2.726   0.955   5.305 -0.7207 -0.1372 -0.6407
  125OSM    HNF13229   2.734   0.859   5.331  0.0361  0.0564 -0.1394
  125OSM    C2S13230   2.704   0.984   5.164  0.6540  0.3884  0.4677
  125OSM    H2S13231   2.627   1.063   5.153 -1.6537 -1.6656  1.0224
  125OSM    C3S13232   2.649   0.869   5.081  0.2890  0.2388 -0.0069
  125OSM    H3S13233   2.724   0.788   5.091  0.8132  0.8726  1.3728
  125OSM     O313234   2.652   0.886   4.937 -0.4189  0.0814 -0.2876
  125OSM    HO313235   2.688   0.974   4.930 -0.3712 -0.0619 -2.2675
  125OSM    C4S13236   2.517   0.827   5.138  0.7960  0.2946  0.5369
  125OSM    H4S13237   2.535   0.764   5.227  0.3441  1.5975  1.5813
  125OSM    C5S13238   2.397   0.872   5.109  0.8221  0.4228  0.0654
  125OSM    H5S13239   2.394   0.956   5.038 -0.5748  1.4244  1.2605
  125OSM    C6S13240   2.265   0.827   5.164  0.0862  0.7369 -0.0268
  125OSM    H6S13241   2.217   0.757   5.092 -0.0650  0.8163 -0.0025
  125OSM    H6T13242   2.199   0.916   5.170 -1.8789 -0.5779 -0.8810
  125OSM    C7S13243   2.286   0.753   5.304  0.0233 -0.0377 -0.3557
  125OSM    H7S13244   2.332   0.826   5.374 -0.2230 -0.2396  0.0223
  125OSM    H7T13245   2.353   0.665   5.292  0.4160  0.1662  0.3008
  125OSM    C8S13246   2.164   0.696   5.377 -0.2175  0.1473  0.5561
  125OSM    H8S13247   2.128   0.605   5.326 -1.0710 -0.4104  2.0918
  125OSM    H8T13248   2.085   0.773   5.366 -0.3924 -0.0191  0.6533
  125OSM    C9S13249   2.187   0.682   5.525 -0.4455  0.0679 -0.9408
  125OSM    H9S13250   2.088   0.649   5.562  0.8717 -0.8851  1.9833
  125OSM    H9T13251   2.214   0.779   5.573 -0.9214 -0.6353  0.7982
  125OSM   C10S13252   2.279   0.566   5.568 -0.7548 -0.1387  0.1077
  125OSM   H10S13253   2.382   0.603   5.548 -1.7816  1.3500 -3.1119
  125OSM   H10T13254   2.275   0.478   5.499 -1.6330  0.5634 -0.7645
  125OSM   C11S13255   2.280   0.522   5.720 -0.3311  0.4510 -0.1824
  125OSM   H11S13256   2.365   0.455   5.747  0.4956  1.6810  0.3146
  125OSM   H11T13257   2.188   0.464   5.742  0.0534 -0.1115 -0.0190
  125OSM   C12S13258   2.291   0.642   5.817 -0.0378  0.6572 -0.0785
  125OSM   H12S13259   2.204   0.711   5.812  0.5489  1.2956 -2.3209
  125OSM   H12T13260   2.386   0.698   5.803 -0.4179  1.4972  0.6170
  125OSM   C13S13261   2.320   0.581   5.962  0.5491  0.5237  0.3012
  125OSM   H13S13262   2.330   0.662   6.038  1.4856 -0.6189  1.4564
  125OSM   H13T13263   2.416   0.524   5.962  1.3230  1.7329 -1.5382
  125OSM   C14S13264   2.209   0.479   6.026 -0.2576  0.5764 -0.3145
  125OSM   H14S13265   2.198   0.389   5.961 -0.2047  0.1089  0.3166
  125OSM   H14T13266   2.115   0.537   6.039  0.2168  1.1382  0.7102
  125OSM   C15S13267   2.259   0.416   6.160  0.8739  0.0620  0.1141
  125OSM   H15S13268   2.327   0.331   6.141  1.6544 -0.8030  5.3750
  125OSM   H15T13269   2.174   0.358   6.201  0.1541 -0.4780 -2.0118
  125OSM   C16S13270   2.326   0.514   6.258 -0.3382 -0.3212 -0.1822
  125OSM   H16S13271   2.252   0.584   6.302 -0.7950 -1.0904  0.2956
  125OSM   H16T13272   2.402   0.578   6.209 -1.0099 -1.1960 -2.4887
  125OSM   C17S13273   2.395   0.426   6.362  0.1083  0.9767 -0.0693
  125OSM   H17S13274   2.496   0.391   6.333  0.3194 -0.2696  2.0296
  125OSM   H17T13275   2.339   0.338   6.399 -0.9467  2.2959  1.6297
  125OSM   C18S13276   2.419   0.504   6.491  0.4318  0.0619 -0.1072
  125OSM   H18S13277   2.485   0.443   6.556 -1.3665 -2.1488 -0.1965
  125OSM   H18T13278   2.322   0.505   6.544 -0.2464  0.0885 -1.3001
  125OSM   H18U13279   2.469   0.602   6.480 -3.9249  2.6466  0.9106
  125OSM    C1F13280   2.734   1.047   5.397 -0.1953 -0.3433 -0.3867
  125OSM     OF13281   2.728   1.165   5.369 -0.0091 -0.7067  0.4798
  125OSM    C2F13282   2.754   0.995   5.531  0.2497 -0.6146  0.0900
  125OSM    H2F13283   2.857   0.953   5.542  1.9465  2.5183 -2.0586
  125OSM    H2G13284   2.673   0.920   5.541 -0.7774  0.3283 -0.8751
  125OSM    C3F13285   2.729   1.101   5.633  0.0288 -0.1865  0.2534
  125OSM    H3F13286   2.635   1.160   5.627 -0.2610 -0.5810  0.8406
  125OSM    H3G13287   2.803   1.179   5.607  1.9676 -1.5394  1.4329
  125OSM    C4F13288   2.746   1.063   5.783  0.5768  0.1598  0.1341
  125OSM    H4F13289   2.835   0.997   5.794 -0.0038 -0.9602 -1.5198
  125OSM    H4G13290   2.666   0.993   5.815  2.7050 -2.8056 -0.5804
  125OSM    C5F13291   2.752   1.180   5.885  0.0043 -0.4655  0.5216
  125OSM    H5F13292   2.655   1.230   5.903  0.0350  0.5486 -1.8245
  125OSM    H5G13293   2.814   1.257   5.835 -1.5074  0.5173  0.1090
  125OSM    C6F13294   2.823   1.143   6.016 -0.5996 -0.1928 -0.2735
  125OSM    H6F13295   2.917   1.091   5.986 -0.0261  1.7340 -2.1086
  125OSM    H6G13296   2.768   1.074   6.083  0.9441 -0.8155  0.4098
  125OSM    C7F13297   2.875   1.271   6.100 -0.0965  0.4784  0.4448
  125OSM    H7F13298   2.950   1.334   6.046  0.6794 -1.3708 -0.7359
  125OSM    H7G13299   2.931   1.228   6.186  2.0167  1.1634 -0.5037
  125OSM    C8F13300   2.755   1.361   6.145 -0.8940  0.1717  0.2680
  125OSM    H8F13301   2.669   1.291   6.154 -0.1858 -0.5721  1.5568
  125OSM    H8G13302   2.714   1.431   6.069 -1.0145  0.8717  0.9707
  125OSM    C9F13303   2.780   1.422   6.275 -0.0202  0.0233  0.1956
  125OSM    H9F13304   2.855   1.502   6.279 -1.4352  1.5037 -1.2053
  125OSM   C10F13305   2.726   1.379   6.390  0.3139  0.1712 -0.1587
  125OSM   H10F13306   2.744   1.438   6.481  0.8950  0.6358 -0.5629
  125OSM   C11F13307   2.626   1.264   6.409 -0.5475 -0.3465  0.0456
  125OSM   H11F13308   2.671   1.172   6.366 -0.3796  0.1719 -0.9266
  125OSM   H11G13309   2.532   1.290   6.356 -1.3860  0.1040  1.6881
  125OSM   C12F13310   2.603   1.234   6.564  0.4488  0.0968  0.1695
  125OSM   H12F13311   2.517   1.164   6.571 -1.3767  2.3633  1.4452
  125OSM   H12G13312   2.559   1.324   6.610  0.7173  0.5303 -0.3974
  125OSM   C13F13313   2.729   1.175   6.626  0.7876 -0.6662 -0.5312
  125OSM   H13F13314   2.796   1.261   6.646 -0.3584  0.6155 -1.9464
  125OSM   H13G13315   2.775   1.112   6.546 -3.1616 -1.9646 -2.0271
  125OSM   C14F13316   2.706   1.087   6.748 -0.1274  0.0724 -0.4113
  125OSM   H14F13317   2.796   1.027   6.773  0.2759  1.3883  1.6624
  125OSM   H14G13318   2.619   1.018   6.740 -1.4882  1.2708  2.4473
  125OSM   C15F13319   2.673   1.179   6.864  0.0171 -0.5252  0.5797
  125OSM   H15F13320   2.572   1.219   6.840  0.8584  1.6953  0.5472
  125OSM   H15G13321   2.745   1.262   6.876 -0.3725  0.8617 -4.2624
  125OSM   C16F13322   2.650   1.110   7.000 -0.0006  0.7183 -0.3784
  125OSM   H16F13323   2.634   1.189   7.077 -2.1352 -0.3668  0.3665
  125OSM   H16G13324   2.735   1.048   7.037 -0.7349  0.5684  1.1641
  125OSM   C17F13325   2.527   1.019   6.998 -0.0834  0.6591  0.2765
  125OSM   H17F13326   2.541   0.926   6.939 -1.0854  0.7798 -0.1756
  125OSM   H17G13327   2.448   1.082   6.951  0.7538  0.9079 -0.8214
  125OSM   C18F13328   2.464   0.989   7.134 -0.4040  0.7338 -0.1536
  125OSM   H18F13329   2.372   0.928   7.137 -0.7372  1.2522  0.2433
  125OSM   H18G13330   2.437   1.085   7.184 -1.6850  1.3572 -1.9229
  125OSM   H18H13331   2.546   0.937   7.188  0.1832 -0.6086 -2.2313
  126OSM      N13332   6.563   3.882   4.505 -0.8762  0.5321 -0.2467
  126OSM    C1513333   6.566   3.771   4.407 -0.6151  0.1976  0.1340
  126OSM   H15A13334   6.671   3.747   4.398 -1.2278 -2.4652 -0.8298
  126OSM   H15B13335   6.521   3.794   4.312  0.2010  1.2248 -0.0294
  126OSM   H15C13336   6.523   3.682   4.451 -2.3250  0.8407 -0.1618
  126OSM    C1413337   6.645   3.845   4.633 -0.3192  0.2239 -0.1842
  126OSM   H14A13338   6.750   3.869   4.618 -0.2467 -0.6899 -1.2935
  126OSM   H14B13339   6.638   3.739   4.652 -0.0376  0.0514 -0.9928
  126OSM   H14C13340   6.610   3.897   4.721  0.0613  2.5898 -1.3511
  126OSM    C1313341   6.623   4.005   4.445  0.1951  0.4776  0.0607
  126OSM   H13A13342   6.710   3.976   4.388  0.0375 -0.5919  0.3395
  126OSM   H13B13343   6.648   4.080   4.518  0.6895  1.3827 -1.0237
  126OSM   H13C13344   6.544   4.045   4.383 -0.4323 -0.0166  0.5127
  126OSM    C1213345   6.414   3.909   4.545 -0.1350  0.0254 -0.0093
  126OSM   H12A13346   6.418   3.972   4.633  1.1683 -1.1180  0.7938
  126OSM   H12B13347   6.378   3.818   4.589 -0.4404 -0.8401 -1.9386
  126OSM    C1113348   6.315   3.957   4.437 -0.1691  0.8382  0.4372
  126OSM   H11A13349   6.211   3.944   4.475 -0.2514  1.1120  0.3057
  126OSM   H11B13350   6.327   3.898   4.344 -1.7756  1.0296  0.0761
  126OSM      P13351   6.287   4.210   4.501 -0.6185  0.5448  0.4227
  126OSM    O1313352   6.354   4.336   4.462  0.4757  0.8770  0.2545
  126OSM    O1413353   6.144   4.201   4.498  0.1167 -0.5623 -0.3747
  126OSM    O1113354   6.338   4.172   4.648 -0.2163 -0.7135  0.4401
  126OSM    O1213355   6.343   4.092   4.409  0.1845 -0.0748  0.0864
  126OSM    C1S13356   6.320   4.273   4.744 -0.0213 -0.2686 -0.2112
  126OSM    H1S13357   6.216   4.275   4.783  0.8469  5.2744  2.8688
  126OSM    H1T13358   6.325   4.377   4.706 -1.1177 -0.6157 -1.3955
  126OSM     NF13359   6.366   4.369   4.966 -0.7496 -0.6421  0.3925
  126OSM    HNF13360   6.422   4.451   4.977 -1.6370  0.1792 -0.9521
  126OSM    C2S13361   6.415   4.265   4.870  0.4000  0.3894 -0.1409
  126OSM    H2S13362   6.383   4.174   4.926 -1.9063  2.4553  2.1761
  126OSM    C3S13363   6.565   4.273   4.828  0.4747  0.2978 -0.7014
  126OSM    H3S13364   6.602   4.372   4.793  1.2117  0.0976 -0.4976
  126OSM     O313365   6.585   4.187   4.713  0.5211  0.0398 -0.4198
  126OSM    HO313366   6.500   4.158   4.681 -0.5843 -0.8555  2.9902
  126OSM    C4S13367   6.646   4.231   4.953  0.4825 -0.5411  0.5312
  126OSM    H4S13368   6.689   4.137   4.915 -0.0325  0.0927 -1.7952
  126OSM    C5S13369   6.693   4.303   5.052 -0.8753 -0.5870 -0.1269
  126OSM    H5S13370   6.663   4.409   5.061  0.2044 -0.2031 -0.8583
  126OSM    C6S13371   6.815   4.253   5.128  0.3248  0.1735  0.3705
  126OSM    H6S13372   6.901   4.322   5.117 -0.5080  1.0640 -1.0392
  126OSM    H6T13373   6.844   4.157   5.081 -0.0942  0.7627 -1.1607
  126OSM    C7S13374   6.776   4.204   5.265  0.2403 -0.3663 -0.2342
  126OSM    H7S13375   6.687   4.139   5.274  0.8232 -0.8955  3.0194
  126OSM    H7T13376   6.757   4.295   5.325  0.1265 -0.0966 -0.6729
  126OSM    C8S13377   6.889   4.131   5.334 -0.0434 -0.8868 -0.2626
  126OSM    H8S13378   6.989   4.174   5.315 -0.3900 -0.1020 -0.3259
  126OSM    H8T13379   6.889   4.024   5.303 -1.0409 -0.6074 -1.2991
  126OSM    C9S13380   6.886   4.145   5.487 -0.0843  0.4318  0.3030
  126OSM    H9S13381   6.781   4.153   5.520 -0.2072  0.2257 -0.0261
  126OSM    H9T13382   6.938   4.237   5.522  3.7582 -0.8560 -1.4011
  126OSM   C10S13383   6.955   4.031   5.558 -0.3289  0.2600  1.4440
  126OSM   H10S13384   7.060   4.030   5.523 -0.3137 -2.2187  1.3444
  126OSM   H10T13385   6.906   3.940   5.517 -1.2789  1.5098 -0.3148
  126OSM   C11S13386   6.943   4.042   5.712  0.5553  0.3106  0.0089
  126OSM   H11S13387   6.933   3.940   5.755 -2.5512 -0.9819 -3.2643
  126OSM   H11T13388   6.849   4.095   5.738  2.5469  4.1079  0.1942
  126OSM   C12S13389   7.068   4.111   5.769 -0.1794 -0.2670 -0.0865
  126OSM   H12S13390   7.072   4.211   5.722 -0.7415 -0.3507 -0.3235
  126OSM   H12T13391   7.153   4.047   5.736 -0.9921 -0.0337 -2.9292
  126OSM   C13S13392   7.065   4.104   5.925 -0.0026  0.4349 -0.1608
  126OSM   H13S13393   7.044   4.001   5.960 -0.7788  0.5386 -0.2944
  126OSM   H13T13394   6.981   4.168   5.962  0.1244 -0.7723  2.4164
  126OSM   C14S13395   7.181   4.176   5.983 -0.0847  0.1828  0.4254
  126OSM   H14S13396   7.199   4.274   5.935 -1.6841  0.6263  0.6689
  126OSM   H14T13397   7.273   4.121   5.952 -0.4495  0.8382 -2.0182
  126OSM   C15S13398   7.177   4.206   6.134  0.6194  0.3715  0.4617
  126OSM   H15S13399   7.098   4.283   6.146 -0.1296 -0.4172  0.7345
  126OSM   H15T13400   7.278   4.247   6.158  0.1821  1.5612  0.3280
  126OSM   C16S13401   7.136   4.084   6.222  0.0876 -0.7449  0.4480
  126OSM   H16S13402   7.197   3.994   6.197 -1.7569 -1.9675  0.0942
  126OSM   H16T13403   7.032   4.055   6.194  0.1600  0.0814 -0.7352
  126OSM   C17S13404   7.150   4.102   6.377 -0.1045 -0.0146  1.2574
  126OSM   H17S13405   7.094   4.019   6.425 -2.3031  0.8396  0.3143
  126OSM   H17T13406   7.098   4.198   6.399  1.7520  0.8882  1.8864
  126OSM   C18S13407   7.293   4.114   6.430  0.6778 -0.2193  0.8230
  126OSM   H18S13408   7.347   4.017   6.424  1.8761  0.5120 -1.2577
  126OSM   H18T13409   7.290   4.147   6.536  1.1167 -0.4881  0.9229
  126OSM   H18U13410   7.355   4.190   6.378 -2.5392  1.1645 -1.2687
  126OSM    C1F13411   6.247   4.381   5.015  0.0676 -0.2492  0.1951
  126OSM     OF13412   6.169   4.286   5.008  0.2142  0.5402  0.5319
  126OSM    C2F13413   6.208   4.516   5.071  0.2229 -0.7952 -0.9585
  126OSM    H2F13414   6.193   4.598   4.997  1.3927 -0.6600 -1.0641
  126OSM    H2G13415   6.286   4.561   5.136 -1.0895 -0.0488  0.1718
  126OSM    C3F13416   6.081   4.509   5.159  0.0259 -0.2324  0.7860
  126OSM    H3F13417   5.994   4.466   5.106  0.8320  0.2557 -0.9992
  126OSM    H3G13418   6.056   4.613   5.191  2.2526  0.1692  1.4063
  126OSM    C4F13419   6.108   4.425   5.283  0.1112  0.3665  0.3628
  126OSM    H4F13420   6.129   4.322   5.249  0.2930 -0.5063  2.9500
  126OSM    H4G13421   6.016   4.423   5.346  1.7215 -0.2499  2.8127
  126OSM    C5F13422   6.220   4.466   5.378 -0.0639 -0.1935  0.5124
  126OSM    H5F13423   6.220   4.576   5.397 -2.2897 -0.4280  2.3576
  126OSM    H5G13424   6.318   4.434   5.337  0.4360  1.0106  0.7391
  126OSM    C6F13425   6.199   4.392   5.510 -0.6350 -0.3442  0.1980
  126OSM    H6F13426   6.208   4.284   5.486  0.7612  0.3652 -2.9652
  126OSM    H6G13427   6.096   4.417   5.543 -0.3129 -0.1373  1.0811
  126OSM    C7F13428   6.310   4.438   5.608  0.0289  0.9008 -0.4504
  126OSM    H7F13429   6.305   4.548   5.622 -0.5411  0.8071  0.1294
  126OSM    H7G13430   6.408   4.418   5.561 -0.5829 -2.0373 -0.6728
  126OSM    C8F13431   6.305   4.358   5.738  0.1570  0.0177  0.1212
  126OSM    H8F13432   6.408   4.381   5.772  1.6745  0.5458 -4.2155
  126OSM    H8G13433   6.301   4.253   5.703  1.0891 -0.3228  0.9981
  126OSM    C9F13434   6.191   4.393   5.826  0.3090 -0.0670  0.3145
  126OSM    H9F13435   6.096   4.426   5.782 -0.5224 -0.6740  1.5941
  126OSM   C10F13436   6.196   4.402   5.962 -0.2870 -0.2859  0.3010
  126OSM   H10F13437   6.110   4.429   6.025 -1.7129 -0.4258 -1.4963
  126OSM   C11F13438   6.327   4.381   6.036  0.7108 -0.0621 -1.0561
  126OSM   H11F13439   6.401   4.460   6.013 -2.1976  2.8237 -1.2159
  126OSM   H11G13440   6.364   4.281   6.005 -1.8656 -0.5027 -3.1743
  126OSM   C12F13441   6.286   4.398   6.185  0.4360 -0.2880 -0.1475
  126OSM   H12F13442   6.246   4.501   6.198  1.9086  0.6720 -2.6264
  126OSM   H12G13443   6.387   4.391   6.231 -0.1841 -1.7524  1.0735
  126OSM   C13F13444   6.196   4.293   6.248 -0.3117 -0.0999  0.0949
  126OSM   H13F13445   6.246   4.197   6.224  0.1814  0.1268  0.2122
  126OSM   H13G13446   6.094   4.287   6.204 -0.1444  1.6705 -0.5860
  126OSM   C14F13447   6.190   4.312   6.404 -0.3869 -0.6636  0.2092
  126OSM   H14F13448   6.130   4.404   6.424 -1.6295 -0.7796 -2.4930
  126OSM   H14G13449   6.295   4.336   6.430 -0.5891  0.0134  0.4360
  126OSM   C15F13450   6.115   4.199   6.468  0.1163  0.0706  0.5573
  126OSM   H15F13451   6.172   4.106   6.444 -0.4054 -0.5295  1.5921
  126OSM   H15G13452   6.014   4.190   6.422 -0.1359 -0.6457  1.2224
  126OSM   C16F13453   6.125   4.210   6.619  0.3377  0.6174  0.2029
  126OSM   H16F13454   6.076   4.304   6.654  0.2679  0.4954  0.4355
  126OSM   H16G13455   6.234   4.226   6.634  0.3159  2.8825 -1.5059
  126OSM   C17F13456   6.089   4.087   6.693  0.2919 -0.0013  0.2821
  126OSM   H17F13457   6.092   4.110   6.802  0.9423 -1.0697  0.5056
  126OSM   H17G13458   6.156   4.000   6.677  2.1104  1.1825  1.0952
  126OSM   C18F13459   5.946   4.035   6.664  0.5663 -0.7489  0.0055
  126OSM   H18F13460   5.934   3.952   6.737  0.0286 -0.1393  0.6101
  126OSM   H18G13461   5.932   3.981   6.567  0.0788 -1.7404  0.6145
  126OSM   H18H13462   5.868   4.113   6.674  0.9984 -0.3912  0.5822
  127OSM      N13463   5.452   3.600   4.355  0.1579 -0.2592 -0.0362
  127OSM    C1513464   5.309   3.625   4.322 -0.1045 -0.1433  0.2385
  127OSM   H15A13465   5.286   3.599   4.219  2.1845  0.8718 -0.5838
  127OSM   H15B13466   5.278   3.726   4.345 -0.0663  0.1107 -0.7892
  127OSM   H15C13467   5.267   3.564   4.401  1.9800 -1.5184  0.3745
  127OSM    C1413468   5.530   3.694   4.269  0.6706  0.0574  0.0967
  127OSM   H14A13469   5.533   3.665   4.164 -0.2996 -1.6640  0.4933
  127OSM   H14B13470   5.629   3.698   4.311  0.2037 -3.0841  1.8559
  127OSM   H14C13471   5.472   3.785   4.270  0.2215  0.0957 -4.4965
  127OSM    C1313472   5.476   3.626   4.501  0.4020  0.2381 -0.4431
  127OSM   H13A13473   5.430   3.542   4.549  0.6083 -0.2656 -1.1187
  127OSM   H13B13474   5.447   3.719   4.548 -1.0772 -1.5904  2.5427
  127OSM   H13C13475   5.581   3.624   4.527 -0.3141  1.2396  3.1306
  127OSM    C1213476   5.503   3.458   4.332  0.3739  0.1074  0.7354
  127OSM   H12A13477   5.611   3.461   4.342  0.4253 -1.4429  0.8224
  127OSM   H12B13478   5.482   3.444   4.227 -0.6573  0.6894  0.8493
  127OSM    C1113479   5.443   3.335   4.408 -0.1352  0.2485 -0.8200
  127OSM   H11A13480   5.489   3.237   4.385  1.9910  1.3192 -1.3968
  127OSM   H11B13481   5.337   3.333   4.374 -0.3310  2.4148 -0.4878
  127OSM      P13482   5.565   3.313   4.645  0.1960 -0.0046  0.2587
  127OSM    O1313483   5.601   3.172   4.626 -0.0651 -0.2430 -0.3022
  127OSM    O1413484   5.671   3.409   4.611 -0.1802  0.6936  0.6921
  127OSM    O1113485   5.504   3.346   4.790 -0.3146  0.7575  0.7741
  127OSM    O1213486   5.436   3.343   4.554  0.6943  0.5773  0.0587
  127OSM    C1S13487   5.432   3.234   4.848 -0.4962  0.2363  0.2966
  127OSM    H1S13488   5.493   3.142   4.858 -0.4829  0.3468  1.4147
  127OSM    H1T13489   5.349   3.207   4.779  0.5552  0.0176 -0.9233
  127OSM     NF13490   5.326   3.125   5.058 -0.2801 -0.7760  0.8718
  127OSM    HNF13491   5.227   3.113   5.065 -0.4394  0.6720  1.2301
  127OSM    C2S13492   5.374   3.259   5.000  1.4832  0.3962 -0.0329
  127OSM    H2S13493   5.446   3.301   5.074 -0.7561  2.3832  1.1592
  127OSM    C3S13494   5.257   3.368   4.996 -0.7821 -0.0923  0.2448
  127OSM    H3S13495   5.172   3.337   4.931 -1.7518  0.6531  1.1213
  127OSM     O313496   5.313   3.489   4.942  0.4367 -0.2555 -0.0299
  127OSM    HO313497   5.405   3.480   4.918  1.0252  0.6425  1.6867
  127OSM    C4S13498   5.198   3.401   5.131 -0.2590 -0.7077 -0.7981
  127OSM    H4S13499   5.110   3.338   5.152 -1.1260  1.5404  3.5924
  127OSM    C5S13500   5.244   3.484   5.232 -0.5532 -0.6770  0.1644
  127OSM    H5S13501   5.342   3.532   5.231  0.0543 -1.8820  0.1443
  127OSM    C6S13502   5.177   3.500   5.370 -0.4211  0.2993  0.1093
  127OSM    H6S13503   5.098   3.422   5.381 -1.8922  1.5063 -1.3200
  127OSM    H6T13504   5.123   3.596   5.378  0.6353  1.0421 -1.2537
  127OSM    C7S13505   5.276   3.503   5.486  0.2589  1.3744 -0.4562
  127OSM    H7S13506   5.243   3.589   5.548 -0.9551  0.0135  0.8424
  127OSM    H7T13507   5.378   3.528   5.449  0.7826 -0.1540 -0.1214
  127OSM    C8S13508   5.274   3.372   5.552  0.1654 -0.1760  0.4570
  127OSM    H8S13509   5.280   3.292   5.475 -1.1661  0.8081 -0.7050
  127OSM    H8T13510   5.174   3.365   5.600 -2.0084  1.5098 -3.3852
  127OSM    C9S13511   5.396   3.364   5.643  0.5482  0.3628 -0.1615
  127OSM    H9S13512   5.419   3.465   5.684 -1.2792  0.4199  0.8472
  127OSM    H9T13513   5.480   3.338   5.576  1.7431  2.3437  0.4640
  127OSM   C10S13514   5.382   3.261   5.757 -0.0434 -0.0389  0.7054
  127OSM   H10S13515   5.350   3.163   5.715 -0.0948  0.2719  0.0071
  127OSM   H10T13516   5.300   3.304   5.818  0.2375  2.0040 -0.2882
  127OSM   C11S13517   5.513   3.250   5.840  0.3496  0.1299  0.3365
  127OSM   H11S13518   5.531   3.350   5.885 -0.4659 -1.0447  3.5579
  127OSM   H11T13519   5.598   3.234   5.770 -0.7129  1.5458 -1.3637
  127OSM   C12S13520   5.514   3.143   5.946  0.2150 -0.1871 -0.4073
  127OSM   H12S13521   5.621   3.116   5.965 -0.0502 -0.9013  0.1335
  127OSM   H12T13522   5.463   3.047   5.926 -0.0593  0.1603 -1.4441
  127OSM   C13S13523   5.476   3.196   6.083  0.5400 -0.4598 -0.0864
  127OSM   H13S13524   5.373   3.238   6.080  1.1521  1.1796  0.4429
  127OSM   H13T13525   5.540   3.286   6.096 -0.1303  0.1099 -0.6132
  127OSM   C14S13526   5.494   3.092   6.204  0.5080 -1.3256 -0.0230
  127OSM   H14S13527   5.586   3.031   6.198  1.0914 -0.8586  2.9523
  127OSM   H14T13528   5.416   3.013   6.192  1.3064 -2.2207  0.5916
  127OSM   C15S13529   5.491   3.145   6.349 -0.2443 -0.3106  0.4682
  127OSM   H15S13530   5.392   3.190   6.370 -0.7295 -1.3701  0.5400
  127OSM   H15T13531   5.565   3.228   6.353  1.5444 -1.8426  0.7063
  127OSM   C16S13532   5.520   3.052   6.458 -0.3452  0.6163 -1.0539
  127OSM   H16S13533   5.517   3.103   6.557  0.4115 -0.4761 -0.4365
  127OSM   H16T13534   5.625   3.017   6.444  0.9486  3.1219  1.4926
  127OSM   C17S13535   5.424   2.936   6.462  0.0567  0.5153 -0.1673
  127OSM   H17S13536   5.429   2.882   6.364 -0.7778 -2.0030  1.0912
  127OSM   H17T13537   5.318   2.970   6.472 -0.0332 -0.3574  2.4747
  127OSM   C18S13538   5.448   2.823   6.563  0.1709 -0.5515 -0.8829
  127OSM   H18S13539   5.407   2.730   6.518  0.1791  0.4105 -3.0008
  127OSM   H18T13540   5.395   2.860   6.654 -0.9496 -1.0896 -1.2902
  127OSM   H18U13541   5.553   2.794   6.582  0.4275 -0.6780 -2.3901
  127OSM    C1F13542   5.404   3.020   5.092 -0.1252 -0.1415 -0.6436
  127OSM     OF13543   5.523   3.025   5.079  0.1767 -0.0288 -0.1286
  127OSM    C2F13544   5.331   2.899   5.147  0.1998 -0.2978  1.2759
  127OSM    H2F13545   5.331   2.828   5.062  0.0257  0.8976  0.2515
  127OSM    H2G13546   5.230   2.928   5.184  0.3611  0.4194  1.1676
  127OSM    C3F13547   5.419   2.848   5.266 -0.4814 -1.1746  0.0812
  127OSM    H3F13548   5.419   2.929   5.341 -0.0535 -0.4516 -0.6922
  127OSM    H3G13549   5.520   2.814   5.237 -0.2462 -0.1372 -0.3298
  127OSM    C4F13550   5.354   2.722   5.327  0.0235 -0.5442  0.1169
  127OSM    H4F13551   5.337   2.658   5.238 -1.3422  0.1046 -0.1095
  127OSM    H4G13552   5.257   2.745   5.377 -1.1376  0.9036 -2.5963
  127OSM    C5F13553   5.451   2.651   5.410 -0.1958  0.3054  0.1156
  127OSM    H5F13554   5.470   2.717   5.497 -2.8050 -0.8130  1.6266
  127OSM    H5G13555   5.552   2.628   5.369  0.1598  0.2414  1.0122
  127OSM    C6F13556   5.398   2.520   5.472  0.1948  0.1488 -0.3561
  127OSM    H6F13557   5.373   2.442   5.398  1.3215 -1.9541  1.3684
  127OSM    H6G13558   5.305   2.538   5.531  0.4575  1.1544 -0.2289
  127OSM    C7F13559   5.495   2.467   5.579 -0.0534 -0.2966 -0.4173
  127OSM    H7F13560   5.594   2.484   5.533 -1.1358  0.6431 -2.5499
  127OSM    H7G13561   5.479   2.359   5.598 -1.4335 -0.2842 -1.3154
  127OSM    C8F13562   5.483   2.533   5.719  0.8902 -0.0255 -0.1275
  127OSM    H8F13563   5.377   2.531   5.753 -0.5518  4.6636 -3.2636
  127OSM    H8G13564   5.513   2.640   5.707 -1.1465  0.4724 -1.2692
  127OSM    C9F13565   5.569   2.469   5.828  0.4951  0.3284  0.5551
  127OSM    H9F13566   5.639   2.397   5.785 -0.1550  0.1533 -0.2414
  127OSM   C10F13567   5.582   2.502   5.954  0.8226 -0.1405  0.1363
  127OSM   H10F13568   5.649   2.439   6.015  2.4683  2.5265  1.2530
  127OSM   C11F13569   5.504   2.607   6.026  0.6487 -0.1458 -0.2515
  127OSM   H11F13570   5.433   2.564   6.099 -2.5536 -0.4079 -3.2184
  127OSM   H11G13571   5.438   2.660   5.953 -0.0656 -0.6333  0.0352
  127OSM   C12F13572   5.600   2.703   6.106 -0.6640 -0.1264 -0.3518
  127OSM   H12F13573   5.536   2.776   6.160 -0.0403  0.9965 -1.0899
  127OSM   H12G13574   5.657   2.767   6.035 -1.0767 -0.4650 -0.9996
  127OSM   C13F13575   5.696   2.652   6.218 -0.7060 -0.2443  0.0019
  127OSM   H13F13576   5.753   2.569   6.172  0.1476 -0.0858  0.7430
  127OSM   H13G13577   5.642   2.606   6.304  0.3331  0.8899  1.3146
  127OSM   C14F13578   5.793   2.758   6.265  0.7178 -0.4526 -0.0842
  127OSM   H14F13579   5.739   2.843   6.313  2.4310  1.6998 -1.7367
  127OSM   H14G13580   5.840   2.804   6.175 -0.2193  1.1095  0.1808
  127OSM   C15F13581   5.908   2.702   6.355  0.0181 -0.2256  0.0290
  127OSM   H15F13582   5.984   2.782   6.345  0.9899 -1.1277  0.0683
  127OSM   H15G13583   5.954   2.624   6.291 -2.7102 -0.7061 -1.4988
  127OSM   C16F13584   5.869   2.673   6.495  0.7636  0.7257 -0.7232
  127OSM   H16F13585   5.951   2.615   6.544  0.0191  1.9467  2.2112
  127OSM   H16G13586   5.790   2.595   6.506  2.1716 -0.4604  2.5625
  127OSM   C17F13587   5.855   2.801   6.582  0.7650 -0.4480 -0.2671
  127OSM   H17F13588   5.764   2.853   6.546 -0.4292 -1.1850  1.5638
  127OSM   H17G13589   5.939   2.872   6.561  1.6577 -0.8040  1.8791
  127OSM   C18F13590   5.839   2.776   6.724  0.1012  1.0313 -0.5662
  127OSM   H18F13591   5.930   2.718   6.753 -0.7601  0.6762  1.6131
  127OSM   H18G13592   5.752   2.709   6.744  1.9949 -2.2344 -2.4013
  127OSM   H18H13593   5.830   2.869   6.784 -0.6423 -0.6639  2.1758
  128OSM      N13594   0.698   1.037   4.326 -0.0290  0.2310  0.1746
  128OSM    C1513595   0.771   1.162   4.300 -0.0388  0.4874  0.1242
  128OSM   H15A13596   0.793   1.207   4.396 -1.1767  1.5623 -0.0854
  128OSM   H15B13597   0.704   1.229   4.249  0.8127  0.1417 -1.5288
  128OSM   H15C13598   0.867   1.158   4.250 -0.4853  0.8883 -0.7769
  128OSM    C1413599   0.611   1.001   4.213  0.1216 -0.1184 -0.5197
  128OSM   H14A13600   0.514   1.049   4.209 -0.1793 -0.7827 -1.6773
  128OSM   H14B13601   0.596   0.894   4.222 -0.0835 -0.1413 -1.1252
  128OSM   H14C13602   0.655   1.018   4.116  0.4436  1.1323 -0.1692
  128OSM    C1313603   0.792   0.927   4.342 -0.9688 -0.0939  0.5714
  128OSM   H13A13604   0.876   0.960   4.402 -0.4505  0.0218 -0.2002
  128OSM   H13B13605   0.837   0.889   4.251 -1.8249  4.0659 -1.8287
  128OSM   H13C13606   0.742   0.842   4.384  0.3797 -0.8922  0.6327
  128OSM    C1213607   0.618   1.065   4.455  0.2369  0.7284 -0.1275
  128OSM   H12A13608   0.557   1.153   4.442  1.3170  1.3210 -1.3883
  128OSM   H12B13609   0.684   1.097   4.535 -0.2780 -1.4469  1.2774
  128OSM    C1113610   0.533   0.942   4.507 -0.2626 -0.3406 -0.0732
  128OSM   H11A13611   0.513   0.962   4.614 -1.7391 -1.2924 -0.1458
  128OSM   H11B13612   0.600   0.854   4.509 -0.5659 -0.5719 -0.1082
  128OSM      P13613   0.291   1.000   4.444  0.0859 -0.1695  0.7370
  128OSM    O1313614   0.296   1.099   4.335  0.6906 -0.0207 -0.0368
  128OSM    O1413615   0.171   0.911   4.446 -0.1748  0.3054 -0.5419
  128OSM    O1113616   0.308   1.080   4.580  0.2287  0.0235  0.1265
  128OSM    O1213617   0.419   0.921   4.425 -0.3499 -0.0252 -0.0741
  128OSM    C1S13618   0.215   1.190   4.603  0.9410  0.7907 -0.3008
  128OSM    H1S13619   0.122   1.171   4.546  1.7771 -3.0045 -0.6453
  128OSM    H1T13620   0.253   1.291   4.574  1.1237  0.6673 -0.4902
  128OSM     NF13621   0.071   1.287   4.775 -0.0650 -0.2968 -0.3504
  128OSM    HNF13622   0.083   1.370   4.829  0.0487 -1.4683  1.5126
  128OSM    C2S13623   0.181   1.195   4.753 -0.2954  0.0102 -0.1402
  128OSM    H2S13624   0.153   1.094   4.789 -0.7118  0.3217  0.4501
  128OSM    C3S13625   0.314   1.237   4.827 -0.3978 -0.5722  0.3236
  128OSM    H3S13626   0.349   1.333   4.784  1.5243  0.0059  2.9448
  128OSM     O313627   0.433   1.166   4.799 -0.4943  0.0568 -0.2647
  128OSM    HO313628   0.427   1.151   4.705 -1.0093 -2.6404  0.1237
  128OSM    C4S13629   0.300   1.249   4.975 -1.2018  0.5513  0.2321
  128OSM    H4S13630   0.257   1.161   5.027 -0.8047  1.0422  1.4274
  128OSM    C5S13631   0.328   1.359   5.047  0.2031  0.2424 -0.3545
  128OSM    H5S13632   0.371   1.451   5.003 -0.2819  0.2395 -0.8535
  128OSM    C6S13633   0.331   1.369   5.193  0.1903 -0.4610 -0.4201
  128OSM    H6S13634   0.423   1.415   5.236 -0.7870 -0.7054  2.1254
  128OSM    H6T13635   0.314   1.271   5.244  0.3654 -0.8942 -1.1878
  128OSM    C7S13636   0.222   1.467   5.246  0.1435 -0.6921  0.2513
  128OSM    H7S13637   0.125   1.443   5.198 -0.7146  0.0278  1.5672
  128OSM    H7T13638   0.241   1.571   5.211 -0.8334 -0.5469  0.1321
  128OSM    C8S13639   0.220   1.458   5.398 -0.0777 -0.1877  0.2375
  128OSM    H8S13640   0.319   1.495   5.433  0.6874 -0.2900 -1.6804
  128OSM    H8T13641   0.218   1.352   5.432  1.1363 -0.4566 -0.4477
  128OSM    C9S13642   0.104   1.535   5.462 -0.2594 -0.5963  0.2513
  128OSM    H9S13643   0.007   1.510   5.414 -0.7087 -0.7566  1.2163
  128OSM    H9T13644   0.132   1.641   5.447  1.7249 -1.0855  0.1931
  128OSM   C10S13645   0.085   1.485   5.600  0.4401  0.0042 -0.0161
  128OSM   H10S13646   0.047   1.381   5.601  1.6649 -0.4635 -0.2584
  128OSM   H10T13647   0.012   1.548   5.655  0.8674  0.2744  0.2539
  128OSM   C11S13648   0.196   1.488   5.701 -0.3434  0.1576  0.4250
  128OSM   H11S13649   0.221   1.596   5.711  1.1705  0.3136 -3.4347
  128OSM   H11T13650   0.280   1.439   5.647 -1.2549 -0.9103 -0.0522
  128OSM   C12S13651   0.167   1.433   5.838  0.1697  0.4260  0.3690
  128OSM   H12S13652   0.133   1.327   5.835  3.9191 -0.9505  0.3222
  128OSM   H12T13653   0.079   1.483   5.883  0.1964  1.0432 -0.2579
  128OSM   C13S13654   0.281   1.459   5.933 -0.2348  0.0075  0.0102
  128OSM   H13S13655   0.336   1.555   5.934  0.8296 -0.5901  0.0719
  128OSM   H13T13656   0.354   1.382   5.900 -2.8886 -2.2573 -1.0145
  128OSM   C14S13657   0.255   1.416   6.077  0.3046 -0.2168 -0.6320
  128OSM   H14S13658   0.173   1.342   6.081 -0.5709  0.6644 -1.5737
  128OSM   H14T13659   0.218   1.502   6.138 -6.1600 -0.9757 -2.7825
  128OSM   C15S13660   0.377   1.343   6.139  0.5291  0.5201 -0.4601
  128OSM   H15S13661   0.461   1.410   6.110 -0.5585  1.5365 -1.3676
  128OSM   H15T13662   0.387   1.240   6.099  1.4648  0.1634  0.6512
  128OSM   C16S13663   0.380   1.340   6.293  0.0679 -0.3495  0.5553
  128OSM   H16S13664   0.340   1.437   6.331  1.2100  0.6107 -0.5845
  128OSM   H16T13665   0.489   1.328   6.310  0.2846 -1.2153 -1.2458
  128OSM   C17S13666   0.296   1.229   6.360 -0.7011 -0.3842  0.0962
  128OSM   H17S13667   0.297   1.145   6.287  0.2439 -0.9080  0.6894
  128OSM   H17T13668   0.195   1.273   6.377 -1.0285 -0.8869 -0.4820
  128OSM   C18S13669   0.365   1.179   6.486  0.7172 -0.0490  0.2116
  128OSM   H18S13670   0.356   1.261   6.560 -2.5709 -0.6851  0.6916
  128OSM   H18T13671   0.471   1.150   6.476  0.5235 -0.4566 -0.7845
  128OSM   H18U13672   0.311   1.090   6.525 -1.4287  1.1970  0.2473
  128OSM    C1F13673  -0.051   1.270   4.731  0.5029  0.2432 -0.0378
  128OSM     OF13674  -0.069   1.172   4.664  0.5357 -0.1419  0.2112
  128OSM    C2F13675  -0.163   1.369   4.762  0.7841 -0.3594  0.3442
  128OSM    H2F13676  -0.221   1.375   4.667  2.2164  0.1598 -0.5297
  128OSM    H2G13677  -0.117   1.468   4.784  1.2523 -0.2879 -0.8457
  128OSM    C3F13678  -0.252   1.322   4.874 -0.2943  0.2352  0.3010
  128OSM    H3F13679  -0.321   1.248   4.827  1.2672 -2.3965  1.9191
  128OSM    H3G13680  -0.318   1.404   4.911  1.5668  2.5032 -1.1514
  128OSM    C4F13681  -0.178   1.271   4.999 -1.1247  0.0138  0.9668
  128OSM    H4F13682  -0.155   1.362   5.058 -0.0804  0.8138 -0.5786
  128OSM    H4G13683  -0.086   1.211   4.982 -0.3313  1.7776 -1.6466
  128OSM    C5F13684  -0.262   1.173   5.073  0.5380  1.0201 -0.0170
  128OSM    H5F13685  -0.280   1.085   5.008  0.7253 -0.6758  2.0892
  128OSM    H5G13686  -0.360   1.217   5.102 -0.8128 -2.3505  0.9966
  128OSM    C6F13687  -0.188   1.136   5.204 -0.3029  0.2950  1.0169
  128OSM    H6F13688  -0.190   1.217   5.279  0.5416 -0.1799  1.5818
  128OSM    H6G13689  -0.080   1.128   5.177 -0.7313 -2.6088 -0.3168
  128OSM    C7F13690  -0.227   1.007   5.268  0.1972 -0.5128  0.1200
  128OSM    H7F13691  -0.201   0.921   5.203  1.3454  0.8376 -1.3153
  128OSM    H7G13692  -0.337   1.014   5.279  0.0778  2.1017 -1.6566
  128OSM    C8F13693  -0.188   0.994   5.416 -0.4012  0.0459  0.0504
  128OSM    H8F13694  -0.249   0.909   5.452 -0.2362  1.2784  3.6261
  128OSM    H8G13695  -0.223   1.089   5.462 -0.6171  0.1456 -0.3116
  128OSM    C9F13696  -0.041   0.961   5.418  0.1283 -0.6961  0.5974
  128OSM    H9F13697   0.004   0.909   5.332  1.5495  0.2178  0.7585
  128OSM   C10F13698   0.046   1.005   5.509  0.2151  0.2046  0.2593
  128OSM   H10F13699   0.149   0.966   5.504  0.2011  0.2967 -1.3607
  128OSM   C11F13700   0.009   1.085   5.627  0.0938 -0.5837  0.2050
  128OSM   H11F13701  -0.077   1.156   5.619 -0.5890 -1.5534 -1.4688
  128OSM   H11G13702   0.092   1.140   5.675 -0.4872 -0.8669  1.6035
  128OSM   C12F13703  -0.049   0.993   5.739  0.0142 -0.8289 -0.4558
  128OSM   H12F13704  -0.132   0.943   5.684 -1.5000  0.7485  0.2966
  128OSM   H12G13705  -0.102   1.055   5.814 -0.5399  1.9919 -2.9855
  128OSM   C13F13706   0.047   0.896   5.805 -0.2474  0.1498 -0.1109
  128OSM   H13F13707   0.127   0.948   5.862 -0.5012  1.5054 -0.9588
  128OSM   H13G13708   0.088   0.821   5.735 -2.7590 -0.7914 -0.6757
  128OSM   C14F13709  -0.039   0.815   5.909 -0.1637 -0.1002 -0.5071
  128OSM   H14F13710  -0.094   0.734   5.855 -0.7222 -0.2233  0.2377
  128OSM   H14G13711  -0.118   0.880   5.953  0.0419  1.6970 -2.6222
  128OSM   C15F13712   0.036   0.752   6.025  0.1511  0.0244 -0.7598
  128OSM   H15F13713   0.106   0.814   6.085  0.0272 -0.8636  0.3346
  128OSM   H15G13714   0.114   0.695   5.970  1.9220  2.7938 -1.3428
  128OSM   C16F13715  -0.045   0.664   6.126  0.3328 -0.3314  0.0870
  128OSM   H16F13716  -0.116   0.601   6.068 -1.1544  0.9669  0.4333
  128OSM   H16G13717  -0.100   0.740   6.185  0.9059 -0.2657  0.5473
  128OSM   C17F13718   0.027   0.576   6.231  0.4274  0.4158  0.0612
  128OSM   H17F13719   0.079   0.643   6.302  1.1709 -0.9808  0.8646
  128OSM   H17G13720   0.091   0.526   6.155 -1.4696 -0.2330 -1.1747
  128OSM   C18F13721  -0.057   0.481   6.321  0.2476  0.3752  0.0421
  128OSM   H18F13722  -0.114   0.402   6.267 -0.4777  0.7682  0.2141
  128OSM   H18G13723  -0.117   0.549   6.386  3.1731  0.7566  2.5588
  128OSM   H18H13724   0.005   0.426   6.395 -0.5997 -0.9400 -0.1902
  129OSM      N13725   5.790   4.396   4.631  0.3160 -0.4618  0.0921
  129OSM    C1513726   5.826   4.474   4.757 -0.2709 -0.2464  0.5985
  129OSM   H15A13727   5.837   4.579   4.740  3.2229 -0.8930 -2.0720
  129OSM   H15B13728   5.925   4.446   4.788  0.5796 -1.8581 -3.1025
  129OSM   H15C13729   5.755   4.453   4.836  1.8413  0.1043  2.7047
  129OSM    C1413730   5.901   4.420   4.535  0.6770 -0.4087  0.0568
  129OSM   H14A13731   5.935   4.523   4.535 -0.9443  0.1489  0.4358
  129OSM   H14B13732   5.868   4.397   4.435 -0.8800  1.3416  0.1226
  129OSM   H14C13733   5.984   4.357   4.566  1.3355 -0.2364 -1.2619
  129OSM    C1313734   5.792   4.253   4.654  0.2148 -0.1077  0.3818
  129OSM   H13A13735   5.724   4.224   4.733 -1.0781  1.1001 -0.2386
  129OSM   H13B13736   5.891   4.220   4.681  0.7984 -0.4684 -1.9720
  129OSM   H13C13737   5.765   4.202   4.562  0.7091 -0.1395  0.2497
  129OSM    C1213738   5.658   4.444   4.579 -0.3744 -0.5841 -0.3231
  129OSM   H12A13739   5.672   4.548   4.553  0.9799 -0.7013 -0.1327
  129OSM   H12B13740   5.586   4.446   4.660 -0.6967  2.7519 -0.5247
  129OSM    C1113741   5.594   4.378   4.459 -0.2896  0.3476  0.3489
  129OSM   H11A13742   5.668   4.354   4.380  2.6265 -1.8341  3.4042
  129OSM   H11B13743   5.517   4.446   4.417 -1.0871  0.3439  1.7373
  129OSM      P13744   5.403   4.240   4.570 -0.4295 -0.1142 -0.1114
  129OSM    O1313745   5.305   4.326   4.503 -0.5195  0.3258 -0.0185
  129OSM    O1413746   5.367   4.098   4.585  0.4123 -0.0486 -0.0861
  129OSM    O1113747   5.442   4.292   4.715 -0.5888 -0.5890 -0.0641
  129OSM    O1213748   5.533   4.250   4.490  0.3691  0.1272 -0.0814
  129OSM    C1S13749   5.473   4.197   4.821  0.1457  0.7532  0.7055
  129OSM    H1S13750   5.580   4.168   4.806 -0.1354  0.1550 -0.2114
  129OSM    H1T13751   5.411   4.105   4.813  1.6159 -0.2882  0.8276
  129OSM     NF13752   5.532   4.188   5.074  0.5310  0.0136 -0.3594
  129OSM    HNF13753   5.480   4.120   5.125  0.7882  0.7515  0.9549
  129OSM    C2S13754   5.460   4.256   4.967  0.9992 -0.8943 -0.4388
  129OSM    H2S13755   5.504   4.357   4.954  0.7388 -0.9672 -2.0037
  129OSM    C3S13756   5.309   4.281   4.992 -0.1591 -0.3131 -0.5710
  129OSM    H3S13757   5.252   4.186   4.988 -0.4809 -0.1057 -0.9993
  129OSM     O313758   5.245   4.366   4.897  0.1660 -0.2095  0.0498
  129OSM    HO313759   5.299   4.363   4.818 -1.3825 -3.1362 -1.0517
  129OSM    C4S13760   5.284   4.333   5.130  0.5763 -0.5486 -0.5146
  129OSM    H4S13761   5.263   4.247   5.196 -4.6539 -0.2598 -1.3921
  129OSM    C5S13762   5.285   4.459   5.185 -0.7258  0.7123 -0.3631
  129OSM    H5S13763   5.287   4.548   5.120  1.1528  1.3785  0.5370
  129OSM    C6S13764   5.249   4.484   5.331  0.3480 -0.0604 -0.5078
  129OSM    H6S13765   5.154   4.540   5.339  0.6602  0.2973  0.7980
  129OSM    H6T13766   5.322   4.552   5.378 -0.6677 -1.6196  3.7972
  129OSM    C7S13767   5.243   4.364   5.435 -0.0404 -0.0887 -0.2550
  129OSM    H7S13768   5.334   4.302   5.422 -1.3837 -2.6963  1.9186
  129OSM    H7T13769   5.164   4.289   5.412  0.0464 -0.4790  0.6609
  129OSM    C8S13770   5.223   4.416   5.583 -1.3813 -0.2373  0.5793
  129OSM    H8S13771   5.119   4.449   5.604 -2.0482 -2.0371  0.2758
  129OSM    H8T13772   5.287   4.505   5.602 -1.9786  0.5391 -0.8831
  129OSM    C9S13773   5.252   4.295   5.678 -0.4695  0.3209 -0.7876
  129OSM    H9S13774   5.351   4.246   5.667 -1.9076 -2.5088 -2.2469
  129OSM    H9T13775   5.172   4.222   5.652 -1.4480  1.4524 -1.0584
  129OSM   C10S13776   5.236   4.343   5.821  0.4669 -0.2760 -0.3885
  129OSM   H10S13777   5.173   4.435   5.812  0.1055 -0.4759  0.0897
  129OSM   H10T13778   5.329   4.364   5.876  0.0438  1.4114 -0.2554
  129OSM   C11S13779   5.156   4.244   5.908  0.3910 -0.2722 -0.0600
  129OSM   H11S13780   5.228   4.159   5.916 -2.1489 -2.4950  0.4285
  129OSM   H11T13781   5.067   4.201   5.857 -0.5327  0.0993  1.1930
  129OSM   C12S13782   5.151   4.297   6.052 -0.0005  0.7821  1.0836
  129OSM   H12S13783   5.076   4.376   6.073  0.6547  2.0830 -1.1226
  129OSM   H12T13784   5.249   4.345   6.072  0.5664  0.3932 -0.6290
  129OSM   C13S13785   5.122   4.185   6.158 -0.4416  0.0592 -0.3049
  129OSM   H13S13786   5.194   4.109   6.122  0.4366  1.6397 -2.0986
  129OSM   H13T13787   5.022   4.139   6.142  0.0487 -1.1921  0.1586
  129OSM   C14S13788   5.163   4.228   6.299 -0.3875 -0.2937 -0.2482
  129OSM   H14S13789   5.111   4.315   6.345  1.5912  0.7575  0.1419
  129OSM   H14T13790   5.271   4.250   6.286 -0.7082  2.9635  1.4945
  129OSM   C15S13791   5.139   4.106   6.391  0.5936 -0.2763  0.5433
  129OSM   H15S13792   5.191   4.021   6.342  0.3750 -0.1131  0.0186
  129OSM   H15T13793   5.031   4.087   6.377  0.5119 -0.1960  1.0322
  129OSM   C16S13794   5.190   4.107   6.539  0.3606 -0.1034 -0.1335
  129OSM   H16S13795   5.111   4.158   6.599  0.7833  0.7444 -0.2746
  129OSM   H16T13796   5.288   4.158   6.547 -1.0541  2.9218 -0.5566
  129OSM   C17S13797   5.197   3.966   6.595 -0.0967  0.3136  0.5063
  129OSM   H17S13798   5.265   3.913   6.525  0.6081  2.5000 -0.5793
  129OSM   H17T13799   5.103   3.911   6.572  1.6933 -2.3979 -0.9009
  129OSM   C18S13800   5.251   3.967   6.734 -0.5906  0.0625  0.0403
  129OSM   H18S13801   5.268   3.863   6.771  2.2287  1.0582  1.8835
  129OSM   H18T13802   5.167   4.000   6.799  0.2305 -1.4283  1.9665
  129OSM   H18U13803   5.339   4.032   6.755  0.3414 -0.4687 -2.0082
  129OSM    C1F13804   5.660   4.178   5.073  0.1147  0.0041 -0.1267
  129OSM     OF13805   5.730   4.241   4.993  0.0773 -0.8359 -0.0643
  129OSM    C2F13806   5.711   4.094   5.182  0.2770  0.1006 -0.1765
  129OSM    H2F13807   5.668   3.992   5.165 -1.2289  0.5992  0.4414
  129OSM    H2G13808   5.662   4.130   5.275 -0.9522 -1.9025  0.0180
  129OSM    C3F13809   5.867   4.071   5.172 -0.5690  0.3093  0.2307
  129OSM    H3F13810   5.918   4.166   5.196  0.2915 -0.3734  1.1596
  129OSM    H3G13811   5.901   4.025   5.076  2.5155 -0.7912  1.7343
  129OSM    C4F13812   5.927   3.983   5.284  0.1496  0.1998  1.3496
  129OSM    H4F13813   6.034   3.959   5.269 -0.8247 -2.3666 -3.6334
  129OSM    H4G13814   5.875   3.886   5.267 -1.0207  1.4711 -4.9041
  129OSM    C5F13815   5.913   4.041   5.424 -0.2844  0.0729 -0.1972
  129OSM    H5F13816   5.809   4.077   5.435 -0.2861  0.0173 -0.0256
  129OSM    H5G13817   5.973   4.135   5.422 -0.4712  0.1742 -1.5235
  129OSM    C6F13818   5.975   3.959   5.536  0.2756  0.1581  0.2348
  129OSM    H6F13819   6.080   3.931   5.514 -0.5374 -3.2659  0.1524
  129OSM    H6G13820   5.933   3.857   5.528  0.2922  0.2429 -1.1556
  129OSM    C7F13821   5.946   4.029   5.660  0.0464 -0.0380 -0.4272
  129OSM    H7F13822   5.837   4.045   5.670  0.1529 -0.0090  1.0021
  129OSM    H7G13823   5.974   4.137   5.651 -1.6352  0.2861 -2.3594
  129OSM    C8F13824   5.994   3.963   5.793 -0.1818  0.2163  0.3901
  129OSM    H8F13825   6.102   3.938   5.785 -0.5694 -1.1294 -1.1760
  129OSM    H8G13826   5.948   3.862   5.787 -1.2536  0.7965 -2.4490
  129OSM    C9F13827   5.972   4.049   5.912 -0.0378 -0.4778 -1.1877
  129OSM    H9F13828   6.038   4.136   5.918 -0.3556 -0.1990 -1.6770
  129OSM   C10F13829   5.882   4.019   6.006  0.2903 -0.1461  0.9974
  129OSM   H10F13830   5.860   4.085   6.090 -2.1763 -1.3399  1.3689
  129OSM   C11F13831   5.796   3.902   6.022  0.5925 -0.3908 -0.2453
  129OSM   H11F13832   5.774   3.868   5.918  0.6790  0.7053 -0.6266
  129OSM   H11G13833   5.703   3.936   6.071  0.9681  0.2898  0.0069
  129OSM   C12F13834   5.854   3.789   6.105 -0.0855  0.1238  0.0891
  129OSM   H12F13835   5.957   3.771   6.070  0.8973  0.2932  2.6963
  129OSM   H12G13836   5.780   3.707   6.093 -2.0982  1.7637  0.4737
  129OSM   C13F13837   5.869   3.824   6.251 -0.6970 -0.2969 -0.1888
  129OSM   H13F13838   5.778   3.872   6.292  1.0482  2.4053  0.8545
  129OSM   H13G13839   5.947   3.902   6.264 -0.2331 -0.5664 -1.2763
  129OSM   C14F13840   5.910   3.699   6.334 -0.3553  0.7818  0.3088
  129OSM   H14F13841   6.010   3.683   6.290 -0.4523 -0.2566  0.4427
  129OSM   H14G13842   5.836   3.620   6.313 -0.9103  0.8729  1.7658
  129OSM   C15F13843   5.934   3.725   6.472  0.2159 -0.2653 -0.5591
  129OSM   H15F13844   5.837   3.754   6.517  0.5007 -0.1756  0.0124
  129OSM   H15G13845   5.997   3.814   6.490 -0.3156  0.2472 -1.1958
  129OSM   C16F13846   6.001   3.600   6.541 -0.7394  0.6978  0.6877
  129OSM   H16F13847   6.098   3.582   6.489 -1.0743 -1.3453  0.7071
  129OSM   H16G13848   5.936   3.511   6.530 -0.1773  0.4215 -0.5521
  129OSM   C17F13849   6.045   3.603   6.689  0.4555  0.8080  0.4308
  129OSM   H17F13850   6.098   3.700   6.707  0.3349  1.4000 -2.0097
  129OSM   H17G13851   6.102   3.511   6.713  0.2182  0.0712 -1.6085
  129OSM   C18F13852   5.918   3.608   6.781 -0.3058 -0.1933  0.5895
  129OSM   H18F13853   5.845   3.538   6.736  0.7369  0.6511 -2.7096
  129OSM   H18G13854   5.869   3.708   6.788 -2.9961 -1.4058  0.3204
  129OSM   H18H13855   5.951   3.568   6.879  0.3047 -2.4304 -0.4694
  130OSM      N13856   4.021   0.116   3.850  0.0892  0.0744  0.4255
  130OSM    C1513857   4.063  -0.017   3.782 -0.4806 -0.4166 -0.1113
  130OSM   H15A13858   3.974  -0.067   3.747 -1.2945 -1.6974  3.3558
  130OSM   H15B13859   4.106  -0.089   3.851 -1.5171 -1.3738 -0.4326
  130OSM   H15C13860   4.131   0.006   3.702  2.2484  2.1034  2.6450
  130OSM    C1413861   4.143   0.191   3.879 -0.4417  0.2794 -0.6173
  130OSM   H14A13862   4.194   0.140   3.959 -0.7028 -1.4100 -1.4963
  130OSM   H14B13863   4.124   0.287   3.926 -0.2618 -0.6280  1.4338
  130OSM   H14C13864   4.208   0.202   3.794  1.5089  0.2106  0.7807
  130OSM    C1313865   3.932   0.194   3.750 -0.6898  0.1474  0.4264
  130OSM   H13A13866   3.915   0.296   3.781 -0.1287 -0.2280  2.0595
  130OSM   H13B13867   3.837   0.143   3.745 -0.7608  0.3790 -0.9960
  130OSM   H13C13868   3.982   0.207   3.655  0.0301  3.4232  1.1425
  130OSM    C1213869   3.948   0.098   3.986  0.6097 -0.0332 -0.0361
  130OSM   H12A13870   4.019   0.051   4.053  0.0242 -2.2293 -0.8801
  130OSM   H12B13871   3.874   0.021   3.973  1.3343 -1.2163  2.2180
  130OSM    C1113872   3.882   0.215   4.061  0.6978  0.7865 -0.4479
  130OSM   H11A13873   3.845   0.172   4.156  1.3470 -0.5194 -0.7736
  130OSM   H11B13874   3.796   0.246   3.997  0.1137  0.4706  0.1732
  130OSM      P13875   3.945   0.450   4.135  0.2834 -0.3471  0.1585
  130OSM    O1313876   4.068   0.526   4.159  0.2225  0.6260 -0.1027
  130OSM    O1413877   3.847   0.510   4.037  0.0507 -0.1654 -0.6922
  130OSM    O1113878   3.875   0.415   4.277  0.1548 -0.7386  0.0029
  130OSM    O1213879   3.983   0.310   4.082  0.6695 -0.1656 -0.4867
  130OSM    C1S13880   3.947   0.350   4.379  1.2233 -0.4187  0.0947
  130OSM    H1S13881   4.047   0.396   4.397  1.7829 -0.7455 -1.9494
  130OSM    H1T13882   3.974   0.245   4.356  2.1968  0.1425 -1.5172
  130OSM     NF13883   3.960   0.296   4.626 -0.8472  0.1178  0.3511
  130OSM    HNF13884   3.929   0.205   4.654 -3.3928  0.7216 -0.2492
  130OSM    C2S13885   3.869   0.346   4.519  0.2726  0.0537  0.6318
  130OSM    H2S13886   3.842   0.452   4.539 -3.1706 -0.5125 -0.3467
  130OSM    C3S13887   3.735   0.267   4.513 -0.6729 -0.4623  0.3596
  130OSM    H3S13888   3.768   0.162   4.501  1.8140  0.4568 -2.2032
  130OSM     O313889   3.668   0.298   4.396 -0.0966 -0.0373  0.4937
  130OSM    HO313890   3.738   0.337   4.342 -0.2517  2.7700  2.1136
  130OSM    C4S13891   3.654   0.282   4.637  0.3498  0.2835  0.2199
  130OSM    H4S13892   3.689   0.223   4.724  1.6153 -1.1298 -1.1759
  130OSM    C5S13893   3.559   0.372   4.660 -0.2205  0.0255  0.5060
  130OSM    H5S13894   3.526   0.438   4.579 -0.5201  0.1755  0.7460
  130OSM    C6S13895   3.488   0.394   4.792 -0.2727 -0.2814 -0.2309
  130OSM    H6S13896   3.381   0.423   4.783 -0.7438 -1.8972 -0.1030
  130OSM    H6T13897   3.544   0.482   4.830  0.7407  0.2467 -2.7227
  130OSM    C7S13898   3.511   0.281   4.893  0.4187  0.1487 -0.1296
  130OSM    H7S13899   3.619   0.279   4.921  0.2338  0.8880  0.6798
  130OSM    H7T13900   3.488   0.176   4.863  2.2679  0.1849 -1.8890
  130OSM    C8S13901   3.449   0.314   5.027  0.0435  0.1249 -0.0424
  130OSM    H8S13902   3.344   0.278   5.018 -0.7158  1.9026  1.1407
  130OSM    H8T13903   3.468   0.421   5.052  0.9802  0.1762 -0.9018
  130OSM    C9S13904   3.493   0.215   5.133 -0.4928  0.3734 -0.1127
  130OSM    H9S13905   3.604   0.216   5.125 -0.3209  0.0626  1.8374
  130OSM    H9T13906   3.448   0.114   5.125 -0.6822  0.5946 -2.7186
  130OSM   C10S13907   3.482   0.275   5.277  0.5043  0.1904 -0.1424
  130OSM   H10S13908   3.376   0.302   5.294  0.0970 -2.3129  1.7924
  130OSM   H10T13909   3.553   0.361   5.281  1.2135 -0.4283  1.1782
  130OSM   C11S13910   3.521   0.167   5.380  0.2352 -0.1823 -0.1332
  130OSM   H11S13911   3.624   0.133   5.356 -0.1522 -1.6895  0.2543
  130OSM   H11T13912   3.451   0.083   5.361 -1.0753  1.3098 -2.3648
  130OSM   C12S13913   3.511   0.208   5.525 -0.3576 -0.7161  0.2284
  130OSM   H12S13914   3.407   0.229   5.559  0.2668 -0.8462  2.2907
  130OSM   H12T13915   3.553   0.310   5.534 -1.5456 -0.2361  0.6054
  130OSM   C13S13916   3.561   0.106   5.624 -0.6183  0.3739 -1.0460
  130OSM   H13S13917   3.654   0.061   5.583 -0.1795  1.1355 -0.9158
  130OSM   H13T13918   3.494   0.020   5.645  0.2661 -0.0806  0.0197
  130OSM   C14S13919   3.606   0.153   5.762 -0.1606 -0.3830  0.6741
  130OSM   H14S13920   3.536   0.234   5.788 -1.0683 -0.6467 -0.8319
  130OSM   H14T13921   3.700   0.211   5.760 -0.9274  1.0145  2.3908
  130OSM   C15S13922   3.615   0.046   5.873  0.1912  0.2473  0.7990
  130OSM   H15S13923   3.512   0.002   5.873 -0.4762  1.5886 -1.8769
  130OSM   H15T13924   3.637   0.099   5.968 -0.9279  0.7681  0.7878
  130OSM   C16S13925   3.725  -0.058   5.835  0.0757 -0.5217 -0.0807
  130OSM   H16S13926   3.815  -0.002   5.801  0.1630 -0.1460  0.7484
  130OSM   H16T13927   3.676  -0.105   5.747  0.1214 -2.8888  1.0702
  130OSM   C17S13928   3.754  -0.159   5.939  0.2712  0.7855  0.4553
  130OSM   H17S13929   3.814  -0.241   5.895 -1.5178  0.7621 -2.1624
  130OSM   H17T13930   3.654  -0.201   5.961 -0.4357  1.3519 -1.4628
  130OSM   C18S13931   3.813  -0.108   6.063  0.1556 -0.0175  0.0932
  130OSM   H18S13932   3.852  -0.198   6.115 -0.6028 -0.5921 -0.2945
  130OSM   H18T13933   3.733  -0.065   6.127  1.6129 -1.1234  2.8180
  130OSM   H18U13934   3.897  -0.036   6.057  0.3910 -0.3154 -0.2780
  130OSM    C1F13935   4.076   0.351   4.655  0.2687 -0.3565 -0.7569
  130OSM     OF13936   4.091   0.470   4.632  0.0639  0.1084  0.0213
  130OSM    C2F13937   4.181   0.261   4.715  0.6895  0.0021  0.3393
  130OSM    H2F13938   4.279   0.287   4.671  2.2010 -1.9328  2.3518
  130OSM    H2G13939   4.162   0.159   4.677  1.4646  0.2939 -0.8697
  130OSM    C3F13940   4.182   0.258   4.868 -0.0966 -0.3877  0.5239
  130OSM    H3F13941   4.216   0.359   4.901  1.5173 -0.1545 -1.6085
  130OSM    H3G13942   4.263   0.190   4.901 -1.4032 -1.7453  1.0159
  130OSM    C4F13943   4.045   0.222   4.946 -0.3484  0.0367 -0.7314
  130OSM    H4F13944   4.006   0.126   4.908  0.6360 -0.2642 -1.0056
  130OSM    H4G13945   3.966   0.299   4.932 -1.9167 -1.2308  0.7146
  130OSM    C5F13946   4.075   0.214   5.102 -0.5667 -0.1541 -0.0523
  130OSM    H5F13947   4.123   0.309   5.133 -0.6129 -0.1250 -0.0681
  130OSM    H5G13948   4.148   0.134   5.127 -0.8854 -1.3156 -2.4554
  130OSM    C6F13949   3.945   0.200   5.175  0.2662  0.0666  0.0944
  130OSM    H6F13950   3.869   0.262   5.124 -0.9777 -1.0064  0.5811
  130OSM    H6G13951   3.928   0.217   5.284 -1.2557 -2.0396  0.2446
  130OSM    C7F13952   3.883   0.061   5.162 -0.2893  0.2525 -0.6666
  130OSM    H7F13953   3.902   0.023   5.059  2.4157  1.0440 -0.5415
  130OSM    H7G13954   3.773   0.060   5.171 -0.1730 -0.6366  1.0196
  130OSM    C8F13955   3.939  -0.052   5.254 -1.1625 -0.0614  1.0275
  130OSM    H8F13956   4.043  -0.028   5.285 -1.2890  0.6558  0.9191
  130OSM    H8G13957   3.948  -0.137   5.183 -1.0366 -0.9411  2.0619
  130OSM    C9F13958   3.848  -0.095   5.371 -0.3359  0.3394  0.3302
  130OSM    H9F13959   3.755  -0.145   5.342  0.1869 -2.2634  2.7087
  130OSM   C10F13960   3.877  -0.075   5.502 -0.2927  0.6756  0.0151
  130OSM   H10F13961   3.798  -0.103   5.574 -1.2395 -1.0489 -1.5972
  130OSM   C11F13962   3.999  -0.018   5.560 -0.5934 -1.2004 -0.5532
  130OSM   H11F13963   3.972   0.054   5.640 -1.6178 -2.9973  0.7760
  130OSM   H11G13964   4.058   0.038   5.484  0.2552 -1.8320 -0.3640
  130OSM   C12F13965   4.090  -0.125   5.618 -0.3668 -0.2300 -0.0098
  130OSM   H12F13966   4.179  -0.083   5.669 -0.5822 -0.4463  0.5580
  130OSM   H12G13967   4.116  -0.185   5.528 -0.8532  0.6684 -0.7702
  130OSM   C13F13968   4.029  -0.207   5.730  0.7426  0.5441  0.1749
  130OSM   H13F13969   3.940  -0.266   5.698  2.3624 -1.4868 -0.7961
  130OSM   H13G13970   4.001  -0.134   5.809 -0.1470  2.2131 -1.5809
  130OSM   C14F13971   4.137  -0.302   5.775 -0.5393 -0.3138  0.1643
  130OSM   H14F13972   4.228  -0.253   5.815 -0.1718 -1.7926  1.2703
  130OSM   H14G13973   4.168  -0.366   5.689  0.4399 -1.5002  1.3581
  130OSM   C15F13974   4.114  -0.415   5.872 -0.2415 -0.0984 -0.4715
  130OSM   H15F13975   4.013  -0.457   5.850  0.0472 -0.0371 -2.0471
  130OSM   H15G13976   4.112  -0.387   5.979 -1.2548 -0.0726 -0.4903
  130OSM   C16F13977   4.207  -0.536   5.853 -0.6683 -0.4041  0.2570
  130OSM   H16F13978   4.311  -0.505   5.876 -0.1502 -0.5527 -1.6617
  130OSM   H16G13979   4.203  -0.564   5.745  0.5817 -2.8832  0.7830
  130OSM   C17F13980   4.172  -0.652   5.934  0.4479 -0.3941  0.3299
  130OSM   H17F13981   4.226  -0.742   5.896  1.0217 -0.2337  0.7557
  130OSM   H17G13982   4.065  -0.667   5.908 -0.1877  3.8046 -0.1237
  130OSM   C18F13983   4.208  -0.646   6.087  0.0027 -0.4965  0.3530
  130OSM   H18F13984   4.156  -0.559   6.132 -3.9759 -0.7350 -3.2598
  130OSM   H18G13985   4.317  -0.622   6.091 -0.5826  2.4585  1.9589
  130OSM   H18H13986   4.188  -0.748   6.124  1.7752 -0.7406  0.7493
  131OSM      N13987   5.786   0.515   4.167  0.7323  0.6484  0.7096
  131OSM    C1513988   5.752   0.431   4.049 -0.7265  0.6926 -0.3052
  131OSM   H15A13989   5.728   0.489   3.961  3.1859  2.6807 -0.2803
  131OSM   H15B13990   5.675   0.359   4.072 -0.0908 -0.1801 -0.8690
  131OSM   H15C13991   5.837   0.367   4.029 -0.9504 -0.7708  2.8141
  131OSM    C1413992   5.885   0.612   4.125  0.1480  0.0249 -0.0119
  131OSM   H14A13993   5.904   0.685   4.203  4.0603 -1.5382  0.7229
  131OSM   H14B13994   5.860   0.659   4.031 -0.6850 -0.2449  0.0619
  131OSM   H14C13995   5.984   0.572   4.114  0.0394 -0.2676  0.0770
  131OSM    C1313996   5.660   0.583   4.205  0.7716 -0.0124 -0.1640
  131OSM   H13A13997   5.622   0.641   4.124 -0.6518  0.0848  0.5451
  131OSM   H13B13998   5.677   0.648   4.290 -0.9213  1.3732 -0.8291
  131OSM   H13C13999   5.581   0.515   4.234  0.1860  1.4618  1.9373
  131OSM    C1214000   5.836   0.432   4.286  0.0720  0.0594 -0.8228
  131OSM   H12A14001   5.913   0.368   4.246 -0.1770 -1.1407  0.5405
  131OSM   H12B14002   5.758   0.373   4.333  0.2020  0.6257  0.1271
  131OSM    C1114003   5.913   0.508   4.398 -0.5903  0.3074 -0.0039
  131OSM   H11A14004   5.923   0.452   4.493  0.3640  1.8372  0.8475
  131OSM   H11B14005   5.844   0.589   4.430 -1.1777 -0.1048 -0.2174
  131OSM      P14006   6.163   0.471   4.332 -0.1505  0.0176  0.3841
  131OSM    O1314007   6.127   0.334   4.303  0.4494  0.3375  0.2820
  131OSM    O1414008   6.259   0.535   4.239 -0.0321 -0.5694  0.4275
  131OSM    O1114009   6.222   0.468   4.478  0.4495  0.2592  0.4241
  131OSM    O1214010   6.034   0.559   4.345  0.1905 -0.0365  0.0404
  131OSM    C1S14011   6.192   0.560   4.587  0.4492 -0.6823  0.1200
  131OSM    H1S14012   6.135   0.644   4.541  1.8221 -0.6886 -1.7176
  131OSM    H1T14013   6.284   0.598   4.636  0.0895 -0.1669  0.4029
  131OSM     NF14014   6.066   0.599   4.806  0.1435 -0.3467  0.7581
  131OSM    HNF14015   6.080   0.573   4.901  1.1394 -1.7131  0.2706
  131OSM    C2S14016   6.122   0.500   4.711 -0.1076  0.1189 -0.0490
  131OSM    H2S14017   6.029   0.446   4.683 -1.0543  1.8423 -0.4183
  131OSM    C3S14018   6.225   0.401   4.784  0.1929 -0.2481  0.2158
  131OSM    H3S14019   6.307   0.460   4.831 -0.6526 -0.5600  2.1784
  131OSM     O314020   6.277   0.310   4.690 -0.2580  0.6817  0.1698
  131OSM    HO314021   6.276   0.366   4.612  2.1469 -0.3106 -0.6486
  131OSM    C4S14022   6.152   0.321   4.883 -0.0057  0.4846  0.0021
  131OSM    H4S14023   6.107   0.234   4.834 -0.0395 -0.1110  1.0578
  131OSM    C5S14024   6.137   0.334   5.017 -0.9149 -0.1390 -0.2250
  131OSM    H5S14025   6.180   0.415   5.077  1.6534 -1.1972 -0.5090
  131OSM    C6S14026   6.059   0.235   5.095 -0.1619  0.4569  0.4621
  131OSM    H6S14027   5.982   0.298   5.144 -0.3254  0.1682  0.5788
  131OSM    H6T14028   6.125   0.191   5.174  0.0049 -0.8142 -0.3641
  131OSM    C7S14029   5.996   0.107   5.029  0.1770 -0.3739 -0.0898
  131OSM    H7S14030   6.082   0.043   5.003 -0.1350 -1.3572  1.1845
  131OSM    H7T14031   5.935   0.136   4.940 -2.5023  0.1600  1.7780
  131OSM    C8S14032   5.893   0.011   5.101  0.2776 -0.7932  0.1120
  131OSM    H8S14033   5.879  -0.074   5.031  1.1818  0.1260 -1.2498
  131OSM    H8T14034   5.797   0.067   5.095 -1.5229 -3.8054 -3.6773
  131OSM    C9S14035   5.921  -0.029   5.240  0.4325 -0.3013 -0.0375
  131OSM    H9S14036   5.916   0.055   5.312 -1.5436 -0.3044 -0.1093
  131OSM    H9T14037   6.019  -0.079   5.251 -0.3145 -1.4253  2.1123
  131OSM   C10S14038   5.815  -0.136   5.282 -0.7185 -0.2650  0.3591
  131OSM   H10S14039   5.832  -0.217   5.208 -0.8723  1.6480 -1.8849
  131OSM   H10T14040   5.712  -0.099   5.264 -0.5836  0.4722  1.0570
  131OSM   C11S14041   5.820  -0.180   5.428  0.9794  0.2979 -0.1377
  131OSM   H11S14042   5.730  -0.233   5.468  1.0300  0.2463 -0.0924
  131OSM   H11T14043   5.825  -0.097   5.501  0.7913  0.5643 -0.4230
  131OSM   C12S14044   5.945  -0.253   5.463 -0.1073 -0.4240 -0.9030
  131OSM   H12S14045   6.033  -0.199   5.421 -0.3799  2.3408  1.7230
  131OSM   H12T14046   5.941  -0.359   5.428 -1.6094 -0.7581  0.2005
  131OSM   C13S14047   5.980  -0.261   5.616  0.6499 -0.2137  0.2361
  131OSM   H13S14048   5.898  -0.319   5.663  0.3934 -1.8713 -2.1155
  131OSM   H13T14049   5.980  -0.162   5.667  0.7000  0.4925 -1.1122
  131OSM   C14S14050   6.111  -0.339   5.636 -0.9782 -0.8916 -0.0464
  131OSM   H14S14051   6.202  -0.280   5.610 -0.6204 -1.7631 -0.8198
  131OSM   H14T14052   6.107  -0.434   5.580  2.1769 -0.8075 -0.6060
  131OSM   C15S14053   6.131  -0.381   5.781 -0.7277  0.7815  0.1109
  131OSM   H15S14054   6.104  -0.297   5.849  0.9616 -0.6337  2.7117
  131OSM   H15T14055   6.239  -0.404   5.788 -0.9779 -0.9049 -0.9667
  131OSM   C16S14056   6.055  -0.511   5.819  0.4743 -0.3611  0.5517
  131OSM   H16S14057   6.067  -0.579   5.732  0.2645  0.4303 -0.1058
  131OSM   H16T14058   5.947  -0.486   5.823  0.5267 -0.2340  1.7389
  131OSM   C17S14059   6.091  -0.574   5.956 -0.1041  0.0079  0.3666
  131OSM   H17S14060   6.187  -0.628   5.964 -0.4563 -0.6850  0.0124
  131OSM   H17T14061   6.029  -0.666   5.965 -0.3303 -0.1093 -1.8017
  131OSM   C18S14062   6.067  -0.472   6.068  0.0422 -0.1576 -0.6709
  131OSM   H18S14063   6.158  -0.411   6.081 -0.6115  1.3002 -2.4556
  131OSM   H18T14064   6.056  -0.519   6.168 -2.4639  0.6974 -0.4804
  131OSM   H18U14065   5.982  -0.403   6.051  0.6909  1.7337  2.8674
  131OSM    C1F14066   5.981   0.701   4.777  0.5537 -0.0424 -0.2117
  131OSM     OF14067   5.912   0.702   4.676  0.2268 -0.2365  0.0397
  131OSM    C2F14068   5.963   0.819   4.868 -0.5279 -0.2634  0.4391
  131OSM    H2F14069   6.062   0.867   4.882 -1.6169  2.1067  0.4940
  131OSM    H2G14070   5.914   0.793   4.964  0.5146  0.8914  1.3103
  131OSM    C3F14071   5.862   0.928   4.807 -0.2158 -0.0187 -0.6859
  131OSM    H3F14072   5.764   0.876   4.812  0.4506 -1.1935  2.1862
  131OSM    H3G14073   5.895   0.955   4.705  0.0719 -1.4508 -0.9875
  131OSM    C4F14074   5.838   1.049   4.891 -0.9324 -0.5956 -0.0952
  131OSM    H4F14075   5.769   1.117   4.837 -1.1901 -0.9087 -0.1636
  131OSM    H4G14076   5.940   1.085   4.915 -0.4582 -1.1109 -1.2525
  131OSM    C5F14077   5.767   1.022   5.028 -0.1581 -0.0707  0.0099
  131OSM    H5F14078   5.840   0.956   5.081 -0.7756  0.2153  1.2607
  131OSM    H5G14079   5.673   0.964   5.016 -1.1737  1.4545  0.3863
  131OSM    C6F14080   5.747   1.151   5.115 -0.9531 -1.1894  0.7724
  131OSM    H6F14081   5.639   1.176   5.114 -0.9116 -0.8086 -2.2967
  131OSM    H6G14082   5.795   1.233   5.057 -1.5188  0.1794  2.1651
  131OSM    C7F14083   5.804   1.156   5.255 -0.4267  0.1562 -0.3039
  131OSM    H7F14084   5.805   1.265   5.274  3.0497  1.2409 -4.8213
  131OSM    H7G14085   5.910   1.123   5.258 -0.5559 -0.3021 -0.6365
  131OSM    C8F14086   5.722   1.084   5.363  0.3467  0.1049 -0.1931
  131OSM    H8F14087   5.721   0.973   5.354 -2.8980  0.1325 -2.1772
  131OSM    H8G14088   5.616   1.100   5.333 -0.0453 -2.3915 -0.3604
  131OSM    C9F14089   5.738   1.141   5.501  0.4001 -0.1622  0.1043
  131OSM    H9F14090   5.765   1.247   5.507 -0.9745  0.3524 -2.0600
  131OSM   C10F14091   5.706   1.084   5.620  0.7899 -0.3449  0.0330
  131OSM   H10F14092   5.724   1.129   5.718 -1.6664  1.0336 -0.0753
  131OSM   C11F14093   5.652   0.947   5.641  0.1821  0.4761  0.3576
  131OSM   H11F14094   5.680   0.880   5.557 -1.5523  1.5702 -1.1662
  131OSM   H11G14095   5.543   0.953   5.626 -0.3254  2.3479  3.7004
  131OSM   C12F14096   5.683   0.894   5.787 -0.1824  0.2969 -0.5083
  131OSM   H12F14097   5.793   0.892   5.802 -0.2177  0.9699 -0.1340
  131OSM   H12G14098   5.645   0.790   5.789 -1.2693  0.6808  1.4734
  131OSM   C13F14099   5.621   0.974   5.903 -0.3688  0.0105  0.1834
  131OSM   H13F14100   5.567   1.051   5.845  1.2127 -1.1964 -3.2033
  131OSM   H13G14101   5.702   1.031   5.953  0.9480 -0.8380 -0.8796
  131OSM   C14F14102   5.539   0.887   6.003 -0.3352  0.6215  0.7179
  131OSM   H14F14103   5.487   0.805   5.949 -0.0138  0.4213  0.7132
  131OSM   H14G14104   5.468   0.963   6.044 -1.2104 -0.0989  0.5845
  131OSM   C15F14105   5.624   0.837   6.116 -0.1945  0.0414 -0.4684
  131OSM   H15F14106   5.678   0.925   6.155  0.2271 -0.0653 -0.7991
  131OSM   H15G14107   5.701   0.772   6.068 -0.4399  0.3771 -1.3280
  131OSM   C16F14108   5.549   0.763   6.228  0.2188  0.3396 -0.3498
  131OSM   H16F14109   5.622   0.687   6.261  1.0022  1.3701  0.3462
  131OSM   H16G14110   5.456   0.715   6.190 -0.0252 -0.1977  0.8814
  131OSM   C17F14111   5.505   0.850   6.349 -0.8132  0.4811 -0.0215
  131OSM   H17F14112   5.443   0.936   6.314  0.7660  1.5219 -0.4085
  131OSM   H17G14113   5.600   0.892   6.389 -0.2152  0.8630 -1.7559
  131OSM   C18F14114   5.428   0.785   6.456  0.9060 -0.2858  0.0493
  131OSM   H18F14115   5.416   0.859   6.538 -1.8019 -0.7819  0.2134
  131OSM   H18G14116   5.483   0.697   6.494  1.3627  0.0017  0.0660
  131OSM   H18H14117   5.331   0.750   6.414 -0.6023  0.8178  2.3750
  132OSM      N14118   4.823   1.805   4.150 -0.3320  0.4160 -0.2965
  132OSM    C1514119   4.951   1.870   4.119 -0.3507 -0.0211  0.3790
  132OSM   H15A14120   5.002   1.896   4.210  0.8284 -1.1532  0.0753
  132OSM   H15B14121   4.939   1.965   4.068  2.0889  1.4957  2.3482
  132OSM   H15C14122   5.021   1.807   4.066  1.6179  2.0829  0.2780
  132OSM    C1414123   4.754   1.889   4.246  0.4389  0.3419 -0.0570
  132OSM   H14A14124   4.734   1.987   4.206  1.5448 -0.4030 -2.6013
  132OSM   H14B14125   4.821   1.909   4.329 -0.9305 -0.0984  1.2010
  132OSM   H14C14126   4.657   1.848   4.268  1.3141 -2.7734 -1.4473
  132OSM    C1314127   4.745   1.798   4.023 -0.0722  0.1697 -0.2245
  132OSM   H13A14128   4.653   1.745   4.045 -0.0456  0.2150  0.0003
  132OSM   H13B14129   4.793   1.731   3.953  2.0687  1.0400  0.3338
  132OSM   H13C14130   4.728   1.896   3.980 -1.5452 -0.3348 -0.8824
  132OSM    C1214131   4.848   1.672   4.218 -0.2585  0.9836 -0.2328
  132OSM   H12A14132   4.901   1.606   4.151 -0.9133 -1.4356  1.5074
  132OSM   H12B14133   4.757   1.621   4.247 -0.1516  0.7123 -0.3641
  132OSM    C1114134   4.945   1.672   4.340 -0.0355  0.1642 -0.4199
  132OSM   H11A14135   4.901   1.730   4.424  2.2811 -0.6788  1.4695
  132OSM   H11B14136   5.048   1.709   4.327  0.5673 -1.5929 -0.8492
  132OSM      P14137   4.843   1.439   4.433  0.3222 -0.1512  0.3280
  132OSM    O1314138   4.848   1.330   4.339  0.4739 -0.1644 -0.1248
  132OSM    O1414139   4.864   1.393   4.566  0.5242  0.7215  0.0993
  132OSM    O1114140   4.710   1.529   4.420  0.6802  0.0455 -0.4468
  132OSM    O1214141   4.955   1.537   4.400  0.1306 -0.0583 -0.4784
  132OSM    C1S14142   4.581   1.484   4.470 -0.3746  0.2310  0.5079
  132OSM    H1S14143   4.576   1.373   4.480  0.6362 -0.0988 -1.8797
  132OSM    H1T14144   4.501   1.516   4.400  0.7033  1.0541 -0.3870
  132OSM     NF14145   4.438   1.468   4.680 -0.5609  0.2655  0.5011
  132OSM    HNF14146   4.349   1.506   4.659 -0.0382  0.6444 -1.1779
  132OSM    C2S14147   4.554   1.540   4.614  0.2457  0.1316 -0.0351
  132OSM    H2S14148   4.644   1.511   4.672 -0.9577 -1.3592  1.1975
  132OSM    C3S14149   4.533   1.697   4.611 -0.1047  0.3911 -0.4445
  132OSM    H3S14150   4.441   1.720   4.554 -1.5605  1.4972  2.1797
  132OSM     O314151   4.642   1.763   4.550 -0.4060  0.0785  0.0225
  132OSM    HO314152   4.682   1.684   4.513  0.1083 -0.9395  2.4936
  132OSM    C4S14153   4.510   1.741   4.752 -0.3206  0.2667  0.1752
  132OSM    H4S14154   4.408   1.718   4.787 -0.1558  2.0298  1.9614
  132OSM    C5S14155   4.600   1.784   4.841 -0.3862 -0.8901 -0.0146
  132OSM    H5S14156   4.708   1.783   4.819  0.2848  0.1297  2.8582
  132OSM    C6S14157   4.568   1.808   4.988  0.3591  0.1822  0.8539
  132OSM    H6S14158   4.458   1.823   4.997  0.0774 -0.7112 -0.7961
  132OSM    H6T14159   4.614   1.906   5.014  0.3159  1.5273 -3.4075
  132OSM    C7S14160   4.634   1.705   5.081 -0.0099  0.3305 -0.3460
  132OSM    H7S14161   4.621   1.729   5.188 -1.8860 -1.4169 -0.1150
  132OSM    H7T14162   4.742   1.684   5.065  0.1682 -0.8929  2.1239
  132OSM    C8S14163   4.553   1.570   5.079 -0.1412 -0.1527  1.0089
  132OSM    H8S14164   4.546   1.530   4.976  1.3770  0.3598  0.6905
  132OSM    H8T14165   4.450   1.591   5.117 -1.2702 -1.4015 -1.1343
  132OSM    C9S14166   4.633   1.457   5.151 -0.1308 -0.3318 -0.3887
  132OSM    H9S14167   4.735   1.447   5.108 -0.4364 -0.3860 -1.1231
  132OSM    H9T14168   4.583   1.357   5.144 -1.8927  0.4215  0.6265
  132OSM   C10S14169   4.657   1.472   5.304  0.6581 -0.3111  0.0612
  132OSM   H10S14170   4.699   1.574   5.314  2.0878 -0.6109 -2.0974
  132OSM   H10T14171   4.720   1.394   5.353 -0.9597 -1.2646  0.6844
  132OSM   C11S14172   4.517   1.463   5.374 -0.4810  0.3768  0.6127
  132OSM   H11S14173   4.455   1.378   5.337  0.9937  0.6217 -2.7643
  132OSM   H11T14174   4.463   1.554   5.341  0.6914  0.9687  0.3013
  132OSM   C12S14175   4.532   1.456   5.523 -0.4886  0.2078 -0.2905
  132OSM   H12S14176   4.428   1.472   5.559 -0.1755 -0.0796  0.7779
  132OSM   H12T14177   4.603   1.539   5.543 -0.8814  1.2896 -2.9539
  132OSM   C13S14178   4.582   1.327   5.580 -0.3093  0.2841  0.3001
  132OSM   H13S14179   4.686   1.310   5.544  0.2965  0.7281  1.7648
  132OSM   H13T14180   4.502   1.252   5.562 -1.6206  1.4074  1.2324
  132OSM   C14S14181   4.604   1.344   5.736 -0.2872 -0.3008  0.3197
  132OSM   H14S14182   4.507   1.369   5.783 -0.1699 -2.0011  1.5579
  132OSM   H14T14183   4.673   1.431   5.742 -0.9416  0.1658  1.2528
  132OSM   C15S14184   4.683   1.240   5.810 -0.5791  0.1414 -0.1191
  132OSM   H15S14185   4.787   1.224   5.774 -0.6595 -0.4270 -0.1122
  132OSM   H15T14186   4.629   1.145   5.790 -1.9968  0.6574  1.0540
  132OSM   C16S14187   4.686   1.294   5.954  0.2154 -0.2230 -0.0123
  132OSM   H16S14188   4.582   1.327   5.978  0.2885 -0.6668  0.9828
  132OSM   H16T14189   4.756   1.377   5.976  2.6369 -2.2687  0.5028
  132OSM   C17S14190   4.728   1.183   6.051 -0.4703  0.0066  0.2083
  132OSM   H17S14191   4.826   1.146   6.017 -0.4825  0.0354  0.1408
  132OSM   H17T14192   4.651   1.102   6.049 -2.8822  2.1462 -0.9308
  132OSM   C18S14193   4.723   1.228   6.202 -0.2848  0.5203  0.2070
  132OSM   H18S14194   4.780   1.321   6.225 -0.6875  0.1659  3.0175
  132OSM   H18T14195   4.767   1.146   6.261  1.5536  0.4882 -1.1250
  132OSM   H18U14196   4.616   1.252   6.220 -1.1130 -2.1337 -0.7225
  132OSM    C1F14197   4.453   1.355   4.738 -0.3346  0.4836  0.6059
  132OSM     OF14198   4.555   1.287   4.730  0.0532  0.5096  0.3366
  132OSM    C2F14199   4.326   1.298   4.789  0.0965  0.4199  0.1500
  132OSM    H2F14200   4.267   1.248   4.709  0.9877 -0.3734 -0.0284
  132OSM    H2G14201   4.257   1.380   4.820  0.6198  1.1156 -0.4798
  132OSM    C3F14202   4.340   1.189   4.900 -0.2472  0.3414  0.0049
  132OSM    H3F14203   4.410   1.223   4.979  0.5660  0.3720 -0.7216
  132OSM    H3G14204   4.399   1.111   4.848 -0.3128  0.5507 -0.3799
  132OSM    C4F14205   4.217   1.123   4.959  0.1380 -0.3686  0.1072
  132OSM    H4F14206   4.257   1.026   4.994  0.7829 -0.1930 -0.1243
  132OSM    H4G14207   4.140   1.098   4.883 -0.0552 -0.6200  0.3798
  132OSM    C5F14208   4.156   1.208   5.072  0.4734 -0.3015 -0.4543
  132OSM    H5F14209   4.063   1.162   5.111 -0.3262 -0.8994 -2.8991
  132OSM    H5G14210   4.130   1.310   5.036  1.7775 -0.8365 -3.1451
  132OSM    C6F14211   4.238   1.213   5.201  0.2380 -1.1553  0.4827
  132OSM    H6F14212   4.182   1.281   5.268  0.0798  0.5073 -1.2643
  132OSM    H6G14213   4.328   1.269   5.169 -0.2771 -0.7288 -0.2529
  132OSM    C7F14214   4.256   1.085   5.272 -0.0794  0.9023 -0.0920
  132OSM    H7F14215   4.282   1.010   5.194 -0.9029 -1.8750  2.1159
  132OSM    H7G14216   4.162   1.053   5.321 -0.6267  1.5937 -0.6604
  132OSM    C8F14217   4.355   1.088   5.389  0.0401  0.2760 -0.5707
  132OSM    H8F14218   4.318   1.173   5.450 -2.1749 -0.6569 -0.5229
  132OSM    H8G14219   4.458   1.122   5.362  0.5016 -0.4116  0.2916
  132OSM    C9F14220   4.373   0.959   5.466 -0.6367 -0.1682 -0.3717
  132OSM    H9F14221   4.421   0.876   5.411 -2.3434  0.7077 -3.3894
  132OSM   C10F14222   4.352   0.945   5.600  0.7229 -0.3340  0.1782
  132OSM   H10F14223   4.376   0.851   5.652  0.8189 -0.7312 -0.5595
  132OSM   C11F14224   4.304   1.057   5.685  0.1008  0.5962 -0.1571
  132OSM   H11F14225   4.205   1.093   5.649 -1.3008 -1.2553  1.6474
  132OSM   H11G14226   4.369   1.147   5.685  1.9560 -0.6536 -2.1538
  132OSM   C12F14227   4.302   1.029   5.836  0.6185 -0.3994 -0.3574
  132OSM   H12F14228   4.278   1.127   5.883 -2.3753 -0.7376 -0.9731
  132OSM   H12G14229   4.401   0.987   5.866  0.2316 -2.1255 -1.3227
  132OSM   C13F14230   4.178   0.940   5.870  0.7873  0.0163  0.6672
  132OSM   H13F14231   4.190   0.835   5.837  0.1360  0.3083 -0.5574
  132OSM   H13G14232   4.085   0.967   5.816  0.2198 -1.6738  0.7482
  132OSM   C14F14233   4.161   0.954   6.024  0.4543 -0.0398  0.3180
  132OSM   H14F14234   4.081   0.880   6.049 -0.4399  1.4920  2.2368
  132OSM   H14G14235   4.124   1.057   6.042 -0.5792 -0.3928  0.3076
  132OSM   C15F14236   4.292   0.921   6.100 -0.6273 -0.7597 -0.3684
  132OSM   H15F14237   4.380   0.986   6.081  0.6224 -2.2591  0.1166
  132OSM   H15G14238   4.306   0.819   6.058 -1.4366 -2.5698  3.4001
  132OSM   C16F14239   4.270   0.890   6.252 -0.9604  0.2594 -0.1362
  132OSM   H16F14240   4.189   0.815   6.258 -1.6876  0.8545 -2.0237
  132OSM   H16G14241   4.234   0.986   6.294  1.3192  0.7208  0.9468
  132OSM   C17F14242   4.397   0.842   6.332  0.4304  0.3887  0.5366
  132OSM   H17F14243   4.366   0.832   6.438  1.9138 -1.2511  0.8740
  132OSM   H17G14244   4.480   0.915   6.320 -0.3957  1.3763  0.7683
  132OSM   C18F14245   4.434   0.700   6.287 -0.1699  0.6005 -0.5549
  132OSM   H18F14246   4.341   0.640   6.282  0.2798 -0.0688 -1.1788
  132OSM   H18G14247   4.508   0.652   6.354 -0.1591  2.5648  0.9227
  132OSM   H18H14248   4.480   0.711   6.186  0.9747  2.8668  0.1352
  133OSM      N14249   1.875   4.214   4.600  0.0334  0.0054  0.5043
  133OSM    C1514250   1.843   4.149   4.469 -0.0086 -0.5298 -0.6065
  133OSM   H15A14251   1.743   4.110   4.480 -0.6051  1.4606  2.2045
  133OSM   H15B14252   1.906   4.067   4.437 -0.9547 -1.5687  0.0905
  133OSM   H15C14253   1.844   4.222   4.389  0.2883  0.8076  0.5825
  133OSM    C1414254   2.009   4.271   4.602 -0.2931 -0.3922 -0.0894
  133OSM   H14A14255   2.031   4.323   4.694 -2.2173  2.6520 -1.2143
  133OSM   H14B14256   2.019   4.346   4.525  0.1031  0.3604  0.6763
  133OSM   H14C14257   2.090   4.206   4.572  1.5164  0.3068  2.8173
  133OSM    C1314258   1.772   4.319   4.624 -0.6073 -0.3769 -0.5538
  133OSM   H13A14259   1.678   4.274   4.594 -1.1532  1.0011 -1.0188
  133OSM   H13B14260   1.767   4.408   4.562 -1.4175 -0.1276 -0.1449
  133OSM   H13C14261   1.772   4.352   4.727  2.5926 -0.2700 -0.4998
  133OSM    C1214262   1.860   4.122   4.716 -0.2766 -0.6670 -0.3957
  133OSM   H12A14263   1.883   4.178   4.806 -0.7242 -0.7044 -0.2581
  133OSM   H12B14264   1.939   4.051   4.697 -1.4769 -2.0133 -0.4575
  133OSM    C1114265   1.720   4.051   4.741  0.1623 -0.5731  1.3589
  133OSM   H11A14266   1.644   4.131   4.745  0.4372 -0.2397  0.2118
  133OSM   H11B14267   1.734   4.006   4.842  2.0576 -0.5329  1.1545
  133OSM      P14268   1.711   3.812   4.647  0.3410  0.3232 -0.0145
  133OSM    O1314269   1.637   3.750   4.535 -0.0624  0.7218 -0.9233
  133OSM    O1414270   1.856   3.788   4.645 -0.5297 -0.1058  0.4626
  133OSM    O1114271   1.646   3.765   4.788 -0.2347 -0.4096 -0.0369
  133OSM    O1214272   1.678   3.961   4.644 -0.0330 -0.4809 -0.1333
  133OSM    C1S14273   1.520   3.817   4.837 -0.0039  0.0918 -0.0707
  133OSM    H1S14274   1.434   3.786   4.773  0.4674  0.9396 -1.1437
  133OSM    H1T14275   1.520   3.928   4.833  2.5534  0.2278  1.7082
  133OSM     NF14276   1.371   3.798   5.025  0.4492 -0.0205 -0.6604
  133OSM    HNF14277   1.351   3.878   5.081  4.1035  0.5094  0.1322
  133OSM    C2S14278   1.509   3.780   4.988  0.1049  0.3682 -0.3505
  133OSM    H2S14279   1.535   3.672   4.990  2.1727  0.8408  0.4949
  133OSM    C3S14280   1.612   3.856   5.077  0.6930 -0.8368  0.5707
  133OSM    H3S14281   1.601   3.964   5.055 -0.3031 -0.6622  1.8405
  133OSM     O314282   1.750   3.835   5.051 -0.4866 -0.4833  0.8562
  133OSM    HO314283   1.749   3.788   4.968 -0.1249  0.7787  0.1027
  133OSM    C4S14284   1.576   3.839   5.222 -1.0808 -0.4021 -0.8369
  133OSM    H4S14285   1.582   3.737   5.262  0.6553  0.6042  1.7802
  133OSM    C5S14286   1.548   3.938   5.309 -0.2940 -0.6497 -0.2059
  133OSM    H5S14287   1.540   4.043   5.276 -1.6636  0.2905  2.7825
  133OSM    C6S14288   1.518   3.916   5.457 -0.4463  0.4455  0.1822
  133OSM    H6S14289   1.407   3.916   5.468 -0.4810 -2.4906  0.5391
  133OSM    H6T14290   1.565   3.995   5.519 -1.6037 -0.7799  2.7595
  133OSM    C7S14291   1.569   3.783   5.520  0.6374  0.2840 -0.1074
  133OSM    H7S14292   1.675   3.760   5.495  0.9699 -1.0054  2.2097
  133OSM    H7T14293   1.506   3.704   5.474  0.9131 -0.6332  1.0551
  133OSM    C8S14294   1.545   3.771   5.669 -0.3250 -0.8577 -0.4211
  133OSM    H8S14295   1.448   3.817   5.700  0.0568 -2.5368  3.9450
  133OSM    H8T14296   1.620   3.836   5.718  0.8449 -1.5189 -1.2857
  133OSM    C9S14297   1.557   3.633   5.736  0.0047  0.0516 -0.0754
  133OSM    H9S14298   1.658   3.597   5.706 -0.1530  1.7885 -3.1415
  133OSM    H9T14299   1.484   3.566   5.687 -1.6041  1.1666  0.7090
  133OSM   C10S14300   1.531   3.635   5.885  0.3133 -0.6566  0.0314
  133OSM   H10S14301   1.511   3.532   5.922 -0.6921 -0.2006  0.8209
  133OSM   H10T14302   1.447   3.707   5.897  1.4687  0.8639 -0.5599
  133OSM   C11S14303   1.641   3.690   5.969  0.7041  0.2218 -0.2120
  133OSM   H11S14304   1.603   3.699   6.073  3.1041 -2.6303  1.0665
  133OSM   H11T14305   1.674   3.792   5.938 -0.6433  1.2990  1.6590
  133OSM   C12S14306   1.759   3.593   5.970 -0.1936  0.4841 -0.0603
  133OSM   H12S14307   1.826   3.590   5.882  0.4472  1.8325  0.3500
  133OSM   H12T14308   1.738   3.486   5.991  1.4849  0.2288  0.4745
  133OSM   C13S14309   1.861   3.634   6.075 -0.7310 -0.8019 -0.3446
  133OSM   H13S14310   1.866   3.743   6.055 -0.0138 -1.1844 -2.4559
  133OSM   H13T14311   1.958   3.585   6.053  0.1779 -1.3896  4.0589
  133OSM   C14S14312   1.819   3.614   6.218 -1.2104  0.5243  0.2135
  133OSM   H14S14313   1.773   3.515   6.239 -1.9460  1.0547  1.1283
  133OSM   H14T14314   1.740   3.687   6.246 -1.5306  0.0564  0.5385
  133OSM   C15S14315   1.935   3.619   6.311  0.3737  0.0765  0.0338
  133OSM   H15S14316   1.964   3.725   6.327  0.6561 -0.3021  2.5104
  133OSM   H15T14317   2.022   3.558   6.277  0.7994  0.4672  0.3999
  133OSM   C16S14318   1.897   3.571   6.453  0.1239  0.2090 -0.3084
  133OSM   H16S14319   1.870   3.463   6.452 -2.3196  0.7366  0.7763
  133OSM   H16T14320   1.809   3.632   6.484 -2.1089 -3.0541  0.3670
  133OSM   C17S14321   2.003   3.576   6.560 -0.2657 -0.5421 -0.6273
  133OSM   H17S14322   2.090   3.511   6.533 -1.3207 -1.0304 -3.2078
  133OSM   H17T14323   1.955   3.530   6.649 -0.1599  0.6557  0.0652
  133OSM   C18S14324   2.045   3.720   6.601 -0.1503  0.2546  0.2615
  133OSM   H18S14325   1.955   3.780   6.627 -1.5630 -0.7837 -1.8934
  133OSM   H18T14326   2.117   3.762   6.527  0.0261  0.4601  0.5496
  133OSM   H18U14327   2.105   3.705   6.693  0.3925 -0.2106 -0.1631
  133OSM    C1F14328   1.278   3.712   5.004  0.4640  0.4542  0.0562
  133OSM     OF14329   1.291   3.613   4.928 -0.4212 -0.7313 -0.2595
  133OSM    C2F14330   1.153   3.737   5.083  0.2075  0.6165 -0.4546
  133OSM    H2F14331   1.086   3.661   5.039  2.4203 -1.0540 -1.1600
  133OSM    H2G14332   1.122   3.837   5.047 -0.8661 -0.0583 -1.4633
  133OSM    C3F14333   1.163   3.726   5.238 -0.1603 -1.0721  0.6916
  133OSM    H3F14334   1.064   3.752   5.281 -0.0504 -1.3582  1.1274
  133OSM    H3G14335   1.235   3.802   5.276 -0.8600  0.0887 -0.2493
  133OSM    C4F14336   1.212   3.592   5.293  0.1725 -0.2518 -0.1090
  133OSM    H4F14337   1.302   3.573   5.231  0.1333  0.3522 -0.3536
  133OSM    H4G14338   1.136   3.515   5.272  0.4127 -0.4706 -0.1802
  133OSM    C5F14339   1.240   3.594   5.447 -0.2068  0.3200  0.3162
  133OSM    H5F14340   1.317   3.669   5.476 -0.5165  0.7145  0.1425
  133OSM    H5G14341   1.289   3.497   5.469  2.0699  0.5313 -2.9716
  133OSM    C6F14342   1.117   3.610   5.530 -1.1493 -0.4761  0.0994
  133OSM    H6F14343   1.059   3.516   5.519  0.8276 -1.7613  0.1784
  133OSM    H6G14344   1.048   3.690   5.496 -1.3982  0.5728  2.8397
  133OSM    C7F14345   1.140   3.646   5.681 -0.1627 -0.4012 -0.2705
  133OSM    H7F14346   1.190   3.746   5.689 -0.6353 -0.0802 -1.1799
  133OSM    H7G14347   1.210   3.569   5.718 -0.7817 -1.4658 -1.2629
  133OSM    C8F14348   1.010   3.641   5.763  1.0446 -0.3591 -0.8858
  133OSM    H8F14349   0.925   3.677   5.702 -0.2165 -1.4194  0.1882
  133OSM    H8G14350   1.025   3.701   5.856 -0.5145 -1.2622 -0.0097
  133OSM    C9F14351   0.966   3.502   5.807 -0.7972 -0.5963  0.2564
  133OSM    H9F14352   0.997   3.435   5.726 -1.3486  0.9791 -1.3477
  133OSM   C10F14353   0.912   3.460   5.923 -0.8728  0.6472 -0.5889
  133OSM   H10F14354   0.903   3.351   5.932 -3.3317  0.7964 -0.4262
  133OSM   C11F14355   0.873   3.533   6.044 -0.2671 -0.6075 -0.4471
  133OSM   H11F14356   0.785   3.490   6.096  1.0052 -1.3518  1.1970
  133OSM   H11G14357   0.872   3.641   6.018  3.1945 -1.0850 -3.2448
  133OSM   C12F14358   0.976   3.515   6.161 -0.4261 -0.2984  0.1618
  133OSM   H12F14359   1.013   3.415   6.192 -0.3125 -0.0666  0.7683
  133OSM   H12G14360   0.914   3.543   6.249 -0.6930 -0.1881 -0.0586
  133OSM   C13F14361   1.099   3.613   6.151  0.5751 -0.2798 -0.3567
  133OSM   H13F14362   1.051   3.714   6.142 -2.1941 -1.6312 -2.1971
  133OSM   H13G14363   1.164   3.604   6.062  2.4408 -0.8803  1.0018
  133OSM   C14F14364   1.181   3.597   6.280  0.4332  0.3088  0.0157
  133OSM   H14F14365   1.222   3.494   6.287 -1.0245 -0.3563 -0.8575
  133OSM   H14G14366   1.108   3.609   6.363  2.1442  0.2279  1.5919
  133OSM   C15F14367   1.289   3.708   6.282 -0.0359  0.2732  0.0759
  133OSM   H15F14368   1.247   3.799   6.233 -3.5331 -1.7033 -0.9289
  133OSM   H15G14369   1.356   3.678   6.199  1.5950 -0.9025  1.7436
  133OSM   C16F14370   1.359   3.721   6.416 -0.0985 -0.6602 -0.2865
  133OSM   H16F14371   1.285   3.712   6.499  0.4010 -1.2479  0.1010
  133OSM   H16G14372   1.401   3.824   6.412 -0.5501 -0.4218  0.7837
  133OSM   C17F14373   1.467   3.618   6.440 -0.3910  0.0321 -0.8459
  133OSM   H17F14374   1.551   3.634   6.370  0.0015 -0.5025 -0.5077
  133OSM   H17G14375   1.417   3.522   6.415 -1.4724  0.8169 -1.8189
  133OSM   C18F14376   1.528   3.619   6.581  0.5156  0.4076  0.0824
  133OSM   H18F14377   1.603   3.539   6.602 -2.2986 -2.2694  0.8267
  133OSM   H18G14378   1.445   3.610   6.655 -1.3456  1.4956 -1.7623
  133OSM   H18H14379   1.567   3.722   6.592 -0.2314  1.0504 -2.7386
  134OSM      N14380   2.904   5.194   4.104 -0.2404  0.8350 -0.1765
  134OSM    C1514381   2.791   5.151   4.011 -0.3842  0.2595  0.3535
  134OSM   H15A14382   2.799   5.043   4.005 -2.5927  0.1146 -1.0512
  134OSM   H15B14383   2.808   5.197   3.914 -0.6292  0.0254  0.1982
  134OSM   H15C14384   2.694   5.195   4.028 -0.8347  0.0969 -1.5701
  134OSM    C1414385   3.028   5.143   4.048  0.0367  0.0357  0.7304
  134OSM   H14A14386   3.120   5.182   4.089  1.0462 -1.2321 -0.2409
  134OSM   H14B14387   3.033   5.168   3.943 -0.3999  1.3726  1.0058
  134OSM   H14C14388   3.021   5.036   4.060 -1.8678  0.1091  0.4978
  134OSM    C1314389   2.909   5.343   4.121  0.0863 -0.1100  0.4779
  134OSM   H13A14390   2.968   5.369   4.207  0.5515 -1.5725  0.6397
  134OSM   H13B14391   2.815   5.379   4.158  0.4616 -1.3374  2.8560
  134OSM   H13C14392   2.945   5.401   4.037 -0.0620 -1.7371 -0.7834
  134OSM    C1214393   2.889   5.137   4.248 -0.2514  0.5651 -0.0220
  134OSM   H12A14394   2.988   5.150   4.291 -0.7374  0.3705  1.1832
  134OSM   H12B14395   2.873   5.032   4.234 -1.6526  1.1947 -4.5057
  134OSM    C1114396   2.779   5.196   4.344 -0.0408 -0.2574  0.2706
  134OSM   H11A14397   2.803   5.300   4.375  3.3338 -1.0428  0.6730
  134OSM   H11B14398   2.783   5.143   4.441 -0.9919  2.0219  1.6235
  134OSM      P14399   2.534   5.091   4.296 -0.0585  0.6149 -0.3427
  134OSM    O1314400   2.422   5.141   4.210 -0.5748 -0.5321 -0.0824
  134OSM    O1414401   2.593   4.958   4.266 -0.1268  0.0962 -0.1655
  134OSM    O1114402   2.481   5.108   4.442 -0.1735 -0.1463 -0.5903
  134OSM    O1214403   2.657   5.195   4.282 -0.2572  0.0472 -0.6898
  134OSM    C1S14404   2.466   5.246   4.492  0.4460  0.5012  0.1916
  134OSM    H1S14405   2.371   5.286   4.451 -0.0220  0.9785  1.6915
  134OSM    H1T14406   2.555   5.307   4.465  1.7964 -1.2143  0.5283
  134OSM     NF14407   2.416   5.381   4.692  0.2617 -0.3943 -0.3401
  134OSM    HNF14408   2.493   5.443   4.705  0.5426 -0.6928 -0.5649
  134OSM    C2S14409   2.459   5.252   4.648 -0.9778 -0.4155 -0.9875
  134OSM    H2S14410   2.374   5.189   4.682 -0.3524 -0.7127  0.0830
  134OSM    C3S14411   2.590   5.191   4.721 -0.3116 -0.1305 -0.1542
  134OSM    H3S14412   2.673   5.257   4.688 -1.8421  2.2764  0.5268
  134OSM     O314413   2.615   5.049   4.703  0.3558 -0.5197  0.0746
  134OSM    HO314414   2.553   5.039   4.631  0.9509  0.4451 -0.6042
  134OSM    C4S14415   2.571   5.207   4.868 -0.7341  0.5584 -0.0950
  134OSM    H4S14416   2.479   5.164   4.909 -0.6749  0.0798 -0.4631
  134OSM    C5S14417   2.650   5.271   4.953 -1.0912 -0.3007 -0.2224
  134OSM    H5S14418   2.741   5.316   4.910 -0.6073 -2.2111 -1.2871
  134OSM    C6S14419   2.622   5.285   5.099 -0.2279 -0.5000 -0.0844
  134OSM    H6S14420   2.591   5.389   5.124 -0.0508 -0.7896  1.4909
  134OSM    H6T14421   2.717   5.271   5.156 -0.1068  1.6544  0.3445
  134OSM    C7S14422   2.518   5.180   5.150  0.0090  0.0249 -0.4433
  134OSM    H7S14423   2.538   5.072   5.129 -0.6664 -0.0110 -0.9496
  134OSM    H7T14424   2.412   5.200   5.121 -1.0789 -1.9865  1.7640
  134OSM    C8S14425   2.512   5.176   5.307  0.2078 -0.3674 -0.1651
  134OSM    H8S14426   2.513   5.281   5.344 -1.7396 -0.0501 -0.8878
  134OSM    H8T14427   2.607   5.133   5.345 -0.3236  0.8917  2.8992
  134OSM    C9S14428   2.401   5.089   5.363  0.6373 -0.3321  0.3291
  134OSM    H9S14429   2.434   4.987   5.337  1.7362 -0.1810  1.0790
  134OSM    H9T14430   2.305   5.102   5.309 -0.1387 -1.4128  1.4009
  134OSM   C10S14431   2.387   5.099   5.520 -0.8308  0.1796 -0.0903
  134OSM   H10S14432   2.345   5.199   5.545 -2.0609 -0.0811 -1.0201
  134OSM   H10T14433   2.492   5.089   5.556  0.4269 -4.4648 -4.0765
  134OSM   C11S14434   2.299   5.000   5.593  0.1005  0.1664  0.0399
  134OSM   H11S14435   2.341   4.899   5.571  0.7712  0.7197 -1.3481
  134OSM   H11T14436   2.194   5.002   5.558 -0.3035 -1.4686  1.0742
  134OSM   C12S14437   2.303   5.025   5.744  0.5314 -0.8880  0.1127
  134OSM   H12S14438   2.278   5.134   5.749  0.0697 -0.9395 -0.9218
  134OSM   H12T14439   2.406   5.014   5.785  1.1179  3.1357  0.1670
  134OSM   C13S14440   2.204   4.937   5.813 -0.0327  0.5236 -0.3261
  134OSM   H13S14441   2.230   4.829   5.814 -1.2259  0.2133  1.0074
  134OSM   H13T14442   2.105   4.933   5.764  0.0453  1.5508 -0.5968
  134OSM   C14S14443   2.172   4.989   5.952  0.1262 -0.5298 -0.2260
  134OSM   H14S14444   2.108   5.079   5.943 -1.5620 -1.6662 -0.0853
  134OSM   H14T14445   2.266   5.030   5.995  0.5569 -1.6932 -0.0173
  134OSM   C15S14446   2.103   4.882   6.047  0.4260  0.2430 -0.6297
  134OSM   H15S14447   2.165   4.790   6.058 -0.4594 -0.7616 -3.3060
  134OSM   H15T14448   2.011   4.842   5.999  0.9824  0.4072 -1.8832
  134OSM   C16S14449   2.058   4.933   6.180 -0.0119  0.0449 -0.1483
  134OSM   H16S14450   1.998   4.855   6.232 -1.8150  1.3905 -0.0878
  134OSM   H16T14451   1.983   5.016   6.175  0.1470  0.3983  1.9797
  134OSM   C17S14452   2.177   4.974   6.266 -0.3426  0.2929 -0.2371
  134OSM   H17S14453   2.238   5.047   6.209  0.5605 -1.7326 -2.0468
  134OSM   H17T14454   2.248   4.893   6.292  1.5222  2.1249  0.6585
  134OSM   C18S14455   2.145   5.017   6.410 -0.4379 -0.8844 -0.2502
  134OSM   H18S14456   2.079   5.107   6.414 -0.3976 -0.8613 -0.1233
  134OSM   H18T14457   2.242   5.030   6.462  0.0341 -1.0745 -1.0790
  134OSM   H18U14458   2.089   4.936   6.461 -0.6831 -0.9281 -0.5856
  134OSM    C1F14459   2.293   5.436   4.673 -0.5517 -0.6726 -0.2023
  134OSM     OF14460   2.203   5.360   4.643  0.4465 -0.0559 -0.2704
  134OSM    C2F14461   2.275   5.576   4.686  0.8390 -0.4715  0.1241
  134OSM    H2F14462   2.218   5.625   4.604 -1.3564 -0.0751  1.8089
  134OSM    H2G14463   2.373   5.627   4.683  0.5376  0.1281 -2.6340
  134OSM    C3F14464   2.203   5.600   4.823  0.1725  0.0458  0.0375
  134OSM    H3F14465   2.104   5.550   4.818 -0.2985  0.8656  0.8518
  134OSM    H3G14466   2.189   5.708   4.842  1.7220  0.5141 -1.2506
  134OSM    C4F14467   2.282   5.564   4.947  0.5962  0.4326 -0.1292
  134OSM    H4F14468   2.378   5.618   4.933 -0.2178  1.8018 -0.5198
  134OSM    H4G14469   2.301   5.454   4.941  3.3752  0.6412  2.4072
  134OSM    C5F14470   2.226   5.611   5.080 -0.0775  0.8006  0.4963
  134OSM    H5F14471   2.125   5.566   5.087 -0.5642  0.4922 -4.7447
  134OSM    H5G14472   2.219   5.722   5.085  1.4448  0.9884 -0.6595
  134OSM    C6F14473   2.319   5.565   5.191  0.8731 -0.3533 -0.0339
  134OSM    H6F14474   2.416   5.618   5.196  0.7158  0.1827 -1.9795
  134OSM    H6G14475   2.338   5.459   5.165 -2.3795 -0.7985 -1.0842
  134OSM    C7F14476   2.242   5.578   5.326  0.9334 -0.7887  0.6110
  134OSM    H7F14477   2.140   5.538   5.311  0.2671  0.7000  1.0891
  134OSM    H7G14478   2.236   5.685   5.351  1.1291 -0.8089  0.7461
  134OSM    C8F14479   2.305   5.504   5.441 -0.4392 -0.3903  0.0148
  134OSM    H8F14480   2.299   5.398   5.408 -0.1061 -0.7302  1.0371
  134OSM    H8G14481   2.236   5.522   5.526 -2.9865  0.1046 -2.0029
  134OSM    C9F14482   2.446   5.548   5.473 -0.8156 -0.6632 -0.0643
  134OSM    H9F14483   2.508   5.525   5.385 -0.3001 -0.4673  0.2469
  134OSM   C10F14484   2.498   5.617   5.577  0.0562  0.1738 -0.4298
  134OSM   H10F14485   2.602   5.653   5.574  1.1167 -2.6230 -3.0002
  134OSM   C11F14486   2.413   5.657   5.701 -0.5916  0.5132  0.5912
  134OSM   H11F14487   2.322   5.592   5.703 -0.6624  0.4788 -1.3551
  134OSM   H11G14488   2.384   5.764   5.690  0.0524  0.8139  1.7164
  134OSM   C12F14489   2.481   5.625   5.839 -0.2294 -0.0306  0.5141
  134OSM   H12F14490   2.406   5.643   5.918 -0.4418  2.2411 -0.1319
  134OSM   H12G14491   2.572   5.687   5.855  0.7904 -0.1031 -3.7639
  134OSM   C13F14492   2.512   5.471   5.836 -0.3623 -0.1948  0.2300
  134OSM   H13F14493   2.584   5.463   5.919 -1.0404  1.2229  0.9820
  134OSM   H13G14494   2.570   5.433   5.750  1.5870 -0.3382  1.5557
  134OSM   C14F14495   2.397   5.367   5.851  0.7109 -0.0107 -0.1311
  134OSM   H14F14496   2.436   5.263   5.846 -0.3523 -0.4127 -0.2112
  134OSM   H14G14497   2.331   5.380   5.763 -0.6672  0.7517  0.9772
  134OSM   C15F14498   2.310   5.381   5.981 -0.8397 -0.6231 -0.1739
  134OSM   H15F14499   2.224   5.311   5.972  0.0665 -1.8446  0.3347
  134OSM   H15G14500   2.275   5.486   5.991 -1.1256 -0.6755 -0.6047
  134OSM   C16F14501   2.367   5.333   6.116 -0.3063  0.1540 -0.0643
  134OSM   H16F14502   2.465   5.382   6.134 -0.7426  1.2411 -0.5155
  134OSM   H16G14503   2.383   5.224   6.109 -1.0066 -0.1596  2.3308
  134OSM   C17F14504   2.273   5.355   6.238 -0.4949 -0.4008 -0.3184
  134OSM   H17F14505   2.334   5.336   6.329 -2.1742  0.4397  1.0517
  134OSM   H17G14506   2.179   5.297   6.235  0.6666 -2.3151 -0.9713
  134OSM   C18F14507   2.230   5.505   6.251  0.2269  0.1515 -0.6501
  134OSM   H18F14508   2.173   5.546   6.165 -0.5397 -1.7787 -1.1175
  134OSM   H18G14509   2.323   5.566   6.249  0.1882  0.2050 -1.9895
  134OSM   H18H14510   2.179   5.540   6.343  2.0537 -0.4462  0.6325
  135OSM      N14511   4.040   4.008   4.559  0.1776 -0.3470 -0.5047
  135OSM    C1514512   4.135   4.098   4.482 -0.9125 -0.4448 -0.7642
  135OSM   H15A14513   4.119   4.086   4.376 -1.0593 -0.5259 -0.7333
  135OSM   H15B14514   4.235   4.062   4.503 -1.3301 -1.3102 -0.2005
  135OSM   H15C14515   4.116   4.202   4.503 -0.2395 -0.2974 -0.8483
  135OSM    C1414516   3.900   4.066   4.547  0.5557  0.3923  0.1842
  135OSM   H14A14517   3.899   4.163   4.594  0.6019  0.1406  0.7098
  135OSM   H14B14518   3.833   4.002   4.603 -0.4398 -0.4375 -1.8472
  135OSM   H14C14519   3.860   4.086   4.448  0.7840  0.2410  0.0609
  135OSM    C1314520   4.035   3.879   4.491 -0.0003  0.7138  0.6789
  135OSM   H13A14521   3.975   3.815   4.553  0.3014  3.4442  4.1523
  135OSM   H13B14522   4.133   3.834   4.497 -0.7124 -1.0657 -0.3783
  135OSM   H13C14523   4.005   3.888   4.388 -0.1745 -0.7566  0.5837
  135OSM    C1214524   4.087   3.988   4.708  0.7552  0.0976 -0.1774
  135OSM   H12A14525   4.107   4.085   4.753 -0.6827 -0.4220  1.7020
  135OSM   H12B14526   4.179   3.931   4.714  2.2410  2.2857 -0.8445
  135OSM    C1114527   3.976   3.926   4.804 -0.7698 -1.1764 -0.1822
  135OSM   H11A14528   3.882   3.985   4.804 -0.0587 -0.0070 -0.7950
  135OSM   H11B14529   4.035   3.936   4.898  1.5267  0.7522 -1.6854
  135OSM      P14530   4.036   3.675   4.824 -0.2802 -0.1729 -0.0525
  135OSM    O1314531   3.982   3.549   4.769  0.6282 -0.5458  0.5646
  135OSM    O1414532   4.178   3.701   4.791  0.2202  0.1993  0.6145
  135OSM    O1114533   4.003   3.692   4.971  0.6316 -0.4599  0.6128
  135OSM    O1214534   3.944   3.793   4.770  0.1611 -0.2110  0.1338
  135OSM    C1S14535   3.874   3.732   5.023  0.0028 -0.4696 -0.0500
  135OSM    H1S14536   3.791   3.691   4.960  0.3275  0.7783 -1.3349
  135OSM    H1T14537   3.871   3.842   5.033  0.3373 -0.5553  1.1565
  135OSM     NF14538   3.719   3.654   5.201 -0.6551 -0.0974 -0.9376
  135OSM    HNF14539   3.676   3.717   5.264 -0.5335  0.1056 -1.0551
  135OSM    C2S14540   3.858   3.683   5.170 -0.0630 -0.8501 -0.7832
  135OSM    H2S14541   3.909   3.584   5.180 -0.1553 -0.8502 -0.2688
  135OSM    C3S14542   3.939   3.780   5.258  0.6819  0.0813  0.5214
  135OSM    H3S14543   3.889   3.879   5.250 -3.2291 -1.5707  2.3314
  135OSM     O314544   4.072   3.794   5.217 -0.6617  0.2421  0.1674
  135OSM    HO314545   4.072   3.774   5.123  1.5501  1.9296 -0.2874
  135OSM    C4S14546   3.929   3.735   5.407 -0.1574 -0.6058  0.5860
  135OSM    H4S14547   3.954   3.629   5.425  0.4081 -0.6195 -0.2084
  135OSM    C5S14548   3.904   3.818   5.510  0.3723  0.0415 -0.4205
  135OSM    H5S14549   3.880   3.926   5.507  0.2693  0.2027  2.5281
  135OSM    C6S14550   3.918   3.775   5.657 -0.0719 -0.0501  0.8162
  135OSM    H6S14551   3.952   3.858   5.723 -0.0995  0.9009 -0.3420
  135OSM    H6T14552   3.994   3.695   5.664 -1.1412 -1.2113 -0.4606
  135OSM    C7S14553   3.788   3.717   5.721 -0.2726 -0.1181  0.4014
  135OSM    H7S14554   3.724   3.672   5.642 -1.6340  1.3742  0.6041
  135OSM    H7T14555   3.737   3.806   5.764  0.2615  0.1442  0.4907
  135OSM    C8S14556   3.809   3.635   5.844  0.0172  0.5603 -0.0495
  135OSM    H8S14557   3.717   3.600   5.897  1.4580 -0.5041  1.8893
  135OSM    H8T14558   3.852   3.701   5.922 -0.0745  0.6286 -0.0563
  135OSM    C9S14559   3.894   3.508   5.819  0.0317  0.8058  0.2917
  135OSM    H9S14560   3.992   3.542   5.779 -0.8752 -0.0310 -2.8865
  135OSM    H9T14561   3.847   3.439   5.747  1.7023 -0.4921  0.3838
  135OSM   C10S14562   3.922   3.436   5.952 -0.5258 -0.2887  0.1093
  135OSM   H10S14563   3.958   3.507   6.029 -1.7783 -3.1382  3.5867
  135OSM   H10T14564   4.001   3.360   5.936 -0.8546 -0.6674  0.2717
  135OSM   C11S14565   3.806   3.362   6.023  0.4239  0.8589 -0.6099
  135OSM   H11S14566   3.792   3.266   5.968 -0.6863 -0.2796  1.5357
  135OSM   H11T14567   3.707   3.410   6.038 -0.1223 -0.4426  0.0740
  135OSM   C12S14568   3.855   3.315   6.166 -0.5662 -0.1232  0.3800
  135OSM   H12S14569   3.870   3.400   6.236 -0.6443 -1.0829  1.6086
  135OSM   H12T14570   3.952   3.264   6.149  0.7319  2.4029 -0.2527
  135OSM   C13S14571   3.755   3.226   6.249  0.5369  0.4433 -0.6270
  135OSM   H13S14572   3.733   3.125   6.208 -1.1309 -1.1424  3.5338
  135OSM   H13T14573   3.664   3.286   6.269  0.9513  0.6779  0.6903
  135OSM   C14S14574   3.818   3.205   6.391 -1.1396  0.1432 -0.3492
  135OSM   H14S14575   3.834   3.302   6.443  1.1426 -0.8151  0.9246
  135OSM   H14T14576   3.915   3.153   6.374 -0.5120  1.2655 -0.2435
  135OSM   C15S14577   3.739   3.099   6.476 -0.4408  0.2679  0.0976
  135OSM   H15S14578   3.729   3.016   6.403  2.3607 -0.3115  0.2818
  135OSM   H15T14579   3.638   3.139   6.503 -1.0081 -0.8823 -0.2439
  135OSM   C16S14580   3.824   3.060   6.598 -0.1780  0.3485  0.0027
  135OSM   H16S14581   3.885   3.145   6.633  0.4111  0.1991 -0.6474
  135OSM   H16T14582   3.888   2.978   6.559  1.2285  1.0557  0.7633
  135OSM   C17S14583   3.739   3.005   6.712 -0.2369  0.7866 -0.7954
  135OSM   H17S14584   3.813   2.970   6.788  2.7632  3.7022 -2.1411
  135OSM   H17T14585   3.690   2.910   6.681  0.3905 -0.2485  1.1517
  135OSM   C18S14586   3.629   3.097   6.766 -0.1947 -0.1283  0.6337
  135OSM   H18S14587   3.584   3.161   6.687  1.6838  0.0525 -0.3295
  135OSM   H18T14588   3.672   3.163   6.845 -0.5406  0.5995  0.2226
  135OSM   H18U14589   3.547   3.043   6.818  0.9848  1.8644  5.1056
  135OSM    C1F14590   3.651   3.550   5.147  0.3525 -0.9223  0.0954
  135OSM     OF14591   3.708   3.465   5.085 -0.5147 -0.2739  0.4501
  135OSM    C2F14592   3.500   3.561   5.162 -0.2153 -0.1455  0.0943
  135OSM    H2F14593   3.459   3.603   5.068 -2.7979 -0.4256  1.0143
  135OSM    H2G14594   3.484   3.635   5.243 -0.4443 -0.2032  0.1038
  135OSM    C3F14595   3.430   3.430   5.182  0.0249  0.7608 -0.4266
  135OSM    H3F14596   3.433   3.371   5.087 -0.7945  0.4571 -0.2739
  135OSM    H3G14597   3.320   3.445   5.196 -0.6529 -3.0536 -0.7237
  135OSM    C4F14598   3.474   3.344   5.302  0.5340  0.1886 -1.3072
  135OSM    H4F14599   3.582   3.321   5.300  0.4465 -1.3357  2.7182
  135OSM    H4G14600   3.424   3.245   5.304  0.5315  0.1997 -0.4413
  135OSM    C5F14601   3.468   3.415   5.440  0.4305 -0.0184  0.0993
  135OSM    H5F14602   3.364   3.409   5.480  0.5035 -3.4402  0.0401
  135OSM    H5G14603   3.509   3.518   5.428  1.4623 -0.4283  0.0301
  135OSM    C6F14604   3.554   3.335   5.542 -0.2216  0.2032  0.9792
  135OSM    H6F14605   3.660   3.339   5.512  0.0339 -3.1759  1.1092
  135OSM    H6G14606   3.515   3.231   5.537  0.1128  0.1263 -0.4369
  135OSM    C7F14607   3.543   3.404   5.680  0.0920  0.1599 -0.3496
  135OSM    H7F14608   3.559   3.512   5.660 -1.7295  0.8999  1.7989
  135OSM    H7G14609   3.608   3.352   5.754 -2.3187 -2.1388  0.3076
  135OSM    C8F14610   3.399   3.395   5.741 -0.1067  0.0256  0.1741
  135OSM    H8F14611   3.369   3.288   5.751 -0.6591  0.2421  0.8422
  135OSM    H8G14612   3.320   3.443   5.680  0.6392 -0.9250 -1.6377
  135OSM    C9F14613   3.387   3.440   5.883  0.0421 -0.2552  0.5736
  135OSM    H9F14614   3.375   3.549   5.886 -2.1529 -0.3540 -1.2262
  135OSM   C10F14615   3.398   3.374   6.002  0.1805 -0.2769  0.1570
  135OSM   H10F14616   3.389   3.435   6.093  1.6745 -0.2585  0.3050
  135OSM   C11F14617   3.434   3.227   6.026  0.0188  0.4992  0.3986
  135OSM   H11F14618   3.530   3.219   6.081  0.1100 -0.7152  0.0798
  135OSM   H11G14619   3.451   3.180   5.927  0.3418 -2.0652  1.5945
  135OSM   C12F14620   3.332   3.161   6.125  0.3785 -0.6393 -0.1679
  135OSM   H12F14621   3.353   3.052   6.129 -0.1857 -0.7206  1.0318
  135OSM   H12G14622   3.228   3.179   6.088  0.8840  3.2181 -0.1779
  135OSM   C13F14623   3.339   3.217   6.272  0.6475 -0.3762  0.6470
  135OSM   H13F14624   3.323   3.327   6.273  1.3938 -0.2621  0.4164
  135OSM   H13G14625   3.440   3.208   6.316  0.1427  0.5443  2.0766
  135OSM   C14F14626   3.235   3.145   6.365 -0.0393 -0.4840  0.1019
  135OSM   H14F14627   3.209   3.052   6.310  2.2597 -2.0326  1.4677
  135OSM   H14G14628   3.144   3.207   6.383 -1.0427 -1.1384 -2.2580
  135OSM   C15F14629   3.312   3.094   6.492  0.3406  0.2838 -0.3279
  135OSM   H15F14630   3.352   3.179   6.552 -0.5663  0.4207  0.0951
  135OSM   H15G14631   3.392   3.028   6.452  2.0245  1.2847  1.2083
  135OSM   C16F14632   3.220   3.019   6.593 -0.1842 -0.3710  0.9039
  135OSM   H16F14633   3.185   2.925   6.545 -0.6060  1.0165 -1.6644
  135OSM   H16G14634   3.128   3.074   6.622 -0.7740 -1.6749  1.6365
  135OSM   C17F14635   3.292   2.982   6.733  0.0223  0.0875  0.4045
  135OSM   H17F14636   3.294   3.073   6.796  1.8094 -0.8133  1.7094
  135OSM   H17G14637   3.393   2.952   6.700 -0.6621  0.0090 -1.7955
  135OSM   C18F14638   3.212   2.857   6.795 -0.1561  0.3197  0.1590
  135OSM   H18F14639   3.114   2.890   6.835 -0.0784  0.8908 -0.1109
  135OSM   H18G14640   3.271   2.805   6.874 -0.9777  0.4767  0.8843
  135OSM   H18H14641   3.197   2.788   6.709  0.9629  0.9757 -0.5830
  136OSM      N14642   2.110   0.369   4.025 -0.4211  0.5300 -0.0843
  136OSM    C1514643   2.080   0.229   3.968 -0.2286  0.0637  0.3702
  136OSM   H15A14644   2.097   0.227   3.861  2.4044  1.2326  0.6933
  136OSM   H15B14645   1.978   0.199   3.986  0.0157 -0.0514  1.6379
  136OSM   H15C14646   2.147   0.153   4.006  0.5256  0.8519  0.6599
  136OSM    C1414647   2.241   0.407   3.975 -0.3824  0.0260  0.1397
  136OSM   H14A14648   2.238   0.434   3.870 -0.3330  2.0761  0.6165
  136OSM   H14B14649   2.310   0.326   3.992 -1.4120 -0.9766 -0.3072
  136OSM   H14C14650   2.283   0.486   4.036  2.9321 -1.7481  0.3592
  136OSM    C1314651   2.009   0.464   3.977  0.5021 -0.5710  0.5473
  136OSM   H13A14652   2.048   0.564   3.978 -0.5978 -0.1049 -0.3496
  136OSM   H13B14653   1.918   0.466   4.036  0.6728  0.5174  0.7876
  136OSM   H13C14654   1.978   0.446   3.875 -0.7034  0.2925  0.7463
  136OSM    C1214655   2.116   0.364   4.177 -0.8664 -0.0547  0.2266
  136OSM   H12A14656   2.203   0.301   4.188 -1.2450 -0.8794 -1.2061
  136OSM   H12B14657   2.026   0.316   4.214 -3.2330  3.0143 -1.0641
  136OSM    C1114658   2.142   0.492   4.259 -0.2999  0.2876  0.7485
  136OSM   H11A14659   2.116   0.465   4.364 -0.4903 -0.9294  0.4063
  136OSM   H11B14660   2.072   0.574   4.234 -1.0114  0.2185  2.3676
  136OSM      P14661   2.403   0.461   4.306  0.4407 -0.2671  0.0568
  136OSM    O1314662   2.388   0.318   4.259  0.3868  0.0734 -0.4489
  136OSM    O1414663   2.526   0.538   4.264 -0.1473  0.0490  0.3555
  136OSM    O1114664   2.385   0.464   4.465  0.1697  0.5193  0.8274
  136OSM    O1214665   2.276   0.539   4.253  0.3598  0.2044 -0.0465
  136OSM    C1S14666   2.357   0.591   4.528 -0.3963 -0.3057 -0.1605
  136OSM    H1S14667   2.270   0.645   4.485 -0.5724  1.0706  1.8382
  136OSM    H1T14668   2.438   0.661   4.498  0.9645 -1.5847  0.3946
  136OSM     NF14669   2.265   0.709   4.716  0.0354 -0.0226  0.1709
  136OSM    HNF14670   2.312   0.786   4.758  0.4500  0.7448 -1.6527
  136OSM    C2S14671   2.325   0.584   4.675  0.7121 -0.3497  0.5606
  136OSM    H2S14672   2.255   0.498   4.681  1.0950 -0.6927  0.1677
  136OSM    C3S14673   2.455   0.549   4.756  0.4282  0.6352  0.4588
  136OSM    H3S14674   2.508   0.646   4.747 -0.4874  1.0095 -1.2658
  136OSM     O314675   2.532   0.444   4.695  0.6880  0.0291 -0.6480
  136OSM    HO314676   2.487   0.449   4.611 -1.4161 -2.4219  0.2041
  136OSM    C4S14677   2.438   0.525   4.905  0.4913 -0.2746 -0.2094
  136OSM    H4S14678   2.474   0.606   4.971  0.4038 -0.5008  0.1146
  136OSM    C5S14679   2.377   0.416   4.957  0.3626 -0.5924 -0.4358
  136OSM    H5S14680   2.334   0.339   4.890  0.5497 -0.1651 -1.0531
  136OSM    C6S14681   2.357   0.376   5.099  0.4087 -0.6360 -0.1792
  136OSM    H6S14682   2.289   0.288   5.101 -0.4102 -0.0048  0.9047
  136OSM    H6T14683   2.318   0.462   5.157 -1.0337  0.2935 -2.3811
  136OSM    C7S14684   2.492   0.330   5.171  0.4176 -0.4541 -0.0185
  136OSM    H7S14685   2.563   0.416   5.166 -0.6560  0.3648 -2.2320
  136OSM    H7T14686   2.537   0.244   5.118  2.2152 -0.4679  1.4269
  136OSM    C8S14687   2.464   0.287   5.322 -0.3065 -0.1726  0.6401
  136OSM    H8S14688   2.360   0.253   5.310  0.6037 -2.6544 -0.9351
  136OSM    H8T14689   2.463   0.371   5.395  1.1292  0.0475  0.4541
  136OSM    C9S14690   2.545   0.168   5.371 -0.7522  0.0285  0.3202
  136OSM    H9S14691   2.652   0.197   5.368 -1.0232  1.2967  1.8192
  136OSM    H9T14692   2.534   0.081   5.302 -0.7837 -0.7223  1.2635
  136OSM   C10S14693   2.526   0.137   5.516 -0.4814  0.4265 -0.7716
  136OSM   H10S14694   2.587   0.045   5.534 -4.8721 -2.7811 -0.7134
  136OSM   H10T14695   2.423   0.097   5.530  0.2157 -0.6427  2.1564
  136OSM   C11S14696   2.548   0.244   5.621 -0.2190  0.0339 -0.8238
  136OSM   H11S14697   2.467   0.319   5.613 -1.2625 -1.0632 -0.8574
  136OSM   H11T14698   2.648   0.291   5.607  0.5907 -1.2767  0.2867
  136OSM   C12S14699   2.553   0.182   5.765 -0.8435  0.1509  0.8312
  136OSM   H12S14700   2.632   0.105   5.771 -1.0052  0.0720  2.5453
  136OSM   H12T14701   2.454   0.139   5.790 -1.2043  0.2335 -0.3779
  136OSM   C13S14702   2.585   0.290   5.870 -0.3687 -0.1551 -0.1857
  136OSM   H13S14703   2.501   0.361   5.857 -2.4456 -2.7397 -1.9167
  136OSM   H13T14704   2.681   0.345   5.857 -0.1024 -0.8213 -1.2222
  136OSM   C14S14705   2.583   0.228   6.011 -0.1876  0.5958  0.5610
  136OSM   H14S14706   2.499   0.155   6.007  0.4395 -0.1036 -0.6750
  136OSM   H14T14707   2.555   0.304   6.087 -0.0644  2.3662 -1.0727
  136OSM   C15S14708   2.704   0.145   6.042 -0.8627 -0.2687 -0.9307
  136OSM   H15S14709   2.791   0.215   6.043 -1.4296  0.4727  1.3437
  136OSM   H15T14710   2.714   0.056   5.975 -0.8252 -1.0988  0.1562
  136OSM   C16S14711   2.680   0.085   6.184 -0.1873 -0.0016 -0.1704
  136OSM   H16S14712   2.592   0.020   6.166 -0.3065  0.7483 -2.7262
  136OSM   H16T14713   2.642   0.165   6.251 -0.9690 -2.1533  2.0825
  136OSM   C17S14714   2.800   0.008   6.244  0.1169  0.3202 -0.2914
  136OSM   H17S14715   2.778  -0.010   6.351 -0.6730 -1.0576 -0.6542
  136OSM   H17T14716   2.891   0.071   6.250  1.6514 -1.9290  1.5791
  136OSM   C18S14717   2.835  -0.121   6.165 -0.6949  0.4810  0.0288
  136OSM   H18S14718   2.907  -0.179   6.226  0.8558  0.5633 -1.6174
  136OSM   H18T14719   2.891  -0.109   6.070 -1.0908  0.7178 -0.1773
  136OSM   H18U14720   2.744  -0.180   6.142 -0.2456 -0.5308  0.7933
  136OSM    C1F14721   2.144   0.734   4.672  0.1625  0.3408 -0.6629
  136OSM     OF14722   2.066   0.651   4.634  0.1368  0.4680 -0.6767
  136OSM    C2F14723   2.102   0.881   4.676  0.0967 -0.3920 -0.1731
  136OSM    H2F14724   2.075   0.913   4.573 -0.3565  0.3340  0.1663
  136OSM    H2G14725   2.180   0.952   4.709  0.0855 -0.1544 -0.6427
  136OSM    C3F14726   1.972   0.899   4.761 -0.1686  0.2100 -0.5551
  136OSM    H3F14727   1.881   0.843   4.729 -1.0340  1.1983  0.0893
  136OSM    H3G14728   1.947   1.007   4.752 -1.7078 -0.1595 -1.1254
  136OSM    C4F14729   1.993   0.862   4.914 -0.0997 -0.5874  0.5189
  136OSM    H4F14730   2.089   0.905   4.952 -0.0863 -1.0556  1.0220
  136OSM    H4G14731   1.994   0.752   4.925 -0.6947 -0.6736 -0.2210
  136OSM    C5F14732   1.878   0.921   5.000 -0.7518  0.1520  0.0350
  136OSM    H5F14733   1.779   0.885   4.963 -0.7781  1.1986 -0.9694
  136OSM    H5G14734   1.870   1.031   4.985  0.1544  0.3035  0.6138
  136OSM    C6F14735   1.900   0.882   5.146 -0.5820 -0.1682  0.4764
  136OSM    H6F14736   2.000   0.910   5.187  0.0274 -1.5154 -0.0368
  136OSM    H6G14737   1.894   0.771   5.150  0.0392 -0.3866 -2.4200
  136OSM    C7F14738   1.798   0.957   5.238 -0.6133 -0.3099  0.6089
  136OSM    H7F14739   1.699   0.932   5.195 -0.0549  0.0328 -0.9713
  136OSM    H7G14740   1.835   1.062   5.241 -1.2219 -0.0736 -0.0180
  136OSM    C8F14741   1.799   0.892   5.378 -0.6226  0.0607  0.3016
  136OSM    H8F14742   1.897   0.921   5.421 -0.0561 -0.7186 -0.4155
  136OSM    H8G14743   1.812   0.783   5.359  0.5587 -0.1090  1.9150
  136OSM    C9F14744   1.680   0.912   5.475 -0.8398  0.1947 -0.2433
  136OSM    H9F14745   1.582   0.885   5.433 -0.2206 -0.6520 -1.2160
  136OSM   C10F14746   1.692   0.942   5.607  0.9449  0.2580  0.3790
  136OSM   H10F14747   1.598   0.942   5.666  0.6408 -0.1272 -0.1011
  136OSM   C11F14748   1.815   0.962   5.691  0.4910  0.8664 -0.2860
  136OSM   H11F14749   1.832   1.059   5.741  1.7598 -0.3365  1.7224
  136OSM   H11G14750   1.905   0.934   5.632  0.3167 -0.5433  0.0697
  136OSM   C12F14751   1.808   0.855   5.804 -0.2169 -0.4066  0.8797
  136OSM   H12F14752   1.777   0.754   5.770  0.8169 -0.2599 -0.6124
  136OSM   H12G14753   1.724   0.891   5.867  0.0535  1.0455  0.4516
  136OSM   C13F14754   1.941   0.849   5.883 -0.0562  0.0042  0.0908
  136OSM   H13F14755   1.986   0.950   5.881 -0.9604  0.4395  0.9342
  136OSM   H13G14756   2.017   0.787   5.831  0.2081 -0.0704  0.5582
  136OSM   C14F14757   1.906   0.800   6.025  0.1594  0.5528  0.8420
  136OSM   H14F14758   1.852   0.703   6.027  2.1055 -0.5910  0.0895
  136OSM   H14G14759   1.830   0.870   6.065 -0.7264 -0.8821  1.8003
  136OSM   C15F14760   2.014   0.794   6.132  0.2844 -0.5459  0.6807
  136OSM   H15F14761   2.085   0.879   6.125  0.1633 -0.5495 -1.2837
  136OSM   H15G14762   2.073   0.704   6.107  1.8978  0.8065 -0.7016
  136OSM   C16F14763   1.953   0.782   6.269 -0.6629 -0.3755 -0.3925
  136OSM   H16F14764   1.898   0.875   6.294 -1.0541 -0.7239  0.0702
  136OSM   H16G14765   2.039   0.773   6.339 -1.1722  4.0279  1.1292
  136OSM   C17F14766   1.862   0.669   6.304 -0.2323  0.5495 -0.1127
  136OSM   H17F14767   1.905   0.602   6.381  2.0630  0.8220 -1.0908
  136OSM   H17G14768   1.842   0.605   6.215 -2.5502 -1.8524  1.9587
  136OSM   C18F14769   1.726   0.711   6.346 -0.3198  0.1399 -0.3670
  136OSM   H18F14770   1.747   0.757   6.446  0.6775  1.7021 -1.2444
  136OSM   H18G14771   1.651   0.630   6.357 -0.7236  0.5924  0.2975
  136OSM   H18H14772   1.687   0.797   6.287 -0.4491  0.9978  0.9174
  137OSM      N14773   1.483   3.398   4.632  0.2955  0.1721  0.2336
  137OSM    C1514774   1.601   3.425   4.550 -0.2087 -0.2701  0.8063
  137OSM   H15A14775   1.633   3.527   4.560 -0.8327 -0.1854  2.1537
  137OSM   H15B14776   1.580   3.396   4.448 -3.1126 -0.9350  1.4887
  137OSM   H15C14777   1.690   3.371   4.580  2.0051  1.4417 -2.1392
  137OSM    C1414778   1.505   3.468   4.764  0.4462  0.4605  0.8863
  137OSM   H14A14779   1.411   3.475   4.818  0.3581  1.4068  0.6324
  137OSM   H14B14780   1.543   3.569   4.751  1.3386 -0.0281 -0.4721
  137OSM   H14C14781   1.573   3.409   4.823 -0.0812 -0.8365  0.2148
  137OSM    C1314782   1.361   3.441   4.563  1.0986 -0.1058 -0.3639
  137OSM   H13A14783   1.340   3.379   4.477  0.2064  0.2758 -0.4274
  137OSM   H13B14784   1.375   3.544   4.532  2.3840 -0.6622 -1.7918
  137OSM   H13C14785   1.270   3.447   4.620  0.7568  1.3726 -1.0048
  137OSM    C1214786   1.469   3.243   4.647  0.4667 -0.3136  0.5473
  137OSM   H12A14787   1.451   3.201   4.549 -1.7726  1.1086  0.2711
  137OSM   H12B14788   1.377   3.215   4.696 -1.3901  1.0960 -1.8828
  137OSM    C1114789   1.581   3.168   4.705 -0.0017  0.4808 -0.7673
  137OSM   H11A14790   1.548   3.066   4.734  0.0515 -0.0883 -2.5788
  137OSM   H11B14791   1.610   3.218   4.799 -3.0341 -0.1014  0.6035
  137OSM      P14792   1.732   3.024   4.556  0.0356 -0.2766 -0.0320
  137OSM    O1314793   1.617   2.969   4.475  0.1709 -1.2949 -0.4514
  137OSM    O1414794   1.862   3.049   4.482 -0.4194 -0.0164 -0.0877
  137OSM    O1114795   1.744   2.938   4.680  0.0157 -0.1495 -0.6366
  137OSM    O1214796   1.690   3.164   4.615 -0.2162 -0.5327  0.1340
  137OSM    C1S14797   1.845   2.958   4.779  0.8886  0.5989 -0.0757
  137OSM    H1S14798   1.905   3.051   4.773  0.0333  1.1971  0.3203
  137OSM    H1T14799   1.907   2.866   4.784  0.1823  0.1506  0.8815
  137OSM     NF14800   1.884   2.990   5.016 -0.5531 -0.5441 -0.2243
  137OSM    HNF14801   1.930   2.919   5.069  0.4487  0.4010  0.1932
  137OSM    C2S14802   1.781   2.953   4.922 -0.1102  0.4168  0.2864
  137OSM    H2S14803   1.703   3.033   4.922 -0.5327  0.0171 -0.2942
  137OSM    C3S14804   1.713   2.813   4.949 -0.2039  0.1512  1.1879
  137OSM    H3S14805   1.791   2.735   4.961 -1.4984 -1.4613 -0.3226
  137OSM     O314806   1.619   2.765   4.851 -0.2185  0.2632 -0.3745
  137OSM    HO314807   1.638   2.797   4.763  0.8714  0.0599 -0.2247
  137OSM    C4S14808   1.658   2.809   5.089  0.0166  0.4236 -0.6735
  137OSM    H4S14809   1.725   2.749   5.152  2.1860  1.5755 -1.7499
  137OSM    C5S14810   1.546   2.864   5.140 -0.3075  0.2422 -0.3873
  137OSM    H5S14811   1.479   2.926   5.080 -0.3005  0.4903 -0.1431
  137OSM    C6S14812   1.502   2.853   5.287  0.6152  0.1712 -0.1291
  137OSM    H6S14813   1.403   2.809   5.308 -0.4413  2.4596  0.0431
  137OSM    H6T14814   1.483   2.948   5.341  0.1953 -0.5711  1.0560
  137OSM    C7S14815   1.599   2.794   5.392 -0.0690 -0.2950  0.0813
  137OSM    H7S14816   1.689   2.860   5.395 -1.1966  1.5008 -2.3521
  137OSM    H7T14817   1.628   2.690   5.366  1.8798  0.0286  0.8128
  137OSM    C8S14818   1.543   2.803   5.537 -0.1072 -0.1438  0.8750
  137OSM    H8S14819   1.446   2.749   5.529  0.3796 -1.3429  2.4876
  137OSM    H8T14820   1.504   2.903   5.567  1.0177  0.9018 -0.9810
  137OSM    C9S14821   1.648   2.766   5.645 -0.3381 -0.1066 -0.1362
  137OSM    H9S14822   1.726   2.845   5.646  0.5569 -0.9333  2.5772
  137OSM    H9T14823   1.693   2.673   5.604 -0.1011 -0.5785  1.1461
  137OSM   C10S14824   1.570   2.739   5.769  0.0259  0.0460 -0.4783
  137OSM   H10S14825   1.483   2.672   5.752 -1.6205  2.1447 -0.8234
  137OSM   H10T14826   1.511   2.825   5.808 -0.7380 -0.6054 -0.1589
  137OSM   C11S14827   1.649   2.669   5.882 -0.4071 -0.2407 -0.1590
  137OSM   H11S14828   1.728   2.607   5.833 -0.0726 -0.2303  0.3599
  137OSM   H11T14829   1.573   2.606   5.934  0.6728 -1.0329  0.5000
  137OSM   C12S14830   1.694   2.764   6.002  0.4801  0.3465  1.4801
  137OSM   H12S14831   1.599   2.813   6.032 -0.7746  0.7519 -2.5093
  137OSM   H12T14832   1.756   2.848   5.965  0.5645 -0.1156  0.5315
  137OSM   C13S14833   1.758   2.685   6.109 -0.7810  0.1045  0.4753
  137OSM   H13S14834   1.851   2.640   6.067  0.3856  0.0183  2.9233
  137OSM   H13T14835   1.684   2.607   6.136  0.2671 -0.3606  2.2502
  137OSM   C14S14836   1.783   2.763   6.244  0.1209 -0.0331  0.0084
  137OSM   H14S14837   1.691   2.819   6.271  0.5390 -0.1710  1.8868
  137OSM   H14T14838   1.850   2.846   6.211  1.9058 -0.6628  1.8214
  137OSM   C15S14839   1.848   2.686   6.356 -0.3810 -0.1584  0.4895
  137OSM   H15S14840   1.953   2.656   6.334 -0.9500 -1.7545 -0.2365
  137OSM   H15T14841   1.799   2.588   6.370  0.7666 -0.3557  4.1107
  137OSM   C16S14842   1.842   2.762   6.488  0.0912  0.1412 -0.0778
  137OSM   H16S14843   1.740   2.805   6.492  0.5537  1.1878  1.0423
  137OSM   H16T14844   1.912   2.848   6.495 -0.7991  0.9937 -1.2812
  137OSM   C17S14845   1.859   2.667   6.611 -0.6359  0.8060 -0.3477
  137OSM   H17S14846   1.784   2.588   6.592  0.7640  0.2465 -4.9280
  137OSM   H17T14847   1.812   2.714   6.700 -1.1779  2.8186 -1.6043
  137OSM   C18S14848   1.996   2.617   6.646 -0.6848 -0.7522 -0.3842
  137OSM   H18S14849   2.006   2.507   6.634  1.4456 -0.6127 -0.2602
  137OSM   H18T14850   2.027   2.644   6.749  0.9894  1.9552 -1.5203
  137OSM   H18U14851   2.083   2.655   6.588  0.0483 -0.7169  0.7265
  137OSM    C1F14852   1.925   3.117   5.030  0.5957 -0.3092 -0.0415
  137OSM     OF14853   1.866   3.203   4.971  0.4854 -0.1871 -0.7219
  137OSM    C2F14854   2.061   3.137   5.093 -0.7799  0.2444  0.5139
  137OSM    H2F14855   2.127   3.070   5.036 -2.7458 -0.2292 -1.3361
  137OSM    H2G14856   2.051   3.100   5.198 -0.3505 -2.2340 -0.2543
  137OSM    C3F14857   2.095   3.286   5.099  0.1156 -0.3418 -0.0405
  137OSM    H3F14858   2.021   3.325   5.172 -0.0266 -2.1490  0.8347
  137OSM    H3G14859   2.088   3.339   5.001 -1.0555 -2.0407 -0.9254
  137OSM    C4F14860   2.240   3.307   5.156  0.0477 -0.1568 -0.1974
  137OSM    H4F14861   2.275   3.406   5.121  0.6318  0.0702  0.9851
  137OSM    H4G14862   2.293   3.226   5.101  1.5063 -0.5525  1.6908
  137OSM    C5F14863   2.245   3.301   5.305  0.3921  1.0615  0.0086
  137OSM    H5F14864   2.192   3.211   5.345 -0.5082  1.2685 -0.6939
  137OSM    H5G14865   2.180   3.382   5.344 -0.3067  1.2908 -1.5496
  137OSM    C6F14866   2.374   3.348   5.361  0.3238 -0.0427  0.4597
  137OSM    H6F14867   2.373   3.459   5.354  1.1162 -0.0798 -0.4954
  137OSM    H6G14868   2.458   3.299   5.307  0.0172 -0.5485  0.4394
  137OSM    C7F14869   2.393   3.315   5.509 -0.0584 -0.0116 -0.5074
  137OSM    H7F14870   2.386   3.206   5.531 -0.7472  0.0492 -0.4039
  137OSM    H7G14871   2.306   3.355   5.565  0.4246 -2.3153  2.1303
  137OSM    C8F14872   2.524   3.371   5.571  0.2014  0.4023  0.1798
  137OSM    H8F14873   2.613   3.322   5.527 -0.4664 -1.3285  0.6550
  137OSM    H8G14874   2.526   3.342   5.678  1.5365  2.5377  0.7914
  137OSM    C9F14875   2.547   3.516   5.564 -0.0638  0.2465  0.0926
  137OSM    H9F14876   2.605   3.549   5.477 -0.9056  0.3708 -0.4253
  137OSM   C10F14877   2.511   3.610   5.652 -0.1717 -0.5653  0.5339
  137OSM   H10F14878   2.551   3.711   5.635 -0.1460  0.1264  3.9014
  137OSM   C11F14879   2.436   3.576   5.778 -0.1732 -0.2211  0.4747
  137OSM   H11F14880   2.402   3.470   5.781  0.2068 -0.4060 -1.1064
  137OSM   H11G14881   2.366   3.657   5.808 -0.1538  0.0682 -0.2546
  137OSM   C12F14882   2.542   3.585   5.885 -0.7812  0.5511  0.2432
  137OSM   H12F14883   2.598   3.681   5.886  1.8705 -0.8833 -1.4889
  137OSM   H12G14884   2.623   3.510   5.875 -1.2633 -0.1002  1.0555
  137OSM   C13F14885   2.461   3.568   6.010 -0.9547 -0.2575 -0.2128
  137OSM   H13F14886   2.414   3.468   6.020  0.4383 -1.1256 -1.7471
  137OSM   H13G14887   2.369   3.630   6.013 -2.3618 -2.2914  2.3514
  137OSM   C14F14888   2.553   3.617   6.129  0.2108  0.5757  0.2464
  137OSM   H14F14889   2.586   3.722   6.113  1.5950 -0.1132 -1.9423
  137OSM   H14G14890   2.642   3.551   6.128 -0.7120 -0.7304  1.0053
  137OSM   C15F14891   2.470   3.608   6.259 -0.3678 -0.5618 -0.2985
  137OSM   H15F14892   2.463   3.500   6.285  2.4439 -1.2929 -2.1251
  137OSM   H15G14893   2.369   3.651   6.241 -0.8360 -0.7611  1.7007
  137OSM   C16F14894   2.557   3.684   6.363 -0.0342 -0.3878 -0.3238
  137OSM   H16F14895   2.582   3.781   6.317 -0.5087 -0.6542 -1.1678
  137OSM   H16G14896   2.645   3.622   6.392 -0.7201 -2.0806 -1.6888
  137OSM   C17F14897   2.475   3.706   6.491  0.8325 -0.4154 -0.5099
  137OSM   H17F14898   2.444   3.608   6.533  1.3463 -1.3131 -2.1238
  137OSM   H17G14899   2.385   3.765   6.464  0.8421 -0.2388 -0.1468
  137OSM   C18F14900   2.557   3.773   6.597 -0.3907  1.0055 -0.5404
  137OSM   H18F14901   2.657   3.725   6.606 -1.1599 -0.4073  0.9900
  137OSM   H18G14902   2.505   3.758   6.694 -1.1710  1.4865 -0.8773
  137OSM   H18H14903   2.564   3.882   6.577  1.3764  1.3736  1.6631
  138OSM      N14904   5.164   6.521   3.945 -0.2131  0.0862 -0.2314
  138OSM    C1514905   5.211   6.615   3.840 -0.0235  0.0771  0.5615
  138OSM   H15A14906   5.149   6.704   3.842  0.1927  0.2347  0.3580
  138OSM   H15B14907   5.207   6.564   3.745 -1.0153 -2.8102  2.0446
  138OSM   H15C14908   5.313   6.644   3.865 -0.9639  0.5943  4.5162
  138OSM    C1414909   5.220   6.390   3.930 -0.3285  0.2484 -0.0334
  138OSM   H14A14910   5.176   6.327   4.005  0.3083  0.2496  0.3488
  138OSM   H14B14911   5.328   6.396   3.929 -0.2959 -0.1993  0.5770
  138OSM   H14C14912   5.188   6.337   3.841 -0.2507  0.5213 -0.2267
  138OSM    C1314913   5.194   6.576   4.076 -0.6297 -0.8677 -0.2568
  138OSM   H13A14914   5.295   6.558   4.110 -0.6319 -0.8212 -0.2238
  138OSM   H13B14915   5.121   6.534   4.144  0.7378 -2.2315  0.4184
  138OSM   H13C14916   5.180   6.682   4.093  0.6710 -0.8200  0.6444
  138OSM    C1214917   5.009   6.508   3.922 -0.2890  0.0344 -0.4517
  138OSM   H12A14918   5.001   6.453   3.829  0.4354  2.4029 -1.9993
  138OSM   H12B14919   4.955   6.599   3.902  1.6446  1.3208 -0.1067
  138OSM    C1114920   4.928   6.449   4.046  0.0989 -0.4182  0.1171
  138OSM   H11A14921   4.993   6.367   4.083  0.9321  0.0712 -0.2544
  138OSM   H11B14922   4.831   6.406   4.013  0.4462 -1.0947 -0.0434
  138OSM      P14923   4.847   6.689   4.134 -0.1843 -0.2116  0.3108
  138OSM    O1314924   4.947   6.784   4.085  0.2799 -0.6639 -0.2158
  138OSM    O1414925   4.725   6.678   4.051 -0.0658  0.4416  0.2977
  138OSM    O1114926   4.798   6.716   4.281 -0.2305  0.5987 -0.0040
  138OSM    O1214927   4.909   6.541   4.152  0.0897 -0.9931 -0.3322
  138OSM    C1S14928   4.815   6.640   4.399  0.0083 -0.2003 -0.0798
  138OSM    H1S14929   4.919   6.645   4.439 -0.0989 -2.3707  0.6433
  138OSM    H1T14930   4.806   6.533   4.371 -0.2971  0.4977 -2.9841
  138OSM     NF14931   4.761   6.608   4.631  0.2938  0.6089  0.1670
  138OSM    HNF14932   4.716   6.520   4.648 -0.0734  0.7537 -0.0275
  138OSM    C2S14933   4.726   6.687   4.516  0.0755 -0.8808 -0.4550
  138OSM    H2S14934   4.742   6.795   4.537 -1.1560 -1.2160  2.7587
  138OSM    C3S14935   4.579   6.673   4.459  0.6399  0.3816 -0.0888
  138OSM    H3S14936   4.565   6.570   4.420 -0.1068  1.0054 -1.5361
  138OSM     O314937   4.560   6.762   4.348  0.3343  0.2312  0.1753
  138OSM    HO314938   4.647   6.770   4.307 -0.3947  0.9994 -1.3114
  138OSM    C4S14939   4.480   6.696   4.574 -0.2439  0.4599 -0.0059
  138OSM    H4S14940   4.495   6.616   4.648 -0.5894 -1.2443 -1.7044
  138OSM    C5S14941   4.392   6.794   4.599 -0.1348 -0.1808 -0.5890
  138OSM    H5S14942   4.384   6.873   4.523 -0.3977  2.5288  2.0236
  138OSM    C6S14943   4.303   6.811   4.726 -0.1292 -0.5220  0.3382
  138OSM    H6S14944   4.202   6.765   4.728 -0.6168  0.4895  0.1197
  138OSM    H6T14945   4.291   6.921   4.742 -0.0396 -0.2946 -1.0383
  138OSM    C7S14946   4.377   6.766   4.850  0.1880 -0.1831 -0.2955
  138OSM    H7S14947   4.479   6.808   4.847  0.0158  0.3738  0.7564
  138OSM    H7T14948   4.394   6.656   4.844  0.3481 -0.2088  0.4799
  138OSM    C8S14949   4.296   6.791   4.979 -0.5336 -0.5230 -0.9360
  138OSM    H8S14950   4.193   6.758   4.954 -0.0063 -1.2987 -2.2054
  138OSM    H8T14951   4.295   6.901   4.994 -1.5270 -0.3343 -2.2181
  138OSM    C9S14952   4.358   6.726   5.099 -0.4213 -0.3383 -0.3690
  138OSM    H9S14953   4.463   6.759   5.093 -0.7638  0.6157 -1.1893
  138OSM    H9T14954   4.363   6.615   5.087  1.1176 -0.3421  0.1337
  138OSM   C10S14955   4.307   6.760   5.239 -0.2233  0.6361  0.8440
  138OSM   H10S14956   4.208   6.710   5.240 -0.2968  0.5088 -2.3428
  138OSM   H10T14957   4.280   6.868   5.240 -1.3503  0.3937 -0.3300
  138OSM   C11S14958   4.406   6.714   5.350  0.2282  0.2436  0.0831
  138OSM   H11S14959   4.393   6.789   5.431 -4.2014  2.7192 -2.5033
  138OSM   H11T14960   4.511   6.725   5.318  1.2761 -0.0840  3.1138
  138OSM   C12S14961   4.373   6.570   5.403  0.4137 -0.5398 -0.3643
  138OSM   H12S14962   4.364   6.514   5.307 -1.0200  0.1293 -0.6545
  138OSM   H12T14963   4.279   6.584   5.460  0.4042  1.5722 -0.7968
  138OSM   C13S14964   4.487   6.509   5.489  0.4289 -0.2925 -0.8145
  138OSM   H13S14965   4.578   6.506   5.425 -0.0725 -0.8651 -1.5308
  138OSM   H13T14966   4.454   6.404   5.505  1.2444 -0.5150 -0.5492
  138OSM   C14S14967   4.509   6.573   5.631  0.0545  0.4391 -0.1145
  138OSM   H14S14968   4.421   6.558   5.696  1.4317 -0.7825  1.5804
  138OSM   H14T14969   4.543   6.679   5.627 -0.5516  0.6848  0.8788
  138OSM   C15S14970   4.621   6.479   5.690 -0.4772  0.1971 -0.5055
  138OSM   H15S14971   4.714   6.482   5.629 -0.1870  0.9019 -0.0520
  138OSM   H15T14972   4.599   6.371   5.699 -0.9937  0.4228  1.5583
  138OSM   C16S14973   4.671   6.533   5.828 -0.3901 -0.2149 -0.1046
  138OSM   H16S14974   4.701   6.639   5.809  2.6304 -1.2026 -1.3427
  138OSM   H16T14975   4.770   6.490   5.855  0.6890  1.1882 -1.6497
  138OSM   C17S14976   4.569   6.521   5.934  0.7612 -0.1674  0.3732
  138OSM   H17S14977   4.529   6.419   5.951 -1.4763  0.4304 -0.9521
  138OSM   H17T14978   4.487   6.588   5.902  3.3033  2.6437 -0.7555
  138OSM   C18S14979   4.618   6.587   6.062  0.3894  0.3135 -0.2391
  138OSM   H18S14980   4.714   6.541   6.092  0.8010  1.8844  0.9831
  138OSM   H18T14981   4.538   6.586   6.139 -0.0700 -1.0236 -0.7151
  138OSM   H18U14982   4.632   6.693   6.030  3.4206 -0.1684 -0.8092
  138OSM    C1F14983   4.872   6.621   4.709  0.4049  0.0136  0.1291
  138OSM     OF14984   4.942   6.720   4.690  0.1018  0.0239  1.0529
  138OSM    C2F14985   4.895   6.523   4.823  0.2829 -0.1110 -0.5749
  138OSM    H2F14986   4.974   6.464   4.772  0.4194  0.3683 -0.9305
  138OSM    H2G14987   4.806   6.458   4.835 -0.0461  0.3903 -0.3047
  138OSM    C3F14988   4.943   6.573   4.964  0.0406 -1.0470  0.6881
  138OSM    H3F14989   4.871   6.647   5.005 -1.5704 -0.4831 -2.7634
  138OSM    H3G14990   5.045   6.617   4.957  0.2978 -1.5237  1.4066
  138OSM    C4F14991   4.953   6.469   5.075 -0.0466 -0.1516  0.4682
  138OSM    H4F14992   5.036   6.404   5.040  0.8148  1.0894  0.1295
  138OSM    H4G14993   4.855   6.418   5.066 -0.3839  0.8201 -1.9706
  138OSM    C5F14994   4.990   6.525   5.215 -0.5790  0.3123  0.0335
  138OSM    H5F14995   4.921   6.604   5.250  0.9659  1.7653 -0.0527
  138OSM    H5G14996   5.088   6.577   5.217 -0.6153  0.3839  2.0705
  138OSM    C6F14997   4.979   6.416   5.328  0.4571  0.2908  0.4187
  138OSM    H6F14998   5.049   6.333   5.305  0.8108  0.8460 -0.5306
  138OSM    H6G14999   4.872   6.388   5.339  0.4166 -0.2546 -1.1342
  138OSM    C7F15000   5.012   6.476   5.465 -0.3847 -0.6053  0.2910
  138OSM    H7F15001   4.935   6.555   5.479  0.6857  0.4431  0.5387
  138OSM    H7G15002   5.108   6.532   5.471  0.3585 -1.8270  0.2167
  138OSM    C8F15003   4.999   6.372   5.570  0.2586 -0.1422 -0.0235
  138OSM    H8F15004   4.905   6.316   5.551 -0.7447  0.7529  2.0022
  138OSM    H8G15005   4.985   6.435   5.660  3.6411  0.9144 -0.0936
  138OSM    C9F15006   5.127   6.290   5.584  0.7605  0.1266  0.0640
  138OSM    H9F15007   5.150   6.237   5.490 -3.6215  0.1455 -1.2186
  138OSM   C10F15008   5.200   6.272   5.692  0.9463  0.8353  0.6848
  138OSM   H10F15009   5.278   6.194   5.690 -1.4938 -1.7939  1.0914
  138OSM   C11F15010   5.177   6.326   5.829 -0.3086 -0.0211 -0.2381
  138OSM   H11F15011   5.102   6.409   5.832  0.8895  1.0633  0.7868
  138OSM   H11G15012   5.274   6.360   5.871 -0.4833 -1.6942  1.7041
  138OSM   C12F15013   5.132   6.214   5.917 -0.2637  0.7979  0.1121
  138OSM   H12F15014   5.216   6.143   5.927 -0.8847 -0.3484 -2.0880
  138OSM   H12G15015   5.053   6.149   5.873 -1.2480  2.4346 -0.6781
  138OSM   C13F15016   5.092   6.255   6.059  0.1945  0.5241 -0.6781
  138OSM   H13F15017   4.997   6.313   6.074 -0.0264  0.2354 -0.9506
  138OSM   H13G15018   5.177   6.324   6.079  0.9561 -0.5475 -0.1164
  138OSM   C14F15019   5.101   6.125   6.138 -0.1106 -0.0768 -0.3338
  138OSM   H14F15020   5.192   6.069   6.106 -1.1579 -1.8537 -0.3623
  138OSM   H14G15021   5.006   6.070   6.121 -0.6170 -0.2794  2.7263
  138OSM   C15F15022   5.122   6.151   6.288  0.5648 -0.5483  0.6685
  138OSM   H15F15023   5.090   6.064   6.348 -0.0277 -1.7031 -1.2470
  138OSM   H15G15024   5.063   6.237   6.327 -1.3759 -1.5484  0.0393
  138OSM   C16F15025   5.270   6.168   6.325  0.3460  0.3303 -0.4889
  138OSM   H16F15026   5.329   6.251   6.280  0.1416  1.1758  0.7649
  138OSM   H16G15027   5.313   6.077   6.277  0.4645 -0.3490  0.8585
  138OSM   C17F15028   5.307   6.172   6.467  0.8465  0.5738  0.0168
  138OSM   H17F15029   5.417   6.186   6.469  1.4712 -3.3119  0.0650
  138OSM   H17G15030   5.270   6.077   6.512 -3.0419  1.1086 -1.6597
  138OSM   C18F15031   5.245   6.292   6.539 -0.6481 -0.6390  0.1850
  138OSM   H18F15032   5.268   6.285   6.648  1.9213  2.1918 -0.0467
  138OSM   H18G15033   5.136   6.305   6.521 -0.7628  1.3557  1.8621
  138OSM   H18H15034   5.288   6.390   6.509 -0.3019 -0.3654  1.5035
  139OSM      N15035   6.856   0.701   4.123 -0.4571 -0.4878 -0.3131
  139OSM    C1515036   6.738   0.620   4.138  0.8776  0.6572 -0.3403
  139OSM   H15A15037   6.693   0.600   4.041  0.7153  0.1210 -0.1612
  139OSM   H15B15038   6.659   0.668   4.193  0.0165 -2.3085  1.2545
  139OSM   H15C15039   6.758   0.524   4.183 -0.3171  1.0782  1.1698
  139OSM    C1415040   6.948   0.638   4.024 -0.5537 -0.1535 -0.2633
  139OSM   H14A15041   6.968   0.533   4.036 -0.7084 -0.5432 -2.9017
  139OSM   H14B15042   7.043   0.689   4.020 -0.7923  0.2756 -0.6819
  139OSM   H14C15043   6.917   0.661   3.923  0.6411 -2.0014 -1.1047
  139OSM    C1315044   6.823   0.834   4.064 -0.7473  0.3955  0.2104
  139OSM   H13A15045   6.742   0.873   4.123 -0.0643 -0.0934  1.5057
  139OSM   H13B15046   6.801   0.822   3.959 -0.0326  1.1294 -0.0261
  139OSM   H13C15047   6.902   0.907   4.066 -0.3992  0.0312 -0.0071
  139OSM    C1215048   6.925   0.714   4.265 -0.5869  0.3857  0.5544
  139OSM   H12A15049   6.853   0.760   4.331  0.7214  0.4682  1.9787
  139OSM   H12B15050   7.001   0.792   4.267 -1.1264  0.9426 -0.1290
  139OSM    C1115051   6.976   0.584   4.336  0.5872  0.9047 -1.4333
  139OSM   H11A15052   6.897   0.507   4.345 -0.5013  2.1499 -0.0095
  139OSM   H11B15053   6.995   0.616   4.440 -2.9683  1.0542 -0.7269
  139OSM      P15054   7.124   0.373   4.273  0.3632 -0.3106 -0.4038
  139OSM    O1315055   7.025   0.308   4.185  0.0855 -0.2388 -0.3737
  139OSM    O1415056   7.266   0.345   4.247 -0.4053  0.0424  0.6974
  139OSM    O1115057   7.098   0.332   4.424  0.3531  0.2198  0.2766
  139OSM    O1215058   7.095   0.530   4.276  0.2099  0.3891 -0.3208
  139OSM    C1S15059   7.032   0.209   4.465 -0.5014  0.1259 -0.2840
  139OSM    H1S15060   7.080   0.131   4.402  1.1358  1.4950 -0.7870
  139OSM    H1T15061   6.926   0.221   4.433  0.0411  0.6771 -1.9589
  139OSM     NF15062   6.988   0.043   4.646  0.0917 -0.4404 -0.1622
  139OSM    HNF15063   6.900   0.050   4.693  0.8028  2.7337  0.9546
  139OSM    C2S15064   7.044   0.181   4.617  0.9748  0.3514  0.2872
  139OSM    H2S15065   7.153   0.178   4.641  1.2892 -0.9706 -1.1065
  139OSM    C3S15066   6.967   0.297   4.690 -0.2201  0.5571  0.0919
  139OSM    H3S15067   6.862   0.314   4.659 -0.3635  1.5307  1.0352
  139OSM     O315068   7.033   0.421   4.670 -0.2933 -0.0326 -0.3187
  139OSM    HO315069   7.090   0.402   4.594  0.7356 -1.9540  0.8561
  139OSM    C4S15070   6.951   0.269   4.840 -0.1692  0.1423 -0.1776
  139OSM    H4S15071   6.852   0.230   4.866 -0.5313  0.0520 -1.6270
  139OSM    C5S15072   7.043   0.273   4.933 -0.9836 -0.1635  0.1307
  139OSM    H5S15073   7.137   0.322   4.907 -1.9487  2.1534  0.7974
  139OSM    C6S15074   7.025   0.243   5.073 -0.8701  0.4493  0.5110
  139OSM    H6S15075   7.016   0.333   5.138 -0.1962  0.7732  0.1717
  139OSM    H6T15076   7.124   0.212   5.113  0.1159  4.8086  2.0376
  139OSM    C7S15077   6.918   0.136   5.108  0.3676 -0.0597 -0.4707
  139OSM    H7S15078   6.924   0.049   5.038 -0.9940 -0.7340  0.2102
  139OSM    H7T15079   6.818   0.184   5.110  0.2202 -0.3779  1.8884
  139OSM    C8S15080   6.936   0.069   5.245 -0.1197 -0.5813  0.4473
  139OSM    H8S15081   6.956   0.149   5.319  0.3697 -0.4525  0.1744
  139OSM    H8T15082   7.031   0.012   5.252 -0.3659 -1.2101 -0.9617
  139OSM    C9S15083   6.828  -0.032   5.291  0.0764 -0.0538  0.4351
  139OSM    H9S15084   6.869  -0.126   5.246  0.5291 -0.1401  1.0163
  139OSM    H9T15085   6.727  -0.010   5.250  0.2488 -0.1326 -0.0442
  139OSM   C10S15086   6.828  -0.054   5.444  0.1989 -0.2180  0.4683
  139OSM   H10S15087   6.827   0.044   5.497 -1.6735  0.3636 -0.5556
  139OSM   H10T15088   6.927  -0.097   5.470  1.2027  0.8441 -1.4227
  139OSM   C11S15089   6.710  -0.142   5.500  0.0954 -0.0495  0.1679
  139OSM   H11S15090   6.725  -0.236   5.444 -0.7432  0.6594 -1.3133
  139OSM   H11T15091   6.614  -0.090   5.476  0.9565  0.8781 -1.4835
  139OSM   C12S15092   6.723  -0.157   5.655 -1.1549  0.0289 -0.7920
  139OSM   H12S15093   6.717  -0.057   5.702 -0.4409  0.1511 -0.9423
  139OSM   H12T15094   6.824  -0.197   5.679  0.3358  4.3356  0.9352
  139OSM   C13S15095   6.612  -0.242   5.725 -0.3161 -0.7659  0.8332
  139OSM   H13S15096   6.625  -0.342   5.678  2.7408  0.5330 -1.4311
  139OSM   H13T15097   6.516  -0.198   5.692  1.1293  1.8388 -0.2505
  139OSM   C14S15098   6.628  -0.240   5.879 -0.6009  0.0555 -0.2352
  139OSM   H14S15099   6.636  -0.132   5.905  1.9748 -0.2524  0.5564
  139OSM   H14T15100   6.727  -0.287   5.896 -1.1690 -1.5154 -1.0675
  139OSM   C15S15101   6.514  -0.313   5.957 -0.0816  0.2328 -0.4330
  139OSM   H15S15102   6.496  -0.413   5.912 -1.8957  0.3610 -0.0764
  139OSM   H15T15103   6.413  -0.269   5.942 -0.0864  0.8014  1.0721
  139OSM   C16S15104   6.548  -0.315   6.105  0.2743  0.1937  0.2570
  139OSM   H16S15105   6.547  -0.208   6.137 -2.4777  1.0450 -2.1722
  139OSM   H16T15106   6.649  -0.360   6.111  0.9114  1.1974 -2.0106
  139OSM   C17S15107   6.445  -0.393   6.189  0.0520  0.2904  0.2683
  139OSM   H17S15108   6.434  -0.498   6.156 -0.6857  0.6225 -0.5930
  139OSM   H17T15109   6.350  -0.335   6.179 -0.1062 -0.0083  0.0259
  139OSM   C18S15110   6.476  -0.403   6.334  0.2609  0.4670 -0.0591
  139OSM   H18S15111   6.410  -0.473   6.389  0.0404  1.1466  0.5495
  139OSM   H18T15112   6.469  -0.304   6.385 -0.7866  0.5455 -0.3218
  139OSM   H18U15113   6.577  -0.447   6.347 -0.0063  0.4322  2.2391
  139OSM    C1F15114   7.055  -0.076   4.635  0.2943  0.0045  0.4208
  139OSM     OF15115   7.161  -0.074   4.575  0.5533  0.2783  0.0914
  139OSM    C2F15116   6.998  -0.204   4.691  0.0662 -0.1898 -0.1780
  139OSM    H2F15117   7.021  -0.292   4.627 -0.9125 -0.2768 -0.4239
  139OSM    H2G15118   6.887  -0.207   4.694  0.0781 -0.7741 -0.1640
  139OSM    C3F15119   7.045  -0.230   4.840 -0.3329 -0.0979 -0.1559
  139OSM    H3F15120   7.020  -0.148   4.911  2.9172  2.3094 -1.5323
  139OSM    H3G15121   7.156  -0.234   4.839 -0.2677  1.1976  0.1984
  139OSM    C4F15122   6.996  -0.368   4.881 -0.2590 -0.5925 -0.1421
  139OSM    H4F15123   7.049  -0.434   4.809  1.5447  1.7770 -1.1454
  139OSM    H4G15124   6.886  -0.380   4.869 -0.6437  1.6355  0.7324
  139OSM    C5F15125   7.032  -0.413   5.021 -0.4884  0.7145 -0.2004
  139OSM    H5F15126   7.137  -0.379   5.038 -1.1464  2.9683 -0.3348
  139OSM    H5G15127   7.023  -0.523   5.029 -0.4829  0.7353  0.1037
  139OSM    C6F15128   6.951  -0.345   5.122 -0.1634 -0.3092 -0.1355
  139OSM    H6F15129   6.842  -0.356   5.106  0.0846 -1.9962 -0.9072
  139OSM    H6G15130   6.972  -0.236   5.120  1.4949 -0.5586  1.0722
  139OSM    C7F15131   6.976  -0.396   5.264 -0.0969 -0.2513 -0.7038
  139OSM    H7F15132   6.932  -0.499   5.268 -0.8796  0.1143  0.8278
  139OSM    H7G15133   6.913  -0.339   5.336  0.0175  1.3847 -1.8490
  139OSM    C8F15134   7.116  -0.396   5.324 -0.1645  0.4124 -0.2375
  139OSM    H8F15135   7.165  -0.486   5.280 -1.7799  0.4802 -2.3072
  139OSM    H8G15136   7.081  -0.418   5.427 -1.4106  3.0433 -0.0053
  139OSM    C9F15137   7.184  -0.266   5.323 -0.0183 -0.5656 -0.1424
  139OSM    H9F15138   7.199  -0.211   5.229  2.5013 -0.6658  0.1349
  139OSM   C10F15139   7.230  -0.199   5.432 -0.5717 -0.0477  0.0777
  139OSM   H10F15140   7.285  -0.106   5.414 -0.6619  0.1489  0.7867
  139OSM   C11F15141   7.214  -0.233   5.576  0.5744  0.3713 -0.1242
  139OSM   H11F15142   7.127  -0.302   5.583  0.7008  0.1753 -0.4912
  139OSM   H11G15143   7.196  -0.143   5.639 -0.7168  1.2484 -1.6643
  139OSM   C12F15144   7.339  -0.308   5.624 -0.2385 -0.4399  0.0202
  139OSM   H12F15145   7.419  -0.233   5.637 -0.6056  0.0057 -0.2637
  139OSM   H12G15146   7.363  -0.376   5.539 -0.0037  0.0459 -0.3055
  139OSM   C13F15147   7.339  -0.387   5.756 -0.5814  0.1975  0.1183
  139OSM   H13F15148   7.440  -0.433   5.752 -0.6093  0.0207  1.0582
  139OSM   H13G15149   7.266  -0.471   5.756  0.8061 -1.0621  0.7369
  139OSM   C14F15150   7.316  -0.297   5.876  0.4412 -0.1894  0.2575
  139OSM   H14F15151   7.213  -0.255   5.868  1.2939  1.7670 -1.0808
  139OSM   H14G15152   7.373  -0.203   5.858 -1.9694  1.1643 -0.8801
  139OSM   C15F15153   7.337  -0.360   6.022 -0.6349  0.0285  0.5051
  139OSM   H15F15154   7.256  -0.435   6.033 -0.4086 -0.7255 -2.3350
  139OSM   H15G15155   7.326  -0.272   6.089 -0.4113 -1.5595  2.7363
  139OSM   C16F15156   7.478  -0.408   6.037  0.4766  0.7987  0.2286
  139OSM   H16F15157   7.541  -0.335   5.982  0.6218 -0.3184 -1.1403
  139OSM   H16G15158   7.499  -0.497   5.975  0.3100  1.5290 -0.9103
  139OSM   C17F15159   7.526  -0.438   6.180 -0.3437  0.3389 -0.3976
  139OSM   H17F15160   7.453  -0.509   6.224 -0.6585  1.5693  1.1264
  139OSM   H17G15161   7.519  -0.347   6.244 -2.8737  0.1431 -0.2931
  139OSM   C18F15162   7.667  -0.491   6.198  0.0840 -0.7784  0.6192
  139OSM   H18F15163   7.690  -0.520   6.303  1.4407 -0.2908  0.4694
  139OSM   H18G15164   7.747  -0.428   6.154  0.8842 -2.2803 -0.1570
  139OSM   H18H15165   7.677  -0.582   6.135  1.2820 -1.3876  1.6449
  140OSM      N15166   2.479   1.979   4.870 -0.5776  0.9158 -0.3059
  140OSM    C1515167   2.403   2.057   4.774 -0.0010  1.0918  0.4572
  140OSM   H15A15168   2.461   2.073   4.684  1.1910 -0.7021  0.8457
  140OSM   H15B15169   2.367   2.152   4.813 -2.1050  0.4918  0.0642
  140OSM   H15C15170   2.310   2.014   4.742  0.2219  1.0347 -0.1169
  140OSM    C1415171   2.611   2.038   4.899  0.0420  0.8993  0.3432
  140OSM   H14A15172   2.680   2.043   4.816  1.4854 -1.6843  1.2779
  140OSM   H14B15173   2.661   1.995   4.985  0.4926  0.6981 -0.0137
  140OSM   H14C15174   2.588   2.140   4.926  2.0231  0.6413  3.5625
  140OSM    C1315175   2.395   1.976   4.992 -0.4023 -0.4217 -0.5591
  140OSM   H13A15176   2.362   2.072   5.029 -1.8650 -1.1380  0.0729
  140OSM   H13B15177   2.456   1.931   5.069  0.1604 -2.1075 -1.9216
  140OSM   H13C15178   2.308   1.913   4.981 -0.0034 -1.1621  0.3730
  140OSM    C1215179   2.495   1.839   4.811  0.1348  1.4670 -0.2802
  140OSM   H12A15180   2.558   1.836   4.723 -3.5562  1.0163 -3.2033
  140OSM   H12B15181   2.399   1.808   4.772  0.7781  0.0737 -0.8197
  140OSM    C1115182   2.548   1.727   4.900 -0.9165 -0.0104 -0.0421
  140OSM   H11A15183   2.483   1.725   4.990 -1.0212 -0.1012 -0.1202
  140OSM   H11B15184   2.649   1.754   4.940  0.4186  0.7732 -3.6006
  140OSM      P15185   2.417   1.508   4.826 -0.2790  0.0392 -0.2355
  140OSM    O1315186   2.306   1.580   4.759 -0.0944 -0.0066 -0.3754
  140OSM    O1415187   2.449   1.376   4.764 -0.3687  0.3933  0.4002
  140OSM    O1115188   2.381   1.476   4.980 -0.0532  0.8740  0.0996
  140OSM    O1215189   2.550   1.596   4.836  0.2022  0.3343 -0.1693
  140OSM    C1S15190   2.492   1.456   5.074  0.3950 -0.2462 -0.4565
  140OSM    H1S15191   2.560   1.542   5.089  0.4983 -0.5494  0.9802
  140OSM    H1T15192   2.550   1.369   5.035  0.2734 -1.3854  1.7212
  140OSM     NF15193   2.556   1.409   5.317 -0.7537 -0.2563  0.2586
  140OSM    HNF15194   2.615   1.332   5.337 -0.8172 -0.4554 -0.2994
  140OSM    C2S15195   2.452   1.401   5.219  0.3501  0.0964  0.0609
  140OSM    H2S15196   2.369   1.469   5.249  1.6302  1.6934  0.0599
  140OSM    C3S15197   2.404   1.257   5.190  0.6667 -0.5593 -0.4041
  140OSM    H3S15198   2.485   1.186   5.162  1.6052  0.4645 -0.3594
  140OSM     O315199   2.304   1.242   5.087  0.0012 -0.4211  0.0549
  140OSM    HO315200   2.301   1.330   5.048 -1.1467 -0.3422  0.2754
  140OSM    C4S15201   2.345   1.213   5.326  0.1369 -0.4908  0.5043
  140OSM    H4S15202   2.418   1.154   5.384 -0.3194 -2.3462 -0.7300
  140OSM    C5S15203   2.223   1.230   5.375 -0.9776 -0.2214  0.6491
  140OSM    H5S15204   2.158   1.271   5.296 -0.4487 -0.3274  0.1532
  140OSM    C6S15205   2.163   1.179   5.506 -0.2668 -0.3596 -0.1820
  140OSM    H6S15206   2.081   1.108   5.483 -0.3871 -0.3070  0.0797
  140OSM    H6T15207   2.116   1.266   5.557 -0.2417  0.1020 -0.9201
  140OSM    C7S15208   2.262   1.123   5.616  0.3931  0.1935 -0.1243
  140OSM    H7S15209   2.347   1.194   5.622  0.0085  0.6418  0.0315
  140OSM    H7T15210   2.302   1.023   5.588 -1.5899 -0.5644 -0.4411
  140OSM    C8S15211   2.195   1.116   5.752 -0.0336 -0.9218 -0.1392
  140OSM    H8S15212   2.098   1.062   5.758 -0.7511  0.4304  1.0050
  140OSM    H8T15213   2.164   1.220   5.775 -0.5603 -0.5491 -2.2839
  140OSM    C9S15214   2.287   1.054   5.860  0.1604 -0.5277 -0.5104
  140OSM    H9S15215   2.392   1.075   5.830  0.6059 -0.2390  1.1640
  140OSM    H9T15216   2.283   0.943   5.853 -1.3490 -0.4646 -1.0973
  140OSM   C10S15217   2.253   1.104   6.003 -0.0471 -0.0396 -0.8045
  140OSM   H10S15218   2.142   1.103   6.014  0.1516  0.4460  1.9887
  140OSM   H10T15219   2.270   1.214   6.010  0.8866 -0.2669  0.8436
  140OSM   C11S15220   2.324   1.018   6.106  0.1714 -0.0898  0.8931
  140OSM   H11S15221   2.434   1.028   6.104  0.1058  1.2456  2.0709
  140OSM   H11T15222   2.310   0.913   6.072 -0.3677  0.5351 -0.9443
  140OSM   C12S15223   2.282   1.038   6.255  0.2700  0.1350 -0.4478
  140OSM   H12S15224   2.171   1.027   6.250  0.2760  0.2943 -1.0424
  140OSM   H12T15225   2.306   1.142   6.283 -1.9877  0.4600  0.5572
  140OSM   C13S15226   2.344   0.935   6.350 -0.0674  0.0776  0.5580
  140OSM   H13S15227   2.455   0.937   6.357 -0.0724 -1.3551  1.2627
  140OSM   H13T15228   2.316   0.835   6.312  0.8027 -0.2358  0.7199
  140OSM   C14S15229   2.297   0.950   6.495  0.1219 -0.0722  0.2448
  140OSM   H14S15230   2.189   0.926   6.498 -0.0225  0.6314  0.9375
  140OSM   H14T15231   2.306   1.054   6.533 -0.7099 -0.1150  0.5727
  140OSM   C15S15232   2.378   0.852   6.590  0.6784 -0.4899 -0.0174
  140OSM   H15S15233   2.482   0.885   6.568  0.0086 -0.1887 -3.2288
  140OSM   H15T15234   2.358   0.748   6.557 -0.5466  0.1822 -1.5444
  140OSM   C16S15235   2.348   0.879   6.736  0.1882  0.7772 -0.3758
  140OSM   H16S15236   2.366   0.986   6.761  0.1151  0.4565  1.1188
  140OSM   H16T15237   2.422   0.826   6.800  1.3333  1.9312 -0.6965
  140OSM   C17S15238   2.199   0.847   6.776  0.1488  0.3012 -0.0620
  140OSM   H17S15239   2.165   0.749   6.734  1.5519 -0.5902  0.8131
  140OSM   H17T15240   2.136   0.923   6.726 -0.5764  0.5491  1.1779
  140OSM   C18S15241   2.163   0.858   6.923 -0.3972 -1.1347 -0.2638
  140OSM   H18S15242   2.211   0.771   6.973  1.0331 -1.0518 -1.4433
  140OSM   H18T15243   2.054   0.838   6.927 -0.2313 -2.3805 -1.1923
  140OSM   H18U15244   2.189   0.955   6.970 -0.7866 -2.3097  2.5515
  140OSM    C1F15245   2.588   1.530   5.362 -0.5625 -0.5250 -0.0417
  140OSM     OF15246   2.559   1.633   5.303 -0.0455  0.2210  0.1232
  140OSM    C2F15247   2.660   1.532   5.497 -0.3230  0.2504 -0.3503
  140OSM    H2F15248   2.754   1.588   5.479 -0.0091  0.7268  2.4284
  140OSM    H2G15249   2.679   1.428   5.531  1.5289 -0.2577 -2.6428
  140OSM    C3F15250   2.599   1.613   5.611 -0.3177 -0.2259  0.1895
  140OSM    H3F15251   2.555   1.703   5.564 -0.9626 -0.9969 -0.7189
  140OSM    H3G15252   2.685   1.653   5.669  1.4422  0.9012 -2.9461
  140OSM    C4F15253   2.489   1.548   5.701 -0.6493 -0.2477 -0.5421
  140OSM    H4F15254   2.544   1.457   5.731  0.7704  0.4091 -1.0783
  140OSM    H4G15255   2.406   1.519   5.633 -0.1249 -1.1270 -0.8125
  140OSM    C5F15256   2.450   1.638   5.820  0.0961 -0.3198  0.0032
  140OSM    H5F15257   2.535   1.633   5.891  1.0794  0.6862 -1.0423
  140OSM    H5G15258   2.356   1.602   5.868  1.4966 -2.0827  1.5651
  140OSM    C6F15259   2.430   1.791   5.797  0.8245  0.0462  0.4835
  140OSM    H6F15260   2.341   1.814   5.734 -1.1226 -1.8361  2.3515
  140OSM    H6G15261   2.522   1.828   5.747  0.5440  0.2043  0.0795
  140OSM    C7F15262   2.404   1.873   5.925  0.2431 -0.2784  0.3072
  140OSM    H7F15263   2.499   1.883   5.982 -0.2832 -0.7091  1.2786
  140OSM    H7G15264   2.334   1.819   5.992  1.1099 -0.3922  1.1404
  140OSM    C8F15265   2.351   2.017   5.901  0.5273 -0.3074  0.5884
  140OSM    H8F15266   2.256   2.009   5.843  0.6501  2.5252 -0.1492
  140OSM    H8G15267   2.422   2.064   5.830 -1.5812 -0.3598 -1.7044
  140OSM    C9F15268   2.345   2.085   6.029  0.1919 -0.8431  0.4102
  140OSM    H9F15269   2.445   2.093   6.076  0.3313 -0.6418  0.0836
  140OSM   C10F15270   2.242   2.129   6.101 -0.7117 -0.4365 -0.3019
  140OSM   H10F15271   2.265   2.184   6.194  0.7366 -0.9406 -0.3338
  140OSM   C11F15272   2.095   2.112   6.076  0.9095  0.0407  0.6731
  140OSM   H11F15273   2.078   2.074   5.973  0.0786  0.6056  0.5939
  140OSM   H11G15274   2.038   2.207   6.080  0.0668 -0.3715 -0.9119
  140OSM   C12F15275   2.018   2.023   6.177 -0.3005 -0.3733  0.1451
  140OSM   H12F15276   1.913   2.013   6.141  0.0186  2.1820 -1.8382
  140OSM   H12G15277   2.031   2.070   6.276 -0.5293 -1.1589  0.5603
  140OSM   C13F15278   2.080   1.876   6.185 -0.7743  0.5178  0.4764
  140OSM   H13F15279   2.191   1.870   6.180 -0.7135  1.5538  0.2001
  140OSM   H13G15280   2.041   1.818   6.099 -2.1842  0.4844  1.1004
  140OSM   C14F15281   2.034   1.804   6.312  0.0802  1.2454  0.1788
  140OSM   H14F15282   1.925   1.820   6.296  0.2313  3.7371  1.1644
  140OSM   H14G15283   2.068   1.851   6.407 -1.1342  0.1995  1.1637
  140OSM   C15F15284   2.072   1.654   6.308 -0.0136 -0.2339 -0.1556
  140OSM   H15F15285   2.182   1.640   6.303  0.0313 -0.8448  1.7324
  140OSM   H15G15286   2.029   1.612   6.215 -0.1854 -1.9745  0.6688
  140OSM   C16F15287   2.008   1.586   6.430 -0.0666 -0.5131 -0.9978
  140OSM   H16F15288   1.908   1.631   6.450  0.3668 -0.5010  1.4527
  140OSM   H16G15289   2.079   1.610   6.512  1.8078  3.7413 -3.5264
  140OSM   C17F15290   1.987   1.439   6.415 -0.7670 -0.3579 -0.1876
  140OSM   H17F15291   1.919   1.415   6.331 -0.9450  0.1883 -0.2066
  140OSM   H17G15292   1.946   1.398   6.509 -2.2142 -0.4338 -0.8342
  140OSM   C18F15293   2.122   1.358   6.412 -0.1145  0.5897 -0.3700
  140OSM   H18F15294   2.119   1.252   6.444 -0.3414  1.0758  1.3046
  140OSM   H18G15295   2.190   1.398   6.490  0.3140  1.1691 -1.0266
  140OSM   H18H15296   2.168   1.370   6.311  1.4777 -1.9536 -0.0486
  141OSM      N15297   6.848   6.579   4.066  0.2020 -0.9241  0.9141
  141OSM    C1515298   6.855   6.488   4.184  0.4772  0.0894 -0.2479
  141OSM   H15A15299   6.865   6.385   4.153  0.8195  0.0480 -0.0069
  141OSM   H15B15300   6.761   6.500   4.235 -0.0798 -1.4749 -0.8474
  141OSM   H15C15301   6.946   6.511   4.238 -0.4363  1.7087  0.6715
  141OSM    C1415302   6.939   6.520   3.962  0.0918  0.6645  0.2877
  141OSM   H14A15303   6.948   6.575   3.870 -2.2462 -1.8115 -1.5861
  141OSM   H14B15304   6.895   6.426   3.930  0.2878 -0.6920  3.5597
  141OSM   H14C15305   7.035   6.495   4.005 -0.3116 -2.9360 -0.5088
  141OSM    C1315306   6.712   6.564   4.011 -0.4730 -0.1876 -0.2787
  141OSM   H13A15307   6.684   6.460   4.000  2.5913 -1.0716 -0.8153
  141OSM   H13B15308   6.708   6.604   3.911  1.4037 -4.2433 -2.1898
  141OSM   H13C15309   6.634   6.617   4.063 -0.3048  1.1082 -1.2850
  141OSM    C1215310   6.889   6.721   4.109 -0.7068  0.2971 -0.2805
  141OSM   H12A15311   6.869   6.782   4.022  2.3159  1.0430 -0.5489
  141OSM   H12B15312   6.996   6.722   4.125 -0.4091  2.0521 -2.0041
  141OSM    C1115313   6.821   6.772   4.232  0.3571 -1.3248  0.0572
  141OSM   H11A15314   6.854   6.877   4.245 -1.3712 -0.0668 -4.1843
  141OSM   H11B15315   6.861   6.716   4.320  3.1340 -2.1740 -1.6203
  141OSM      P15316   6.603   6.906   4.182 -0.1586 -0.4606 -0.3574
  141OSM    O1315317   6.667   6.953   4.055 -0.4868  0.0136  0.0420
  141OSM    O1415318   6.458   6.890   4.179  0.6835 -0.3565 -0.8314
  141OSM    O1115319   6.643   6.999   4.305  0.3365 -0.3471  0.0208
  141OSM    O1215320   6.675   6.772   4.223  0.5980  0.1476  0.2549
  141OSM    C1S15321   6.600   6.989   4.438 -0.5669 -0.2010  0.0373
  141OSM    H1S15322   6.656   6.903   4.481  0.1903 -0.2880 -1.0672
  141OSM    H1T15323   6.494   6.958   4.437 -0.4649 -0.6384 -2.0644
  141OSM     NF15324   6.557   7.104   4.655  0.1854 -0.3302 -0.1707
  141OSM    HNF15325   6.462   7.132   4.665 -0.1312 -0.9044 -1.4178
  141OSM    C2S15326   6.612   7.123   4.525  0.0757  0.5359 -0.6918
  141OSM    H2S15327   6.722   7.126   4.542 -0.1095 -0.5260  0.8806
  141OSM    C3S15328   6.566   7.247   4.449  0.7184 -0.2332  0.7017
  141OSM    H3S15329   6.463   7.241   4.408  0.1376  1.6442  1.7469
  141OSM     O315330   6.639   7.270   4.334 -0.5773  0.3635  0.0561
  141OSM    HO315331   6.657   7.181   4.303 -1.4680  0.5704 -1.1297
  141OSM    C4S15332   6.573   7.365   4.540  0.8321 -0.2101  1.2734
  141OSM    H4S15333   6.473   7.410   4.544  0.1760 -1.3923 -0.4764
  141OSM    C5S15334   6.687   7.431   4.579  0.2719 -0.5637  0.0600
  141OSM    H5S15335   6.787   7.395   4.549 -0.2147 -3.3395  1.3743
  141OSM    C6S15336   6.688   7.554   4.675  0.6805 -0.7220 -0.2909
  141OSM    H6S15337   6.586   7.592   4.698 -0.1511 -2.7091 -0.5784
  141OSM    H6T15338   6.744   7.627   4.613 -0.7622 -1.1806 -2.2103
  141OSM    C7S15339   6.750   7.536   4.808 -0.2301 -0.1544  0.1041
  141OSM    H7S15340   6.752   7.629   4.868  1.0929  1.2045 -1.9417
  141OSM    H7T15341   6.854   7.498   4.798 -0.7662 -1.6873 -0.0604
  141OSM    C8S15342   6.664   7.440   4.889  0.2165  0.4883 -0.1517
  141OSM    H8S15343   6.691   7.336   4.859 -0.8602  0.4065 -0.8644
  141OSM    H8T15344   6.555   7.443   4.867  0.0701 -3.2507 -0.6809
  141OSM    C9S15345   6.687   7.449   5.040  0.0821 -0.0569  0.3961
  141OSM    H9S15346   6.644   7.548   5.066  0.4052  0.5636 -1.3323
  141OSM    H9T15347   6.792   7.459   5.075  0.2690  1.0959 -0.4293
  141OSM   C10S15348   6.619   7.331   5.110  0.4240  0.5395  0.1215
  141OSM   H10S15349   6.665   7.230   5.099 -2.9209 -1.1937  0.7599
  141OSM   H10T15350   6.513   7.327   5.078  0.4486  0.3295  0.0647
  141OSM   C11S15351   6.612   7.356   5.267 -0.5511  0.0186  0.1913
  141OSM   H11S15352   6.538   7.282   5.305 -0.0171 -1.7528 -2.0014
  141OSM   H11T15353   6.577   7.459   5.289 -3.5668 -0.8450 -0.0277
  141OSM   C12S15354   6.754   7.335   5.328 -0.0884  0.4302 -0.2609
  141OSM   H12S15355   6.828   7.397   5.273  0.6798  0.8811  1.2165
  141OSM   H12T15356   6.787   7.230   5.313  1.4786  0.7900  0.4780
  141OSM   C13S15357   6.756   7.376   5.479  0.2893  0.5311 -0.3772
  141OSM   H13S15358   6.658   7.422   5.505  1.3149  1.5304  1.9354
  141OSM   H13T15359   6.838   7.449   5.491 -0.4651  1.3612 -0.1385
  141OSM   C14S15360   6.776   7.249   5.567 -0.4205 -0.1809  0.3661
  141OSM   H14S15361   6.882   7.218   5.557 -0.4849 -0.0340 -1.1135
  141OSM   H14T15362   6.713   7.171   5.519  0.8011  1.2549 -4.0587
  141OSM   C15S15363   6.734   7.270   5.709 -0.2613 -0.3172  0.5581
  141OSM   H15S15364   6.624   7.282   5.715 -0.1626 -0.0212  2.3810
  141OSM   H15T15365   6.795   7.353   5.751 -0.5578 -0.1889  0.7412
  141OSM   C16S15366   6.771   7.158   5.810 -0.0249 -0.1243  0.2717
  141OSM   H16S15367   6.873   7.117   5.798 -0.1389 -0.2506 -0.2754
  141OSM   H16T15368   6.700   7.076   5.786 -0.0466  0.4091 -1.5940
  141OSM   C17S15369   6.745   7.197   5.952 -0.2715  0.3563  0.3223
  141OSM   H17S15370   6.663   7.272   5.958 -1.3678 -0.9108  2.0318
  141OSM   H17T15371   6.830   7.253   5.995  0.0964 -0.0682  0.1505
  141OSM   C18S15372   6.700   7.077   6.036 -0.2220 -0.0515 -0.2414
  141OSM   H18S15373   6.608   7.031   5.993 -0.6820 -0.2585  0.9071
  141OSM   H18T15374   6.673   7.105   6.140 -0.5838 -1.6391  0.1106
  141OSM   H18U15375   6.783   7.005   6.023 -0.4065  0.1586 -3.2656
  141OSM    C1F15376   6.611   7.032   4.761 -0.1684  0.2707 -0.3871
  141OSM     OF15377   6.724   6.987   4.758  0.0590  0.1479  0.5381
  141OSM    C2F15378   6.523   7.023   4.888  1.0974 -0.0177  0.0536
  141OSM    H2F15379   6.442   6.955   4.855 -0.2093  1.6209 -0.2477
  141OSM    H2G15380   6.481   7.119   4.924 -0.8418 -1.1151  0.8525
  141OSM    C3F15381   6.582   6.934   5.001  0.4990 -0.7637  0.2935
  141OSM    H3F15382   6.667   6.988   5.049  0.9954 -1.7979  0.6046
  141OSM    H3G15383   6.626   6.845   4.951 -0.9526 -1.4184  0.1273
  141OSM    C4F15384   6.477   6.892   5.102 -0.1089  0.2984 -0.0941
  141OSM    H4F15385   6.530   6.821   5.169 -1.8465 -2.6486 -1.6350
  141OSM    H4G15386   6.390   6.849   5.047  0.7964  0.2058 -1.5199
  141OSM    C5F15387   6.442   7.005   5.193  0.3939  0.6904 -0.6195
  141OSM    H5F15388   6.405   7.095   5.138 -0.8163  0.1136 -0.7962
  141OSM    H5G15389   6.538   7.031   5.240  0.8483 -0.9978 -0.5376
  141OSM    C6F15390   6.335   6.971   5.302 -0.5807  0.1724  0.0911
  141OSM    H6F15391   6.360   6.871   5.344 -2.2857 -0.8019 -1.0936
  141OSM    H6G15392   6.243   6.953   5.242  0.6031 -2.1562 -1.1842
  141OSM    C7F15393   6.323   7.077   5.404 -0.0512 -0.2330 -0.4328
  141OSM    H7F15394   6.314   7.180   5.363  0.9199  0.3340  0.7060
  141OSM    H7G15395   6.415   7.095   5.464 -1.0690 -1.9318  1.8083
  141OSM    C8F15396   6.216   7.042   5.504  0.2884  0.5942 -0.9042
  141OSM    H8F15397   6.255   6.952   5.558  2.1751 -0.1425 -3.3140
  141OSM    H8G15398   6.129   7.013   5.442  0.2523  1.3022 -1.1905
  141OSM    C9F15399   6.172   7.155   5.592 -0.4199  0.6474  0.0243
  141OSM    H9F15400   6.106   7.228   5.543  0.1772  1.2344  0.0748
  141OSM   C10F15401   6.221   7.187   5.713 -0.1634  0.3243  0.7017
  141OSM   H10F15402   6.173   7.269   5.768 -0.2635  0.5382  0.3027
  141OSM   C11F15403   6.326   7.101   5.784 -0.5163  0.5322  0.3126
  141OSM   H11F15404   6.390   7.168   5.845  3.3472 -1.2065 -1.4874
  141OSM   H11G15405   6.396   7.066   5.705  0.3632  0.9449  0.8921
  141OSM   C12F15406   6.282   6.984   5.869  0.3607 -0.0976 -0.4830
  141OSM   H12F15407   6.368   6.914   5.877 -1.5208 -2.5850 -0.7693
  141OSM   H12G15408   6.200   6.928   5.819 -0.1861  1.6578 -1.6549
  141OSM   C13F15409   6.250   7.026   6.014  0.0042 -0.6880 -0.0545
  141OSM   H13F15410   6.146   7.066   6.017 -0.3133 -1.3868 -1.0844
  141OSM   H13G15411   6.310   7.113   6.051  0.4867  0.1373 -2.5609
  141OSM   C14F15412   6.258   6.910   6.119  0.8443  0.1930  0.7448
  141OSM   H14F15413   6.360   6.865   6.114 -0.3614 -2.6045 -1.7850
  141OSM   H14G15414   6.185   6.829   6.099  1.2799 -0.7009  2.5120
  141OSM   C15F15415   6.224   6.944   6.263 -0.5449 -0.1736  0.3486
  141OSM   H15F15416   6.113   6.946   6.273 -0.4758 -0.1755  1.1607
  141OSM   H15G15417   6.253   7.050   6.283 -2.3236  0.1396  1.5865
  141OSM   C16F15418   6.282   6.856   6.372  0.1314  0.3121  0.6183
  141OSM   H16F15419   6.390   6.829   6.376  0.1793  0.1669 -1.0563
  141OSM   H16G15420   6.223   6.762   6.363 -0.9358  1.1418 -1.5423
  141OSM   C17F15421   6.253   6.915   6.511 -0.4064  0.0922 -0.2033
  141OSM   H17F15422   6.243   6.840   6.593 -2.5309  0.6729  0.1138
  141OSM   H17G15423   6.150   6.952   6.496 -0.2743 -0.6058 -3.7082
  141OSM   C18F15424   6.361   7.013   6.554 -0.4097 -0.1706  0.4508
  141OSM   H18F15425   6.458   6.970   6.520 -1.1191 -0.3064 -1.5482
  141OSM   H18G15426   6.358   7.037   6.663 -1.8587 -0.5192  0.5043
  141OSM   H18H15427   6.356   7.106   6.493  2.1703 -0.2617 -0.0170
  142OSM      N15428   4.838   0.170   3.936 -0.2431  0.5807 -0.1893
  142OSM    C1515429   4.784   0.311   3.890 -0.6448  0.0738 -0.1517
  142OSM   H15A15430   4.809   0.377   3.971 -1.2527  0.8500 -0.5805
  142OSM   H15B15431   4.676   0.313   3.893 -0.8191 -2.4050 -2.0913
  142OSM   H15C15432   4.810   0.343   3.790 -1.3235 -2.4978 -1.2125
  142OSM    C1415433   4.799   0.070   3.841  1.2388  0.0266 -0.5463
  142OSM   H14A15434   4.848   0.088   3.746  0.8277 -1.2983 -1.0249
  142OSM   H14B15435   4.695   0.070   3.814  1.2754  1.2022 -0.7448
  142OSM   H14C15436   4.838  -0.028   3.865  2.5623  0.2932 -1.4966
  142OSM    C1315437   4.983   0.169   3.939 -0.6002  0.0424  0.2312
  142OSM   H13A15438   5.020   0.179   3.838  1.7652 -0.7604  0.9546
  142OSM   H13B15439   5.022   0.078   3.981 -0.2255  0.1701  0.1659
  142OSM   H13C15440   5.026   0.241   4.007 -1.5037  1.7243 -0.8930
  142OSM    C1215441   4.779   0.134   4.071 -0.8658 -0.4106 -1.0706
  142OSM   H12A15442   4.816   0.037   4.100  2.1996  0.5006 -1.6083
  142OSM   H12B15443   4.672   0.124   4.058 -0.9070 -2.8690  0.5221
  142OSM    C1115444   4.823   0.218   4.192  0.2754  0.0167 -0.0809
  142OSM   H11A15445   4.759   0.177   4.274 -2.9543  0.3464 -2.2268
  142OSM   H11B15446   4.776   0.318   4.178 -1.0239 -0.8945 -3.1541
  142OSM      P15447   5.046   0.322   4.277 -0.1632  0.2368 -0.2991
  142OSM    O1315448   5.188   0.281   4.262  0.7336  0.5345 -0.4398
  142OSM    O1415449   5.012   0.457   4.219  0.4753  0.2366  0.0970
  142OSM    O1115450   5.005   0.317   4.430 -0.0879  0.3753  0.0799
  142OSM    O1215451   4.964   0.203   4.213  0.0919 -0.0690 -0.2418
  142OSM    C1S15452   5.041   0.196   4.509 -0.2129 -0.7590  0.0070
  142OSM    H1S15453   5.150   0.200   4.531  0.3193 -1.0539 -2.3147
  142OSM    H1T15454   5.028   0.104   4.449 -0.3532  1.4194 -3.6251
  142OSM     NF15455   5.047   0.091   4.736 -0.3014 -0.2213  0.9118
  142OSM    HNF15456   4.998   0.005   4.742  1.7460 -1.4782  0.5425
  142OSM    C2S15457   4.986   0.194   4.656 -0.4182  0.0813 -0.0829
  142OSM    H2S15458   5.011   0.293   4.699 -0.4203 -0.0274  0.1688
  142OSM    C3S15459   4.838   0.179   4.646 -0.6274  0.2410 -0.3775
  142OSM    H3S15460   4.819   0.076   4.610 -0.1210  0.5160 -1.4907
  142OSM     O315461   4.778   0.276   4.561  0.1948 -0.2783 -0.4304
  142OSM    HO315462   4.851   0.296   4.503  0.8241  0.2781  0.5269
  142OSM    C4S15463   4.773   0.192   4.779  0.6975 -0.2899 -0.4807
  142OSM    H4S15464   4.772   0.293   4.824 -1.2495 -0.3378 -0.3321
  142OSM    C5S15465   4.713   0.100   4.842 -0.0455 -0.0184 -0.0362
  142OSM    H5S15466   4.719  -0.002   4.801 -1.1773 -0.7102  1.4469
  142OSM    C6S15467   4.654   0.105   4.982 -0.3134 -1.1682  0.3994
  142OSM    H6S15468   4.549   0.068   4.974 -2.1179  3.3843  0.4036
  142OSM    H6T15469   4.651   0.211   5.013  0.9115 -1.1056  0.3628
  142OSM    C7S15470   4.744   0.037   5.077 -0.5537 -0.3668  0.0040
  142OSM    H7S15471   4.846   0.082   5.077  0.1063 -1.8279  0.0468
  142OSM    H7T15472   4.758  -0.071   5.055  0.2723 -0.1643 -0.5212
  142OSM    C8S15473   4.708   0.053   5.226 -0.3420 -0.8982 -0.1168
  142OSM    H8S15474   4.600   0.040   5.249 -0.2520  0.5923  1.4107
  142OSM    H8T15475   4.740   0.154   5.260 -2.1461  0.1728 -1.4617
  142OSM    C9S15476   4.789  -0.042   5.316 -0.4830 -0.5877 -0.4136
  142OSM    H9S15477   4.892  -0.035   5.274 -0.5577  0.9110 -0.4155
  142OSM    H9T15478   4.754  -0.147   5.321  1.9144 -1.5347 -1.7435
  142OSM   C10S15479   4.808   0.008   5.461  0.3337 -0.1549 -0.2433
  142OSM   H10S15480   4.712   0.021   5.516 -0.2478  2.4709 -1.7405
  142OSM   H10T15481   4.861   0.105   5.469 -2.0257  1.0851  1.2069
  142OSM   C11S15482   4.892  -0.088   5.541  0.2384  0.2508  0.4431
  142OSM   H11S15483   4.993  -0.080   5.496 -0.6769  0.3362 -1.7278
  142OSM   H11T15484   4.858  -0.192   5.524  0.6369  0.4690 -1.9635
  142OSM   C12S15485   4.881  -0.071   5.695  0.3841  0.3101 -0.2789
  142OSM   H12S15486   4.774  -0.083   5.723  0.1194 -0.0864 -1.4160
  142OSM   H12T15487   4.905   0.030   5.733  1.0351 -0.1040  0.4422
  142OSM   C13S15488   4.950  -0.173   5.777  0.3048  0.9895 -0.3263
  142OSM   H13S15489   5.056  -0.181   5.743 -0.0388 -0.8228 -1.0901
  142OSM   H13T15490   4.908  -0.273   5.751 -1.1754  1.9731 -1.8905
  142OSM   C14S15491   4.950  -0.140   5.932 -0.6107  1.0528  0.3755
  142OSM   H14S15492   4.843  -0.137   5.963  0.1068  2.0901  3.0641
  142OSM   H14T15493   4.993  -0.038   5.944  0.3189  0.8527 -1.0505
  142OSM   C15S15494   5.031  -0.238   6.024 -0.0180  0.0277  0.2685
  142OSM   H15S15495   5.137  -0.213   6.006 -0.7874  2.9818 -0.6476
  142OSM   H15T15496   5.016  -0.347   6.009 -0.1733  0.2621 -1.3800
  142OSM   C16S15497   4.993  -0.207   6.167 -0.9824  0.1111  0.3656
  142OSM   H16S15498   4.882  -0.213   6.175 -0.9977 -0.5568 -0.1985
  142OSM   H16T15499   5.021  -0.101   6.183  3.0463 -0.6489 -0.5259
  142OSM   C17S15500   5.070  -0.301   6.266  0.1957  0.0407  0.1947
  142OSM   H17S15501   5.176  -0.324   6.240  1.2089  1.1626  2.9109
  142OSM   H17T15502   5.025  -0.402   6.258  1.7731 -0.5784 -1.6782
  142OSM   C18S15503   5.074  -0.247   6.418 -1.2030 -0.2504 -0.5993
  142OSM   H18S15504   5.071  -0.338   6.481  0.8362 -0.2517 -0.4214
  142OSM   H18T15505   4.994  -0.172   6.432 -0.0379  1.3992 -2.2179
  142OSM   H18U15506   5.171  -0.196   6.438 -0.5507 -1.4286 -0.6862
  142OSM    C1F15507   5.173   0.104   4.782  0.1577  0.7909 -0.2187
  142OSM     OF15508   5.250   0.183   4.743 -0.0165 -0.3760  0.6123
  142OSM    C2F15509   5.199   0.006   4.890 -0.3338  0.2693  0.4794
  142OSM    H2F15510   5.180  -0.093   4.843 -0.0637  1.6649 -2.8705
  142OSM    H2G15511   5.120   0.019   4.966 -1.4191 -1.1774 -0.3465
  142OSM    C3F15512   5.341   0.019   4.942 -0.4513  0.9548 -0.3806
  142OSM    H3F15513   5.349   0.116   4.996  0.9396  0.5579  0.1941
  142OSM    H3G15514   5.415   0.010   4.859 -1.1659  1.1452 -1.0468
  142OSM    C4F15515   5.361  -0.092   5.036 -0.3216  0.4433  0.6147
  142OSM    H4F15516   5.471  -0.101   5.046  0.3268  3.3927 -2.3342
  142OSM    H4G15517   5.312  -0.187   5.004  0.7802 -0.0871  0.4313
  142OSM    C5F15518   5.307  -0.058   5.185  0.2742 -1.3294  0.1765
  142OSM    H5F15519   5.196  -0.049   5.190  0.4030  2.0616 -0.8203
  142OSM    H5G15520   5.361   0.030   5.224  1.9849 -0.9413 -2.7435
  142OSM    C6F15521   5.358  -0.160   5.285  0.0886 -0.2153 -1.1818
  142OSM    H6F15522   5.469  -0.175   5.288  0.2947  1.3389  0.3690
  142OSM    H6G15523   5.317  -0.261   5.267 -1.0833  0.1044 -0.3893
  142OSM    C7F15524   5.319  -0.135   5.430 -0.4237 -0.2675  0.2476
  142OSM    H7F15525   5.208  -0.131   5.433 -0.5187 -1.8908  0.2748
  142OSM    H7G15526   5.373  -0.044   5.462  1.3127 -1.3055  0.3839
  142OSM    C8F15527   5.373  -0.251   5.522 -0.3696 -0.4039 -0.1163
  142OSM    H8F15528   5.475  -0.278   5.488 -0.4326  1.0214 -1.5900
  142OSM    H8G15529   5.314  -0.343   5.504  0.7412 -1.4002  1.1743
  142OSM    C9F15530   5.361  -0.235   5.676  0.6690 -0.5961  0.6940
  142OSM    H9F15531   5.255  -0.242   5.706 -0.4902  3.1248 -1.7460
  142OSM   C10F15532   5.455  -0.219   5.771 -0.0491  0.5034 -0.3500
  142OSM   H10F15533   5.437  -0.217   5.879  1.4570 -0.4982 -0.0480
  142OSM   C11F15534   5.601  -0.200   5.739 -0.7679 -0.1070  0.3316
  142OSM   H11F15535   5.619  -0.152   5.641  0.8855 -2.0399 -0.3799
  142OSM   H11G15536   5.664  -0.291   5.749  0.3492  0.4416 -1.3818
  142OSM   C12F15537   5.674  -0.106   5.835 -0.3540 -0.5665  0.3304
  142OSM   H12F15538   5.609  -0.020   5.861 -0.9161 -1.0680  0.6022
  142OSM   H12G15539   5.771  -0.072   5.792  0.1193 -1.0534  0.9920
  142OSM   C13F15540   5.718  -0.174   5.970  0.0059 -0.5452 -0.0366
  142OSM   H13F15541   5.776  -0.267   5.951  1.6928  0.4210  0.1885
  142OSM   H13G15542   5.620  -0.198   6.017  0.9187 -2.0227  1.2007
  142OSM   C14F15543   5.802  -0.075   6.052 -0.2843 -0.0489  0.2455
  142OSM   H14F15544   5.749   0.019   6.077 -0.7227 -0.4081  0.6772
  142OSM   H14G15545   5.890  -0.048   5.990 -0.0887 -0.2812  0.4230
  142OSM   C15F15546   5.863  -0.121   6.180 -0.3536  0.1151  0.5543
  142OSM   H15F15547   5.892  -0.025   6.228  0.6832  0.0837  0.0157
  142OSM   H15G15548   5.954  -0.182   6.158  0.1570  1.0505 -0.0072
  142OSM   C16F15549   5.769  -0.193   6.281 -0.0374  0.5526 -0.1707
  142OSM   H16F15550   5.771  -0.303   6.261 -3.2519  0.3090  0.4332
  142OSM   H16G15551   5.662  -0.169   6.262 -0.1213  0.3883  0.0959
  142OSM   C17F15552   5.795  -0.166   6.430 -0.5001 -0.1526 -0.3982
  142OSM   H17F15553   5.709  -0.212   6.483 -1.1073  0.3904 -0.8952
  142OSM   H17G15554   5.799  -0.056   6.446  1.6609 -0.4832  2.1861
  142OSM   C18F15555   5.927  -0.228   6.492  0.3632  0.1938 -0.2869
  142OSM   H18F15556   6.017  -0.176   6.453 -0.5600  0.7820 -1.7300
  142OSM   H18G15557   5.943  -0.333   6.458  0.5682 -0.6857  2.3606
  142OSM   H18H15558   5.924  -0.228   6.603  1.7794 -1.5582 -0.1977
  143OSM      N15559   6.703   1.492   4.181  0.5486 -0.6174 -0.3108
  143OSM    C1515560   6.700   1.628   4.247  0.1851 -0.2733  0.1982
  143OSM   H15A15561   6.617   1.621   4.316 -0.4643 -1.4614 -0.6825
  143OSM   H15B15562   6.675   1.703   4.174 -1.0032 -0.1600  0.7033
  143OSM   H15C15563   6.795   1.653   4.295  0.0238  2.0947 -0.5559
  143OSM    C1415564   6.569   1.465   4.119  0.1267 -0.6591  0.6103
  143OSM   H14A15565   6.518   1.554   4.086 -2.0498 -2.3168 -0.7640
  143OSM   H14B15566   6.514   1.411   4.194  1.3094 -2.3593  0.3224
  143OSM   H14C15567   6.585   1.403   4.032 -0.3662  0.1844 -0.0871
  143OSM    C1315568   6.800   1.507   4.066 -0.7617  0.1293  0.8632
  143OSM   H13A15569   6.819   1.412   4.018  0.6852  0.5977  0.4630
  143OSM   H13B15570   6.898   1.542   4.094  0.3538 -0.6668 -1.7314
  143OSM   H13C15571   6.774   1.577   3.989 -2.4418  0.3391  1.5738
  143OSM    C1215572   6.751   1.393   4.288  1.0674 -0.0284 -0.6616
  143OSM   H12A15573   6.787   1.305   4.237  1.8048 -0.6334  0.8332
  143OSM   H12B15574   6.668   1.372   4.354  2.7065  1.1742  1.9421
  143OSM    C1115575   6.862   1.443   4.390 -1.0678  0.1040  0.1732
  143OSM   H11A15576   6.879   1.358   4.459 -0.9959  0.9862  1.2733
  143OSM   H11B15577   6.821   1.514   4.465 -0.3372 -1.6085  2.2929
  143OSM      P15578   7.072   1.593   4.376  0.1899 -0.4361  0.1982
  143OSM    O1315579   7.199   1.575   4.301 -0.6964  0.1132 -0.2566
  143OSM    O1415580   7.009   1.729   4.350 -0.6524  0.9451  0.0685
  143OSM    O1115581   7.081   1.562   4.529 -0.1646 -0.1361 -0.2798
  143OSM    O1215582   6.977   1.484   4.325  0.4058 -0.5812 -0.6321
  143OSM    C1S15583   7.088   1.668   4.616 -0.3564 -0.0112 -0.3937
  143OSM    H1S15584   6.984   1.675   4.655 -1.6301  0.7524 -3.6169
  143OSM    H1T15585   7.118   1.765   4.572 -2.4107  1.2737  0.8938
  143OSM     NF15586   7.146   1.717   4.855 -0.0400  0.6148  0.1825
  143OSM    HNF15587   7.148   1.816   4.850 -0.6559  0.5885 -0.7884
  143OSM    C2S15588   7.187   1.643   4.734  0.5107 -0.2042 -0.1381
  143OSM    H2S15589   7.187   1.534   4.759 -0.6830 -0.2465 -0.2369
  143OSM    C3S15590   7.333   1.665   4.683  0.0308 -0.0734  0.2794
  143OSM    H3S15591   7.352   1.772   4.661 -2.3074  0.0065 -1.6949
  143OSM     O315592   7.360   1.609   4.553 -0.3336  0.0823 -0.1143
  143OSM    HO315593   7.277   1.582   4.514  1.4853 -2.9809 -2.3715
  143OSM    C4S15594   7.448   1.626   4.777  0.5932 -0.1806 -0.1811
  143OSM    H4S15595   7.468   1.706   4.850 -1.0096  0.8025 -0.7843
  143OSM    C5S15596   7.511   1.507   4.794  0.3830  0.0956  0.2264
  143OSM    H5S15597   7.476   1.417   4.740 -0.1855 -1.2372  2.6873
  143OSM    C6S15598   7.637   1.497   4.880 -0.0927  0.2499 -0.2370
  143OSM    H6S15599   7.680   1.592   4.916  1.2717 -0.1719 -0.6962
  143OSM    H6T15600   7.719   1.449   4.823 -0.9640 -2.2058  0.4041
  143OSM    C7S15601   7.608   1.406   4.997 -0.4986 -0.0824  0.3652
  143OSM    H7S15602   7.590   1.302   4.962 -2.6167  0.3038  0.1332
  143OSM    H7T15603   7.517   1.449   5.045 -0.1025  1.8150 -0.5149
  143OSM    C8S15604   7.718   1.411   5.104  0.3629  0.2141 -0.4734
  143OSM    H8S15605   7.736   1.517   5.131 -2.6216  0.5474  0.6843
  143OSM    H8T15606   7.816   1.375   5.068  0.7688  1.6834 -0.8994
  143OSM    C9S15607   7.670   1.336   5.231 -0.1381 -0.1251 -0.3910
  143OSM    H9S15608   7.650   1.232   5.199  1.0335 -0.0462 -1.4606
  143OSM    H9T15609   7.569   1.371   5.260  0.5559 -0.1221  2.2269
  143OSM   C10S15610   7.764   1.338   5.345  0.0393 -0.7898 -0.3912
  143OSM   H10S15611   7.805   1.439   5.367 -0.4505 -0.8337  0.7847
  143OSM   H10T15612   7.840   1.260   5.321  1.0682  0.7438 -2.5038
  143OSM   C11S15613   7.697   1.281   5.477  0.3834  0.6818  0.4454
  143OSM   H11S15614   7.663   1.176   5.466 -0.9734  1.0085  1.3456
  143OSM   H11T15615   7.609   1.347   5.491 -0.5039 -0.3394 -0.1654
  143OSM   C12S15616   7.795   1.289   5.595 -0.3440 -0.4385  0.2322
  143OSM   H12S15617   7.857   1.380   5.579 -0.4393 -0.0847  1.7004
  143OSM   H12T15618   7.864   1.202   5.597 -0.5789 -0.6184  0.9806
  143OSM   C13S15619   7.741   1.290   5.745  0.3647  0.5823  0.1239
  143OSM   H13S15620   7.825   1.294   5.818  0.2072  2.4629  0.2465
  143OSM   H13T15621   7.682   1.200   5.772  2.6833 -1.1958 -0.4423
  143OSM   C14S15622   7.646   1.407   5.771 -0.3534  0.8193 -0.1367
  143OSM   H14S15623   7.550   1.394   5.717  0.5202  1.9895 -2.0728
  143OSM   H14T15624   7.709   1.496   5.749 -0.7525  1.0961 -0.1727
  143OSM   C15S15625   7.605   1.412   5.916  0.0696 -0.1178 -0.3259
  143OSM   H15S15626   7.534   1.331   5.942  0.9190 -0.1832  2.0288
  143OSM   H15T15627   7.555   1.508   5.943  1.3462 -0.2358  2.9301
  143OSM   C16S15628   7.714   1.404   6.017  0.2006 -0.4990  0.5948
  143OSM   H16S15629   7.809   1.453   5.985  0.1498 -0.0459  1.1340
  143OSM   H16T15630   7.731   1.295   6.026 -0.6466 -0.7922 -0.9597
  143OSM   C17S15631   7.679   1.463   6.156 -0.2743 -0.1312  0.1212
  143OSM   H17S15632   7.745   1.423   6.235  0.5530  0.7379 -0.1120
  143OSM   H17T15633   7.580   1.415   6.174 -0.5303  0.3331 -0.0073
  143OSM   C18S15634   7.671   1.617   6.176  0.5019 -0.5771  0.3208
  143OSM   H18S15635   7.701   1.650   6.277  1.3824  0.2126 -0.1819
  143OSM   H18T15636   7.579   1.667   6.139  0.0091 -0.3320  1.8277
  143OSM   H18U15637   7.749   1.660   6.110 -0.4768  1.0039  0.1537
  143OSM    C1F15638   7.047   1.664   4.923  0.5280 -0.0395  0.1316
  143OSM     OF15639   7.010   1.547   4.907  0.0639  0.4802  0.7191
  143OSM    C2F15640   6.987   1.755   5.025  0.1922 -0.7473 -0.4511
  143OSM    H2F15641   6.959   1.845   4.966  0.5814 -0.6186 -0.4379
  143OSM    H2G15642   7.069   1.777   5.096 -0.5467  1.7067 -0.2825
  143OSM    C3F15643   6.855   1.701   5.094 -0.4748 -0.1933  0.0334
  143OSM    H3F15644   6.890   1.615   5.155  0.6603  1.0560  1.2177
  143OSM    H3G15645   6.788   1.667   5.012 -0.4371 -0.1171 -0.0299
  143OSM    C4F15646   6.765   1.787   5.172  0.0631 -0.2911  0.0131
  143OSM    H4F15647   6.672   1.732   5.200  0.1876 -0.8219 -0.5918
  143OSM    H4G15648   6.729   1.867   5.103 -2.4349 -2.7346 -1.7460
  143OSM    C5F15649   6.822   1.840   5.302 -1.0689  0.2094  0.0395
  143OSM    H5F15650   6.915   1.898   5.281 -0.8905 -0.2036 -0.3383
  143OSM    H5G15651   6.854   1.751   5.359  1.9113  2.1524  1.6441
  143OSM    C6F15652   6.725   1.913   5.393 -0.1235 -0.8685  0.0487
  143OSM    H6F15653   6.652   1.841   5.438 -2.4608  0.2645 -1.6875
  143OSM    H6G15654   6.658   1.982   5.337 -1.3029 -1.4396  0.7109
  143OSM    C7F15655   6.791   1.988   5.512  0.0368  0.3879  0.2065
  143OSM    H7F15656   6.710   2.048   5.560 -1.4470 -2.6662  1.7568
  143OSM    H7G15657   6.870   2.057   5.475  0.0499 -0.1841 -0.8750
  143OSM    C8F15658   6.854   1.884   5.608  1.1773  0.0826 -0.2257
  143OSM    H8F15659   6.920   1.813   5.554  0.1865 -0.1208 -1.2119
  143OSM    H8G15660   6.769   1.836   5.659 -0.2983  1.2349 -1.4750
  143OSM    C9F15661   6.939   1.947   5.722  0.1872  0.8126 -0.1598
  143OSM    H9F15662   7.044   1.959   5.693  0.1077 -1.1040 -1.4188
  143OSM   C10F15663   6.896   1.995   5.844  0.1899 -0.3054  0.1852
  143OSM   H10F15664   6.968   2.026   5.920 -1.0579  0.7769  0.9619
  143OSM   C11F15665   6.756   1.987   5.900  0.1513 -0.3739 -0.2732
  143OSM   H11F15666   6.702   1.898   5.860 -0.8169 -0.5879  1.4228
  143OSM   H11G15667   6.694   2.075   5.874 -0.2468 -0.5989 -0.1083
  143OSM   C12F15668   6.750   1.969   6.058 -0.1073 -0.5864 -0.1128
  143OSM   H12F15669   6.641   1.962   6.075  0.0880 -4.4228  0.5766
  143OSM   H12G15670   6.805   2.051   6.109  1.0725  0.0765 -2.3198
  143OSM   C13F15671   6.805   1.835   6.104 -0.4930  0.1990 -0.9706
  143OSM   H13F15672   6.881   1.784   6.041 -1.2076 -2.5709  0.2811
  143OSM   H13G15673   6.725   1.758   6.097  0.3381 -1.1157  2.2149
  143OSM   C14F15674   6.877   1.837   6.240  0.0214  0.3129 -0.5298
  143OSM   H14F15675   6.808   1.871   6.320  0.4206 -3.0197  1.3971
  143OSM   H14G15676   6.965   1.905   6.238 -0.0144  0.3532 -0.9782
  143OSM   C15F15677   6.929   1.701   6.288  0.1798  0.6709 -0.3533
  143OSM   H15F15678   7.028   1.714   6.337  0.2246 -2.6677  0.7379
  143OSM   H15G15679   6.955   1.639   6.199 -1.5636  1.0950 -1.1978
  143OSM   C16F15680   6.826   1.632   6.376  0.9359 -0.7164  0.2119
  143OSM   H16F15681   6.727   1.632   6.327 -0.0408  1.2500  2.0597
  143OSM   H16G15682   6.804   1.703   6.459  1.2338 -0.7717  0.3400
  143OSM   C17F15683   6.872   1.496   6.432  0.7648  1.0956  0.1746
  143OSM   H17F15684   6.911   1.441   6.343  2.6187  1.7831  0.5250
  143OSM   H17G15685   6.789   1.432   6.471  0.5976  0.3101 -1.3630
  143OSM   C18F15686   6.986   1.496   6.532  0.9024 -0.5527  0.3569
  143OSM   H18F15687   7.064   1.570   6.504  0.4311  0.3872  1.4511
  143OSM   H18G15688   7.032   1.396   6.540  0.4537 -0.6926  1.2448
  143OSM   H18H15689   6.947   1.536   6.628 -2.1318  0.2820 -1.0815
  144OSM      N15690   5.647   6.132   3.705 -0.5340  0.0209 -0.2931
  144OSM    C1515691   5.774   6.066   3.659 -1.0707  0.4425 -0.2452
  144OSM   H15A15692   5.863   6.079   3.719  0.1742  0.3821 -2.0158
  144OSM   H15B15693   5.806   6.090   3.559  1.0133  0.4798  0.3896
  144OSM   H15C15694   5.750   5.961   3.646 -2.1664  0.4967  1.1029
  144OSM    C1415695   5.669   6.277   3.682  0.8648  0.7372  0.3293
  144OSM   H14A15696   5.578   6.332   3.695  0.3550 -0.1916  0.8230
  144OSM   H14B15697   5.691   6.279   3.576  2.1983 -0.3949  0.5456
  144OSM   H14C15698   5.742   6.310   3.755  3.1038 -1.2758 -0.8607
  144OSM    C1315699   5.543   6.082   3.618  0.2760 -0.2581 -0.2616
  144OSM   H13A15700   5.527   5.976   3.629 -0.8679  0.0319  1.2123
  144OSM   H13B15701   5.567   6.103   3.515  1.6847  0.2842  0.1485
  144OSM   H13C15702   5.451   6.132   3.644  0.2925 -0.2206 -0.2747
  144OSM    C1215703   5.621   6.099   3.847  0.4154  0.0271  0.0050
  144OSM   H12A15704   5.710   6.128   3.902  0.4175  1.2703 -0.6130
  144OSM   H12B15705   5.619   5.991   3.852  0.3008 -0.1633 -2.5938
  144OSM    C1115706   5.505   6.171   3.924  0.1485 -0.1318 -0.8122
  144OSM   H11A15707   5.497   6.124   4.025  0.1228 -0.9424 -1.1850
  144OSM   H11B15708   5.402   6.154   3.884 -0.0322 -0.9590 -0.0252
  144OSM      P15709   5.616   6.379   4.033  0.0350  0.1725 -0.6990
  144OSM    O1315710   5.752   6.332   4.005 -0.7762 -0.1747 -0.3961
  144OSM    O1415711   5.604   6.528   4.037  0.2909 -0.4264  0.2146
  144OSM    O1115712   5.575   6.323   4.179 -0.0931  0.4267  0.1594
  144OSM    O1215713   5.509   6.315   3.938  0.3183  0.5952 -0.2551
  144OSM    C1S15714   5.444   6.351   4.221  0.5467 -0.6465 -0.5025
  144OSM    H1S15715   5.374   6.288   4.162  1.2944 -1.0366 -0.9940
  144OSM    H1T15716   5.417   6.459   4.220 -2.3647 -1.2330  1.9308
  144OSM     NF15717   5.295   6.380   4.405  0.0352  0.3658  0.1739
  144OSM    HNF15718   5.293   6.456   4.468  1.1212  1.0886 -0.6313
  144OSM    C2S15719   5.419   6.316   4.372 -0.1618  0.4885  1.4523
  144OSM    H2S15720   5.413   6.205   4.377  0.2259  0.5182  2.8025
  144OSM    C3S15721   5.549   6.364   4.456 -0.3873  0.2482 -0.7419
  144OSM    H3S15722   5.559   6.470   4.426 -1.5456  0.7381  0.4965
  144OSM     O315723   5.667   6.299   4.424 -0.3152  0.4203 -0.2239
  144OSM    HO315724   5.661   6.259   4.337 -0.0399 -1.8497  0.7260
  144OSM    C4S15725   5.515   6.351   4.598  0.6451  0.6235 -0.3728
  144OSM    H4S15726   5.510   6.246   4.631 -2.7518  0.5129 -0.9008
  144OSM    C5S15727   5.514   6.452   4.680  0.2640  0.2952 -0.8814
  144OSM    H5S15728   5.534   6.555   4.646  1.9244  0.6050  0.8374
  144OSM    C6S15729   5.494   6.447   4.828  0.2244  0.0704 -0.1489
  144OSM    H6S15730   5.478   6.343   4.864  2.3537 -0.1493  0.2565
  144OSM    H6T15731   5.406   6.505   4.863 -0.9914 -1.9101  0.2479
  144OSM    C7S15732   5.611   6.502   4.914 -0.2546  0.5861 -0.3011
  144OSM    H7S15733   5.641   6.605   4.886  1.6099 -0.2890 -1.7776
  144OSM    H7T15734   5.702   6.442   4.894 -0.4922 -0.3070  1.1227
  144OSM    C8S15735   5.581   6.502   5.064 -0.1990 -0.0213 -0.4345
  144OSM    H8S15736   5.487   6.560   5.079 -0.9887 -1.4188  0.2483
  144OSM    H8T15737   5.663   6.551   5.121 -0.8753 -0.7587  1.2274
  144OSM    C9S15738   5.576   6.361   5.121 -0.2111  0.5304 -0.1001
  144OSM    H9S15739   5.664   6.298   5.094 -1.3373 -1.4034  0.5309
  144OSM    H9T15740   5.478   6.318   5.090 -2.0308  4.2804 -0.0286
  144OSM   C10S15741   5.562   6.358   5.274  0.8057 -0.4997 -0.2571
  144OSM   H10S15742   5.480   6.422   5.313  1.2951 -0.0038 -0.0358
  144OSM   H10T15743   5.657   6.399   5.315  0.1774  0.2795  0.4434
  144OSM   C11S15744   5.542   6.215   5.333  0.2286 -0.3778  0.2778
  144OSM   H11S15745   5.637   6.160   5.317  1.4274  1.3391  1.0792
  144OSM   H11T15746   5.472   6.158   5.269  0.5035 -0.4497  0.0355
  144OSM   C12S15747   5.498   6.205   5.492 -0.2284  0.1939  0.8823
  144OSM   H12S15748   5.469   6.103   5.523 -0.5204  0.7978  2.6796
  144OSM   H12T15749   5.404   6.264   5.495  0.4038  1.2754  0.0120
  144OSM   C13S15750   5.599   6.278   5.582  0.2108  0.5625 -0.0128
  144OSM   H13S15751   5.636   6.374   5.541  0.1522  1.3932  1.7890
  144OSM   H13T15752   5.691   6.217   5.594  1.4882  2.9580  4.4382
  144OSM   C14S15753   5.553   6.303   5.729 -0.2878 -0.1839  0.4479
  144OSM   H14S15754   5.465   6.370   5.741  1.0526  2.5136 -2.8356
  144OSM   H14T15755   5.640   6.356   5.774  0.7755 -0.9632 -0.6116
  144OSM   C15S15756   5.538   6.174   5.802  0.8004  0.6873  0.5304
  144OSM   H15S15757   5.625   6.107   5.785 -0.7762 -1.6634  1.2315
  144OSM   H15T15758   5.452   6.119   5.758 -0.1611  1.5124  1.3257
  144OSM   C16S15759   5.521   6.173   5.955  0.4295  0.1377  0.1924
  144OSM   H16S15760   5.464   6.081   5.980  0.3303 -0.1743 -1.1039
  144OSM   H16T15761   5.455   6.261   5.968  1.3371  0.7285  0.9369
  144OSM   C17S15762   5.640   6.188   6.043 -0.3535  0.8678  0.1845
  144OSM   H17S15763   5.717   6.237   5.981  0.3833 -0.1217  0.2848
  144OSM   H17T15764   5.683   6.088   6.069 -1.7670  0.3751  0.7277
  144OSM   C18S15765   5.619   6.270   6.170 -0.7904  0.4438  0.1527
  144OSM   H18S15766   5.590   6.374   6.147 -1.9587 -0.0014 -0.5034
  144OSM   H18T15767   5.718   6.267   6.219 -0.8670 -1.6337  0.2758
  144OSM   H18U15768   5.556   6.214   6.243  0.8555 -1.0441  0.5163
  144OSM    C1F15769   5.176   6.331   4.365  0.0104 -0.5069 -0.3092
  144OSM     OF15770   5.163   6.241   4.285 -0.0461 -0.0701  0.3439
  144OSM    C2F15771   5.064   6.384   4.453 -0.3843  0.2140 -0.2023
  144OSM    H2F15772   4.974   6.405   4.391 -1.2701  0.0119  0.9822
  144OSM    H2G15773   5.090   6.478   4.506 -3.6702  3.4541 -3.6493
  144OSM    C3F15774   5.015   6.269   4.542  0.0668 -0.0019 -0.4321
  144OSM    H3F15775   5.001   6.176   4.482 -1.7224 -2.0677  2.8710
  144OSM    H3G15776   4.917   6.303   4.582  1.5219  2.1130  1.6050
  144OSM    C4F15777   5.104   6.245   4.664  0.6840 -0.3775 -1.0892
  144OSM    H4F15778   5.122   6.337   4.725  0.8900 -0.6251 -0.7718
  144OSM    H4G15779   5.201   6.208   4.626  0.9352  0.8865 -1.7379
  144OSM    C5F15780   5.042   6.149   4.766 -0.0858  0.0074  0.3807
  144OSM    H5F15781   5.006   6.058   4.713 -1.2443  0.2904  0.6424
  144OSM    H5G15782   4.952   6.199   4.808 -0.6136 -0.5782 -0.0267
  144OSM    C6F15783   5.131   6.111   4.882 -0.3935 -0.0073  0.1426
  144OSM    H6F15784   5.222   6.174   4.882 -1.4024  1.5464 -0.4543
  144OSM    H6G15785   5.169   6.014   4.845 -0.6919 -0.4084  0.8816
  144OSM    C7F15786   5.055   6.073   5.012 -1.0459  0.6055  0.3090
  144OSM    H7F15787   5.012   5.972   4.997 -1.4123  0.9554 -1.1711
  144OSM    H7G15788   4.966   6.138   5.021 -1.1310  0.6982 -0.9751
  144OSM    C8F15789   5.139   6.080   5.141  0.0328 -0.9163  0.0125
  144OSM    H8F15790   5.188   6.180   5.145 -0.2179 -0.8291  1.4464
  144OSM    H8G15791   5.230   6.016   5.141  0.3053 -0.5358 -0.2800
  144OSM    C9F15792   5.042   6.057   5.250 -0.2888  0.1677 -1.2414
  144OSM    H9F15793   4.944   6.108   5.249 -0.5650 -0.3117 -0.2451
  144OSM   C10F15794   5.053   5.974   5.356 -0.1158  0.5473 -0.1130
  144OSM   H10F15795   4.979   5.976   5.438  0.9696  1.3837  0.8742
  144OSM   C11F15796   5.149   5.863   5.380 -0.4712 -0.5793  0.0074
  144OSM   H11F15797   5.225   5.867   5.299 -3.2850  0.5231 -2.7979
  144OSM   H11G15798   5.097   5.764   5.374  1.4177 -1.5692 -0.6834
  144OSM   C12F15799   5.215   5.884   5.522 -0.2203 -0.0055  0.6299
  144OSM   H12F15800   5.240   5.992   5.522 -1.5701  0.3217  0.1499
  144OSM   H12G15801   5.302   5.815   5.518 -0.8581 -0.7648 -0.6381
  144OSM   C13F15802   5.120   5.847   5.633  0.4113 -0.1923 -0.0162
  144OSM   H13F15803   5.098   5.739   5.620  2.5984 -0.9204  1.6913
  144OSM   H13G15804   5.017   5.887   5.620  0.0513 -1.0790  0.0609
  144OSM   C14F15805   5.173   5.877   5.766  0.0214  0.5236 -0.3869
  144OSM   H14F15806   5.202   5.984   5.769  1.5527  0.1272 -0.0118
  144OSM   H14G15807   5.269   5.824   5.786 -0.0259  1.1276  1.6607
  144OSM   C15F15808   5.076   5.864   5.881 -0.6378  0.4494 -0.1448
  144OSM   H15F15809   4.979   5.909   5.850 -1.3644  1.0890  2.7176
  144OSM   H15G15810   5.113   5.927   5.965  1.9804 -1.5947  0.3726
  144OSM   C16F15811   5.063   5.728   5.937  0.5637  0.8426  0.6713
  144OSM   H16F15812   5.155   5.692   5.986 -0.6410  0.9406  3.1797
  144OSM   H16G15813   5.041   5.667   5.847 -0.0147  1.2947  0.4887
  144OSM   C17F15814   4.947   5.715   6.041 -0.3455 -0.7523  0.5411
  144OSM   H17F15815   4.863   5.765   5.990  1.5280  0.6000 -1.3995
  144OSM   H17G15816   4.985   5.788   6.117 -4.2233  1.6404  0.4410
  144OSM   C18F15817   4.915   5.580   6.098  0.5230 -0.1514 -0.0656
  144OSM   H18F15818   4.904   5.504   6.018 -0.1445 -0.1662  0.0321
  144OSM   H18G15819   4.814   5.586   6.145  1.1664  0.6146  1.2800
  144OSM   H18H15820   4.991   5.551   6.174  1.1199  2.5712  0.4703
  145SAPE     N15821   2.362   1.810   0.476  0.0525 -0.3769  0.3028
  145SAPE   HN115822   2.307   1.898   0.469  0.7310  0.0748  0.5620
  145SAPE   HN215823   2.324   1.767   0.563 -1.1381  0.1891  0.0800
  145SAPE   HN315824   2.464   1.820   0.490  0.2500  0.8982 -1.7542
  145SAPE   C1215825   2.355   1.730   0.354  0.7129 -0.4578  0.1038
  145SAPE  H12A15826   2.398   1.630   0.378  0.6770 -1.1095 -2.2951
  145SAPE  H12B15827   2.417   1.786   0.281  0.2365  3.1985  2.2761
  145SAPE   C1115828   2.202   1.713   0.317  0.4488  0.4747 -0.0404
  145SAPE  H11A15829   2.145   1.658   0.395  1.1009 -0.9296 -0.5257
  145SAPE  H11B15830   2.205   1.634   0.239  0.9448  1.4557 -1.0546
  145SAPE     P15831   2.004   1.814   0.203 -0.5971  0.1031  0.1937
  145SAPE   O1315832   1.921   1.723   0.284 -0.4603  0.0600  0.1381
  145SAPE   O1415833   1.957   1.950   0.176 -0.1550  0.0243 -0.2150
  145SAPE   O1215834   2.135   1.832   0.275  0.6953  0.1140  0.1865
  145SAPE   O1115835   2.046   1.742   0.064 -0.1858 -0.8417 -0.5441
  145SAPE    C115836   2.155   1.797  -0.012 -0.0199 -0.3837  0.2104
  145SAPE    HA15837   2.237   1.846   0.046  2.3643  0.0068 -3.1496
  145SAPE    HB15838   2.202   1.712  -0.065  1.4360 -0.8148  2.0867
  145SAPE    C215839   2.106   1.888  -0.134  0.7185 -0.2349 -0.2302
  145SAPE    HS15840   2.052   1.979  -0.099  1.8176 -0.7018  2.9938
  145SAPE   O2115841   2.029   1.813  -0.220  0.1066  0.3976 -0.3087
  145SAPE   C2115842   1.896   1.843  -0.226 -0.0465 -0.3789 -0.2290
  145SAPE   O2215843   1.833   1.925  -0.155  0.7849  0.1641  0.7177
  145SAPE   C2215844   1.820   1.760  -0.328 -0.1343 -0.2181 -1.0198
  145SAPE   H2R15845   1.880   1.668  -0.346 -2.3632 -1.4865 -2.5278
  145SAPE   H2S15846   1.723   1.716  -0.297 -0.0929 -0.6442 -1.4829
  145SAPE    C315847   2.219   1.938  -0.219 -1.0545 -0.3518 -0.3295
  145SAPE    HX15848   2.273   1.848  -0.255 -2.2068 -1.0633 -0.3135
  145SAPE    HY15849   2.285   2.000  -0.154 -1.1492 -1.2990  0.6967
  145SAPE   O3115850   2.168   2.013  -0.330  0.1049 -0.0012 -0.0221
  145SAPE   C3115851   2.166   2.144  -0.305  0.2616  0.1974 -0.2304
  145SAPE   O3215852   2.181   2.194  -0.199 -0.0836 -0.0270 -0.0940
  145SAPE   C3215853   2.152   2.222  -0.434 -0.0668 -1.0506  0.0592
  145SAPE   H2X15854   2.071   2.191  -0.503 -0.8279  2.5729 -0.8803
  145SAPE   H2Y15855   2.252   2.204  -0.480  0.6077  1.8042  0.2084
  145SAPE   C2315856   1.794   1.844  -0.452  0.2680  0.2400 -1.1348
  145SAPE   H3R15857   1.878   1.915  -0.467 -0.2054  0.7250 -1.4919
  145SAPE   H3S15858   1.711   1.915  -0.435 -2.0455 -2.5573  0.2041
  145SAPE   C2415859   1.771   1.748  -0.569  0.1433 -0.0777 -0.1727
  145SAPE   H4R15860   1.846   1.666  -0.565  0.8555  0.5028 -1.2076
  145SAPE   H4S15861   1.796   1.809  -0.659 -2.7613 -0.3314 -1.2362
  145SAPE   C2515862   1.626   1.689  -0.576 -0.2629  0.2027 -0.2797
  145SAPE   H5R15863   1.570   1.682  -0.482 -1.6314  2.3795 -0.8757
  145SAPE   C2615864   1.562   1.653  -0.688 -0.3844 -0.4177  0.9603
  145SAPE   H6R15865   1.457   1.621  -0.688  0.0966 -2.0994  0.7679
  145SAPE   C2715866   1.616   1.663  -0.834  0.3592 -0.4056 -0.3075
  145SAPE   H7R15867   1.640   1.561  -0.869  0.5243 -0.6484  0.4841
  145SAPE   H7S15868   1.716   1.711  -0.847  0.1909 -0.3310 -1.3785
  145SAPE   C2815869   1.509   1.736  -0.917  0.6382 -0.4245  0.0918
  145SAPE   H8R15870   1.514   1.846  -0.918  1.7224 -0.4655  0.2728
  145SAPE   C2915871   1.415   1.688  -1.000  0.0286  0.7967  0.0860
  145SAPE   H9R15872   1.351   1.759  -1.054  0.2361  1.5856  0.8553
  145SAPE  C21015873   1.386   1.540  -1.015  0.3098 -0.3600 -0.7762
  145SAPE  H10R15874   1.331   1.503  -0.925  0.1005  1.0709 -0.2934
  145SAPE  H10S15875   1.476   1.475  -1.018  1.9287  1.8021 -1.9152
  145SAPE  C21115876   1.293   1.512  -1.133 -0.1398  0.0721  0.3904
  145SAPE  H11R15877   1.224   1.593  -1.158 -1.9859 -1.5353  0.0771
  145SAPE  C21215878   1.284   1.393  -1.196  0.3180  0.2719 -0.2789
  145SAPE  H12R15879   1.214   1.386  -1.280 -0.7272 -1.6389  0.6995
  145SAPE  C21315880   1.362   1.268  -1.164  0.7690  0.3774  0.3487
  145SAPE  H13R15881   1.358   1.250  -1.055 -2.4732 -2.3292 -0.0284
  145SAPE  H13S15882   1.465   1.275  -1.205 -0.0093  2.1793 -1.4718
  145SAPE  C21415883   1.282   1.157  -1.223  0.1721 -0.2444  0.4413
  145SAPE  H14R15884   1.191   1.136  -1.165 -1.5423  1.5156 -1.4177
  145SAPE  C21515885   1.291   1.108  -1.346  0.5969 -0.3545 -0.1694
  145SAPE  H15R15886   1.213   1.036  -1.376  1.2268 -0.6376 -1.1821
  145SAPE  C21615887   1.395   1.121  -1.445  0.4182 -0.4075  0.4882
  145SAPE  H16R15888   1.412   1.017  -1.481 -2.9036 -0.9569  0.2608
  145SAPE  H16S15889   1.486   1.162  -1.395  1.5887 -3.6605  1.2800
  145SAPE  C21715890   1.354   1.213  -1.567  0.4761  0.3361 -0.0441
  145SAPE  H17R15891   1.436   1.230  -1.641  0.5029 -3.3563 -1.0540
  145SAPE  H17S15892   1.326   1.315  -1.531  3.0983  2.0160 -2.3239
  145SAPE  C21815893   1.240   1.170  -1.660  0.1612 -0.0957 -0.8093
  145SAPE  H18R15894   1.208   1.262  -1.714  0.7474 -0.1410 -1.2410
  145SAPE  H18S15895   1.164   1.121  -1.596 -0.4892  2.1968  0.3007
  145SAPE  C21915896   1.291   1.070  -1.763 -1.0902 -0.1745  0.0700
  145SAPE  H19R15897   1.394   1.098  -1.792 -1.1732 -0.0084 -0.0693
  145SAPE  H19S15898   1.223   1.083  -1.850 -1.4346 -1.0165  0.2006
  145SAPE  C22015899   1.282   0.923  -1.746 -0.2248  0.0313 -0.4218
  145SAPE  H20R15900   1.315   0.871  -1.838  2.4791 -2.2301  1.6676
  145SAPE  H20S15901   1.180   0.888  -1.718  0.4442  0.2725  2.7628
  145SAPE  H20T15902   1.347   0.883  -1.666 -0.9955 -2.8506 -1.1256
  145SAPE   C3315903   2.146   2.370  -0.418  0.7455 -0.2156 -0.8666
  145SAPE   H3X15904   2.190   2.411  -0.511  2.3351  1.1566  0.4223
  145SAPE   H3Y15905   2.204   2.410  -0.332  0.6314 -0.2243 -0.7861
  145SAPE   C3415906   2.001   2.426  -0.401 -0.2656  0.7543 -0.6283
  145SAPE   H4X15907   1.962   2.388  -0.304  0.8813  2.1690  0.4402
  145SAPE   H4Y15908   1.946   2.405  -0.495 -1.1957  2.7480 -0.5914
  145SAPE   C3515909   2.011   2.577  -0.395  0.3676 -0.0361 -0.4761
  145SAPE   H5X15910   2.093   2.625  -0.452  0.6533 -0.0436 -0.0765
  145SAPE   H5Y15911   2.037   2.591  -0.288  1.8599 -0.3694 -0.7738
  145SAPE   C3615912   1.874   2.652  -0.413 -1.4478 -0.1637 -0.1839
  145SAPE   H6X15913   1.879   2.739  -0.344  1.1295  0.1641 -0.7012
  145SAPE   H6Y15914   1.789   2.586  -0.384 -2.0318  1.1849  1.3383
  145SAPE   C3715915   1.862   2.696  -0.561  0.5791 -0.2470  0.0200
  145SAPE   H7X15916   1.859   2.608  -0.629  1.0532 -0.2429 -0.0069
  145SAPE   H7Y15917   1.955   2.754  -0.579  0.2260  0.3925  0.2219
  145SAPE   C3815918   1.726   2.776  -0.592 -0.5058  0.2721 -0.4516
  145SAPE   H8X15919   1.727   2.866  -0.527 -2.6686 -0.7325  1.1038
  145SAPE   H8Y15920   1.633   2.721  -0.565 -1.4352  0.1073 -3.6244
  145SAPE   C3915921   1.708   2.802  -0.746 -0.8582 -0.4715 -0.6317
  145SAPE   H9X15922   1.706   2.703  -0.797 -1.1272 -0.0955 -1.3610
  145SAPE   H9Y15923   1.800   2.857  -0.773 -0.8737 -1.1548 -2.1544
  145SAPE  C31015924   1.577   2.877  -0.783 -0.0340  0.0038 -0.4442
  145SAPE  H10X15925   1.563   2.964  -0.716  1.8588  0.4706 -0.5895
  145SAPE  H10Y15926   1.485   2.819  -0.764 -1.4556  2.6759  1.4262
  145SAPE  C31115927   1.573   2.930  -0.926 -0.5961 -0.1685  0.0222
  145SAPE  H11X15928   1.467   2.939  -0.957 -0.4261  1.4251 -0.1601
  145SAPE  H11Y15929   1.626   2.866  -1.000  0.1037 -0.2552  0.5764
  145SAPE  C31215930   1.629   3.073  -0.931  0.0692  0.5812  0.2287
  145SAPE  H12X15931   1.729   3.071  -0.883 -0.6143  1.2831  1.7760
  145SAPE  H12Y15932   1.566   3.144  -0.873 -1.7138  0.3613 -1.3483
  145SAPE  C31315933   1.637   3.111  -1.076 -0.1173  0.1908  0.5388
  145SAPE  H13X15934   1.541   3.156  -1.109  0.0334  0.3033  0.2433
  145SAPE  H13Y15935   1.663   3.032  -1.150 -0.1603  1.7235 -1.1864
  145SAPE  C31415936   1.726   3.232  -1.100  0.3842  0.1700  0.3312
  145SAPE  H14X15937   1.831   3.225  -1.065  0.3111  2.4236  1.1089
  145SAPE  H14Y15938   1.695   3.316  -1.034 -2.0830 -1.0322  0.8544
  145SAPE  C31515939   1.731   3.281  -1.241  0.5092 -0.9860  0.1958
  145SAPE  H15X15940   1.771   3.200  -1.304 -0.1890 -0.2179 -1.3032
  145SAPE  H15Y15941   1.804   3.365  -1.242 -0.5383  0.0608  2.6432
  145SAPE  C31615942   1.602   3.349  -1.290 -1.0052  0.8940  0.3228
  145SAPE  H16X15943   1.566   3.413  -1.206  0.7413 -0.4633  2.2143
  145SAPE  H16Y15944   1.525   3.270  -1.300  0.8590 -1.0915  0.8413
  145SAPE  C31715945   1.604   3.423  -1.427 -0.4207 -0.8466  0.2043
  145SAPE  H17X15946   1.680   3.501  -1.405 -0.5175 -1.1605  1.7915
  145SAPE  H17Y15947   1.513   3.481  -1.452 -1.3686 -2.5778 -0.5206
  145SAPE  C31815948   1.656   3.347  -1.547 -0.1740 -0.3679  0.0221
  145SAPE  H18X15949   1.587   3.272  -1.591  0.1116 -0.9237  0.5084
  145SAPE  H18Y15950   1.756   3.308  -1.518 -0.8924 -2.5068 -0.2099
  145SAPE  H18Z15951   1.666   3.413  -1.636 -1.2841  0.4398  0.4730
  146SAPE     N15952   5.957   3.764   0.311 -0.1262  0.1661  0.0791
  146SAPE   HN115953   6.033   3.693   0.304  1.6302  1.9014  0.6157
  146SAPE   HN215954   5.878   3.713   0.268 -0.1841  0.2084  0.1363
  146SAPE   HN315955   5.984   3.844   0.251  1.2691 -0.2253  0.1494
  146SAPE   C1215956   5.932   3.807   0.451  0.0743  0.2544  0.1173
  146SAPE  H12A15957   5.967   3.730   0.522 -1.7225  1.8217  2.8660
  146SAPE  H12B15958   5.823   3.811   0.471  0.3267  0.3559  1.5392
  146SAPE   C1115959   5.978   3.946   0.478 -0.2438 -0.3721  0.3132
  146SAPE  H11A15960   5.973   3.970   0.587 -0.4460  1.3207 -0.0348
  146SAPE  H11B15961   5.911   4.016   0.424  0.6528  0.7295  0.5745
  146SAPE     P15962   6.243   3.915   0.511  0.3035 -0.4711 -0.1027
  146SAPE   O1315963   6.208   3.858   0.644 -0.3134 -0.2224 -0.3369
  146SAPE   O1415964   6.321   3.829   0.421 -0.6220 -0.4656  0.4524
  146SAPE   O1215965   6.113   3.977   0.441  0.1211 -0.3791 -0.3400
  146SAPE   O1115966   6.333   4.037   0.538 -0.7955 -0.0868 -0.2301
  146SAPE    C115967   6.290   4.171   0.534  0.2005  0.4825 -0.3295
  146SAPE    HA15968   6.204   4.191   0.601  0.2395 -1.0874  0.2319
  146SAPE    HB15969   6.373   4.231   0.576 -1.0602  0.4151  2.4824
  146SAPE    C215970   6.270   4.229   0.386 -0.3802 -0.3622  0.6167
  146SAPE    HS15971   6.169   4.215   0.340 -0.8587  1.3488  1.0464
  146SAPE   O2115972   6.378   4.169   0.311 -1.0737 -0.5556 -0.2752
  146SAPE   C2115973   6.363   4.161   0.179  0.2816 -0.8300 -0.1814
  146SAPE   O2215974   6.257   4.175   0.121 -0.0464 -0.8185 -0.3924
  146SAPE   C2215975   6.496   4.144   0.107  0.1480  0.1906 -0.9497
  146SAPE   H2R15976   6.544   4.243   0.089 -0.6773  0.7274 -0.2879
  146SAPE   H2S15977   6.573   4.097   0.172  0.7217  0.5736 -1.3371
  146SAPE    C315978   6.289   4.387   0.406  0.1668 -0.2579 -0.3684
  146SAPE    HX15979   6.391   4.414   0.440  0.7157 -2.1766 -0.3961
  146SAPE    HY15980   6.223   4.417   0.490 -0.5658  3.5156 -2.0702
  146SAPE   O3115981   6.252   4.458   0.281  0.0955 -0.5147  0.2401
  146SAPE   C3115982   6.356   4.484   0.196  0.4779 -0.4404 -0.6536
  146SAPE   O3215983   6.472   4.462   0.226 -0.4777 -0.1891 -0.3240
  146SAPE   C3215984   6.301   4.526   0.061 -0.4061  0.0085  0.1181
  146SAPE   H2X15985   6.260   4.629   0.072 -0.8200 -0.2979  1.5770
  146SAPE   H2Y15986   6.213   4.462   0.042 -1.0289  0.7750  0.3420
  146SAPE   C2315987   6.479   4.071  -0.031 -0.1873  0.1390  0.0616
  146SAPE   H3R15988   6.394   4.106  -0.094  1.4004 -0.7570 -2.7542
  146SAPE   H3S15989   6.461   3.963  -0.009  0.0432  0.3427  1.3275
  146SAPE   C2415990   6.609   4.069  -0.112  0.3293 -0.4459 -0.1248
  146SAPE   H4R15991   6.583   3.997  -0.192 -0.8519  0.2611 -0.4000
  146SAPE   H4S15992   6.694   4.020  -0.059 -0.2638 -4.5297 -2.4806
  146SAPE   C2515993   6.649   4.197  -0.170 -0.1388 -0.0647  0.5976
  146SAPE   H5R15994   6.707   4.265  -0.106 -1.1587  2.7910 -1.3124
  146SAPE   C2615995   6.613   4.238  -0.296  0.7874  0.7648 -0.7674
  146SAPE   H6R15996   6.655   4.335  -0.329  0.5604  0.8554 -0.7962
  146SAPE   C2715997   6.528   4.163  -0.397  0.9101  0.0319  0.4076
  146SAPE   H7R15998   6.502   4.240  -0.472  3.0318  1.1901  0.7902
  146SAPE   H7S15999   6.437   4.125  -0.346 -0.8293  0.0021 -2.5106
  146SAPE   C2816000   6.613   4.058  -0.467 -0.2087  0.1273 -0.5232
  146SAPE   H8R16001   6.706   4.028  -0.416  0.7144  2.3362 -0.7967
  146SAPE   C2916002   6.595   4.008  -0.591 -0.4173 -0.4295  0.1978
  146SAPE   H9R16003   6.654   3.922  -0.627  1.4100  0.2888  1.3339
  146SAPE  C21016004   6.491   4.062  -0.687 -0.0816  0.3844  0.3318
  146SAPE  H10R16005   6.420   4.133  -0.639 -1.2269  1.0778 -2.2315
  146SAPE  H10S16006   6.424   3.981  -0.723 -2.6453  2.1945  0.7798
  146SAPE  C21116007   6.563   4.123  -0.808 -0.2527  0.1380  0.2912
  146SAPE  H11R16008   6.671   4.144  -0.796 -0.2099 -0.3507  0.8140
  146SAPE  C21216009   6.495   4.163  -0.915 -0.2393 -0.0100  0.2284
  146SAPE  H12R16010   6.553   4.202  -1.000 -0.9101 -0.1018 -0.2862
  146SAPE  C21316011   6.346   4.132  -0.930  0.2273  0.1238 -0.1711
  146SAPE  H13R16012   6.299   4.114  -0.831 -3.1327  1.3712 -1.4118
  146SAPE  H13S16013   6.343   4.036  -0.986  1.5207 -1.2342  1.9495
  146SAPE  C21416014   6.272   4.241  -1.000  0.6454  0.2846 -0.4697
  146SAPE  H14R16015   6.231   4.314  -0.929 -0.2693 -1.0003  0.3695
  146SAPE  C21516016   6.253   4.253  -1.135 -0.4202  0.3158  0.8013
  146SAPE  H15R16017   6.209   4.344  -1.180  1.7874  1.2706  0.4586
  146SAPE  C21616018   6.318   4.162  -1.243  0.6695  0.4358 -0.8024
  146SAPE  H16R16019   6.400   4.096  -1.210  0.8656 -0.1026 -2.2973
  146SAPE  H16S16020   6.358   4.227  -1.325  1.1144  0.4373 -0.5856
  146SAPE  C21716021   6.208   4.066  -1.293 -0.4971  0.6032  0.0495
  146SAPE  H17R16022   6.121   4.121  -1.335 -0.3870  0.6279 -0.1468
  146SAPE  H17S16023   6.169   4.009  -1.206  0.2460 -2.6328 -1.5963
  146SAPE  C21816024   6.257   3.960  -1.392  0.3815  0.1177  0.3170
  146SAPE  H18R16025   6.185   3.875  -1.389 -0.2091  0.6268  1.7926
  146SAPE  H18S16026   6.346   3.908  -1.352  1.3293 -0.5003 -2.3812
  146SAPE  C21916027   6.292   4.020  -1.528 -0.0409  0.3740 -0.1528
  146SAPE  H19R16028   6.368   4.101  -1.531 -0.7251  0.9816 -2.0336
  146SAPE  H19S16029   6.198   4.057  -1.575 -1.2471 -1.4234  0.6847
  146SAPE  C22016030   6.349   3.919  -1.622 -0.1758  0.6745 -0.9296
  146SAPE  H20R16031   6.452   3.887  -1.597 -1.0120 -1.3185  0.2205
  146SAPE  H20S16032   6.357   3.962  -1.724 -0.1727  1.5268 -0.5768
  146SAPE  H20T16033   6.284   3.829  -1.626  0.8659 -0.0987 -0.7084
  146SAPE   C3316034   6.409   4.540  -0.047 -0.2023  0.1981  0.2357
  146SAPE   H3X16035   6.445   4.439  -0.076 -0.4605  0.2675 -0.3395
  146SAPE   H3Y16036   6.505   4.580  -0.008  0.1766  1.2777 -1.6830
  146SAPE   C3416037   6.378   4.631  -0.163  0.1705  0.2250  0.0553
  146SAPE   H4X16038   6.375   4.730  -0.113 -1.5398 -1.4515  3.6221
  146SAPE   H4Y16039   6.278   4.602  -0.202 -1.2481  1.4889  2.4587
  146SAPE   C3516040   6.487   4.621  -0.269 -0.6373 -0.2626  0.1562
  146SAPE   H5X16041   6.495   4.511  -0.281  0.6481 -0.3373  1.4080
  146SAPE   H5Y16042   6.583   4.655  -0.225 -0.0112 -0.4406 -1.0382
  146SAPE   C3616043   6.439   4.685  -0.404 -0.6229 -0.0041 -0.5597
  146SAPE   H6X16044   6.403   4.788  -0.379 -3.8401 -0.9093 -0.9821
  146SAPE   H6Y16045   6.349   4.633  -0.443 -0.2460 -1.0955 -0.0145
  146SAPE   C3716046   6.541   4.704  -0.514  0.0789 -0.4303 -0.0378
  146SAPE   H7X16047   6.608   4.615  -0.504  2.0865  1.0728  0.6661
  146SAPE   H7Y16048   6.605   4.795  -0.503 -1.0012  0.1812  1.3612
  146SAPE   C3816049   6.469   4.713  -0.648  0.4620 -0.0983  0.2931
  146SAPE   H8X16050   6.402   4.802  -0.653 -1.1736 -1.3137 -0.5404
  146SAPE   H8Y16051   6.407   4.621  -0.659  2.3341 -1.5425  1.3334
  146SAPE   C3916052   6.570   4.700  -0.764 -0.4871 -0.0415 -0.0827
  146SAPE   H9X16053   6.633   4.612  -0.742 -1.1541 -0.3384  0.6589
  146SAPE   H9Y16054   6.636   4.789  -0.776 -0.9728  0.1927 -1.2226
  146SAPE  C31016055   6.495   4.700  -0.903  0.9418  0.4836  0.0852
  146SAPE  H10X16056   6.499   4.805  -0.941  0.5857  0.3631 -0.2882
  146SAPE  H10Y16057   6.387   4.690  -0.883  1.1935 -0.7565  0.9081
  146SAPE  C31116058   6.529   4.593  -0.997 -0.0727  0.3545  0.2202
  146SAPE  H11X16059   6.484   4.494  -0.978  1.0616 -0.5273 -1.3598
  146SAPE  H11Y16060   6.640   4.590  -1.003 -0.1036 -1.1249  0.0495
  146SAPE  C31216061   6.482   4.625  -1.144  0.0400  0.0046  0.0758
  146SAPE  H12X16062   6.456   4.733  -1.147  2.6141  0.6739 -0.8046
  146SAPE  H12Y16063   6.390   4.570  -1.171  1.0706 -0.8916 -1.7892
  146SAPE  C31316064   6.586   4.605  -1.258 -0.5752 -0.1232 -0.9011
  146SAPE  H13X16065   6.620   4.500  -1.259 -1.4023 -0.4105  0.3315
  146SAPE  H13Y16066   6.677   4.664  -1.232  1.0630 -2.7504 -0.3471
  146SAPE  C31416067   6.540   4.650  -1.399 -0.6405  0.2003  0.0647
  146SAPE  H14X16068   6.465   4.729  -1.377 -1.2533  0.0240 -1.2947
  146SAPE  H14Y16069   6.491   4.569  -1.457  0.8664 -0.0789 -0.8737
  146SAPE  C31516070   6.665   4.688  -1.482 -0.9674 -0.3812 -0.4016
  146SAPE  H15X16071   6.739   4.607  -1.465 -1.4665 -0.4276  1.8198
  146SAPE  H15Y16072   6.694   4.785  -1.436 -0.3192 -0.6466 -0.2376
  146SAPE  C31616073   6.632   4.710  -1.633  0.7511  0.3703  0.2041
  146SAPE  H16X16074   6.547   4.781  -1.636  0.0582 -0.4226  0.8715
  146SAPE  H16Y16075   6.587   4.617  -1.674 -0.2464  0.9674 -0.0933
  146SAPE  C31716076   6.751   4.772  -1.714  0.2021  0.1037 -0.0377
  146SAPE  H17X16077   6.790   4.862  -1.662 -1.5379 -0.2476  2.0168
  146SAPE  H17Y16078   6.711   4.812  -1.809 -0.6612  2.2974  1.1577
  146SAPE  C31816079   6.854   4.672  -1.763  0.1618 -0.5451 -0.5465
  146SAPE  H18X16080   6.927   4.707  -1.839  0.6020 -2.6238 -1.1545
  146SAPE  H18Y16081   6.803   4.584  -1.807 -1.8052  0.4795 -0.4123
  146SAPE  H18Z16082   6.919   4.632  -1.682 -0.6423  1.0442  0.9500
  147SAPE     N16083   5.773   5.858   0.146 -0.4460  0.2269 -0.1321
  147SAPE   HN116084   5.703   5.899   0.212  1.0543  1.1132  0.9725
  147SAPE   HN216085   5.736   5.785   0.082  0.2125 -2.7440  2.6193
  147SAPE   HN316086   5.852   5.818   0.200  0.1132  2.3253  0.7396
  147SAPE   C1216087   5.827   5.984   0.079 -0.1795  0.2794  0.2201
  147SAPE  H12A16088   5.783   5.976  -0.022 -1.7810 -0.0551  0.9124
  147SAPE  H12B16089   5.938   5.973   0.071 -0.1310 -0.0823  1.2262
  147SAPE   C1116090   5.798   6.131   0.126  0.4186  0.4640  1.1546
  147SAPE  H11A16091   5.842   6.205   0.056  2.0111 -0.3938  1.2083
  147SAPE  H11B16092   5.848   6.151   0.223 -0.2115 -0.5065  1.6985
  147SAPE     P16093   5.601   6.297   0.166 -0.6724 -0.5660  0.6364
  147SAPE   O1316094   5.510   6.276   0.282  0.3221 -0.5568  0.2264
  147SAPE   O1416095   5.712   6.399   0.181 -0.1795 -0.7778 -0.4687
  147SAPE   O1216096   5.662   6.155   0.140 -0.1164  0.1712  0.8054
  147SAPE   O1116097   5.507   6.319   0.041  0.8770 -0.6714 -0.2810
  147SAPE    C116098   5.455   6.225  -0.046 -0.5049 -0.4514 -0.1256
  147SAPE    HA16099   5.406   6.140   0.008 -0.4175  0.7693  1.9653
  147SAPE    HB16100   5.388   6.279  -0.116  0.2272  0.2819 -0.2600
  147SAPE    C216101   5.554   6.161  -0.148  0.8052 -0.2044 -0.1810
  147SAPE    HS16102   5.615   6.090  -0.088  2.6815  1.0840 -0.4683
  147SAPE   O2116103   5.639   6.261  -0.203 -0.0102  0.1836 -0.7913
  147SAPE   C2116104   5.759   6.227  -0.257 -0.2070 -0.0345  0.9540
  147SAPE   O2216105   5.806   6.117  -0.254 -0.5932 -0.3064 -0.1653
  147SAPE   C2216106   5.827   6.351  -0.312  0.6936 -0.7931  0.5866
  147SAPE   H2R16107   5.785   6.444  -0.268 -1.5728 -2.1835  1.5217
  147SAPE   H2S16108   5.933   6.361  -0.280  0.2039  4.1068  1.3902
  147SAPE    C316109   5.467   6.087  -0.248  0.0737 -0.1091  0.6413
  147SAPE    HX16110   5.411   6.164  -0.307  0.3844  1.0329  1.7928
  147SAPE    HY16111   5.393   6.026  -0.193  0.8134 -2.6683 -1.0168
  147SAPE   O3116112   5.547   6.004  -0.341  0.3494 -0.2632  0.1976
  147SAPE   C3116113   5.601   5.894  -0.291  0.0996 -0.4130  0.1178
  147SAPE   O3216114   5.590   5.857  -0.175 -0.1043 -0.3445  0.2154
  147SAPE   C3216115   5.679   5.824  -0.396 -0.1452  0.4025  0.0887
  147SAPE   H2X16116   5.778   5.812  -0.347 -0.1816  1.1076  0.3382
  147SAPE   H2Y16117   5.686   5.881  -0.492  0.2056 -1.5574 -1.1142
  147SAPE   C2316118   5.821   6.366  -0.468  0.5367  0.2796  0.1462
  147SAPE   H3R16119   5.886   6.287  -0.512 -1.8302 -2.6666  1.5627
  147SAPE   H3S16120   5.862   6.466  -0.495  1.1880 -0.2594 -0.8838
  147SAPE   C2416121   5.680   6.350  -0.522 -0.3118 -0.4405  0.0212
  147SAPE   H4R16122   5.604   6.403  -0.461 -1.7496 -2.1320 -0.2162
  147SAPE   H4S16123   5.654   6.242  -0.511  0.6555 -0.7527 -0.5524
  147SAPE   C2516124   5.673   6.390  -0.667 -0.6070 -0.2376  0.0678
  147SAPE   H5R16125   5.636   6.492  -0.683 -0.2914 -0.0744  0.3548
  147SAPE   C2616126   5.706   6.321  -0.776 -0.4688 -0.2538 -0.8930
  147SAPE   H6R16127   5.705   6.366  -0.876 -1.8744  1.8354 -0.0093
  147SAPE   C2716128   5.748   6.179  -0.766  0.8444 -0.9157 -0.2336
  147SAPE   H7R16129   5.674   6.130  -0.833 -0.9119  0.7178  0.4195
  147SAPE   H7S16130   5.723   6.125  -0.673 -2.0596 -0.0473 -0.3992
  147SAPE   C2816131   5.890   6.156  -0.817 -0.2223  0.3360 -0.1328
  147SAPE   H8R16132   5.974   6.190  -0.754  1.4964 -2.1225 -0.9407
  147SAPE   C2916133   5.918   6.088  -0.927 -1.0271 -0.3408 -0.7704
  147SAPE   H9R16134   6.026   6.071  -0.944 -0.9512 -2.7932  1.3850
  147SAPE  C21016135   5.820   6.009  -1.025 -0.5933 -0.4219  0.3469
  147SAPE  H10R16136   5.779   6.082  -1.098 -0.1306 -0.3164  0.1869
  147SAPE  H10S16137   5.729   5.971  -0.974 -0.7993  0.6367  0.7959
  147SAPE  C21116138   5.886   5.897  -1.104 -0.8590 -0.0540  0.0916
  147SAPE  H11R16139   5.928   5.819  -1.038  1.6747  0.7053 -0.4836
  147SAPE  C21216140   5.900   5.890  -1.240 -0.4035  0.1177  0.0778
  147SAPE  H12R16141   5.950   5.800  -1.277  1.0905  1.1491 -0.5069
  147SAPE  C21316142   5.860   6.001  -1.337 -0.3296  0.0350  0.2149
  147SAPE  H13R16143   5.867   6.103  -1.292  0.8528 -0.1664  0.5161
  147SAPE  H13S16144   5.751   6.005  -1.357 -0.6045  1.3617  1.7701
  147SAPE  C21416145   5.945   6.011  -1.465  0.6753 -0.3538 -1.1616
  147SAPE  H14R16146   6.018   6.093  -1.460 -0.8600  1.0638 -1.0553
  147SAPE  C21516147   5.939   5.924  -1.569  0.1541  0.5212  0.0529
  147SAPE  H15R16148   6.015   5.918  -1.648 -0.1519 -1.2064 -0.1307
  147SAPE  C21616149   5.851   5.802  -1.584  0.0780  0.8506 -0.6511
  147SAPE  H16R16150   5.745   5.822  -1.611 -0.2269 -1.5791 -1.5884
  147SAPE  H16S16151   5.860   5.742  -1.491  4.2733  1.3147 -0.5541
  147SAPE  C21716152   5.914   5.706  -1.685  0.0765 -0.7407 -0.6144
  147SAPE  H17R16153   6.016   5.677  -1.651  1.5133  2.3541 -1.9604
  147SAPE  H17S16154   5.929   5.751  -1.785 -0.5532  1.0029  0.0366
  147SAPE  C21816155   5.839   5.576  -1.683 -0.1600 -0.4616 -0.0298
  147SAPE  H18R16156   5.738   5.598  -1.725  0.1456  0.2550 -0.4146
  147SAPE  H18S16157   5.833   5.548  -1.576 -2.8654  0.9903  0.2772
  147SAPE  C21916158   5.898   5.480  -1.777 -0.7819  0.8276  0.4964
  147SAPE  H19R16159   6.002   5.457  -1.746 -0.8654  0.1340  0.2820
  147SAPE  H19S16160   5.916   5.528  -1.876  0.7730  0.3142  0.5019
  147SAPE  C22016161   5.826   5.339  -1.778 -0.0457 -0.0867  0.3383
  147SAPE  H20R16162   5.890   5.275  -1.843  1.4911  3.0008 -1.4232
  147SAPE  H20S16163   5.723   5.361  -1.814  0.9282  1.1461 -1.8997
  147SAPE  H20T16164   5.842   5.291  -1.679  1.3186  0.3783  0.3690
  147SAPE   C3316165   5.622   5.680  -0.413  0.1692  0.1340 -0.8518
  147SAPE   H3X16166   5.513   5.697  -0.408  0.5758  3.1838 -0.6400
  147SAPE   H3Y16167   5.651   5.620  -0.324 -2.0306  1.5270  0.8918
  147SAPE   C3416168   5.672   5.616  -0.542  0.4167 -0.5739  0.6763
  147SAPE   H4X16169   5.648   5.507  -0.533  0.6611 -0.6198  0.7665
  147SAPE   H4Y16170   5.781   5.631  -0.552  0.1104  1.4000 -0.1405
  147SAPE   C3516171   5.603   5.671  -0.668  0.1664  0.8978  0.0175
  147SAPE   H5X16172   5.631   5.774  -0.697 -1.5773  0.8787 -2.0159
  147SAPE   H5Y16173   5.493   5.671  -0.657  0.0698  3.0201 -0.6472
  147SAPE   C3616174   5.643   5.579  -0.790  0.0842 -0.2063 -0.5643
  147SAPE   H6X16175   5.642   5.473  -0.755  1.1094 -0.2608 -0.6709
  147SAPE   H6Y16176   5.748   5.596  -0.823  0.4512  0.0762  0.6693
  147SAPE   C3716177   5.552   5.586  -0.909  0.7869  0.2276 -0.4112
  147SAPE   H7X16178   5.489   5.677  -0.901  1.7435  1.2217 -2.9806
  147SAPE   H7Y16179   5.476   5.506  -0.896 -0.2712  1.2574 -0.0603
  147SAPE   C3816180   5.633   5.599  -1.033  0.7340 -0.3894 -0.1299
  147SAPE   H8X16181   5.714   5.523  -1.030 -0.3470 -1.5791 -0.3801
  147SAPE   H8Y16182   5.671   5.702  -1.050  1.0458 -0.4363  0.2634
  147SAPE   C3916183   5.543   5.573  -1.155  0.3435  0.4990  0.0637
  147SAPE   H9X16184   5.478   5.660  -1.179 -0.6426 -0.3443 -0.4160
  147SAPE   H9Y16185   5.497   5.472  -1.147  1.3258 -0.0518 -0.8401
  147SAPE  C31016186   5.620   5.529  -1.280  0.3784 -0.0130  0.1198
  147SAPE  H10X16187   5.675   5.435  -1.258 -0.7952 -0.4451  1.3438
  147SAPE  H10Y16188   5.705   5.597  -1.301  1.0334 -0.8730 -0.0477
  147SAPE  C31116189   5.542   5.526  -1.414  0.5171 -0.6413  0.5330
  147SAPE  H11X16190   5.613   5.522  -1.499  0.8142  1.4532  0.6207
  147SAPE  H11Y16191   5.480   5.617  -1.432  1.9139 -0.0575 -1.6191
  147SAPE  C31216192   5.449   5.413  -1.414 -0.6842  0.1834 -0.4493
  147SAPE  H12X16193   5.374   5.438  -1.336 -0.5407 -0.3445 -0.1299
  147SAPE  H12Y16194   5.500   5.319  -1.383  2.3207  1.4960 -1.0400
  147SAPE  C31316195   5.381   5.401  -1.547  0.4847  0.0421 -0.3090
  147SAPE  H13X16196   5.456   5.390  -1.628  1.6890  0.7106  0.6704
  147SAPE  H13Y16197   5.322   5.493  -1.570 -3.2599 -2.3622 -1.1942
  147SAPE  C31416198   5.282   5.281  -1.560 -0.1018  0.1378 -0.9556
  147SAPE  H14X16199   5.175   5.312  -1.550 -1.9731 -5.2402 -1.0724
  147SAPE  H14Y16200   5.301   5.206  -1.480 -0.4137  1.2156  0.1698
  147SAPE  C31516201   5.305   5.211  -1.694 -0.3978 -0.6018 -0.9777
  147SAPE  H15X16202   5.411   5.180  -1.703 -0.4344 -2.3075  2.6779
  147SAPE  H15Y16203   5.278   5.290  -1.767 -0.3840  0.2945 -0.0478
  147SAPE  C31616204   5.200   5.100  -1.720 -0.5610 -0.0433  0.2266
  147SAPE  H16X16205   5.100   5.148  -1.724 -0.0106  1.1268  0.0256
  147SAPE  H16Y16206   5.219   5.016  -1.650  1.4917 -0.3401 -0.6155
  147SAPE  C31716207   5.215   5.020  -1.847 -0.6920  0.4703  0.4495
  147SAPE  H17X16208   5.312   4.966  -1.841  0.2954  1.9142 -1.5708
  147SAPE  H17Y16209   5.203   5.074  -1.944 -2.1910 -0.2908  0.1717
  147SAPE  C31816210   5.109   4.905  -1.859  0.5672 -0.1846  0.0222
  147SAPE  H18X16211   5.116   4.864  -1.961 -1.0422  1.4956 -0.8214
  147SAPE  H18Y16212   5.010   4.952  -1.844  0.3340  0.3715 -2.7803
  147SAPE  H18Z16213   5.127   4.828  -1.780  1.0823  0.8763  0.9688
  148SAPE     N16214   0.455   0.534   0.249  0.0452 -0.8770  0.0599
  148SAPE   HN116215   0.405   0.508   0.337 -0.5534  0.0911  0.0128
  148SAPE   HN216216   0.474   0.442   0.204 -1.0745 -2.0107  1.7483
  148SAPE   HN316217   0.547   0.569   0.281 -0.7509  1.0048  0.3895
  148SAPE   C1216218   0.387   0.634   0.158 -0.4552  0.3537 -0.4630
  148SAPE  H12A16219   0.379   0.731   0.211 -1.3062  0.7011 -1.1909
  148SAPE  H12B16220   0.283   0.598   0.142 -0.9125  1.5670 -0.3248
  148SAPE   C1116221   0.461   0.664   0.023  0.4822  0.0305 -0.1361
  148SAPE  H11A16222   0.398   0.724  -0.047  0.1437 -1.5323 -1.2217
  148SAPE  H11B16223   0.481   0.573  -0.037  0.8134  0.4569 -0.6876
  148SAPE     P16224   0.620   0.864   0.074 -0.0548  0.0796 -0.3841
  148SAPE   O1316225   0.520   0.920   0.164 -0.3320 -0.3348  0.1271
  148SAPE   O1416226   0.766   0.881   0.116 -0.1303 -0.2234 -0.0631
  148SAPE   O1216227   0.584   0.719   0.042 -0.0729 -0.4876  0.0767
  148SAPE   O1116228   0.612   0.932  -0.066 -0.3754 -0.4242 -0.1119
  148SAPE    C116229   0.726   0.937  -0.148 -0.8557 -0.3578  0.8734
  148SAPE    HA16230   0.789   1.025  -0.123  0.9874 -1.4841  0.4283
  148SAPE    HB16231   0.791   0.848  -0.137 -0.0397 -0.1765 -1.7856
  148SAPE    C216232   0.693   0.933  -0.302 -0.4130  0.7067  0.0541
  148SAPE    HS16233   0.792   0.934  -0.353 -0.1264  1.3295  0.6125
  148SAPE   O2116234   0.611   1.042  -0.350  0.4156 -0.3177  0.1558
  148SAPE   C2116235   0.659   1.164  -0.345 -0.5928  1.1765  0.1386
  148SAPE   O2216236   0.779   1.192  -0.336 -0.1714  0.3923 -0.0812
  148SAPE   C2216237   0.540   1.266  -0.347 -0.2487  0.6468  0.2827
  148SAPE   H2R16238   0.465   1.232  -0.422 -0.1954 -0.1466  0.5839
  148SAPE   H2S16239   0.486   1.272  -0.250 -1.5085 -0.9541 -0.2858
  148SAPE    C316240   0.632   0.787  -0.335  1.1313  0.1488  0.2307
  148SAPE    HX16241   0.534   0.778  -0.284  1.1707 -0.4265  0.2111
  148SAPE    HY16242   0.697   0.712  -0.285 -1.0594 -1.2075  1.2053
  148SAPE   O3116243   0.617   0.769  -0.472 -0.6081  0.2985  0.3516
  148SAPE   C3116244   0.565   0.654  -0.513 -0.0513 -0.4727  0.5310
  148SAPE   O3216245   0.547   0.558  -0.444  0.2086 -0.2674  0.1955
  148SAPE   C3216246   0.562   0.655  -0.665  0.2813  0.7640 -0.3151
  148SAPE   H2X16247   0.456   0.650  -0.699  0.0168  3.9761 -0.2002
  148SAPE   H2Y16248   0.608   0.561  -0.703 -0.2334  1.0074 -1.6203
  148SAPE   C2316249   0.585   1.408  -0.390 -0.3117 -0.0982  0.1271
  148SAPE   H3R16250   0.686   1.425  -0.349  1.4214 -2.2995 -2.8332
  148SAPE   H3S16251   0.509   1.474  -0.343  0.7517 -0.1782  2.0460
  148SAPE   C2416252   0.606   1.428  -0.542 -0.1445  0.4596  0.1789
  148SAPE   H4R16253   0.685   1.355  -0.569 -0.0070 -0.2878  2.3820
  148SAPE   H4S16254   0.661   1.522  -0.566 -0.2870  1.4428  3.2277
  148SAPE   C2516255   0.481   1.423  -0.625 -0.8220 -0.1565 -0.1816
  148SAPE   H5R16256   0.429   1.518  -0.642  1.2713  0.9862 -0.6110
  148SAPE   C2616257   0.457   1.322  -0.708 -0.1723  0.3636 -0.1291
  148SAPE   H6R16258   0.368   1.330  -0.772 -0.0407 -1.5474 -0.6044
  148SAPE   C2716259   0.522   1.186  -0.723  0.3029 -0.6580  0.0823
  148SAPE   H7R16260   0.457   1.101  -0.692 -2.3489  0.8188 -1.0822
  148SAPE   H7S16261   0.602   1.171  -0.647  0.1258 -1.8950  0.0388
  148SAPE   C2816262   0.577   1.152  -0.861 -0.0575  0.8740 -0.2062
  148SAPE   H8R16263   0.687   1.153  -0.864  0.0629 -0.2526  1.9414
  148SAPE   C2916264   0.502   1.127  -0.964  0.1041  0.0531 -0.0743
  148SAPE   H9R16265   0.548   1.092  -1.057 -0.6560  1.0076 -0.8254
  148SAPE  C21016266   0.354   1.132  -0.961 -0.4477 -0.4662 -0.1853
  148SAPE  H10R16267   0.314   1.231  -0.991  1.6098  0.2485 -0.7041
  148SAPE  H10S16268   0.305   1.101  -0.866  0.6946  0.5749  0.7834
  148SAPE  C21116269   0.307   1.040  -1.067  0.3518 -1.1745  0.2863
  148SAPE  H11R16270   0.245   0.961  -1.023 -1.9376  0.4914  0.2471
  148SAPE  C21216271   0.304   1.069  -1.202 -0.8164 -0.4998 -0.5870
  148SAPE  H12R16272   0.264   0.999  -1.277 -1.4049 -0.0206 -0.7375
  148SAPE  C21316273   0.357   1.194  -1.262  0.3275 -0.5333 -0.0462
  148SAPE  H13R16274   0.452   1.220  -1.211 -0.1765  0.6760  0.2907
  148SAPE  H13S16275   0.284   1.270  -1.229  1.1053 -1.1140  3.3997
  148SAPE  C21416276   0.379   1.185  -1.417  0.0752 -0.2411 -0.2902
  148SAPE  H14R16277   0.485   1.204  -1.441  0.1340 -0.2365 -0.0242
  148SAPE  C21516278   0.295   1.163  -1.512  0.3057  0.5184  0.7968
  148SAPE  H15R16279   0.326   1.166  -1.618 -1.0936  0.8195  0.3683
  148SAPE  C21616280   0.145   1.155  -1.497 -0.3831 -0.3441 -0.3181
  148SAPE  H16R16281   0.098   1.247  -1.539 -0.3503  0.3853  1.1615
  148SAPE  H16S16282   0.120   1.162  -1.389  1.6110 -1.5506  0.2516
  148SAPE  C21716283   0.064   1.035  -1.551  0.2534  0.3031 -0.5682
  148SAPE  H17R16284  -0.045   1.055  -1.550  0.6647  3.0031 -1.4249
  148SAPE  H17S16285   0.081   0.960  -1.471 -2.2505  2.0461  1.7543
  148SAPE  C21816286   0.123   0.980  -1.686  0.2289 -0.5315 -0.0714
  148SAPE  H18R16287   0.065   0.888  -1.710 -0.5526 -0.0835  0.0747
  148SAPE  H18S16288   0.231   0.961  -1.671  0.8454  2.3109 -0.3503
  148SAPE  C21916289   0.095   1.072  -1.811 -0.0534  1.0084  0.0188
  148SAPE  H19R16290   0.083   0.999  -1.893 -0.9123  1.7892 -0.5701
  148SAPE  H19S16291   0.187   1.133  -1.829  1.2194 -0.3419  1.5741
  148SAPE  C22016292  -0.026   1.158  -1.799  0.5469  0.6422  0.0853
  148SAPE  H20R16293  -0.117   1.113  -1.754  1.2782  0.0607  1.0312
  148SAPE  H20S16294  -0.064   1.193  -1.897  0.3035  0.8524  0.2540
  148SAPE  H20T16295  -0.002   1.250  -1.741 -0.3580  1.3067 -0.5680
  148SAPE   C3316296   0.628   0.769  -0.747  0.7181 -0.7227 -0.5399
  148SAPE   H3X16297   0.728   0.776  -0.700 -0.5940 -1.1010  2.5470
  148SAPE   H3Y16298   0.574   0.860  -0.711  0.9433 -0.9923  0.5094
  148SAPE   C3416299   0.632   0.787  -0.897 -0.5333  0.3053 -0.1524
  148SAPE   H4X16300   0.666   0.891  -0.916 -0.9494  0.4398 -0.1630
  148SAPE   H4Y16301   0.525   0.787  -0.927 -0.8859  1.2017  1.0035
  148SAPE   C3516302   0.709   0.680  -0.973 -0.0138 -0.9940 -0.3428
  148SAPE   H5X16303   0.690   0.574  -0.943  2.1647 -1.0862  0.9588
  148SAPE   H5Y16304   0.817   0.701  -0.957  0.6713 -3.3997 -1.3181
  148SAPE   C3616305   0.688   0.698  -1.126  0.3671  0.9643  0.2875
  148SAPE   H6X16306   0.729   0.793  -1.165 -0.3999  1.5161  0.8095
  148SAPE   H6Y16307   0.579   0.708  -1.143  0.3090  2.5645  1.4223
  148SAPE   C3716308   0.725   0.578  -1.224  0.1980 -0.1248 -1.3166
  148SAPE   H7X16309   0.683   0.489  -1.172 -0.4251  0.3788 -0.9518
  148SAPE   H7Y16310   0.835   0.563  -1.217  0.0749 -1.2506 -1.5408
  148SAPE   C3816311   0.672   0.597  -1.364 -0.4124 -0.0177  0.0391
  148SAPE   H8X16312   0.580   0.659  -1.366  0.3257  1.0977  0.1056
  148SAPE   H8Y16313   0.641   0.495  -1.396 -0.8838  0.0054  0.4189
  148SAPE   C3916314   0.778   0.640  -1.464 -0.5417 -0.4390  0.9139
  148SAPE   H9X16315   0.866   0.572  -1.459 -0.5486 -0.6280 -0.8111
  148SAPE   H9Y16316   0.800   0.746  -1.440 -2.2534  0.2221 -0.2477
  148SAPE  C31016317   0.726   0.634  -1.605 -0.8964 -0.5039 -0.0114
  148SAPE  H10X16318   0.629   0.688  -1.609 -0.2233  0.6344 -2.1151
  148SAPE  H10Y16319   0.709   0.528  -1.632  0.6631 -0.6747 -0.4109
  148SAPE  C31116320   0.816   0.686  -1.718  0.2057 -0.0744  1.0390
  148SAPE  H11X16321   0.907   0.622  -1.719 -1.4988 -2.6414 -0.1535
  148SAPE  H11Y16322   0.852   0.790  -1.707  1.9829 -0.3892 -1.0616
  148SAPE  C31216323   0.742   0.671  -1.853 -0.4165 -0.3058  0.1172
  148SAPE  H12X16324   0.651   0.733  -1.859 -1.2110 -1.5753 -2.8854
  148SAPE  H12Y16325   0.705   0.567  -1.869 -1.8920  0.5191 -2.2792
  148SAPE  C31316326   0.828   0.709  -1.978 -0.2780 -0.3369  0.3815
  148SAPE  H13X16327   0.937   0.688  -1.974 -0.2245  0.0174  0.8516
  148SAPE  H13Y16328   0.823   0.819  -1.991  2.1693 -0.3770 -1.6776
  148SAPE  C31416329   0.775   0.637  -2.101  0.1186 -0.1328  0.3628
  148SAPE  H14X16330   0.751   0.528  -2.095 -1.2874  0.1730  0.6046
  148SAPE  H14Y16331   0.853   0.643  -2.181  1.3103  0.6006  1.5431
  148SAPE  C31516332   0.641   0.696  -2.141 -0.1431  0.0882  0.1620
  148SAPE  H15X16333   0.658   0.800  -2.176 -1.3499  1.5622  3.5837
  148SAPE  H15Y16334   0.570   0.702  -2.056 -0.4465  0.4163 -0.1118
  148SAPE  C31616335   0.556   0.605  -2.239  0.9965 -0.0109  0.7137
  148SAPE  H16X16336   0.524   0.514  -2.184  0.0461 -1.2897 -1.7982
  148SAPE  H16Y16337   0.618   0.568  -2.324 -0.4772  0.3524 -0.5470
  148SAPE  C31716338   0.437   0.670  -2.303  0.1668 -0.4232 -0.1140
  148SAPE  H17X16339   0.378   0.594  -2.358  0.6511  1.1030 -2.9192
  148SAPE  H17Y16340   0.470   0.742  -2.380  2.7248  1.1160  2.2358
  148SAPE  C31816341   0.363   0.763  -2.203 -1.0677  0.4343  0.4526
  148SAPE  H18X16342   0.426   0.848  -2.168 -2.4523  1.5812  0.2187
  148SAPE  H18Y16343   0.324   0.697  -2.123 -0.5437 -0.6516 -0.1560
  148SAPE  H18Z16344   0.274   0.796  -2.259  0.3329  1.2703 -1.4051
  149SAPE     N16345   3.453   2.990   0.331  0.5801  0.1494  0.8702
  149SAPE   HN116346   3.520   2.914   0.355  0.8092  0.2208  0.4650
  149SAPE   HN216347   3.511   3.075   0.344  1.2134 -0.0453 -0.4834
  149SAPE   HN316348   3.380   2.988   0.404 -0.2779  1.8317  0.0989
  149SAPE   C1216349   3.399   2.990   0.190 -0.1578  0.3600  0.1958
  149SAPE  H12A16350   3.477   2.949   0.122 -1.3373  0.0859 -1.0309
  149SAPE  H12B16351   3.375   3.096   0.166 -0.1462  0.1273 -0.9238
  149SAPE   C1116352   3.279   2.889   0.172 -0.6583 -0.0668  1.1337
  149SAPE  H11A16353   3.250   2.884   0.065  0.2300  2.6795  0.6824
  149SAPE  H11B16354   3.200   2.934   0.237 -0.9645 -0.9377  1.3685
  149SAPE     P16355   3.301   2.631   0.135  0.1757  0.2901  0.0722
  149SAPE   O1316356   3.383   2.513   0.182 -1.0669 -0.5360 -0.2434
  149SAPE   O1416357   3.153   2.599   0.118  0.2754 -0.0031  0.2608
  149SAPE   O1216358   3.316   2.761   0.229  0.0137 -0.0356  0.7387
  149SAPE   O1116359   3.358   2.678  -0.002  0.1563 -0.2969  0.4267
  149SAPE    C116360   3.471   2.628  -0.069  0.2803 -0.1778 -0.3248
  149SAPE    HA16361   3.519   2.544  -0.014  2.2588  0.9287 -0.2620
  149SAPE    HB16362   3.444   2.597  -0.172  0.8729 -0.4413 -0.4039
  149SAPE    C216363   3.587   2.741  -0.072 -0.5699  0.6476  0.1417
  149SAPE    HS16364   3.610   2.777   0.031 -1.3937  0.0735  0.5307
  149SAPE   O2116365   3.542   2.844  -0.157 -0.1214  0.3966  0.2702
  149SAPE   C2116366   3.607   2.957  -0.150  1.1009 -0.1530 -0.4903
  149SAPE   O2216367   3.688   2.987  -0.063 -0.4026  0.4065  0.1063
  149SAPE   C2216368   3.546   3.049  -0.259  0.1487 -0.0348  0.4992
  149SAPE   H2R16369   3.439   3.021  -0.259 -0.3757  1.8324 -0.0755
  149SAPE   H2S16370   3.558   3.153  -0.221 -1.8524 -0.1080  1.4483
  149SAPE    C316371   3.710   2.669  -0.147 -0.9321 -0.2336 -0.2583
  149SAPE    HX16372   3.756   2.596  -0.078 -1.5300  0.0840  0.4919
  149SAPE    HY16373   3.793   2.740  -0.171 -1.3702  0.6701  0.8170
  149SAPE   O3116374   3.664   2.621  -0.274 -0.4318  0.1561  0.5405
  149SAPE   C3116375   3.669   2.484  -0.293  0.0784  0.1112  0.0792
  149SAPE   O3216376   3.713   2.408  -0.207  0.1540  0.4317  0.6725
  149SAPE   C3216377   3.585   2.447  -0.420 -0.1078 -0.5790  0.1535
  149SAPE   H2X16378   3.627   2.511  -0.501 -0.6136 -1.2990 -0.6912
  149SAPE   H2Y16379   3.479   2.477  -0.406  0.4897  2.6975 -1.2798
  149SAPE   C2316380   3.618   3.050  -0.392  0.7514 -0.0339  0.4549
  149SAPE   H3R16381   3.729   3.050  -0.388  0.8992  3.5914 -0.0662
  149SAPE   H3S16382   3.601   3.142  -0.452 -0.1342 -0.2475  0.3752
  149SAPE   C2416383   3.572   2.924  -0.468  0.2224  0.2313  0.0326
  149SAPE   H4R16384   3.462   2.928  -0.484  0.1560  0.7264  0.6103
  149SAPE   H4S16385   3.596   2.840  -0.399  1.2073  0.7123  0.2940
  149SAPE   C2516386   3.643   2.911  -0.602  0.2767  0.4484 -0.1949
  149SAPE   H5R16387   3.735   2.972  -0.610  0.8176 -0.3709 -0.3930
  149SAPE   C2616388   3.596   2.845  -0.711  0.6164 -0.0241 -0.3462
  149SAPE   H6R16389   3.648   2.848  -0.809 -0.6719 -0.1326 -1.0483
  149SAPE   C2716390   3.464   2.774  -0.709 -0.6781 -0.0643 -0.3861
  149SAPE   H7R16391   3.375   2.832  -0.676 -1.1328 -0.7630 -0.3563
  149SAPE   H7S16392   3.476   2.707  -0.622  1.0167 -0.0017 -0.5442
  149SAPE   C2816393   3.425   2.680  -0.826 -0.6753 -0.5777 -0.2362
  149SAPE   H8R16394   3.442   2.574  -0.803 -1.3491 -0.5794  0.2940
  149SAPE   C2916395   3.331   2.701  -0.926 -1.0814  0.4548 -0.0209
  149SAPE   H9R16396   3.324   2.613  -0.991  1.4710  0.4536 -0.4210
  149SAPE  C21016397   3.263   2.836  -0.956 -0.2670  0.1440  0.3717
  149SAPE  H10R16398   3.217   2.868  -0.860 -0.4146 -0.7630  0.6196
  149SAPE  H10S16399   3.169   2.826  -1.015 -0.5043  0.1570  0.7426
  149SAPE  C21116400   3.359   2.942  -1.009 -0.9772 -0.7533  0.2246
  149SAPE  H11R16401   3.465   2.923  -0.988 -1.0146 -0.8054  0.3656
  149SAPE  C21216402   3.323   3.056  -1.069 -0.4965  0.1914 -0.3690
  149SAPE  H12R16403   3.402   3.128  -1.097  1.3995 -1.5054  0.4323
  149SAPE  C21316404   3.179   3.107  -1.073 -0.0165  0.7083  0.2912
  149SAPE  H13R16405   3.106   3.025  -1.067 -0.9915  1.6499  2.8931
  149SAPE  H13S16406   3.150   3.155  -1.169 -1.4046  0.1137  0.3964
  149SAPE  C21416407   3.141   3.194  -0.958 -0.4217 -0.4138  0.4376
  149SAPE  H14R16408   3.061   3.153  -0.895  0.6723 -0.6850  1.7087
  149SAPE  C21516409   3.177   3.324  -0.946 -0.4987  0.0106 -0.1465
  149SAPE  H15R16410   3.138   3.388  -0.866  2.0279  3.7926 -1.6576
  149SAPE  C21616411   3.279   3.406  -1.020 -0.1700 -0.0445 -0.4440
  149SAPE  H16R16412   3.296   3.371  -1.124  1.1182  2.1099 -1.0253
  149SAPE  H16S16413   3.374   3.416  -0.964  1.2670 -1.4986 -2.4807
  149SAPE  C21716414   3.227   3.550  -1.037 -0.6874  0.4142 -0.0756
  149SAPE  H17R16415   3.304   3.608  -1.092 -1.7283  1.7005 -0.2045
  149SAPE  H17S16416   3.197   3.606  -0.946  0.7079  0.6490  0.2567
  149SAPE  C21816417   3.109   3.552  -1.134  0.2394 -0.3697  0.2145
  149SAPE  H18R16418   3.015   3.510  -1.092 -0.2513 -0.0607 -0.5508
  149SAPE  H18S16419   3.141   3.504  -1.229  0.6585  2.1730 -1.0455
  149SAPE  C21916420   3.064   3.693  -1.167 -0.1162  0.2933  0.1141
  149SAPE  H19R16421   2.992   3.682  -1.251  2.9084  0.3165 -2.7196
  149SAPE  H19S16422   3.149   3.753  -1.206  0.1651 -0.3956 -0.3392
  149SAPE  C22016423   2.990   3.756  -1.043 -0.4506  0.3394  0.7289
  149SAPE  H20R16424   3.058   3.762  -0.955 -0.8038  0.2882  1.0088
  149SAPE  H20S16425   2.903   3.693  -1.016 -2.3282  2.7285  0.5469
  149SAPE  H20T16426   2.955   3.859  -1.063 -3.4638 -1.1275 -2.4576
  149SAPE   C3316427   3.599   2.297  -0.455  0.5685  0.4387  0.4863
  149SAPE   H3X16428   3.580   2.236  -0.364 -1.8549 -0.8115 -0.7680
  149SAPE   H3Y16429   3.690   2.262  -0.507 -0.9238 -1.7205 -0.8288
  149SAPE   C3416430   3.498   2.240  -0.561  0.8972 -0.0238 -0.1496
  149SAPE   H4X16431   3.394   2.262  -0.530  0.6972 -0.0843 -0.7649
  149SAPE   H4Y16432   3.501   2.129  -0.561  0.7596 -0.0530 -1.7734
  149SAPE   C3516433   3.536   2.292  -0.700  0.1572  0.7270 -0.4111
  149SAPE   H5X16434   3.626   2.241  -0.739 -0.7721 -0.4462 -1.0931
  149SAPE   H5Y16435   3.575   2.396  -0.697 -0.4143  0.9381  0.0133
  149SAPE   C3616436   3.415   2.281  -0.798  0.5086  0.3125 -0.4695
  149SAPE   H6X16437   3.329   2.341  -0.761  1.1421  1.0045 -0.0899
  149SAPE   H6Y16438   3.384   2.175  -0.790  1.7225  0.0674  1.4613
  149SAPE   C3716439   3.444   2.328  -0.943 -0.0710  0.1807 -0.0239
  149SAPE   H7X16440   3.526   2.264  -0.982  1.9423  2.0216  0.9645
  149SAPE   H7Y16441   3.482   2.432  -0.941 -0.2858  0.2880 -1.0519
  149SAPE   C3816442   3.322   2.308  -1.036  1.5457 -0.0859 -0.3741
  149SAPE   H8X16443   3.232   2.368  -1.011 -0.2364 -2.0681 -1.6351
  149SAPE   H8Y16444   3.281   2.205  -1.036  0.8051  0.1417  2.2165
  149SAPE   C3916445   3.361   2.359  -1.178 -0.0344 -1.4492  0.7690
  149SAPE   H9X16446   3.423   2.275  -1.217  3.4456  0.1891  2.3216
  149SAPE   H9Y16447   3.421   2.452  -1.185 -0.7692 -1.0770 -1.1048
  149SAPE  C31016448   3.240   2.382  -1.267 -0.1319 -0.3009  0.3090
  149SAPE  H10X16449   3.170   2.457  -1.224 -0.2649 -1.4760  2.2633
  149SAPE  H10Y16450   3.172   2.295  -1.264  1.7381 -1.8081  0.7623
  149SAPE  C31116451   3.280   2.427  -1.408  0.0101 -0.1229  0.5337
  149SAPE  H11X16452   3.354   2.351  -1.442 -2.1214 -2.2020  0.2429
  149SAPE  H11Y16453   3.324   2.529  -1.408 -3.2363  1.4200  1.0793
  149SAPE  C31216454   3.171   2.416  -1.520 -0.0654 -0.0306 -0.3409
  149SAPE  H12X16455   3.137   2.310  -1.527  1.1495 -0.5646  1.1566
  149SAPE  H12Y16456   3.217   2.447  -1.616  0.9446  1.7971  0.6796
  149SAPE  C31316457   3.044   2.499  -1.490 -0.3281 -0.4486 -0.6389
  149SAPE  H13X16458   3.072   2.607  -1.490  0.5989 -0.6784 -0.0135
  149SAPE  H13Y16459   3.007   2.477  -1.388 -0.2229  0.3827 -0.4111
  149SAPE  C31416460   2.932   2.478  -1.588 -0.0511 -0.9498 -0.1307
  149SAPE  H14X16461   2.875   2.386  -1.564 -0.6763 -0.6968 -0.6235
  149SAPE  H14Y16462   2.972   2.453  -1.688  1.1522 -1.0590  0.3561
  149SAPE  C31516463   2.833   2.595  -1.585 -0.1135  0.0900 -0.5821
  149SAPE  H15X16464   2.886   2.692  -1.597  0.9056 -0.5260 -1.1269
  149SAPE  H15Y16465   2.790   2.600  -1.483 -0.1556  1.3833 -0.6456
  149SAPE  C31616466   2.725   2.577  -1.680  1.0023 -0.0690 -0.5725
  149SAPE  H16X16467   2.677   2.481  -1.654 -2.8988  2.2600  1.9168
  149SAPE  H16Y16468   2.763   2.566  -1.783  1.4157 -0.4816 -0.3777
  149SAPE  C31716469   2.599   2.663  -1.662  0.3974 -0.7458  0.0417
  149SAPE  H17X16470   2.627   2.770  -1.657  1.5611 -0.8416 -2.7311
  149SAPE  H17Y16471   2.555   2.644  -1.562  0.7015  0.1797  0.3574
  149SAPE  C31816472   2.489   2.634  -1.772 -0.3053 -0.2534  0.4727
  149SAPE  H18X16473   2.458   2.528  -1.766  1.4435 -0.8451 -0.2447
  149SAPE  H18Y16474   2.543   2.637  -1.869 -0.4739 -0.5519  0.3702
  149SAPE  H18Z16475   2.407   2.708  -1.759  0.2596  0.7154 -1.1330
  150SAPE     N16476   4.901   1.172   0.057 -0.1759 -0.2835  0.6480
  150SAPE   HN116477   4.931   1.073   0.059  0.1611 -0.1746  2.0681
  150SAPE   HN216478   4.798   1.165   0.073 -0.8443  0.5886 -2.5787
  150SAPE   HN316479   4.918   1.212  -0.038 -0.8188  1.5961  1.2724
  150SAPE   C1216480   4.970   1.245   0.166  0.3546  0.1954 -0.2475
  150SAPE  H12A16481   5.070   1.285   0.139  0.5653 -1.0330 -1.3871
  150SAPE  H12B16482   4.970   1.175   0.252  2.1167 -0.1354 -0.4866
  150SAPE   C1116483   4.902   1.372   0.212  1.6750 -0.0327  0.4274
  150SAPE  H11A16484   4.915   1.446   0.131 -1.9603 -0.1922 -0.4726
  150SAPE  H11B16485   4.954   1.411   0.302 -0.0757  0.9452  1.0663
  150SAPE     P16486   4.687   1.465   0.307 -0.3105  0.2056 -0.2925
  150SAPE   O1316487   4.585   1.388   0.378  0.0528 -0.1859 -0.2903
  150SAPE   O1416488   4.785   1.541   0.383 -1.0084 -0.3078 -0.3346
  150SAPE   O1216489   4.761   1.348   0.233 -0.1604 -0.2637 -0.7264
  150SAPE   O1116490   4.623   1.544   0.193  0.4332  0.1254 -0.3103
  150SAPE    C116491   4.506   1.504   0.121  0.1574  0.2561 -0.5027
  150SAPE    HA16492   4.433   1.459   0.192  1.3153 -2.1951 -0.7539
  150SAPE    HB16493   4.452   1.595   0.087 -2.1394 -1.0810 -0.6345
  150SAPE    C216494   4.524   1.422  -0.003 -0.6346  0.2053  0.3065
  150SAPE    HS16495   4.567   1.324   0.029 -1.0567 -0.9346 -2.3104
  150SAPE   O2116496   4.605   1.495  -0.093  0.7409 -0.1908  0.4053
  150SAPE   C2116497   4.714   1.438  -0.136  0.2908 -0.5560  0.5605
  150SAPE   O2216498   4.734   1.319  -0.128 -0.2731 -0.1608  0.1333
  150SAPE   C2216499   4.820   1.542  -0.173 -0.4621  0.1839 -0.8015
  150SAPE   H2R16500   4.789   1.639  -0.129  3.7639  0.6194  1.8571
  150SAPE   H2S16501   4.903   1.515  -0.103 -0.2669 -0.6386 -1.3374
  150SAPE    C316502   4.390   1.396  -0.081 -0.1548  0.1083  0.0418
  150SAPE    HX16503   4.335   1.492  -0.092  0.4049  0.8046  2.6058
  150SAPE    HY16504   4.329   1.328  -0.019 -0.4050 -0.0548 -0.3784
  150SAPE   O3116505   4.411   1.340  -0.213  0.1258 -0.0199  0.2273
  150SAPE   C3116506   4.442   1.204  -0.207  0.0179  0.1347  0.4354
  150SAPE   O3216507   4.436   1.148  -0.099 -0.6340 -0.5663  0.4660
  150SAPE   C3216508   4.485   1.153  -0.347 -0.3263 -0.3409  0.2704
  150SAPE   H2X16509   4.528   1.240  -0.400 -1.6424  1.8230  2.5659
  150SAPE   H2Y16510   4.398   1.126  -0.410  1.3008 -0.1734 -2.1920
  150SAPE   C2316511   4.868   1.547  -0.317  0.1735 -0.5922  0.1211
  150SAPE   H3R16512   4.907   1.450  -0.353  0.7671 -0.8170  1.3552
  150SAPE   H3S16513   4.965   1.602  -0.318  0.2006 -0.6195 -1.2422
  150SAPE   C2416514   4.774   1.613  -0.420  0.6824  0.4185 -0.0493
  150SAPE   H4R16515   4.823   1.623  -0.519 -1.0444  3.1989 -0.7210
  150SAPE   H4S16516   4.751   1.716  -0.387 -0.8878  0.1933 -0.3511
  150SAPE   C2516517   4.641   1.542  -0.427 -0.2610  0.1718  0.5192
  150SAPE   H5R16518   4.570   1.563  -0.346 -1.8470 -0.6719 -0.5859
  150SAPE   C2616519   4.594   1.478  -0.533  0.2786 -0.4518  0.3949
  150SAPE   H6R16520   4.497   1.427  -0.526 -0.8543  1.4684 -0.5784
  150SAPE   C2716521   4.664   1.450  -0.659 -0.1840  0.4954  0.1481
  150SAPE   H7R16522   4.649   1.342  -0.677 -0.5547  0.5243  0.2773
  150SAPE   H7S16523   4.774   1.460  -0.643 -0.0684  5.3560 -1.8832
  150SAPE   C2816524   4.616   1.540  -0.773  0.6546 -0.2270  0.1410
  150SAPE   H8R16525   4.636   1.645  -0.751 -3.0171  0.7553 -0.6376
  150SAPE   C2916526   4.560   1.516  -0.894 -0.0627  0.3582  0.7121
  150SAPE   H9R16527   4.527   1.601  -0.956  0.0479 -0.7385 -0.8911
  150SAPE  C21016528   4.532   1.381  -0.956  0.0682 -0.3432  0.2932
  150SAPE  H10R16529   4.427   1.370  -0.992  0.4800 -0.2916 -1.0014
  150SAPE  H10S16530   4.543   1.300  -0.881 -1.0103 -0.7421  0.0476
  150SAPE  C21116531   4.637   1.348  -1.071  0.2751 -0.7177 -1.1719
  150SAPE  H11R16532   4.713   1.422  -1.099 -1.8358  1.3536 -1.7777
  150SAPE  C21216533   4.629   1.237  -1.142 -0.8745 -0.2518 -0.0934
  150SAPE  H12R16534   4.703   1.219  -1.222  0.4276 -0.1990  1.0660
  150SAPE  C21316535   4.529   1.124  -1.119 -0.0238  0.4539  0.2783
  150SAPE  H13R16536   4.440   1.154  -1.060  2.2490  0.3304  4.0938
  150SAPE  H13S16537   4.589   1.056  -1.056  1.7855  1.5285 -0.2189
  150SAPE  C21416538   4.481   1.039  -1.232  0.2766  0.4169 -0.3179
  150SAPE  H14R16539   4.463   0.937  -1.195 -0.5502  0.6450 -0.0670
  150SAPE  C21516540   4.434   1.068  -1.359  0.3931 -0.1754 -0.3502
  150SAPE  H15R16541   4.394   0.987  -1.423  1.1411 -0.3385 -0.6323
  150SAPE  C21616542   4.429   1.200  -1.423  0.0334 -0.8803  0.5898
  150SAPE  H16R16543   4.443   1.279  -1.346  1.7849 -0.2911 -0.2941
  150SAPE  H16S16544   4.323   1.217  -1.451  0.1674  1.2362  1.1913
  150SAPE  C21716545   4.530   1.219  -1.542  0.2226  0.2671  0.2698
  150SAPE  H17R16546   4.519   1.148  -1.627  0.8206  2.2469 -1.5733
  150SAPE  H17S16547   4.631   1.209  -1.498  0.1760  1.5278  0.7005
  150SAPE  C21816548   4.514   1.363  -1.595  0.2309  0.0281  0.2482
  150SAPE  H18R16549   4.535   1.434  -1.512  1.5263 -1.3464  1.1602
  150SAPE  H18S16550   4.406   1.377  -1.612  0.0940 -0.7008  0.4932
  150SAPE  C21916551   4.593   1.398  -1.718  0.3499 -1.1040  0.1931
  150SAPE  H19R16552   4.585   1.324  -1.801 -1.9338  0.8655 -1.4979
  150SAPE  H19S16553   4.700   1.397  -1.688 -0.0650 -0.2907  1.7873
  150SAPE  C22016554   4.547   1.545  -1.753 -0.0154 -0.0242 -0.5573
  150SAPE  H20R16555   4.578   1.621  -1.678 -0.4246  1.8018 -2.1613
  150SAPE  H20S16556   4.437   1.553  -1.762 -0.5254 -3.2659  1.2032
  150SAPE  H20T16557   4.604   1.579  -1.841  1.2008 -0.6929 -0.0579
  150SAPE   C3316558   4.572   1.026  -0.334  0.0071 -0.0042 -0.2547
  150SAPE   H3X16559   4.533   0.961  -0.253  0.4453  0.0314 -0.0108
  150SAPE   H3Y16560   4.677   1.049  -0.304  1.0689 -2.2676 -1.9344
  150SAPE   C3416561   4.593   0.948  -0.465  0.0584  0.0440 -0.2971
  150SAPE   H4X16562   4.494   0.917  -0.505 -0.5877 -1.2659  2.1521
  150SAPE   H4Y16563   4.643   0.852  -0.442 -1.8199 -0.8449  0.2546
  150SAPE   C3516564   4.661   1.029  -0.572  0.0743  1.0206 -0.2917
  150SAPE   H5X16565   4.767   1.053  -0.548  0.2497  2.0299 -1.9213
  150SAPE   H5Y16566   4.605   1.117  -0.610 -0.6397  0.5043 -0.4412
  150SAPE   C3616567   4.668   0.948  -0.701 -0.1355  0.6324  0.3140
  150SAPE   H6X16568   4.568   0.931  -0.746  0.4077  0.7920 -1.0216
  150SAPE   H6Y16569   4.712   0.847  -0.682 -1.0950 -0.2531 -1.8197
  150SAPE   C3716570   4.760   1.004  -0.815  0.0227  0.4836 -0.0306
  150SAPE   H7X16571   4.839   1.052  -0.753  1.0355 -0.2583 -0.7090
  150SAPE   H7Y16572   4.710   1.083  -0.875  0.3864  1.2191  0.6206
  150SAPE   C3816573   4.823   0.901  -0.908  0.0288 -0.4152 -0.8604
  150SAPE   H8X16574   4.740   0.849  -0.960  1.1981 -0.9347 -2.2805
  150SAPE   H8Y16575   4.883   0.837  -0.841  0.0362  0.7424  0.2813
  150SAPE   C3916576   4.929   0.961  -1.005 -0.2061 -0.7351 -0.0292
  150SAPE   H9X16577   5.033   0.975  -0.969  0.0373  3.5732 -1.8150
  150SAPE   H9Y16578   4.894   1.060  -1.042  0.0250  0.1542  2.0015
  150SAPE  C31016579   4.943   0.878  -1.133  0.5984 -0.1365 -0.2037
  150SAPE  H10X16580   4.840   0.850  -1.165  0.4423  1.6388 -1.3856
  150SAPE  H10Y16581   5.000   0.785  -1.110  0.7990  0.0461  0.0491
  150SAPE  C31116582   5.017   0.956  -1.244  0.5099 -0.3580  0.1518
  150SAPE  H11X16583   5.125   0.965  -1.220  0.2664 -0.0509  1.2257
  150SAPE  H11Y16584   4.970   1.056  -1.255  0.1975 -0.3502  1.4034
  150SAPE  C31216585   5.007   0.896  -1.386 -0.1709 -0.3250  0.3358
  150SAPE  H12X16586   4.900   0.888  -1.414 -0.2241 -0.0870  0.4704
  150SAPE  H12Y16587   5.050   0.793  -1.385  0.2532 -0.1501  0.9006
  150SAPE  C31316588   5.086   0.959  -1.502  0.5164 -0.4942  0.4250
  150SAPE  H13X16589   5.194   0.972  -1.481  0.5454  2.6813 -1.1855
  150SAPE  H13Y16590   5.043   1.061  -1.507 -2.4092 -1.4915  2.5482
  150SAPE  C31416591   5.063   0.886  -1.635  0.1902 -0.1524 -0.2988
  150SAPE  H14X16592   5.122   0.792  -1.636 -1.0492 -0.9623 -1.1003
  150SAPE  H14Y16593   5.103   0.959  -1.709  0.8508  1.4314  1.5375
  150SAPE  C31516594   4.932   0.836  -1.674 -0.4535  0.3057 -0.1598
  150SAPE  H15X16595   4.899   0.764  -1.597 -0.1527 -0.2954 -0.5840
  150SAPE  H15Y16596   4.951   0.771  -1.762  0.7536  0.4995 -0.0526
  150SAPE  C31616597   4.830   0.945  -1.701  0.6968  0.9428  0.4105
  150SAPE  H16X16598   4.864   0.987  -1.797  0.1097 -1.4446 -0.9207
  150SAPE  H16Y16599   4.849   1.012  -1.614  1.7142  1.6284 -0.3293
  150SAPE  C31716600   4.681   0.909  -1.706 -0.0763  0.3959 -0.6452
  150SAPE  H17X16601   4.636   1.011  -1.711  1.5117  1.1074 -1.4030
  150SAPE  H17Y16602   4.658   0.862  -1.609  1.9557 -0.1680 -0.3862
  150SAPE  C31816603   4.629   0.815  -1.816  0.2444 -0.1505 -0.1778
  150SAPE  H18X16604   4.657   0.861  -1.913  0.2063 -1.2010 -0.6915
  150SAPE  H18Y16605   4.520   0.798  -1.800  0.1393 -0.5421 -1.2560
  150SAPE  H18Z16606   4.679   0.717  -1.801 -0.0923 -0.4443 -0.9491
  151SAPE     N16607   4.886   3.017   0.597 -0.5381  0.2562 -0.3560
  151SAPE   HN116608   4.986   3.005   0.625 -1.5469 -2.0349  2.8637
  151SAPE   HN216609   4.863   3.114   0.629  0.1986 -0.0037  1.0768
  151SAPE   HN316610   4.834   2.943   0.649 -0.4254 -1.6552 -2.8002
  151SAPE   C1216611   4.843   3.001   0.453  0.5036 -0.9456  0.0271
  151SAPE  H12A16612   4.861   2.898   0.418  0.8441 -0.7485 -0.3787
  151SAPE  H12B16613   4.888   3.084   0.394 -1.2897 -0.2761 -0.4781
  151SAPE   C1116614   4.686   3.032   0.444 -0.3019 -0.1034 -0.3031
  151SAPE  H11A16615   4.638   2.957   0.510  1.1907  0.8057  1.9450
  151SAPE  H11B16616   4.646   3.015   0.342  0.8473  1.6459 -1.1027
  151SAPE     P16617   4.597   3.280   0.404 -0.0536 -0.0695  0.0404
  151SAPE   O1316618   4.449   3.257   0.408  0.1100  0.1194 -0.2589
  151SAPE   O1416619   4.643   3.413   0.444 -0.5412 -0.0507  0.6238
  151SAPE   O1216620   4.666   3.172   0.495  0.5729  0.4835 -0.6052
  151SAPE   O1116621   4.659   3.249   0.261  0.2692  0.0483 -0.7783
  151SAPE    C116622   4.787   3.289   0.219  0.3864  0.2808  1.2762
  151SAPE    HA16623   4.868   3.291   0.295 -0.4461  0.0241  2.1848
  151SAPE    HB16624   4.823   3.215   0.144 -0.1203  1.3118 -0.0043
  151SAPE    C216625   4.780   3.415   0.125  0.1133 -0.1036  0.4449
  151SAPE    HS16626   4.742   3.501   0.184 -0.9837 -1.2681  1.4960
  151SAPE   O2116627   4.715   3.393   0.001  0.1549 -0.5082  0.4368
  151SAPE   C2116628   4.582   3.404   0.004  0.2682  0.2225  0.9713
  151SAPE   O2216629   4.516   3.445   0.101  0.1656 -0.3839  0.2247
  151SAPE   C2216630   4.532   3.346  -0.127 -0.2160 -0.2919  0.5072
  151SAPE   H2R16631   4.567   3.417  -0.205  0.3805 -0.6088  0.4886
  151SAPE   H2S16632   4.579   3.249  -0.151  2.5772  1.1301 -0.2297
  151SAPE    C316633   4.930   3.453   0.088 -0.1223  0.2502  0.1712
  151SAPE    HX16634   4.963   3.375   0.016  0.2180  1.1548 -0.6739
  151SAPE    HY16635   4.987   3.446   0.183  0.8633  0.1238 -0.4227
  151SAPE   O3116636   4.942   3.585   0.037 -0.1778  0.2584  0.0411
  151SAPE   C3116637   5.066   3.635   0.030 -0.1452  0.5288  0.6099
  151SAPE   O3216638   5.159   3.585   0.091 -0.0808  0.5068  0.1431
  151SAPE   C3216639   5.073   3.764  -0.057 -0.0983  0.8417 -0.6007
  151SAPE   H2X16640   5.054   3.835   0.026  1.0421 -2.1304  2.4406
  151SAPE   H2Y16641   4.980   3.755  -0.117 -1.1418  0.3341  1.0179
  151SAPE   C2316642   4.381   3.344  -0.137 -0.2056 -1.0178 -0.1111
  151SAPE   H3R16643   4.349   3.446  -0.165  0.6580 -0.8015 -0.3229
  151SAPE   H3S16644   4.322   3.335  -0.043 -0.2999 -1.8183 -0.2347
  151SAPE   C2416645   4.319   3.237  -0.232 -0.9361  0.4398  0.2213
  151SAPE   H4R16646   4.338   3.136  -0.191  1.2926  0.0606 -1.5208
  151SAPE   H4S16647   4.392   3.235  -0.316  1.2114  3.0905  1.8307
  151SAPE   C2516648   4.176   3.255  -0.264 -0.1873  0.0680  0.4020
  151SAPE   H5R16649   4.113   3.283  -0.178 -0.7099 -1.8303  0.7021
  151SAPE   C2616650   4.115   3.257  -0.386  0.2224  0.3257 -0.6373
  151SAPE   H6R16651   4.007   3.277  -0.396  0.5694  1.7980 -1.8002
  151SAPE   C2716652   4.187   3.232  -0.512 -0.5379 -0.9435 -0.1097
  151SAPE   H7R16653   4.116   3.180  -0.580 -0.4223  0.5181 -1.3977
  151SAPE   H7S16654   4.273   3.163  -0.499 -2.7855 -4.1721 -1.1253
  151SAPE   C2816655   4.237   3.361  -0.579 -0.1543  0.3875 -0.2130
  151SAPE   H8R16656   4.222   3.459  -0.532 -1.6669 -0.0953  0.3888
  151SAPE   C2916657   4.296   3.360  -0.703 -0.7523  0.9848 -0.0668
  151SAPE   H9R16658   4.332   3.448  -0.757  2.5455  2.1413  3.5667
  151SAPE  C21016659   4.319   3.228  -0.778 -0.2442 -0.5997 -0.4131
  151SAPE  H10R16660   4.323   3.252  -0.887 -2.3153 -2.8264 -1.0768
  151SAPE  H10S16661   4.228   3.164  -0.780 -1.7409  1.4157 -0.4430
  151SAPE  C21116662   4.447   3.153  -0.737  0.2015 -0.0552 -0.4891
  151SAPE  H11R16663   4.429   3.106  -0.639 -2.2337  1.5507 -0.0600
  151SAPE  C21216664   4.561   3.146  -0.798  0.2091 -0.5070 -0.1825
  151SAPE  H12R16665   4.639   3.079  -0.759  1.1361 -0.0459 -1.1975
  151SAPE  C21316666   4.595   3.218  -0.929 -0.5415 -0.1396 -0.1387
  151SAPE  H13R16667   4.503   3.256  -0.978 -0.0153  1.5551  0.1151
  151SAPE  H13S16668   4.652   3.145  -0.991  1.6128  0.7009  0.7270
  151SAPE  C21416669   4.695   3.330  -0.905  1.0021 -0.3947  0.1279
  151SAPE  H14R16670   4.695   3.379  -0.807  0.6200  0.2787 -0.2029
  151SAPE  C21516671   4.782   3.369  -0.997 -0.4411 -0.2435  0.3552
  151SAPE  H15R16672   4.840   3.460  -0.972 -0.4928 -0.0541 -0.1964
  151SAPE  C21616673   4.805   3.318  -1.136 -0.0193 -0.0011  0.0169
  151SAPE  H16R16674   4.731   3.239  -1.163  1.2256 -0.5985 -1.8694
  151SAPE  H16S16675   4.902   3.265  -1.124 -0.2043 -0.2534  0.4100
  151SAPE  C21716676   4.821   3.426  -1.244 -0.2017 -0.2033 -0.4362
  151SAPE  H17R16677   4.923   3.411  -1.287  0.0694 -1.9793  0.7377
  151SAPE  H17S16678   4.822   3.532  -1.209  0.0395  0.4717 -2.3337
  151SAPE  C21816679   4.732   3.416  -1.363 -0.1933  0.2291 -0.1993
  151SAPE  H18R16680   4.640   3.463  -1.324  0.5557  1.0228  0.6337
  151SAPE  H18S16681   4.702   3.314  -1.396 -1.3958 -0.1585  1.9529
  151SAPE  C21916682   4.789   3.485  -1.489 -0.4120 -0.5291 -0.1049
  151SAPE  H19R16683   4.882   3.442  -1.532 -1.3770 -2.2126 -0.6395
  151SAPE  H19S16684   4.799   3.591  -1.459 -0.0553 -0.8968  1.1228
  151SAPE  C22016685   4.679   3.482  -1.594  0.5179 -0.0792 -0.2187
  151SAPE  H20R16686   4.620   3.388  -1.595  1.1630 -0.4861 -0.7163
  151SAPE  H20S16687   4.712   3.485  -1.700  0.2244 -0.7765 -0.3376
  151SAPE  H20T16688   4.600   3.557  -1.572  0.9035 -0.0562  1.1421
  151SAPE   C3316689   5.201   3.801  -0.133  0.5875 -0.5276  0.5727
  151SAPE   H3X16690   5.242   3.709  -0.181 -0.3470 -0.3256 -0.6675
  151SAPE   H3Y16691   5.276   3.852  -0.068  0.4427  1.4507 -0.7293
  151SAPE   C3416692   5.178   3.901  -0.247 -0.6354  0.1948 -0.1271
  151SAPE   H4X16693   5.235   3.994  -0.222  0.0154 -0.8832  2.8490
  151SAPE   H4Y16694   5.073   3.937  -0.247 -0.3707  0.9890 -0.3162
  151SAPE   C3516695   5.232   3.859  -0.385  0.2082  0.2738  1.4934
  151SAPE   H5X16696   5.179   3.768  -0.422  2.4055 -0.5269  0.0774
  151SAPE   H5Y16697   5.341   3.842  -0.377  0.5383  0.4121 -1.4483
  151SAPE   C3616698   5.208   3.953  -0.505 -0.0897 -0.1471  0.0896
  151SAPE   H6X16699   5.261   4.050  -0.494  2.4105 -1.5159  0.9016
  151SAPE   H6Y16700   5.100   3.978  -0.503 -0.0578  0.4843 -2.4575
  151SAPE   C3716701   5.245   3.904  -0.643 -0.1374  0.5847 -0.3510
  151SAPE   H7X16702   5.204   3.972  -0.720 -0.5691 -1.4213 -1.9812
  151SAPE   H7Y16703   5.199   3.804  -0.655  0.7606  0.2212 -0.7824
  151SAPE   C3816704   5.400   3.894  -0.672  1.0716 -0.4422  0.4226
  151SAPE   H8X16705   5.434   3.794  -0.636  3.7460  0.4904  0.7527
  151SAPE   H8Y16706   5.450   3.966  -0.604  0.7684 -0.3706  0.5685
  151SAPE   C3916707   5.426   3.908  -0.820 -0.2926 -0.0351 -0.6634
  151SAPE   H9X16708   5.367   3.831  -0.875 -0.1365 -2.0959  1.8346
  151SAPE   H9Y16709   5.533   3.879  -0.828 -0.0076 -0.3843  2.8481
  151SAPE  C31016710   5.412   4.048  -0.879  0.0725  0.1207  1.2704
  151SAPE  H10X16711   5.475   4.120  -0.822  3.7968 -1.4050 -0.5383
  151SAPE  H10Y16712   5.308   4.085  -0.888  0.2822  0.1646 -2.6451
  151SAPE  C31116713   5.456   4.045  -1.027  0.1151  0.1246  0.8132
  151SAPE  H11X16714   5.375   3.985  -1.075 -0.3380  2.3981 -1.5211
  151SAPE  H11Y16715   5.559   4.006  -1.032 -0.7479 -2.1367 -2.4118
  151SAPE  C31216716   5.455   4.186  -1.096  0.1047  0.1365 -0.1402
  151SAPE  H12X16717   5.512   4.259  -1.036  0.7650 -0.9754  0.6278
  151SAPE  H12Y16718   5.352   4.227  -1.108 -0.2283 -0.0828  1.7192
  151SAPE  C31316719   5.536   4.172  -1.228  0.2053  0.5517  0.8384
  151SAPE  H13X16720   5.484   4.098  -1.292  0.5134  0.5766  0.5536
  151SAPE  H13Y16721   5.637   4.128  -1.210  0.2831  0.5123  0.2957
  151SAPE  C31416722   5.551   4.305  -1.292 -1.3127  0.4108 -0.4975
  151SAPE  H14X16723   5.624   4.366  -1.234  0.4928 -0.3039 -1.9198
  151SAPE  H14Y16724   5.454   4.359  -1.290 -1.1649  0.7719  2.9287
  151SAPE  C31516725   5.599   4.297  -1.440  0.6786  0.3815  0.2350
  151SAPE  H15X16726   5.512   4.253  -1.492 -1.1446  0.6959  2.7890
  151SAPE  H15Y16727   5.690   4.235  -1.424  0.9920  1.0984  1.3445
  151SAPE  C31616728   5.636   4.441  -1.493  0.3847 -0.1224  0.0501
  151SAPE  H16X16729   5.714   4.491  -1.432  1.3396 -1.7896  0.2684
  151SAPE  H16Y16730   5.547   4.506  -1.481  0.3259 -0.1283 -0.3375
  151SAPE  C31716731   5.648   4.460  -1.649  0.2106  0.6739 -0.4680
  151SAPE  H17X16732   5.692   4.560  -1.667 -0.3254  1.4195  2.0059
  151SAPE  H17Y16733   5.540   4.466  -1.678 -0.0261 -0.9839 -0.0416
  151SAPE  C31816734   5.717   4.353  -1.730 -0.2135 -0.0426 -0.4670
  151SAPE  H18X16735   5.816   4.330  -1.685 -0.3821 -1.5927 -0.8703
  151SAPE  H18Y16736   5.745   4.390  -1.830 -1.0760  0.2110 -0.6274
  151SAPE  H18Z16737   5.654   4.263  -1.743  1.5870 -1.8241  2.1964
  152SAPE     N16738   1.802   4.801   0.582  0.0055  0.0838  0.3505
  152SAPE   HN116739   1.761   4.871   0.647 -3.1685 -0.2179 -1.1653
  152SAPE   HN216740   1.809   4.707   0.626  0.4062  0.3213  0.8090
  152SAPE   HN316741   1.899   4.827   0.553 -0.1132 -0.5006 -0.6067
  152SAPE   C1216742   1.716   4.807   0.463  0.2486 -0.4359  0.7185
  152SAPE  H12A16743   1.612   4.771   0.472 -0.5262  1.8303  1.4291
  152SAPE  H12B16744   1.766   4.746   0.384 -1.6039 -0.4183 -0.5219
  152SAPE   C1116745   1.717   4.954   0.403 -0.3106 -0.3597 -0.4702
  152SAPE  H11A16746   1.668   5.022   0.476  2.4124 -1.7271  2.9050
  152SAPE  H11B16747   1.652   4.953   0.313 -1.3148  0.7771  0.2045
  152SAPE     P16748   1.871   5.147   0.323  0.0214  0.0067  0.1146
  152SAPE   O1316749   1.778   5.241   0.373  0.5776 -0.0448  0.4406
  152SAPE   O1416750   2.015   5.174   0.339  0.8622 -0.1749 -0.2170
  152SAPE   O1216751   1.849   5.002   0.391 -0.1622  0.0349 -0.2692
  152SAPE   O1116752   1.849   5.120   0.162  0.2126 -0.2765 -0.1347
  152SAPE    C116753   1.905   5.005   0.099  0.1347 -0.3521 -0.4715
  152SAPE    HA16754   2.015   5.001   0.090  0.1821  1.0480 -0.6866
  152SAPE    HB16755   1.887   4.908   0.151  0.5593 -1.4152 -2.2169
  152SAPE    C216756   1.840   4.988  -0.038 -0.3898 -0.1934 -0.1735
  152SAPE    HS16757   1.832   4.879  -0.057  2.0343 -0.8139  1.8752
  152SAPE   O2116758   1.903   5.067  -0.139 -0.5861 -0.3814 -0.3813
  152SAPE   C2116759   1.993   4.999  -0.203  0.1881 -0.1444  0.5971
  152SAPE   O2216760   2.028   4.884  -0.173 -0.2928  0.2112 -0.4240
  152SAPE   C2216761   2.053   5.095  -0.305 -0.2670  0.0419  0.8189
  152SAPE   H2R16762   1.975   5.162  -0.348 -0.9759 -1.6064 -0.5688
  152SAPE   H2S16763   2.138   5.154  -0.266  0.9053 -0.2724 -1.1289
  152SAPE    C316764   1.695   5.048  -0.042  0.3763 -0.2370  0.0390
  152SAPE    HX16765   1.714   5.155  -0.020  1.2541 -0.7404  1.8605
  152SAPE    HY16766   1.635   5.009   0.043 -0.6759  3.6440  1.2636
  152SAPE   O3116767   1.623   5.031  -0.166 -0.6362  0.0078  0.0301
  152SAPE   C3116768   1.567   4.914  -0.179  0.2813 -0.3173 -0.2220
  152SAPE   O3216769   1.593   4.813  -0.113  0.1753  0.1678 -0.1726
  152SAPE   C3216770   1.464   4.917  -0.291  0.1856  0.1522 -0.8413
  152SAPE   H2X16771   1.410   5.013  -0.283  1.3394  1.0636 -2.9976
  152SAPE   H2Y16772   1.394   4.837  -0.261 -0.7911  1.7058  1.2229
  152SAPE   C2316773   2.108   5.030  -0.432 -0.3116  0.6195 -0.1870
  152SAPE   H3R16774   2.207   4.989  -0.404 -0.4681  0.8247  0.7041
  152SAPE   H3S16775   2.129   5.105  -0.511 -1.7720 -0.0813 -1.2889
  152SAPE   C2416776   2.007   4.935  -0.504 -0.0829 -0.1655  0.2584
  152SAPE   H4R16777   2.002   4.839  -0.448 -0.4801  0.2932  1.0272
  152SAPE   H4S16778   2.061   4.891  -0.590 -1.3445 -1.6683  0.1949
  152SAPE   C2516779   1.866   4.969  -0.550  0.0314 -0.2651  0.8710
  152SAPE   H5R16780   1.804   4.879  -0.535  0.1126 -0.4240  0.2474
  152SAPE   C2616781   1.820   5.080  -0.607  0.1518 -0.4855 -0.0342
  152SAPE   H6R16782   1.714   5.082  -0.636  0.0843 -1.5112  0.1027
  152SAPE   C2716783   1.896   5.208  -0.639  0.3876  0.5614 -0.5199
  152SAPE   H7R16784   2.006   5.192  -0.638  0.5243  1.3325 -1.6525
  152SAPE   H7S16785   1.867   5.283  -0.563 -0.2606 -1.3291  1.1792
  152SAPE   C2816786   1.854   5.267  -0.775  0.3022 -0.4936 -0.2391
  152SAPE   H8R16787   1.769   5.336  -0.761  1.3358  0.8453 -0.4265
  152SAPE   C2916788   1.903   5.256  -0.895 -0.1683 -0.0973  0.4487
  152SAPE   H9R16789   1.860   5.314  -0.978  0.4511  1.6489  1.2861
  152SAPE  C21016790   2.018   5.160  -0.919  0.6830  0.2239 -0.2168
  152SAPE  H10R16791   2.026   5.086  -0.837  0.2936  0.2907 -0.1167
  152SAPE  H10S16792   2.111   5.221  -0.919  0.6091  0.4197  2.1281
  152SAPE  C21116793   2.001   5.086  -1.053 -0.0615  0.7118 -0.1131
  152SAPE  H11R16794   1.902   5.040  -1.062  0.4644 -0.5728  0.3053
  152SAPE  C21216795   2.095   5.064  -1.144  0.4385  0.1823 -0.1831
  152SAPE  H12R16796   2.069   5.014  -1.239 -1.2175  1.3082 -0.3740
  152SAPE  C21316797   2.240   5.103  -1.137  1.0156  0.6027  0.2949
  152SAPE  H13R16798   2.298   5.009  -1.125 -1.2010 -1.2341 -2.0285
  152SAPE  H13S16799   2.271   5.172  -1.056  2.3082 -0.5454  0.8219
  152SAPE  C21416800   2.288   5.178  -1.262 -0.3387 -0.3506  0.0681
  152SAPE  H14R16801   2.282   5.288  -1.251  0.3727 -0.4362  1.5448
  152SAPE  C21516802   2.287   5.129  -1.387  1.0182  0.1771  0.7437
  152SAPE  H15R16803   2.290   5.203  -1.469  0.2730 -1.6229 -0.9761
  152SAPE  C21616804   2.282   4.987  -1.432 -0.1618  0.1303 -0.6022
  152SAPE  H16R16805   2.300   4.926  -1.341  1.8814  1.1899 -0.2634
  152SAPE  H16S16806   2.368   4.971  -1.500  0.6728  1.3075  0.1476
  152SAPE  C21716807   2.154   4.940  -1.502  0.1806 -0.3202 -0.0286
  152SAPE  H17R16808   2.067   4.937  -1.433 -1.0532 -0.7023 -1.5233
  152SAPE  H17S16809   2.152   4.832  -1.529 -4.5516 -1.1976  2.6956
  152SAPE  C21816810   2.112   5.018  -1.627  0.0716  0.0367  0.2090
  152SAPE  H18R16811   2.184   4.996  -1.708  2.3846 -1.0406  2.4204
  152SAPE  H18S16812   2.121   5.126  -1.602 -0.2343  0.0563  0.2363
  152SAPE  C21916813   1.964   4.992  -1.671  0.6882 -0.2153 -0.2310
  152SAPE  H19R16814   1.938   5.095  -1.702 -0.6285 -0.1550  0.9420
  152SAPE  H19S16815   1.899   4.973  -1.582  0.7319  2.1964  0.3697
  152SAPE  C22016816   1.935   4.891  -1.787  0.1779 -0.5349  0.8954
  152SAPE  H20R16817   1.826   4.880  -1.803 -0.0871  2.7303 -0.3561
  152SAPE  H20S16818   1.988   4.798  -1.759  0.2632 -0.5421  0.7147
  152SAPE  H20T16819   1.998   4.926  -1.872  0.4992 -0.8130  1.0208
  152SAPE   C3316820   1.512   4.901  -0.436  0.7791 -0.0821  0.4165
  152SAPE   H3X16821   1.592   4.825  -0.447 -0.0855 -0.7127 -2.1305
  152SAPE   H3Y16822   1.550   5.000  -0.470  0.1523 -0.4614 -1.4893
  152SAPE   C3416823   1.402   4.868  -0.546 -0.1492 -0.3787  0.4758
  152SAPE   H4X16824   1.329   4.952  -0.543  0.2385  0.0964 -1.9092
  152SAPE   H4Y16825   1.353   4.772  -0.520 -1.6953  0.3512  0.3287
  152SAPE   C3516826   1.462   4.849  -0.693  0.0571 -0.5712 -0.3904
  152SAPE   H5X16827   1.562   4.800  -0.685  0.0626 -0.4859  0.0359
  152SAPE   H5Y16828   1.491   4.950  -0.729 -0.8657  0.3641  1.3874
  152SAPE   C3616829   1.365   4.781  -0.787 -0.2765  0.8584 -0.1504
  152SAPE   H6X16830   1.275   4.844  -0.804 -0.6793  1.2533  2.8844
  152SAPE   H6Y16831   1.348   4.687  -0.731 -0.6309  0.1932 -1.3478
  152SAPE   C3716832   1.423   4.750  -0.927  0.7698 -0.0872  0.2706
  152SAPE   H7X16833   1.516   4.691  -0.911  0.4766 -0.6208  0.0332
  152SAPE   H7Y16834   1.451   4.838  -0.989 -0.4703 -2.0436 -3.2984
  152SAPE   C3816835   1.326   4.660  -1.006  0.0015  0.1340  0.0588
  152SAPE   H8X16836   1.232   4.719  -1.016 -0.0360 -0.2468 -2.5003
  152SAPE   H8Y16837   1.302   4.573  -0.941 -0.0010  0.0741 -0.0221
  152SAPE   C3916838   1.368   4.606  -1.142 -0.5338  0.0550 -0.7165
  152SAPE   H9X16839   1.431   4.517  -1.123 -1.8906 -0.7851 -0.0401
  152SAPE   H9Y16840   1.434   4.673  -1.202 -0.8360  1.7097  0.7055
  152SAPE  C31016841   1.243   4.579  -1.215 -0.2264 -0.1059  0.1897
  152SAPE  H10X16842   1.193   4.666  -1.262 -4.3685 -1.7703  1.0779
  152SAPE  H10Y16843   1.161   4.536  -1.153 -1.0947 -1.7323 -1.9639
  152SAPE  C31116844   1.267   4.465  -1.312  0.3128  0.7392 -0.3478
  152SAPE  H11X16845   1.176   4.432  -1.367  1.5561 -0.3672 -1.8246
  152SAPE  H11Y16846   1.309   4.373  -1.265  1.3564  0.7414 -1.2566
  152SAPE  C31216847   1.367   4.503  -1.416 -0.5852  0.1282 -0.6213
  152SAPE  H12X16848   1.469   4.526  -1.377 -0.9096  0.0293  0.3100
  152SAPE  H12Y16849   1.336   4.597  -1.466 -0.7617  0.2024 -0.3712
  152SAPE  C31316850   1.395   4.399  -1.539 -0.1221 -0.5248 -0.1537
  152SAPE  H13X16851   1.299   4.388  -1.593 -0.3527  1.4350 -0.2144
  152SAPE  H13Y16852   1.427   4.303  -1.492  0.2616  0.3129  1.3886
  152SAPE  C31416853   1.510   4.447  -1.625 -0.3333  0.4464 -0.8024
  152SAPE  H14X16854   1.604   4.463  -1.567  0.4626 -1.5947 -1.4401
  152SAPE  H14Y16855   1.483   4.552  -1.647  1.3688  1.5539  1.7946
  152SAPE  C31516856   1.541   4.355  -1.747 -0.9089 -0.0172  0.1523
  152SAPE  H15X16857   1.446   4.355  -1.806 -1.3262  0.6415  0.8192
  152SAPE  H15Y16858   1.568   4.250  -1.724  1.0467  0.7288  1.4511
  152SAPE  C31616859   1.652   4.415  -1.837  0.0145  0.4142  0.6614
  152SAPE  H16X16860   1.740   4.411  -1.770  1.1239 -1.1366 -0.8159
  152SAPE  H16Y16861   1.632   4.524  -1.850  0.6047  1.2586  5.2351
  152SAPE  C31716862   1.672   4.339  -1.973  0.2125  0.2083 -0.7586
  152SAPE  H17X16863   1.692   4.231  -1.957 -1.1081  0.0826  0.3348
  152SAPE  H17Y16864   1.763   4.369  -2.028 -0.9347  2.3956 -1.5593
  152SAPE  C31816865   1.547   4.350  -2.065  0.2193  0.2581 -0.1065
  152SAPE  H18X16866   1.513   4.455  -2.073 -0.8555 -0.0964 -0.3342
  152SAPE  H18Y16867   1.462   4.309  -2.006 -1.0725  4.1215  0.9993
  152SAPE  H18Z16868   1.545   4.301  -2.165  0.6589  1.5355 -0.7679
  153SAPE     N16869   1.207   5.519   0.413  0.7806 -0.0638 -0.2621
  153SAPE   HN116870   1.303   5.545   0.444  1.4359  0.2276 -2.3790
  153SAPE   HN216871   1.197   5.418   0.433 -1.1603  0.8676  4.9466
  153SAPE   HN316872   1.191   5.549   0.314 -0.5550  0.5236  0.1113
  153SAPE   C1216873   1.097   5.579   0.498 -0.2139  0.1398  0.5946
  153SAPE  H12A16874   1.093   5.684   0.461  1.2582  1.2996  3.3390
  153SAPE  H12B16875   1.132   5.585   0.604  0.4203  0.7437  0.3625
  153SAPE   C1116876   0.964   5.508   0.476 -0.2190 -0.2183 -0.2227
  153SAPE  H11A16877   0.931   5.512   0.370 -0.1838 -3.0284 -0.4057
  153SAPE  H11B16878   0.895   5.582   0.521  1.8114  2.4032 -1.1269
  153SAPE     P16879   0.847   5.269   0.515  0.2271 -0.0398  0.1426
  153SAPE   O1316880   0.885   5.142   0.577  0.3255 -0.0811 -0.9184
  153SAPE   O1416881   0.725   5.329   0.569  0.4746 -0.0959 -0.2739
  153SAPE   O1216882   0.966   5.377   0.533  0.0711  0.6431  0.1837
  153SAPE   O1116883   0.817   5.246   0.359  0.0888 -0.5661  0.0189
  153SAPE    C116884   0.926   5.194   0.284  0.3671 -0.0044 -0.5598
  153SAPE    HA16885   1.011   5.265   0.296  1.4564 -1.4805  0.9928
  153SAPE    HB16886   0.961   5.095   0.321 -0.9974  0.1315  1.2064
  153SAPE    C216887   0.888   5.188   0.138 -0.3437 -1.1793 -0.0779
  153SAPE    HS16888   0.800   5.121   0.137 -0.6285 -0.9390  2.1465
  153SAPE   O2116889   1.006   5.143   0.065 -0.2917 -0.0267 -0.5684
  153SAPE   C2116890   0.995   5.032  -0.002  0.0399  0.4649  0.4475
  153SAPE   O2216891   0.907   4.953   0.016 -0.1836 -0.3242  0.1341
  153SAPE   C2216892   1.119   5.010  -0.089 -0.5216  0.0905  0.0213
  153SAPE   H2R16893   1.201   5.078  -0.060  0.3715 -0.5582 -0.9396
  153SAPE   H2S16894   1.155   4.905  -0.077  0.1249  0.4669  1.6229
  153SAPE    C316895   0.855   5.338   0.088  0.2172 -0.8171  0.2878
  153SAPE    HX16896   0.950   5.392   0.106  1.0368 -1.7524 -1.0398
  153SAPE    HY16897   0.774   5.366   0.159  0.1056 -1.5842  0.4705
  153SAPE   O3116898   0.802   5.341  -0.050  0.6796  0.1700 -0.2397
  153SAPE   C3116899   0.893   5.365  -0.151  0.4798 -0.7523  0.8350
  153SAPE   O3216900   1.011   5.366  -0.132  0.3260 -0.1868 -0.3051
  153SAPE   C3216901   0.813   5.398  -0.275  0.1648 -0.2280 -0.3217
  153SAPE   H2X16902   0.777   5.502  -0.259 -0.4765 -0.2877 -1.2678
  153SAPE   H2Y16903   0.730   5.326  -0.287  1.0505 -0.9279 -3.2434
  153SAPE   C2316904   1.094   5.041  -0.237 -0.3087 -0.2245 -0.2777
  153SAPE   H3R16905   1.184   5.063  -0.298 -2.5885  0.2002 -3.7367
  153SAPE   H3S16906   1.042   5.139  -0.243 -0.5191 -0.3787 -1.0623
  153SAPE   C2416907   1.020   4.928  -0.320  0.4539 -0.6033 -1.8251
  153SAPE   H4R16908   0.979   4.971  -0.414 -2.1871  0.4574 -0.2968
  153SAPE   H4S16909   0.934   4.895  -0.258  0.2039  2.2562 -0.4923
  153SAPE   C2516910   1.102   4.798  -0.332 -0.9401  0.7662  0.0679
  153SAPE   H5R16911   1.180   4.780  -0.256 -0.8248  0.2816 -0.1600
  153SAPE   C2616912   1.084   4.702  -0.429  0.4480  0.9173 -0.0930
  153SAPE   H6R16913   1.133   4.604  -0.427 -2.9198 -0.8921  0.6725
  153SAPE   C2716914   0.972   4.691  -0.535  0.5054 -0.2418  0.3063
  153SAPE   H7R16915   0.932   4.791  -0.561 -1.3768 -0.3694  2.4141
  153SAPE   H7S16916   0.884   4.634  -0.498  0.3247  0.3742  0.8450
  153SAPE   C2816917   1.022   4.636  -0.666 -0.1860 -0.0990  0.3278
  153SAPE   H8R16918   1.089   4.550  -0.652  0.4126 -0.1002 -2.1154
  153SAPE   C2916919   0.986   4.673  -0.793  0.6081 -0.0058 -0.5448
  153SAPE   H9R16920   1.040   4.632  -0.880  0.8444 -0.2913 -0.2626
  153SAPE  C21016921   0.902   4.793  -0.819  0.1754  0.4026  0.5871
  153SAPE  H10R16922   0.827   4.810  -0.738  0.8101 -0.6551  1.4294
  153SAPE  H10S16923   0.842   4.777  -0.911  1.1418  1.5594 -0.2736
  153SAPE  C21116924   0.975   4.922  -0.805 -0.0349  0.0926  0.0054
  153SAPE  H11R16925   1.010   4.953  -0.706  0.6140 -1.3039  0.2271
  153SAPE  C21216926   1.004   5.005  -0.907  0.3909 -0.1356  0.1226
  153SAPE  H12R16927   1.051   5.102  -0.884 -1.0833  0.8254 -0.7408
  153SAPE  C21316928   0.969   5.008  -1.053  0.3519 -0.0061  0.2453
  153SAPE  H13R16929   0.927   5.109  -1.072 -0.2430 -0.0656  1.1355
  153SAPE  H13S16930   0.881   4.942  -1.065  0.8127 -0.3437 -1.5830
  153SAPE  C21416931   1.091   4.961  -1.131 -0.3599  0.0839 -0.1497
  153SAPE  H14R16932   1.156   4.901  -1.066 -0.7528  1.3712  1.4980
  153SAPE  C21516933   1.113   4.957  -1.259 -0.3816  0.3080 -0.0819
  153SAPE  H15R16934   1.212   4.935  -1.301 -0.2153  0.9290 -0.0226
  153SAPE  C21616935   1.020   5.023  -1.357  0.2795 -0.3798 -0.0610
  153SAPE  H16R16936   0.922   5.025  -1.304  1.3132 -0.6480  1.9768
  153SAPE  H16S16937   1.009   4.968  -1.453 -1.9977  0.6297 -0.4525
  153SAPE  C21716938   1.063   5.167  -1.385  0.1789 -0.2814  0.8036
  153SAPE  H17R16939   1.049   5.229  -1.294 -1.2087  0.3482  0.1827
  153SAPE  H17S16940   0.983   5.207  -1.451  2.7409  1.9708 -1.1896
  153SAPE  C21816941   1.199   5.180  -1.454 -0.8531  0.3537  0.4062
  153SAPE  H18R16942   1.200   5.109  -1.540 -2.7059 -1.5932  1.8617
  153SAPE  H18S16943   1.284   5.138  -1.397 -1.5443 -1.9689 -0.1689
  153SAPE  C21916944   1.232   5.316  -1.509  0.3878 -0.2253 -0.1143
  153SAPE  H19R16945   1.269   5.371  -1.420  0.3767 -0.2435 -0.0985
  153SAPE  H19S16946   1.138   5.369  -1.532  0.5503  0.1633  0.0998
  153SAPE  C22016947   1.330   5.328  -1.628  0.0738  0.0801 -0.5280
  153SAPE  H20R16948   1.284   5.291  -1.723  0.5322 -1.3964 -0.1999
  153SAPE  H20S16949   1.422   5.275  -1.595  0.1946 -1.3134 -2.8216
  153SAPE  H20T16950   1.362   5.431  -1.654  0.4018  0.4763  1.3604
  153SAPE   C3316951   0.902   5.383  -0.396  0.2316 -0.6630 -0.0158
  153SAPE   H3X16952   0.926   5.277  -0.421  0.9900 -1.0383  2.0715
  153SAPE   H3Y16953   0.994   5.444  -0.396  0.8943 -1.5956 -1.9738
  153SAPE   C3416954   0.822   5.442  -0.512 -0.7489  0.3509 -0.3693
  153SAPE   H4X16955   0.818   5.553  -0.501  0.2035  0.3731 -0.2145
  153SAPE   H4Y16956   0.719   5.399  -0.514 -0.6633  0.1579 -0.8311
  153SAPE   C3516957   0.878   5.399  -0.644 -0.8309  0.1072  0.3004
  153SAPE   H5X16958   0.827   5.302  -0.664 -1.2629  0.3673  0.1207
  153SAPE   H5Y16959   0.987   5.378  -0.647 -0.7100  0.8712 -1.1910
  153SAPE   C3616960   0.837   5.493  -0.764 -0.6825  0.5411  0.1143
  153SAPE   H6X16961   0.857   5.601  -0.745 -2.5447  0.8595  0.4195
  153SAPE   H6Y16962   0.727   5.486  -0.766 -0.6131 -0.5992 -0.3344
  153SAPE   C3716963   0.886   5.433  -0.901 -0.1257 -0.5258 -1.0836
  153SAPE   H7X16964   0.881   5.322  -0.903 -0.9646 -0.4885 -2.6586
  153SAPE   H7Y16965   0.992   5.465  -0.910 -0.4455  0.4561 -1.5020
  153SAPE   C3816966   0.821   5.505  -1.023 -0.2699  0.5495  0.7277
  153SAPE   H8X16967   0.825   5.614  -1.002  0.2424  0.2658  2.1616
  153SAPE   H8Y16968   0.710   5.492  -1.029 -0.3862  1.5131  0.4978
  153SAPE   C3916969   0.889   5.462  -1.157  0.2864 -0.2412  0.2134
  153SAPE   H9X16970   0.889   5.352  -1.176 -0.5779 -0.4287  1.1849
  153SAPE   H9Y16971   0.997   5.486  -1.144  0.7245 -0.7871 -2.1072
  153SAPE  C31016972   0.838   5.548  -1.271 -0.3889 -0.2399  0.3418
  153SAPE  H10X16973   0.870   5.654  -1.262  0.6613 -0.3734 -1.3761
  153SAPE  H10Y16974   0.727   5.546  -1.268 -0.3814  0.0314  0.8546
  153SAPE  C31116975   0.879   5.490  -1.408 -0.9470  0.2868  0.2315
  153SAPE  H11X16976   0.870   5.379  -1.413  0.8176  0.0546  1.2556
  153SAPE  H11Y16977   0.985   5.510  -1.437 -0.7344 -1.6920 -0.5360
  153SAPE  C31216978   0.778   5.524  -1.523  0.2024  0.2577  0.5637
  153SAPE  H12X16979   0.799   5.626  -1.561  0.1777  0.2743  0.5935
  153SAPE  H12Y16980   0.681   5.511  -1.470 -0.5786  0.8689 -0.6886
  153SAPE  C31316981   0.779   5.448  -1.656  0.3042 -0.3385 -0.5875
  153SAPE  H13X16982   0.694   5.484  -1.719  1.4511  2.4458 -0.6779
  153SAPE  H13Y16983   0.769   5.341  -1.628  1.7472 -0.0957  1.0156
  153SAPE  C31416984   0.914   5.478  -1.731 -0.2852 -0.0391 -0.3643
  153SAPE  H14X16985   0.970   5.383  -1.743  2.3217  1.3749 -0.3398
  153SAPE  H14Y16986   0.978   5.547  -1.671 -0.1883 -0.7131  0.3129
  153SAPE  C31516987   0.890   5.552  -1.867  0.5047 -0.1131  0.1721
  153SAPE  H15X16988   0.821   5.639  -1.856  1.7573  0.7771  1.4105
  153SAPE  H15Y16989   0.859   5.486  -1.950 -1.0150 -0.1031  0.6937
  153SAPE  C31616990   1.022   5.613  -1.908 -0.2991 -0.4266 -0.0585
  153SAPE  H16X16991   1.043   5.692  -1.834 -4.0445 -0.7885  1.6477
  153SAPE  H16Y16992   1.019   5.649  -2.013  0.5039 -0.5896 -0.1403
  153SAPE  C31716993   1.140   5.507  -1.924  0.0459 -0.2671 -0.3122
  153SAPE  H17X16994   1.104   5.439  -2.005 -0.9384  0.6520 -0.6767
  153SAPE  H17Y16995   1.150   5.451  -1.829 -0.2851 -0.3462 -0.3245
  153SAPE  C31816996   1.274   5.564  -1.959 -0.2692 -0.2368  0.8513
  153SAPE  H18X16997   1.348   5.481  -1.963  0.5230  0.4999 -0.2872
  153SAPE  H18Y16998   1.306   5.643  -1.887  0.0836 -0.2612  0.7213
  153SAPE  H18Z16999   1.270   5.610  -2.060  1.6269  0.9358  1.2428
  154SAPE     N17000   6.441   6.631   0.224  0.2585 -0.0655 -0.0072
  154SAPE   HN117001   6.526   6.595   0.177 -1.0527  0.1690 -2.7387
  154SAPE   HN217002   6.358   6.598   0.170 -0.1630 -0.0836  0.6298
  154SAPE   HN317003   6.447   6.733   0.206  2.0547 -0.0364  0.6219
  154SAPE   C1217004   6.437   6.606   0.371  0.2067  0.0009  0.7839
  154SAPE  H12A17005   6.363   6.678   0.412 -0.6762 -0.1820 -0.4421
  154SAPE  H12B17006   6.538   6.614   0.417 -0.6272 -2.8083  3.4789
  154SAPE   C1117007   6.407   6.460   0.390 -0.5886 -0.0645  0.0865
  154SAPE  H11A17008   6.405   6.419   0.493  1.7520 -1.7012 -0.4258
  154SAPE  H11B17009   6.493   6.400   0.353  0.4741  2.3863 -1.6637
  154SAPE     P17010   6.248   6.266   0.309  0.1865  0.4462  0.3442
  154SAPE   O1317011   6.369   6.185   0.350 -0.0023  0.2260  0.7633
  154SAPE   O1417012   6.115   6.243   0.375 -0.1632 -0.5278 -0.0568
  154SAPE   O1217013   6.292   6.416   0.318  0.3366 -0.1240 -1.0630
  154SAPE   O1117014   6.231   6.232   0.158  0.3834 -0.7773  0.1113
  154SAPE    C117015   6.332   6.260   0.061  0.7573  0.2242 -0.0335
  154SAPE    HA17016   6.402   6.338   0.098 -0.1291 -0.1003  2.5363
  154SAPE    HB17017   6.402   6.174   0.051  1.9182  0.9692  1.3051
  154SAPE    C217018   6.267   6.294  -0.075  0.6185  0.3910  0.6464
  154SAPE    HS17019   6.345   6.350  -0.131 -0.6910  0.9726 -0.6615
  154SAPE   O2117020   6.150   6.379  -0.059  0.5870 -0.1686 -0.3727
  154SAPE   C2117021   6.165   6.495   0.002 -0.1112 -0.1469 -1.3683
  154SAPE   O2217022   6.268   6.545   0.044 -0.3060 -0.2445 -0.7737
  154SAPE   C2217023   6.022   6.565   0.013 -0.1854 -0.1997  0.4161
  154SAPE   H2R17024   5.952   6.489  -0.028  0.6525 -0.3302 -0.8148
  154SAPE   H2S17025   5.997   6.593   0.118  0.7820  0.7614  0.4148
  154SAPE    C317026   6.222   6.166  -0.150  0.3395  0.0229 -0.2512
  154SAPE    HX17027   6.165   6.209  -0.235 -2.0818 -0.5916  0.9727
  154SAPE    HY17028   6.153   6.115  -0.079 -1.8658  3.2077  0.1109
  154SAPE   O3117029   6.336   6.089  -0.179 -0.7571 -0.0362 -0.2490
  154SAPE   C3117030   6.405   6.119  -0.288 -0.2827  0.6842  0.0980
  154SAPE   O3217031   6.376   6.205  -0.367 -0.6038  0.1218 -0.2566
  154SAPE   C3217032   6.521   6.016  -0.311 -0.3252 -0.3837 -0.2442
  154SAPE   H2X17033   6.547   5.971  -0.214 -0.7013 -1.2496 -0.5308
  154SAPE   H2Y17034   6.615   6.063  -0.348  2.1245 -4.0257  0.8515
  154SAPE   C2317035   6.028   6.691  -0.075  0.5244 -0.5544 -0.6498
  154SAPE   H3R17036   6.095   6.762  -0.022  1.5688 -1.9017 -0.0982
  154SAPE   H3S17037   5.932   6.747  -0.081  0.5239 -0.5162 -0.2748
  154SAPE   C2417038   6.051   6.674  -0.225  0.2587 -0.6454  0.7140
  154SAPE   H4R17039   5.982   6.603  -0.276  0.7458 -0.4189 -0.2691
  154SAPE   H4S17040   6.154   6.632  -0.220  0.5851  0.0631  0.0237
  154SAPE   C2517041   6.072   6.810  -0.300  0.0848  0.5433  0.2267
  154SAPE   H5R17042   6.141   6.876  -0.246  0.6464 -0.0189  0.2163
  154SAPE   C2617043   6.034   6.849  -0.425 -0.0072  0.4875  0.0893
  154SAPE   H6R17044   6.056   6.951  -0.458  0.7375  0.2337 -0.2268
  154SAPE   C2717045   5.953   6.773  -0.530 -0.6284  0.0589 -0.6876
  154SAPE   H7R17046   5.982   6.669  -0.508  0.1861  0.5745  0.7749
  154SAPE   H7S17047   5.978   6.797  -0.636 -4.0433  0.9076 -1.4292
  154SAPE   C2817048   5.801   6.771  -0.521 -0.5058  0.5508  0.0944
  154SAPE   H8R17049   5.755   6.762  -0.422  1.3529 -1.8995  0.8393
  154SAPE   C2917050   5.711   6.806  -0.615 -0.6932  0.5863  0.4588
  154SAPE   H9R17051   5.605   6.796  -0.587 -0.5961 -1.0098  0.3685
  154SAPE  C21017052   5.741   6.832  -0.761  0.1905  0.4329  0.0164
  154SAPE  H10R17053   5.810   6.757  -0.807  0.3997  1.1917 -0.9609
  154SAPE  H10S17054   5.788   6.932  -0.768  0.6237  0.1242 -3.0806
  154SAPE  C21117055   5.622   6.836  -0.860 -0.5361 -0.0030 -0.4004
  154SAPE  H11R17056   5.532   6.869  -0.806 -0.2689 -0.8419  0.5895
  154SAPE  C21217057   5.616   6.810  -0.992 -0.5290 -0.2449 -0.4156
  154SAPE  H12R17058   5.520   6.831  -1.041 -0.2394  0.3442 -0.7448
  154SAPE  C21317059   5.735   6.782  -1.080 -0.4369 -0.3994  0.2152
  154SAPE  H13R17060   5.691   6.720  -1.162  0.8101 -0.6422 -0.2938
  154SAPE  H13S17061   5.806   6.719  -1.023 -0.4367 -0.0496  0.6055
  154SAPE  C21417062   5.802   6.894  -1.149  0.2251 -0.3920  0.0509
  154SAPE  H14R17063   5.888   6.929  -1.090 -2.0129  1.5582  2.3664
  154SAPE  C21517064   5.756   6.961  -1.259 -0.6139  0.7749 -0.1721
  154SAPE  H15R17065   5.815   7.042  -1.307  0.7115 -1.1687 -2.0241
  154SAPE  C21617066   5.629   6.921  -1.336  0.0644 -0.2111 -0.0183
  154SAPE  H16R17067   5.560   7.008  -1.338 -1.3918 -1.3222 -0.1373
  154SAPE  H16S17068   5.572   6.838  -1.290 -1.7591  0.7813 -0.4010
  154SAPE  C21717069   5.666   6.884  -1.480 -0.1549  0.1644  0.8245
  154SAPE  H17R17070   5.572   6.872  -1.537 -1.5730  2.1776  2.5514
  154SAPE  H17S17071   5.703   6.780  -1.474 -1.3768 -0.4979 -1.8863
  154SAPE  C21817072   5.772   6.968  -1.545 -0.6370  0.4215  0.2042
  154SAPE  H18R17073   5.875   6.959  -1.503  0.5304  0.4823 -2.4617
  154SAPE  H18S17074   5.748   7.075  -1.560 -0.0296  0.7409  1.4021
  154SAPE  C21917075   5.772   6.917  -1.690  0.0053 -0.1395 -0.2504
  154SAPE  H19R17076   5.668   6.905  -1.725  0.4004 -0.8330 -1.2393
  154SAPE  H19S17077   5.808   6.813  -1.701 -2.0004 -0.8391 -0.4808
  154SAPE  C22017078   5.837   7.017  -1.783  0.2673  0.3040 -0.3877
  154SAPE  H20R17079   5.813   6.983  -1.886 -1.1454 -0.1356  0.0590
  154SAPE  H20S17080   5.946   7.035  -1.774  0.2161  0.9280 -0.9598
  154SAPE  H20T17081   5.780   7.111  -1.775 -0.6402 -0.3106  0.6106
  154SAPE   C3317082   6.498   5.907  -0.406 -0.1015  0.0373  0.3754
  154SAPE   H3X17083   6.401   5.856  -0.391  0.1151 -0.4050  0.3044
  154SAPE   H3Y17084   6.585   5.839  -0.395  1.5905  2.0681  0.2283
  154SAPE   C3417085   6.527   5.956  -0.545 -0.0361  0.2700  0.2005
  154SAPE   H4X17086   6.610   6.030  -0.541  2.2424 -2.0041 -1.6048
  154SAPE   H4Y17087   6.433   6.003  -0.579 -0.8178 -1.0467  0.4972
  154SAPE   C3517088   6.564   5.844  -0.647 -0.0538 -0.1038 -0.2059
  154SAPE   H5X17089   6.494   5.759  -0.628  0.1183 -0.1435  0.2721
  154SAPE   H5Y17090   6.669   5.814  -0.627 -0.8300 -2.0285  1.3614
  154SAPE   C3617091   6.544   5.887  -0.796 -0.4432  0.2857 -0.7628
  154SAPE   H6X17092   6.445   5.854  -0.833  0.3821 -0.2218 -2.6470
  154SAPE   H6Y17093   6.607   5.824  -0.862 -1.3585 -1.0330 -0.4180
  154SAPE   C3717094   6.557   6.035  -0.822  0.6979 -0.1823  0.5563
  154SAPE   H7X17095   6.635   6.084  -0.760  3.9702 -0.0142 -3.3042
  154SAPE   H7Y17096   6.464   6.088  -0.795  0.8915 -0.1984  1.2777
  154SAPE   C3817097   6.588   6.056  -0.972  0.3847  0.1655  0.1661
  154SAPE   H8X17098   6.687   6.010  -0.990 -0.1876 -0.3880 -1.8391
  154SAPE   H8Y17099   6.580   6.165  -0.992  0.2904  0.3884  1.3493
  154SAPE   C3917100   6.471   5.997  -1.057 -0.2676 -0.5016  0.1360
  154SAPE   H9X17101   6.368   6.019  -1.021  0.3518 -0.8331  2.2980
  154SAPE   H9Y17102   6.483   5.887  -1.048 -0.1283 -0.7379 -2.4279
  154SAPE  C31017103   6.489   6.023  -1.214 -0.0652 -0.3851 -0.7037
  154SAPE  H10X17104   6.588   5.979  -1.240  0.2886 -1.4290  2.0826
  154SAPE  H10Y17105   6.494   6.132  -1.234 -0.2912 -0.2285  0.0681
  154SAPE  C31117106   6.389   5.946  -1.297 -0.2179 -0.5449  0.5208
  154SAPE  H11X17107   6.288   5.962  -1.254 -0.8589 -2.0268 -0.3860
  154SAPE  H11Y17108   6.411   5.838  -1.285  0.7456 -0.2452  1.6902
  154SAPE  C31217109   6.399   5.975  -1.447 -0.3251 -0.4521  0.8506
  154SAPE  H12X17110   6.503   5.974  -1.485 -0.9504 -0.9785 -0.9574
  154SAPE  H12Y17111   6.367   6.081  -1.451 -1.9396 -0.9059  0.7224
  154SAPE  C31317112   6.324   5.870  -1.531  0.7494  0.3317 -0.3223
  154SAPE  H13X17113   6.217   5.879  -1.503  0.6411 -1.4442 -0.0150
  154SAPE  H13Y17114   6.361   5.775  -1.487  0.5528 -0.1868 -1.2371
  154SAPE  C31417115   6.361   5.888  -1.679  0.3470  0.7007 -0.3793
  154SAPE  H14X17116   6.471   5.891  -1.693  0.2661  1.3519 -0.8869
  154SAPE  H14Y17117   6.321   5.987  -1.709  0.1797  0.3650 -1.3012
  154SAPE  C31517118   6.302   5.774  -1.765  0.4128 -0.0713  0.3253
  154SAPE  H15X17119   6.194   5.760  -1.743  0.9051 -0.1400  2.9551
  154SAPE  H15Y17120   6.355   5.684  -1.726  1.1236  0.4737  0.6281
  154SAPE  C31617121   6.319   5.798  -1.919  0.4546  0.5105 -0.3919
  154SAPE  H16X17122   6.427   5.786  -1.946  0.7619 -1.4623  1.4482
  154SAPE  H16Y17123   6.298   5.904  -1.944  2.5770  1.5818  1.9097
  154SAPE  C31717124   6.252   5.689  -2.003 -0.0361  0.2952 -0.2567
  154SAPE  H17X17125   6.142   5.690  -1.986 -0.1431 -0.6540 -0.8231
  154SAPE  H17Y17126   6.298   5.590  -1.982  0.0611  0.3880 -0.0187
  154SAPE  C31817127   6.266   5.722  -2.150  0.4334 -1.2346  0.3322
  154SAPE  H18X17128   6.251   5.832  -2.155 -1.6772 -1.5351 -1.0864
  154SAPE  H18Y17129   6.191   5.664  -2.208 -0.2968 -1.3719  1.3823
  154SAPE  H18Z17130   6.368   5.692  -2.181  0.0626 -0.2544 -1.9874
  155SAPE     N17131   3.536   3.640   0.461  0.0940  0.8792  0.0784
  155SAPE   HN117132   3.617   3.668   0.403  0.9127  0.9901  1.2281
  155SAPE   HN217133   3.545   3.690   0.552  0.3264 -1.2259  1.2906
  155SAPE   HN317134   3.552   3.542   0.493  0.8503  1.1668  0.6297
  155SAPE   C1217135   3.405   3.671   0.402 -0.2801 -0.4861  0.6401
  155SAPE  H12A17136   3.349   3.746   0.461 -0.1267 -0.0314  0.2160
  155SAPE  H12B17137   3.340   3.581   0.396 -0.2427 -0.4674 -0.2934
  155SAPE   C1117138   3.420   3.747   0.264 -0.2239 -0.1883 -0.3151
  155SAPE  H11A17139   3.316   3.774   0.237 -0.9584 -1.9665  0.6119
  155SAPE  H11B17140   3.454   3.683   0.180  0.3401  0.7044 -0.7850
  155SAPE     P17141   3.487   3.979   0.159  0.0384  0.3392 -0.3720
  155SAPE   O1317142   3.342   4.002   0.127 -0.1223  0.0590 -0.2466
  155SAPE   O1417143   3.558   4.094   0.213 -0.7641 -0.0329  0.1191
  155SAPE   O1217144   3.507   3.864   0.272  0.7875  0.3321 -0.3733
  155SAPE   O1117145   3.559   3.916   0.035  0.0688 -0.3164  0.6866
  155SAPE    C117146   3.670   3.823   0.058  0.4549 -0.0825 -0.0751
  155SAPE    HA17147   3.642   3.740   0.126 -0.2411  0.1122 -0.1139
  155SAPE    HB17148   3.693   3.771  -0.038 -1.2136  0.6033 -0.8894
  155SAPE    C217149   3.794   3.894   0.108 -0.4214 -0.1968  0.4066
  155SAPE    HS17150   3.783   3.935   0.211  1.7918 -0.9486  1.0031
  155SAPE   O2117151   3.835   3.991   0.006 -0.3080 -0.3782  0.9501
  155SAPE   C2117152   3.909   4.091   0.055  0.0665 -0.1476  0.6439
  155SAPE   O2217153   3.935   4.110   0.175 -0.0261 -0.1554  0.1189
  155SAPE   C2217154   3.955   4.180  -0.061  0.5982 -0.0280  0.2793
  155SAPE   H2R17155   3.876   4.256  -0.082  1.7515  1.0140 -0.4653
  155SAPE   H2S17156   4.045   4.231  -0.020  0.5536 -1.0684  1.7158
  155SAPE    C317157   3.910   3.796   0.128  0.0499 -0.6362 -0.5573
  155SAPE    HX17158   3.900   3.728   0.215 -0.2671  0.2919  0.1363
  155SAPE    HY17159   3.990   3.863   0.166 -1.9317  1.5768 -0.0781
  155SAPE   O3117160   3.944   3.711   0.016 -0.1672 -0.4232  0.3244
  155SAPE   C3117161   4.073   3.708  -0.004 -0.2567 -0.7176 -0.1803
  155SAPE   O3217162   4.163   3.747   0.076 -0.0322 -0.3086 -0.4014
  155SAPE   C3217163   4.097   3.642  -0.138  0.5904  0.0014 -0.2089
  155SAPE   H2X17164   4.004   3.588  -0.163 -0.4594 -0.0265  3.2127
  155SAPE   H2Y17165   4.177   3.565  -0.134 -0.2736 -1.1054 -2.6710
  155SAPE   C2317166   4.000   4.099  -0.188 -0.0842 -0.5378 -0.4196
  155SAPE   H3R17167   3.924   4.023  -0.219  1.1799 -1.8265 -0.4710
  155SAPE   H3S17168   4.099   4.049  -0.180  0.5815  0.7598 -0.3147
  155SAPE   C2417169   4.012   4.201  -0.304 -0.2306 -0.4885 -0.1119
  155SAPE   H4R17170   4.087   4.276  -0.272  0.7834 -0.7301 -1.8301
  155SAPE   H4S17171   3.926   4.267  -0.327 -1.3467 -1.4379  1.1202
  155SAPE   C2517172   4.074   4.141  -0.430  0.4633 -0.2902  0.2493
  155SAPE   H5R17173   4.181   4.120  -0.414  0.4996 -0.2567  0.0589
  155SAPE   C2617174   4.021   4.120  -0.554  0.2459 -0.5416 -0.2939
  155SAPE   H6R17175   4.090   4.097  -0.636  0.3014  2.4931 -1.1996
  155SAPE   C2717176   3.869   4.128  -0.588 -0.3207 -0.8256 -0.6471
  155SAPE   H7R17177   3.806   4.151  -0.500  1.1090  1.4250 -0.1483
  155SAPE   H7S17178   3.831   4.026  -0.613 -4.5998 -0.0218  1.7275
  155SAPE   C2817179   3.850   4.244  -0.679  0.5946 -0.1582  0.4639
  155SAPE   H8R17180   3.864   4.338  -0.624 -0.1670  1.1870 -1.5324
  155SAPE   C2917181   3.814   4.246  -0.808 -0.7869  0.2286  0.0618
  155SAPE   H9R17182   3.802   4.346  -0.852 -0.2745 -0.0930 -0.8322
  155SAPE  C21017183   3.789   4.123  -0.896  0.1096 -0.1408  0.1900
  155SAPE  H10R17184   3.719   4.165  -0.971  0.4114  0.1840  0.0905
  155SAPE  H10S17185   3.722   4.047  -0.849  0.1492 -1.0763 -1.2078
  155SAPE  C21117186   3.915   4.063  -0.964  0.2047  0.5985 -0.1220
  155SAPE  H11R17187   3.993   4.021  -0.899  0.8247 -1.5646 -2.1049
  155SAPE  C21217188   3.949   4.059  -1.094 -0.9079  0.0181 -0.5549
  155SAPE  H12R17189   4.041   4.002  -1.113 -0.7087  0.1433  0.0368
  155SAPE  C21317190   3.874   4.126  -1.202  0.6091 -0.3028  0.9874
  155SAPE  H13R17191   3.869   4.236  -1.185 -0.1804  0.0780 -1.4188
  155SAPE  H13S17192   3.770   4.086  -1.203  1.0601 -1.5601 -0.9886
  155SAPE  C21417193   3.935   4.101  -1.335 -0.4858  0.4568  0.4223
  155SAPE  H14R17194   4.021   4.169  -1.345 -0.7563  1.2403  2.7641
  155SAPE  C21517195   3.924   3.992  -1.421  0.1386  0.1176 -0.1571
  155SAPE  H15R17196   3.993   3.993  -1.507 -0.7308  1.6655 -0.8847
  155SAPE  C21617197   3.822   3.874  -1.431 -0.0997 -0.4142 -0.0120
  155SAPE  H16R17198   3.754   3.886  -1.344  1.3169  2.0986  0.8412
  155SAPE  H16S17199   3.875   3.778  -1.416  0.2742 -0.2033  0.0277
  155SAPE  C21717200   3.740   3.872  -1.559 -0.6287  0.6700 -0.2612
  155SAPE  H17R17201   3.681   3.778  -1.558  0.7249 -0.2525  1.9936
  155SAPE  H17S17202   3.806   3.894  -1.645  1.5033  2.0745  1.6097
  155SAPE  C21817203   3.636   3.980  -1.558  0.5605  0.0228 -0.3641
  155SAPE  H18R17204   3.689   4.077  -1.547  1.9727 -0.6502 -0.9667
  155SAPE  H18S17205   3.579   3.969  -1.463  0.2639  0.2058 -0.5192
  155SAPE  C21917206   3.545   3.991  -1.676  0.1711 -0.1695  0.3715
  155SAPE  H19R17207   3.605   4.033  -1.760  0.5827  0.2678  0.8845
  155SAPE  H19S17208   3.470   4.071  -1.658 -1.5920 -1.6003 -0.2700
  155SAPE  C22017209   3.466   3.866  -1.711 -0.6449 -0.0284 -0.1336
  155SAPE  H20R17210   3.525   3.790  -1.766 -1.3975  0.9527 -2.4216
  155SAPE  H20S17211   3.378   3.889  -1.775  0.3821  0.3207 -1.4604
  155SAPE  H20T17212   3.436   3.812  -1.618 -0.9225  1.5029  0.6905
  155SAPE   C3317213   4.143   3.744  -0.245  0.3939  0.0619  0.0469
  155SAPE   H3X17214   4.234   3.796  -0.207 -0.4605  1.1078  0.7066
  155SAPE   H3Y17215   4.064   3.821  -0.254  0.5746  0.1886 -0.4997
  155SAPE   C3417216   4.180   3.686  -0.387  0.7965  0.2242 -0.9851
  155SAPE   H4X17217   4.095   3.615  -0.396  0.0683  0.7953  1.0047
  155SAPE   H4Y17218   4.281   3.641  -0.381  1.1919  1.2624  0.8215
  155SAPE   C3517219   4.177   3.791  -0.490 -0.3341  0.2431 -0.0032
  155SAPE   H5X17220   4.267   3.849  -0.461  1.6144 -2.4569 -0.2587
  155SAPE   H5Y17221   4.087   3.856  -0.492 -1.7430 -1.6255 -1.8988
  155SAPE   C3617222   4.183   3.730  -0.634  0.0119  0.1120 -0.1817
  155SAPE   H6X17223   4.097   3.661  -0.647 -2.2462  2.8887 -1.2162
  155SAPE   H6Y17224   4.278   3.673  -0.636  0.6959  1.2246 -0.8308
  155SAPE   C3717225   4.194   3.846  -0.743 -0.5328  0.3224  0.5768
  155SAPE   H7X17226   4.274   3.911  -0.703 -2.6159  1.6556  2.8908
  155SAPE   H7Y17227   4.106   3.915  -0.740  0.5309  1.7113  0.9847
  155SAPE   C3817228   4.222   3.797  -0.885 -0.7075  0.4480 -0.2533
  155SAPE   H8X17229   4.318   3.742  -0.896 -2.2564 -2.5284  0.1370
  155SAPE   H8Y17230   4.223   3.876  -0.963 -1.0553 -2.2428 -3.1868
  155SAPE   C3917231   4.119   3.698  -0.934 -0.3360 -0.0440 -0.4836
  155SAPE   H9X17232   4.018   3.730  -0.901 -0.1287  0.0917  0.0440
  155SAPE   H9Y17233   4.152   3.604  -0.884 -0.5506  0.5090  0.7443
  155SAPE  C31017234   4.117   3.672  -1.088 -0.5745  0.2183 -0.0197
  155SAPE  H10X17235   4.105   3.768  -1.141 -0.5353  0.3026  0.1248
  155SAPE  H10Y17236   4.028   3.610  -1.112 -0.9471  1.4411 -2.0656
  155SAPE  C31117237   4.244   3.604  -1.126  0.4637 -0.7075  0.2251
  155SAPE  H11X17238   4.273   3.525  -1.054  0.7895 -0.5847  0.2274
  155SAPE  H11Y17239   4.323   3.680  -1.114 -0.1912 -0.1861  1.3682
  155SAPE  C31217240   4.247   3.551  -1.271  0.5603 -0.5592  0.7413
  155SAPE  H12X17241   4.239   3.440  -1.267  1.6894 -0.7263 -0.7476
  155SAPE  H12Y17242   4.344   3.579  -1.318 -0.1575 -0.2437 -0.5847
  155SAPE  C31317243   4.123   3.594  -1.363  0.2247 -0.8654 -0.0518
  155SAPE  H13X17244   4.092   3.699  -1.347 -3.3630 -1.7945 -0.1274
  155SAPE  H13Y17245   4.044   3.524  -1.328  1.1824 -1.5223  0.8877
  155SAPE  C31417246   4.155   3.570  -1.510 -0.1425 -0.5320 -0.1838
  155SAPE  H14X17247   4.051   3.581  -1.548 -0.2437  2.6325  0.6807
  155SAPE  H14Y17248   4.204   3.473  -1.531 -1.2520 -1.1802  0.1088
  155SAPE  C31517249   4.221   3.686  -1.584 -0.1576 -0.0702  0.2555
  155SAPE  H15X17250   4.320   3.706  -1.539 -0.4533  3.0291 -0.2097
  155SAPE  H15Y17251   4.175   3.783  -1.553  1.9554  0.9108  0.5150
  155SAPE  C31617252   4.213   3.661  -1.735  0.2173  0.1013  0.4163
  155SAPE  H16X17253   4.115   3.630  -1.777 -1.1588  4.8557 -0.4822
  155SAPE  H16Y17254   4.293   3.584  -1.745  0.8952  0.6328  1.5718
  155SAPE  C31717255   4.256   3.783  -1.831  0.3274  0.5622  0.1495
  155SAPE  H17X17256   4.208   3.876  -1.794  0.2325  0.2156  0.9223
  155SAPE  H17Y17257   4.219   3.769  -1.935 -1.9749  3.3107  0.4724
  155SAPE  C31817258   4.403   3.816  -1.827  0.5262  0.0736  0.1210
  155SAPE  H18X17259   4.418   3.860  -1.726 -3.6038  1.7772  0.1592
  155SAPE  H18Y17260   4.426   3.899  -1.898  1.8114 -1.0398 -0.8183
  155SAPE  H18Z17261   4.467   3.728  -1.849 -1.5923 -1.3933 -0.5112
  156SAPE     N17262   1.045   4.260   0.319  1.1141 -0.2778  0.7291
  156SAPE   HN117263   0.949   4.251   0.280  0.5888 -0.2287  1.9616
  156SAPE   HN217264   1.053   4.190   0.396 -0.6015 -0.4756  0.7536
  156SAPE   HN317265   1.044   4.354   0.364  1.2980 -0.0926  0.3496
  156SAPE   C1217266   1.152   4.243   0.218  0.1122  0.8875  0.6665
  156SAPE  H12A17267   1.165   4.140   0.178  1.9262  1.4337 -0.2278
  156SAPE  H12B17268   1.244   4.244   0.280  0.2329 -1.0978  0.5716
  156SAPE   C1117269   1.160   4.344   0.101 -0.1763  0.6809  0.0810
  156SAPE  H11A17270   1.077   4.326   0.029 -2.2723  2.6745  1.8262
  156SAPE  H11B17271   1.261   4.320   0.060  0.3737  1.0846  1.1627
  156SAPE     P17272   1.109   4.596   0.070  0.4860 -0.2763 -0.1138
  156SAPE   O1317273   1.094   4.712   0.164  0.4945 -0.0497  0.0286
  156SAPE   O1417274   1.195   4.626  -0.045  0.3139 -0.3297 -0.2972
  156SAPE   O1217275   1.167   4.477   0.150 -0.2892  0.2380 -0.4658
  156SAPE   O1117276   0.969   4.538   0.037 -0.2026  0.0559 -0.1789
  156SAPE    C117277   0.870   4.622  -0.031 -0.0502 -0.3739 -0.1170
  156SAPE    HA17278   0.784   4.631   0.038 -0.1512 -1.3685 -0.0891
  156SAPE    HB17279   0.901   4.728  -0.043 -1.8402  0.5084  2.2595
  156SAPE    C217280   0.802   4.562  -0.154  0.3432  0.8051  0.5128
  156SAPE    HS17281   0.750   4.472  -0.114 -0.4696  0.8505 -0.4211
  156SAPE   O2117282   0.905   4.516  -0.244 -0.1572  0.4965  0.4912
  156SAPE   C2117283   0.914   4.390  -0.261 -0.2642  0.7674 -0.1137
  156SAPE   O2217284   0.830   4.300  -0.240  0.1273 -0.7170  0.2714
  156SAPE   C2217285   1.057   4.356  -0.292  0.3558 -0.2072 -0.3693
  156SAPE   H2R17286   1.093   4.416  -0.379  1.8731  1.3445  1.2450
  156SAPE   H2S17287   1.113   4.389  -0.202 -1.0385  1.7568 -0.1548
  156SAPE    C317288   0.697   4.654  -0.223  0.1970 -0.0815 -0.2968
  156SAPE    HX17289   0.723   4.762  -0.211 -1.3632  0.3613 -0.6361
  156SAPE    HY17290   0.606   4.645  -0.159 -1.1941 -1.8093 -2.3687
  156SAPE   O3117291   0.668   4.608  -0.358  0.2302 -0.0034 -0.4084
  156SAPE   C3117292   0.582   4.509  -0.384 -0.1452  0.7389  0.0796
  156SAPE   O3217293   0.516   4.449  -0.301  0.3366  0.2506 -0.6767
  156SAPE   C3217294   0.592   4.484  -0.531  0.4967  0.8069 -0.2588
  156SAPE   H2X17295   0.680   4.419  -0.547 -0.0004 -0.2942  1.2874
  156SAPE   H2Y17296   0.595   4.584  -0.581 -0.1875  0.4510 -1.0411
  156SAPE   C2317297   1.082   4.207  -0.322  0.7531 -0.6749  0.1926
  156SAPE   H3R17298   1.049   4.149  -0.234  0.4707  0.6715  0.9986
  156SAPE   H3S17299   1.192   4.190  -0.324  0.9420  0.4673  0.0652
  156SAPE   C2417300   1.013   4.156  -0.452  0.4485  0.0570 -0.6489
  156SAPE   H4R17301   0.911   4.199  -0.448 -0.1458 -1.2501 -1.3182
  156SAPE   H4S17302   1.009   4.047  -0.431 -1.4633  0.3919  1.0581
  156SAPE   C2517303   1.076   4.184  -0.583  0.4021  0.6697 -0.0496
  156SAPE   H5R17304   1.176   4.140  -0.591 -0.3114 -1.3245  1.3154
  156SAPE   C2617305   1.021   4.265  -0.679  0.4407  0.1201  0.1818
  156SAPE   H6R17306   1.068   4.266  -0.779  1.8423 -2.0912  0.7659
  156SAPE   C2717307   0.878   4.322  -0.679 -0.7931 -0.0610 -0.3090
  156SAPE   H7R17308   0.884   4.416  -0.620  1.0199 -0.3698  0.0526
  156SAPE   H7S17309   0.821   4.245  -0.622 -1.3260  1.0167  0.6600
  156SAPE   C2817310   0.814   4.346  -0.810 -0.2246 -0.7230 -0.1059
  156SAPE   H8R17311   0.763   4.441  -0.791 -0.0409 -1.0869  2.6767
  156SAPE   C2917312   0.801   4.266  -0.912 -0.1861 -0.1769  0.2274
  156SAPE   H9R17313   0.743   4.307  -0.996  0.7428 -1.1791 -0.9384
  156SAPE  C21017314   0.849   4.126  -0.929 -1.0350 -0.3884 -0.3924
  156SAPE  H10R17315   0.764   4.057  -0.947 -0.6422 -0.8320 -0.5628
  156SAPE  H10S17316   0.879   4.085  -0.830 -2.3108 -1.4945 -0.4356
  156SAPE  C21117317   0.948   4.111  -1.048  0.7770 -0.7665 -0.5485
  156SAPE  H11R17318   1.040   4.167  -1.023 -0.7461  1.0780  1.3237
  156SAPE  C21217319   0.924   4.067  -1.169 -0.3178  0.0313  0.1329
  156SAPE  H12R17320   1.012   4.063  -1.235  0.7552 -2.7265  1.5846
  156SAPE  C21317321   0.799   4.015  -1.235  0.6007 -0.2870  0.2245
  156SAPE  H13R17322   0.794   4.039  -1.344 -1.0145 -1.9319 -0.1165
  156SAPE  H13S17323   0.712   4.079  -1.208 -1.1304 -1.9165 -1.1912
  156SAPE  C21417324   0.766   3.867  -1.226  0.6067  0.1525  0.2055
  156SAPE  H14R17325   0.705   3.844  -1.137  0.5936  0.9526  0.4107
  156SAPE  C21517326   0.798   3.770  -1.310  0.1143 -0.0276  0.0487
  156SAPE  H15R17327   0.755   3.674  -1.277 -1.6280  1.1359  1.3450
  156SAPE  C21617328   0.862   3.774  -1.445 -0.6585 -0.1289 -0.2654
  156SAPE  H16R17329   0.922   3.680  -1.448  0.0412  0.1386  2.6463
  156SAPE  H16S17330   0.940   3.852  -1.461  0.0280 -0.7469 -0.0210
  156SAPE  C21717331   0.760   3.765  -1.558  0.2360 -0.5713  0.2316
  156SAPE  H17R17332   0.825   3.766  -1.647 -0.4299 -3.2307 -0.3752
  156SAPE  H17S17333   0.696   3.856  -1.562  0.2256 -0.5929 -0.1258
  156SAPE  C21817334   0.680   3.634  -1.561  0.1073  0.2720  0.4913
  156SAPE  H18R17335   0.735   3.541  -1.534 -0.3402 -0.1948 -0.1626
  156SAPE  H18S17336   0.649   3.615  -1.666 -1.3612 -2.8146  1.3316
  156SAPE  C21917337   0.552   3.612  -1.474 -0.1488 -0.4576  0.2396
  156SAPE  H19R17338   0.477   3.691  -1.497 -0.7910 -1.0890  0.1027
  156SAPE  H19S17339   0.571   3.626  -1.366  3.2542  1.7221 -0.4934
  156SAPE  C22017340   0.476   3.483  -1.503  0.2661 -0.0148  0.2618
  156SAPE  H20R17341   0.382   3.493  -1.446  0.8555  0.6544  1.1465
  156SAPE  H20S17342   0.527   3.393  -1.462 -0.1318 -0.1357  0.4952
  156SAPE  H20T17343   0.457   3.468  -1.611  1.2001 -0.0047  0.0846
  156SAPE   C3317344   0.458   4.424  -0.585  0.1838  0.3900  0.0720
  156SAPE   H3X17345   0.377   4.499  -0.575  0.1620  0.5166 -0.9235
  156SAPE   H3Y17346   0.430   4.340  -0.518  0.0960 -1.5875 -2.3055
  156SAPE   C3417347   0.463   4.381  -0.728  0.8601  0.0683 -0.3898
  156SAPE   H4X17348   0.385   4.303  -0.747 -0.5253  1.5416 -0.9834
  156SAPE   H4Y17349   0.562   4.332  -0.735  1.0256 -0.0121  1.7828
  156SAPE   C3517350   0.434   4.496  -0.824 -0.0617 -0.4819  0.0492
  156SAPE   H5X17351   0.513   4.574  -0.813 -2.2909  1.7521  1.4800
  156SAPE   H5Y17352   0.343   4.553  -0.797  1.3427  2.9161 -1.7313
  156SAPE   C3617353   0.442   4.444  -0.966 -0.1090  0.4356  0.1745
  156SAPE   H6X17354   0.352   4.380  -0.979  2.1854 -3.1153  0.2870
  156SAPE   H6Y17355   0.529   4.375  -0.968 -0.3201  0.1801 -0.1169
  156SAPE   C3717356   0.467   4.546  -1.081 -0.0037 -0.1514 -0.5318
  156SAPE   H7X17357   0.406   4.634  -1.051  1.4825  0.0840  2.0267
  156SAPE   H7Y17358   0.437   4.501  -1.179 -0.1930  0.8074 -0.9223
  156SAPE   C3817359   0.620   4.595  -1.098  0.8445  0.5566 -0.3412
  156SAPE   H8X17360   0.686   4.523  -1.046  1.5269  0.2870 -1.5578
  156SAPE   H8Y17361   0.629   4.687  -1.035  1.8054  0.3774 -0.2089
  156SAPE   C3917362   0.660   4.620  -1.241 -0.1113  0.9052  0.0414
  156SAPE   H9X17363   0.671   4.729  -1.263  2.0677  0.7799  0.2348
  156SAPE   H9Y17364   0.588   4.567  -1.306  0.4890 -1.3081  1.0948
  156SAPE  C31017365   0.804   4.557  -1.275 -0.1852 -0.2616 -0.3534
  156SAPE  H10X17366   0.780   4.450  -1.257 -1.8254  0.6300  3.9000
  156SAPE  H10Y17367   0.880   4.595  -1.203  0.3900 -1.0525 -0.5304
  156SAPE  C31117368   0.854   4.575  -1.417 -0.4671  0.2007 -0.8535
  156SAPE  H11X17369   0.789   4.517  -1.487 -0.3379  0.0005 -0.8074
  156SAPE  H11Y17370   0.950   4.520  -1.421 -1.6205 -2.6017  3.2284
  156SAPE  C31217371   0.856   4.709  -1.476  0.6518  0.3279  0.7072
  156SAPE  H12X17372   0.930   4.768  -1.417  1.0160 -0.6215  1.2254
  156SAPE  H12Y17373   0.756   4.758  -1.472 -0.4857 -1.7754 -0.4000
  156SAPE  C31317374   0.907   4.698  -1.621 -0.4818 -0.6987  0.0240
  156SAPE  H13X17375   0.874   4.790  -1.674 -1.2564 -0.5610  0.7383
  156SAPE  H13Y17376   0.861   4.612  -1.675  2.0327 -1.5362 -0.9764
  156SAPE  C31417377   1.064   4.696  -1.627  0.3161 -0.0921  0.3890
  156SAPE  H14X17378   1.101   4.597  -1.591 -0.8110 -0.4819  0.5160
  156SAPE  H14Y17379   1.114   4.779  -1.574  1.0299 -0.2277 -0.0633
  156SAPE  C31517380   1.109   4.712  -1.772 -0.4002  0.2674  0.0889
  156SAPE  H15X17381   1.037   4.790  -1.805 -1.8875 -0.3309  1.7932
  156SAPE  H15Y17382   1.090   4.612  -1.818 -2.1772 -0.2047  1.7176
  156SAPE  C31617383   1.257   4.748  -1.786 -0.5693 -0.0565 -0.0793
  156SAPE  H16X17384   1.323   4.658  -1.793 -1.1392 -0.3539 -3.1381
  156SAPE  H16Y17385   1.293   4.825  -1.715 -1.4813 -0.4023  0.7789
  156SAPE  C31717386   1.287   4.817  -1.924  0.6361  0.3800 -0.0819
  156SAPE  H17X17387   1.231   4.913  -1.923  0.3833  0.3642 -3.3614
  156SAPE  H17Y17388   1.232   4.746  -1.990 -1.5357  1.0214  0.9454
  156SAPE  C31817389   1.437   4.828  -1.961  0.3018 -0.7171  0.3611
  156SAPE  H18X17390   1.492   4.733  -1.943  0.6400 -0.6043 -0.0898
  156SAPE  H18Y17391   1.489   4.910  -1.908 -0.7187  0.7756 -0.8860
  156SAPE  H18Z17392   1.440   4.856  -2.068 -0.1756 -0.4715  0.4070
  157SAPE     N17393   6.895   2.522   0.358  0.1262  0.6494 -0.0268
  157SAPE   HN117394   6.928   2.424   0.368  0.4447  0.8438  0.9285
  157SAPE   HN217395   6.929   2.563   0.447  1.3554  0.0872 -0.2195
  157SAPE   HN317396   6.792   2.516   0.373  0.4921 -1.1700  2.2043
  157SAPE   C1217397   6.930   2.605   0.242 -0.1533 -0.6861  0.8694
  157SAPE  H12A17398   6.871   2.699   0.250  1.4768  0.7971 -2.4008
  157SAPE  H12B17399   6.900   2.556   0.147 -0.8861 -1.0488  1.2810
  157SAPE   C1117400   7.081   2.638   0.242 -0.7593 -1.3510 -0.4364
  157SAPE  H11A17401   7.112   2.683   0.146  0.0026  0.6093  0.6678
  157SAPE  H11B17402   7.146   2.549   0.257 -0.2225 -1.3632 -2.5910
  157SAPE     P17403   7.207   2.735   0.453 -0.0707 -0.1867 -0.0845
  157SAPE   O1317404   7.216   2.866   0.515 -0.3598 -0.2708 -0.4705
  157SAPE   O1417405   7.170   2.635   0.556 -0.1809  0.7202  0.2152
  157SAPE   O1217406   7.098   2.746   0.339  0.1160  0.5586  0.1254
  157SAPE   O1117407   7.339   2.699   0.382 -0.6430 -0.3313  0.2376
  157SAPE    C117408   7.411   2.792   0.301  0.2529  0.2846 -0.0300
  157SAPE    HA17409   7.381   2.897   0.322 -0.2946  0.1012  0.1309
  157SAPE    HB17410   7.518   2.783   0.329 -0.5609 -0.3168  3.3792
  157SAPE    C217411   7.403   2.771   0.147 -0.2561  0.1623  1.2545
  157SAPE    HS17412   7.300   2.802   0.120  0.1268  1.1615  0.8863
  157SAPE   O2117413   7.438   2.636   0.113  0.3218  1.0236 -0.0662
  157SAPE   C2117414   7.374   2.575   0.021  0.1603  0.2032 -0.0668
  157SAPE   O2217415   7.276   2.621  -0.036  0.3051  0.2206  0.3108
  157SAPE   C2217416   7.429   2.429   0.004  0.6442  0.3205 -0.5254
  157SAPE   H2R17417   7.536   2.434  -0.027  1.0839  0.3848  0.9132
  157SAPE   H2S17418   7.427   2.383   0.105  3.5249 -2.6337 -1.6369
  157SAPE    C317419   7.510   2.861   0.062  1.1711 -0.5904  1.0827
  157SAPE    HX17420   7.609   2.817   0.089  2.5403  0.5958 -1.6015
  157SAPE    HY17421   7.517   2.969   0.088 -0.5662  0.6402 -2.7875
  157SAPE   O3117422   7.497   2.834  -0.077 -0.5898 -0.2020 -0.4357
  157SAPE   C3117423   7.421   2.923  -0.140 -0.1432  0.7902  0.5752
  157SAPE   O3217424   7.364   3.011  -0.083  0.3572 -0.7198  0.0163
  157SAPE   C3217425   7.387   2.864  -0.279  0.5875 -0.2000 -0.9832
  157SAPE   H2X17426   7.316   2.779  -0.275 -0.7370  0.9301  1.1613
  157SAPE   H2Y17427   7.478   2.807  -0.308 -0.3443 -0.7137 -3.0762
  157SAPE   C2317428   7.344   2.344  -0.092  0.0340  0.0089 -0.0246
  157SAPE   H3R17429   7.237   2.344  -0.063 -0.1745 -1.4560 -0.6949
  157SAPE   H3S17430   7.377   2.238  -0.080  0.8323  0.5067  2.9901
  157SAPE   C2417431   7.370   2.378  -0.243 -0.1400  0.1189  0.7081
  157SAPE   H4R17432   7.370   2.282  -0.298  3.5496  1.6216 -2.3230
  157SAPE   H4S17433   7.474   2.415  -0.256 -0.0998 -0.5647 -1.1778
  157SAPE   C2517434   7.270   2.468  -0.309  0.2459 -0.1040  0.6265
  157SAPE   H5R17435   7.170   2.485  -0.267 -0.4005 -0.4257 -0.7258
  157SAPE   C2617436   7.291   2.538  -0.428  0.0237  0.8317 -0.3469
  157SAPE   H6R17437   7.216   2.596  -0.483  0.6705  0.3283 -1.8079
  157SAPE   C2717438   7.416   2.530  -0.506  0.2624 -0.3573  0.5028
  157SAPE   H7R17439   7.504   2.494  -0.449  1.3615 -0.1319 -0.9949
  157SAPE   H7S17440   7.444   2.636  -0.525 -1.0308 -0.0580  0.1374
  157SAPE   C2817441   7.378   2.450  -0.627  0.1167  0.8910 -0.5619
  157SAPE   H8R17442   7.325   2.354  -0.614  1.2583  0.0427 -1.8497
  157SAPE   C2917443   7.408   2.493  -0.755  0.6044  0.1262 -0.2438
  157SAPE   H9R17444   7.378   2.418  -0.830 -1.4304  0.5907  0.0494
  157SAPE  C21017445   7.480   2.616  -0.791 -0.4078  0.6153  0.5493
  157SAPE  H10R17446   7.505   2.687  -0.709  3.1935  1.3019 -0.9784
  157SAPE  H10S17447   7.412   2.682  -0.848 -0.4934  0.4475  0.4556
  157SAPE  C21117448   7.603   2.570  -0.870  0.2641  0.2013  0.1337
  157SAPE  H11R17449   7.683   2.539  -0.801  0.2934 -0.8194 -0.3374
  157SAPE  C21217450   7.627   2.519  -0.994  0.0822 -0.3972  0.3539
  157SAPE  H12R17451   7.726   2.494  -1.035 -0.1828  1.7912 -1.8061
  157SAPE  C21317452   7.524   2.494  -1.103 -0.1921 -1.0273  0.6979
  157SAPE  H13R17453   7.448   2.415  -1.087 -2.7250  0.4225 -2.8954
  157SAPE  H13S17454   7.580   2.453  -1.190  0.7808  3.0096 -0.8002
  157SAPE  C21417455   7.451   2.624  -1.142  0.6120  0.5903  0.0346
  157SAPE  H14R17456   7.511   2.715  -1.125  1.3042  0.1762 -0.1354
  157SAPE  C21517457   7.324   2.628  -1.181 -0.1524 -0.2051  0.5384
  157SAPE  H15R17458   7.270   2.722  -1.198 -0.5241 -0.0633  2.3091
  157SAPE  C21617459   7.243   2.508  -1.221 -0.4996  0.6040  0.5207
  157SAPE  H16R17460   7.171   2.470  -1.145  0.2093 -2.1948 -0.0884
  157SAPE  H16S17461   7.317   2.426  -1.231 -0.0942  1.1215 -0.9756
  157SAPE  C21717462   7.171   2.534  -1.360  0.0683  0.3083  0.8604
  157SAPE  H17R17463   7.121   2.633  -1.355  0.6013  0.5849  0.7840
  157SAPE  H17S17464   7.100   2.452  -1.387  3.1755 -2.6212  0.9719
  157SAPE  C21817465   7.269   2.548  -1.475 -0.6233 -0.9182  0.7383
  157SAPE  H18R17466   7.331   2.456  -1.486  0.6733 -0.1440  1.3337
  157SAPE  H18S17467   7.344   2.627  -1.454 -0.8754 -0.5685  0.3247
  157SAPE  C21917468   7.196   2.566  -1.612 -0.2022  0.1255  0.4932
  157SAPE  H19R17469   7.091   2.529  -1.603  0.1289 -0.5318  1.8598
  157SAPE  H19S17470   7.256   2.500  -1.679  1.9335  0.9777  1.4750
  157SAPE  C22017471   7.221   2.708  -1.668  0.4069  0.3744 -0.0873
  157SAPE  H20R17472   7.328   2.738  -1.664  0.1168  1.3115  1.6830
  157SAPE  H20S17473   7.160   2.780  -1.609 -0.2189  2.0544 -2.6164
  157SAPE  H20T17474   7.184   2.709  -1.773 -0.2100  1.1721  0.1246
  157SAPE   C3317475   7.333   2.970  -0.381 -0.2862 -0.3758 -0.3680
  157SAPE   H3X17476   7.413   3.048  -0.379 -0.7239  0.1081  2.1261
  157SAPE   H3Y17477   7.233   3.007  -0.351 -0.4489 -0.2679 -1.0313
  157SAPE   C3417478   7.331   2.901  -0.515 -0.3973 -0.5723  0.1590
  157SAPE   H4X17479   7.247   2.829  -0.523 -0.4765 -0.6208  1.3355
  157SAPE   H4Y17480   7.432   2.857  -0.530 -0.2761 -0.6099  1.0680
  157SAPE   C3517481   7.308   3.003  -0.626 -0.0924 -0.1666 -0.1308
  157SAPE   H5X17482   7.396   3.072  -0.627  1.5810 -2.1877  0.2441
  157SAPE   H5Y17483   7.215   3.062  -0.611  0.0646  0.1351 -0.3386
  157SAPE   C3617484   7.304   2.955  -0.767  0.0728  0.9183  0.4023
  157SAPE   H6X17485   7.212   2.895  -0.780  0.5839 -0.2698  1.8455
  157SAPE   H6Y17486   7.387   2.884  -0.793 -0.5009  0.7951 -1.1739
  157SAPE   C3717487   7.306   3.069  -0.869  0.1952 -0.4073  0.3412
  157SAPE   H7X17488   7.399   3.129  -0.865  0.1171 -0.1432 -1.2317
  157SAPE   H7Y17489   7.220   3.133  -0.840  0.4446  0.4305 -0.6925
  157SAPE   C3817490   7.268   3.017  -1.006 -0.1609  0.3138 -0.8559
  157SAPE   H8X17491   7.175   2.956  -1.003 -1.9490  2.8579  2.4504
  157SAPE   H8Y17492   7.354   2.951  -1.028  0.6095  0.5257  1.2794
  157SAPE   C3917493   7.254   3.120  -1.111 -0.9017  0.6908 -0.1853
  157SAPE   H9X17494   7.357   3.158  -1.129  0.1568 -2.0472 -0.3528
  157SAPE   H9Y17495   7.203   3.213  -1.079  0.2755  0.6577  1.9975
  157SAPE  C31017496   7.193   3.078  -1.244  0.1690  0.0439  0.7826
  157SAPE  H10X17497   7.082   3.074  -1.237  0.1078  0.3329  0.0075
  157SAPE  H10Y17498   7.241   2.980  -1.267  2.9597  1.1185  1.6901
  157SAPE  C31117499   7.222   3.186  -1.353  0.6450 -0.4386  0.7463
  157SAPE  H11X17500   7.325   3.226  -1.349 -0.2170  2.1013 -0.4590
  157SAPE  H11Y17501   7.159   3.275  -1.332  0.3490 -0.8429  1.6611
  157SAPE  C31217502   7.182   3.155  -1.494  0.6645 -0.0632  0.4230
  157SAPE  H12X17503   7.215   3.055  -1.531 -0.3587 -0.2831  0.0551
  157SAPE  H12Y17504   7.237   3.231  -1.554  1.3842 -0.2776  0.8094
  157SAPE  C31317505   7.030   3.157  -1.514 -0.1236 -0.0590 -0.2387
  157SAPE  H13X17506   6.997   3.258  -1.481  2.0236  0.2015  1.3220
  157SAPE  H13Y17507   6.985   3.080  -1.447  0.3822 -0.5591 -0.4666
  157SAPE  C31417508   6.988   3.153  -1.655 -0.0290  0.2308  0.7086
  157SAPE  H14X17509   7.050   3.086  -1.718 -0.6311 -1.6038  1.9852
  157SAPE  H14Y17510   6.999   3.251  -1.707 -0.0176 -1.7847 -3.5205
  157SAPE  C31517511   6.842   3.107  -1.670 -0.4080  0.2102 -0.2251
  157SAPE  H15X17512   6.779   3.171  -1.605 -0.5758  1.1055 -1.2545
  157SAPE  H15Y17513   6.834   3.004  -1.629 -0.3501  0.4130  0.3077
  157SAPE  C31617514   6.792   3.103  -1.809  0.6713  0.7321 -0.1468
  157SAPE  H16X17515   6.851   3.033  -1.873 -0.1391 -0.6490  0.5673
  157SAPE  H16Y17516   6.811   3.199  -1.862  0.5422  0.3329 -0.9420
  157SAPE  C31717517   6.644   3.058  -1.828  0.4930  0.1773  0.2296
  157SAPE  H17X17518   6.569   3.124  -1.780 -1.1555 -1.2556 -0.2799
  157SAPE  H17Y17519   6.629   2.952  -1.799 -0.5549  0.4606  0.7697
  157SAPE  C31817520   6.609   3.068  -1.980  0.4964  0.4022  0.0712
  157SAPE  H18X17521   6.678   3.011  -2.046  1.9003  2.2493 -0.1084
  157SAPE  H18Y17522   6.615   3.176  -2.005 -0.4044  0.9211  1.8962
  157SAPE  H18Z17523   6.504   3.032  -1.995  0.7667 -0.1912 -0.4223
  158SAPE     N17524   2.701   1.360   8.357 -0.3493 -0.5161 -0.2370
  158SAPE   HN117525   2.721   1.259   8.370  1.1732 -0.1599  0.4691
  158SAPE   HN217526   2.699   1.392   8.456  1.5856 -0.9248 -0.0259
  158SAPE   HN317527   2.613   1.377   8.304 -1.1344 -1.3811  0.7494
  158SAPE   C1217528   2.828   1.410   8.295  0.5556 -0.0485 -0.2667
  158SAPE  H12A17529   2.849   1.338   8.213  3.2401 -0.4196  0.6561
  158SAPE  H12B17530   2.901   1.398   8.378 -2.4035 -0.2926  2.4809
  158SAPE   C1117531   2.822   1.560   8.256  0.0902  0.1450 -0.5112
  158SAPE  H11A17532   2.731   1.576   8.195 -1.0333 -2.2085  0.4318
  158SAPE  H11B17533   2.919   1.573   8.203  1.8056 -1.0692  2.0924
  158SAPE     P17534   2.926   1.697   8.439 -0.0681 -0.4944 -0.2665
  158SAPE   O1317535   2.877   1.780   8.550 -0.3073  0.4462  0.0812
  158SAPE   O1417536   3.017   1.591   8.468  0.2625 -0.5073 -0.1022
  158SAPE   O1217537   2.801   1.636   8.372  0.1330 -0.1126  0.4700
  158SAPE   O1117538   2.983   1.785   8.327 -0.1033  0.6673 -0.0665
  158SAPE    C117539   2.887   1.864   8.244 -0.0978 -0.3830  0.4841
  158SAPE    HA17540   2.931   1.875   8.142  1.6589  0.2415  1.2592
  158SAPE    HB17541   2.787   1.818   8.236 -0.5593  0.7015 -0.2621
  158SAPE    C217542   2.861   2.005   8.304 -0.3152  0.1085  0.9628
  158SAPE    HS17543   2.839   1.997   8.413  1.6043  1.6441  1.5347
  158SAPE   O2117544   2.759   2.070   8.230  0.1771 -0.4454  0.1507
  158SAPE   C2117545   2.631   2.049   8.274  0.0922  0.4083  0.1834
  158SAPE   O2217546   2.611   1.991   8.381  0.5306  0.4857 -0.4235
  158SAPE   C2217547   2.535   2.129   8.200  0.0511 -0.1103  0.4122
  158SAPE   H2R17548   2.439   2.110   8.252 -0.1288 -0.2957  0.0102
  158SAPE   H2S17549   2.552   2.238   8.213 -3.3077  0.5709 -0.1184
  158SAPE    C317550   2.990   2.095   8.293  0.2038  0.7722 -0.3378
  158SAPE    HX17551   3.070   2.035   8.340 -0.1129  0.0523 -0.6841
  158SAPE    HY17552   2.967   2.186   8.352 -1.5680  0.3359 -0.3032
  158SAPE   O3117553   3.025   2.122   8.159  0.3961 -0.5991  0.6051
  158SAPE   C3117554   3.022   2.251   8.124 -0.1958  0.4374  0.2414
  158SAPE   O3217555   2.986   2.344   8.195  0.4841 -0.1808  0.9008
  158SAPE   C3217556   3.055   2.265   7.975  0.0113 -0.0302 -0.4427
  158SAPE   H2X17557   2.990   2.197   7.917  0.6119 -0.9288 -0.0779
  158SAPE   H2Y17558   3.160   2.231   7.959  0.3463  0.0313  1.4080
  158SAPE   C2317559   2.531   2.106   8.046  0.8804 -0.6235 -0.2596
  158SAPE   H3R17560   2.622   2.153   8.004 -0.6279  0.3837 -2.5965
  158SAPE   H3S17561   2.447   2.165   8.005 -0.7146 -0.5211  2.8500
  158SAPE   C2417562   2.511   1.964   7.997 -0.1764 -0.5981  0.0915
  158SAPE   H4R17563   2.586   1.896   8.042  1.9304 -0.2425 -2.6221
  158SAPE   H4S17564   2.533   1.965   7.888  0.3936 -0.5371  0.2073
  158SAPE   C2517565   2.379   1.903   8.022  0.8691  0.4583  0.4404
  158SAPE   H5R17566   2.364   1.884   8.129 -1.6047 -2.3582 -0.2717
  158SAPE   C2617567   2.272   1.899   7.942  0.1861 -0.3455 -0.4405
  158SAPE   H6R17568   2.179   1.854   7.979  0.4388  1.1592  2.3770
  158SAPE   C2717569   2.252   1.935   7.799 -0.0120  0.6902 -0.5653
  158SAPE   H7R17570   2.150   1.896   7.774  0.2817 -0.8781  0.5337
  158SAPE   H7S17571   2.321   1.877   7.735 -2.4253 -2.1647 -0.8233
  158SAPE   C2817572   2.266   2.081   7.766 -0.0768 -0.8129 -0.0550
  158SAPE   H8R17573   2.352   2.127   7.816 -0.2010 -0.1174 -0.4644
  158SAPE   C2917574   2.183   2.161   7.699 -0.4591 -0.2754  0.3109
  158SAPE   H9R17575   2.215   2.265   7.683 -0.8389  0.3184  2.9673
  158SAPE  C21017576   2.050   2.110   7.647  0.5544 -0.2621 -0.3266
  158SAPE  H10R17577   1.976   2.083   7.725 -1.3460  1.1676 -1.5329
  158SAPE  H10S17578   2.067   2.017   7.589  1.2383  0.2200 -0.9152
  158SAPE  C21117579   1.991   2.204   7.548 -0.6041  0.1615  0.1627
  158SAPE  H11R17580   2.042   2.301   7.544  0.9362 -0.6431 -0.5881
  158SAPE  C21217581   1.903   2.165   7.448 -0.6929  0.1020  0.2433
  158SAPE  H12R17582   1.866   2.237   7.373  1.9006 -0.1523 -1.4191
  158SAPE  C21317583   1.851   2.028   7.421  0.1885  0.5269  0.2801
  158SAPE  H13R17584   1.741   2.021   7.434 -0.1245  1.6230 -1.3608
  158SAPE  H13S17585   1.887   1.946   7.486 -0.2985  1.1110  1.3116
  158SAPE  C21417586   1.890   1.988   7.278  0.0083  0.1968  0.2955
  158SAPE  H14R17587   1.995   1.956   7.268 -0.4341 -1.0938 -0.4590
  158SAPE  C21517588   1.814   2.002   7.163 -0.1453  0.7167  0.0963
  158SAPE  H15R17589   1.848   1.977   7.062 -1.3410  1.2155 -0.4448
  158SAPE  C21617590   1.682   2.065   7.148  0.2927 -0.4266 -0.3580
  158SAPE  H16R17591   1.679   2.120   7.051  0.0919  0.1306 -0.0399
  158SAPE  H16S17592   1.662   2.129   7.236 -2.4589 -1.5435 -0.0716
  158SAPE  C21717593   1.567   1.959   7.149  0.5102 -0.2049  0.2347
  158SAPE  H17R17594   1.474   2.019   7.144 -0.6925 -1.8106  1.7825
  158SAPE  H17S17595   1.569   1.913   7.250  1.4051 -2.3735 -0.7047
  158SAPE  C21817596   1.572   1.854   7.033  0.1689 -0.1784  0.0096
  158SAPE  H18R17597   1.655   1.785   7.060  1.3022  0.6049 -1.3481
  158SAPE  H18S17598   1.586   1.902   6.934  0.8090  0.6108  0.4686
  158SAPE  C21917599   1.437   1.779   7.038 -0.5170 -0.0403  0.0045
  158SAPE  H19R17600   1.426   1.688   6.976  0.6131 -1.4528  1.7767
  158SAPE  H19S17601   1.356   1.845   7.001  0.3955 -0.0178 -2.0890
  158SAPE  C22017602   1.394   1.734   7.178 -0.4017  0.4652 -0.6661
  158SAPE  H20R17603   1.299   1.677   7.166 -0.0696 -0.2908  0.1980
  158SAPE  H20S17604   1.378   1.825   7.240  0.3653  1.3638 -1.7588
  158SAPE  H20T17605   1.470   1.666   7.224 -0.2882 -0.0472 -1.5826
  158SAPE   C3317606   3.017   2.403   7.917 -0.2419  0.6847 -0.2939
  158SAPE   H3X17607   3.071   2.477   7.980 -0.1090  0.1506  0.2339
  158SAPE   H3Y17608   2.910   2.421   7.939 -0.4058 -1.1925  0.7020
  158SAPE   C3417609   3.037   2.419   7.767  0.3391  0.3290  0.0471
  158SAPE   H4X17610   3.144   2.397   7.749  0.6719  1.6142  0.3385
  158SAPE   H4Y17611   3.007   2.520   7.732 -0.8984  0.0034  0.1159
  158SAPE   C3517612   2.940   2.333   7.682 -0.2053 -0.0856 -0.8096
  158SAPE   H5X17613   2.835   2.352   7.713  0.2946  1.1921  0.2281
  158SAPE   H5Y17614   2.973   2.228   7.690  1.1185  0.4586  2.2649
  158SAPE   C3617615   2.943   2.375   7.535 -0.0978  0.2868 -0.2266
  158SAPE   H6X17616   3.040   2.353   7.486 -0.1509 -0.6523  0.0737
  158SAPE   H6Y17617   2.930   2.486   7.532 -2.2906  0.0635 -0.2654
  158SAPE   C3717618   2.829   2.308   7.446  0.0368  0.1012  0.1107
  158SAPE   H7X17619   2.802   2.369   7.357 -0.8109 -1.2875 -0.6171
  158SAPE   H7Y17620   2.733   2.301   7.500  0.3872  0.5895  0.8156
  158SAPE   C3817621   2.879   2.183   7.373 -0.6202  0.7322 -0.4012
  158SAPE   H8X17622   2.877   2.091   7.436 -1.6204  1.4402  0.6411
  158SAPE   H8Y17623   2.984   2.200   7.342 -0.4330 -0.3176 -0.3695
  158SAPE   C3917624   2.797   2.156   7.249 -0.4744  0.3244 -0.2596
  158SAPE   H9X17625   2.806   2.244   7.181  1.0204 -0.2107 -0.7964
  158SAPE   H9Y17626   2.693   2.156   7.288 -0.6878  0.9123 -0.8003
  158SAPE  C31017627   2.802   2.017   7.181  0.3310  0.3970  0.1266
  158SAPE  H10X17628   2.789   1.939   7.258  0.8388  1.9308  1.8332
  158SAPE  H10Y17629   2.909   2.018   7.149  0.2624 -0.5322 -0.1653
  158SAPE  C31117630   2.706   2.004   7.065  0.3375  0.9398 -0.1611
  158SAPE  H11X17631   2.737   2.065   6.977 -2.3340  0.6478 -1.3816
  158SAPE  H11Y17632   2.605   2.040   7.091  1.1034  2.5019  0.8214
  158SAPE  C31217633   2.700   1.864   7.003 -0.5058  0.0786 -0.3391
  158SAPE  H12X17634   2.681   1.787   7.080 -1.3472 -0.4026 -1.0032
  158SAPE  H12Y17635   2.804   1.843   6.970 -1.2797 -3.1694 -1.1066
  158SAPE  C31317636   2.596   1.857   6.889  0.0252 -0.8800 -0.2235
  158SAPE  H13X17637   2.619   1.910   6.794 -0.6632 -3.0263 -1.6508
  158SAPE  H13Y17638   2.499   1.898   6.924  0.2848 -0.8645  0.4958
  158SAPE  C31417639   2.557   1.711   6.855  0.3652 -0.2985  0.1602
  158SAPE  H14X17640   2.650   1.666   6.814  0.9909  0.8545  0.2657
  158SAPE  H14Y17641   2.492   1.726   6.766  1.3281  0.3709 -0.4500
  158SAPE  C31517642   2.494   1.628   6.962  0.4543  0.9067 -0.9745
  158SAPE  H15X17643   2.407   1.688   6.998  0.3624  0.3323 -0.2001
  158SAPE  H15Y17644   2.565   1.619   7.046 -0.4976  2.4389  0.0325
  158SAPE  C31617645   2.453   1.484   6.934  0.9771  0.2105  0.6200
  158SAPE  H16X17646   2.410   1.436   7.025 -2.1233 -0.7967 -1.2252
  158SAPE  H16Y17647   2.532   1.414   6.902  0.9293 -0.1210  1.2067
  158SAPE  C31717648   2.335   1.485   6.835 -0.5827  0.2333 -0.2735
  158SAPE  H17X17649   2.373   1.522   6.737 -1.7370 -0.9197 -1.2002
  158SAPE  H17Y17650   2.256   1.550   6.878 -0.0374 -0.4386  1.8436
  158SAPE  C31817651   2.282   1.342   6.813  0.0430 -0.3533 -0.4635
  158SAPE  H18X17652   2.258   1.286   6.906 -2.4521 -1.9197 -1.9526
  158SAPE  H18Y17653   2.357   1.288   6.751 -3.0563 -1.6899 -3.3662
  158SAPE  H18Z17654   2.187   1.358   6.758 -0.6952 -1.2853  0.4929
  159SAPE     N17655   1.494   5.623   4.198  0.0467 -0.3319  0.0362
  159SAPE   HN117656   1.400   5.627   4.243  0.0708  2.0424  0.0263
  159SAPE   HN217657   1.526   5.721   4.211 -0.0957 -0.1846 -0.7032
  159SAPE   HN317658   1.503   5.591   4.100  1.1647  2.6245 -0.9293
  159SAPE   C1217659   1.582   5.536   4.274  0.1429 -1.1639 -0.3720
  159SAPE  H12A17660   1.586   5.582   4.376 -0.9194  1.2709 -1.3559
  159SAPE  H12B17661   1.685   5.544   4.235  0.0202  1.6684 -0.2910
  159SAPE   C1117662   1.522   5.393   4.276 -0.1781  0.1523 -0.2972
  159SAPE  H11A17663   1.445   5.385   4.355  0.7848 -0.0349  0.6546
  159SAPE  H11B17664   1.600   5.324   4.315 -0.9060 -0.3032  0.3801
  159SAPE     P17665   1.503   5.224   4.086 -0.2241 -0.0769  0.4726
  159SAPE   O1317666   1.419   5.201   3.964 -0.5727 -0.1604 -0.3144
  159SAPE   O1417667   1.647   5.226   4.066  0.3067  0.4981  0.5341
  159SAPE   O1217668   1.465   5.362   4.150 -0.4481 -0.7598 -0.3936
  159SAPE   O1117669   1.469   5.118   4.195 -0.0640  0.0721 -0.2197
  159SAPE    C117670   1.329   5.102   4.225  0.8307  0.1081 -0.1880
  159SAPE    HA17671   1.264   5.185   4.189  0.8389  0.0277 -0.3926
  159SAPE    HB17672   1.295   5.011   4.172  1.5487 -1.0079  1.1999
  159SAPE    C217673   1.296   5.067   4.374  0.0729 -1.0174  0.0973
  159SAPE    HS17674   1.195   5.021   4.368 -0.5800  0.5306 -3.0418
  159SAPE   O2117675   1.307   5.195   4.438  0.7351  0.4089 -0.8558
  159SAPE   C2117676   1.183   5.254   4.452 -0.4580 -0.0736 -0.2022
  159SAPE   O2217677   1.089   5.231   4.378 -0.2726  0.3673 -0.1661
  159SAPE   C2217678   1.191   5.325   4.589  0.1337 -0.2565  0.4032
  159SAPE   H2R17679   1.173   5.241   4.659 -0.7153 -1.7969 -1.5820
  159SAPE   H2S17680   1.288   5.377   4.609  0.2637 -0.3249 -0.0430
  159SAPE    C317681   1.401   4.975   4.433 -0.5169 -0.3309 -0.3035
  159SAPE    HX17682   1.489   5.036   4.461  0.0698 -0.5178 -1.6737
  159SAPE    HY17683   1.431   4.900   4.357  2.7303  2.5164 -2.1073
  159SAPE   O3117684   1.345   4.907   4.547  0.5958 -0.4263  0.3772
  159SAPE   C3117685   1.347   4.967   4.661 -0.0590 -0.5521  0.3337
  159SAPE   O3217686   1.418   5.070   4.683 -0.3933  0.2410 -0.8151
  159SAPE   C3217687   1.251   4.903   4.756 -0.3042 -0.7349 -0.5285
  159SAPE   H2X17688   1.302   4.805   4.771  0.5312 -0.3662 -0.8858
  159SAPE   H2Y17689   1.148   4.890   4.716 -1.3215  2.8595  0.5691
  159SAPE   C2317690   1.077   5.423   4.626  0.6474 -0.3839  0.7329
  159SAPE   H3R17691   0.982   5.381   4.587  1.0025 -1.5772  1.1303
  159SAPE   H3S17692   1.097   5.519   4.572 -0.1323 -0.9784 -0.6511
  159SAPE   C2417693   1.052   5.456   4.773 -0.4235 -0.4276  0.5900
  159SAPE   H4R17694   0.990   5.547   4.763 -1.2168 -1.0606 -0.4903
  159SAPE   H4S17695   1.141   5.494   4.826 -0.4628 -2.0534  1.9166
  159SAPE   C2517696   1.003   5.346   4.863  1.0975 -0.6189  0.0491
  159SAPE   H5R17697   1.045   5.249   4.835  0.4671 -0.8656 -0.0625
  159SAPE   C2617698   0.918   5.349   4.964  0.6382 -0.6051 -0.5003
  159SAPE   H6R17699   0.894   5.251   5.008 -0.1428 -1.5062 -2.7511
  159SAPE   C2717700   0.855   5.474   5.021 -0.9870 -0.4350  0.0090
  159SAPE   H7R17701   0.745   5.464   5.037 -0.7404 -2.8901  0.5448
  159SAPE   H7S17702   0.848   5.562   4.954 -0.6896 -0.9338 -0.6843
  159SAPE   C2817703   0.925   5.517   5.146  0.3840  0.2128 -0.2054
  159SAPE   H8R17704   1.003   5.592   5.127 -0.4592  1.2465  0.2659
  159SAPE   C2917705   0.898   5.466   5.269 -0.4956  0.0971  0.2847
  159SAPE   H9R17706   0.962   5.506   5.349 -1.2327 -2.2246  2.1658
  159SAPE  C21017707   0.792   5.376   5.309  0.1390 -0.4280 -0.2106
  159SAPE  H10R17708   0.839   5.309   5.384 -0.1030 -0.0507  0.2839
  159SAPE  H10S17709   0.753   5.313   5.227 -0.5165 -0.4008  0.0784
  159SAPE  C21117710   0.688   5.440   5.392  0.2468 -0.1083 -0.5174
  159SAPE  H11R17711   0.625   5.514   5.341  0.7661 -0.7442 -2.1456
  159SAPE  C21217712   0.650   5.407   5.523 -0.6142 -0.5201  0.1572
  159SAPE  H12R17713   0.583   5.473   5.580 -0.4127 -0.2711  0.1064
  159SAPE  C21317714   0.717   5.316   5.615 -0.7461 -0.8296 -0.0147
  159SAPE  H13R17715   0.726   5.217   5.564 -0.6637 -1.9831  2.1238
  159SAPE  H13S17716   0.645   5.299   5.699  0.2990 -1.9326  0.7000
  159SAPE  C21417717   0.854   5.365   5.661  1.0697  0.1755 -0.2265
  159SAPE  H14R17718   0.934   5.320   5.602  0.4591  0.0856 -1.0173
  159SAPE  C21517719   0.876   5.457   5.755 -0.1190 -0.4715  0.1103
  159SAPE  H15R17720   0.978   5.495   5.773  0.4454 -1.7750 -0.1694
  159SAPE  C21617721   0.768   5.523   5.841  0.4505  0.1314 -0.0199
  159SAPE  H16R17722   0.665   5.483   5.829  0.1237  1.1357 -0.6194
  159SAPE  H16S17723   0.760   5.625   5.798 -0.4929 -0.1690 -0.5804
  159SAPE  C21717724   0.819   5.544   5.985  0.1994  0.1768 -1.4097
  159SAPE  H17R17725   0.736   5.585   6.046 -0.9806  1.4076 -3.7295
  159SAPE  H17S17726   0.909   5.610   5.990  0.1405  0.1617  1.7422
  159SAPE  C21817727   0.848   5.405   6.054 -0.1513 -0.2864 -0.6914
  159SAPE  H18R17728   0.944   5.369   6.013  0.0223 -0.1090 -0.4450
  159SAPE  H18S17729   0.765   5.339   6.021 -1.1018  1.2195 -1.4219
  159SAPE  C21917730   0.868   5.407   6.210  0.1457 -0.5607  0.0854
  159SAPE  H19R17731   0.924   5.317   6.245  0.2520 -0.5014  0.0679
  159SAPE  H19S17732   0.767   5.413   6.256 -0.4891  0.5896 -1.4033
  159SAPE  C22017733   0.953   5.532   6.242  0.6798  0.2020 -0.2952
  159SAPE  H20R17734   1.049   5.536   6.187  0.9509 -0.3638  0.1293
  159SAPE  H20S17735   0.949   5.542   6.352 -1.1674 -2.0830 -0.0705
  159SAPE  H20T17736   0.897   5.620   6.204  1.8787  0.4976 -1.4609
  159SAPE   C3317737   1.244   4.982   4.882 -0.7095 -0.8394  0.1206
  159SAPE   H3X17738   1.191   5.078   4.860  0.5745 -0.4692 -1.4650
  159SAPE   H3Y17739   1.346   4.997   4.923  0.7215 -4.5349 -1.5816
  159SAPE   C3417740   1.175   4.907   4.995 -0.1464 -0.8737 -0.2209
  159SAPE   H4X17741   1.239   4.819   5.020  0.1066 -1.0808 -1.5310
  159SAPE   H4Y17742   1.074   4.868   4.970 -0.7596  0.5670 -0.1095
  159SAPE   C3517743   1.161   5.000   5.119  0.4883  0.4645 -0.5645
  159SAPE   H5X17744   1.077   5.072   5.107 -0.7267 -0.1244  3.1303
  159SAPE   H5Y17745   1.251   5.063   5.133 -1.0779  3.3101 -2.3319
  159SAPE   C3617746   1.135   4.935   5.252 -0.3075  0.4453 -0.2188
  159SAPE   H6X17747   1.226   4.877   5.280  0.2452  1.8917  1.1403
  159SAPE   H6Y17748   1.043   4.874   5.238 -1.5301  1.8505  1.2446
  159SAPE   C3717749   1.104   5.028   5.369  0.5150  0.0840 -0.7701
  159SAPE   H7X17750   1.015   5.093   5.352  0.7089  0.5044 -0.2096
  159SAPE   H7Y17751   1.194   5.091   5.382  0.7383 -0.4335  0.3264
  159SAPE   C3817752   1.097   4.951   5.504 -0.0156  0.2248 -0.1385
  159SAPE   H8X17753   1.198   4.918   5.535  0.4552  0.1092 -1.6897
  159SAPE   H8Y17754   1.019   4.873   5.495 -0.8286  1.0705 -0.6220
  159SAPE   C3917755   1.027   5.041   5.610  0.1659 -0.1488 -0.0504
  159SAPE   H9X17756   0.927   5.060   5.565  0.5689 -0.4947 -1.1428
  159SAPE   H9Y17757   1.081   5.138   5.600 -0.3352  0.0818 -0.5799
  159SAPE  C31017758   1.028   4.981   5.749  0.0309 -0.9487 -0.7797
  159SAPE  H10X17759   1.120   4.996   5.810 -0.8914  2.2436  0.0478
  159SAPE  H10Y17760   1.021   4.872   5.732  0.0717 -0.9463 -0.8100
  159SAPE  C31117761   0.905   5.027   5.831  0.4437 -0.6849 -0.5482
  159SAPE  H11X17762   0.822   5.012   5.758  0.7679  0.0700 -1.0894
  159SAPE  H11Y17763   0.907   5.135   5.852  0.6875 -0.7564 -0.2019
  159SAPE  C31217764   0.879   4.956   5.960 -0.2948  0.3519 -0.2239
  159SAPE  H12X17765   0.964   4.971   6.029 -2.1102  2.5001  1.7022
  159SAPE  H12Y17766   0.871   4.848   5.936  1.3726  0.6452 -2.4795
  159SAPE  C31317767   0.765   5.005   6.038 -0.2973  0.3891  0.6044
  159SAPE  H13X17768   0.672   4.993   5.979 -0.2769 -1.7553  0.9307
  159SAPE  H13Y17769   0.768   5.115   6.054  0.8123  0.9337 -2.5257
  159SAPE  C31417770   0.750   4.936   6.175 -0.3764 -0.6246  0.1252
  159SAPE  H14X17771   0.832   4.985   6.232 -0.2696 -0.7959  0.1190
  159SAPE  H14Y17772   0.761   4.826   6.165  1.9670 -0.4241  0.0473
  159SAPE  C31517773   0.617   4.969   6.244 -0.2297  0.2436 -0.4259
  159SAPE  H15X17774   0.535   4.925   6.184  0.3781 -0.0418 -1.0530
  159SAPE  H15Y17775   0.596   5.076   6.223 -0.0043  0.5181  0.6597
  159SAPE  C31617776   0.598   4.930   6.394 -0.1807 -0.1026 -0.3445
  159SAPE  H16X17777   0.580   4.821   6.392 -3.5926  0.3476  0.4330
  159SAPE  H16Y17778   0.499   4.976   6.413 -0.2958  1.1634 -3.3715
  159SAPE  C31717779   0.709   4.991   6.484  0.2729 -0.7388 -0.5131
  159SAPE  H17X17780   0.814   4.967   6.456  0.8704  1.2947 -0.2013
  159SAPE  H17Y17781   0.716   4.945   6.585  1.1274 -1.8280 -1.0439
  159SAPE  C31817782   0.699   5.144   6.498  0.9785  0.1489  0.1287
  159SAPE  H18X17783   0.673   5.181   6.599  0.7461  0.1950  0.0537
  159SAPE  H18Y17784   0.617   5.192   6.440  0.0298  0.5740  1.7689
  159SAPE  H18Z17785   0.786   5.200   6.458  0.8191  1.6950  1.8438
  160SAPE     N17786   2.128   1.648   4.543 -0.1084 -0.3167 -0.3652
  160SAPE   HN117787   2.026   1.667   4.540 -0.3287 -0.7969  1.8187
  160SAPE   HN217788   2.159   1.614   4.637  1.9201  2.3036  0.0089
  160SAPE   HN317789   2.162   1.745   4.531 -0.3863 -0.1168  0.3817
  160SAPE   C1217790   2.176   1.582   4.420 -0.2573  1.0085 -0.7388
  160SAPE  H12A17791   2.180   1.472   4.431 -0.4859  0.8758 -1.8552
  160SAPE  H12B17792   2.283   1.611   4.410  0.9512 -2.1174  1.5894
  160SAPE   C1117793   2.086   1.607   4.292  0.4640 -0.2350  0.3897
  160SAPE  H11A17794   2.117   1.547   4.204  1.4270  0.0051  0.5446
  160SAPE  H11B17795   2.098   1.713   4.261 -1.4348 -0.7408 -2.4375
  160SAPE     P17796   1.834   1.685   4.347  0.1934 -0.1607  0.1738
  160SAPE   O1317797   1.851   1.805   4.263  0.3536  0.5806  0.4482
  160SAPE   O1417798   1.706   1.610   4.353 -0.0712 -0.3220 -0.3963
  160SAPE   O1217799   1.947   1.591   4.311  0.8011  0.1924  0.1778
  160SAPE   O1117800   1.873   1.731   4.493 -0.4391  0.3609  0.2563
  160SAPE    C117801   1.796   1.811   4.581  0.0955 -0.6791 -0.4176
  160SAPE    HA17802   1.756   1.902   4.531  0.8263  1.3516  2.4234
  160SAPE    HB17803   1.709   1.752   4.615  0.5030 -0.9420  0.1843
  160SAPE    C217804   1.884   1.867   4.704  0.0615  0.3056 -0.2489
  160SAPE    HS17805   1.958   1.933   4.654 -1.9718  0.7534 -2.8720
  160SAPE   O2117806   1.941   1.758   4.775 -0.9393  0.0742  0.4386
  160SAPE   C2117807   2.009   1.792   4.884 -0.4989  0.7565  0.2408
  160SAPE   O2217808   2.059   1.896   4.910 -0.3273  0.5154 -0.2479
  160SAPE   C2217809   2.027   1.669   4.972 -0.1296  0.2375 -0.7598
  160SAPE   H2R17810   1.929   1.631   5.007 -0.4662  2.7794  1.3675
  160SAPE   H2S17811   2.079   1.595   4.907  0.0775 -0.1918 -0.1157
  160SAPE    C317812   1.788   1.963   4.788 -0.7369 -0.4855  0.0217
  160SAPE    HX17813   1.695   1.971   4.727 -1.4368  0.6743  1.1743
  160SAPE    HY17814   1.838   2.060   4.805 -0.4631 -0.5401 -0.4603
  160SAPE   O3117815   1.761   1.921   4.926 -0.2554 -0.5982 -0.1095
  160SAPE   C3117816   1.656   1.853   4.950  0.3335  0.2534 -0.0891
  160SAPE   O3217817   1.594   1.784   4.873 -0.3391 -0.2113 -0.5916
  160SAPE   C3217818   1.625   1.856   5.099 -0.1000 -0.0477 -0.7062
  160SAPE   H2X17819   1.674   1.767   5.144  1.1041  0.6025 -0.6961
  160SAPE   H2Y17820   1.518   1.831   5.116  0.3867  0.0472  3.5161
  160SAPE   C2317821   2.139   1.672   5.079 -0.4700 -0.5927  0.1707
  160SAPE   H3R17822   2.231   1.718   5.035 -0.2541 -0.9290  0.2666
  160SAPE   H3S17823   2.161   1.572   5.122 -0.2245 -0.3770  0.5491
  160SAPE   C2417824   2.099   1.755   5.199 -0.4679 -0.2489  0.6248
  160SAPE   H4R17825   1.995   1.728   5.229 -0.5611 -0.5138  0.0691
  160SAPE   H4S17826   2.102   1.860   5.164 -1.2212 -0.5961 -0.5341
  160SAPE   C2517827   2.206   1.744   5.305  0.3338 -0.0522 -0.5268
  160SAPE   H5R17828   2.312   1.762   5.282  0.0905  0.2977 -1.4111
  160SAPE   C2617829   2.186   1.718   5.435 -0.2420  0.0736  0.4133
  160SAPE   H6R17830   2.276   1.700   5.496 -0.2614  0.7127  0.6349
  160SAPE   C2717831   2.053   1.691   5.495  0.1599  0.4229  0.0047
  160SAPE   H7R17832   2.037   1.583   5.513 -0.3596  0.2579 -1.4025
  160SAPE   H7S17833   1.973   1.729   5.429  1.2277  0.7094 -1.1744
  160SAPE   C2817834   2.039   1.757   5.630  0.0042  0.7903  0.3812
  160SAPE   H8R17835   2.015   1.864   5.619 -2.7600  0.0585 -1.8864
  160SAPE   C2917836   2.041   1.711   5.755 -0.5038  0.4151  0.2397
  160SAPE   H9R17837   2.033   1.784   5.836  0.8228  0.2363  0.5481
  160SAPE  C21017838   2.058   1.566   5.794 -0.6268  0.0541 -0.3295
  160SAPE  H10R17839   2.152   1.521   5.756 -0.5619  0.1861 -0.3228
  160SAPE  H10S17840   1.978   1.501   5.751 -0.6090 -0.6541  0.6767
  160SAPE  C21117841   2.055   1.545   5.941  0.7358  0.2189 -0.5184
  160SAPE  H11R17842   2.103   1.627   5.996  1.2147 -0.5446  0.2228
  160SAPE  C21217843   1.998   1.440   6.013  0.1166  0.1870  0.6109
  160SAPE  H12R17844   2.027   1.441   6.120  0.2147  1.1536  0.5843
  160SAPE  C21317845   1.937   1.314   5.962 -0.5847  0.2148 -0.5645
  160SAPE  H13R17846   1.931   1.237   6.043  0.6113 -0.4732 -1.0976
  160SAPE  H13S17847   1.988   1.257   5.881 -1.8043 -4.1790  1.4184
  160SAPE  C21417848   1.795   1.343   5.928  0.6397  0.2788  0.0158
  160SAPE  H14R17849   1.767   1.444   5.897 -0.8747 -0.0338  0.2863
  160SAPE  C21517850   1.692   1.258   5.951 -0.2776  0.2476  0.2028
  160SAPE  H15R17851   1.589   1.293   5.935 -0.4550 -0.4907 -0.3378
  160SAPE  C21617852   1.707   1.121   6.012 -0.2101  0.1042 -0.0021
  160SAPE  H16R17853   1.808   1.081   5.990 -0.8672 -0.2227 -2.8630
  160SAPE  H16S17854   1.636   1.058   5.954 -1.3580  0.4742  0.9537
  160SAPE  C21717855   1.670   1.125   6.163 -0.5763  0.0371 -0.1137
  160SAPE  H17R17856   1.693   1.024   6.204  1.7006  0.3405 -0.4697
  160SAPE  H17S17857   1.561   1.145   6.160 -0.3264  1.4835 -2.6031
  160SAPE  C21817858   1.740   1.231   6.254 -0.2528 -0.3604  0.7118
  160SAPE  H18R17859   1.770   1.324   6.200  0.5446 -0.5743  0.7687
  160SAPE  H18S17860   1.838   1.189   6.285  0.6074  1.3571  0.4745
  160SAPE  C21917861   1.654   1.261   6.384 -0.0213  0.0118 -1.0384
  160SAPE  H19R17862   1.564   1.318   6.352 -1.4520 -0.8380  1.2343
  160SAPE  H19S17863   1.721   1.318   6.452 -1.0739  1.7732 -1.4184
  160SAPE  C22017864   1.602   1.134   6.452  0.0860 -0.2465 -0.4375
  160SAPE  H20R17865   1.562   1.144   6.555  1.4751  0.5254  0.0452
  160SAPE  H20S17866   1.688   1.063   6.452  0.6992  0.3289  3.1457
  160SAPE  H20T17867   1.525   1.092   6.383 -0.6123  0.9803 -0.4183
  160SAPE   C3317868   1.666   1.980   5.187 -0.2630 -0.4954  0.0572
  160SAPE   H3X17869   1.580   2.048   5.206  0.3280 -0.1129  1.4968
  160SAPE   H3Y17870   1.743   2.029   5.124  0.2355 -0.3991  0.7356
  160SAPE   C3417871   1.737   1.949   5.318  0.4266  0.5113 -0.3152
  160SAPE   H4X17872   1.787   2.042   5.350  1.0557 -0.2668  1.0309
  160SAPE   H4Y17873   1.823   1.880   5.305 -0.2041 -0.7518  1.8059
  160SAPE   C3517874   1.631   1.905   5.417 -0.2363  0.1911 -1.0778
  160SAPE   H5X17875   1.594   1.812   5.369  1.1470 -0.5203 -0.8040
  160SAPE   H5Y17876   1.550   1.981   5.416 -1.7057 -1.3157 -0.9990
  160SAPE   C3617877   1.683   1.890   5.563 -0.6598 -0.2131  0.1767
  160SAPE   H6X17878   1.708   1.991   5.601 -0.1206 -1.1993  2.6125
  160SAPE   H6Y17879   1.774   1.827   5.566  0.6558  1.3870 -2.3530
  160SAPE   C3717880   1.590   1.834   5.670 -0.7414 -0.7567 -0.0579
  160SAPE   H7X17881   1.558   1.731   5.643 -2.8969  0.2124 -1.4373
  160SAPE   H7Y17882   1.498   1.893   5.688 -0.5611 -1.2119  3.0708
  160SAPE   C3817883   1.669   1.809   5.802  0.7294  0.0734 -0.5488
  160SAPE   H8X17884   1.725   1.904   5.817  1.4671 -0.6636  1.6814
  160SAPE   H8Y17885   1.752   1.740   5.776  1.2216 -0.0851  1.3360
  160SAPE   C3917886   1.590   1.754   5.929 -0.4281 -0.6065 -0.1076
  160SAPE   H9X17887   1.543   1.662   5.887  2.6794 -0.1566 -5.5827
  160SAPE   H9Y17888   1.514   1.830   5.956  1.0322  0.9130 -0.1435
  160SAPE  C31017889   1.666   1.723   6.059  0.3111 -0.1035  1.0079
  160SAPE  H10X17890   1.750   1.794   6.076 -0.2017  0.8959 -0.4641
  160SAPE  H10Y17891   1.710   1.625   6.033 -0.0965  0.4855 -2.4159
  160SAPE  C31117892   1.574   1.708   6.182  0.6021  0.1810 -0.5550
  160SAPE  H11X17893   1.530   1.608   6.161  0.3161 -0.2003  1.6385
  160SAPE  H11Y17894   1.492   1.781   6.161 -1.1206 -1.6571 -0.4715
  160SAPE  C31217895   1.641   1.704   6.320  0.1375 -0.7019  1.1234
  160SAPE  H12X17896   1.708   1.792   6.316 -0.1190 -0.5528 -0.5662
  160SAPE  H12Y17897   1.703   1.612   6.326  0.9079 -0.1185  2.3523
  160SAPE  C31317898   1.552   1.707   6.438  0.0600  0.2583 -0.1631
  160SAPE  H13X17899   1.463   1.771   6.424 -0.9939 -0.9893  0.5792
  160SAPE  H13Y17900   1.597   1.759   6.526 -1.5195 -0.2301  0.9787
  160SAPE  C31417901   1.495   1.566   6.488 -0.4932 -0.8978  0.5955
  160SAPE  H14X17902   1.569   1.483   6.482 -0.4570 -0.9720  1.7688
  160SAPE  H14Y17903   1.419   1.546   6.410 -1.1481  0.9164  0.7093
  160SAPE  C31517904   1.427   1.584   6.632 -0.2220  0.7459 -0.0894
  160SAPE  H15X17905   1.341   1.654   6.619  2.0147  3.5152 -1.1833
  160SAPE  H15Y17906   1.501   1.625   6.703  0.2915  0.5322 -0.4949
  160SAPE  C31617907   1.382   1.448   6.688  0.4874  0.5289  0.0180
  160SAPE  H16X17908   1.339   1.449   6.791  0.8211  1.6010  0.1598
  160SAPE  H16Y17909   1.472   1.384   6.703  0.7730  1.4648  3.1138
  160SAPE  C31717910   1.287   1.373   6.590  0.7284 -0.0545  0.2431
  160SAPE  H17X17911   1.249   1.291   6.655 -0.9081  0.5940  0.1733
  160SAPE  H17Y17912   1.347   1.338   6.504  2.3775  2.1989  0.3840
  160SAPE  C31817913   1.168   1.456   6.543 -0.1933  0.0558 -0.1326
  160SAPE  H18X17914   1.194   1.551   6.491 -2.1608  0.9240  0.3653
  160SAPE  H18Y17915   1.097   1.493   6.619 -1.9168 -1.2648 -1.0085
  160SAPE  H18Z17916   1.106   1.408   6.463  1.2876  0.7001 -1.7358
  161SAPE     N17917   0.518   0.323   4.467  0.0974  0.2895 -0.5107
  161SAPE   HN117918   0.448   0.312   4.390  0.7180  1.7284 -1.3180
  161SAPE   HN217919   0.480   0.384   4.542 -1.2704  1.0353 -1.7619
  161SAPE   HN317920   0.596   0.380   4.429  0.4710 -0.4714 -0.9052
  161SAPE   C1217921   0.574   0.191   4.514 -0.3756 -0.3072 -0.0611
  161SAPE  H12A17922   0.488   0.122   4.522 -1.1298  0.8138  2.8272
  161SAPE  H12B17923   0.611   0.193   4.618 -1.7719  0.0023  0.4467
  161SAPE   C1117924   0.686   0.150   4.423 -0.1035 -0.4142  0.1971
  161SAPE  H11A17925   0.647   0.126   4.321 -0.9007 -0.1277  0.4263
  161SAPE  H11B17926   0.736   0.057   4.454  2.3897  1.0088  0.6780
  161SAPE     P17927   0.914   0.261   4.506 -0.2204  0.2874  0.2787
  161SAPE   O1317928   1.002   0.149   4.459  0.2380  0.1475 -0.4320
  161SAPE   O1417929   0.974   0.393   4.493  0.2335  0.0113 -0.1769
  161SAPE   O1217930   0.781   0.257   4.423  0.1228 -0.3792  0.3174
  161SAPE   O1117931   0.861   0.234   4.656  0.4008  1.1553  0.1919
  161SAPE    C117932   0.951   0.196   4.759  0.5144 -0.2578 -0.2329
  161SAPE    HA17933   0.993   0.098   4.729 -0.3897  0.2747 -3.7525
  161SAPE    HB17934   1.039   0.263   4.762  2.0476 -2.1794 -0.5707
  161SAPE    C217935   0.880   0.197   4.890 -0.2588  0.5803  0.0001
  161SAPE    HS17936   0.794   0.127   4.892 -0.4305  0.8005  1.1655
  161SAPE   O2117937   0.848   0.335   4.927  0.2247  0.0886  0.2347
  161SAPE   C2117938   0.761   0.344   5.029  0.1979 -0.7079 -0.4266
  161SAPE   O2217939   0.742   0.259   5.109  0.3433 -0.4006 -0.3223
  161SAPE   C2217940   0.684   0.474   5.025 -0.0397 -0.1670  0.1314
  161SAPE   H2R17941   0.758   0.555   5.005 -0.2030 -0.0779 -0.1126
  161SAPE   H2S17942   0.617   0.460   4.939 -0.6592  0.1311  0.5565
  161SAPE    C317943   0.978   0.137   4.994 -0.0383  1.0290 -0.1624
  161SAPE    HX17944   0.942   0.126   5.098  1.1985 -1.2408  0.0840
  161SAPE    HY17945   1.059   0.212   4.991  0.3166  0.6259 -1.9789
  161SAPE   O3117946   1.040   0.008   4.956  0.2474 -0.0753  0.1571
  161SAPE   C3117947   1.168  -0.008   4.990 -1.4441 -0.0999  0.9740
  161SAPE   O3217948   1.239   0.076   5.044 -0.3715  0.1618  0.0717
  161SAPE   C3217949   1.217  -0.149   4.958 -0.1357  0.7887 -0.1570
  161SAPE   H2X17950   1.275  -0.143   4.863 -1.6066  0.2989 -1.1237
  161SAPE   H2Y17951   1.129  -0.215   4.942  0.9544 -0.6581 -0.3621
  161SAPE   C2317952   0.604   0.498   5.152  0.7140 -0.3085  0.0442
  161SAPE   H3R17953   0.679   0.539   5.223  2.2927 -1.2227 -1.0138
  161SAPE   H3S17954   0.553   0.412   5.200  0.0642  0.9211  1.6404
  161SAPE   C2417955   0.498   0.610   5.123 -0.4515  0.0959 -0.1367
  161SAPE   H4R17956   0.539   0.687   5.055 -1.1048  0.1441 -0.4839
  161SAPE   H4S17957   0.493   0.657   5.224 -1.7495 -0.1333 -0.0723
  161SAPE   C2517958   0.369   0.569   5.064  0.0898 -0.1520 -0.8380
  161SAPE   H5R17959   0.376   0.503   4.976  2.8790  0.4854 -1.2137
  161SAPE   C2617960   0.250   0.616   5.109 -0.2881 -0.1335 -0.3856
  161SAPE   H6R17961   0.160   0.583   5.055  0.4560 -1.4914 -0.8218
  161SAPE   C2717962   0.236   0.715   5.221 -0.5026  0.0302 -0.3957
  161SAPE   H7R17963   0.297   0.683   5.308 -1.2325  1.3481  0.6265
  161SAPE   H7S17964   0.130   0.711   5.253 -1.2754  1.4942 -2.5219
  161SAPE   C2817965   0.260   0.857   5.178 -0.0619 -0.5351  0.5460
  161SAPE   H8R17966   0.218   0.887   5.082  0.0178  2.7570  1.4092
  161SAPE   C2917967   0.329   0.956   5.237 -0.1313 -0.4044  0.0553
  161SAPE   H9R17968   0.348   1.046   5.177  0.8200 -0.7539 -0.1935
  161SAPE  C21017969   0.395   0.941   5.371 -0.6876 -0.1950 -0.2341
  161SAPE  H10R17970   0.469   0.859   5.355 -3.5408 -2.7250 -1.4375
  161SAPE  H10S17971   0.321   0.903   5.444 -0.7730 -0.2334 -0.3398
  161SAPE  C21117972   0.473   1.065   5.429  0.0529  0.3385  0.2926
  161SAPE  H11R17973   0.516   1.121   5.345  1.2195 -3.0600 -1.5822
  161SAPE  C21217974   0.480   1.101   5.561 -0.5769 -0.5209  0.4793
  161SAPE  H12R17975   0.535   1.195   5.574 -1.7933  0.3939 -0.7608
  161SAPE  C21317976   0.425   1.039   5.681  0.5821 -0.3365  0.5292
  161SAPE  H13R17977   0.328   0.991   5.655 -0.2850  1.0872  1.0091
  161SAPE  H13S17978   0.396   1.118   5.754 -0.2106 -0.2181  0.0930
  161SAPE  C21417979   0.530   0.955   5.746  0.0174  1.0942  0.6049
  161SAPE  H14R17980   0.619   1.002   5.791  1.0458 -0.5982  0.4349
  161SAPE  C21517981   0.541   0.819   5.746  0.5482 -0.6958 -0.7560
  161SAPE  H15R17982   0.625   0.769   5.798 -0.4618  0.2045  1.9556
  161SAPE  C21617983   0.444   0.726   5.692 -0.8041 -0.5366  0.5789
  161SAPE  H16R17984   0.492   0.661   5.616  0.0326  0.3632  0.3191
  161SAPE  H16S17985   0.381   0.778   5.616  1.5246 -1.7312 -2.3295
  161SAPE  C21717986   0.364   0.638   5.791  0.4639  0.2491  0.2289
  161SAPE  H17R17987   0.312   0.702   5.866  1.9368  0.8773  0.7638
  161SAPE  H17S17988   0.433   0.578   5.853  0.6475  1.6357  1.4380
  161SAPE  C21817989   0.271   0.538   5.717 -0.2852 -0.5779 -0.1465
  161SAPE  H18R17990   0.347   0.470   5.674  0.5401 -1.0442  1.9237
  161SAPE  H18S17991   0.217   0.601   5.643  1.9211  3.9217  1.7121
  161SAPE  C21917992   0.163   0.469   5.808  0.5594  0.3860  0.4701
  161SAPE  H19R17993   0.100   0.404   5.743  2.4599 -0.9340 -0.1343
  161SAPE  H19S17994   0.093   0.548   5.844  0.4602  0.2890  0.4897
  161SAPE  C22017995   0.221   0.400   5.934 -0.2048  0.9576 -0.2942
  161SAPE  H20R17996   0.256   0.297   5.913 -1.7930  0.1399  0.8507
  161SAPE  H20S17997   0.139   0.381   6.007  0.9491 -0.7762  0.6410
  161SAPE  H20T17998   0.295   0.462   5.989  1.0110 -0.4071 -0.3385
  161SAPE   C3317999   1.316  -0.207   5.059  0.3267  0.1228  0.7842
  161SAPE   H3X18000   1.403  -0.141   5.079  0.1689  0.5264  0.1836
  161SAPE   H3Y18001   1.350  -0.298   5.006  0.0787  0.0573  0.7384
  161SAPE   C3418002   1.244  -0.246   5.189  0.1723  1.2203 -0.9810
  161SAPE   H4X18003   1.292  -0.337   5.229 -0.0587  1.4623 -0.1434
  161SAPE   H4Y18004   1.137  -0.262   5.166  0.3307 -1.4510 -0.1528
  161SAPE   C3518005   1.239  -0.130   5.292 -0.1059 -0.1962  0.7740
  161SAPE   H5X18006   1.155  -0.061   5.269 -0.7814 -1.2986 -0.1682
  161SAPE   H5Y18007   1.332  -0.072   5.276 -0.1375 -0.4844 -0.6076
  161SAPE   C3618008   1.212  -0.177   5.440  0.8537  0.1805 -0.0625
  161SAPE   H6X18009   1.118  -0.236   5.433  1.0413 -0.6718  2.9461
  161SAPE   H6Y18010   1.181  -0.089   5.500  0.1580  0.0105 -0.1654
  161SAPE   C3718011   1.323  -0.249   5.521 -0.6898 -0.2198 -0.8827
  161SAPE   H7X18012   1.426  -0.206   5.513 -0.3374 -1.3195 -2.8303
  161SAPE   H7Y18013   1.333  -0.355   5.489 -0.4347 -0.2850 -0.6011
  161SAPE   C3818014   1.300  -0.238   5.676 -0.0257  0.2752  0.1810
  161SAPE   H8X18015   1.223  -0.315   5.698  2.7517 -2.0679  2.5631
  161SAPE   H8Y18016   1.253  -0.138   5.687 -0.6264  0.1771 -1.2596
  161SAPE   C3918017   1.420  -0.239   5.771 -0.2927  0.4797 -0.0881
  161SAPE   H9X18018   1.479  -0.150   5.744  0.0166  1.3874  3.1769
  161SAPE   H9Y18019   1.488  -0.326   5.775  1.4558  1.8044 -0.1542
  161SAPE  C31018020   1.391  -0.216   5.923 -0.4147 -0.1899  0.8318
  161SAPE  H10X18021   1.482  -0.187   5.980 -0.2965  0.5818  0.2655
  161SAPE  H10Y18022   1.354  -0.312   5.966  0.3101 -1.5717 -1.4736
  161SAPE  C31118023   1.279  -0.105   5.956 -0.0713 -0.1306 -0.8581
  161SAPE  H11X18024   1.189  -0.140   5.902  0.4572 -1.5868 -0.8433
  161SAPE  H11Y18025   1.300  -0.007   5.907  0.2429  0.5676  0.6228
  161SAPE  C31218026   1.252  -0.091   6.114  0.0443  0.2785  0.8878
  161SAPE  H12X18027   1.349  -0.070   6.164 -0.1024  1.4293  0.7172
  161SAPE  H12Y18028   1.214  -0.183   6.163 -1.5313 -0.3738 -1.3573
  161SAPE  C31318029   1.165   0.038   6.140  0.3092 -0.0971 -0.2661
  161SAPE  H13X18030   1.060   0.011   6.117  0.0237  1.9502 -1.7206
  161SAPE  H13Y18031   1.191   0.121   6.070 -1.5125  1.1838  0.4982
  161SAPE  C31418032   1.156   0.098   6.284  0.1158 -0.1356 -0.3529
  161SAPE  H14X18033   1.112   0.036   6.365  1.3703  2.9628  2.9812
  161SAPE  H14Y18034   1.088   0.185   6.281  0.1879 -0.1133 -1.7722
  161SAPE  C31518035   1.288   0.150   6.352  0.0236  0.4529 -0.1608
  161SAPE  H15X18036   1.356   0.205   6.285  1.0963 -2.0492 -1.2340
  161SAPE  H15Y18037   1.337   0.055   6.381 -1.3555 -0.7274 -1.5124
  161SAPE  C31618038   1.261   0.233   6.478  0.1676  0.3747  0.1206
  161SAPE  H16X18039   1.355   0.226   6.537 -0.1778 -0.1678  0.6153
  161SAPE  H16Y18040   1.183   0.181   6.538 -0.4153  1.7449  0.5744
  161SAPE  C31718041   1.215   0.380   6.450 -0.1376 -0.3957 -0.0212
  161SAPE  H17X18042   1.144   0.389   6.365  0.3143 -1.9836 -0.6132
  161SAPE  H17Y18043   1.305   0.436   6.417 -1.5278  0.5339 -2.4967
  161SAPE  C31818044   1.151   0.455   6.568  0.3258 -0.7045 -0.1952
  161SAPE  H18X18045   1.212   0.425   6.656  0.3916 -1.9343 -0.6437
  161SAPE  H18Y18046   1.042   0.434   6.569  0.5707 -2.0754  0.2889
  161SAPE  H18Z18047   1.160   0.564   6.547 -1.3520 -0.6410 -0.7160
  162SAPE     N18048   5.111   1.495   4.676  0.0437 -0.2536 -0.0343
  162SAPE   HN118049   5.037   1.431   4.642 -1.3823  0.5253  1.4332
  162SAPE   HN218050   5.137   1.563   4.601 -0.2443  1.5528  1.4273
  162SAPE   HN318051   5.196   1.442   4.704  0.4664  0.1471 -0.5493
  162SAPE   C1218052   5.057   1.582   4.797 -0.7432  0.2655  0.3061
  162SAPE  H12A18053   5.148   1.630   4.840 -1.3783  2.2233 -0.4343
  162SAPE  H12B18054   5.019   1.507   4.870  0.4790  0.2445  0.9495
  162SAPE   C1118055   4.950   1.686   4.750  0.5820  0.7549 -0.3604
  162SAPE  H11A18056   4.893   1.703   4.845  0.5604  1.4927 -0.4996
  162SAPE  H11B18057   4.881   1.628   4.686  0.7929  0.1710 -0.0688
  162SAPE     P18058   5.100   1.909   4.751  0.1317  0.1035 -0.0187
  162SAPE   O1318059   5.228   1.856   4.796 -0.1456  0.2068 -0.2832
  162SAPE   O1418060   5.101   2.026   4.659  0.2529 -0.1257  0.2424
  162SAPE   O1218061   5.006   1.797   4.690  0.8182  0.0261 -0.1554
  162SAPE   O1118062   5.026   1.960   4.888 -0.1222  0.2049 -0.6222
  162SAPE    C118063   4.891   2.012   4.886  0.2082 -0.1033  0.0742
  162SAPE    HA18064   4.831   1.977   4.799  3.3004 -2.4084 -1.3336
  162SAPE    HB18065   4.838   1.987   4.980  0.8024  2.5103  1.1954
  162SAPE    C218066   4.891   2.167   4.878  0.4333  0.1628  0.3488
  162SAPE    HS18067   4.957   2.203   4.797 -1.1729  1.5203 -0.4315
  162SAPE   O2118068   4.930   2.213   5.007  0.1824  0.0605 -0.1520
  162SAPE   C2118069   4.975   2.338   5.009 -0.2282 -0.0319 -0.1759
  162SAPE   O2218070   5.011   2.393   4.906  0.1384 -0.2470  0.2382
  162SAPE   C2218071   4.974   2.404   5.135  0.0364 -0.8819 -0.3140
  162SAPE   H2R18072   5.073   2.455   5.138  0.0464 -0.8666 -0.7564
  162SAPE   H2S18073   4.902   2.489   5.134 -1.1408 -1.8522 -0.1868
  162SAPE    C318074   4.753   2.225   4.853 -0.1250  0.8697 -0.6169
  162SAPE    HX18075   4.731   2.191   4.750 -0.6525 -3.8648  0.8176
  162SAPE    HY18076   4.760   2.336   4.846 -0.5426  0.9215 -0.2236
  162SAPE   O3118077   4.645   2.179   4.937  0.4561 -0.4681  0.0351
  162SAPE   C3118078   4.625   2.262   5.039  0.1954  0.2366 -0.3701
  162SAPE   O3218079   4.679   2.367   5.050 -0.8277  0.0747  0.1818
  162SAPE   C3218080   4.522   2.216   5.139 -0.5780 -0.2976  0.1022
  162SAPE   H2X18081   4.480   2.118   5.110  2.8896 -1.8633 -0.1484
  162SAPE   H2Y18082   4.443   2.294   5.143  0.5605  1.0692 -2.1301
  162SAPE   C2318083   4.951   2.326   5.268  0.4169  0.2993  0.2062
  162SAPE   H3R18084   4.997   2.226   5.251 -1.6200 -0.5606 -0.5867
  162SAPE   H3S18085   4.844   2.309   5.295  0.1047  0.8266 -0.6647
  162SAPE   C2418086   5.029   2.389   5.382  0.2478 -0.3965 -0.7495
  162SAPE   H4R18087   5.134   2.401   5.348  1.2801 -2.8738  1.1850
  162SAPE   H4S18088   5.023   2.319   5.468  3.2183  1.3172  1.0302
  162SAPE   C2518089   4.980   2.527   5.429  0.5705 -0.0119  0.3050
  162SAPE   H5R18090   5.006   2.614   5.367  0.2967 -1.1344 -1.4352
  162SAPE   C2618091   4.902   2.553   5.540  0.2036  0.4783 -0.1039
  162SAPE   H6R18092   4.877   2.659   5.558 -0.5715  1.0704 -3.8693
  162SAPE   C2718093   4.858   2.447   5.640 -0.3739  0.7662  0.0121
  162SAPE   H7R18094   4.947   2.382   5.654 -0.7903 -0.8972 -3.7926
  162SAPE   H7S18095   4.772   2.390   5.599 -0.9409 -0.1832  2.3465
  162SAPE   C2818096   4.810   2.492   5.778  0.0650 -0.5085  0.8081
  162SAPE   H8R18097   4.845   2.590   5.812  2.0754 -1.2759  1.0665
  162SAPE   C2918098   4.751   2.413   5.867  0.6020  0.0281 -0.4819
  162SAPE   H9R18099   4.720   2.442   5.968  0.5547 -0.1185 -0.4547
  162SAPE  C21018100   4.706   2.264   5.853 -0.0746  0.1293  0.8847
  162SAPE  H10R18101   4.737   2.202   5.940  0.7226  0.0630  0.5558
  162SAPE  H10S18102   4.757   2.222   5.764  0.7824  0.0870  1.3833
  162SAPE  C21118103   4.556   2.258   5.835  0.2180 -0.2596  0.8517
  162SAPE  H11R18104   4.520   2.256   5.731 -0.1955 -0.6396  0.9951
  162SAPE  C21218105   4.460   2.272   5.933 -0.7705  0.1249 -0.0903
  162SAPE  H12R18106   4.353   2.280   5.905 -1.3217  0.7227  1.9777
  162SAPE  C21318107   4.490   2.282   6.080 -0.1365 -0.0223 -0.2274
  162SAPE  H13R18108   4.600   2.284   6.095 -0.1768  1.0978 -0.0163
  162SAPE  H13S18109   4.468   2.189   6.138  1.2034 -0.0091  0.3448
  162SAPE  C21418110   4.435   2.402   6.152 -0.4672  0.1171 -0.1982
  162SAPE  H14R18111   4.465   2.496   6.103  2.3413 -0.7906 -0.4063
  162SAPE  C21518112   4.391   2.418   6.282 -0.7653  0.7595  0.0268
  162SAPE  H15R18113   4.361   2.519   6.312  2.4072  1.9406 -0.3870
  162SAPE  C21618114   4.353   2.304   6.378 -0.2217  0.4146  0.0887
  162SAPE  H16R18115   4.321   2.213   6.322 -0.9262  2.2217 -2.6786
  162SAPE  H16S18116   4.271   2.339   6.445  1.0305 -0.2055  2.0175
  162SAPE  C21718117   4.460   2.248   6.474 -0.3429 -0.2592  0.4343
  162SAPE  H17R18118   4.541   2.194   6.421  0.7454  1.2076  0.5290
  162SAPE  H17S18119   4.412   2.184   6.551  0.9735 -0.3193  1.2365
  162SAPE  C21818120   4.527   2.371   6.543 -0.5155 -0.0086 -0.4451
  162SAPE  H18R18121   4.453   2.433   6.597 -0.5517 -0.1599 -0.3185
  162SAPE  H18S18122   4.580   2.427   6.463  1.0685 -0.5927  0.1489
  162SAPE  C21918123   4.631   2.338   6.649 -0.7937  0.6070  0.0663
  162SAPE  H19R18124   4.673   2.434   6.685 -0.8484 -0.0165  1.8901
  162SAPE  H19S18125   4.709   2.269   6.610  0.5160  1.5258  0.9720
  162SAPE  C22018126   4.577   2.259   6.770  0.1636 -1.0851  0.3214
  162SAPE  H20R18127   4.567   2.155   6.733  1.4452 -1.3837  0.7736
  162SAPE  H20S18128   4.477   2.296   6.803  0.3447 -0.7781  0.5289
  162SAPE  H20T18129   4.644   2.261   6.859  1.5023  1.3215 -0.6518
  162SAPE   C3318130   4.581   2.204   5.284 -0.0352  0.1976 -0.5961
  162SAPE   H3X18131   4.498   2.196   5.357  0.3347  2.0058  0.0772
  162SAPE   H3Y18132   4.643   2.293   5.310 -0.1116  0.3413 -0.8992
  162SAPE   C3418133   4.653   2.069   5.301 -0.0071  0.2920 -0.3736
  162SAPE   H4X18134   4.716   2.062   5.210  0.1331 -0.6833 -0.2074
  162SAPE   H4Y18135   4.574   1.993   5.318  0.9647 -1.3342 -2.6466
  162SAPE   C3518136   4.737   2.066   5.425  0.3686 -0.4276 -0.0205
  162SAPE   H5X18137   4.690   2.102   5.520  1.8146 -0.7573  0.8629
  162SAPE   H5Y18138   4.825   2.133   5.408 -1.2422  1.6851 -0.4934
  162SAPE   C3618139   4.775   1.930   5.473  0.2842  0.0633 -0.2402
  162SAPE   H6X18140   4.848   1.890   5.400  0.1779  3.8724 -2.6831
  162SAPE   H6Y18141   4.682   1.869   5.484  0.3310  0.0029 -0.1804
  162SAPE   C3718142   4.844   1.930   5.609  0.4814 -0.2154 -0.0175
  162SAPE   H7X18143   4.769   1.956   5.686  1.3019  0.7188  0.4910
  162SAPE   H7Y18144   4.923   2.008   5.618 -0.1825  0.5113 -0.4152
  162SAPE   C3818145   4.899   1.797   5.647 -0.9159  0.6126  0.1190
  162SAPE   H8X18146   4.998   1.801   5.596  0.5951  0.6706  2.8602
  162SAPE   H8Y18147   4.839   1.707   5.621 -1.5671  1.0612  0.0559
  162SAPE   C3918148   4.947   1.791   5.792 -0.0997  0.4955  0.4999
  162SAPE   H9X18149   5.004   1.884   5.810 -2.0935  1.7945  0.3509
  162SAPE   H9Y18150   5.009   1.699   5.802 -0.2110  0.5863  2.3861
  162SAPE  C31018151   4.845   1.779   5.907 -0.1043  0.0524  0.1294
  162SAPE  H10X18152   4.762   1.712   5.877 -0.7487  0.3062  1.3060
  162SAPE  H10Y18153   4.804   1.880   5.926 -1.0717  0.1429 -2.1717
  162SAPE  C31118154   4.901   1.721   6.031 -0.2491  0.2006 -1.1055
  162SAPE  H11X18155   4.973   1.641   6.005 -0.0734 -0.3872  0.9774
  162SAPE  H11Y18156   4.824   1.673   6.096  0.5722  0.3399  0.0146
  162SAPE  C31218157   4.964   1.815   6.132  0.0744  0.5887 -0.8875
  162SAPE  H12X18158   4.904   1.872   6.206  1.9825 -0.0548  1.2493
  162SAPE  H12Y18159   5.015   1.892   6.069 -0.7126  3.3297  1.6276
  162SAPE  C31318160   5.072   1.748   6.219 -0.2153  0.1776 -0.0917
  162SAPE  H13X18161   5.142   1.693   6.153  2.0234  1.4152  1.0911
  162SAPE  H13Y18162   5.027   1.680   6.294  2.2223 -0.2157  1.1347
  162SAPE  C31418163   5.169   1.852   6.286 -0.1804 -0.8949 -0.4559
  162SAPE  H14X18164   5.123   1.950   6.310 -0.1513 -1.0635  0.3502
  162SAPE  H14Y18165   5.248   1.865   6.209 -0.4060 -1.5974 -0.8140
  162SAPE  C31518166   5.228   1.801   6.416  0.0514 -0.1507 -0.2652
  162SAPE  H15X18167   5.255   1.694   6.411 -2.3074 -0.8247  0.2054
  162SAPE  H15Y18168   5.148   1.802   6.492  0.6297  0.4157  0.3460
  162SAPE  C31618169   5.352   1.875   6.466 -0.0925 -0.2219  0.4371
  162SAPE  H16X18170   5.308   1.968   6.507 -1.4668 -0.3032 -0.8065
  162SAPE  H16Y18171   5.421   1.898   6.383  0.8921 -4.0437 -0.0312
  162SAPE  C31718172   5.418   1.823   6.599 -0.2041  0.6920  0.1053
  162SAPE  H17X18173   5.344   1.804   6.680  1.0562 -1.2744  0.8520
  162SAPE  H17Y18174   5.484   1.907   6.631 -0.1067  1.3677 -1.7268
  162SAPE  C31818175   5.515   1.707   6.576 -0.2058  0.2020  0.1187
  162SAPE  H18X18176   5.465   1.615   6.539 -2.0054  1.8781 -1.9555
  162SAPE  H18Y18177   5.570   1.681   6.668  1.0834  2.3126  0.0223
  162SAPE  H18Z18178   5.586   1.739   6.497  0.1404 -1.8809 -0.4585
  163SAPE     N18179   4.102   6.090   4.371  0.3554  0.0089  0.5843
  163SAPE   HN118180   4.123   6.166   4.304 -0.8392  1.0989  1.3892
  163SAPE   HN218181   4.162   6.115   4.452  1.3586  1.5074 -0.5667
  163SAPE   HN318182   4.134   5.997   4.337 -1.2890 -0.6520  0.7187
  163SAPE   C1218183   3.958   6.081   4.412  0.3759 -0.6163  0.1726
  163SAPE  H12A18184   3.959   6.028   4.510 -1.3449  0.6494  0.9312
  163SAPE  H12B18185   3.897   6.031   4.334  0.5948  0.8005 -0.9441
  163SAPE   C1118186   3.891   6.220   4.427  0.7775  0.3978  0.3703
  163SAPE  H11A18187   3.939   6.272   4.513  2.5095 -0.7606  0.1496
  163SAPE  H11B18188   3.787   6.202   4.462  0.4550  0.4812 -0.5362
  163SAPE     P18189   3.953   6.435   4.287  0.2619  0.1288  0.2021
  163SAPE   O1318190   4.098   6.406   4.266  0.0860 -0.5357 -0.3035
  163SAPE   O1418191   3.895   6.503   4.173  0.3877 -0.0181 -0.6798
  163SAPE   O1218192   3.881   6.291   4.307 -0.0728  0.0099  0.4861
  163SAPE   O1118193   3.925   6.508   4.419  0.2978  0.1334  0.5461
  163SAPE    C118194   3.793   6.536   4.460  0.4913 -0.2388  0.2184
  163SAPE    HA18195   3.746   6.614   4.397  1.1899 -0.1482 -0.2057
  163SAPE    HB18196   3.721   6.451   4.453 -0.2943  0.5230 -1.9315
  163SAPE    C218197   3.784   6.598   4.607  0.1726  0.3745 -0.1631
  163SAPE    HS18198   3.845   6.691   4.594  0.9045 -0.3327 -2.1487
  163SAPE   O2118199   3.839   6.503   4.706  0.0631  0.1576 -0.2312
  163SAPE   C2118200   3.924   6.559   4.792 -0.2558 -0.7997  0.6764
  163SAPE   O2218201   3.953   6.678   4.793 -0.2621 -0.3876 -0.2665
  163SAPE   C2218202   3.955   6.450   4.895  0.3141 -0.2702  0.6336
  163SAPE   H2R18203   3.871   6.377   4.901  0.4570 -0.8922 -2.8509
  163SAPE   H2S18204   4.037   6.392   4.849  0.4362 -0.4061  1.0227
  163SAPE    C318205   3.639   6.629   4.646  0.3455 -0.1403  0.1154
  163SAPE    HX18206   3.582   6.537   4.621 -0.2985  0.5261 -0.9370
  163SAPE    HY18207   3.604   6.709   4.577  2.2488  0.2706 -0.4287
  163SAPE   O3118208   3.618   6.680   4.783  0.6188  0.0003  0.0601
  163SAPE   C3118209   3.490   6.713   4.809 -0.6200  0.4752  0.3594
  163SAPE   O3218210   3.403   6.701   4.723  0.3459  0.3150 -0.2132
  163SAPE   C3218211   3.471   6.761   4.954  0.4298 -0.2920  0.7957
  163SAPE   H2X18212   3.380   6.824   4.942 -0.1078 -1.3338 -1.0276
  163SAPE   H2Y18213   3.553   6.836   4.960  1.4406 -0.7473 -3.5670
  163SAPE   C2318214   3.974   6.510   5.037  0.1729  0.0373  0.9597
  163SAPE   H3R18215   3.874   6.554   5.055 -1.6013 -3.8175  1.5458
  163SAPE   H3S18216   4.047   6.594   5.028  0.1082  0.1591  1.5097
  163SAPE   C2418217   4.020   6.408   5.143 -0.1562 -0.1797 -0.9505
  163SAPE   H4R18218   4.120   6.366   5.119 -1.4358 -2.8425 -1.9014
  163SAPE   H4S18219   3.950   6.324   5.125 -1.9941  0.3244  2.9358
  163SAPE   C2518220   4.016   6.453   5.286 -0.3795 -0.0584 -0.2227
  163SAPE   H5R18221   3.965   6.549   5.306 -0.0026 -0.0948  0.9986
  163SAPE   C2618222   4.077   6.394   5.391 -0.0041  0.7272 -0.5494
  163SAPE   H6R18223   4.074   6.437   5.492 -0.7674 -0.3853 -0.0733
  163SAPE   C2718224   4.149   6.262   5.382 -0.1985 -0.5640  1.2389
  163SAPE   H7R18225   4.251   6.286   5.421  0.8541 -0.6072 -1.2948
  163SAPE   H7S18226   4.162   6.225   5.278  0.1288  0.7766  0.7898
  163SAPE   C2818227   4.082   6.160   5.477 -0.7116 -0.1083  0.3351
  163SAPE   H8R18228   3.972   6.164   5.467 -0.5539 -0.5245 -2.1065
  163SAPE   C2918229   4.146   6.074   5.560 -0.0213  0.1510 -0.0506
  163SAPE   H9R18230   4.088   6.003   5.621 -0.8016 -0.2031 -1.1743
  163SAPE  C21018231   4.294   6.056   5.572  0.6954 -0.2936 -0.3327
  163SAPE  H10R18232   4.341   6.155   5.553 -0.5505  0.4531  0.3299
  163SAPE  H10S18233   4.330   5.993   5.488  1.0638  2.6052 -2.5161
  163SAPE  C21118234   4.327   5.999   5.708  0.1484  0.2462  0.0511
  163SAPE  H11R18235   4.360   6.077   5.778  0.2332 -0.0091  0.2947
  163SAPE  C21218236   4.346   5.871   5.747  0.3307 -0.0786  0.6602
  163SAPE  H12R18237   4.371   5.839   5.849  1.3034  0.9803  0.7743
  163SAPE  C21318238   4.335   5.751   5.655  0.4820  0.4400  0.4854
  163SAPE  H13R18239   4.308   5.788   5.553 -1.5998 -0.6657  0.5823
  163SAPE  H13S18240   4.244   5.693   5.684 -1.5048  2.2174 -1.7428
  163SAPE  C21418241   4.455   5.659   5.631  0.0675 -0.1771 -0.6821
  163SAPE  H14R18242   4.494   5.647   5.529 -1.4816 -2.7473 -1.0491
  163SAPE  C21518243   4.504   5.582   5.729  0.2805  0.1996 -0.4673
  163SAPE  H15R18244   4.601   5.532   5.714 -0.0039 -0.8399  0.9252
  163SAPE  C21618245   4.456   5.580   5.869  0.1309  0.5132 -0.5884
  163SAPE  H16R18246   4.424   5.477   5.893 -1.1014  1.1160  0.4993
  163SAPE  H16S18247   4.362   5.636   5.886 -0.2251 -0.5164  1.0548
  163SAPE  C21718248   4.556   5.649   5.965  0.2014  0.2628  0.3400
  163SAPE  H17R18249   4.590   5.750   5.935  1.0968 -0.7522 -2.2965
  163SAPE  H17S18250   4.645   5.583   5.961 -0.7555 -1.0070 -2.7346
  163SAPE  C21818251   4.512   5.647   6.117 -0.6716  0.2779  0.4487
  163SAPE  H18R18252   4.581   5.715   6.171  0.5656  0.3371 -1.1579
  163SAPE  H18S18253   4.516   5.545   6.161 -1.1666 -0.7929 -1.8648
  163SAPE  C21918254   4.373   5.693   6.145 -0.0017 -0.1207 -0.2528
  163SAPE  H19R18255   4.298   5.626   6.098  1.3982 -2.3787  0.5599
  163SAPE  H19S18256   4.364   5.802   6.124  0.5294  0.0081  0.1376
  163SAPE  C22018257   4.357   5.694   6.295 -0.3020  0.3857 -0.1590
  163SAPE  H20R18258   4.435   5.760   6.338 -0.1270 -0.0412  0.1900
  163SAPE  H20S18259   4.382   5.598   6.345 -1.0699 -0.4140 -1.2358
  163SAPE  H20T18260   4.255   5.716   6.333 -0.8242  0.4227 -1.5209
  163SAPE   C3318261   3.490   6.660   5.065  0.4927 -0.4894 -0.5272
  163SAPE   H3X18262   3.574   6.590   5.044  0.3152 -0.9262  0.1776
  163SAPE   H3Y18263   3.410   6.583   5.067 -0.9345  0.9504  0.8397
  163SAPE   C3418264   3.506   6.715   5.202 -0.5971  0.8296 -0.6495
  163SAPE   H4X18265   3.444   6.806   5.218 -0.0901  0.6999  2.8248
  163SAPE   H4Y18266   3.605   6.766   5.207  0.1373 -0.5909 -0.1106
  163SAPE   C3518267   3.499   6.612   5.319  0.1926 -0.0107  0.1291
  163SAPE   H5X18268   3.587   6.544   5.311  0.5117  0.3807  0.2256
  163SAPE   H5Y18269   3.409   6.548   5.318  1.4140 -1.9467  2.4481
  163SAPE   C3618270   3.487   6.683   5.458  0.0496 -0.1210  0.3445
  163SAPE   H6X18271   3.388   6.732   5.470 -0.3118 -0.6838 -0.3069
  163SAPE   H6Y18272   3.564   6.762   5.467 -0.4841  0.3610  0.7729
  163SAPE   C3718273   3.491   6.585   5.572 -0.2320  0.3320  0.2962
  163SAPE   H7X18274   3.596   6.568   5.606 -1.0113  1.2900  3.6246
  163SAPE   H7Y18275   3.455   6.489   5.531  0.4699  0.3302 -0.3477
  163SAPE   C3818276   3.406   6.620   5.693 -0.1046  0.1152 -0.1874
  163SAPE   H8X18277   3.301   6.617   5.658 -0.0629  0.1397 -0.3135
  163SAPE   H8Y18278   3.438   6.717   5.738 -0.2473 -0.4983  1.2937
  163SAPE   C3918279   3.430   6.524   5.815 -0.9864 -0.3114  0.2519
  163SAPE   H9X18280   3.534   6.523   5.854 -1.3870 -0.2033  1.3623
  163SAPE   H9Y18281   3.411   6.421   5.779  0.4973 -0.1140 -1.2034
  163SAPE  C31018282   3.337   6.570   5.934  0.3300 -0.4506  0.2819
  163SAPE  H10X18283   3.373   6.673   5.952  2.6585 -0.7529 -1.9472
  163SAPE  H10Y18284   3.374   6.503   6.014  0.3574 -1.1299 -0.2854
  163SAPE  C31118285   3.187   6.539   5.906  0.0376  0.9283  0.6301
  163SAPE  H11X18286   3.180   6.429   5.893 -0.1973  1.0906 -0.7514
  163SAPE  H11Y18287   3.149   6.568   5.806  1.0804  0.5453  0.1068
  163SAPE  C31218288   3.082   6.579   6.006 -0.3803 -0.3438  0.4224
  163SAPE  H12X18289   2.982   6.542   5.976 -1.2480  1.1417  1.3513
  163SAPE  H12Y18290   3.066   6.689   6.012 -0.4711 -0.4488  3.2793
  163SAPE  C31318291   3.124   6.549   6.147 -0.3174 -0.0840  1.3279
  163SAPE  H13X18292   3.057   6.582   6.229 -2.4311 -1.1807  0.1263
  163SAPE  H13Y18293   3.216   6.606   6.171 -0.3537  0.1804  0.8483
  163SAPE  C31418294   3.140   6.397   6.182  0.5128  0.0133 -0.3656
  163SAPE  H14X18295   3.216   6.353   6.115  2.0907  1.6257  0.2912
  163SAPE  H14Y18296   3.048   6.340   6.156  2.2453 -1.5780 -3.5640
  163SAPE  C31518297   3.174   6.365   6.326  0.6525 -0.1951  0.8464
  163SAPE  H15X18298   3.120   6.276   6.364 -0.3356 -0.1001 -0.2611
  163SAPE  H15Y18299   3.140   6.441   6.399  1.8435  0.2234  0.9901
  163SAPE  C31618300   3.330   6.354   6.346  0.2347  0.1537 -0.8204
  163SAPE  H16X18301   3.367   6.458   6.333 -2.2231  1.0660 -0.9803
  163SAPE  H16Y18302   3.378   6.286   6.273  3.8471  1.8081 -0.2261
  163SAPE  C31718303   3.363   6.279   6.476  0.2187 -0.3350 -0.3422
  163SAPE  H17X18304   3.319   6.177   6.477  0.5335 -0.4718 -0.4881
  163SAPE  H17Y18305   3.319   6.336   6.560  0.7394 -1.5155  0.7635
  163SAPE  C31818306   3.508   6.255   6.492  0.6358 -0.4889  0.1761
  163SAPE  H18X18307   3.530   6.218   6.595 -1.0477  0.3657  0.8770
  163SAPE  H18Y18308   3.570   6.347   6.478  0.1760 -0.3246 -0.8175
  163SAPE  H18Z18309   3.554   6.177   6.428  0.1318 -1.2309  0.7060
  164SAPE     N18310   2.166   3.485   4.566 -0.3562 -0.7493 -0.6956
  164SAPE   HN118311   2.142   3.509   4.468 -0.6391  0.7379 -0.2818
  164SAPE   HN218312   2.202   3.388   4.565 -0.9729 -1.0435  1.2238
  164SAPE   HN318313   2.074   3.499   4.614  1.7647  2.0590  3.0815
  164SAPE   C1218314   2.255   3.582   4.640 -0.5159 -0.9615 -0.4405
  164SAPE  H12A18315   2.203   3.680   4.638  0.9399 -0.1704 -0.9595
  164SAPE  H12B18316   2.346   3.593   4.578 -1.4165 -1.4004 -1.9072
  164SAPE   C1118317   2.282   3.537   4.781 -0.0582 -0.7648 -0.1668
  164SAPE  H11A18318   2.194   3.515   4.846  0.4396  0.3081  0.9193
  164SAPE  H11B18319   2.331   3.620   4.837 -1.6835  0.9879 -1.2402
  164SAPE     P18320   2.508   3.407   4.764  0.3644 -0.0948  0.0211
  164SAPE   O1318321   2.546   3.319   4.655 -0.5720 -0.2470 -0.4624
  164SAPE   O1418322   2.553   3.550   4.756 -0.3275  0.7003 -0.1476
  164SAPE   O1218323   2.350   3.412   4.772  0.4295  0.5848 -0.4795
  164SAPE   O1118324   2.566   3.341   4.893 -0.7114 -0.0037 -0.7952
  164SAPE    C118325   2.555   3.395   5.034  0.2724  0.3694 -0.3592
  164SAPE    HA18326   2.475   3.472   5.042  1.9441  1.9981  1.9266
  164SAPE    HB18327   2.533   3.307   5.099 -1.5274 -0.0491 -1.4524
  164SAPE    C218328   2.685   3.467   5.083  0.0151  0.3833 -0.1404
  164SAPE    HS18329   2.716   3.538   5.003 -0.7866 -0.2997 -1.0710
  164SAPE   O2118330   2.780   3.364   5.122  0.3283 -0.2539 -0.2510
  164SAPE   C2118331   2.905   3.390   5.076  0.1328 -0.5540  0.4737
  164SAPE   O2218332   2.942   3.492   5.026 -0.6168  0.2614  0.0308
  164SAPE   C2218333   2.998   3.274   5.106 -0.0818 -0.2158 -1.1621
  164SAPE   H2R18334   2.985   3.197   5.027  1.1293 -2.0454  0.3358
  164SAPE   H2S18335   3.101   3.316   5.103 -0.1000  0.1278  1.2327
  164SAPE    C318336   2.656   3.556   5.207 -0.0246  0.1670 -0.3094
  164SAPE    HX18337   2.620   3.498   5.295 -0.0615  0.4350 -0.1477
  164SAPE    HY18338   2.564   3.613   5.183  1.9018  2.8987 -1.8355
  164SAPE   O3118339   2.762   3.646   5.252  0.6467  0.2709 -0.0925
  164SAPE   C3118340   2.777   3.758   5.191 -0.2735 -0.1101  0.2608
  164SAPE   O3218341   2.719   3.787   5.090 -0.6600  0.2561  0.6375
  164SAPE   C3218342   2.892   3.841   5.248  0.0306  0.3605 -0.1770
  164SAPE   H2X18343   2.883   3.944   5.208  0.7417  0.1836 -0.8002
  164SAPE   H2Y18344   2.990   3.806   5.210 -0.2455  2.0555 -2.6897
  164SAPE   C2318345   2.980   3.203   5.245 -0.7576 -0.5023  0.2358
  164SAPE   H3R18346   3.027   3.103   5.235 -0.6778 -0.6022  1.5043
  164SAPE   H3S18347   2.875   3.192   5.280 -0.6510  0.7977  1.0151
  164SAPE   C2418348   3.066   3.273   5.359 -0.2338  0.3193 -0.0100
  164SAPE   H4R18349   3.174   3.275   5.331 -0.8654  0.0059 -2.7741
  164SAPE   H4S18350   3.071   3.187   5.428  1.7998 -1.0938 -1.7816
  164SAPE   C2518351   3.012   3.410   5.404  0.0031  0.3141 -0.0802
  164SAPE   H5R18352   3.028   3.494   5.335 -2.2720  2.0329  1.3309
  164SAPE   C2618353   2.956   3.440   5.521 -0.1796  0.0232  0.3961
  164SAPE   H6R18354   2.925   3.545   5.532  1.8723  0.6735  0.3949
  164SAPE   C2718355   2.923   3.345   5.627 -0.0427  0.6431  0.3620
  164SAPE   H7R18356   2.916   3.241   5.588  1.1178  0.9022 -0.5692
  164SAPE   H7S18357   2.819   3.368   5.659 -0.4362 -1.6879  0.9377
  164SAPE   C2818358   3.012   3.363   5.748  0.3562  0.0382 -0.3558
  164SAPE   H8R18359   3.048   3.465   5.767 -0.6267  0.0927  1.4566
  164SAPE   C2918360   3.045   3.266   5.846 -0.0817  0.3481  0.8779
  164SAPE   H9R18361   3.101   3.292   5.937 -2.0701  0.0739  2.2350
  164SAPE  C21018362   3.002   3.122   5.840 -0.0069  0.2758 -0.4037
  164SAPE  H10R18363   2.896   3.108   5.809 -0.9402  1.5798  1.8881
  164SAPE  H10S18364   2.987   3.085   5.944  0.6550 -0.0488 -0.4192
  164SAPE  C21118365   3.087   3.035   5.762 -0.1260  0.5242 -0.2285
  164SAPE  H11R18366   3.152   3.095   5.697  1.2312 -0.1730  0.4335
  164SAPE  C21218367   3.086   2.900   5.763  0.3888  0.0395 -0.0721
  164SAPE  H12R18368   3.156   2.837   5.705 -1.5985 -2.6388  0.2512
  164SAPE  C21318369   3.004   2.816   5.861  0.0773  0.9088 -0.7055
  164SAPE  H13R18370   2.944   2.748   5.797 -2.1956  1.4613  0.7383
  164SAPE  H13S18371   2.939   2.890   5.913  0.4432  0.8485 -0.1561
  164SAPE  C21418372   3.086   2.733   5.959  0.3567  0.3452 -0.1063
  164SAPE  H14R18373   3.178   2.695   5.912 -0.6300 -0.8363 -1.1884
  164SAPE  C21518374   3.045   2.681   6.074 -0.1081 -0.1352  0.1545
  164SAPE  H15R18375   3.114   2.634   6.145  1.0886 -0.7683 -1.3774
  164SAPE  C21618376   2.917   2.716   6.142  0.0081 -0.4868  0.2885
  164SAPE  H16R18377   2.848   2.629   6.131 -0.2352 -0.3215  0.4791
  164SAPE  H16S18378   2.874   2.795   6.077 -0.4921 -2.6434 -2.2301
  164SAPE  C21718379   2.938   2.769   6.289 -0.0608  0.4405  0.3618
  164SAPE  H17R18380   3.007   2.856   6.280 -0.3101  0.6081  0.0397
  164SAPE  H17S18381   2.986   2.680   6.334 -1.7223 -0.6046  0.1415
  164SAPE  C21818382   2.810   2.819   6.355 -0.2967 -0.5276 -0.2122
  164SAPE  H18R18383   2.720   2.770   6.312 -1.4410  1.6902 -0.5244
  164SAPE  H18S18384   2.797   2.926   6.328 -1.1386 -0.6826 -0.4422
  164SAPE  C21918385   2.808   2.823   6.510 -0.5550  0.0217 -0.3721
  164SAPE  H19R18386   2.885   2.892   6.551 -3.0473  0.4380  4.3033
  164SAPE  H19S18387   2.837   2.719   6.539 -1.7945 -1.0070 -2.5355
  164SAPE  C22018388   2.671   2.850   6.567  0.4249 -0.5785  0.0565
  164SAPE  H20R18389   2.624   2.942   6.524 -2.9517  0.0662  4.4264
  164SAPE  H20S18390   2.680   2.863   6.677 -0.5988 -1.3329  0.2371
  164SAPE  H20T18391   2.595   2.771   6.550 -3.1426  2.4720  0.4338
  164SAPE   C3318392   2.897   3.851   5.404  0.1064 -0.3159 -0.0385
  164SAPE   H3X18393   2.988   3.909   5.431 -0.8588  1.0697  0.3646
  164SAPE   H3Y18394   2.905   3.746   5.439  0.0817 -0.5441 -0.7105
  164SAPE   C3418395   2.783   3.927   5.467  0.0497 -0.6688 -0.1470
  164SAPE   H4X18396   2.689   3.868   5.461 -0.0663 -0.3605 -2.5077
  164SAPE   H4Y18397   2.769   4.024   5.415 -0.9917 -0.3191  0.7639
  164SAPE   C3518398   2.813   3.950   5.616 -0.3315 -0.6450 -0.0253
  164SAPE   H5X18399   2.719   3.982   5.665 -0.0354 -0.5941  0.5192
  164SAPE   H5Y18400   2.879   4.039   5.629 -0.7947 -0.1569 -0.9045
  164SAPE   C3618401   2.862   3.833   5.696 -0.3706  0.7786  0.2493
  164SAPE   H6X18402   2.969   3.813   5.673 -0.5584 -1.6763  1.2484
  164SAPE   H6Y18403   2.818   3.736   5.666 -0.0539  0.5376  0.5482
  164SAPE   C3718404   2.842   3.852   5.846 -0.6657  0.1745 -0.0320
  164SAPE   H7X18405   2.737   3.870   5.875 -1.1668 -0.2200 -1.5022
  164SAPE   H7Y18406   2.908   3.939   5.871  0.4774 -0.7865  0.3976
  164SAPE   C3818407   2.907   3.735   5.923  0.4784 -1.4560 -0.1806
  164SAPE   H8X18408   3.003   3.706   5.874 -0.4813 -0.3587 -2.9444
  164SAPE   H8Y18409   2.838   3.649   5.934 -2.4082  0.7536  0.1037
  164SAPE   C3918410   2.949   3.789   6.070 -0.2888 -0.1398 -0.4584
  164SAPE   H9X18411   2.859   3.835   6.115  1.9639  1.8238  2.4458
  164SAPE   H9Y18412   3.016   3.877   6.063 -0.9971  0.4248 -0.2354
  164SAPE  C31018413   2.996   3.675   6.158  0.4312  0.2351 -0.5569
  164SAPE  H10X18414   3.100   3.644   6.136  0.7463  0.6801  0.2592
  164SAPE  H10Y18415   2.921   3.594   6.147  0.3908  0.1625  0.2233
  164SAPE  C31118416   2.999   3.717   6.301 -0.0386 -0.1617 -0.9944
  164SAPE  H11X18417   2.895   3.735   6.335 -0.4118 -2.5246 -0.7100
  164SAPE  H11Y18418   3.063   3.807   6.315 -0.9615  0.7167 -2.2317
  164SAPE  C31218419   3.058   3.607   6.386 -0.0246  0.6974  0.3455
  164SAPE  H12X18420   3.168   3.596   6.379  0.1021  1.7837  0.4419
  164SAPE  H12Y18421   3.011   3.516   6.342  2.3964  0.3289 -1.6842
  164SAPE  C31318422   3.013   3.608   6.537  0.3575 -0.2919  0.3958
  164SAPE  H13X18423   2.902   3.605   6.542  0.1615 -1.8719 -2.4549
  164SAPE  H13Y18424   3.054   3.698   6.586  0.7179  0.7143 -1.6184
  164SAPE  C31418425   3.068   3.482   6.607  0.1348  0.1873  0.0952
  164SAPE  H14X18426   3.178   3.495   6.618  0.2485 -0.2755 -0.4730
  164SAPE  H14Y18427   3.042   3.392   6.548  0.1155  1.2875 -1.6512
  164SAPE  C31518428   3.000   3.451   6.741 -0.9936 -0.4239  0.1133
  164SAPE  H15X18429   2.889   3.461   6.735 -0.8872  0.6942 -0.3097
  164SAPE  H15Y18430   3.038   3.521   6.819  1.7879 -0.2918 -1.2298
  164SAPE  C31618431   3.051   3.312   6.789 -0.2933  0.2041  0.4726
  164SAPE  H16X18432   3.160   3.295   6.777 -0.0040  1.9891  0.3817
  164SAPE  H16Y18433   2.994   3.237   6.731  0.0710 -0.0232  0.4058
  164SAPE  C31718434   3.005   3.296   6.932 -0.3064  0.6473  0.3096
  164SAPE  H17X18435   2.897   3.318   6.944 -0.8509 -0.0558 -2.5034
  164SAPE  H17Y18436   3.043   3.385   6.985 -0.2578  0.4304  0.6415
  164SAPE  C31818437   3.035   3.160   7.004 -0.5980 -0.1855  0.1639
  164SAPE  H18X18438   3.042   3.174   7.114  2.4007 -1.2644  0.1802
  164SAPE  H18Y18439   3.136   3.122   6.979 -0.7392 -1.0686  0.9097
  164SAPE  H18Z18440   2.956   3.088   6.975 -1.3846  0.9169 -0.5193
  165SAPE     N18441   4.523   4.062   4.959  0.2387  0.2646 -0.3838
  165SAPE   HN118442   4.477   3.993   4.897  1.5613 -2.1984  1.2310
  165SAPE   HN218443   4.445   4.082   5.025  0.3319 -1.2558  0.2277
  165SAPE   HN318444   4.548   4.146   4.903  4.2023 -0.5633 -0.1692
  165SAPE   C1218445   4.630   4.002   5.041  0.5661  0.5283  0.0165
  165SAPE  H12A18446   4.594   3.913   5.098  0.0578  0.4092 -0.4797
  165SAPE  H12B18447   4.669   4.083   5.106  3.0142  1.2941 -2.2455
  165SAPE   C1118448   4.736   3.960   4.940 -0.2367 -0.4926 -0.0856
  165SAPE  H11A18449   4.808   3.902   5.001 -1.0768 -1.1365  0.3197
  165SAPE  H11B18450   4.789   4.044   4.892 -1.5562  1.6456  1.9771
  165SAPE     P18451   4.763   3.823   4.729  0.3955 -0.2545  0.1436
  165SAPE   O1318452   4.732   3.892   4.605  0.3340  0.2543 -0.6267
  165SAPE   O1418453   4.904   3.825   4.770 -0.2114  0.7472  0.0542
  165SAPE   O1218454   4.673   3.885   4.838  0.3412 -0.1563  0.0689
  165SAPE   O1118455   4.707   3.671   4.725  0.0211 -0.0399 -0.0371
  165SAPE    C118456   4.788   3.562   4.769  0.0944 -0.6354  0.3511
  165SAPE    HA18457   4.750   3.467   4.728 -0.2288 -0.9341  1.3246
  165SAPE    HB18458   4.894   3.571   4.737 -0.3635  0.3195 -0.9896
  165SAPE    C218459   4.782   3.550   4.928  0.3661  0.0547 -0.3820
  165SAPE    HS18460   4.784   3.441   4.951 -1.5250  0.0646  0.0028
  165SAPE   O2118461   4.655   3.603   4.982  0.2195 -0.2482  0.2540
  165SAPE   C2118462   4.547   3.532   4.947  0.2513  0.0823 -0.3138
  165SAPE   O2218463   4.544   3.419   4.901  0.0629 -0.0840  0.5371
  165SAPE   C2218464   4.422   3.607   4.993  0.6391 -0.8887 -0.2960
  165SAPE   H2R18465   4.417   3.706   4.944 -0.7975 -0.2458  1.0594
  165SAPE   H2S18466   4.331   3.554   4.957 -1.9205  3.0816 -0.3633
  165SAPE    C318467   4.907   3.604   5.013  0.3629  0.1227 -0.2662
  165SAPE    HX18468   4.927   3.711   4.990  1.1004 -0.1560 -0.9798
  165SAPE    HY18469   4.999   3.555   4.974 -0.2504  1.2881 -3.4512
  165SAPE   O3118470   4.887   3.565   5.153 -0.0105  0.6369 -0.0222
  165SAPE   C3118471   4.840   3.654   5.238  0.6297 -1.0146 -0.1286
  165SAPE   O3218472   4.818   3.771   5.206 -0.0851 -0.2769 -0.7453
  165SAPE   C3218473   4.803   3.582   5.366  0.0442  0.6790  0.1096
  165SAPE   H2X18474   4.896   3.534   5.402 -1.4597 -4.7872 -2.3386
  165SAPE   H2Y18475   4.733   3.501   5.338  0.5302  0.5542 -0.7708
  165SAPE   C2318476   4.411   3.621   5.146 -1.0611 -0.0502 -0.1513
  165SAPE   H3R18477   4.317   3.678   5.165 -1.7289 -0.3459 -2.3301
  165SAPE   H3S18478   4.491   3.685   5.188  0.6451 -3.1580  1.7031
  165SAPE   C2418479   4.406   3.489   5.225 -0.0382  0.2660 -0.2647
  165SAPE   H4R18480   4.403   3.523   5.331  0.6740  2.2774 -0.8545
  165SAPE   H4S18481   4.509   3.450   5.217 -0.2125 -0.4229  0.6598
  165SAPE   C2518482   4.297   3.391   5.198 -0.9411 -0.4149  0.0712
  165SAPE   H5R18483   4.315   3.338   5.104 -0.4911 -1.8130  0.9096
  165SAPE   C2618484   4.202   3.353   5.287 -0.1919 -0.9057  0.9471
  165SAPE   H6R18485   4.139   3.267   5.262 -0.6317  0.3917 -2.9945
  165SAPE   C2718486   4.181   3.424   5.424 -0.0613 -0.2035 -0.0165
  165SAPE   H7R18487   4.155   3.532   5.412 -1.2935 -0.4409  0.2973
  165SAPE   H7S18488   4.274   3.418   5.484 -1.2473  0.7408  2.0612
  165SAPE   C2818489   4.069   3.359   5.498 -0.0713 -0.2682  0.0689
  165SAPE   H8R18490   3.971   3.365   5.448  0.0607  0.9722 -0.0634
  165SAPE   C2918491   4.073   3.295   5.612  0.1694  0.4555 -0.3324
  165SAPE   H9R18492   3.978   3.248   5.641  0.1062  0.7009 -0.1405
  165SAPE  C21018493   4.196   3.283   5.705 -0.2325  0.2658  0.3451
  165SAPE  H10R18494   4.202   3.370   5.774 -1.3620 -0.3682  1.2813
  165SAPE  H10S18495   4.292   3.298   5.651 -1.4747  3.2601 -1.2911
  165SAPE  C21118496   4.188   3.155   5.780 -0.1007 -0.0970 -0.6735
  165SAPE  H11R18497   4.144   3.073   5.722 -0.7690 -0.6829  0.6172
  165SAPE  C21218498   4.227   3.140   5.910  1.0804  0.0304  0.5287
  165SAPE  H12R18499   4.208   3.039   5.950 -0.3609  1.1216  2.8253
  165SAPE  C21318500   4.263   3.237   6.010  0.2613 -0.9734  0.6698
  165SAPE  H13R18501   4.197   3.221   6.097 -0.5463 -0.3367  0.1905
  165SAPE  H13S18502   4.243   3.342   5.980  1.6684 -0.8914 -0.0823
  165SAPE  C21418503   4.412   3.242   6.056  0.1997  0.0505 -0.0473
  165SAPE  H14R18504   4.484   3.217   5.976  1.2249 -1.2673  1.2195
  165SAPE  C21518505   4.460   3.267   6.181  0.3590 -0.3039 -0.0907
  165SAPE  H15R18506   4.566   3.275   6.211 -0.1008  1.5161  1.2822
  165SAPE  C21618507   4.362   3.305   6.299  0.0319  0.4035 -0.0365
  165SAPE  H16R18508   4.416   3.315   6.395 -0.5841 -0.2622  0.3862
  165SAPE  H16S18509   4.283   3.227   6.304  0.6950 -0.2751  0.0469
  165SAPE  C21718510   4.300   3.442   6.281 -0.5271 -0.2496  0.3141
  165SAPE  H17R18511   4.261   3.461   6.180 -0.5359  0.0526  0.3736
  165SAPE  H17S18512   4.378   3.521   6.294 -0.8533  0.4013 -1.5120
  165SAPE  C21818513   4.184   3.454   6.385 -0.2249  0.2745 -0.2750
  165SAPE  H18R18514   4.230   3.422   6.481  0.4571 -1.8676 -1.2739
  165SAPE  H18S18515   4.103   3.386   6.352 -0.7590  0.5633  0.4150
  165SAPE  C21918516   4.134   3.594   6.406  1.1315 -0.5434 -0.0731
  165SAPE  H19R18517   4.089   3.632   6.312  0.1113 -0.0165  0.6117
  165SAPE  H19S18518   4.211   3.666   6.440  1.0005 -0.3657 -0.1526
  165SAPE  C22018519   4.022   3.586   6.513 -0.3619 -0.3126  0.0760
  165SAPE  H20R18520   4.065   3.536   6.602 -1.1531 -0.7881  0.1960
  165SAPE  H20S18521   3.932   3.528   6.486 -0.9286  0.6634 -0.1837
  165SAPE  H20T18522   3.983   3.682   6.553  0.1036  0.5494 -1.4431
  165SAPE   C3318523   4.730   3.664   5.466  0.5621 -0.5122 -0.0631
  165SAPE   H3X18524   4.645   3.715   5.417  1.0639 -1.0722 -1.5656
  165SAPE   H3Y18525   4.795   3.748   5.501  1.5665 -0.8755 -0.9898
  165SAPE   C3418526   4.704   3.586   5.598  0.4488 -0.3547  0.0698
  165SAPE   H4X18527   4.626   3.513   5.567 -0.9412  1.0582  0.1717
  165SAPE   H4Y18528   4.652   3.661   5.660  3.4316  1.8141  0.2014
  165SAPE   C3518529   4.828   3.524   5.668  0.2790  0.2331  0.4335
  165SAPE   H5X18530   4.892   3.607   5.703  0.4591  0.9201 -1.4435
  165SAPE   H5Y18531   4.878   3.465   5.588 -0.8592 -2.1246  1.3429
  165SAPE   C3618532   4.792   3.432   5.783  0.1391 -0.3893 -0.3111
  165SAPE   H6X18533   4.737   3.339   5.756 -0.2875 -0.3861  0.5375
  165SAPE   H6Y18534   4.720   3.487   5.846  0.8650  0.0323  0.1597
  165SAPE   C3718535   4.921   3.410   5.872  0.1058 -0.0443  0.3791
  165SAPE   H7X18536   4.959   3.514   5.884  0.7659 -0.0482 -1.4630
  165SAPE   H7Y18537   5.004   3.353   5.826  0.8802 -0.2401  1.9746
  165SAPE   C3818538   4.898   3.344   6.005 -0.7880  0.1714 -0.3617
  165SAPE   H8X18539   4.991   3.325   6.062 -1.2308 -0.4896  0.1640
  165SAPE   H8Y18540   4.857   3.244   5.977 -1.5501  0.4337 -0.1975
  165SAPE   C3918541   4.798   3.412   6.101 -0.7057  0.0708 -0.0362
  165SAPE   H9X18542   4.697   3.378   6.071 -0.5033  0.4312 -1.1649
  165SAPE   H9Y18543   4.792   3.522   6.085 -1.0442  0.1194  0.4215
  165SAPE  C31018544   4.827   3.399   6.252 -0.5472 -0.1112  0.0870
  165SAPE  H10X18545   4.738   3.442   6.302 -0.2912  2.8705 -1.7324
  165SAPE  H10Y18546   4.922   3.455   6.267  0.7212 -2.5324  1.7483
  165SAPE  C31118547   4.856   3.261   6.300  0.3571  0.6515 -0.5889
  165SAPE  H11X18548   4.950   3.233   6.249  0.3112  0.5078 -0.5957
  165SAPE  H11Y18549   4.792   3.178   6.262  0.1899 -1.0031  2.8630
  165SAPE  C31218550   4.897   3.261   6.454 -0.4233  0.2074  0.3098
  165SAPE  H12X18551   4.992   3.314   6.475 -1.7277  2.2592  1.3900
  165SAPE  H12Y18552   4.912   3.153   6.474 -1.5260  0.0873  0.5341
  165SAPE  C31318553   4.794   3.318   6.552 -0.2344 -0.1391 -0.4534
  165SAPE  H13X18554   4.692   3.313   6.508 -0.3174  0.8615 -0.3987
  165SAPE  H13Y18555   4.826   3.424   6.568  1.7066 -0.3979 -2.1421
  165SAPE  C31418556   4.804   3.236   6.689  0.5836 -0.5691 -0.4345
  165SAPE  H14X18557   4.766   3.134   6.670  0.5390 -0.2347 -2.3758
  165SAPE  H14Y18558   4.732   3.288   6.756  1.9643  1.1468 -0.2051
  165SAPE  C31518559   4.939   3.253   6.767  1.1199 -0.4362  0.3854
  165SAPE  H15X18560   4.940   3.357   6.806  0.9419 -0.9603  1.8545
  165SAPE  H15Y18561   5.016   3.238   6.689 -1.1803 -4.5415 -1.3968
  165SAPE  C31618562   4.955   3.165   6.896  0.0324 -0.2466  0.4368
  165SAPE  H16X18563   4.919   3.060   6.887 -0.2177 -0.4682  3.1569
  165SAPE  H16Y18564   4.878   3.201   6.967 -0.6589  0.5401 -0.6683
  165SAPE  C31718565   5.097   3.156   6.965 -0.4387 -0.2653 -0.0722
  165SAPE  H17X18566   5.149   3.253   6.978  0.8477 -1.0285  0.7196
  165SAPE  H17Y18567   5.164   3.103   6.894 -0.9484 -0.4634 -0.4074
  165SAPE  C31818568   5.103   3.071   7.095  0.2335 -0.5148 -0.3604
  165SAPE  H18X18569   5.208   3.079   7.132  0.1626 -1.7243  0.1654
  165SAPE  H18Y18570   5.067   2.966   7.087 -0.7718 -0.1510 -0.6848
  165SAPE  H18Z18571   5.050   3.108   7.185 -0.3799  1.3810 -1.4657
  166SAPE     N18572   5.276   5.460   4.315 -0.0748  0.5197  0.2178
  166SAPE   HN118573   5.200   5.441   4.247  0.2640  2.1809 -0.6767
  166SAPE   HN218574   5.255   5.416   4.407 -1.3279 -0.5913 -0.5776
  166SAPE   HN318575   5.270   5.564   4.327  0.3151  0.3560  2.1855
  166SAPE   C1218576   5.414   5.430   4.272  0.2508  0.3648  0.2443
  166SAPE  H12A18577   5.479   5.440   4.362  0.6913  1.8406 -0.2068
  166SAPE  H12B18578   5.458   5.502   4.199  2.0392 -1.1195 -0.2377
  166SAPE   C1118579   5.421   5.284   4.214 -0.4449 -0.4045  0.4485
  166SAPE  H11A18580   5.524   5.263   4.178 -0.6274  1.3970 -1.3214
  166SAPE  H11B18581   5.360   5.262   4.123 -1.2797  0.3222  0.8134
  166SAPE     P18582   5.480   5.115   4.407  0.1283  0.2139  0.0190
  166SAPE   O1318583   5.465   4.971   4.365  0.3862 -0.0651 -0.1176
  166SAPE   O1418584   5.619   5.172   4.414  0.1627  0.7505  0.1786
  166SAPE   O1218585   5.375   5.200   4.320  0.1467 -0.2175  0.2611
  166SAPE   O1118586   5.428   5.125   4.552 -0.3402  0.2420 -0.0821
  166SAPE    C118587   5.510   5.090   4.662 -0.0519  0.4188 -0.5798
  166SAPE    HA18588   5.495   4.986   4.698 -0.4347  0.0451 -1.7699
  166SAPE    HB18589   5.620   5.099   4.651  0.1865  0.4226  1.3403
  166SAPE    C218590   5.480   5.180   4.776  0.2022 -0.7025 -0.3939
  166SAPE    HS18591   5.561   5.173   4.851 -0.6518  1.7825  0.8918
  166SAPE   O2118592   5.351   5.146   4.837 -0.3308 -0.1376 -0.0407
  166SAPE   C2118593   5.374   5.062   4.943  0.5994 -0.1155 -0.1227
  166SAPE   O2218594   5.482   5.016   4.973  0.2424 -0.2638 -0.2500
  166SAPE   C2218595   5.247   5.044   5.024 -0.3072 -0.6298  0.2744
  166SAPE   H2R18596   5.218   5.145   5.063  0.3455 -0.0281 -0.7501
  166SAPE   H2S18597   5.178   5.003   4.949  0.1774 -0.9745  0.0141
  166SAPE    C318598   5.482   5.325   4.729  0.0318  0.5935  0.0876
  166SAPE    HX18599   5.385   5.325   4.674 -0.0671  0.2197  0.2557
  166SAPE    HY18600   5.575   5.329   4.669  0.7776  1.8089  1.2928
  166SAPE   O3118601   5.486   5.426   4.838 -0.4736 -0.0152 -0.6360
  166SAPE   C3118602   5.372   5.492   4.854 -0.7645 -0.8849  0.5828
  166SAPE   O3218603   5.274   5.483   4.784 -0.7085 -0.1600  0.0727
  166SAPE   C3218604   5.388   5.581   4.981  0.0114  0.2104  0.8799
  166SAPE   H2X18605   5.458   5.665   4.964 -0.3452  0.1280 -1.2568
  166SAPE   H2Y18606   5.441   5.521   5.059  0.2884 -1.5165 -0.5704
  166SAPE   C2318607   5.258   4.963   5.155 -0.1876 -0.0831 -0.7851
  166SAPE   H3R18608   5.348   5.001   5.208  1.4129 -1.7636 -2.1285
  166SAPE   H3S18609   5.281   4.860   5.121  0.3962 -0.7019  1.3591
  166SAPE   C2418610   5.125   4.959   5.234  0.0703  0.3930  0.3760
  166SAPE   H4R18611   5.040   4.939   5.166 -0.1617 -2.7377  1.4151
  166SAPE   H4S18612   5.118   5.059   5.282 -0.2212  0.3740  0.3742
  166SAPE   C2518613   5.124   4.837   5.325  0.0788  0.2297 -0.4787
  166SAPE   H5R18614   5.080   4.748   5.279 -1.4374  2.1538 -3.0484
  166SAPE   C2618615   5.168   4.833   5.457  0.8921  0.1695  0.5532
  166SAPE   H6R18616   5.181   4.738   5.511 -0.6784 -0.7310 -0.5913
  166SAPE   C2718617   5.240   4.954   5.533  0.0717  0.4776 -0.0911
  166SAPE   H7R18618   5.280   5.034   5.467 -1.3006 -0.6502 -2.3973
  166SAPE   H7S18619   5.331   4.912   5.581 -1.7571 -1.4029  1.9410
  166SAPE   C2818620   5.141   5.002   5.634 -0.4286 -0.1122 -0.0584
  166SAPE   H8R18621   5.050   5.049   5.594  0.5067  0.8900 -1.0949
  166SAPE   C2918622   5.159   4.986   5.768 -0.7039  0.8362 -0.4300
  166SAPE   H9R18623   5.079   5.022   5.834  0.3073  1.1818  0.6356
  166SAPE  C21018624   5.277   4.917   5.842  0.2859 -0.5829  0.2996
  166SAPE  H10R18625   5.289   4.976   5.936 -2.8324  2.5877 -1.0699
  166SAPE  H10S18626   5.368   4.930   5.780 -1.6411  2.3045 -2.2151
  166SAPE  C21118627   5.241   4.777   5.861  0.3070 -0.3011  0.3280
  166SAPE  H11R18628   5.224   4.722   5.767 -1.2329 -0.7330  0.8326
  166SAPE  C21218629   5.219   4.702   5.976 -0.1579  0.1696 -0.0544
  166SAPE  H12R18630   5.184   4.598   5.961  2.3796 -0.6060 -1.1383
  166SAPE  C21318631   5.220   4.744   6.111  0.1268 -0.1356 -0.2174
  166SAPE  H13R18632   5.168   4.668   6.173  0.0558 -1.0446 -1.3671
  166SAPE  H13S18633   5.168   4.841   6.129  0.8515  0.2765 -0.2998
  166SAPE  C21418634   5.366   4.752   6.160  0.3780  0.2540 -0.2296
  166SAPE  H14R18635   5.448   4.752   6.086 -0.9437  3.6397 -1.9363
  166SAPE  C21518636   5.399   4.730   6.292 -0.4753 -0.0814 -0.7491
  166SAPE  H15R18637   5.503   4.758   6.315 -0.1806 -0.4887 -1.5734
  166SAPE  C21618638   5.306   4.705   6.411  0.1377  0.2588 -0.4016
  166SAPE  H16R18639   5.199   4.681   6.392  0.3028 -1.0910  0.2083
  166SAPE  H16S18640   5.311   4.788   6.484 -1.2115 -1.9796  2.4289
  166SAPE  C21718641   5.360   4.589   6.498  0.7004 -0.1149 -0.0590
  166SAPE  H17R18642   5.462   4.618   6.531  0.0868 -0.4659  2.3778
  166SAPE  H17S18643   5.355   4.486   6.454  1.3266  0.2304 -0.9572
  166SAPE  C21818644   5.283   4.581   6.636 -0.8087 -0.4289  0.3275
  166SAPE  H18R18645   5.284   4.679   6.687  0.8453  0.5929 -1.5335
  166SAPE  H18S18646   5.350   4.511   6.690  0.2086 -0.8496 -1.3940
  166SAPE  C21918647   5.142   4.514   6.618 -0.3310 -0.4112 -0.3016
  166SAPE  H19R18648   5.145   4.434   6.541 -2.5962 -0.6300 -0.2324
  166SAPE  H19S18649   5.074   4.594   6.584 -0.0464 -0.7734 -1.8080
  166SAPE  C22018650   5.094   4.451   6.752  0.1075  0.0113 -0.1312
  166SAPE  H20R18651   5.156   4.370   6.796  0.0765 -0.1151 -0.3229
  166SAPE  H20S18652   4.988   4.418   6.750  0.2976 -0.5594 -2.2174
  166SAPE  H20T18653   5.094   4.536   6.825  0.9306  0.5177 -0.7082
  166SAPE   C3318654   5.252   5.639   5.040 -0.7724 -0.7541 -0.3785
  166SAPE   H3X18655   5.192   5.695   4.965 -1.0752  1.5037  1.4200
  166SAPE   H3Y18656   5.283   5.717   5.113  1.6313  0.0721 -2.1465
  166SAPE   C3418657   5.154   5.541   5.107  0.0435 -0.6735 -0.2298
  166SAPE   H4X18658   5.118   5.463   5.036 -0.0095 -0.4219 -0.4785
  166SAPE   H4Y18659   5.064   5.601   5.134  1.5183  0.8904  1.4575
  166SAPE   C3518660   5.212   5.487   5.233 -0.3756 -0.1247  0.2725
  166SAPE   H5X18661   5.255   5.566   5.299 -0.3850 -2.1383  2.8620
  166SAPE   H5Y18662   5.301   5.427   5.206  0.2270  0.5993  0.5855
  166SAPE   C3618663   5.117   5.403   5.303  0.5509  0.0700 -0.8069
  166SAPE   H6X18664   5.075   5.326   5.234 -0.5686 -0.1572  0.0991
  166SAPE   H6Y18665   5.025   5.458   5.332  0.9998  0.6696 -0.5275
  166SAPE   C3718666   5.169   5.345   5.432  0.2318  0.3158  0.3802
  166SAPE   H7X18667   5.237   5.260   5.415  1.0804  1.1274 -0.3913
  166SAPE   H7Y18668   5.084   5.306   5.493  1.0724 -0.7960  0.8817
  166SAPE   C3818669   5.226   5.441   5.532 -0.3300 -0.1242 -0.1228
  166SAPE   H8X18670   5.177   5.541   5.526  3.1605  1.8103  0.9688
  166SAPE   H8Y18671   5.332   5.455   5.503  0.8273 -1.8564  2.8622
  166SAPE   C3918672   5.219   5.372   5.669 -0.0557 -0.7660 -0.8867
  166SAPE   H9X18673   5.267   5.273   5.656 -1.8943 -2.0145  1.2052
  166SAPE   H9Y18674   5.115   5.353   5.702 -0.1427 -0.7032 -1.1219
  166SAPE  C31018675   5.300   5.450   5.778 -0.2054  0.5546 -0.1385
  166SAPE  H10X18676   5.240   5.539   5.805 -0.7973  0.4995 -1.2115
  166SAPE  H10Y18677   5.398   5.477   5.733  0.2045 -1.0692 -0.2926
  166SAPE  C31118678   5.342   5.364   5.901  0.5191 -0.0670 -0.0471
  166SAPE  H11X18679   5.417   5.426   5.955 -1.7217  0.4768  2.6534
  166SAPE  H11Y18680   5.386   5.269   5.864 -0.7258 -0.3470 -0.8736
  166SAPE  C31218681   5.219   5.341   5.998 -0.6500 -0.0386  0.0635
  166SAPE  H12X18682   5.155   5.267   5.944  1.7904 -0.6012 -2.2781
  166SAPE  H12Y18683   5.168   5.438   6.015  0.7374  1.3479 -3.0791
  166SAPE  C31318684   5.256   5.276   6.128  0.5492 -0.6307 -0.8361
  166SAPE  H13X18685   5.301   5.359   6.186 -1.1423 -0.1188 -0.1898
  166SAPE  H13Y18686   5.329   5.192   6.124  0.9013 -0.3852  0.2117
  166SAPE  C31418687   5.136   5.234   6.212  0.1896  0.2043 -0.7922
  166SAPE  H14X18688   5.057   5.312   6.209 -0.1493 -0.0458  0.5658
  166SAPE  H14Y18689   5.156   5.219   6.320 -1.3622 -1.1962 -0.6490
  166SAPE  C31518690   5.060   5.108   6.154  0.0840 -0.5533  0.2429
  166SAPE  H15X18691   5.137   5.036   6.120 -0.9381 -0.5663 -2.2200
  166SAPE  H15Y18692   4.984   5.143   6.080 -0.4418  0.2383  1.1292
  166SAPE  C31618693   4.974   5.039   6.260  0.4268  0.8856  0.4596
  166SAPE  H16X18694   4.924   5.105   6.334  0.4978 -1.2523  2.5404
  166SAPE  H16Y18695   5.046   4.989   6.329 -0.4122 -0.6949  0.2546
  166SAPE  C31718696   4.885   4.928   6.206  0.2444 -0.1375 -0.7848
  166SAPE  H17X18697   4.950   4.867   6.140 -0.3394 -1.0652 -0.5303
  166SAPE  H17Y18698   4.803   4.966   6.141 -0.5170 -0.8763 -0.2745
  166SAPE  C31818699   4.822   4.837   6.316 -0.3839 -0.4028  0.7131
  166SAPE  H18X18700   4.749   4.888   6.382 -0.3795 -0.9926  1.1836
  166SAPE  H18Y18701   4.901   4.787   6.376 -0.7305 -1.8095  0.0530
  166SAPE  H18Z18702   4.759   4.752   6.281  2.3765 -2.2603 -0.1051
  167SAPE     N18703   2.573   3.813   4.853  0.4860 -0.3697  0.2497
  167SAPE   HN118704   2.489   3.843   4.907 -0.3350 -1.8989 -0.0953
  167SAPE   HN218705   2.544   3.718   4.822 -2.1046 -0.0298  1.3626
  167SAPE   HN318706   2.645   3.813   4.928  0.5147  0.2702  0.2229
  167SAPE   C1218707   2.599   3.893   4.735 -0.2674 -0.4032 -0.1794
  167SAPE  H12A18708   2.703   3.864   4.708 -0.6412 -0.7098 -1.3295
  167SAPE  H12B18709   2.603   4.001   4.759  4.4142 -0.8705  2.3355
  167SAPE   C1118710   2.506   3.857   4.620  0.5252 -0.3233 -0.4577
  167SAPE  H11A18711   2.521   3.751   4.589 -1.4052 -0.4311 -1.1960
  167SAPE  H11B18712   2.536   3.918   4.532 -1.9274 -1.8226 -2.4658
  167SAPE     P18713   2.300   4.025   4.678 -0.3562  0.3189 -0.2066
  167SAPE   O1318714   2.337   4.123   4.573  0.3092 -0.0811 -0.0540
  167SAPE   O1418715   2.158   3.999   4.696  0.0919 -0.3573 -0.3036
  167SAPE   O1218716   2.367   3.879   4.648  1.0265 -0.6803  0.2072
  167SAPE   O1118717   2.373   4.063   4.813  0.0096  0.5392 -0.2271
  167SAPE    C118718   2.417   4.196   4.841 -0.2553 -0.1569 -0.1511
  167SAPE    HA18719   2.497   4.233   4.773  0.0977 -1.1183 -0.2653
  167SAPE    HB18720   2.336   4.266   4.872  1.2981 -0.1117  4.6296
  167SAPE    C218721   2.493   4.194   4.979  0.0062  0.3570  1.1110
  167SAPE    HS18722   2.578   4.122   4.981 -2.1488 -2.3688  0.8860
  167SAPE   O2118723   2.409   4.142   5.081  0.0410  0.2666 -0.3634
  167SAPE   C2118724   2.472   4.102   5.193  0.1864  0.3158  0.1993
  167SAPE   O2218725   2.591   4.091   5.204 -0.0363 -0.9012  0.1528
  167SAPE   C2218726   2.362   4.070   5.295 -0.4280  0.6946  0.3618
  167SAPE   H2R18727   2.300   4.161   5.304 -0.4355  0.6239  1.0978
  167SAPE   H2S18728   2.308   3.977   5.267  1.9765 -0.6657 -0.1013
  167SAPE    C318729   2.551   4.332   5.005 -0.4729  0.9310  0.3366
  167SAPE    HX18730   2.618   4.360   4.921 -0.6115 -1.9128 -0.8277
  167SAPE    HY18731   2.613   4.322   5.096  0.4897  1.8707 -0.1909
  167SAPE   O3118732   2.448   4.432   5.025 -0.1240  0.1237  0.3408
  167SAPE   C3118733   2.503   4.548   5.075  0.0427  0.5460 -0.1802
  167SAPE   O3218734   2.616   4.564   5.118 -0.1767  0.1791 -0.2453
  167SAPE   C3218735   2.406   4.662   5.058  0.3314 -0.2892 -0.4263
  167SAPE   H2X18736   2.304   4.620   5.043 -0.3084 -0.9673  4.4033
  167SAPE   H2Y18737   2.430   4.712   4.961  1.2634 -1.7195 -0.9629
  167SAPE   C2318738   2.418   4.036   5.428 -0.4450  1.0072  0.4502
  167SAPE   H3R18739   2.520   3.995   5.416 -0.1650  2.1254 -1.3924
  167SAPE   H3S18740   2.350   3.966   5.481  0.2817  0.6142  0.8711
  167SAPE   C2418741   2.438   4.160   5.511  0.6437  0.3016  0.0205
  167SAPE   H4R18742   2.473   4.249   5.454 -0.3196 -0.6586 -2.1399
  167SAPE   H4S18743   2.526   4.147   5.578 -0.5332 -0.5870  1.4509
  167SAPE   C2518744   2.323   4.198   5.599  0.1580  0.3303 -0.0405
  167SAPE   H5R18745   2.236   4.214   5.533  2.0388  0.0794 -2.7146
  167SAPE   C2618746   2.321   4.210   5.733  0.0150 -0.6682  0.9756
  167SAPE   H6R18747   2.229   4.238   5.784 -0.5389 -0.3876 -0.1509
  167SAPE   C2718748   2.435   4.212   5.823  0.2987 -0.2652  0.2890
  167SAPE   H7R18749   2.411   4.278   5.909  0.5490  1.3170 -0.8158
  167SAPE   H7S18750   2.518   4.260   5.766 -1.2743  2.4405  0.1051
  167SAPE   C2818751   2.478   4.075   5.857  0.4700  0.2343 -0.6197
  167SAPE   H8R18752   2.496   3.998   5.780 -2.1126  0.4242 -1.4906
  167SAPE   C2918753   2.526   4.046   5.978  0.5939 -0.1043 -0.6672
  167SAPE   H9R18754   2.542   3.941   6.007 -4.0755 -0.2853  2.2282
  167SAPE  C21018755   2.529   4.136   6.097 -0.2832  0.3181  0.3518
  167SAPE  H10R18756   2.499   4.072   6.183 -0.4462 -1.6628 -1.1125
  167SAPE  H10S18757   2.448   4.213   6.097 -0.5722  0.0223  1.0921
  167SAPE  C21118758   2.657   4.208   6.137 -0.1418 -0.3180  0.1048
  167SAPE  H11R18759   2.694   4.282   6.065 -1.8210  2.3602  1.7680
  167SAPE  C21218760   2.732   4.191   6.253  0.1636  0.0015  0.4998
  167SAPE  H12R18761   2.826   4.245   6.270  0.1579  0.2551 -0.2413
  167SAPE  C21318762   2.705   4.084   6.356  0.4193 -0.0112  0.3925
  167SAPE  H13R18763   2.625   4.014   6.325 -1.4448  2.0816  0.1613
  167SAPE  H13S18764   2.671   4.134   6.449  1.8972 -0.4538  1.1918
  167SAPE  C21418765   2.826   4.001   6.386  0.0327 -0.2212 -0.1567
  167SAPE  H14R18766   2.837   3.918   6.314  2.5407  0.1904 -0.3331
  167SAPE  C21518767   2.919   4.008   6.480 -0.3040 -0.4307 -0.3138
  167SAPE  H15R18768   2.997   3.930   6.483  2.0848  1.8066 -0.8775
  167SAPE  C21618769   2.926   4.121   6.576  0.4062 -0.0731  0.5342
  167SAPE  H16R18770   2.954   4.084   6.677  0.3076 -0.0026  0.5872
  167SAPE  H16S18771   2.834   4.183   6.572 -1.2777 -2.4630  0.1645
  167SAPE  C21718772   3.055   4.203   6.538 -0.1333  0.3381  0.9308
  167SAPE  H17R18773   3.055   4.300   6.593  3.6657  2.2181 -1.9589
  167SAPE  H17S18774   3.055   4.230   6.431 -1.8770 -0.3423  0.7182
  167SAPE  C21818775   3.186   4.124   6.558 -0.1825 -0.1484 -0.0405
  167SAPE  H18R18776   3.186   4.028   6.503  2.4058 -1.4704  2.0468
  167SAPE  H18S18777   3.194   4.094   6.664 -0.5167  0.2890  0.1131
  167SAPE  C21918778   3.300   4.207   6.503 -0.7521 -0.1296  0.6012
  167SAPE  H19R18779   3.282   4.309   6.541 -1.8220 -0.4380  0.9656
  167SAPE  H19S18780   3.298   4.215   6.392  0.5918  0.1333  0.5795
  167SAPE  C22018781   3.423   4.138   6.547 -0.0765  0.0248 -0.0014
  167SAPE  H20R18782   3.451   4.164   6.652 -0.0695  1.7916 -0.3991
  167SAPE  H20S18783   3.509   4.182   6.491 -1.5605  1.5152 -1.2126
  167SAPE  H20T18784   3.426   4.029   6.529  2.0426  0.0902 -0.3113
  167SAPE   C3318785   2.411   4.756   5.179  0.5980 -0.3580 -0.2690
  167SAPE   H3X18786   2.356   4.850   5.156 -0.9711 -1.4524 -1.1461
  167SAPE   H3Y18787   2.517   4.776   5.203  1.2359 -1.9342 -1.6033
  167SAPE   C3418788   2.347   4.693   5.307 -0.6629 -0.3029  0.2892
  167SAPE   H4X18789   2.365   4.760   5.394  1.6003 -2.6297  1.7441
  167SAPE   H4Y18790   2.406   4.600   5.319  0.3001  0.1753 -0.5989
  167SAPE   C3518791   2.199   4.662   5.282 -0.3286 -0.6731 -0.3982
  167SAPE   H5X18792   2.187   4.558   5.244  0.7214 -0.4407 -1.3978
  167SAPE   H5Y18793   2.159   4.732   5.205  1.2273  1.1382  0.3820
  167SAPE   C3618794   2.109   4.686   5.408  0.5891 -0.1349  0.7026
  167SAPE   H6X18795   2.002   4.690   5.376  0.5405  0.0326  0.8833
  167SAPE   H6Y18796   2.136   4.784   5.454 -0.4255  0.6079 -0.2241
  167SAPE   C3718797   2.143   4.580   5.515  0.9883  0.0107 -0.1370
  167SAPE   H7X18798   2.249   4.594   5.545  2.1709 -1.8866 -3.0282
  167SAPE   H7Y18799   2.133   4.477   5.475 -2.7247  0.2841 -0.2261
  167SAPE   C3818800   2.037   4.575   5.627 -0.8584  0.4046 -0.2539
  167SAPE   H8X18801   1.937   4.538   5.597 -1.4248  1.0215  0.7912
  167SAPE   H8Y18802   2.036   4.681   5.663  2.5165 -0.0699  1.6568
  167SAPE   C3918803   2.085   4.482   5.748  1.3118 -0.6447  0.8274
  167SAPE   H9X18804   2.191   4.507   5.768  1.8398 -0.0741 -2.1628
  167SAPE   H9Y18805   2.074   4.374   5.724 -3.7208  0.0017 -0.9968
  167SAPE  C31018806   1.994   4.510   5.866  0.0967  0.0745 -0.1916
  167SAPE  H10X18807   1.890   4.480   5.840  0.1157 -0.7396  0.6206
  167SAPE  H10Y18808   2.007   4.619   5.885  0.5426  0.1020 -0.6299
  167SAPE  C31118809   2.042   4.436   5.996 -0.5899 -0.5662  1.1420
  167SAPE  H11X18810   2.152   4.429   5.986 -0.5362  0.4553  0.8948
  167SAPE  H11Y18811   2.010   4.330   6.000  0.4096 -0.8993  0.5321
  167SAPE  C31218812   2.000   4.501   6.128  0.1064 -0.1852 -0.2830
  167SAPE  H12X18813   1.894   4.467   6.123  0.1873 -0.2883 -1.6273
  167SAPE  H12Y18814   2.012   4.611   6.130  0.4655 -0.2328  0.4252
  167SAPE  C31318815   2.062   4.439   6.254  1.0961  0.0952 -0.2051
  167SAPE  H13X18816   2.158   4.493   6.268  1.0671  0.1115 -0.0639
  167SAPE  H13Y18817   2.086   4.332   6.234 -1.1293 -0.3943 -0.5575
  167SAPE  C31418818   1.974   4.446   6.378  0.0639 -0.9315 -0.0756
  167SAPE  H14X18819   2.023   4.380   6.452  1.5047 -0.5656 -0.6759
  167SAPE  H14Y18820   1.870   4.415   6.353 -0.7270  0.3958  1.4089
  167SAPE  C31518821   1.966   4.593   6.428 -0.7432  0.7206  0.0401
  167SAPE  H15X18822   1.897   4.603   6.515 -3.1405 -1.3066 -1.5044
  167SAPE  H15Y18823   1.923   4.658   6.349 -0.2062  0.6949 -0.2725
  167SAPE  C31618824   2.105   4.653   6.470  0.1471  0.1286 -0.0668
  167SAPE  H16X18825   2.082   4.743   6.531 -0.1909 -0.8682  1.3434
  167SAPE  H16Y18826   2.159   4.681   6.377 -1.1525 -0.5439 -1.0494
  167SAPE  C31718827   2.196   4.569   6.562 -0.3748  0.1945  0.3684
  167SAPE  H17X18828   2.246   4.492   6.499 -2.7651 -1.2025  0.0428
  167SAPE  H17Y18829   2.150   4.504   6.640  1.8429 -0.0161  1.6043
  167SAPE  C31818830   2.310   4.650   6.634  0.0147  0.2282 -0.5245
  167SAPE  H18X18831   2.397   4.592   6.673 -0.0606  0.9705  0.7871
  167SAPE  H18Y18832   2.280   4.726   6.709 -0.3384  1.9763 -2.3635
  167SAPE  H18Z18833   2.357   4.728   6.571  0.0454  1.0584  0.5126
  168SAPE     N18834   6.472   6.262   3.665 -0.6652 -0.0145  0.4403
  168SAPE   HN118835   6.476   6.190   3.590  0.9441  0.7984 -0.3066
  168SAPE   HN218836   6.570   6.294   3.684 -0.4422 -0.7566  0.5571
  168SAPE   HN318837   6.422   6.219   3.745 -0.8216  1.5773  1.2340
  168SAPE   C1218838   6.388   6.377   3.621 -0.7845  0.5014 -0.4485
  168SAPE  H12A18839   6.291   6.328   3.598 -0.5778  0.5252 -1.4041
  168SAPE  H12B18840   6.425   6.416   3.524 -0.6263 -0.1831 -0.6649
  168SAPE   C1118841   6.368   6.481   3.739 -0.5568  0.5797  0.6991
  168SAPE  H11A18842   6.294   6.558   3.711 -2.7052 -0.4307  3.1644
  168SAPE  H11B18843   6.465   6.532   3.758  1.8585 -2.1767 -2.9640
  168SAPE     P18844   6.203   6.435   3.936 -0.6680 -0.0629  0.2166
  168SAPE   O1318845   6.105   6.501   3.853  0.4469  0.3673  0.6532
  168SAPE   O1418846   6.156   6.311   4.001 -0.0688  0.0206  0.1944
  168SAPE   O1218847   6.345   6.413   3.863  0.4668 -0.7270  0.0032
  168SAPE   O1118848   6.242   6.532   4.050  0.4833  0.2169 -0.0394
  168SAPE    C118849   6.312   6.493   4.170  0.1332 -0.6786  0.1599
  168SAPE    HA18850   6.392   6.417   4.153  1.0957  0.2109  0.5830
  168SAPE    HB18851   6.365   6.581   4.212 -0.5537 -0.9488  1.6665
  168SAPE    C218852   6.220   6.440   4.281 -0.1014  0.3435  0.0746
  168SAPE    HS18853   6.162   6.356   4.238  0.3239  0.2525 -0.3380
  168SAPE   O2118854   6.130   6.546   4.319 -0.4026  0.4231  0.3437
  168SAPE   C2118855   6.041   6.507   4.411 -0.9449  0.6791 -0.2128
  168SAPE   O2218856   6.015   6.391   4.440 -0.7761 -0.6208 -0.0166
  168SAPE   C2218857   5.969   6.629   4.471 -0.1586  0.2689  0.2830
  168SAPE   H2R18858   5.930   6.685   4.384  1.2301  0.3670 -0.2889
  168SAPE   H2S18859   5.879   6.588   4.523 -0.3388 -0.2767 -0.4323
  168SAPE    C318860   6.308   6.389   4.402 -0.2215 -0.6420 -0.5165
  168SAPE    HX18861   6.367   6.303   4.365 -2.9494 -2.2726 -1.3759
  168SAPE    HY18862   6.247   6.343   4.483  1.0611 -1.5361 -0.0279
  168SAPE   O3118863   6.387   6.499   4.460  0.6670  0.3175 -0.2138
  168SAPE   C3118864   6.519   6.495   4.444 -0.4478  0.2293  0.0167
  168SAPE   O3218865   6.578   6.407   4.383  0.0754 -0.5698 -0.5744
  168SAPE   C3218866   6.579   6.614   4.528 -0.7824 -0.1366 -0.4953
  168SAPE   H2X18867   6.561   6.713   4.481  0.5417  0.0865 -0.5748
  168SAPE   H2Y18868   6.687   6.587   4.532 -0.6497  0.4978  0.6845
  168SAPE   C2318869   6.045   6.721   4.559 -0.2743 -0.0037 -0.2877
  168SAPE   H3R18870   6.000   6.823   4.554  2.2340  1.2741  1.2975
  168SAPE   H3S18871   6.153   6.721   4.534  0.0145  0.5556  0.8732
  168SAPE   C2418872   6.041   6.690   4.713  0.1846  0.3779  0.7378
  168SAPE   H4R18873   5.938   6.667   4.748  0.3726 -3.8933 -0.9988
  168SAPE   H4S18874   6.080   6.774   4.774  1.4157  1.3394 -1.2467
  168SAPE   C2518875   6.118   6.563   4.751 -0.2435  0.1280 -0.1602
  168SAPE   H5R18876   6.198   6.543   4.679  0.4009 -1.7424  1.0130
  168SAPE   C2618877   6.100   6.482   4.856  0.0221  0.3044 -0.2541
  168SAPE   H6R18878   6.158   6.389   4.856  0.4309  0.5374 -1.5216
  168SAPE   C2718879   5.999   6.484   4.975 -0.0288 -0.4775  0.6551
  168SAPE   H7R18880   5.935   6.394   4.966 -0.1793 -0.3621  0.5615
  168SAPE   H7S18881   5.929   6.566   4.947  1.8568  1.2272  0.7149
  168SAPE   C2818882   6.067   6.500   5.100  0.1089 -0.3600  0.1505
  168SAPE   H8R18883   6.134   6.586   5.108  0.5194 -0.6631  0.0198
  168SAPE   C2918884   6.062   6.418   5.210  0.0037  0.3185  0.0202
  168SAPE   H9R18885   6.097   6.440   5.312  1.2120 -1.7861  0.1206
  168SAPE  C21018886   5.968   6.298   5.215  0.4048  0.7611 -0.7254
  168SAPE  H10R18887   5.874   6.309   5.157 -0.9228 -0.1044  1.1582
  168SAPE  H10S18888   5.933   6.278   5.319  2.0609  0.3651 -0.2143
  168SAPE  C21118889   6.038   6.177   5.168  0.3045 -0.4154 -1.3044
  168SAPE  H11R18890   6.086   6.184   5.069  1.3296 -0.3581 -0.8193
  168SAPE  C21218891   6.064   6.072   5.246  0.3543  0.8352  0.5483
  168SAPE  H12R18892   6.140   5.999   5.215 -0.1414 -1.6247  4.4401
  168SAPE  C21318893   6.026   6.056   5.387  1.5978  0.1112  0.1226
  168SAPE  H13R18894   6.012   5.950   5.416 -1.1037  0.2454 -0.3977
  168SAPE  H13S18895   5.921   6.088   5.405  1.3258 -1.3323  1.3204
  168SAPE  C21418896   6.130   6.104   5.484  0.0711 -0.3450 -0.2558
  168SAPE  H14R18897   6.218   6.157   5.443  1.1791 -1.1800  0.9723
  168SAPE  C21518898   6.129   6.102   5.615 -1.1843 -0.2178  0.5561
  168SAPE  H15R18899   6.217   6.140   5.670 -2.3356  3.3750  0.1953
  168SAPE  C21618900   6.021   6.047   5.709 -0.5252 -0.4861  0.0090
  168SAPE  H16R18901   5.966   5.967   5.656  0.0057  0.8435 -2.7314
  168SAPE  H16S18902   5.965   6.138   5.741  2.1160  1.3458 -0.2786
  168SAPE  C21718903   6.078   5.988   5.838 -0.2238 -0.0865 -0.3998
  168SAPE  H17R18904   6.153   6.058   5.880  1.4908 -2.3838  0.5761
  168SAPE  H17S18905   6.139   5.903   5.802 -2.0296 -1.4237 -0.4566
  168SAPE  C21818906   5.970   5.950   5.939  0.0023 -0.9594  0.0865
  168SAPE  H18R18907   5.912   5.864   5.901 -1.1544 -0.5108  0.7816
  168SAPE  H18S18908   5.896   6.032   5.954  1.3382 -0.0911  2.4352
  168SAPE  C21918909   6.027   5.926   6.080  0.3301  0.5343  0.3675
  168SAPE  H19R18910   6.065   6.023   6.119  1.9660 -0.1377  0.5180
  168SAPE  H19S18911   6.105   5.847   6.073  1.8484  2.0471 -0.5794
  168SAPE  C22018912   5.913   5.889   6.169  0.2782  0.1454  0.2321
  168SAPE  H20R18913   5.827   5.959   6.181  0.1757 -0.3631  3.6493
  168SAPE  H20S18914   5.952   5.857   6.268  2.1080 -0.6983 -0.7186
  168SAPE  H20T18915   5.871   5.794   6.131  2.8965 -1.4818  1.1503
  168SAPE   C3318916   6.510   6.629   4.666 -0.0197 -0.2165  0.4641
  168SAPE   H3X18917   6.400   6.630   4.681  0.1219 -0.1914  1.5667
  168SAPE   H3Y18918   6.561   6.723   4.694  0.9166 -0.8080  0.8109
  168SAPE   C3418919   6.563   6.520   4.759 -0.0830  0.8919 -0.0606
  168SAPE   H4X18920   6.669   6.491   4.739 -0.4597  0.6855 -1.9259
  168SAPE   H4Y18921   6.497   6.432   4.743  4.2919 -2.7858 -0.0565
  168SAPE   C3518922   6.559   6.565   4.907 -0.7230  0.6867  0.2331
  168SAPE   H5X18923   6.462   6.616   4.926 -0.9363  0.3565  0.0408
  168SAPE   H5Y18924   6.635   6.643   4.929 -0.7186  0.7098  0.1339
  168SAPE   C3618925   6.570   6.446   5.009  0.2680  0.6337 -0.0431
  168SAPE   H6X18926   6.671   6.400   5.005 -0.0176 -0.0270  0.2728
  168SAPE   H6Y18927   6.492   6.376   4.972 -0.1901 -0.1002  2.1686
  168SAPE   C3718928   6.538   6.491   5.148 -0.2111 -0.4431 -0.5177
  168SAPE   H7X18929   6.440   6.543   5.154  0.3985  0.6372  0.1130
  168SAPE   H7Y18930   6.607   6.572   5.176 -2.3611  0.6853  1.9641
  168SAPE   C3818931   6.550   6.373   5.248 -0.2491  1.1970 -0.4407
  168SAPE   H8X18932   6.653   6.331   5.244 -0.9118 -0.5509 -0.0849
  168SAPE   H8Y18933   6.476   6.294   5.224  2.5992 -2.3788  1.4081
  168SAPE   C3918934   6.524   6.409   5.399 -1.0993  0.3939 -0.5890
  168SAPE   H9X18935   6.429   6.466   5.411 -0.1794  1.8792 -0.1085
  168SAPE   H9Y18936   6.608   6.468   5.440  0.6825  0.1801 -3.6305
  168SAPE  C31018937   6.510   6.276   5.466  0.0829 -0.7526 -0.4871
  168SAPE  H10X18938   6.605   6.222   5.443  0.4316 -2.6842  4.2561
  168SAPE  H10Y18939   6.420   6.221   5.432  0.4992 -1.6469 -0.1951
  168SAPE  C31118940   6.511   6.276   5.618  0.0153  0.5918  0.4340
  168SAPE  H11X18941   6.418   6.310   5.667 -0.0819  0.2990  0.4573
  168SAPE  H11Y18942   6.600   6.329   5.657  0.5961 -0.0055 -0.0538
  168SAPE  C31218943   6.511   6.135   5.672  0.3282  0.2812 -0.1596
  168SAPE  H12X18944   6.611   6.090   5.654  0.5070  1.0929 -1.3189
  168SAPE  H12Y18945   6.444   6.081   5.602 -1.4564  0.9964  0.9481
  168SAPE  C31318946   6.461   6.122   5.819 -0.7001  0.5971  0.9468
  168SAPE  H13X18947   6.447   6.017   5.850 -0.4768  0.4975  0.7143
  168SAPE  H13Y18948   6.360   6.168   5.825 -0.1131  1.8407  2.0079
  168SAPE  C31418949   6.566   6.174   5.917 -0.5432  0.5910 -0.0967
  168SAPE  H14X18950   6.558   6.284   5.904  2.2137  0.7367 -1.1264
  168SAPE  H14Y18951   6.669   6.141   5.896 -0.5317  0.9786 -0.6670
  168SAPE  C31518952   6.525   6.142   6.068 -0.4560 -0.2922 -0.3094
  168SAPE  H15X18953   6.415   6.152   6.074 -0.3069  0.9152  1.0882
  168SAPE  H15Y18954   6.577   6.204   6.144 -0.7809 -1.0843  0.5656
  168SAPE  C31618955   6.558   6.001   6.103  0.0554  1.1450 -0.5012
  168SAPE  H16X18956   6.668   6.014   6.114 -0.3144  3.8276  0.8304
  168SAPE  H16Y18957   6.534   5.928   6.023  0.0464  0.2172  0.3283
  168SAPE  C31718958   6.504   5.954   6.246  0.1330  0.0720  0.1134
  168SAPE  H17X18959   6.562   5.868   6.285  0.6992  0.3178 -0.1682
  168SAPE  H17Y18960   6.403   5.912   6.224  0.0636  0.3571 -0.1195
  168SAPE  C31818961   6.501   6.058   6.357  0.3709  0.3331  0.4710
  168SAPE  H18X18962   6.420   6.133   6.345 -1.2565 -1.3480  0.5176
  168SAPE  H18Y18963   6.600   6.102   6.380  0.4255 -0.4598  1.9031
  168SAPE  H18Z18964   6.471   6.000   6.448 -1.4311  0.3298 -0.0821
  169SAPE     N18965   5.197   1.141   4.168 -0.1468 -0.0383  0.2247
  169SAPE   HN118966   5.118   1.177   4.111  0.2016 -0.0908 -0.3000
  169SAPE   HN218967   5.288   1.166   4.123 -0.9574  0.3034 -1.2826
  169SAPE   HN318968   5.189   1.039   4.182 -0.4572  0.1691  1.6682
  169SAPE   C1218969   5.190   1.209   4.298 -0.1501 -0.3190 -0.3301
  169SAPE  H12A18970   5.281   1.183   4.356 -0.9189 -2.3973  0.0364
  169SAPE  H12B18971   5.087   1.200   4.339 -0.7590 -0.5201 -1.8436
  169SAPE   C1118972   5.199   1.356   4.273 -0.6361  0.7862  0.1269
  169SAPE  H11A18973   5.194   1.410   4.370 -1.0900 -2.9124  2.3650
  169SAPE  H11B18974   5.108   1.384   4.216 -0.5381 -1.1702 -1.1047
  169SAPE     P18975   5.445   1.443   4.250 -0.0041 -0.2527 -0.4402
  169SAPE   O1318976   5.557   1.411   4.154 -0.2170  0.0303 -0.5810
  169SAPE   O1418977   5.444   1.583   4.300  0.5252  0.2234 -0.2923
  169SAPE   O1218978   5.306   1.409   4.187 -0.1286 -0.1395 -0.0680
  169SAPE   O1118979   5.454   1.340   4.371  0.1042 -0.0219 -0.3064
  169SAPE    C118980   5.503   1.395   4.499  0.4665 -0.1326  0.2317
  169SAPE    HA18981   5.608   1.424   4.479  0.7103 -1.0786  0.0872
  169SAPE    HB18982   5.446   1.487   4.524  0.7374 -0.1560  0.9524
  169SAPE    C218983   5.489   1.292   4.617  0.0415 -0.0572  0.9128
  169SAPE    HS18984   5.382   1.268   4.629  0.2699 -1.3187  0.5259
  169SAPE   O2118985   5.541   1.346   4.738  0.0367 -0.6296  0.0232
  169SAPE   C2118986   5.458   1.420   4.816 -0.5452 -0.9148 -0.8052
  169SAPE   O2218987   5.335   1.428   4.794  0.2686  0.0871 -0.3626
  169SAPE   C2218988   5.538   1.473   4.935 -0.5420 -0.4282 -0.2223
  169SAPE   H2R18989   5.537   1.399   5.018  2.1912 -1.5711 -1.1162
  169SAPE   H2S18990   5.644   1.486   4.904  0.1194 -0.7250  1.7647
  169SAPE    C318991   5.553   1.155   4.580  0.2103 -0.1696 -0.1774
  169SAPE    HX18992   5.659   1.185   4.568  0.1328  0.1745 -0.0201
  169SAPE    HY18993   5.522   1.124   4.478 -2.9729  1.3375  0.2222
  169SAPE   O3118994   5.546   1.054   4.685  0.1058  1.0121 -0.1967
  169SAPE   C3118995   5.420   0.992   4.700 -0.0651  0.4234  0.1215
  169SAPE   O3218996   5.326   1.010   4.623 -0.3023 -0.5121  0.6290
  169SAPE   C3218997   5.422   0.894   4.817  0.3894  0.1045  1.1243
  169SAPE   H2X18998   5.524   0.872   4.856  0.3148 -0.1440  1.1852
  169SAPE   H2Y18999   5.382   0.796   4.781 -1.1076  0.4889  1.6588
  169SAPE   C2319000   5.504   1.610   4.996 -0.1254  0.8657  0.9154
  169SAPE   H3R19001   5.400   1.590   5.029  0.7121  1.2746  4.0577
  169SAPE   H3S19002   5.510   1.695   4.924  0.2746 -0.9300 -1.2851
  169SAPE   C2419003   5.586   1.642   5.127  0.0384 -0.7253 -0.2567
  169SAPE   H4R19004   5.575   1.553   5.193 -1.1956  0.3495  1.0665
  169SAPE   H4S19005   5.530   1.717   5.187  0.6617 -0.9058  0.5627
  169SAPE   C2519006   5.733   1.680   5.099 -0.0814  0.2201  0.3958
  169SAPE   H5R19007   5.760   1.716   4.998  0.7462 -2.8165 -0.5595
  169SAPE   C2619008   5.831   1.643   5.187 -0.3230  0.2338  0.1207
  169SAPE   H6R19009   5.933   1.661   5.150 -0.4736  0.3937 -0.2206
  169SAPE   C2719010   5.817   1.593   5.327  0.1144  0.4071 -0.3681
  169SAPE   H7R19011   5.915   1.547   5.353  0.6112  0.4613 -2.0203
  169SAPE   H7S19012   5.742   1.512   5.337  1.9183 -1.3721 -0.5533
  169SAPE   C2819013   5.791   1.703   5.425  0.0030 -0.1804 -0.4848
  169SAPE   H8R19014   5.745   1.796   5.389 -1.5001 -0.3025  0.9870
  169SAPE   C2919015   5.807   1.695   5.559 -0.1349  0.3110  0.1371
  169SAPE   H9R19016   5.777   1.776   5.626  0.3870  0.5818  0.0505
  169SAPE  C21019017   5.846   1.564   5.619 -0.0250  0.0709 -0.2389
  169SAPE  H10R19018   5.945   1.524   5.589 -0.0987 -2.4761  2.4147
  169SAPE  H10S19019   5.769   1.488   5.595 -0.9053  0.3148  1.6698
  169SAPE  C21119020   5.850   1.567   5.770 -0.2086 -0.8461 -0.3278
  169SAPE  H11R19021   5.790   1.645   5.820  2.0046 -0.5523  2.0480
  169SAPE  C21219022   5.920   1.481   5.852 -0.1186 -0.3289  0.0417
  169SAPE  H12R19023   5.914   1.489   5.961 -1.7999 -2.4155  0.1772
  169SAPE  C21319024   6.006   1.370   5.800 -0.5432  1.0221  0.7116
  169SAPE  H13R19025   6.107   1.408   5.826  0.4732 -0.9249 -0.2111
  169SAPE  H13S19026   6.009   1.360   5.690 -0.8398 -0.0071  0.7909
  169SAPE  C21419027   5.976   1.228   5.861  0.0310  0.1149 -0.1915
  169SAPE  H14R19028   5.970   1.151   5.782 -2.7501  0.7157 -0.6536
  169SAPE  C21519029   5.967   1.190   5.992 -0.3204 -0.2225 -0.0844
  169SAPE  H15R19030   5.945   1.082   6.005  0.2489 -0.1378  1.9764
  169SAPE  C21619031   6.001   1.264   6.122 -0.1924  1.1905 -0.9167
  169SAPE  H16R19032   5.906   1.262   6.179 -0.6959 -0.3151 -1.7484
  169SAPE  H16S19033   6.032   1.369   6.106  1.1676  0.6768 -1.8796
  169SAPE  C21719034   6.119   1.204   6.203  0.1636  0.3260  0.0159
  169SAPE  H17R19035   6.209   1.208   6.137 -1.3663 -0.4210 -2.2668
  169SAPE  H17S19036   6.111   1.096   6.226  0.9319  0.4821  1.0634
  169SAPE  C21819037   6.136   1.287   6.333  0.0366  0.0008  0.5678
  169SAPE  H18R19038   6.051   1.280   6.404 -0.7485  2.5556 -0.0168
  169SAPE  H18S19039   6.140   1.393   6.300 -0.1328 -0.1903 -0.0742
  169SAPE  C21919040   6.266   1.244   6.384  0.5630 -0.6582 -0.1449
  169SAPE  H19R19041   6.352   1.293   6.334  2.2726 -1.7423  1.5583
  169SAPE  H19S19042   6.283   1.136   6.365  0.2563 -0.5776 -0.8954
  169SAPE  C22019043   6.282   1.276   6.536 -0.3795 -1.0381  0.1355
  169SAPE  H20R19044   6.373   1.243   6.590  1.7177  0.8765 -1.9761
  169SAPE  H20S19045   6.188   1.246   6.588 -1.1488  0.4831 -0.3098
  169SAPE  H20T19046   6.285   1.387   6.544  0.8161 -1.0108 -0.4692
  169SAPE   C3319047   5.318   0.930   4.926 -0.7849 -0.3880  0.3132
  169SAPE   H3X19048   5.302   0.844   4.993 -2.3763 -0.3154  0.0673
  169SAPE   H3Y19049   5.220   0.965   4.885 -1.5434 -1.9464  0.7369
  169SAPE   C3419050   5.385   1.043   5.013 -0.2075  0.2005 -0.7944
  169SAPE   H4X19051   5.382   1.141   4.960  0.9900  1.2362  0.9703
  169SAPE   H4Y19052   5.489   1.011   5.037  0.0187  0.9853 -0.7172
  169SAPE   C3519053   5.310   1.080   5.148  0.8159 -0.1697  1.0791
  169SAPE   H5X19054   5.206   1.114   5.125  1.0434 -1.4431 -2.5326
  169SAPE   H5Y19055   5.358   1.173   5.184  0.1035  0.5156  0.2992
  169SAPE   C3619056   5.308   0.968   5.255  0.1250  0.1222 -0.1622
  169SAPE   H6X19057   5.409   0.920   5.251 -1.0620 -2.4525 -1.7566
  169SAPE   H6Y19058   5.232   0.889   5.237 -0.1915  0.1098  1.1989
  169SAPE   C3719059   5.293   1.024   5.392  0.7394  0.1175 -0.9995
  169SAPE   H7X19060   5.203   1.090   5.399 -1.0545 -2.3818  1.8965
  169SAPE   H7Y19061   5.380   1.084   5.425  1.1424 -0.7411 -0.4755
  169SAPE   C3819062   5.253   0.915   5.494  0.4939  0.1022 -0.0544
  169SAPE   H8X19063   5.329   0.835   5.496  0.8601  0.3772 -1.4261
  169SAPE   H8Y19064   5.152   0.872   5.479  0.5500 -0.3776  0.8999
  169SAPE   C3919065   5.253   0.977   5.635 -0.4127 -0.4094  0.5411
  169SAPE   H9X19066   5.193   1.069   5.620 -1.0757 -0.9521 -0.2336
  169SAPE   H9Y19067   5.359   1.003   5.658 -0.3009  2.6270 -2.6322
  169SAPE  C31019068   5.187   0.881   5.732 -0.2211  0.0081  0.6334
  169SAPE  H10X19069   5.252   0.791   5.741 -0.7351 -0.4706 -0.2732
  169SAPE  H10Y19070   5.089   0.842   5.696  0.4497 -0.8952 -0.2836
  169SAPE  C31119071   5.181   0.958   5.866  0.7331  1.0591  0.3829
  169SAPE  H11X19072   5.104   1.035   5.842 -0.2557 -0.3025 -0.9758
  169SAPE  H11Y19073   5.275   1.011   5.891  0.2649  2.3390 -0.4608
  169SAPE  C31219074   5.137   0.857   5.974  0.3635  0.1088 -0.0792
  169SAPE  H12X19075   5.213   0.777   5.967 -1.4829 -1.6623 -0.8234
  169SAPE  H12Y19076   5.038   0.809   5.961  0.3923 -0.4422  1.5002
  169SAPE  C31319077   5.125   0.929   6.107  0.0599 -0.3091 -0.4571
  169SAPE  H13X19078   5.051   1.012   6.100  1.2191  0.8737  0.5740
  169SAPE  H13Y19079   5.221   0.979   6.134 -1.0026 -0.0033  3.3580
  169SAPE  C31419080   5.094   0.829   6.223  0.5680 -0.1926 -0.5794
  169SAPE  H14X19081   5.188   0.771   6.228  0.8733  0.1277 -2.0125
  169SAPE  H14Y19082   5.012   0.762   6.193  0.5991 -0.8988  0.8538
  169SAPE  C31519083   5.055   0.889   6.360  0.1158  0.0902 -0.3179
  169SAPE  H15X19084   4.969   0.952   6.328 -0.2802 -0.2880 -0.0165
  169SAPE  H15Y19085   5.134   0.953   6.405 -0.9882  1.6558 -0.5202
  169SAPE  C31619086   5.016   0.790   6.472 -0.3477  0.2135  0.4659
  169SAPE  H16X19087   5.000   0.847   6.566  2.2320  1.6500  0.1211
  169SAPE  H16Y19088   5.091   0.711   6.495 -1.3705 -1.5436 -1.8127
  169SAPE  C31719089   4.889   0.701   6.451  0.1838 -0.5772  1.0382
  169SAPE  H17X19090   4.890   0.661   6.348  0.6653  0.4813  0.6253
  169SAPE  H17Y19091   4.803   0.768   6.470 -1.3932 -2.1752 -0.0988
  169SAPE  C31819092   4.879   0.591   6.557 -0.7202 -0.4769 -0.2165
  169SAPE  H18X19093   4.782   0.537   6.552 -1.0893  0.2244 -0.7480
  169SAPE  H18Y19094   4.902   0.637   6.655  1.3235  0.7247 -1.1963
  169SAPE  H18Z19095   4.964   0.522   6.540  0.1298  0.7764 -1.2078
  170SAPE     N19096   3.532   3.731   4.644  0.5023 -0.4569  0.4916
  170SAPE   HN119097   3.571   3.665   4.573  1.0488  1.3878 -0.9964
  170SAPE   HN219098   3.482   3.671   4.712 -0.0498 -2.1644 -1.3023
  170SAPE   HN319099   3.462   3.794   4.598  1.7818 -0.1009 -1.0558
  170SAPE   C1219100   3.634   3.818   4.711  0.0879 -0.1348  0.5358
  170SAPE  H12A19101   3.678   3.872   4.624  0.9323 -1.1511  0.3074
  170SAPE  H12B19102   3.715   3.747   4.740  0.9660  0.5566 -0.1387
  170SAPE   C1119103   3.583   3.893   4.829  0.1971  0.0445 -0.5635
  170SAPE  H11A19104   3.671   3.931   4.885  0.3917  0.5073 -1.1658
  170SAPE  H11B19105   3.528   3.820   4.893 -1.0776  0.2399 -1.4065
  170SAPE     P19106   3.361   4.049   4.864 -0.4163  0.6295 -0.2698
  170SAPE   O1319107   3.320   4.191   4.837 -0.5752 -0.0372 -0.1840
  170SAPE   O1419108   3.266   3.944   4.812 -0.0044  0.3065 -0.3708
  170SAPE   O1219109   3.501   4.011   4.790 -0.0802  0.4885 -0.4145
  170SAPE   O1119110   3.374   4.032   5.021  0.1707 -0.4526  0.1713
  170SAPE    C119111   3.474   4.109   5.089 -0.1769 -0.4068  0.1009
  170SAPE    HA19112   3.556   4.153   5.030 -0.2915 -0.0896  0.1758
  170SAPE    HB19113   3.426   4.200   5.132 -0.9426 -1.0850  0.7332
  170SAPE    C219114   3.538   4.027   5.210  0.3051  0.1384  0.2725
  170SAPE    HS19115   3.589   3.940   5.163  0.5299  0.4883 -0.1356
  170SAPE   O2119116   3.434   3.999   5.311  0.5931  0.0955  0.4892
  170SAPE   C2119117   3.452   3.882   5.382  0.3089  0.5253 -0.4726
  170SAPE   O2219118   3.558   3.818   5.380 -0.3852  0.5013  0.1162
  170SAPE   C2219119   3.329   3.841   5.452  0.3556  0.7728 -0.2842
  170SAPE   H2R19120   3.259   3.927   5.463 -0.7831 -0.1493 -0.0796
  170SAPE   H2S19121   3.276   3.767   5.389 -0.3371  1.0857 -0.0852
  170SAPE    C319122   3.654   4.100   5.282 -0.2612  0.1801  0.6438
  170SAPE    HX19123   3.739   4.116   5.213 -0.8056  1.1320  0.1796
  170SAPE    HY19124   3.702   4.032   5.355  0.8637  1.4074  1.0671
  170SAPE   O3119125   3.606   4.233   5.328 -0.1061  0.3554  0.1144
  170SAPE   C3119126   3.579   4.222   5.461 -0.4214  0.7313  0.6080
  170SAPE   O3219127   3.586   4.116   5.523 -0.0911 -0.3365 -0.5468
  170SAPE   C3219128   3.546   4.357   5.514 -0.3843 -0.2073 -0.4098
  170SAPE   H2X19129   3.516   4.428   5.433 -0.7183  0.3071  0.1604
  170SAPE   H2Y19130   3.635   4.403   5.564 -2.6645  2.6948  1.2996
  170SAPE   C2319131   3.364   3.791   5.600  0.9069  0.0279  0.5799
  170SAPE   H3R19132   3.441   3.840   5.664 -0.6022 -0.5525  2.9437
  170SAPE   H3S19133   3.411   3.691   5.585  0.5955 -0.1729  0.9085
  170SAPE   C2419134   3.239   3.769   5.681  0.6244  0.6164  0.1251
  170SAPE   H4R19135   3.255   3.692   5.758 -0.0056  2.5462  2.3044
  170SAPE   H4S19136   3.157   3.732   5.615  0.0829  0.4087  0.9093
  170SAPE   C2519137   3.200   3.896   5.747  0.2797 -0.4378  0.4192
  170SAPE   H5R19138   3.137   3.966   5.690 -0.0566 -0.3529  0.8888
  170SAPE   C2619139   3.238   3.925   5.871  0.1678 -0.0568  0.4033
  170SAPE   H6R19140   3.204   4.018   5.918  0.4444  0.0197  0.4562
  170SAPE   C2719141   3.316   3.833   5.967 -0.2343 -0.5617  0.2919
  170SAPE   H7R19142   3.404   3.793   5.912  0.0796  2.5071 -1.6885
  170SAPE   H7S19143   3.239   3.764   6.008 -1.2464  1.5491  2.1772
  170SAPE   C2819144   3.364   3.899   6.096  0.0236 -0.9868  0.2129
  170SAPE   H8R19145   3.318   3.997   6.112  1.2087 -0.2624 -0.6334
  170SAPE   C2919146   3.430   3.839   6.190 -0.5008 -0.1906  0.2968
  170SAPE   H9R19147   3.440   3.883   6.290 -1.2467 -0.7794  0.6462
  170SAPE  C21019148   3.465   3.694   6.181 -0.5091  0.9715  0.0937
  170SAPE  H10R19149   3.443   3.652   6.080  1.5816  1.4128 -0.5972
  170SAPE  H10S19150   3.400   3.630   6.245  0.0057 -0.2787 -0.6005
  170SAPE  C21119151   3.615   3.666   6.200  0.5981  0.5006  0.0088
  170SAPE  H11R19152   3.685   3.705   6.124  1.0271 -0.0005  0.1366
  170SAPE  C21219153   3.666   3.607   6.309  0.5169 -0.7723 -0.0073
  170SAPE  H12R19154   3.773   3.586   6.321  0.7263  0.2918  0.0984
  170SAPE  C21319155   3.592   3.583   6.436  0.2068  0.0802  0.5829
  170SAPE  H13R19156   3.557   3.477   6.441 -1.3965  0.5824  0.7451
  170SAPE  H13S19157   3.496   3.639   6.434 -0.0663 -0.3662 -1.6614
  170SAPE  C21419158   3.663   3.621   6.563  0.4765 -0.4029  0.2353
  170SAPE  H14R19159   3.725   3.711   6.551  0.7141 -0.4585  0.9988
  170SAPE  C21519160   3.656   3.558   6.687 -0.2192 -0.4668 -0.0717
  170SAPE  H15R19161   3.709   3.602   6.773 -1.4337  0.3675  0.2719
  170SAPE  C21619162   3.573   3.441   6.716 -0.0795 -0.7005 -0.1301
  170SAPE  H16R19163   3.606   3.378   6.802 -0.6196 -3.2116 -1.6612
  170SAPE  H16S19164   3.568   3.366   6.634 -1.3549 -3.0846  1.9722
  170SAPE  C21719165   3.432   3.486   6.756  0.5267  0.0409  0.2374
  170SAPE  H17R19166   3.368   3.402   6.721  0.8650  1.1100 -3.4037
  170SAPE  H17S19167   3.391   3.570   6.696  0.6508  1.7316  2.3833
  170SAPE  C21819168   3.427   3.523   6.907 -0.3342  0.0166 -0.2889
  170SAPE  H18R19169   3.506   3.599   6.927 -0.5589  0.0420  0.5769
  170SAPE  H18S19170   3.470   3.435   6.960 -0.0398  0.6773  0.5961
  170SAPE  C21919171   3.289   3.565   6.954 -0.6611 -0.1485 -0.7494
  170SAPE  H19R19172   3.243   3.464   6.946  0.7343 -0.8413 -0.3929
  170SAPE  H19S19173   3.246   3.644   6.890  0.8756  3.0803  1.9134
  170SAPE  C22019174   3.286   3.615   7.099  0.4889 -0.5824  0.1806
  170SAPE  H20R19175   3.347   3.705   7.124 -0.9702  0.5435 -0.1968
  170SAPE  H20S19176   3.306   3.524   7.160 -1.5251  0.8226  3.1518
  170SAPE  H20T19177   3.181   3.641   7.123  0.4250  0.4744 -1.1152
  170SAPE   C3319178   3.433   4.354   5.621 -0.5068 -0.3518  0.3915
  170SAPE   H3X19179   3.351   4.295   5.576  1.6432 -0.4664 -3.8818
  170SAPE   H3Y19180   3.396   4.459   5.617 -0.5524 -0.3846 -0.1600
  170SAPE   C3419181   3.463   4.319   5.762  0.2098  0.8918  0.0278
  170SAPE   H4X19182   3.552   4.365   5.810  0.1592  1.0044  0.0156
  170SAPE   H4Y19183   3.478   4.210   5.750 -0.6963  0.7988 -0.3453
  170SAPE   C3519184   3.340   4.322   5.846  0.0166 -0.3810  0.4877
  170SAPE   H5X19185   3.249   4.277   5.799 -1.4710  1.1497  1.7830
  170SAPE   H5Y19186   3.317   4.430   5.861 -0.7016 -0.2186 -1.5165
  170SAPE   C3619187   3.355   4.256   5.984 -0.4710 -0.2746 -0.1479
  170SAPE   H6X19188   3.426   4.317   6.043  2.3026 -0.7448 -2.7591
  170SAPE   H6Y19189   3.393   4.155   5.955  0.6407 -0.2535  1.1171
  170SAPE   C3719190   3.226   4.256   6.074  0.0845  0.2329  0.0307
  170SAPE   H7X19191   3.251   4.187   6.157  2.0680  1.6153  0.6513
  170SAPE   H7Y19192   3.131   4.218   6.030  0.0969 -1.3386  1.2933
  170SAPE   C3819193   3.188   4.393   6.133  0.5358  0.2690  0.1252
  170SAPE   H8X19194   3.095   4.379   6.191  2.6454 -1.9494  3.3019
  170SAPE   H8Y19195   3.162   4.465   6.052 -0.9953  0.5175  0.7995
  170SAPE   C3919196   3.284   4.470   6.227  0.9213 -0.8348  0.9302
  170SAPE   H9X19197   3.359   4.530   6.171 -0.2215 -0.6725 -0.4783
  170SAPE   H9Y19198   3.338   4.392   6.286  1.7175  0.6315  2.2042
  170SAPE  C31019199   3.205   4.557   6.320 -0.5482 -0.0913  0.2313
  170SAPE  H10X19200   3.142   4.491   6.384 -0.6680 -0.5724 -0.3733
  170SAPE  H10Y19201   3.134   4.619   6.262 -0.9022 -0.9366 -0.2590
  170SAPE  C31119202   3.294   4.644   6.415  0.2910 -0.4837 -0.1461
  170SAPE  H11X19203   3.376   4.691   6.356  0.7037 -1.0007  0.0045
  170SAPE  H11Y19204   3.349   4.576   6.483  1.7404  0.1734 -0.6152
  170SAPE  C31219205   3.213   4.744   6.501 -0.4505 -0.4694 -0.6070
  170SAPE  H12X19206   3.206   4.830   6.431  0.4543 -0.0374 -0.1848
  170SAPE  H12Y19207   3.274   4.766   6.591 -0.4141 -0.4581 -0.6344
  170SAPE  C31319208   3.068   4.702   6.549  0.2259 -0.0796  0.6024
  170SAPE  H13X19209   3.086   4.626   6.628  1.1223 -0.3618  0.1371
  170SAPE  H13Y19210   3.010   4.658   6.466  0.1822  0.9520  0.0626
  170SAPE  C31419211   2.981   4.817   6.601 -0.7428 -0.1513  0.1343
  170SAPE  H14X19212   2.874   4.787   6.613 -0.5118 -0.7893  0.6908
  170SAPE  H14Y19213   2.981   4.903   6.531 -2.9809  0.5348  0.8784
  170SAPE  C31519214   3.034   4.869   6.737  0.5440 -0.3772 -0.3939
  170SAPE  H15X19215   3.135   4.912   6.724  0.0435  0.4280 -1.9052
  170SAPE  H15Y19216   3.035   4.785   6.810  0.2349  0.4627  0.5966
  170SAPE  C31619217   2.940   4.979   6.787 -0.7148  0.2998 -0.6441
  170SAPE  H16X19218   2.833   4.952   6.780 -1.0536  1.8411 -1.8419
  170SAPE  H16Y19219   2.940   5.064   6.716  1.3396 -0.7727 -2.0319
  170SAPE  C31719220   2.972   5.019   6.936 -0.0869  0.0162 -0.3519
  170SAPE  H17X19221   3.071   5.070   6.934  0.0490 -0.1651  0.7435
  170SAPE  H17Y19222   2.979   4.927   6.998 -1.1871 -0.9030 -1.5246
  170SAPE  C31819223   2.864   5.114   6.993  0.0337  0.6459 -0.7124
  170SAPE  H18X19224   2.869   5.217   6.949 -3.7962  1.1184 -0.3273
  170SAPE  H18Y19225   2.866   5.123   7.103 -1.1075 -1.5900 -0.4587
  170SAPE  H18Z19226   2.762   5.084   6.963  0.5248  0.8321 -2.7629
  171SAPE     N19227   4.411   3.225   4.691  0.5633 -0.8687  0.0430
  171SAPE   HN119228   4.344   3.174   4.630  1.1276 -1.3940 -0.1520
  171SAPE   HN219229   4.428   3.176   4.781  0.3773  0.4976  0.8441
  171SAPE   HN319230   4.367   3.317   4.711 -1.1106 -1.9956  1.9205
  171SAPE   C1219231   4.545   3.252   4.618 -0.4480  0.5369 -0.3009
  171SAPE  H12A19232   4.589   3.343   4.664 -2.1803  1.4968 -0.4853
  171SAPE  H12B19233   4.530   3.277   4.511  1.4817  0.2491 -0.6714
  171SAPE   C1119234   4.641   3.130   4.613  0.5982 -0.2629  0.5617
  171SAPE  H11A19235   4.728   3.167   4.555  1.4704  0.5570  2.2875
  171SAPE  H11B19236   4.605   3.046   4.552 -1.4086  0.8870  0.0941
  171SAPE     P19237   4.618   2.994   4.832  0.0363  0.1768  0.1894
  171SAPE   O1319238   4.481   3.044   4.871  0.0146 -0.0631  0.2535
  171SAPE   O1419239   4.624   2.858   4.771 -0.0265 -0.2892 -0.1600
  171SAPE   O1219240   4.686   3.100   4.742 -0.7780 -0.6588  0.2594
  171SAPE   O1119241   4.698   2.994   4.967 -0.4614  0.1345  0.1174
  171SAPE    C119242   4.781   3.104   5.001 -0.3490  0.2479  0.1926
  171SAPE    HA19243   4.887   3.078   4.982 -0.2680 -0.2862  1.3115
  171SAPE    HB19244   4.746   3.201   4.959 -1.9607 -0.6260 -0.6070
  171SAPE    C219245   4.764   3.139   5.154 -0.3451 -0.0489  0.1015
  171SAPE    HS19246   4.827   3.230   5.166 -1.3582  0.4309  2.3788
  171SAPE   O2119247   4.831   3.034   5.233  0.4027  0.4770  0.0960
  171SAPE   C2119248   4.956   3.033   5.242  0.3899 -0.3512 -0.4421
  171SAPE   O2219249   5.027   3.116   5.185  0.4905 -0.4565 -0.2961
  171SAPE   C2219250   5.000   2.919   5.336  0.5726 -0.3495  1.0168
  171SAPE   H2R19251   4.907   2.868   5.369  0.4057 -0.3973  0.4865
  171SAPE   H2S19252   5.055   2.852   5.266 -0.6727  0.9085 -1.2887
  171SAPE    C319253   4.620   3.159   5.191  0.8753 -0.1298  0.0197
  171SAPE    HX19254   4.554   3.075   5.160 -2.0373  1.5324  1.2913
  171SAPE    HY19255   4.588   3.242   5.125  0.9042 -0.4736 -0.4297
  171SAPE   O3119256   4.605   3.189   5.331 -0.2707 -0.5402 -0.4265
  171SAPE   C3119257   4.515   3.121   5.395  0.0420  0.1729  0.1095
  171SAPE   O3219258   4.420   3.065   5.344 -0.4887  0.2686 -0.3811
  171SAPE   C3219259   4.558   3.121   5.546  0.6348  0.0514  0.0065
  171SAPE   H2X19260   4.476   3.178   5.595  0.8549 -0.4168  0.9509
  171SAPE   H2Y19261   4.661   3.162   5.553  1.7032 -2.3611 -0.4800
  171SAPE   C2319262   5.092   2.978   5.434 -0.1277  0.4523  0.4173
  171SAPE   H3R19263   5.173   3.030   5.378 -0.1605 -1.7166 -1.8596
  171SAPE   H3S19264   5.141   2.892   5.485 -0.3935  0.4129  0.6046
  171SAPE   C2419265   5.034   3.074   5.538 -0.0687 -0.3175 -0.4009
  171SAPE   H4R19266   4.983   3.158   5.487  1.9879  0.2664 -1.5947
  171SAPE   H4S19267   5.117   3.124   5.592 -1.3463  1.2368  0.2221
  171SAPE   C2519268   4.943   3.022   5.643  0.0364  0.7838  0.8129
  171SAPE   H5R19269   4.841   3.064   5.639  0.0110  0.6634  0.1609
  171SAPE   C2619270   4.972   2.939   5.748  0.0910  0.0738  0.2264
  171SAPE   H6R19271   4.893   2.912   5.820  0.4135 -3.0873 -0.4598
  171SAPE   C2719272   5.114   2.900   5.785  0.2109 -0.1645 -0.3946
  171SAPE   H7R19273   5.127   2.921   5.893 -3.5320  0.9151 -0.0100
  171SAPE   H7S19274   5.184   2.969   5.734 -3.5373  2.7134 -2.2054
  171SAPE   C2819275   5.147   2.752   5.768 -0.5697 -0.0189  0.4403
  171SAPE   H8R19276   5.191   2.733   5.669 -2.1418  1.4305 -0.5847
  171SAPE   C2919277   5.136   2.654   5.860  0.3139 -0.4524  0.5631
  171SAPE   H9R19278   5.140   2.547   5.835 -1.2673 -0.6647  1.0598
  171SAPE  C21019279   5.075   2.672   6.002  0.1005  0.6065  0.3125
  171SAPE  H10R19280   5.040   2.572   6.035 -0.0697  0.0609 -1.4176
  171SAPE  H10S19281   4.979   2.729   6.000  0.3434  1.0108 -0.7553
  171SAPE  C21119282   5.170   2.718   6.109 -0.1763 -0.2242  0.1466
  171SAPE  H11R19283   5.274   2.727   6.074 -1.3958  1.0097 -3.7249
  171SAPE  C21219284   5.137   2.730   6.240  0.8129 -0.2453 -0.6046
  171SAPE  H12R19285   5.216   2.765   6.308 -3.1577  3.7582  2.5181
  171SAPE  C21319286   5.009   2.699   6.314  0.4501  0.2138  1.0668
  171SAPE  H13R19287   5.020   2.621   6.392  0.8635 -1.0215 -0.1870
  171SAPE  H13S19288   4.930   2.663   6.245  2.5003 -0.1241 -1.2835
  171SAPE  C21419289   4.950   2.811   6.392  0.1846  0.7876 -0.0408
  171SAPE  H14R19290   4.872   2.859   6.331 -3.1140 -1.5152  2.0191
  171SAPE  C21519291   4.971   2.846   6.522 -0.1054  0.4936 -1.1259
  171SAPE  H15R19292   4.896   2.911   6.570  1.2876  1.1468  0.2718
  171SAPE  C21619293   5.068   2.783   6.625 -0.1784 -0.0648  0.3040
  171SAPE  H16R19294   5.155   2.851   6.619  1.8643 -2.5902 -0.5283
  171SAPE  H16S19295   5.114   2.689   6.587 -0.2976  0.0863 -0.2290
  171SAPE  C21719296   5.001   2.773   6.768 -0.0966  0.2574 -0.6693
  171SAPE  H17R19297   4.976   2.878   6.793 -0.2701 -0.1517  0.9323
  171SAPE  H17S19298   5.083   2.749   6.839 -0.0355  0.8964 -0.5164
  171SAPE  C21819299   4.889   2.667   6.787  0.0299 -0.4660  0.0331
  171SAPE  H18R19300   4.940   2.572   6.763 -0.9690 -1.5713  1.9807
  171SAPE  H18S19301   4.814   2.675   6.705  2.5580  2.1094 -2.2143
  171SAPE  C21919302   4.830   2.668   6.934  0.0413 -0.1124  0.7844
  171SAPE  H19R19303   4.744   2.599   6.939 -2.5088  2.5709 -1.8533
  171SAPE  H19S19304   4.786   2.769   6.950 -0.2871  0.1173 -1.2812
  171SAPE  C22019305   4.934   2.654   7.046 -0.8924 -0.5470 -0.3688
  171SAPE  H20R19306   4.892   2.603   7.135 -0.5030  1.1327  0.8248
  171SAPE  H20S19307   4.975   2.752   7.076  1.3178 -1.5747  0.1937
  171SAPE  H20T19308   5.015   2.590   7.004 -0.3715  0.1190 -0.3831
  171SAPE   C3319309   4.552   2.971   5.600  0.2767 -0.6087 -0.3911
  171SAPE   H3X19310   4.641   2.918   5.559  2.7796  2.3303  0.8279
  171SAPE   H3Y19311   4.461   2.927   5.553 -0.4460  0.0584  0.3584
  171SAPE   C3419312   4.564   2.955   5.752 -0.0291  0.8526  0.6120
  171SAPE   H4X19313   4.477   2.996   5.809 -1.7063 -4.0896  2.0524
  171SAPE   H4Y19314   4.655   3.008   5.789  1.1892 -1.4924  1.1310
  171SAPE   C3519315   4.570   2.805   5.792 -0.2560  0.3819  0.7594
  171SAPE   H5X19316   4.660   2.771   5.736 -2.0929 -1.9716 -0.9622
  171SAPE   H5Y19317   4.492   2.741   5.745  0.3874 -1.4390  2.0619
  171SAPE   C3619318   4.591   2.779   5.939  0.0697 -0.5219 -1.1647
  171SAPE   H6X19319   4.684   2.832   5.969 -0.0818 -0.8643 -0.0263
  171SAPE   H6Y19320   4.603   2.669   5.951 -1.7275 -0.5745  0.6178
  171SAPE   C3719321   4.473   2.814   6.029 -1.0028  0.6945 -0.2324
  171SAPE   H7X19322   4.395   2.748   5.985  0.3593 -2.1451  1.3722
  171SAPE   H7Y19323   4.449   2.920   6.004  2.9185  1.2873 -2.2767
  171SAPE   C3819324   4.492   2.783   6.180  0.5863 -0.2839  0.2683
  171SAPE   H8X19325   4.553   2.691   6.188  1.7666  0.4170 -0.4389
  171SAPE   H8Y19326   4.391   2.764   6.222  0.1669 -0.7427 -0.9055
  171SAPE   C3919327   4.565   2.892   6.253 -0.4857 -0.2337  0.1059
  171SAPE   H9X19328   4.549   2.994   6.212  0.3013 -1.3571 -3.3936
  171SAPE   H9Y19329   4.675   2.873   6.246 -0.4081  0.7132 -2.1480
  171SAPE  C31019330   4.519   2.891   6.401 -0.8666 -0.2483 -0.4453
  171SAPE  H10X19331   4.521   2.793   6.454 -1.4471 -0.0322 -0.0122
  171SAPE  H10Y19332   4.412   2.921   6.402 -0.8797 -0.2976  0.6949
  171SAPE  C31119333   4.590   2.988   6.494  0.2815 -0.1431  0.3611
  171SAPE  H11X19334   4.612   3.084   6.444  3.0712 -1.4878 -1.2529
  171SAPE  H11Y19335   4.695   2.956   6.511  0.1056 -0.0770  1.6352
  171SAPE  C31219336   4.510   3.013   6.623  0.0048  0.3223  0.4562
  171SAPE  H12X19337   4.584   3.055   6.694 -0.4793 -0.0949  1.2200
  171SAPE  H12Y19338   4.476   2.916   6.665 -1.5415  0.7637  0.3112
  171SAPE  C31319339   4.387   3.100   6.619 -0.2750 -0.5338  0.0855
  171SAPE  H13X19340   4.309   3.056   6.553  2.3452  0.6430 -4.2036
  171SAPE  H13Y19341   4.422   3.196   6.576 -0.6127 -0.1988  0.5501
  171SAPE  C31419342   4.321   3.131   6.753  0.1280 -0.5087 -0.7814
  171SAPE  H14X19343   4.390   3.161   6.836 -0.3001  2.0478 -1.2840
  171SAPE  H14Y19344   4.279   3.031   6.777 -0.2047 -0.7280 -2.1913
  171SAPE  C31519345   4.196   3.218   6.751  0.8950 -0.0479 -0.1776
  171SAPE  H15X19346   4.128   3.180   6.672 -1.5197  2.0899  0.7680
  171SAPE  H15Y19347   4.225   3.318   6.714  0.0055  0.4931  0.5504
  171SAPE  C31619348   4.124   3.224   6.890 -0.1096 -0.4958  0.0835
  171SAPE  H16X19349   4.196   3.260   6.967  1.0503  0.1855 -1.2775
  171SAPE  H16Y19350   4.097   3.119   6.918 -3.0727  0.3184  0.5778
  171SAPE  C31719351   3.994   3.297   6.894  0.3389 -0.3405 -0.5883
  171SAPE  H17X19352   3.929   3.257   6.812  1.1242  0.9849 -1.9135
  171SAPE  H17Y19353   4.014   3.405   6.873 -0.1980 -0.1278 -0.0460
  171SAPE  C31819354   3.912   3.270   7.029 -0.1068 -0.6431  0.2525
  171SAPE  H18X19355   3.968   3.311   7.115  0.6682 -0.5579 -0.2850
  171SAPE  H18Y19356   3.885   3.164   7.046  0.9180 -0.7999  0.9684
  171SAPE  H18Z19357   3.818   3.330   7.020 -1.8539 -2.7589  2.9879
  172SAPE     N19358   0.385   2.034   4.162 -0.3861  0.0050  0.4878
  172SAPE   HN119359   0.443   1.978   4.097 -0.4085  1.3404 -0.7263
  172SAPE   HN219360   0.309   2.088   4.117  1.2401  1.3875 -0.6911
  172SAPE   HN319361   0.446   2.106   4.206 -1.3484  2.4454 -1.8969
  172SAPE   C1219362   0.344   1.949   4.282 -0.2638  0.1508 -0.2993
  172SAPE  H12A19363   0.438   1.906   4.325 -1.2568 -0.7630  1.0471
  172SAPE  H12B19364   0.269   1.878   4.241 -0.0713  1.5299 -3.2682
  172SAPE   C1119365   0.265   2.037   4.374  0.3585 -0.3619 -0.4730
  172SAPE  H11A19366   0.214   1.967   4.443  1.1380  1.1365  1.7431
  172SAPE  H11B19367   0.187   2.096   4.321  0.4114  0.6966  0.5784
  172SAPE     P19368   0.421   2.096   4.580  0.0036 -0.0168  0.2226
  172SAPE   O1319369   0.547   2.022   4.558 -0.0458  0.0110 -0.2302
  172SAPE   O1419370   0.435   2.221   4.655  0.4407  0.2146  0.5761
  172SAPE   O1219371   0.352   2.127   4.440 -0.2032 -0.1646  0.6563
  172SAPE   O1119372   0.326   1.992   4.656  0.0572  0.0648  0.1345
  172SAPE    C119373   0.234   2.050   4.756  0.6150 -0.2318  0.0395
  172SAPE    HA19374   0.177   2.133   4.709  0.6851  2.1771  3.7616
  172SAPE    HB19375   0.158   1.972   4.779 -0.7351 -0.1356 -3.4990
  172SAPE    C219376   0.303   2.087   4.890 -0.8144 -0.7046 -0.6047
  172SAPE    HS19377   0.374   2.172   4.885 -1.5830  0.1463  1.6364
  172SAPE   O2119378   0.349   1.972   4.960 -0.1783  0.1920  0.7987
  172SAPE   C2119379   0.457   1.990   5.036 -0.1502 -0.5568  0.0989
  172SAPE   O2219380   0.518   2.097   5.046 -0.1469  0.2443  0.2045
  172SAPE   C2219381   0.484   1.867   5.112  0.0072  0.3492 -1.0652
  172SAPE   H2R19382   0.389   1.836   5.160  0.7215 -0.6119 -0.2371
  172SAPE   H2S19383   0.505   1.785   5.040 -2.2837 -1.2562 -0.0480
  172SAPE    C319384   0.189   2.153   4.971  0.0146  0.5224  0.1435
  172SAPE    HX19385   0.116   2.071   4.991  1.0247 -0.6107 -0.6623
  172SAPE    HY19386   0.146   2.231   4.905  1.3827  1.9796  0.8834
  172SAPE   O3119387   0.226   2.215   5.094 -0.0535 -0.1909 -0.5086
  172SAPE   C3119388   0.227   2.147   5.208 -0.2152 -0.4369  0.2813
  172SAPE   O3219389   0.193   2.031   5.221 -0.1195 -0.4383 -0.1326
  172SAPE   C3219390   0.296   2.233   5.319 -0.1592 -0.4465  0.1809
  172SAPE   H2X19391   0.218   2.302   5.358  1.3939  0.3425  2.0254
  172SAPE   H2Y19392   0.373   2.298   5.273 -0.3570 -0.5804 -0.3448
  172SAPE   C2319393   0.596   1.888   5.223  0.6018 -0.5578 -0.3118
  172SAPE   H3R19394   0.579   1.990   5.262 -0.9698 -1.4438  1.4326
  172SAPE   H3S19395   0.697   1.894   5.175  0.7243  1.5024  0.1224
  172SAPE   C2419396   0.596   1.781   5.331 -0.7489  0.3662 -0.7185
  172SAPE   H4R19397   0.695   1.804   5.377  0.1962  1.2890 -3.0156
  172SAPE   H4S19398   0.603   1.677   5.292 -0.2864  0.2031 -0.2062
  172SAPE   C2519399   0.494   1.797   5.434  0.0205  0.1876  0.3138
  172SAPE   H5R19400   0.389   1.785   5.402  0.3359  1.3505 -1.2637
  172SAPE   C2619401   0.514   1.817   5.567  0.8750  0.3036 -0.3490
  172SAPE   H6R19402   0.423   1.839   5.625  0.0685  0.4645 -1.6365
  172SAPE   C2719403   0.641   1.841   5.644 -0.2837 -0.3438  0.4250
  172SAPE   H7R19404   0.671   1.948   5.641  1.5671 -0.8418 -0.1614
  172SAPE   H7S19405   0.724   1.797   5.584 -0.4879  0.8233 -0.7579
  172SAPE   C2819406   0.646   1.791   5.786  0.4119  0.5737  0.8252
  172SAPE   H8R19407   0.631   1.682   5.781 -2.7178  0.9350 -0.0163
  172SAPE   C2919408   0.648   1.858   5.897  0.2634 -0.1368  0.0850
  172SAPE   H9R19409   0.645   1.802   5.992  0.9871  0.4680  0.4699
  172SAPE  C21019410   0.654   2.014   5.911  0.7035 -0.4991  0.4895
  172SAPE  H10R19411   0.560   2.054   5.869  0.2342 -0.1415  1.8277
  172SAPE  H10S19412   0.730   2.064   5.846 -1.3284  0.1841 -1.4679
  172SAPE  C21119413   0.683   2.064   6.053  0.6026 -0.2445  0.3670
  172SAPE  H11R19414   0.789   2.073   6.083  0.4380  0.8770  0.6598
  172SAPE  C21219415   0.593   2.081   6.156  0.7606 -0.1275  0.5277
  172SAPE  H12R19416   0.619   2.126   6.253 -1.6524 -1.7326  2.0515
  172SAPE  C21319417   0.440   2.055   6.143 -0.1629  0.1367  0.4359
  172SAPE  H13R19418   0.418   1.964   6.084 -0.5732  0.9924 -0.7694
  172SAPE  H13S19419   0.392   2.127   6.073 -1.0137 -0.1900  0.6672
  172SAPE  C21419420   0.366   2.032   6.272  0.1289  0.6416  0.4109
  172SAPE  H14R19421   0.293   2.107   6.307 -0.3399 -0.1273  1.0907
  172SAPE  C21519422   0.361   1.910   6.336  0.1781 -0.5574 -0.4993
  172SAPE  H15R19423   0.303   1.901   6.430 -0.1530 -1.0540 -0.7483
  172SAPE  C21619424   0.437   1.787   6.300 -0.2357 -0.4795  0.0030
  172SAPE  H16R19425   0.530   1.826   6.255 -0.0850  1.1297  1.5813
  172SAPE  H16S19426   0.379   1.734   6.221  1.0326 -3.0344  0.6775
  172SAPE  C21719427   0.476   1.690   6.415  0.2345 -0.5488  0.7243
  172SAPE  H17R19428   0.515   1.591   6.383 -1.8171 -0.1627 -3.7328
  172SAPE  H17S19429   0.380   1.672   6.468  0.5985 -0.1543  1.5363
  172SAPE  C21819430   0.571   1.751   6.521  0.4873 -0.1888  0.2427
  172SAPE  H18R19431   0.512   1.834   6.566 -0.6740 -0.4332 -0.7631
  172SAPE  H18S19432   0.661   1.792   6.471  1.1532 -0.2438  1.3761
  172SAPE  C21919433   0.632   1.654   6.624 -0.9408  0.4635 -0.5915
  172SAPE  H19R19434   0.720   1.694   6.679 -0.8211  0.0932 -0.5127
  172SAPE  H19S19435   0.667   1.565   6.568 -1.4231  0.6920 -1.2792
  172SAPE  C22019436   0.538   1.598   6.727  0.1280 -0.5727  0.4870
  172SAPE  H20R19437   0.598   1.542   6.802  1.9073  1.4892  0.6810
  172SAPE  H20S19438   0.464   1.531   6.678 -2.0425  2.2308 -0.3590
  172SAPE  H20T19439   0.476   1.680   6.767 -0.7167 -0.3247 -1.2142
  172SAPE   C3319440   0.356   2.143   5.433  0.0517  0.2697 -0.5114
  172SAPE   H3X19441   0.422   2.062   5.394  0.4337  0.0566  0.5364
  172SAPE   H3Y19442   0.282   2.089   5.496  0.8274  0.8732  0.9576
  172SAPE   C3419443   0.438   2.224   5.539  0.9013  0.4879  0.3293
  172SAPE   H4X19444   0.529   2.274   5.499  0.0428  2.0137  0.2057
  172SAPE   H4Y19445   0.471   2.152   5.617 -2.0274  1.4924  2.6579
  172SAPE   C3519446   0.357   2.330   5.616 -0.0240  0.0906 -0.4215
  172SAPE   H5X19447   0.269   2.286   5.667 -0.2175  2.8294  1.8303
  172SAPE   H5Y19448   0.327   2.405   5.539  3.3461  1.1873 -0.8340
  172SAPE   C3619449   0.439   2.407   5.723 -0.0614  0.0837  0.0238
  172SAPE   H6X19450   0.495   2.486   5.669 -0.3612 -0.4827 -1.1570
  172SAPE   H6Y19451   0.515   2.344   5.773 -1.4765 -0.8440  1.0756
  172SAPE   C3719452   0.350   2.457   5.836 -0.6673  0.2622 -0.0412
  172SAPE   H7X19453   0.257   2.396   5.845  0.8920 -2.2559 -0.2568
  172SAPE   H7Y19454   0.322   2.564   5.826  1.5111  0.7842 -0.8480
  172SAPE   C3819455   0.418   2.434   5.968 -0.3454 -0.3748 -0.6029
  172SAPE   H8X19456   0.514   2.489   5.977 -0.1151 -1.0606  1.8427
  172SAPE   H8Y19457   0.451   2.328   5.969 -1.0928 -0.6393 -2.1058
  172SAPE   C3919458   0.324   2.460   6.080  0.0416 -0.3978 -0.5241
  172SAPE   H9X19459   0.242   2.386   6.090  0.2036 -0.6493 -1.0203
  172SAPE   H9Y19460   0.275   2.559   6.066  1.6525  0.5042  0.0139
  172SAPE  C31019461   0.413   2.441   6.208 -0.9389 -0.1832 -0.3711
  172SAPE  H10X19462   0.499   2.512   6.211 -0.8886 -0.1934 -1.2062
  172SAPE  H10Y19463   0.474   2.348   6.201  0.6168  0.7990 -0.3087
  172SAPE  C31119464   0.334   2.422   6.338 -0.2414 -0.6809  0.1681
  172SAPE  H11X19465   0.256   2.344   6.320 -1.6994  1.0078 -1.1860
  172SAPE  H11Y19466   0.280   2.513   6.371  2.9806  1.4778 -0.1288
  172SAPE  C31219467   0.415   2.396   6.465 -0.1454  0.4490  0.0482
  172SAPE  H12X19468   0.469   2.484   6.506 -0.4339  0.1664  1.0373
  172SAPE  H12Y19469   0.496   2.323   6.443  1.5696  2.7432 -1.9224
  172SAPE  C31319470   0.329   2.350   6.582  0.0286 -0.0630 -0.2402
  172SAPE  H13X19471   0.251   2.281   6.543 -0.3574  0.9293 -1.2636
  172SAPE  H13Y19472   0.265   2.435   6.614 -1.4775 -0.8812 -0.9982
  172SAPE  C31419473   0.401   2.291   6.704 -1.0558  0.0925  0.9874
  172SAPE  H14X19474   0.329   2.288   6.788  0.1684  1.3933  2.1549
  172SAPE  H14Y19475   0.486   2.355   6.737  0.1385 -2.0549  2.2467
  172SAPE  C31519476   0.439   2.144   6.682 -0.5974 -0.3629  0.2561
  172SAPE  H15X19477   0.533   2.118   6.628 -0.7910 -2.6035  0.9065
  172SAPE  H15Y19478   0.358   2.094   6.624 -0.5386 -0.0315 -0.1171
  172SAPE  C31619479   0.457   2.069   6.823 -0.2344 -0.1391  0.1648
  172SAPE  H16X19480   0.452   1.960   6.802 -0.1580  0.4033 -3.2218
  172SAPE  H16Y19481   0.369   2.106   6.880  0.7829  2.6842  0.0859
  172SAPE  C31719482   0.580   2.096   6.905  0.4608 -0.4445  0.0985
  172SAPE  H17X19483   0.564   2.056   7.008  0.3677  0.6052  0.5009
  172SAPE  H17Y19484   0.585   2.207   6.912  1.6790 -0.5056  0.3833
  172SAPE  C31819485   0.712   2.050   6.834  0.8438  0.0960 -0.5442
  172SAPE  H18X19486   0.791   2.037   6.912 -0.0561 -2.3526  0.0472
  172SAPE  H18Y19487   0.746   2.116   6.751  1.0001 -1.5808 -1.8690
  172SAPE  H18Z19488   0.696   1.945   6.804  2.5757 -1.1831  2.5383
  173SLPC     N19489   0.162   4.027   0.908  0.8429 -0.0077  0.6906
  173SLPC   C1319490   0.140   4.057   1.047  0.3449 -0.3682 -0.4811
  173SLPC  H13A19491   0.237   4.047   1.094  0.0936 -0.6843 -0.0162
  173SLPC  H13B19492   0.114   4.159   1.069  0.6586 -0.8015  2.2787
  173SLPC  H13C19493   0.075   3.991   1.103  2.2922 -2.7452 -0.8110
  173SLPC   C1419494   0.205   3.876   0.908  0.5343 -1.1440  0.1563
  173SLPC  H14A19495   0.141   3.824   0.978  1.3321 -0.8140  1.1554
  173SLPC  H14B19496   0.206   3.835   0.808  2.7403  1.5568 -1.0718
  173SLPC  H14C19497   0.303   3.859   0.950 -0.2389  2.3627  4.0320
  173SLPC   C1519498   0.278   4.093   0.837  0.1237  0.0504 -0.0760
  173SLPC  H15A19499   0.276   4.199   0.859  0.5181  0.0720 -0.1390
  173SLPC  H15B19500   0.366   4.060   0.891 -0.8810  0.2059  1.7511
  173SLPC  H15C19501   0.282   4.068   0.732  0.1013 -0.6282  0.0818
  173SLPC   C1219502   0.029   4.049   0.831  0.1927 -0.6085  0.9551
  173SLPC  H12A19503   0.001   4.150   0.854  0.6042 -0.3701  0.4266
  173SLPC  H12B19504  -0.047   3.984   0.872  0.0420 -1.2998 -0.3778
  173SLPC   C1119505   0.028   4.026   0.683  0.3460 -0.8041  0.0596
  173SLPC  H11A19506   0.098   4.093   0.628 -0.1741 -2.2481 -2.5547
  173SLPC  H11B19507  -0.075   4.051   0.647  0.7141  0.2448 -0.3124
  173SLPC     P19508   0.106   3.852   0.496  0.0395 -0.3129  0.3925
  173SLPC   O1319509   0.248   3.810   0.499 -0.3928 -0.7747 -0.2322
  173SLPC   O1419510   0.012   3.752   0.442  0.2922  0.1556  0.3765
  173SLPC   O1219511   0.056   3.891   0.642  0.2645 -0.3438  0.2942
  173SLPC   O1119512   0.106   3.987   0.412  0.2379  0.1831  0.2999
  173SLPC    C119513  -0.009   4.038   0.355 -0.4692 -0.0247 -0.7297
  173SLPC    HA19514  -0.099   4.002   0.410 -0.3851 -0.2762 -0.7554
  173SLPC    HB19515  -0.007   4.146   0.378 -3.2381  0.3789 -1.9586
  173SLPC    C219516  -0.019   4.021   0.205 -0.7154 -0.1800 -0.0971
  173SLPC    HS19517  -0.098   4.084   0.160 -0.9264  0.0703  0.6027
  173SLPC   O2119518  -0.025   3.881   0.164  0.1759 -0.5568 -0.5232
  173SLPC   C2119519  -0.137   3.823   0.176  0.2955  0.2037  0.2171
  173SLPC   O2219520  -0.241   3.860   0.221  0.3322  0.0565  0.0409
  173SLPC   C2219521  -0.121   3.694   0.100 -0.3216 -0.3081 -0.8325
  173SLPC   H2R19522  -0.015   3.672   0.076 -0.5773 -1.5118 -0.9348
  173SLPC   H2S19523  -0.148   3.616   0.175  0.5585  0.5393  0.4036
  173SLPC    C319524   0.098   4.085   0.129 -0.0429  0.2134 -0.2833
  173SLPC    HX19525   0.197   4.039   0.151 -0.5437 -0.0067  1.6768
  173SLPC    HY19526   0.120   4.193   0.141 -0.1482  0.8840 -4.4303
  173SLPC   O3119527   0.071   4.083  -0.013 -0.1953 -0.0554  0.7610
  173SLPC   C3119528   0.127   3.991  -0.085 -0.2116  0.4483 -0.4148
  173SLPC   O3219529   0.197   3.899  -0.045 -0.1198  0.0365 -0.4431
  173SLPC   C3219530   0.089   4.023  -0.227 -0.2574 -0.0655 -0.1215
  173SLPC   H2X19531   0.141   4.115  -0.263  0.5015 -0.7687 -0.8436
  173SLPC   H2Y19532  -0.020   4.031  -0.246  0.0605  0.8989 -1.7189
  173SLPC   C2319533  -0.197   3.681  -0.024 -1.0986  0.0703  0.2517
  173SLPC   H3R19534  -0.290   3.738  -0.041 -1.2021 -0.2588 -0.3253
  173SLPC   H3S19535  -0.217   3.572  -0.038 -1.3431 -0.0659  1.5492
  173SLPC   C2419536  -0.117   3.711  -0.151 -0.2515 -0.0760 -0.5192
  173SLPC   H4R19537  -0.018   3.664  -0.137  0.1182  0.8073 -0.1053
  173SLPC   H4S19538  -0.104   3.820  -0.164 -0.6796  0.2116  1.2146
  173SLPC   C2519539  -0.196   3.657  -0.268 -0.0249  0.1692 -0.4098
  173SLPC   H5R19540  -0.287   3.721  -0.272 -0.2366 -0.1472 -0.8131
  173SLPC   H5S19541  -0.230   3.553  -0.248 -2.1070  1.1946  1.9781
  173SLPC   C2619542  -0.119   3.670  -0.398 -1.1982  0.1095  0.2851
  173SLPC   H6R19543  -0.020   3.620  -0.399 -0.0946  2.1927  0.5634
  173SLPC   H6S19544  -0.094   3.777  -0.414 -1.9383  0.0682 -1.3267
  173SLPC   C2719545  -0.197   3.625  -0.517 -1.2359  0.3073 -0.2039
  173SLPC   H7R19546  -0.286   3.691  -0.530 -1.9061  0.0033  2.2435
  173SLPC   H7S19547  -0.230   3.519  -0.504 -1.3529  0.1559 -1.5598
  173SLPC   C2819548  -0.116   3.632  -0.651  0.0690 -0.3520 -0.5248
  173SLPC   H8R19549  -0.007   3.617  -0.636  0.1127  0.3174 -0.0920
  173SLPC   H8S19550  -0.129   3.738  -0.681  0.9295 -0.2861 -0.7067
  173SLPC   C2919551  -0.169   3.548  -0.753 -0.0271  0.5092 -0.2654
  173SLPC   H9R19552  -0.194   3.445  -0.724 -1.6591  1.2644  1.2602
  173SLPC  C21019553  -0.202   3.574  -0.883  0.5468  0.5221  1.2565
  173SLPC  H10R19554  -0.227   3.483  -0.940  0.9293  2.5456 -2.4693
  173SLPC  C21119555  -0.195   3.709  -0.954  0.0043  0.1100  0.5590
  173SLPC  H11R19556  -0.108   3.700  -1.023 -0.9635 -1.0411 -0.5530
  173SLPC  H11S19557  -0.159   3.782  -0.879  0.8476 -0.8596  1.1157
  173SLPC  C21219558  -0.325   3.769  -1.008  0.1297  0.6956  0.3647
  173SLPC  H12R19559  -0.382   3.841  -0.948 -1.4714  1.2845 -1.7155
  173SLPC  C21319560  -0.381   3.728  -1.122  0.8387  0.0587  0.0210
  173SLPC  H13R19561  -0.476   3.775  -1.154  0.7177  1.4197  2.1485
  173SLPC  C21419562  -0.311   3.640  -1.224  0.4456 -0.1444 -0.3061
  173SLPC  H14R19563  -0.344   3.535  -1.207  1.7926 -0.6418 -0.6056
  173SLPC  H14S19564  -0.200   3.640  -1.213  0.4083  3.0910  1.0110
  173SLPC  C21519565  -0.349   3.681  -1.366 -0.7819  0.2091  0.2975
  173SLPC  H15R19566  -0.288   3.763  -1.410  0.7449 -0.1614  1.6155
  173SLPC  H15S19567  -0.454   3.715  -1.365 -0.3110  1.7798 -0.6674
  173SLPC  C21619568  -0.337   3.553  -1.451  0.5871 -0.7041 -0.6113
  173SLPC  H16R19569  -0.410   3.473  -1.424  0.3235 -0.3548 -0.2631
  173SLPC  H16S19570  -0.240   3.502  -1.433  0.3806 -0.5065  1.2798
  173SLPC  C21719571  -0.355   3.563  -1.610 -0.1161 -0.0673  0.4023
  173SLPC  H17R19572  -0.261   3.613  -1.642 -0.0713 -0.8541 -0.7139
  173SLPC  H17S19573  -0.442   3.625  -1.639  0.1345 -0.6071 -1.6148
  173SLPC  C21819574  -0.369   3.426  -1.675  0.2480 -0.0913 -0.8408
  173SLPC  H18R19575  -0.371   3.437  -1.785  3.3717 -3.0268 -1.3542
  173SLPC  H18S19576  -0.461   3.374  -1.643  0.8221 -0.8733 -0.4126
  173SLPC  H18T19577  -0.280   3.362  -1.656  0.0834 -0.4988 -1.4270
  173SLPC   C3319578   0.138   3.921  -0.336 -0.1722  0.1223 -0.3192
  173SLPC   H3X19579   0.102   3.819  -0.311 -1.0649  0.1626 -1.3445
  173SLPC   H3Y19580   0.249   3.917  -0.330 -0.1528  1.8840  1.5567
  173SLPC   C3419581   0.082   3.970  -0.468 -0.5509  0.2401  0.7645
  173SLPC   H4X19582  -0.009   4.032  -0.457 -0.3854  0.4646  0.9053
  173SLPC   H4Y19583   0.068   3.880  -0.531  3.5055  1.5104 -2.4607
  173SLPC   C3519584   0.188   4.048  -0.543  0.3958 -0.5790 -0.3450
  173SLPC   H5X19585   0.270   3.981  -0.575  1.5397  0.4523  0.3382
  173SLPC   H5Y19586   0.232   4.125  -0.476  1.1577 -3.2980  2.5713
  173SLPC   C3619587   0.129   4.111  -0.669  0.0036  0.4192 -0.0203
  173SLPC   H6X19588   0.211   4.177  -0.703  1.3679 -1.2428 -0.0781
  173SLPC   H6Y19589   0.046   4.177  -0.634  0.5235  0.3648  1.4089
  173SLPC   C3719590   0.096   4.024  -0.792 -0.7087  0.3598 -0.7283
  173SLPC   H7X19591   0.016   3.952  -0.765 -0.9242  1.4497  1.8374
  173SLPC   H7Y19592   0.189   3.963  -0.801 -0.3426  0.6674  0.7788
  173SLPC   C3819593   0.059   4.095  -0.922 -0.3444  0.0019 -0.1321
  173SLPC   H8X19594   0.151   4.152  -0.948  0.6827 -1.1573  0.8664
  173SLPC   H8Y19595  -0.015   4.172  -0.891 -0.6114  0.0125 -0.7873
  173SLPC   C3919596   0.017   4.001  -1.035 -0.1308  0.3012  0.6199
  173SLPC   H9X19597  -0.065   3.935  -0.999 -2.1601  2.4292  0.1136
  173SLPC   H9Y19598   0.109   3.946  -1.065 -0.1430  0.5314  0.1496
  173SLPC  C31019599  -0.044   4.078  -1.156  0.3736  0.0820 -0.0380
  173SLPC  H10X19600   0.047   4.115  -1.209 -0.8917  2.4300 -0.7386
  173SLPC  H10Y19601  -0.108   4.161  -1.118  0.9616 -0.3003  1.8979
  173SLPC  C31119602  -0.144   3.997  -1.241 -0.1233  0.6591 -0.6820
  173SLPC  H11X19603  -0.240   3.988  -1.187  0.7600 -1.5498  0.6615
  173SLPC  H11Y19604  -0.113   3.891  -1.258 -2.0563 -0.0038 -0.3833
  173SLPC  C31219605  -0.166   4.056  -1.377  0.2848  0.0015 -0.0938
  173SLPC  H12X19606  -0.252   3.993  -1.409  0.9540 -0.8860 -0.2195
  173SLPC  H12Y19607  -0.077   4.023  -1.435 -0.2488  0.3373 -1.1341
  173SLPC  C31319608  -0.185   4.205  -1.391  0.1688 -0.2707 -0.0367
  173SLPC  H13X19609  -0.087   4.254  -1.368  2.1151 -2.9617 -1.9465
  173SLPC  H13Y19610  -0.263   4.246  -1.324  1.1425  0.1420  0.8864
  173SLPC  C31419611  -0.220   4.259  -1.533 -0.0633 -0.2614  0.3211
  173SLPC  H14X19612  -0.233   4.368  -1.518  1.8023 -0.0369  0.4255
  173SLPC  H14Y19613  -0.310   4.203  -1.568  1.7408 -2.4422 -1.0853
  173SLPC  C31519614  -0.113   4.225  -1.634 -0.8470 -0.6820  0.3632
  173SLPC  H15X19615  -0.136   4.266  -1.735 -0.0037 -1.6656 -0.2523
  173SLPC  H15Y19616  -0.107   4.114  -1.641  0.3855 -0.7304  1.6987
  173SLPC  C31619617   0.032   4.278  -1.597 -0.1315  0.7842  0.4878
  173SLPC  H16X19618   0.065   4.244  -1.496  0.8483  2.0943  0.6360
  173SLPC  H16Y19619   0.028   4.389  -1.600  0.0256  0.8133  1.1058
  173SLPC  C31719620   0.143   4.235  -1.695  0.3366  0.5881 -0.1323
  173SLPC  H17X19621   0.140   4.124  -1.688  3.2339  0.4884  0.9242
  173SLPC  H17Y19622   0.242   4.264  -1.654 -0.3226  1.4677  0.8968
  173SLPC  C31819623   0.148   4.273  -1.848  0.7180  0.8052 -0.5512
  173SLPC  H18X19624   0.058   4.239  -1.904  1.4038  1.1701 -1.9166
  173SLPC  H18Y19625   0.236   4.226  -1.898 -1.1440 -3.5322 -0.1562
  173SLPC  H18Z19626   0.159   4.383  -1.859  1.2906  0.8011 -0.0914
  174SLPC     N19627   2.790   4.004   0.935  0.3061 -0.1595  0.1860
  174SLPC   C1319628   2.870   4.035   1.049 -0.4083 -0.1292  0.2379
  174SLPC  H13A19629   2.813   4.020   1.139 -1.0434 -1.8082 -0.3970
  174SLPC  H13B19630   2.956   3.969   1.053  0.0521  0.4782  0.5652
  174SLPC  H13C19631   2.908   4.136   1.045 -1.7227  0.3883  0.4865
  174SLPC   C1419632   2.677   4.103   0.934 -0.0886  0.0467 -0.2424
  174SLPC  H14A19633   2.616   4.094   1.022 -0.5511 -1.3967 -0.6865
  174SLPC  H14B19634   2.723   4.200   0.926 -2.3989  1.0908 -2.0424
  174SLPC  H14C19635   2.623   4.085   0.843  2.9198  1.7968 -2.5558
  174SLPC   C1519636   2.741   3.867   0.958 -0.6163 -0.3274  0.5700
  174SLPC  H15A19637   2.671   3.856   1.040 -2.0587  1.1673 -0.4077
  174SLPC  H15B19638   2.678   3.834   0.877 -0.8560 -1.5416  1.2213
  174SLPC  H15C19639   2.823   3.797   0.957 -0.2092  0.1028 -1.5959
  174SLPC   C1219640   2.877   4.010   0.810 -0.0869  0.2669  0.4896
  174SLPC  H12A19641   2.933   4.102   0.809 -0.4137  0.4630  0.2292
  174SLPC  H12B19642   2.820   4.003   0.719  0.7123 -2.9608  0.1158
  174SLPC   C1119643   2.975   3.888   0.783  0.2138  0.3445 -0.0473
  174SLPC  H11A19644   3.033   3.862   0.874  0.3851 -1.6925 -0.7063
  174SLPC  H11B19645   3.056   3.924   0.716  0.5711  0.8636  0.6465
  174SLPC     P19646   2.887   3.763   0.571  0.3552 -0.0229  0.2037
  174SLPC   O1319647   2.925   3.885   0.498  1.0681  0.6351  0.5256
  174SLPC   O1419648   2.947   3.636   0.536 -0.5614  0.1717  0.4376
  174SLPC   O1219649   2.904   3.776   0.726 -0.5585 -0.5535  1.0850
  174SLPC   O1119650   2.742   3.742   0.550  0.3132  0.2527 -0.5937
  174SLPC    C119651   2.675   3.616   0.517  0.1270 -0.1334  0.3011
  174SLPC    HA19652   2.714   3.524   0.566 -0.8445 -1.0384 -0.5907
  174SLPC    HB19653   2.566   3.626   0.536 -0.1339 -0.7490 -0.8147
  174SLPC    C219654   2.683   3.573   0.362  0.3036  0.2246 -0.0922
  174SLPC    HS19655   2.788   3.539   0.344  0.8861  1.0683  1.5058
  174SLPC   O2119656   2.646   3.691   0.279 -0.2927 -0.2395  0.0863
  174SLPC   C2119657   2.741   3.745   0.202  1.3802  0.3115 -0.3874
  174SLPC   O2219658   2.853   3.706   0.189 -0.3741 -0.0420  0.1271
  174SLPC   C2219659   2.680   3.865   0.134 -0.2074 -0.2304  0.4911
  174SLPC   H2R19660   2.574   3.854   0.102  0.4231 -2.0852 -1.1721
  174SLPC   H2S19661   2.679   3.943   0.213  0.2883 -0.0309  0.3041
  174SLPC    C319662   2.591   3.445   0.343 -0.0955  0.1030 -0.8111
  174SLPC    HX19663   2.487   3.483   0.350 -0.1829 -0.3889  1.1704
  174SLPC    HY19664   2.619   3.375   0.424  0.3573  0.7348 -0.4102
  174SLPC   O3119665   2.621   3.384   0.213  0.1136 -0.3654  0.7294
  174SLPC   C3119666   2.523   3.383   0.126 -0.9066 -0.2613 -0.3690
  174SLPC   O3219667   2.413   3.427   0.140 -0.4969  0.1295 -0.6986
  174SLPC   C3219668   2.576   3.312   0.002  0.2190 -0.1885 -0.1042
  174SLPC   H2X19669   2.559   3.203   0.012  1.2273 -0.2623  1.0932
  174SLPC   H2Y19670   2.687   3.320  -0.003  0.3008 -1.4124 -0.6254
  174SLPC   C2319671   2.757   3.905   0.008  0.0516 -0.5761 -0.0282
  174SLPC   H3R19672   2.779   3.811  -0.046 -0.1972 -0.1754 -0.8493
  174SLPC   H3S19673   2.855   3.949   0.038 -0.6754  1.9536 -1.0351
  174SLPC   C2419674   2.677   3.993  -0.100 -0.2406  0.5728  0.1264
  174SLPC   H4R19675   2.635   4.084  -0.054  0.2040  0.6543  0.3806
  174SLPC   H4S19676   2.589   3.936  -0.137 -0.9150  1.1337  0.8488
  174SLPC   C2519677   2.765   4.047  -0.210 -0.5600 -0.3556  0.1261
  174SLPC   H5R19678   2.852   3.979  -0.222 -0.3858 -0.4780  1.8148
  174SLPC   H5S19679   2.814   4.138  -0.169  1.1669 -1.6224  0.9800
  174SLPC   C2619680   2.685   4.080  -0.331 -0.3409  0.2065 -0.3478
  174SLPC   H6R19681   2.616   4.159  -0.295 -0.3899  1.9792 -3.8139
  174SLPC   H6S19682   2.626   3.990  -0.360  1.1761 -1.7044  2.1035
  174SLPC   C2719683   2.757   4.150  -0.445 -0.4014 -0.0069 -0.3026
  174SLPC   H7R19684   2.767   4.257  -0.420 -0.2533  0.1360 -0.9646
  174SLPC   H7S19685   2.698   4.153  -0.540 -1.0386  0.5736  0.1005
  174SLPC   C2819686   2.891   4.098  -0.484 -1.0343  0.6904 -0.5452
  174SLPC   H8R19687   2.876   3.988  -0.495  0.4616  0.3448  0.6273
  174SLPC   H8S19688   2.970   4.113  -0.407  0.9281  0.8866 -2.4910
  174SLPC   C2919689   2.938   4.150  -0.622  0.3936  0.0654  0.5794
  174SLPC   H9R19690   2.899   4.249  -0.650  3.6842  0.8566 -1.7286
  174SLPC  C21019691   3.036   4.101  -0.699  0.1018  1.3309  0.0606
  174SLPC  H10R19692   3.062   4.157  -0.790 -0.4426  1.5898  0.0646
  174SLPC  C21119693   3.105   3.968  -0.666 -0.2999  0.3406  0.1232
  174SLPC  H11R19694   3.106   3.906  -0.758 -0.7102 -1.5981  1.3718
  174SLPC  H11S19695   3.045   3.910  -0.593  0.2803  0.1547  0.4562
  174SLPC  C21219696   3.245   3.987  -0.610  0.1294 -0.1976  0.5869
  174SLPC  H12R19697   3.244   4.013  -0.504  1.4415  0.9582  0.3442
  174SLPC  C21319698   3.362   3.974  -0.678  1.0096 -0.2189 -0.3501
  174SLPC  H13R19699   3.455   3.999  -0.624  1.0873 -1.2547  0.0236
  174SLPC  C21419700   3.373   3.945  -0.821  0.4724  0.1333 -0.1813
  174SLPC  H14R19701   3.326   3.849  -0.849  3.6992 -1.7210  0.3021
  174SLPC  H14S19702   3.481   3.926  -0.841  0.3311 -2.0961  0.8592
  174SLPC  C21519703   3.336   4.057  -0.922 -0.6843 -0.0916  0.1730
  174SLPC  H15R19704   3.408   4.139  -0.901  1.0493 -1.7635  1.0697
  174SLPC  H15S19705   3.236   4.101  -0.900 -0.9199 -0.9548  0.8921
  174SLPC  C21619706   3.353   4.007  -1.074  0.1225 -0.0477  0.4730
  174SLPC  H16R19707   3.291   4.076  -1.136  0.3508  1.3549  1.7606
  174SLPC  H16S19708   3.308   3.905  -1.075  0.1683 -0.0765 -1.0187
  174SLPC  C21719709   3.500   3.994  -1.116 -0.0145 -0.5394 -1.3996
  174SLPC  H17R19710   3.566   4.008  -1.028 -2.1836 -0.5165  0.3119
  174SLPC  H17S19711   3.524   4.078  -1.184 -3.3554  2.8647  1.1771
  174SLPC  C21819712   3.525   3.845  -1.169  0.0722 -0.5724 -0.6531
  174SLPC  H18R19713   3.634   3.824  -1.167  0.1335 -0.1979  1.0308
  174SLPC  H18S19714   3.492   3.830  -1.274 -2.8425 -0.0827  0.1230
  174SLPC  H18T19715   3.474   3.774  -1.101  0.6228  0.4095  0.8383
  174SLPC   C3319716   2.503   3.341  -0.137  0.0635 -0.0444 -0.0134
  174SLPC   H3X19717   2.552   3.433  -0.175 -0.2464  0.2288  0.2313
  174SLPC   H3Y19718   2.394   3.354  -0.115 -0.3064 -1.1406 -1.1041
  174SLPC   C3419719   2.531   3.227  -0.239 -0.5184  0.1229 -0.4122
  174SLPC   H4X19720   2.488   3.129  -0.210 -1.6838  0.6669 -0.2177
  174SLPC   H4Y19721   2.641   3.216  -0.241 -0.2975  1.8056  0.6022
  174SLPC   C3519722   2.470   3.259  -0.379 -0.0655  0.5106 -0.0416
  174SLPC   H5X19723   2.497   3.359  -0.419 -2.6687  0.3471 -2.5955
  174SLPC   H5Y19724   2.359   3.265  -0.375 -0.1814  0.5148 -2.2322
  174SLPC   C3619725   2.520   3.159  -0.476  0.3353  0.1084 -0.1565
  174SLPC   H6X19726   2.503   3.063  -0.422 -1.6484  0.6318  0.2648
  174SLPC   H6Y19727   2.629   3.171  -0.489  1.3675 -5.4101  0.9935
  174SLPC   C3719728   2.448   3.174  -0.613 -0.6975  0.0353  0.4102
  174SLPC   H7X19729   2.448   3.279  -0.648 -2.4305 -0.0827 -0.0582
  174SLPC   H7Y19730   2.342   3.146  -0.591 -1.1239  1.1567 -0.1337
  174SLPC   C3819731   2.514   3.105  -0.732 -0.2364  0.4832 -0.4703
  174SLPC   H8X19732   2.530   2.996  -0.719 -0.7239  0.5925  1.4447
  174SLPC   H8Y19733   2.614   3.152  -0.723 -0.0109  0.5756 -2.8052
  174SLPC   C3919734   2.460   3.145  -0.866  0.1207 -0.2447  0.5752
  174SLPC   H9X19735   2.445   3.254  -0.883 -2.7058 -0.5970  0.2361
  174SLPC   H9Y19736   2.356   3.106  -0.869 -0.3525  0.9695  0.6481
  174SLPC  C31019737   2.537   3.071  -0.971 -0.1978 -0.4399  0.0847
  174SLPC  H10X19738   2.502   3.090  -1.074 -0.3702 -1.4157 -0.0389
  174SLPC  H10Y19739   2.516   2.962  -0.973  0.7406 -0.6286 -0.0057
  174SLPC  C31119740   2.686   3.101  -0.975  0.5822 -0.0521  0.2655
  174SLPC  H11X19741   2.742   3.027  -1.036 -0.6969  0.0544 -1.1110
  174SLPC  H11Y19742   2.721   3.095  -0.869 -0.9338  1.7038  0.9179
  174SLPC  C31219743   2.704   3.228  -1.051 -0.3023 -0.4621 -0.1943
  174SLPC  H12X19744   2.797   3.283  -1.024  1.4133 -2.6321 -1.3752
  174SLPC  H12Y19745   2.621   3.301  -1.042  2.3462  2.7784 -0.0136
  174SLPC  C31319746   2.715   3.205  -1.206 -0.2542 -0.5420  0.1973
  174SLPC  H13X19747   2.613   3.224  -1.244 -0.4695 -1.1339  0.4755
  174SLPC  H13Y19748   2.737   3.100  -1.235 -0.4830 -0.5752  0.1456
  174SLPC  C31419749   2.805   3.305  -1.279 -0.4428  0.3625 -0.2049
  174SLPC  H14X19750   2.809   3.279  -1.387  0.9898 -0.7406  0.0778
  174SLPC  H14Y19751   2.911   3.300  -1.247 -0.4182 -0.4383 -0.3754
  174SLPC  C31519752   2.745   3.451  -1.264 -1.3141  0.1851 -0.6182
  174SLPC  H15X19753   2.779   3.485  -1.164 -1.7164 -0.5407 -0.2242
  174SLPC  H15Y19754   2.636   3.434  -1.249 -0.9595  0.0660  2.4635
  174SLPC  C31619755   2.772   3.540  -1.377  0.0070  0.0614  0.1329
  174SLPC  H16X19756   2.878   3.544  -1.409 -0.1934 -2.0521 -0.9953
  174SLPC  H16Y19757   2.757   3.644  -1.341  2.9116  0.0992  1.5044
  174SLPC  C31719758   2.685   3.518  -1.508  0.3414 -0.4555  0.0089
  174SLPC  H17X19759   2.702   3.414  -1.542 -0.1811 -0.6901  0.4356
  174SLPC  H17Y19760   2.725   3.584  -1.588 -1.0228  0.9380  0.4177
  174SLPC  C31819761   2.531   3.538  -1.493 -0.1118 -0.2055  0.6523
  174SLPC  H18X19762   2.502   3.645  -1.509 -0.2713 -0.2592  0.5813
  174SLPC  H18Y19763   2.491   3.494  -1.399  0.0105  1.4755  1.5372
  174SLPC  H18Z19764   2.489   3.488  -1.582 -0.3284  2.4313 -0.8489
  175SLPC     N19765   6.004   0.100   0.541 -0.5583 -0.2938 -0.1463
  175SLPC   C1319766   5.930   0.161   0.427 -0.0424  0.4168  0.0390
  175SLPC  H13A19767   5.846   0.217   0.464  1.6146  1.5716  2.3142
  175SLPC  H13B19768   5.998   0.225   0.373  0.3016  1.6739  1.8637
  175SLPC  H13C19769   5.897   0.086   0.357 -0.6259  0.2158  0.5232
  175SLPC   C1419770   5.905  -0.005   0.600  0.6233 -0.0401 -0.5032
  175SLPC  H14A19771   5.937  -0.050   0.693 -1.8871 -3.2703 -1.0054
  175SLPC  H14B19772   5.815   0.041   0.637  0.0361 -2.0430  0.7055
  175SLPC  H14C19773   5.888  -0.090   0.535  4.4784 -1.7494  0.4364
  175SLPC   C1519774   6.033   0.210   0.633 -0.7875  0.5130  0.2496
  175SLPC  H15A19775   5.948   0.270   0.663 -1.0772  0.4809 -0.4935
  175SLPC  H15B19776   6.101   0.169   0.706  0.3535  1.1562 -0.4340
  175SLPC  H15C19777   6.104   0.264   0.574  1.3286 -1.3562  0.9604
  175SLPC   C1219778   6.136   0.031   0.497 -0.1432 -0.5453  0.1681
  175SLPC  H12A19779   6.108  -0.055   0.439 -2.1939  0.2083 -0.0765
  175SLPC  H12B19780   6.175  -0.025   0.581  1.0706 -1.0141 -0.6952
  175SLPC   C1119781   6.248   0.106   0.430 -1.0333 -0.4194  0.3251
  175SLPC  H11A19782   6.335   0.041   0.450 -0.5299 -0.0914 -0.7228
  175SLPC  H11B19783   6.271   0.205   0.474 -1.7246 -0.5947  1.1098
  175SLPC     P19784   6.255   0.010   0.186 -0.0651 -0.0937  0.0021
  175SLPC   O1319785   6.402  -0.009   0.174 -0.3806 -0.4390  1.1238
  175SLPC   O1419786   6.171  -0.109   0.225 -0.5623 -0.3010  0.0752
  175SLPC   O1219787   6.219   0.125   0.293  0.5654 -0.6007  0.2189
  175SLPC   O1119788   6.187   0.081   0.057  0.3973  0.0881 -0.9763
  175SLPC    C119789   6.206   0.210   0.024  0.5536 -0.1271  0.1735
  175SLPC    HA19790   6.305   0.252   0.055  0.5979 -1.1176  1.4599
  175SLPC    HB19791   6.219   0.220  -0.086  1.9699 -1.3942  0.1937
  175SLPC    C219792   6.086   0.293   0.067  0.6602 -0.1332  0.1011
  175SLPC    HS19793   6.040   0.246   0.156 -0.0250 -1.1097 -0.7414
  175SLPC   O2119794   5.994   0.301  -0.044  0.0392  0.7043  0.0222
  175SLPC   C2119795   5.870   0.346  -0.025  1.1711  0.3093 -0.0798
  175SLPC   O2219796   5.837   0.405   0.079 -0.7280  0.3719 -0.2457
  175SLPC   C2219797   5.780   0.314  -0.144 -0.1043 -0.4430  0.1129
  175SLPC   H2R19798   5.679   0.291  -0.104 -0.7931  0.5932 -0.9779
  175SLPC   H2S19799   5.783   0.409  -0.200 -0.0547 -0.0661  0.7440
  175SLPC    C319800   6.132   0.437   0.121 -0.1481  0.1560  0.0713
  175SLPC    HX19801   6.209   0.424   0.200  0.7110 -0.1850 -0.8002
  175SLPC    HY19802   6.050   0.486   0.177 -2.2743 -1.0239 -1.8638
  175SLPC   O3119803   6.200   0.504   0.014  0.3227  0.1764 -0.6945
  175SLPC   C3119804   6.124   0.579  -0.064 -0.0484 -0.0059  0.7521
  175SLPC   O3219805   6.007   0.601  -0.043  0.0876  0.2503 -0.5793
  175SLPC   C3219806   6.197   0.622  -0.188 -0.2400  0.5148 -0.8041
  175SLPC   H2X19807   6.252   0.535  -0.230 -1.8268 -0.9321  0.0193
  175SLPC   H2Y19808   6.256   0.710  -0.151 -0.8781  1.8330 -2.7602
  175SLPC   C2319809   5.834   0.192  -0.229  0.3636 -0.3346  0.1287
  175SLPC   H3R19810   5.805   0.100  -0.175 -1.2980  1.3654  2.3215
  175SLPC   H3S19811   5.944   0.207  -0.241 -0.0744  3.4199 -0.3014
  175SLPC   C2419812   5.770   0.196  -0.374  0.0804 -0.4690 -0.1928
  175SLPC   H4R19813   5.660   0.208  -0.364  0.3188  1.0131  1.2165
  175SLPC   H4S19814   5.788   0.097  -0.419  2.2464 -0.8415  1.3322
  175SLPC   C2519815   5.833   0.310  -0.469  0.5344  0.2001  0.7326
  175SLPC   H5R19816   5.931   0.279  -0.511 -0.1988 -1.3300  0.0743
  175SLPC   H5S19817   5.854   0.409  -0.423 -0.7196  1.8706 -2.0049
  175SLPC   C2619818   5.725   0.326  -0.586  0.4955 -0.1958 -0.3504
  175SLPC   H6R19819   5.633   0.379  -0.552  1.1211  1.1164 -0.6642
  175SLPC   H6S19820   5.694   0.225  -0.622 -2.2594 -0.1146  1.4461
  175SLPC   C2719821   5.775   0.413  -0.698 -1.0514 -0.2859  0.2078
  175SLPC   H7R19822   5.871   0.377  -0.741 -0.5919 -1.1716  1.8780
  175SLPC   H7S19823   5.796   0.502  -0.634 -1.0522  0.4337 -0.7621
  175SLPC   C2819824   5.677   0.448  -0.811 -0.2061 -0.0666 -0.7726
  175SLPC   H8R19825   5.711   0.545  -0.853 -0.2175  1.2310  1.9735
  175SLPC   H8S19826   5.580   0.472  -0.763  0.1171 -1.0164  0.4167
  175SLPC   C2919827   5.650   0.331  -0.908  0.4555 -0.2241 -0.2196
  175SLPC   H9R19828   5.613   0.235  -0.869  0.9329 -0.6602 -0.8189
  175SLPC  C21019829   5.671   0.326  -1.041  0.1094 -0.8370 -0.2828
  175SLPC  H10R19830   5.642   0.237  -1.098  2.8251 -1.3591 -0.9785
  175SLPC  C21119831   5.733   0.433  -1.122 -0.9508 -0.3805  0.7907
  175SLPC  H11R19832   5.843   0.416  -1.120 -0.5337  1.3504 -2.0402
  175SLPC  H11S19833   5.712   0.532  -1.077  1.3474  0.5354 -0.0135
  175SLPC  C21219834   5.671   0.411  -1.254  0.2530  0.1170 -0.0135
  175SLPC  H12R19835   5.564   0.390  -1.243 -0.1083  1.7485 -0.1102
  175SLPC  C21319836   5.727   0.387  -1.372 -0.1707  0.5390 -0.4470
  175SLPC  H13R19837   5.658   0.369  -1.455 -0.8059 -0.2294  0.2319
  175SLPC  C21419838   5.865   0.432  -1.402 -0.0294 -0.7513  0.1707
  175SLPC  H14R19839   5.927   0.343  -1.427 -0.7273 -0.9648 -0.8661
  175SLPC  H14S19840   5.914   0.484  -1.317  0.1380 -0.7764  0.0902
  175SLPC  C21519841   5.872   0.525  -1.523  0.5690  0.3400  0.4942
  175SLPC  H15R19842   5.977   0.555  -1.545  0.6814 -0.1394  0.3790
  175SLPC  H15S19843   5.821   0.620  -1.496 -0.6697 -0.0206 -0.4522
  175SLPC  C21619844   5.810   0.474  -1.654  0.0766 -0.1957 -0.7863
  175SLPC  H16R19845   5.701   0.465  -1.637 -0.3045  2.5431 -1.2878
  175SLPC  H16S19846   5.843   0.369  -1.667 -0.1844 -0.9058  3.0743
  175SLPC  C21719847   5.828   0.569  -1.769  0.5516 -0.3972  0.2584
  175SLPC  H17R19848   5.928   0.565  -1.817  0.7918  0.4083  0.6728
  175SLPC  H17S19849   5.809   0.668  -1.722  2.3570 -0.5133  1.2996
  175SLPC  C21819850   5.724   0.537  -1.874 -0.0001 -0.1480 -0.2684
  175SLPC  H18R19851   5.620   0.563  -1.843  0.7526  0.6278  1.7696
  175SLPC  H18S19852   5.724   0.430  -1.906 -0.7608  0.1586 -1.3297
  175SLPC  H18T19853   5.754   0.591  -1.966  0.3694 -2.5046 -1.6075
  175SLPC   C3319854   6.113   0.682  -0.304  0.1598 -0.4158 -0.4048
  175SLPC   H3X19855   6.136   0.784  -0.340  1.6884 -1.3646 -2.3268
  175SLPC   H3Y19856   6.006   0.687  -0.274 -0.1582 -0.5907 -1.4686
  175SLPC   C3419857   6.115   0.604  -0.438 -0.1892  0.3039 -0.4862
  175SLPC   H4X19858   6.075   0.503  -0.415 -2.8300  1.5921  1.0942
  175SLPC   H4Y19859   6.219   0.601  -0.475 -0.2422  1.6588 -0.7970
  175SLPC   C3519860   6.051   0.678  -0.555 -0.0443  0.2004 -0.2006
  175SLPC   H5X19861   6.067   0.787  -0.545 -1.8264  0.3569  1.3131
  175SLPC   H5Y19862   5.943   0.655  -0.545 -0.0754  0.0887 -0.7568
  175SLPC   C3619863   6.106   0.620  -0.689  0.7434 -0.1701 -0.1337
  175SLPC   H6X19864   6.085   0.511  -0.693 -1.8454  0.2214  0.8474
  175SLPC   H6Y19865   6.214   0.646  -0.686  0.6578  0.5755 -2.3261
  175SLPC   C3719866   6.053   0.657  -0.832 -0.0685  0.4696  0.0303
  175SLPC   H7X19867   5.999   0.753  -0.818  0.4705  0.5803  1.5160
  175SLPC   H7Y19868   5.973   0.582  -0.853  1.3958 -0.7159 -1.5539
  175SLPC   C3819869   6.147   0.652  -0.954 -0.1123  0.2797 -0.1736
  175SLPC   H8X19870   6.198   0.555  -0.971  0.2110  0.4424 -0.1489
  175SLPC   H8Y19871   6.231   0.722  -0.936  0.0967  0.4568 -1.7271
  175SLPC   C3919872   6.079   0.692  -1.090 -0.5802  0.4636 -0.6843
  175SLPC   H9X19873   6.011   0.780  -1.079  0.7739  1.3921  0.5351
  175SLPC   H9Y19874   6.023   0.608  -1.136 -2.8241  1.0369  0.8161
  175SLPC  C31019875   6.185   0.721  -1.206 -0.1778  0.7419 -0.6063
  175SLPC  H10X19876   6.241   0.627  -1.223 -0.6249  0.3526  0.0359
  175SLPC  H10Y19877   6.244   0.814  -1.191 -0.3882  0.8847 -0.6683
  175SLPC  C31119878   6.104   0.752  -1.332  0.6927 -0.5861  0.1643
  175SLPC  H11X19879   6.039   0.841  -1.321 -1.3552 -1.7195 -2.0283
  175SLPC  H11Y19880   6.037   0.665  -1.352  0.6149 -0.2434 -1.1509
  175SLPC  C31219881   6.187   0.780  -1.461 -0.1841 -0.4020 -0.5463
  175SLPC  H12X19882   6.250   0.691  -1.483 -1.9198 -1.4136 -1.6099
  175SLPC  H12Y19883   6.254   0.864  -1.430  1.1629 -1.1563 -1.3295
  175SLPC  C31319884   6.106   0.843  -1.575  0.2163 -0.5674 -0.3783
  175SLPC  H13X19885   6.080   0.950  -1.561  1.3339 -0.4411  0.8810
  175SLPC  H13Y19886   6.014   0.781  -1.585  1.1549 -2.0535 -0.0805
  175SLPC  C31419887   6.189   0.829  -1.705  0.1673 -0.2771  0.3176
  175SLPC  H14X19888   6.203   0.723  -1.736  2.7674  0.4231 -1.2219
  175SLPC  H14Y19889   6.290   0.872  -1.689  0.2762  0.2019 -1.5137
  175SLPC  C31519890   6.138   0.919  -1.822 -0.0894  0.5252  0.0932
  175SLPC  H15X19891   6.229   0.944  -1.881  1.2851 -4.4661 -0.3744
  175SLPC  H15Y19892   6.097   1.010  -1.772  0.0106  1.1568 -0.9314
  175SLPC  C31619893   6.024   0.857  -1.895 -0.0433  0.6991  0.0738
  175SLPC  H16X19894   5.931   0.848  -1.835 -0.3394 -1.9496 -0.6371
  175SLPC  H16Y19895   6.049   0.752  -1.922  0.2680  0.8101 -0.0724
  175SLPC  C31719896   5.994   0.929  -2.023 -0.2092 -0.1708 -0.1182
  175SLPC  H17X19897   6.081   0.909  -2.089  1.1275  0.9787  1.2349
  175SLPC  H17Y19898   5.982   1.038  -2.007 -2.8516 -0.4194  0.1368
  175SLPC  C31819899   5.859   0.884  -2.087  0.9486 -0.3366  0.4863
  175SLPC  H18X19900   5.881   0.779  -2.116 -1.4095 -0.6530 -0.3472
  175SLPC  H18Y19901   5.838   0.939  -2.180 -0.8027 -1.1901  0.3322
  175SLPC  H18Z19902   5.774   0.901  -2.018  0.3342 -0.6205 -0.1942
  176SLPC     N19903   6.502   5.066   0.830  0.6672 -0.0053 -0.7305
  176SLPC   C1319904   6.373   5.141   0.851 -0.0174 -0.1949 -0.6702
  176SLPC  H13A19905   6.308   5.141   0.764  0.6101 -1.2533 -1.1588
  176SLPC  H13B19906   6.325   5.093   0.935 -2.2410  1.4451 -0.9084
  176SLPC  H13C19907   6.386   5.243   0.881 -1.0772  0.0825 -1.1004
  176SLPC   C1419908   6.471   4.918   0.790 -0.4796  0.0623  0.0894
  176SLPC  H14A19909   6.420   4.905   0.696  1.3646 -4.1688 -0.5718
  176SLPC  H14B19910   6.569   4.872   0.784 -1.2925 -1.5567 -2.4695
  176SLPC  H14C19911   6.407   4.870   0.863  0.3057  0.4955  1.0902
  176SLPC   C1519912   6.573   5.075   0.963  0.6606 -0.4448 -0.2437
  176SLPC  H15A19913   6.667   5.022   0.959  1.3419  0.7913 -2.2077
  176SLPC  H15B19914   6.614   5.171   0.991 -0.4628  0.0105 -0.1320
  176SLPC  H15C19915   6.513   5.052   1.049 -1.4616 -0.1667 -1.5742
  176SLPC   C1219916   6.594   5.135   0.729  0.4119  0.6704 -0.4051
  176SLPC  H12A19917   6.605   5.235   0.767  2.4161 -0.1158  1.2292
  176SLPC  H12B19918   6.555   5.122   0.629 -1.9860 -0.8022  0.6106
  176SLPC   C1119919   6.738   5.081   0.713  0.4770 -0.3979  0.0062
  176SLPC  H11A19920   6.788   5.088   0.812  0.4737  1.3552 -0.0985
  176SLPC  H11B19921   6.791   5.152   0.646 -0.0045 -1.5165 -1.6440
  176SLPC     P19922   6.693   4.911   0.507 -0.1234 -0.3014  0.4797
  176SLPC   O1319923   6.742   4.777   0.468 -0.1607 -0.0764  0.1391
  176SLPC   O1419924   6.545   4.927   0.491 -0.1646  0.2638  0.1869
  176SLPC   O1219925   6.733   4.952   0.663  0.5540  0.3591  0.1904
  176SLPC   O1119926   6.764   5.019   0.427 -0.1850  0.7574  0.2057
  176SLPC    C119927   6.717   5.145   0.386 -0.1123  0.5506 -0.2320
  176SLPC    HA19928   6.637   5.194   0.446 -1.4365 -2.1682  0.3821
  176SLPC    HB19929   6.799   5.218   0.371  0.3174  0.3367  0.9464
  176SLPC    C219930   6.648   5.132   0.247 -0.0856  0.5825 -0.9440
  176SLPC    HS19931   6.557   5.069   0.255  0.2608 -0.0231 -1.6337
  176SLPC   O2119932   6.741   5.056   0.163 -0.7424  0.0012  0.3268
  176SLPC   C2119933   6.683   4.967   0.084  0.2954  0.0792  0.1854
  176SLPC   O2219934   6.572   4.923   0.105 -0.4646  0.1284 -0.1231
  176SLPC   C2219935   6.774   4.922  -0.024  0.1971  0.4058 -0.2185
  176SLPC   H2R19936   6.879   4.953  -0.004  0.4862  1.4799 -2.9402
  176SLPC   H2S19937   6.765   4.812  -0.031 -2.5214  0.6182 -1.5725
  176SLPC    C319938   6.600   5.266   0.185  0.1683 -0.3303 -0.5335
  176SLPC    HX19939   6.690   5.328   0.167  0.2532 -0.5204 -0.7652
  176SLPC    HY19940   6.539   5.318   0.262  0.5928 -0.3836 -0.1498
  176SLPC   O3119941   6.525   5.241   0.063 -0.2643  0.1332 -0.2146
  176SLPC   C3119942   6.399   5.208   0.073 -0.2385 -0.0626 -0.5004
  176SLPC   O3219943   6.337   5.207   0.175 -0.3643 -0.4354  0.5907
  176SLPC   C3219944   6.329   5.208  -0.065 -0.0709 -0.4447  0.5174
  176SLPC   H2X19945   6.391   5.261  -0.141 -0.7694 -0.6805 -0.2309
  176SLPC   H2Y19946   6.222   5.236  -0.070 -0.3868 -1.7310 -0.4844
  176SLPC   C2319947   6.739   4.992  -0.159 -0.2015  0.3376 -0.6030
  176SLPC   H3R19948   6.742   5.103  -0.158 -0.0645  0.3691 -2.0566
  176SLPC   H3S19949   6.633   4.963  -0.179 -0.2404  0.0214  0.0249
  176SLPC   C2419950   6.833   4.951  -0.276 -0.0709  0.0305 -0.0661
  176SLPC   H4R19951   6.834   4.839  -0.280 -1.1888 -0.0676  1.4381
  176SLPC   H4S19952   6.936   4.974  -0.244  0.0297  0.7383 -0.8724
  176SLPC   C2519953   6.794   5.013  -0.409 -0.0149 -0.5597 -1.2318
  176SLPC   H5R19954   6.831   5.117  -0.419 -2.8994  0.6203 -0.8087
  176SLPC   H5S19955   6.684   5.005  -0.425  0.0939 -0.1722 -2.2415
  176SLPC   C2619956   6.855   4.931  -0.525  0.2703  0.5681 -0.7262
  176SLPC   H6R19957   6.799   4.835  -0.530 -0.3621  0.7298  1.9116
  176SLPC   H6S19958   6.958   4.898  -0.500  0.2054 -0.5626 -1.8449
  176SLPC   C2719959   6.878   5.013  -0.642 -0.3331  0.2548  0.1935
  176SLPC   H7R19960   6.959   5.084  -0.615  1.4923 -0.5729 -2.6611
  176SLPC   H7S19961   6.790   5.078  -0.665 -0.3770  0.7235  1.6116
  176SLPC   C2819962   6.919   4.946  -0.773  0.4032 -0.2074 -0.1230
  176SLPC   H8R19963   6.844   4.871  -0.806 -0.1178  0.2972 -0.1085
  176SLPC   H8S19964   7.017   4.896  -0.760  0.8950  0.6973 -0.2797
  176SLPC   C2919965   6.932   5.050  -0.886 -0.2145  0.4004 -0.0878
  176SLPC   H9R19966   6.993   5.133  -0.851  2.0893 -0.6979 -1.2759
  176SLPC  C21019967   6.896   5.048  -1.018 -0.5280 -0.5634  0.3911
  176SLPC  H10R19968   6.922   5.134  -1.083 -3.0111 -0.1388 -0.1329
  176SLPC  C21119969   6.826   4.941  -1.087  0.5718  0.5552  0.2253
  176SLPC  H11R19970   6.744   4.892  -1.031  0.1601 -0.4392 -1.1940
  176SLPC  H11S19971   6.892   4.856  -1.113 -1.7257 -0.6121 -2.2773
  176SLPC  C21219972   6.757   4.988  -1.214 -0.8367  0.0964  0.4057
  176SLPC  H12R19973   6.656   5.030  -1.206 -0.4835  1.1736 -0.5419
  176SLPC  C21319974   6.813   4.988  -1.336 -0.5974  0.1421 -0.0566
  176SLPC  H13R19975   6.758   5.034  -1.419 -1.2483  0.6030  0.6180
  176SLPC  C21419976   6.957   4.948  -1.364  0.6521 -0.7576  0.1168
  176SLPC  H14R19977   6.968   4.862  -1.433  2.2518 -0.3212 -0.2139
  176SLPC  H14S19978   7.006   4.931  -1.265  1.4024  0.1527 -0.0792
  176SLPC  C21519979   7.036   5.066  -1.433  0.2888 -0.7899  0.2883
  176SLPC  H15R19980   7.126   5.021  -1.479  0.2264  0.9239 -1.6491
  176SLPC  H15S19981   7.068   5.149  -1.366 -0.9120  0.5480 -0.7234
  176SLPC  C21619982   6.970   5.133  -1.549  0.1520  0.4010 -0.2763
  176SLPC  H16R19983   6.887   5.199  -1.514  0.4891  0.3320  0.6962
  176SLPC  H16S19984   6.927   5.053  -1.613  0.3044 -0.1279  0.2728
  176SLPC  C21719985   7.074   5.205  -1.642  0.5542 -0.2921 -0.4173
  176SLPC  H17R19986   7.016   5.252  -1.725  0.9906 -0.2280 -0.6910
  176SLPC  H17S19987   7.156   5.135  -1.671  1.3678 -0.6772  2.5245
  176SLPC  C21819988   7.138   5.320  -1.563 -0.3419  0.1614  0.0377
  176SLPC  H18R19989   7.060   5.388  -1.522 -0.8857  1.2623 -2.5941
  176SLPC  H18S19990   7.202   5.382  -1.629 -1.5357  1.5886  0.1660
  176SLPC  H18T19991   7.199   5.285  -1.478 -2.2550 -0.7920  1.0914
  176SLPC   C3319992   6.324   5.061  -0.116 -0.9091  0.1516  0.1996
  176SLPC   H3X19993   6.240   5.015  -0.059  0.3303 -0.2576  1.7523
  176SLPC   H3Y19994   6.425   5.023  -0.093  0.2143  2.6142 -0.3358
  176SLPC   C3419995   6.291   5.038  -0.263 -0.2871 -0.4204  0.4038
  176SLPC   H4X19996   6.210   5.111  -0.286 -0.1641 -0.7759 -1.2578
  176SLPC   H4Y19997   6.257   4.933  -0.272 -2.5631  0.3693 -1.4742
  176SLPC   C3519998   6.401   5.069  -0.362 -0.1144 -0.2643 -0.1085
  176SLPC   H5X19999   6.472   4.983  -0.358 -0.4360 -0.4786  1.6181
  176SLPC   H5Y20000   6.466   5.151  -0.325  1.6046 -1.8905  0.6922
  176SLPC   C3620001   6.348   5.096  -0.503 -0.3552  0.1750 -0.6466
  176SLPC   H6X20002   6.293   5.193  -0.501 -0.0053  0.4069 -1.7876
  176SLPC   H6Y20003   6.292   5.016  -0.555 -0.3900 -0.3346  0.1674
  176SLPC   C3720004   6.476   5.125  -0.597  0.8356  0.0876  0.1063
  176SLPC   H7X20005   6.547   5.040  -0.600  1.5395  0.6990 -1.1756
  176SLPC   H7Y20006   6.528   5.210  -0.548 -1.3823  1.7038 -0.1747
  176SLPC   C3820007   6.444   5.158  -0.743  0.1107  0.5334 -0.3459
  176SLPC   H8X20008   6.383   5.251  -0.743 -1.4187 -0.4269 -1.3562
  176SLPC   H8Y20009   6.381   5.078  -0.788  2.9851 -1.0201 -1.8785
  176SLPC   C3920010   6.571   5.160  -0.831 -0.0777  0.6494  0.3929
  176SLPC   H9X20011   6.619   5.060  -0.820 -0.6906  0.5455  2.7071
  176SLPC   H9Y20012   6.638   5.234  -0.782 -0.0539  0.4850  0.6100
  176SLPC  C31020013   6.540   5.212  -0.974  0.2586  0.3785 -0.5199
  176SLPC  H10X20014   6.636   5.227  -1.027  0.7391  2.2897  0.7760
  176SLPC  H10Y20015   6.493   5.311  -0.956  0.3462  0.2772  0.3240
  176SLPC  C31120016   6.450   5.115  -1.052  0.0125  0.2674  1.1891
  176SLPC  H11X20017   6.355   5.110  -0.994 -0.5600  1.0401  0.3498
  176SLPC  H11Y20018   6.490   5.012  -1.057  0.1026  0.3694 -0.9743
  176SLPC  C31220019   6.431   5.157  -1.197  0.2252 -0.3610 -0.0239
  176SLPC  H12X20020   6.524   5.161  -1.257  0.8181 -0.4671  0.8661
  176SLPC  H12Y20021   6.380   5.255  -1.203 -0.7329 -0.7384  1.2413
  176SLPC  C31320022   6.331   5.055  -1.267 -0.1836  0.4393  0.5031
  176SLPC  H13X20023   6.235   5.066  -1.212 -1.1390  0.2347 -1.0714
  176SLPC  H13Y20024   6.365   4.951  -1.250 -1.5074  0.1195  1.4158
  176SLPC  C31420025   6.304   5.095  -1.416 -0.0083  0.9012 -0.8535
  176SLPC  H14X20026   6.237   5.184  -1.420  1.4959  2.0313 -2.5502
  176SLPC  H14Y20027   6.263   5.006  -1.469  0.2554  0.6349 -0.6103
  176SLPC  C31520028   6.436   5.128  -1.490  0.0061 -0.4073  0.5336
  176SLPC  H15X20029   6.501   5.039  -1.501 -0.5092 -0.7609  0.2960
  176SLPC  H15Y20030   6.498   5.208  -1.444 -0.2249 -0.5491  1.1074
  176SLPC  C31620031   6.400   5.175  -1.637 -0.5313 -0.1692 -0.6516
  176SLPC  H16X20032   6.328   5.260  -1.629  0.9364  1.0085  1.2751
  176SLPC  H16Y20033   6.354   5.090  -1.690  1.0675 -0.7831 -1.1049
  176SLPC  C31720034   6.526   5.206  -1.712 -0.1146  0.3974 -0.8459
  176SLPC  H17X20035   6.579   5.295  -1.672  0.1385 -0.7180  1.4552
  176SLPC  H17Y20036   6.491   5.223  -1.817 -2.8724 -0.0649 -0.0897
  176SLPC  C31820037   6.637   5.101  -1.712  0.9110 -0.8015  0.3060
  176SLPC  H18X20038   6.691   5.107  -1.616  1.6713 -1.1186 -0.0955
  176SLPC  H18Y20039   6.709   5.136  -1.789  0.5106  3.0298  1.4857
  176SLPC  H18Z20040   6.602   4.996  -1.729 -1.0327 -0.1557  0.0489
  177SLPC     N20041   4.375   5.941   0.291  0.1992  0.5073  0.0600
  177SLPC   C1320042   4.362   5.869   0.171  0.4172  0.2423 -0.1055
  177SLPC  H13A20043   4.298   5.919   0.100 -0.0481  1.4581  1.1306
  177SLPC  H13B20044   4.455   5.855   0.117 -0.4259  1.5604 -2.0401
  177SLPC  H13C20045   4.318   5.772   0.186 -0.2209  0.8703  2.6836
  177SLPC   C1420046   4.450   5.871   0.394  0.0959  0.4838 -0.0356
  177SLPC  H14A20047   4.491   5.936   0.470 -2.1633 -0.0643  1.7945
  177SLPC  H14B20048   4.389   5.802   0.451  1.8968 -1.8795 -0.8346
  177SLPC  H14C20049   4.539   5.821   0.359 -0.9893 -2.1648  0.7193
  177SLPC   C1520050   4.234   5.965   0.348 -0.0950 -0.6348 -0.4581
  177SLPC  H15A20051   4.180   5.879   0.384 -0.3936 -1.8767 -3.5802
  177SLPC  H15B20052   4.240   6.022   0.440 -1.1371  0.9044 -1.2993
  177SLPC  H15C20053   4.183   6.033   0.282  1.8813  0.7926 -0.6352
  177SLPC   C1220054   4.439   6.077   0.263  0.4017  0.3487  0.1723
  177SLPC  H12A20055   4.528   6.058   0.205 -0.3045 -1.0471 -0.5075
  177SLPC  H12B20056   4.473   6.121   0.356 -0.1619 -0.0772  0.5824
  177SLPC   C1120057   4.361   6.185   0.181 -0.6991 -0.1212 -0.6229
  177SLPC  H11A20058   4.306   6.130   0.101 -3.5666 -0.4358  1.4143
  177SLPC  H11B20059   4.427   6.265   0.141 -3.5531  1.8617 -1.6860
  177SLPC     P20060   4.300   6.367   0.368  0.0233  0.2314 -0.2113
  177SLPC   O1320061   4.232   6.348   0.502  0.1239  0.1832 -0.3332
  177SLPC   O1420062   4.443   6.390   0.372  0.0187  0.1217  0.1233
  177SLPC   O1220063   4.267   6.244   0.273  0.5186  0.0078 -0.0408
  177SLPC   O1120064   4.243   6.493   0.295 -0.0053  0.5072  0.2930
  177SLPC    C120065   4.287   6.541   0.163 -0.2955 -0.3941 -0.1989
  177SLPC    HA20066   4.295   6.652   0.170  0.8255 -0.4892  0.2692
  177SLPC    HB20067   4.385   6.497   0.134 -0.2839  0.1299 -0.9741
  177SLPC    C220068   4.184   6.507   0.052  0.1901 -0.1083 -0.0714
  177SLPC    HS20069   4.166   6.398   0.063 -0.4306  0.1627  1.9644
  177SLPC   O2120070   4.220   6.552  -0.080 -0.5470  0.2289  0.0504
  177SLPC   C2120071   4.312   6.477  -0.141  0.5037  0.4211  0.0880
  177SLPC   O2220072   4.377   6.386  -0.091  0.4918  0.2729  0.5366
  177SLPC   C2220073   4.310   6.507  -0.288  0.0004  0.3634  0.0202
  177SLPC   H2R20074   4.333   6.613  -0.314  0.5389  0.5068  1.0103
  177SLPC   H2S20075   4.395   6.451  -0.333  2.2069  1.6044  2.3265
  177SLPC    C320076   4.046   6.565   0.072 -0.0715 -0.0887 -0.1167
  177SLPC    HX20077   4.045   6.676   0.064 -0.8286  0.2631  3.1963
  177SLPC    HY20078   4.014   6.539   0.175 -0.0446 -3.2835 -0.8268
  177SLPC   O3120079   3.955   6.498  -0.006  0.4068 -0.3496  0.4817
  177SLPC   C3120080   3.891   6.560  -0.105  0.6464 -0.3431 -0.2841
  177SLPC   O3220081   3.912   6.674  -0.139 -0.4584 -0.7430  0.0112
  177SLPC   C3220082   3.803   6.459  -0.185  0.5051  0.1045  0.6800
  177SLPC   H2X20083   3.738   6.420  -0.105 -1.5090  0.9140 -0.4858
  177SLPC   H2Y20084   3.864   6.375  -0.225 -0.4322  0.4062 -1.5282
  177SLPC   C2320085   4.167   6.465  -0.349 -0.8531 -0.1784 -0.4373
  177SLPC   H3R20086   4.117   6.563  -0.334  0.7942  0.8819 -1.5094
  177SLPC   H3S20087   4.121   6.382  -0.292 -1.2487  1.8777  2.4967
  177SLPC   C2420088   4.167   6.426  -0.493 -0.3964 -0.1182 -0.5897
  177SLPC   H4R20089   4.069   6.405  -0.540  0.5756 -2.1554 -1.8873
  177SLPC   H4S20090   4.220   6.329  -0.507 -2.5469 -1.2367 -1.4123
  177SLPC   C2520091   4.250   6.512  -0.581  0.7181 -0.0138 -0.2075
  177SLPC   H5R20092   4.333   6.452  -0.624  1.4127  2.4819 -2.5785
  177SLPC   H5S20093   4.306   6.594  -0.533 -0.8390  1.3366 -0.6167
  177SLPC   C2620094   4.160   6.572  -0.698 -0.8618  0.4421  0.1368
  177SLPC   H6R20095   4.087   6.647  -0.661  1.1089  2.2777  0.4786
  177SLPC   H6S20096   4.111   6.484  -0.745 -2.5962  2.0638 -1.1785
  177SLPC   C2720097   4.245   6.634  -0.809  0.6911 -0.3265  0.0284
  177SLPC   H7R20098   4.331   6.694  -0.770  1.2214  1.0739 -3.0013
  177SLPC   H7S20099   4.182   6.704  -0.868 -0.0526 -0.1464  1.0059
  177SLPC   C2820100   4.312   6.521  -0.898 -0.2306 -0.1904  0.2169
  177SLPC   H8R20101   4.228   6.456  -0.929 -1.8689  1.8176  0.2346
  177SLPC   H8S20102   4.376   6.461  -0.829  0.6975 -0.3216 -0.7421
  177SLPC   C2920103   4.385   6.586  -1.013  0.0476  0.5896  0.1904
  177SLPC   H9R20104   4.494   6.596  -1.001  0.4977 -1.9341 -1.1031
  177SLPC  C21020105   4.319   6.620  -1.124 -0.3727  0.1963 -0.3911
  177SLPC  H10R20106   4.369   6.665  -1.211 -1.7325  0.4544 -1.0695
  177SLPC  C21120107   4.166   6.598  -1.147  0.3822 -0.2599  0.0520
  177SLPC  H11R20108   4.120   6.671  -1.217 -3.1145 -1.3765  0.9831
  177SLPC  H11S20109   4.114   6.620  -1.052  2.7193  1.8139  0.9339
  177SLPC  C21220110   4.128   6.458  -1.193 -0.4592  0.4178 -0.3476
  177SLPC  H12R20111   4.106   6.387  -1.112  0.9251  0.1225 -0.2053
  177SLPC  C21320112   4.132   6.418  -1.323 -0.0264 -0.3047 -0.3420
  177SLPC  H13R20113   4.098   6.316  -1.344 -2.4147  0.3605 -0.0388
  177SLPC  C21420114   4.174   6.491  -1.448  0.3641 -0.6182  0.3839
  177SLPC  H14R20115   4.220   6.588  -1.419 -4.2371  2.0806 -0.2329
  177SLPC  H14S20116   4.086   6.515  -1.512 -0.1809  0.9631  1.6397
  177SLPC  C21520117   4.283   6.412  -1.525  0.0437 -0.4978 -0.2277
  177SLPC  H15R20118   4.236   6.318  -1.563 -2.0471  0.6600 -0.7031
  177SLPC  H15S20119   4.358   6.379  -1.451 -1.8416 -1.4018  1.3852
  177SLPC  C21620120   4.360   6.495  -1.633 -0.0270 -0.0574 -0.1812
  177SLPC  H16R20121   4.449   6.435  -1.661  2.2355  2.1065  1.9205
  177SLPC  H16S20122   4.401   6.589  -1.591 -2.5747  1.4143 -0.7061
  177SLPC  C21720123   4.274   6.545  -1.748 -0.0499 -0.4207  0.5402
  177SLPC  H17R20124   4.339   6.605  -1.815 -0.9171 -0.0554  0.0132
  177SLPC  H17S20125   4.202   6.618  -1.705 -1.7102  0.1570 -2.8943
  177SLPC  C21820126   4.191   6.435  -1.823 -0.3651 -0.1206 -0.3415
  177SLPC  H18R20127   4.116   6.394  -1.753 -0.8845 -0.3571 -1.0281
  177SLPC  H18S20128   4.261   6.358  -1.862  0.6043  0.5594  0.0122
  177SLPC  H18T20129   4.122   6.481  -1.898 -2.7221 -3.0558 -0.1272
  177SLPC   C3320130   3.711   6.527  -0.287  0.0068  0.4066 -0.0411
  177SLPC   H3X20131   3.680   6.621  -0.237  1.0212  0.8016 -0.1315
  177SLPC   H3Y20132   3.635   6.452  -0.320 -3.3722  3.3864  0.3082
  177SLPC   C3420133   3.791   6.567  -0.413  0.0358  0.1552  0.1092
  177SLPC   H4X20134   3.851   6.479  -0.448  0.9663  1.5487 -2.0171
  177SLPC   H4Y20135   3.857   6.652  -0.387 -0.6199  1.1153 -1.2949
  177SLPC   C3520136   3.711   6.619  -0.534  0.5717  0.1482 -0.0894
  177SLPC   H5X20137   3.649   6.708  -0.507  0.9249  0.2206  0.4936
  177SLPC   H5Y20138   3.655   6.542  -0.591  1.5257 -0.5217 -0.1320
  177SLPC   C3620139   3.810   6.673  -0.642 -1.1695 -0.2374  0.1165
  177SLPC   H6X20140   3.863   6.583  -0.680 -0.9622  0.2313 -0.7409
  177SLPC   H6Y20141   3.886   6.739  -0.595 -1.4345  0.4157 -0.3495
  177SLPC   C3720142   3.738   6.733  -0.765  0.2842  0.4759 -0.6575
  177SLPC   H7X20143   3.685   6.828  -0.746 -0.5555  0.1136 -1.1134
  177SLPC   H7Y20144   3.666   6.661  -0.811  1.0676 -0.1960 -0.8632
  177SLPC   C3820145   3.844   6.761  -0.881  0.5955  0.0494 -0.8517
  177SLPC   H8X20146   3.921   6.680  -0.883  1.0102  0.4048  0.0509
  177SLPC   H8Y20147   3.901   6.854  -0.860  1.2673 -0.7517  1.1751
  177SLPC   C3920148   3.770   6.763  -1.012  0.1447 -0.5707 -0.1442
  177SLPC   H9X20149   3.687   6.836  -1.000  2.4748  3.0860 -3.8414
  177SLPC   H9Y20150   3.733   6.661  -1.036  2.0207 -1.2755 -0.1758
  177SLPC  C31020151   3.853   6.809  -1.127 -0.0240  0.6511  0.7257
  177SLPC  H10X20152   3.943   6.745  -1.131  0.3606  1.1507 -3.0344
  177SLPC  H10Y20153   3.891   6.913  -1.119  3.5883 -0.5822  1.3519
  177SLPC  C31120154   3.777   6.803  -1.266  1.3578  0.2249 -0.6150
  177SLPC  H11X20155   3.801   6.902  -1.311  0.5974 -0.4458 -2.5830
  177SLPC  H11Y20156   3.670   6.792  -1.240  1.5108 -2.7959 -0.8588
  177SLPC  C31220157   3.838   6.699  -1.359 -0.1085 -0.0180 -0.2636
  177SLPC  H12X20158   3.824   6.602  -1.306 -2.8636 -0.1402 -1.0447
  177SLPC  H12Y20159   3.948   6.703  -1.372 -0.1305  0.0024 -0.4450
  177SLPC  C31320160   3.765   6.684  -1.489 -0.2034  0.3274  0.3858
  177SLPC  H13X20161   3.768   6.780  -1.545 -2.0142  0.5222  0.5486
  177SLPC  H13Y20162   3.655   6.678  -1.469 -0.2639  3.1914  1.3871
  177SLPC  C31420163   3.818   6.564  -1.574  0.1239  0.2571 -0.8846
  177SLPC  H14X20164   3.821   6.475  -1.508  0.2990  2.5765  2.5353
  177SLPC  H14Y20165   3.921   6.583  -1.612  0.1792 -0.9526 -1.3788
  177SLPC  C31520166   3.731   6.521  -1.700  0.4478 -0.6254  0.0250
  177SLPC  H15X20167   3.629   6.489  -1.671  0.1070 -0.1970 -0.6607
  177SLPC  H15Y20168   3.780   6.446  -1.766  1.0715  0.2435 -0.5366
  177SLPC  C31620169   3.714   6.640  -1.793 -0.1220 -0.6776 -0.1353
  177SLPC  H16X20170   3.809   6.687  -1.826 -0.3977 -1.0931 -1.5970
  177SLPC  H16Y20171   3.653   6.724  -1.754  0.2183  0.4022 -1.8067
  177SLPC  C31720172   3.641   6.601  -1.916 -0.2578  0.5053  0.4547
  177SLPC  H17X20173   3.534   6.577  -1.900  0.5275 -1.5584  3.2496
  177SLPC  H17Y20174   3.688   6.511  -1.962 -2.1797 -0.0656 -0.4708
  177SLPC  C31820175   3.642   6.715  -2.023  0.1328  0.2978  0.0173
  177SLPC  H18X20176   3.600   6.802  -1.967  0.8842 -0.5214  1.9459
  177SLPC  H18Y20177   3.577   6.681  -2.106  1.2591 -2.4645  0.1796
  177SLPC  H18Z20178   3.742   6.738  -2.066  0.4298 -1.0383 -0.0424
  178SLPC     N20179   3.591   5.160   0.490 -0.2262  0.0390  0.4181
  178SLPC   C1320180   3.492   5.144   0.377 -0.6159  0.4712 -0.1300
  178SLPC  H13A20181   3.481   5.227   0.310 -1.4760  1.1626  0.8516
  178SLPC  H13B20182   3.532   5.065   0.315  0.3222  0.7334  0.1221
  178SLPC  H13C20183   3.400   5.115   0.426 -0.3806 -0.2155 -0.0776
  178SLPC   C1420184   3.523   5.252   0.582 -0.5677  0.1568  0.3783
  178SLPC  H14A20185   3.503   5.342   0.526 -3.1197 -0.5641 -0.0236
  178SLPC  H14B20186   3.422   5.226   0.611 -0.3358  0.2722  1.3283
  178SLPC  H14C20187   3.581   5.271   0.671  0.1902  0.2048 -0.1154
  178SLPC   C1520188   3.719   5.222   0.443  0.4132 -0.5573  0.2647
  178SLPC  H15A20189   3.784   5.249   0.524  0.7140 -2.3423  0.6559
  178SLPC  H15B20190   3.775   5.161   0.374 -0.3786  0.7404 -1.5965
  178SLPC  H15C20191   3.689   5.313   0.392 -0.5896 -0.3026  1.2559
  178SLPC   C1220192   3.622   5.023   0.549  0.8653 -0.1641  0.3016
  178SLPC  H12A20193   3.528   4.979   0.579  0.6613  0.8907  1.2923
  178SLPC  H12B20194   3.677   5.032   0.641  1.5881 -0.2735 -0.1085
  178SLPC   C1120195   3.700   4.917   0.464 -0.2154  0.0264 -0.2959
  178SLPC  H11A20196   3.659   4.890   0.364  1.1253 -2.1723 -0.3314
  178SLPC  H11B20197   3.697   4.822   0.521  1.1941  0.2184  0.1488
  178SLPC     P20198   3.949   4.918   0.535 -0.2814 -0.0365  0.1554
  178SLPC   O1320199   4.078   4.986   0.500 -0.0233  0.1873  0.0448
  178SLPC   O1420200   3.907   4.945   0.675  0.4504  0.0436 -0.1001
  178SLPC   O1220201   3.834   4.958   0.439 -0.1947 -0.4759  0.6952
  178SLPC   O1120202   3.962   4.763   0.517 -0.2240  0.3116 -0.2966
  178SLPC    C120203   4.065   4.685   0.455 -0.1288  0.3184 -0.0588
  178SLPC    HA20204   4.171   4.713   0.474  0.3978  0.2333 -2.5985
  178SLPC    HB20205   4.060   4.580   0.490  1.7747  0.2542  0.1491
  178SLPC    C220206   4.051   4.672   0.303  0.0483 -0.2793 -1.3171
  178SLPC    HS20207   4.137   4.611   0.266 -0.8078 -1.6856 -1.0717
  178SLPC   O2120208   4.038   4.802   0.236 -0.5168  0.2002  0.1196
  178SLPC   C2120209   4.155   4.857   0.233  0.0270  0.2865 -0.0498
  178SLPC   O2220210   4.260   4.805   0.264  0.2602 -0.1896  0.2817
  178SLPC   C2220211   4.139   5.004   0.183  0.4112  0.4014 -0.1184
  178SLPC   H2R20212   4.052   5.048   0.236  0.5444 -0.7846  1.1581
  178SLPC   H2S20213   4.220   5.074   0.213 -1.5066  2.9876 -0.6122
  178SLPC    C320214   3.923   4.593   0.261 -0.0424 -0.3768  0.5819
  178SLPC    HX20215   3.836   4.659   0.285  0.1695  0.5047 -0.9485
  178SLPC    HY20216   3.933   4.502   0.324  1.0130 -1.3005 -0.8758
  178SLPC   O3120217   3.934   4.564   0.122  0.3652 -0.0754 -0.0952
  178SLPC   C3120218   3.878   4.644   0.033  0.3374 -0.5842 -0.6025
  178SLPC   O3220219   3.809   4.745   0.061  0.0752 -0.2155 -0.0823
  178SLPC   C3220220   3.904   4.587  -0.104  0.4703  0.0729 -0.4126
  178SLPC   H2X20221   3.838   4.498  -0.110 -1.4648  1.3227  1.1887
  178SLPC   H2Y20222   4.011   4.559  -0.111  0.2331 -1.0984  0.2267
  178SLPC   C2320223   4.108   5.013   0.033 -0.0150  0.0763  0.0784
  178SLPC   H3R20224   4.096   5.121   0.008 -0.0708 -0.0533 -0.4844
  178SLPC   H3S20225   4.005   4.973   0.021  0.4563 -1.2083  0.1690
  178SLPC   C2420226   4.215   4.942  -0.058  0.4221 -0.1000 -0.0079
  178SLPC   H4R20227   4.190   4.836  -0.037 -2.4398  0.5541  0.4038
  178SLPC   H4S20228   4.317   4.968  -0.023  0.0028  0.7478  0.6134
  178SLPC   C2520229   4.196   4.961  -0.209  0.2845 -0.0214 -0.0555
  178SLPC   H5R20230   4.093   4.928  -0.233 -0.3588  1.9178 -0.1459
  178SLPC   H5S20231   4.275   4.905  -0.262 -0.2581 -1.0442  0.1951
  178SLPC   C2620232   4.200   5.108  -0.253  0.1751 -1.4623  0.0010
  178SLPC   H6R20233   4.289   5.147  -0.200 -0.2421 -1.2399  0.5456
  178SLPC   H6S20234   4.112   5.162  -0.212  0.3325 -1.4125  0.2695
  178SLPC   C2720235   4.210   5.130  -0.409 -0.0338  0.0277  0.2247
  178SLPC   H7R20236   4.308   5.103  -0.454 -0.1445  0.0069 -0.0037
  178SLPC   H7S20237   4.196   5.240  -0.416 -1.0556 -0.0986  0.1974
  178SLPC   C2820238   4.106   5.051  -0.481  0.4809 -0.4352 -0.2252
  178SLPC   H8R20239   4.016   5.036  -0.418  2.3629 -0.4609  2.6693
  178SLPC   H8S20240   4.154   4.953  -0.499 -0.9067 -0.9221 -1.4657
  178SLPC   C2920241   4.075   5.121  -0.609 -0.4530  0.2360  0.2182
  178SLPC   H9R20242   3.996   5.198  -0.607  0.4393  1.3894 -2.9126
  178SLPC  C21020243   4.117   5.076  -0.732 -0.2519 -0.2380 -0.3418
  178SLPC  H10R20244   4.085   5.132  -0.820 -1.4587  0.4207  0.4996
  178SLPC  C21120245   4.220   4.966  -0.758 -0.5679 -0.9373  0.4808
  178SLPC  H11R20246   4.212   4.893  -0.674  1.2574  0.2773  1.8007
  178SLPC  H11S20247   4.326   5.000  -0.758 -1.1274  0.9367  0.7431
  178SLPC  C21220248   4.184   4.890  -0.879 -0.4086  0.5508  0.5539
  178SLPC  H12R20249   4.135   4.793  -0.866  0.1774  0.3024  0.9376
  178SLPC  C21320250   4.242   4.913  -0.999  0.2292 -0.2049 -0.0857
  178SLPC  H13R20251   4.201   4.847  -1.077 -0.0845 -0.9981  0.7424
  178SLPC  C21420252   4.323   5.023  -1.052  0.2029  0.2191 -0.4265
  178SLPC  H14R20253   4.427   4.996  -1.082  0.8777  2.0068  0.2122
  178SLPC  H14S20254   4.323   5.096  -0.968 -0.6183 -1.3600  1.0117
  178SLPC  C21520255   4.266   5.094  -1.171  0.0727 -0.4961  0.5854
  178SLPC  H15R20256   4.326   5.186  -1.191  3.1383 -2.8140 -1.9939
  178SLPC  H15S20257   4.167   5.124  -1.132 -0.4691 -1.6101  0.0984
  178SLPC  C21620258   4.256   5.011  -1.304 -0.2774  0.0951  0.4837
  178SLPC  H16R20259   4.198   5.070  -1.378 -1.2246 -0.6576  0.6134
  178SLPC  H16S20260   4.191   4.921  -1.304 -0.0804 -0.0594 -0.1305
  178SLPC  C21720261   4.392   4.968  -1.353  0.0785  0.7800  0.0943
  178SLPC  H17R20262   4.431   4.885  -1.291 -0.3206  1.6354  1.5302
  178SLPC  H17S20263   4.453   5.051  -1.311  1.5350 -1.3979  2.5696
  178SLPC  C21820264   4.406   4.937  -1.505  0.5652  0.1858 -0.0549
  178SLPC  H18R20265   4.502   4.883  -1.516 -0.8928 -3.2378  2.2984
  178SLPC  H18S20266   4.390   5.032  -1.560 -0.3183  0.4598  0.6447
  178SLPC  H18T20267   4.322   4.866  -1.517  0.2982  0.1464  1.7358
  178SLPC   C3320268   3.852   4.678  -0.215  0.1357 -0.1354  0.1237
  178SLPC   H3X20269   3.923   4.763  -0.224  0.1716 -0.0000  1.3952
  178SLPC   H3Y20270   3.752   4.725  -0.208  0.0425 -0.0934 -1.2900
  178SLPC   C3420271   3.849   4.602  -0.347  0.5601 -0.5123 -0.0592
  178SLPC   H4X20272   3.769   4.526  -0.332 -1.0743  1.1131 -0.2578
  178SLPC   H4Y20273   3.948   4.554  -0.362 -0.1428 -1.6769 -1.1818
  178SLPC   C3520274   3.831   4.686  -0.469 -0.3419 -0.1768  0.7438
  178SLPC   H5X20275   3.909   4.766  -0.474 -0.1951 -0.3717 -0.8699
  178SLPC   H5Y20276   3.739   4.748  -0.471 -0.2563  0.0831 -2.8342
  178SLPC   C3620277   3.838   4.606  -0.598 -0.3158  1.2465 -0.2765
  178SLPC   H6X20278   3.754   4.533  -0.598  0.3638  0.3746  2.2279
  178SLPC   H6Y20279   3.934   4.550  -0.605 -1.1859 -0.1747 -1.2297
  178SLPC   C3720280   3.842   4.691  -0.727 -0.2827  0.9285 -0.5207
  178SLPC   H7X20281   3.930   4.758  -0.723  1.8633 -1.7436  0.5306
  178SLPC   H7Y20282   3.749   4.752  -0.732  0.0535  1.5291  0.2262
  178SLPC   C3820283   3.853   4.607  -0.852 -0.1392  0.2307 -0.1330
  178SLPC   H8X20284   3.767   4.537  -0.850 -2.0653  2.4877  0.0452
  178SLPC   H8Y20285   3.946   4.550  -0.833 -0.5283 -0.2818  0.2577
  178SLPC   C3920286   3.857   4.683  -0.986  0.1636  0.4373  0.0626
  178SLPC   H9X20287   3.937   4.759  -0.979 -0.3439  0.9986 -0.1220
  178SLPC   H9Y20288   3.763   4.741  -0.997  0.0695  0.0343 -1.5331
  178SLPC  C31020289   3.883   4.595  -1.113 -0.1343  0.3404  0.0880
  178SLPC  H10X20290   3.787   4.548  -1.141  0.4567 -3.1537  3.1428
  178SLPC  H10Y20291   3.958   4.521  -1.076  1.1288  1.4021 -0.2975
  178SLPC  C31120292   3.942   4.682  -1.227 -0.3048  0.1086 -0.7337
  178SLPC  H11X20293   4.033   4.735  -1.191  0.8626 -1.2715 -1.5576
  178SLPC  H11Y20294   3.854   4.749  -1.238 -0.4424 -0.2991 -2.4879
  178SLPC  C31220295   3.975   4.610  -1.355  0.0823 -0.0807  0.4005
  178SLPC  H12X20296   3.877   4.570  -1.388 -0.3677  2.2994 -1.3602
  178SLPC  H12Y20297   4.049   4.529  -1.340 -1.4491 -1.1422  2.7852
  178SLPC  C31320298   3.991   4.706  -1.471  0.4174 -0.0000  0.5491
  178SLPC  H13X20299   4.083   4.768  -1.461  1.7561 -1.6125 -0.9149
  178SLPC  H13Y20300   3.902   4.772  -1.478  0.4379  0.0278  0.5556
  178SLPC  C31420301   3.987   4.635  -1.614 -0.2915 -0.1352  0.0648
  178SLPC  H14X20302   3.898   4.570  -1.625 -0.2790 -0.6264  2.3550
  178SLPC  H14Y20303   4.077   4.571  -1.625 -1.3396 -2.1817  2.3943
  178SLPC  C31520304   3.986   4.738  -1.726 -0.3306  0.1441 -0.4029
  178SLPC  H15X20305   3.884   4.781  -1.724 -1.6314 -2.7089 -0.3163
  178SLPC  H15Y20306   4.001   4.690  -1.825 -0.4216 -2.9139  0.9626
  178SLPC  C31620307   4.081   4.858  -1.712 -0.1496  0.2384 -0.4182
  178SLPC  H16X20308   4.182   4.817  -1.734  0.4180  0.2308  1.9750
  178SLPC  H16Y20309   4.071   4.911  -1.615 -1.0790  0.3830 -0.5774
  178SLPC  C31720310   4.054   4.957  -1.829 -0.4418 -0.3958  0.2072
  178SLPC  H17X20311   3.948   4.986  -1.816 -0.0771  0.9024  0.4631
  178SLPC  H17Y20312   4.076   4.906  -1.926  2.0646  0.7104  0.1225
  178SLPC  C31820313   4.143   5.079  -1.822  0.0985 -0.4705 -0.1561
  178SLPC  H18X20314   4.124   5.125  -1.722 -0.0077  0.5125 -0.6264
  178SLPC  H18Y20315   4.121   5.151  -1.903 -1.7314  0.1617  0.8406
  178SLPC  H18Z20316   4.252   5.056  -1.819 -0.0790 -1.4129 -0.4171
  179SLPC     N20317   0.528   6.021   4.280 -0.1687 -0.5242  0.5849
  179SLPC   C1320318   0.415   5.936   4.226  0.3004 -0.0464  0.0436
  179SLPC  H13A20319   0.351   5.998   4.165  1.4801  0.9455 -0.2262
  179SLPC  H13B20320   0.445   5.850   4.167 -1.6307 -0.0947 -0.9344
  179SLPC  H13C20321   0.369   5.900   4.316  0.4702 -1.8861 -0.5670
  179SLPC   C1420322   0.650   6.014   4.187  0.0723 -0.4616  0.4966
  179SLPC  H14A20323   0.613   6.058   4.095  0.9096  0.1464  0.4408
  179SLPC  H14B20324   0.740   6.065   4.219 -0.5498  1.5990 -0.8117
  179SLPC  H14C20325   0.664   5.910   4.163 -1.0501 -0.2867 -1.0409
  179SLPC   C1520326   0.580   5.946   4.397 -0.2859  0.0559 -0.3374
  179SLPC  H15A20327   0.679   5.982   4.423  0.4054 -0.6064 -1.9548
  179SLPC  H15B20328   0.525   5.964   4.488 -1.2915 -0.2147 -0.8830
  179SLPC  H15C20329   0.595   5.841   4.379  2.9053  0.1199  1.2157
  179SLPC   C1220330   0.488   6.162   4.303 -0.2546 -0.4063  0.0082
  179SLPC  H12A20331   0.424   6.164   4.390 -2.3284  0.9952 -1.4351
  179SLPC  H12B20332   0.414   6.194   4.230  1.3667  0.5075 -1.2994
  179SLPC   C1120333   0.598   6.270   4.318 -0.4109 -0.3300  0.2233
  179SLPC  H11A20334   0.674   6.236   4.391 -0.3197  1.1207  0.8347
  179SLPC  H11B20335   0.549   6.359   4.363 -3.0742 -1.5735 -0.0548
  179SLPC     P20336   0.612   6.397   4.087 -0.1242 -0.1687  0.2292
  179SLPC   O1320337   0.704   6.419   3.972  0.0545 -0.1426  0.1146
  179SLPC   O1420338   0.478   6.346   4.058 -0.5464  0.1063  0.6570
  179SLPC   O1220339   0.675   6.306   4.197  0.4188  0.1396  0.1647
  179SLPC   O1120340   0.599   6.543   4.143 -0.1380  0.3145  0.3110
  179SLPC    C120341   0.702   6.627   4.181  0.6288  0.2468 -0.5220
  179SLPC    HA20342   0.799   6.586   4.146  0.1469 -1.0279 -0.4111
  179SLPC    HB20343   0.689   6.726   4.131 -1.1887  1.4149  2.0409
  179SLPC    C220344   0.711   6.645   4.334 -0.0641  0.9654  0.3699
  179SLPC    HS20345   0.782   6.729   4.347  1.3496 -0.1759  0.3499
  179SLPC   O2120346   0.756   6.521   4.398  0.0357  0.6041 -0.2094
  179SLPC   C2120347   0.827   6.531   4.508  0.8093 -0.3385  0.1358
  179SLPC   O2220348   0.864   6.633   4.562  0.4263  0.0119 -0.0835
  179SLPC   C2220349   0.852   6.394   4.566 -0.0365 -0.1596 -0.0529
  179SLPC   H2R20350   0.751   6.351   4.584 -0.1392 -0.3964 -1.1343
  179SLPC   H2S20351   0.898   6.332   4.486  1.4056  0.2800  0.3977
  179SLPC    C320352   0.575   6.690   4.392  0.2892  0.0116 -0.3428
  179SLPC    HX20353   0.506   6.603   4.385 -0.7793  0.9180 -1.5121
  179SLPC    HY20354   0.529   6.759   4.318 -2.7502 -3.3342 -1.8732
  179SLPC   O3120355   0.588   6.752   4.513  0.6267  0.3834 -0.1946
  179SLPC   C3120356   0.523   6.699   4.617 -0.2135 -0.9433 -1.0163
  179SLPC   O3220357   0.471   6.592   4.621  0.7599  0.5759  0.5336
  179SLPC   C3220358   0.531   6.801   4.729 -0.0067 -0.1965  0.2905
  179SLPC   H2X20359   0.433   6.854   4.734  0.6289  1.0670 -0.1574
  179SLPC   H2Y20360   0.618   6.868   4.712  0.4525 -0.6202  0.9453
  179SLPC   C2320361   0.931   6.391   4.701  0.3048  0.3340 -0.0145
  179SLPC   H3R20362   1.029   6.444   4.694  1.4739 -1.7777 -0.4979
  179SLPC   H3S20363   0.953   6.286   4.730  0.8004 -0.7322 -3.7249
  179SLPC   C2420364   0.851   6.451   4.827 -0.4047  0.1238 -0.2586
  179SLPC   H4R20365   0.743   6.434   4.805 -0.7455 -1.0417  2.0686
  179SLPC   H4S20366   0.870   6.560   4.842 -3.6362  0.5109  2.0406
  179SLPC   C2520367   0.881   6.383   4.956 -0.5304 -0.1974  0.2193
  179SLPC   H5R20368   0.851   6.278   4.938 -2.3999  0.6004 -1.9210
  179SLPC   H5S20369   0.821   6.426   5.039 -2.9080  0.5623 -1.7497
  179SLPC   C2620370   1.028   6.400   5.005 -0.1700 -0.1299 -0.0623
  179SLPC   H6R20371   1.031   6.509   5.027  1.1889  0.3526 -2.3220
  179SLPC   H6S20372   1.099   6.397   4.919  1.2242  2.1572  0.9157
  179SLPC   C2720373   1.090   6.311   5.109  0.1607 -0.6673 -0.4232
  179SLPC   H7R20374   1.190   6.352   5.132  0.2998 -0.2563 -1.6975
  179SLPC   H7S20375   1.111   6.210   5.068  0.4113 -1.1703  0.8827
  179SLPC   C2820376   0.993   6.299   5.234  0.5172 -0.3269 -0.0388
  179SLPC   H8R20377   0.900   6.248   5.201  1.4259 -3.3669  1.7684
  179SLPC   H8S20378   0.964   6.402   5.264  1.6698  0.0307 -0.0962
  179SLPC   C2920379   1.061   6.222   5.345  0.6144 -0.7187 -0.0125
  179SLPC   H9R20380   1.097   6.124   5.307  0.2114 -0.9248  0.1341
  179SLPC  C21020381   1.063   6.259   5.473  0.1808 -0.0395 -0.2050
  179SLPC  H10R20382   1.112   6.202   5.554  0.7339  1.8450  0.8660
  179SLPC  C21120383   0.991   6.377   5.530 -0.9488 -0.4335 -0.0695
  179SLPC  H11R20384   0.921   6.426   5.459  0.2731 -0.0452 -1.0522
  179SLPC  H11S20385   1.071   6.447   5.562  1.6774 -2.3980 -1.9413
  179SLPC  C21220386   0.910   6.342   5.657  0.4297 -0.1145  0.5263
  179SLPC  H12R20387   0.815   6.292   5.631  1.4300 -2.5270  1.1995
  179SLPC  C21320388   0.939   6.355   5.789 -0.0491 -0.6826  0.1331
  179SLPC  H13R20389   0.855   6.348   5.859 -0.3138  1.1007  0.0389
  179SLPC  C21420390   1.071   6.397   5.852 -0.0376  0.4352 -0.0572
  179SLPC  H14R20391   1.064   6.484   5.921  3.1704 -1.3570  2.8207
  179SLPC  H14S20392   1.150   6.423   5.779  0.8221 -0.1374  0.6594
  179SLPC  C21520393   1.143   6.282   5.929  0.6574  0.0482 -0.0738
  179SLPC  H15R20394   1.240   6.316   5.969 -0.5880  0.4440  2.8601
  179SLPC  H15S20395   1.164   6.203   5.854  2.7354  0.8120 -0.3599
  179SLPC  C21620396   1.057   6.222   6.043  0.0789  0.0195 -0.0009
  179SLPC  H16R20397   0.975   6.156   6.008 -0.8015  1.8350 -1.5193
  179SLPC  H16S20398   1.008   6.310   6.091  0.0493 -1.4198  2.8484
  179SLPC  C21720399   1.133   6.155   6.156 -0.6446 -0.0853 -0.2365
  179SLPC  H17R20400   1.200   6.228   6.205 -0.5687  0.8040 -1.6240
  179SLPC  H17S20401   1.184   6.066   6.114 -2.1704 -1.2279  0.2175
  179SLPC  C21820402   1.047   6.106   6.271 -0.1181 -0.8775 -0.5445
  179SLPC  H18R20403   1.103   6.047   6.345 -0.9757  0.8028  1.5484
  179SLPC  H18S20404   0.977   6.031   6.229  2.0178 -2.2136 -1.8994
  179SLPC  H18T20405   0.975   6.179   6.315  0.5565 -0.7102  0.2839
  179SLPC   C3320406   0.564   6.733   4.866 -0.3792  0.1811 -0.7428
  179SLPC   H3X20407   0.672   6.707   4.856 -0.1940  0.7196 -0.1849
  179SLPC   H3Y20408   0.513   6.636   4.883  0.3265 -0.0998 -0.1541
  179SLPC   C3420409   0.525   6.819   4.984  0.4951 -0.1332  0.4921
  179SLPC   H4X20410   0.414   6.819   4.976  0.4686  0.8714  0.7018
  179SLPC   H4Y20411   0.557   6.924   4.968  1.6482 -0.7041 -1.3289
  179SLPC   C3520412   0.577   6.784   5.119 -0.3227 -0.0093 -0.1725
  179SLPC   H5X20413   0.530   6.852   5.193  1.0401  1.2355 -0.3941
  179SLPC   H5Y20414   0.528   6.686   5.136 -0.1719 -0.0582 -0.0058
  179SLPC   C3620415   0.728   6.788   5.135  0.2362  0.0628  0.4979
  179SLPC   H6X20416   0.763   6.893   5.147 -0.2273  0.0404  2.2830
  179SLPC   H6Y20417   0.773   6.740   5.045 -1.2394 -1.7337  0.6544
  179SLPC   C3720418   0.774   6.710   5.260  0.4052 -0.7699  0.1547
  179SLPC   H7X20419   0.884   6.696   5.268  0.8474  2.4703  1.3900
  179SLPC   H7Y20420   0.724   6.611   5.262 -2.3501  0.4744 -1.3917
  179SLPC   C3820421   0.735   6.770   5.392  0.1298  0.0054 -0.8737
  179SLPC   H8X20422   0.635   6.730   5.419  0.4835 -1.7971 -2.0094
  179SLPC   H8Y20423   0.710   6.878   5.379 -0.8829 -0.1279 -0.1390
  179SLPC   C3920424   0.837   6.773   5.502 -0.5096  0.1945 -0.3379
  179SLPC   H9X20425   0.916   6.846   5.476  1.0228 -0.8199  1.2344
  179SLPC   H9Y20426   0.888   6.678   5.475 -0.2315  0.6225 -1.3884
  179SLPC  C31020427   0.798   6.778   5.646 -0.6592  0.1952  0.6942
  179SLPC  H10X20428   0.728   6.698   5.678 -1.7393  1.2460  1.0714
  179SLPC  H10Y20429   0.741   6.870   5.673 -1.8361 -0.3813  0.2496
  179SLPC  C31120430   0.927   6.768   5.744 -0.0467 -0.4935  0.7152
  179SLPC  H11X20431   0.975   6.867   5.729 -1.7776  0.0964 -1.4838
  179SLPC  H11Y20432   0.988   6.690   5.694  1.5188  0.4383  1.1005
  179SLPC  C31220433   0.892   6.732   5.888 -0.4555  0.4661 -0.3711
  179SLPC  H12X20434   0.986   6.698   5.937 -3.2117 -1.2492  4.4458
  179SLPC  H12Y20435   0.833   6.638   5.888 -0.6435  0.5749  0.4537
  179SLPC  C31320436   0.829   6.838   5.970  0.3762 -0.1976 -0.1651
  179SLPC  H13X20437   0.734   6.866   5.920  0.3607  0.6727  0.3162
  179SLPC  H13Y20438   0.892   6.929   5.972  2.0408 -1.2886 -1.1702
  179SLPC  C31420439   0.806   6.786   6.115  0.4483 -0.8182 -0.6618
  179SLPC  H14X20440   0.906   6.760   6.157  1.1578  4.1611  1.3286
  179SLPC  H14Y20441   0.748   6.691   6.110 -1.0073  0.0976 -2.0219
  179SLPC  C31520442   0.744   6.894   6.209 -0.1103 -0.4449  0.0127
  179SLPC  H15X20443   0.634   6.878   6.217 -0.0477 -0.0399  2.6235
  179SLPC  H15Y20444   0.778   6.999   6.194 -0.0244 -0.2291  1.5133
  179SLPC  C31620445   0.790   6.861   6.351  1.0274  0.0348 -0.3763
  179SLPC  H16X20446   0.898   6.888   6.360  0.9020  0.7480 -0.9295
  179SLPC  H16Y20447   0.770   6.752   6.364 -0.3443  0.2987 -0.1608
  179SLPC  C31720448   0.711   6.949   6.449  0.1977  0.3704  0.5656
  179SLPC  H17X20449   0.706   6.909   6.552 -1.4768  0.5499  0.5787
  179SLPC  H17Y20450   0.605   6.947   6.416  1.3882 -1.2294 -3.8928
  179SLPC  C31820451   0.745   7.097   6.449  0.0732  0.5168 -0.7009
  179SLPC  H18X20452   0.685   7.155   6.376  0.2816  1.1918 -0.3435
  179SLPC  H18Y20453   0.853   7.119   6.435 -0.3579  2.2078 -1.6037
  179SLPC  H18Z20454   0.720   7.123   6.554 -2.6756 -2.2868 -0.5057
  180SLPC     N20455   5.172   4.780   4.479 -0.4061  0.5588 -0.0846
  180SLPC   C1320456   5.225   4.687   4.584 -0.3100  0.7231  0.5441
  180SLPC  H13A20457   5.190   4.585   4.570  1.4583  0.3075 -1.4211
  180SLPC  H13B20458   5.330   4.663   4.588 -0.6729 -0.8734  1.2503
  180SLPC  H13C20459   5.194   4.720   4.682  0.4139  0.8321  0.7407
  180SLPC   C1420460   5.031   4.743   4.461 -0.2163 -0.5044 -0.7917
  180SLPC  H14A20461   4.977   4.793   4.541  0.5848 -1.5832  0.4570
  180SLPC  H14B20462   5.000   4.784   4.366 -1.6254 -0.1363 -0.2015
  180SLPC  H14C20463   5.016   4.636   4.458  0.1602 -0.5461 -1.3231
  180SLPC   C1520464   5.244   4.750   4.351 -0.2894 -1.1849 -0.2452
  180SLPC  H15A20465   5.212   4.650   4.326 -2.3816 -2.0891  4.9636
  180SLPC  H15B20466   5.229   4.824   4.273  0.3163 -0.8970 -0.0982
  180SLPC  H15C20467   5.352   4.752   4.359 -0.3305 -1.7968  0.5573
  180SLPC   C1220468   5.194   4.922   4.502  0.2727 -0.0541  0.1478
  180SLPC  H12A20469   5.149   4.993   4.434  1.7487  0.5990 -0.1916
  180SLPC  H12B20470   5.297   4.950   4.485  0.2476 -0.6530 -1.0884
  180SLPC   C1120471   5.146   4.988   4.636 -0.4473  0.4966 -0.0515
  180SLPC  H11A20472   5.191   5.088   4.653 -0.3050  0.1815  1.6337
  180SLPC  H11B20473   5.185   4.924   4.718 -2.0370 -2.3066 -1.3272
  180SLPC     P20474   4.921   5.103   4.564 -0.0810  0.2346  0.3484
  180SLPC   O1320475   4.982   5.131   4.432  0.1874 -0.2035  0.5232
  180SLPC   O1420476   4.780   5.064   4.562 -0.2353  0.1159  0.5991
  180SLPC   O1220477   5.001   4.988   4.639 -0.5586 -0.5630  0.2863
  180SLPC   O1120478   4.936   5.233   4.650 -0.5464  0.3381 -0.2469
  180SLPC    C120479   4.952   5.238   4.790  0.5338  0.3153 -0.3682
  180SLPC    HA20480   5.040   5.178   4.821  0.2585 -0.1467 -0.4664
  180SLPC    HB20481   4.979   5.341   4.820 -0.3094  1.2933 -2.7131
  180SLPC    C220482   4.841   5.187   4.883  1.2151  0.3364  0.0133
  180SLPC    HS20483   4.817   5.086   4.842 -0.7522  0.8458 -0.1402
  180SLPC   O2120484   4.728   5.276   4.864 -0.1876  0.2050 -0.3324
  180SLPC   C2120485   4.604   5.231   4.891 -0.0273  0.7644 -0.0962
  180SLPC   O2220486   4.570   5.113   4.911  0.3816  0.0567  0.3518
  180SLPC   C2220487   4.515   5.359   4.898 -0.7126  0.2913  0.3368
  180SLPC   H2R20488   4.583   5.436   4.940 -0.1079 -1.4506  2.8120
  180SLPC   H2S20489   4.487   5.379   4.793 -2.1748 -0.1123  0.6268
  180SLPC    C320490   4.882   5.183   5.032  0.4003 -0.3523 -0.1203
  180SLPC    HX20491   4.891   5.287   5.069 -0.7751 -0.2966  0.0440
  180SLPC    HY20492   4.986   5.144   5.034 -0.2929 -2.5682 -2.2340
  180SLPC   O3120493   4.787   5.121   5.126  0.0202 -0.3949  0.1087
  180SLPC   C3120494   4.780   4.990   5.115 -0.5308  0.0977 -0.3165
  180SLPC   O3220495   4.840   4.920   5.032  0.3774  0.0804  0.1453
  180SLPC   C3220496   4.693   4.932   5.228 -0.0368 -0.1274 -0.1552
  180SLPC   H2X20497   4.617   4.868   5.176  2.1244 -1.8335 -1.3982
  180SLPC   H2Y20498   4.630   5.018   5.259  1.5696  1.3861 -0.9942
  180SLPC   C2320499   4.385   5.352   4.984 -0.2326  0.3392 -0.5457
  180SLPC   H3R20500   4.327   5.261   4.958 -0.0687 -1.3802  4.1003
  180SLPC   H3S20501   4.329   5.445   4.961 -1.1229  0.6822  2.5580
  180SLPC   C2420502   4.419   5.334   5.131  0.0485 -0.2547  0.3061
  180SLPC   H4R20503   4.462   5.429   5.170 -0.4202  0.0989 -0.0189
  180SLPC   H4S20504   4.507   5.268   5.145 -0.5430 -1.3767 -1.0532
  180SLPC   C2520505   4.298   5.286   5.219  0.4462 -0.3638 -0.4881
  180SLPC   H5R20506   4.272   5.184   5.183  0.1876 -1.0716  1.5980
  180SLPC   H5S20507   4.213   5.355   5.198  0.3837 -0.5674 -0.9217
  180SLPC   C2620508   4.331   5.279   5.368  0.3720  0.6476 -0.0849
  180SLPC   H6R20509   4.359   5.379   5.406  2.1237  0.1790 -0.0607
  180SLPC   H6S20510   4.419   5.212   5.377  0.6905  0.8661 -1.3483
  180SLPC   C2720511   4.214   5.208   5.441 -0.5234  0.3281 -0.1901
  180SLPC   H7R20512   4.188   5.102   5.418  1.1873 -0.2531  0.4452
  180SLPC   H7S20513   4.120   5.266   5.428 -0.4296  1.0566  2.0559
  180SLPC   C2820514   4.240   5.195   5.592 -0.3436 -0.2174  0.2879
  180SLPC   H8R20515   4.342   5.152   5.599  0.8977  2.6436  0.9282
  180SLPC   H8S20516   4.149   5.139   5.624 -1.6145  2.2130  1.2167
  180SLPC   C2920517   4.248   5.325   5.668  0.0082  0.5393 -0.0704
  180SLPC   H9R20518   4.334   5.391   5.646 -1.4411  3.5216  2.3826
  180SLPC  C21020519   4.156   5.359   5.755  0.3505  0.1054 -0.5394
  180SLPC  H10R20520   4.157   5.455   5.809  0.2223 -0.1597 -0.0663
  180SLPC  C21120521   4.027   5.285   5.798  0.1268  0.4640 -0.1618
  180SLPC  H11R20522   4.058   5.195   5.855 -1.8481  0.7614  1.4826
  180SLPC  H11S20523   3.978   5.230   5.715  1.8994 -1.2102 -0.1619
  180SLPC  C21220524   3.915   5.353   5.882 -0.4264 -0.2263  0.7587
  180SLPC  H12R20525   3.894   5.455   5.845  0.2143 -0.5103 -0.4273
  180SLPC  C21320526   3.868   5.315   5.999  0.1110 -0.2308 -0.4815
  180SLPC  H13R20527   3.790   5.372   6.052  2.4197 -0.1671  3.1323
  180SLPC  C21420528   3.879   5.183   6.056  1.5485 -0.1359  0.3177
  180SLPC  H14R20529   3.916   5.191   6.161 -0.4033  1.9017  0.9365
  180SLPC  H14S20530   3.944   5.109   6.005  0.2175 -0.1856 -1.3728
  180SLPC  C21520531   3.735   5.121   6.069 -0.0590  0.7083 -0.2829
  180SLPC  H15R20532   3.696   5.081   5.973 -2.1860  1.1197  0.3561
  180SLPC  H15S20533   3.666   5.196   6.113 -0.0267 -1.1546  3.3015
  180SLPC  C21620534   3.743   5.001   6.170  0.3391  0.3280  0.1634
  180SLPC  H16R20535   3.848   5.000   6.207  1.8479  0.7881 -3.6164
  180SLPC  H16S20536   3.738   4.909   6.109  0.4657 -0.2476  0.9951
  180SLPC  C21720537   3.635   5.007   6.276 -0.1390  0.2644  0.1780
  180SLPC  H17R20538   3.545   5.013   6.211  0.2236  0.3448 -0.3250
  180SLPC  H17S20539   3.659   5.100   6.331  0.8257  0.1489 -0.0302
  180SLPC  C21820540   3.634   4.880   6.365 -0.0903  0.1083  0.0830
  180SLPC  H18R20541   3.742   4.880   6.393  0.3738 -1.7769 -1.5430
  180SLPC  H18S20542   3.605   4.792   6.304 -1.4214  1.3858 -1.2086
  180SLPC  H18T20543   3.567   4.880   6.454  1.4447  1.3577  1.3001
  180SLPC   C3320544   4.772   4.849   5.330  0.2091  0.3335 -0.0605
  180SLPC   H3X20545   4.854   4.916   5.364  0.3467  0.8278 -1.3085
  180SLPC   H3Y20546   4.803   4.756   5.279 -3.9317 -1.4908  0.3685
  180SLPC   C3420547   4.703   4.814   5.468  0.6489 -0.1017  0.4308
  180SLPC   H4X20548   4.610   4.758   5.442  0.3484 -0.1705  1.5828
  180SLPC   H4Y20549   4.685   4.907   5.526  3.2452  0.7988 -0.0960
  180SLPC   C3520550   4.800   4.737   5.558  0.0739  0.4647  0.0831
  180SLPC   H5X20551   4.896   4.793   5.560 -1.2083  2.7659 -0.1092
  180SLPC   H5Y20552   4.833   4.635   5.528  1.5092  0.7073  0.7281
  180SLPC   C3620553   4.744   4.726   5.694  0.7490 -0.2040 -0.1656
  180SLPC   H6X20554   4.683   4.634   5.699  1.9693 -1.0037  0.6402
  180SLPC   H6Y20555   4.677   4.812   5.716  0.5741 -0.4825  0.4028
  180SLPC   C3720556   4.853   4.726   5.808  0.9898  0.0339 -0.9081
  180SLPC   H7X20557   4.877   4.833   5.821 -0.6155  0.4691 -1.2519
  180SLPC   H7Y20558   4.949   4.678   5.779  1.5913 -2.3143  3.9774
  180SLPC   C3820559   4.806   4.661   5.935  0.4038  0.6294 -0.4608
  180SLPC   H8X20560   4.697   4.675   5.953  0.0138 -1.3273 -1.0582
  180SLPC   H8Y20561   4.862   4.699   6.023 -1.1359 -0.0865  0.8781
  180SLPC   C3920562   4.814   4.507   5.934 -0.4090  0.6230 -0.1429
  180SLPC   H9X20563   4.920   4.481   5.918 -0.5442  0.6140 -1.1161
  180SLPC   H9Y20564   4.764   4.458   5.847 -0.4906 -1.5981  1.0948
  180SLPC  C31020565   4.767   4.439   6.068  0.6265  0.4252  0.6005
  180SLPC  H10X20566   4.763   4.328   6.062 -0.9206  0.5375 -2.5329
  180SLPC  H10Y20567   4.666   4.477   6.094 -0.3767 -0.5824 -1.5417
  180SLPC  C31120568   4.847   4.470   6.196 -0.0790 -0.4935  0.9927
  180SLPC  H11X20569   4.891   4.571   6.191 -1.0430 -0.1257 -2.5312
  180SLPC  H11Y20570   4.928   4.394   6.201 -0.5904 -1.2968 -1.4435
  180SLPC  C31220571   4.760   4.459   6.321  0.3026  0.8559 -0.2053
  180SLPC  H12X20572   4.704   4.363   6.315  0.4127  0.8365 -1.1137
  180SLPC  H12Y20573   4.690   4.545   6.315  0.1028  0.5912 -3.5180
  180SLPC  C31320574   4.835   4.450   6.452 -1.0282 -0.2425  0.2350
  180SLPC  H13X20575   4.895   4.543   6.460 -3.3578  1.2767  1.3241
  180SLPC  H13Y20576   4.894   4.356   6.445 -0.3991  0.2851 -2.6958
  180SLPC  C31420577   4.738   4.432   6.568  0.0738  0.3656 -0.5505
  180SLPC  H14X20578   4.801   4.425   6.659 -0.3671 -1.0117 -0.3345
  180SLPC  H14Y20579   4.673   4.343   6.554 -2.6610  2.1926 -0.2626
  180SLPC  C31520580   4.651   4.557   6.599 -0.1458  0.1941  0.3209
  180SLPC  H15X20581   4.573   4.520   6.670 -1.8396  0.9846 -1.0540
  180SLPC  H15Y20582   4.602   4.593   6.506  0.7737  0.5064 -0.0557
  180SLPC  C31620583   4.722   4.677   6.669  0.1159 -0.1524  0.1381
  180SLPC  H16X20584   4.806   4.705   6.602  0.0029 -0.6993 -0.2330
  180SLPC  H16Y20585   4.776   4.637   6.758 -1.1678 -0.7368  0.6781
  180SLPC  C31720586   4.620   4.793   6.690 -0.1222 -0.1440 -0.5298
  180SLPC  H17X20587   4.573   4.822   6.594 -2.5569  0.4339  0.7617
  180SLPC  H17Y20588   4.684   4.876   6.728 -1.1412 -0.2043  1.4310
  180SLPC  C31820589   4.507   4.764   6.785  0.5271 -0.0796 -0.2233
  180SLPC  H18X20590   4.452   4.673   6.755 -0.6693  1.2001 -2.0624
  180SLPC  H18Y20591   4.436   4.849   6.784 -0.5394 -0.8348  2.2049
  180SLPC  H18Z20592   4.544   4.747   6.889 -1.3602  0.5801  0.5860
  181SLPC     N20593   4.262   4.658   4.615  0.0033 -0.2352  0.1445
  181SLPC   C1320594   4.136   4.627   4.543 -0.2571  0.4821  0.2600
  181SLPC  H13A20595   4.105   4.531   4.582 -1.3748  0.1572 -1.3353
  181SLPC  H13B20596   4.062   4.702   4.569 -1.0284 -0.4205  0.7677
  181SLPC  H13C20597   4.147   4.632   4.436 -0.4098 -0.9256  0.1618
  181SLPC   C1420598   4.309   4.790   4.571 -0.4545 -0.2911 -0.2151
  181SLPC  H14A20599   4.359   4.783   4.476  2.2859 -2.0221  1.2122
  181SLPC  H14B20600   4.229   4.862   4.563 -0.8735 -0.8969 -2.0841
  181SLPC  H14C20601   4.392   4.820   4.633 -0.2215 -0.4747 -0.4337
  181SLPC   C1520602   4.370   4.561   4.581  0.3350 -0.1114 -0.8603
  181SLPC  H15A20603   4.393   4.547   4.477 -1.3222  0.9123 -1.4034
  181SLPC  H15B20604   4.457   4.585   4.639  0.0360 -3.0937  1.0714
  181SLPC  H15C20605   4.335   4.467   4.622 -0.7056  0.9111  0.6831
  181SLPC   C1220606   4.238   4.668   4.769 -0.1601 -0.0552 -0.0907
  181SLPC  H12A20607   4.149   4.728   4.781  0.8748  1.4798  0.1563
  181SLPC  H12B20608   4.320   4.721   4.814 -0.1925  0.0902 -0.2041
  181SLPC   C1120609   4.208   4.542   4.852 -0.0298 -0.3729 -0.0897
  181SLPC  H11A20610   4.172   4.566   4.955  0.7393 -1.5612  0.4756
  181SLPC  H11B20611   4.303   4.488   4.869 -2.0162 -3.9134  0.8179
  181SLPC     P20612   4.054   4.331   4.840  0.1168  0.0474 -0.2773
  181SLPC   O1320613   3.928   4.289   4.777  0.2847  0.1096 -0.6953
  181SLPC   O1420614   4.167   4.237   4.829  0.2967  0.1449  0.2898
  181SLPC   O1220615   4.105   4.470   4.788  0.2714 -0.6532  0.0785
  181SLPC   O1120616   4.031   4.369   4.992  0.0015  0.6182 -0.3511
  181SLPC    C120617   3.903   4.408   5.034 -0.3578 -0.2602 -0.2521
  181SLPC    HA20618   3.882   4.506   4.985  2.7785  1.5701  1.7001
  181SLPC    HB20619   3.828   4.335   4.998  1.7103 -1.3546 -2.6191
  181SLPC    C220620   3.890   4.418   5.191 -0.0301 -1.1546  0.3914
  181SLPC    HS20621   3.823   4.340   5.233  0.3958  0.0908  3.7070
  181SLPC   O2120622   3.850   4.550   5.232 -0.2664 -0.3849 -0.1215
  181SLPC   C2120623   3.724   4.584   5.205 -0.5986  0.7190 -0.1301
  181SLPC   O2220624   3.640   4.525   5.138 -0.4423 -0.3509 -0.1142
  181SLPC   C2220625   3.713   4.721   5.265 -0.3136 -0.6780  0.6524
  181SLPC   H2R20626   3.812   4.772   5.265  0.3615 -1.9584  0.2422
  181SLPC   H2S20627   3.648   4.776   5.194  1.9459  0.8990 -0.3178
  181SLPC    C320628   4.023   4.392   5.266 -0.0859  0.0039  0.4106
  181SLPC    HX20629   4.083   4.480   5.232 -1.7776  0.4599 -1.5469
  181SLPC    HY20630   4.072   4.300   5.227 -0.3999 -0.2076  0.5190
  181SLPC   O3120631   4.007   4.404   5.406  0.0998 -0.3036  0.2743
  181SLPC   C3120632   3.961   4.292   5.470  0.2090  0.4979  0.1527
  181SLPC   O3220633   3.945   4.185   5.411 -0.3433  0.1500 -0.6195
  181SLPC   C3220634   3.940   4.301   5.616  0.2400  0.0640 -0.1233
  181SLPC   H2X20635   3.870   4.382   5.643  1.2429  0.2379  2.1125
  181SLPC   H2Y20636   4.038   4.338   5.653 -1.1445  2.3318  1.5407
  181SLPC   C2320637   3.671   4.721   5.412 -0.3625 -0.1324  0.5005
  181SLPC   H3R20638   3.593   4.642   5.414 -0.0438 -0.4533  0.3611
  181SLPC   H3S20639   3.626   4.820   5.435 -0.6038 -0.4072  1.2320
  181SLPC   C2420640   3.776   4.682   5.510  0.2186  0.0333 -0.4299
  181SLPC   H4R20641   3.859   4.754   5.494  0.4934 -0.4861 -1.4159
  181SLPC   H4S20642   3.828   4.589   5.478  2.2807  0.9565  0.0849
  181SLPC   C2520643   3.723   4.674   5.658  0.2219  0.1409 -0.1660
  181SLPC   H5R20644   3.624   4.626   5.671  0.0760 -0.0395 -1.7147
  181SLPC   H5S20645   3.704   4.779   5.689  1.4168 -0.5234  3.1347
  181SLPC   C2620646   3.832   4.615   5.754 -0.3182  0.3476  0.0135
  181SLPC   H6R20647   3.925   4.592   5.699 -0.8534 -2.2323  0.0818
  181SLPC   H6S20648   3.792   4.515   5.778 -2.6050  0.7873 -1.6146
  181SLPC   C2720649   3.847   4.691   5.889 -0.0500 -0.3819  0.3438
  181SLPC   H7R20650   3.748   4.702   5.938 -0.0784  1.0267  0.0055
  181SLPC   H7S20651   3.893   4.790   5.869  0.5053 -0.9247 -1.1802
  181SLPC   C2820652   3.936   4.624   5.991 -0.3158 -0.4099  0.7337
  181SLPC   H8R20653   4.039   4.628   5.949 -0.6368  0.1092 -0.0322
  181SLPC   H8S20654   3.904   4.518   6.004 -0.4421 -0.5140 -0.3365
  181SLPC   C2920655   3.960   4.700   6.120 -0.4006  0.5408  0.0940
  181SLPC   H9R20656   4.008   4.797   6.101  0.7684 -0.5105 -3.0564
  181SLPC  C21020657   3.942   4.645   6.242 -0.0268  0.2467  0.3264
  181SLPC  H10R20658   3.959   4.709   6.330  2.2554 -0.6145  0.5743
  181SLPC  C21120659   3.894   4.503   6.280 -0.1728 -0.2648  0.6431
  181SLPC  H11R20660   3.938   4.468   6.376 -0.6513 -1.9368  0.2770
  181SLPC  H11S20661   3.929   4.436   6.199  1.7736 -0.5858  1.6730
  181SLPC  C21220662   3.746   4.527   6.284 -0.5791  0.1988 -0.1927
  181SLPC  H12R20663   3.690   4.503   6.193 -0.2033  0.4597 -0.4923
  181SLPC  C21320664   3.675   4.552   6.396  0.2306 -0.1423 -0.0089
  181SLPC  H13R20665   3.568   4.569   6.377  0.8534  1.7333 -2.3771
  181SLPC  C21420666   3.714   4.580   6.536  0.2603 -0.2381 -0.4363
  181SLPC  H14R20667   3.694   4.688   6.553  0.7264 -0.2138 -0.0314
  181SLPC  H14S20668   3.820   4.554   6.552 -0.0801 -1.3088  0.2029
  181SLPC  C21520669   3.615   4.496   6.621  0.7994 -0.1932  0.1953
  181SLPC  H15R20670   3.618   4.388   6.596 -0.3129 -0.3730  0.8160
  181SLPC  H15S20671   3.512   4.532   6.604  0.8122 -0.6552 -0.9693
  181SLPC  C21620672   3.648   4.511   6.773 -1.1801 -0.2869  0.3525
  181SLPC  H16R20673   3.648   4.617   6.807  0.8648 -0.4781  1.1116
  181SLPC  H16S20674   3.750   4.474   6.798 -0.2392  1.6140 -0.4208
  181SLPC  C21720675   3.565   4.419   6.864 -0.1074 -0.3777  0.2297
  181SLPC  H17R20676   3.560   4.313   6.831 -1.3677 -0.8199  1.6632
  181SLPC  H17S20677   3.460   4.457   6.858 -0.5605 -1.3512  1.4890
  181SLPC  C21820678   3.623   4.430   7.004 -0.2236  0.8546  0.1370
  181SLPC  H18R20679   3.728   4.395   7.008 -0.2681  0.6785 -0.2358
  181SLPC  H18S20680   3.570   4.360   7.073  0.6747  0.2299  0.2115
  181SLPC  H18T20681   3.607   4.533   7.042  0.9172  1.2146 -0.3223
  181SLPC   C3320682   3.901   4.170   5.691 -0.2981 -0.5649 -0.8053
  181SLPC   H3X20683   3.977   4.094   5.663 -1.2522 -1.6991 -0.3839
  181SLPC   H3Y20684   3.803   4.151   5.641 -1.8684  3.8245  0.1268
  181SLPC   C3420685   3.878   4.202   5.842 -0.5765  0.4631  0.7164
  181SLPC   H4X20686   3.809   4.289   5.838 -1.0829  0.0439 -1.5688
  181SLPC   H4Y20687   3.975   4.228   5.889 -1.6697  0.9484  2.7943
  181SLPC   C3520688   3.829   4.085   5.934  0.1329  0.3301 -0.1500
  181SLPC   H5X20689   3.892   3.995   5.922  1.3411  1.1973 -0.5096
  181SLPC   H5Y20690   3.733   4.051   5.890 -0.2502 -0.2315  1.0650
  181SLPC   C3620691   3.819   4.131   6.080 -0.2929  0.0940 -0.4721
  181SLPC   H6X20692   3.779   4.235   6.080  0.4445  0.4308  1.6486
  181SLPC   H6Y20693   3.921   4.138   6.121 -0.8380 -0.1724  0.9772
  181SLPC   C3720694   3.738   4.038   6.176  0.3826 -0.3197  0.2022
  181SLPC   H7X20695   3.810   3.957   6.201  1.8428  1.2067  1.1126
  181SLPC   H7Y20696   3.651   4.006   6.114  0.2644  0.7326 -0.1837
  181SLPC   C3820697   3.678   4.099   6.304 -0.3229  0.0162 -0.2273
  181SLPC   H8X20698   3.624   4.018   6.358  2.0492 -0.6380  1.3140
  181SLPC   H8Y20699   3.608   4.180   6.275  1.8193  2.7014  1.6956
  181SLPC   C3920700   3.770   4.156   6.417 -0.7263  0.4285 -0.3564
  181SLPC   H9X20701   3.713   4.217   6.490  0.0468 -0.5588  1.1271
  181SLPC   H9Y20702   3.839   4.230   6.372 -2.2961  0.3986 -3.0181
  181SLPC  C31020703   3.834   4.049   6.504  0.4024  0.5140 -0.1274
  181SLPC  H10X20704   3.928   4.005   6.464  0.5151 -0.3125  1.0123
  181SLPC  H10Y20705   3.766   3.963   6.515  0.9748  0.3191  2.7614
  181SLPC  C31120706   3.849   4.097   6.651 -0.2682 -0.0365  0.4211
  181SLPC  H11X20707   3.869   4.011   6.718  2.4740 -2.1961 -2.8524
  181SLPC  H11Y20708   3.756   4.144   6.689 -0.7105 -1.4516  1.1389
  181SLPC  C31220709   3.965   4.199   6.664  0.9096 -0.8011  0.2128
  181SLPC  H12X20710   3.985   4.216   6.772 -0.9232 -3.7647  1.1358
  181SLPC  H12Y20711   3.933   4.297   6.622 -0.8854 -2.7867 -3.6413
  181SLPC  C31320712   4.099   4.152   6.611 -0.2668  0.2937 -0.2634
  181SLPC  H13X20713   4.084   4.132   6.502  2.1877  0.1256 -0.6208
  181SLPC  H13Y20714   4.124   4.056   6.660 -0.9505  0.8399  1.2029
  181SLPC  C31420715   4.203   4.256   6.626 -0.4952 -0.4395  0.3206
  181SLPC  H14X20716   4.293   4.216   6.576 -1.5743 -1.2854 -1.0168
  181SLPC  H14Y20717   4.222   4.285   6.732 -1.2993  2.4761 -0.2360
  181SLPC  C31520718   4.176   4.388   6.553  0.2424  0.0486  0.0427
  181SLPC  H15X20719   4.081   4.436   6.586 -0.9006 -1.7280 -0.4978
  181SLPC  H15Y20720   4.160   4.363   6.446 -0.2217 -0.4234  0.2164
  181SLPC  C31620721   4.279   4.495   6.558  0.0946  0.4539  0.6537
  181SLPC  H16X20722   4.380   4.452   6.540 -0.9663 -1.4826 -1.0729
  181SLPC  H16Y20723   4.289   4.542   6.659  2.4757  1.6516 -0.0531
  181SLPC  C31720724   4.245   4.616   6.465  0.4919  0.4771  0.0268
  181SLPC  H17X20725   4.158   4.673   6.503  0.9166  1.5291 -0.5426
  181SLPC  H17Y20726   4.221   4.581   6.362  1.5531 -1.0013  0.2454
  181SLPC  C31820727   4.357   4.717   6.446 -0.2942  0.4745 -0.2666
  181SLPC  H18X20728   4.334   4.790   6.366  0.8517 -0.9290 -1.9416
  181SLPC  H18Y20729   4.447   4.668   6.403  0.3242  0.4474  1.0071
  181SLPC  H18Z20730   4.377   4.771   6.542  0.3897 -0.4081  0.0969
  182SLPC     N20731   3.566   1.939   4.178 -1.3475  0.3603  0.2386
  182SLPC   C1320732   3.564   1.788   4.152 -0.9126 -0.1676 -0.6758
  182SLPC  H13A20733   3.627   1.739   4.225 -0.9966 -2.2733 -1.9435
  182SLPC  H13B20734   3.468   1.742   4.170 -0.7134 -0.8469 -1.3001
  182SLPC  H13C20735   3.603   1.773   4.053  1.5674  0.7692  0.0883
  182SLPC   C1420736   3.477   2.004   4.068  0.5924 -0.6269  0.4086
  182SLPC  H14A20737   3.506   2.106   4.044  0.2289 -0.3660  1.0767
  182SLPC  H14B20738   3.492   1.959   3.971  0.2936  0.6921 -0.2716
  182SLPC  H14C20739   3.374   1.996   4.097  0.7366  1.6440  1.8105
  182SLPC   C1520740   3.711   1.977   4.147 -0.7922 -0.5387  0.7577
  182SLPC  H15A20741   3.714   2.084   4.135 -3.7211 -0.6304 -2.7111
  182SLPC  H15B20742   3.779   1.948   4.225  0.7114 -0.7690 -0.5865
  182SLPC  H15C20743   3.740   1.952   4.046 -0.3697 -0.0396  0.7551
  182SLPC   C1220744   3.532   1.975   4.317  0.3662 -0.7182 -0.2892
  182SLPC  H12A20745   3.433   1.937   4.341 -0.2983  2.1013  2.0030
  182SLPC  H12B20746   3.522   2.083   4.318 -0.5432 -0.7781 -1.5802
  182SLPC   C1120747   3.620   1.924   4.435  0.2034  1.1558  0.0700
  182SLPC  H11A20748   3.605   1.990   4.523  0.3970  1.4576 -0.1204
  182SLPC  H11B20749   3.730   1.926   4.420  0.4031 -1.7990  0.5360
  182SLPC     P20750   3.442   1.739   4.521  0.0927  0.1583  0.0403
  182SLPC   O1320751   3.345   1.844   4.507  0.4644 -0.4340 -0.2572
  182SLPC   O1420752   3.408   1.604   4.472  0.0387 -0.3373  0.0976
  182SLPC   O1220753   3.581   1.784   4.456  0.6456  0.7275  0.0500
  182SLPC   O1120754   3.478   1.734   4.671 -0.2976 -0.5518 -0.5537
  182SLPC    C120755   3.615   1.737   4.706 -0.2914 -0.2786  0.3820
  182SLPC    HA20756   3.687   1.673   4.651  0.7777 -0.7757  2.2661
  182SLPC    HB20757   3.654   1.841   4.701 -2.2279  0.5853  1.8352
  182SLPC    C220758   3.625   1.698   4.856 -0.7260  0.1842  0.3089
  182SLPC    HS20759   3.732   1.706   4.886 -0.2797 -0.0020 -1.1697
  182SLPC   O2120760   3.570   1.570   4.882  0.4040 -0.2645 -0.3638
  182SLPC   C2120761   3.647   1.473   4.844 -0.3735  0.2327 -1.0957
  182SLPC   O2220762   3.762   1.479   4.795 -0.0924 -0.4193 -0.1862
  182SLPC   C2220763   3.564   1.345   4.870 -0.0080 -0.0990 -0.8850
  182SLPC   H2R20764   3.480   1.353   4.943  0.0388 -1.7979 -0.5928
  182SLPC   H2S20765   3.508   1.331   4.775 -1.6038  1.2782 -0.1980
  182SLPC    C320766   3.545   1.798   4.941 -0.2260 -0.2331 -0.8361
  182SLPC    HX20767   3.439   1.779   4.915 -0.1173 -1.4687 -0.4239
  182SLPC    HY20768   3.576   1.902   4.915 -1.4176  0.2830 -0.2734
  182SLPC   O3120769   3.572   1.779   5.081  0.1457 -0.1215 -0.1286
  182SLPC   C3120770   3.466   1.738   5.154  0.5947 -0.4788 -0.0194
  182SLPC   O3220771   3.349   1.745   5.117  0.3338 -0.0408  0.0989
  182SLPC   C3220772   3.510   1.677   5.281  1.0025 -0.0158 -0.6725
  182SLPC   H2X20773   3.524   1.569   5.260  0.8920 -0.0687 -0.4718
  182SLPC   H2Y20774   3.432   1.688   5.359  1.9906  0.4687  0.2821
  182SLPC   C2320775   3.657   1.228   4.905 -0.1762  0.5480  0.2356
  182SLPC   H3R20776   3.735   1.220   4.826 -1.0103 -1.0934 -0.4666
  182SLPC   H3S20777   3.606   1.130   4.893 -0.1117  0.5469 -0.0417
  182SLPC   C2420778   3.719   1.218   5.045 -0.4585  0.1777  0.5552
  182SLPC   H4R20779   3.754   1.320   5.071  2.1105 -0.7863  1.1915
  182SLPC   H4S20780   3.812   1.157   5.044  0.0198  0.9084 -0.3691
  182SLPC   C2520781   3.634   1.159   5.161  0.6703  0.0944 -0.3500
  182SLPC   H5R20782   3.642   1.049   5.147  1.5761  0.2333 -1.0034
  182SLPC   H5S20783   3.529   1.195   5.148  1.2524  1.6326 -0.9800
  182SLPC   C2620784   3.691   1.200   5.298 -0.9191  0.4596  0.4221
  182SLPC   H6R20785   3.681   1.310   5.306  2.3681  0.8002  1.4551
  182SLPC   H6S20786   3.800   1.176   5.292 -1.0769 -0.0543 -0.5059
  182SLPC   C2720787   3.638   1.135   5.428 -0.9933 -0.2153  0.5081
  182SLPC   H7R20788   3.533   1.111   5.399 -1.0865  0.9849 -0.2090
  182SLPC   H7S20789   3.641   1.214   5.506  0.4680 -0.8077  1.0816
  182SLPC   C2820790   3.726   1.023   5.483 -0.0173 -0.0921  0.1210
  182SLPC   H8R20791   3.751   0.949   5.404 -0.1198  0.7312 -0.7036
  182SLPC   H8S20792   3.661   0.960   5.548 -1.0967  0.5068 -0.3545
  182SLPC   C2920793   3.844   1.077   5.570 -0.4964 -0.1976 -0.3158
  182SLPC   H9R20794   3.937   1.085   5.513 -0.6729  0.4487 -0.5243
  182SLPC  C21020795   3.845   1.096   5.705  0.6350 -0.4766  0.3192
  182SLPC  H10R20796   3.934   1.135   5.756 -0.5364  0.4420  1.7066
  182SLPC  C21120797   3.734   1.082   5.805  0.6100 -0.2033 -1.0789
  182SLPC  H11R20798   3.638   1.038   5.769 -0.1104  1.5116 -1.3167
  182SLPC  H11S20799   3.691   1.178   5.840  1.0446 -0.3939  0.0112
  182SLPC  C21220800   3.782   0.987   5.915  1.0250 -0.0900  0.4595
  182SLPC  H12R20801   3.810   0.887   5.880 -1.0716 -0.7488  0.5221
  182SLPC  C21320802   3.781   1.022   6.042  0.1873 -0.4683  0.4262
  182SLPC  H13R20803   3.809   0.946   6.117 -1.0933  1.2959  2.8296
  182SLPC  C21420804   3.740   1.152   6.113 -0.2814  0.6636  0.1602
  182SLPC  H14R20805   3.674   1.211   6.046 -1.5602  0.7994  1.5170
  182SLPC  H14S20806   3.828   1.219   6.125  1.5712 -1.2884 -1.5686
  182SLPC  C21520807   3.666   1.131   6.243  0.6683 -0.0062  0.5613
  182SLPC  H15R20808   3.572   1.078   6.217 -0.3990  1.1952  1.8290
  182SLPC  H15S20809   3.634   1.230   6.285  2.0243  0.5138  0.4070
  182SLPC  C21620810   3.737   1.064   6.352 -0.1967 -0.0409 -0.1133
  182SLPC  H16R20811   3.842   1.100   6.357 -0.5224  0.9191  0.0090
  182SLPC  H16S20812   3.731   0.955   6.329 -0.7178 -0.9384  3.5751
  182SLPC  C21720813   3.666   1.065   6.491  0.0517 -0.7745  0.0884
  182SLPC  H17R20814   3.665   1.170   6.528  3.3198  0.0219 -1.7111
  182SLPC  H17S20815   3.720   0.995   6.558 -2.2660 -1.8109  0.9947
  182SLPC  C21820816   3.518   1.014   6.495  0.0894  0.6337 -0.7453
  182SLPC  H18R20817   3.461   1.048   6.406  0.4855 -0.6916 -1.5312
  182SLPC  H18S20818   3.473   1.058   6.586  0.8479 -0.6367  0.2942
  182SLPC  H18T20819   3.503   0.905   6.514 -2.0922  1.0241  0.0137
  182SLPC   C3320820   3.642   1.747   5.333  0.0647 -0.2642 -0.6845
  182SLPC   H3X20821   3.652   1.854   5.307  1.1769 -0.7184 -2.2574
  182SLPC   H3Y20822   3.726   1.697   5.280  0.1943  0.2855 -1.0048
  182SLPC   C3420823   3.671   1.736   5.484 -0.3840  0.1343 -0.1762
  182SLPC   H4X20824   3.620   1.811   5.548  0.3120 -0.7491  1.4863
  182SLPC   H4Y20825   3.775   1.772   5.501 -0.1776 -0.7419  0.4528
  182SLPC   C3520826   3.640   1.590   5.528  0.1286 -0.0993 -0.1590
  182SLPC   H5X20827   3.698   1.527   5.457 -1.9602  0.1930 -2.2579
  182SLPC   H5Y20828   3.531   1.575   5.517  0.4962 -1.5717 -2.6365
  182SLPC   C3620829   3.688   1.563   5.672 -0.1682  0.4582  0.5107
  182SLPC   H6X20830   3.643   1.464   5.696  2.6140 -1.0762 -0.1845
  182SLPC   H6Y20831   3.649   1.638   5.743  1.3299 -0.4716  2.4311
  182SLPC   C3720832   3.841   1.548   5.698  0.4735 -0.1598  0.2809
  182SLPC   H7X20833   3.893   1.640   5.665  0.7677 -0.4623 -0.1034
  182SLPC   H7Y20834   3.878   1.471   5.627  0.4486  0.5960 -0.5612
  182SLPC   C3820835   3.863   1.516   5.853 -0.5056  0.5123  0.2017
  182SLPC   H8X20836   3.817   1.423   5.892  0.7649 -0.7039 -1.0514
  182SLPC   H8Y20837   3.831   1.613   5.897 -2.0133  0.4081 -0.6116
  182SLPC   C3920838   4.018   1.490   5.877 -0.3860 -0.2085  0.4890
  182SLPC   H9X20839   4.067   1.581   5.917 -1.6543  0.2465  1.0695
  182SLPC   H9Y20840   4.058   1.464   5.777  0.5605 -2.7446  1.4526
  182SLPC  C31020841   4.054   1.379   5.982  0.3226 -0.4780  0.0584
  182SLPC  H10X20842   4.158   1.343   5.968  0.3709  0.1330 -1.2986
  182SLPC  H10Y20843   3.975   1.302   5.972 -0.0343 -0.1376  0.2312
  182SLPC  C31120844   4.059   1.425   6.123  0.7218 -0.1338 -0.1613
  182SLPC  H11X20845   3.958   1.452   6.161  0.8549 -0.3651  0.3708
  182SLPC  H11Y20846   4.123   1.515   6.140  1.5870 -0.5739 -0.9784
  182SLPC  C31220847   4.107   1.314   6.220 -0.1425 -0.1514 -0.4167
  182SLPC  H12X20848   4.217   1.306   6.204  0.1056 -2.2936  1.7203
  182SLPC  H12Y20849   4.059   1.219   6.190  0.7645 -0.1703 -1.9080
  182SLPC  C31320850   4.083   1.344   6.368 -0.4163 -0.5430  0.0541
  182SLPC  H13X20851   3.979   1.353   6.405  0.0381  0.4837  1.1641
  182SLPC  H13Y20852   4.130   1.442   6.393 -3.1335  1.1509 -1.0635
  182SLPC  C31420853   4.146   1.236   6.456 -0.1317  0.0185  0.0402
  182SLPC  H14X20854   4.255   1.232   6.436 -0.0078  2.0433  0.1122
  182SLPC  H14Y20855   4.097   1.136   6.450 -1.2542  0.4481  1.4836
  182SLPC  C31520856   4.140   1.291   6.601  0.0405 -0.0856 -0.5854
  182SLPC  H15X20857   4.031   1.289   6.623 -0.3630  0.0380 -2.3792
  182SLPC  H15Y20858   4.187   1.390   6.585  0.7970 -0.3960 -0.3374
  182SLPC  C31620859   4.228   1.207   6.696  0.1546 -0.6702  1.0842
  182SLPC  H16X20860   4.220   1.251   6.798  0.0990 -1.1698  1.3006
  182SLPC  H16Y20861   4.334   1.219   6.663 -0.3815  0.5754 -0.2915
  182SLPC  C31720862   4.180   1.063   6.702 -0.2507 -0.9154  0.7109
  182SLPC  H17X20863   4.200   1.004   6.611 -1.1656 -1.0898  0.6163
  182SLPC  H17Y20864   4.069   1.070   6.698 -0.2423 -1.2345 -2.5337
  182SLPC  C31820865   4.234   0.986   6.818  0.0594  0.4085 -0.0530
  182SLPC  H18X20866   4.345   0.991   6.809  0.2343  0.9584  1.9376
  182SLPC  H18Y20867   4.207   0.878   6.816  0.1373  0.3918 -1.7957
  182SLPC  H18Z20868   4.197   1.038   6.908  0.6799 -0.6699  0.8530
  183SLPC     N20869   4.936   0.697   4.532 -0.3373  0.7934  0.0904
  183SLPC   C1320870   5.072   0.684   4.600  0.7030  0.1211 -0.1292
  183SLPC  H13A20871   5.114   0.590   4.567 -1.6374 -0.6125 -1.2214
  183SLPC  H13B20872   5.134   0.769   4.574  1.6369  0.0118  1.6140
  183SLPC  H13C20873   5.061   0.683   4.707 -0.0693 -1.1869 -0.2076
  183SLPC   C1420874   4.863   0.570   4.544  0.8036 -0.0760  0.7441
  183SLPC  H14A20875   4.790   0.569   4.464  2.6293  0.3668 -1.0135
  183SLPC  H14B20876   4.924   0.491   4.502  0.2409  1.1347 -2.6521
  183SLPC  H14C20877   4.822   0.572   4.644 -0.4255  2.5263  0.2596
  183SLPC   C1520878   4.964   0.719   4.386  0.1305 -0.0558  0.2831
  183SLPC  H15A20879   4.869   0.723   4.335  0.3075  1.7676  0.0511
  183SLPC  H15B20880   5.021   0.810   4.372 -0.1003  0.0963  0.3440
  183SLPC  H15C20881   5.016   0.636   4.340 -1.8861 -3.3859  3.5081
  183SLPC   C1220882   4.852   0.809   4.589 -0.2690 -0.7254 -0.8223
  183SLPC  H12A20883   4.755   0.820   4.542 -0.9042 -1.1159  0.3461
  183SLPC  H12B20884   4.896   0.902   4.558 -0.1900 -1.0731 -1.8041
  183SLPC   C1120885   4.818   0.817   4.737 -0.2472 -0.1770  0.0704
  183SLPC  H11A20886   4.807   0.924   4.765  0.3372 -0.6340  2.1630
  183SLPC  H11B20887   4.901   0.791   4.806 -0.5159 -0.6251  0.2276
  183SLPC     P20888   4.570   0.764   4.723 -0.2570  0.2605  0.2143
  183SLPC   O1320889   4.575   0.854   4.605  1.0301 -0.2909 -0.4700
  183SLPC   O1420890   4.498   0.635   4.706  0.1284 -0.0343  0.4681
  183SLPC   O1220891   4.716   0.729   4.776  0.8719  0.0121  0.2644
  183SLPC   O1120892   4.516   0.850   4.847  0.1398 -0.3351  0.1688
  183SLPC    C120893   4.496   0.788   4.973  0.2492  0.5488 -0.1827
  183SLPC    HA20894   4.390   0.804   5.002  0.2269  0.0442  0.0280
  183SLPC    HB20895   4.500   0.677   4.976  0.3941  0.5703  0.6037
  183SLPC    C220896   4.596   0.829   5.082 -0.1603 -0.0659 -0.2452
  183SLPC    HS20897   4.702   0.797   5.070  0.4165  0.8155  1.8388
  183SLPC   O2120898   4.540   0.796   5.215  0.0596  0.5001 -0.7197
  183SLPC   C2120899   4.552   0.663   5.230 -0.2561 -0.1204  0.2401
  183SLPC   O2220900   4.633   0.598   5.164 -0.2335  1.0890  0.4029
  183SLPC   C2220901   4.465   0.611   5.335 -1.0123 -0.6774 -0.5329
  183SLPC   H2R20902   4.491   0.651   5.436 -2.3270 -2.9027  0.7616
  183SLPC   H2S20903   4.365   0.643   5.300 -0.5707  0.4012 -0.8478
  183SLPC    C320904   4.604   0.988   5.080 -0.0335  0.3829  0.2351
  183SLPC    HX20905   4.500   1.026   5.071 -0.0040  0.4053 -0.0261
  183SLPC    HY20906   4.658   1.017   4.987 -0.0213  1.3494  0.5386
  183SLPC   O3120907   4.679   1.051   5.191  0.1751 -0.8609  0.1548
  183SLPC   C3120908   4.813   1.047   5.179  0.4686  0.3164  0.1896
  183SLPC   O3220909   4.877   0.977   5.099 -0.3840 -0.0043 -0.2774
  183SLPC   C3220910   4.875   1.134   5.289  0.0329 -0.1161  0.0918
  183SLPC   H2X20911   4.846   1.239   5.267  1.6252  0.2743 -0.2307
  183SLPC   H2Y20912   4.986   1.128   5.286 -0.0015 -0.8251  0.0311
  183SLPC   C2320913   4.470   0.462   5.353 -0.8993 -0.2247 -0.3679
  183SLPC   H3R20914   4.571   0.420   5.371 -1.3721 -1.7684 -1.1406
  183SLPC   H3S20915   4.439   0.411   5.259 -1.1756  1.3864 -1.2035
  183SLPC   C2420916   4.368   0.403   5.450 -0.5759  0.0314 -0.1451
  183SLPC   H4R20917   4.280   0.460   5.412  0.4241  1.6841 -0.0347
  183SLPC   H4S20918   4.385   0.432   5.555  0.8878  2.4487 -0.9730
  183SLPC   C2520919   4.348   0.251   5.445 -0.3003 -0.5353 -0.3279
  183SLPC   H5R20920   4.348   0.214   5.340 -1.4989  1.5692 -1.1417
  183SLPC   H5S20921   4.255   0.222   5.499 -0.1522 -2.2368 -0.9235
  183SLPC   C2620922   4.463   0.207   5.532 -0.4712 -0.0601 -0.2083
  183SLPC   H6R20923   4.559   0.253   5.502  0.3300 -1.5188 -0.0032
  183SLPC   H6S20924   4.475   0.103   5.494 -0.8384 -0.0052 -0.4787
  183SLPC   C2720925   4.448   0.211   5.678 -0.4243 -0.3605 -0.3217
  183SLPC   H7R20926   4.340   0.187   5.693 -0.0233 -3.0952 -1.2299
  183SLPC   H7S20927   4.470   0.310   5.724  2.2501 -0.5910 -0.9689
  183SLPC   C2820928   4.533   0.101   5.751  0.3599  0.4260  0.4180
  183SLPC   H8R20929   4.640   0.129   5.762  0.1883  0.1258  4.0488
  183SLPC   H8S20930   4.533   0.003   5.698 -0.0900  0.9984 -0.6570
  183SLPC   C2920931   4.486   0.080   5.889 -0.2705  0.0949  0.4725
  183SLPC   H9R20932   4.405   0.007   5.903  0.2717 -0.5855  0.0985
  183SLPC  C21020933   4.541   0.129   6.001  0.6209  0.5743  0.4960
  183SLPC  H10R20934   4.498   0.101   6.099  1.3826  1.0923  0.9830
  183SLPC  C21120935   4.655   0.231   6.004  0.0319  0.1612  0.7394
  183SLPC  H11R20936   4.648   0.282   5.906 -3.2832  0.1681  0.8848
  183SLPC  H11S20937   4.751   0.174   6.003 -0.3904 -0.5624  0.2604
  183SLPC  C21220938   4.644   0.333   6.115 -0.6775 -0.0031 -0.2471
  183SLPC  H12R20939   4.552   0.394   6.118 -1.0672 -0.5567 -0.8176
  183SLPC  C21320940   4.729   0.355   6.221 -0.0938  0.4910  0.2369
  183SLPC  H13R20941   4.693   0.417   6.305  0.7935  2.0359 -0.4784
  183SLPC  C21420942   4.854   0.277   6.262 -0.2489 -0.0379  0.4491
  183SLPC  H14R20943   4.948   0.336   6.257  0.6727 -1.5455 -3.1899
  183SLPC  H14S20944   4.882   0.187   6.203 -0.2698 -0.1746  0.6484
  183SLPC  C21520945   4.848   0.226   6.411  0.2268 -0.9444 -0.1884
  183SLPC  H15R20946   4.826   0.316   6.473  0.3464  0.5774 -2.2255
  183SLPC  H15S20947   4.949   0.186   6.435  0.3498  0.1632  1.2666
  183SLPC  C21620948   4.744   0.125   6.453  0.2362  1.4111  0.0988
  183SLPC  H16R20949   4.641   0.166   6.455  0.2993  1.8054 -2.1224
  183SLPC  H16S20950   4.762   0.087   6.556  1.2037 -2.9029 -1.4400
  183SLPC  C21720951   4.736   0.007   6.354 -0.4633  0.1821 -0.5489
  183SLPC  H17R20952   4.822  -0.061   6.374  0.3696  1.5638  0.7869
  183SLPC  H17S20953   4.743   0.048   6.251 -3.8934  0.5420 -0.7681
  183SLPC  C21820954   4.603  -0.066   6.372 -0.0440  1.1987 -0.2208
  183SLPC  H18R20955   4.519  -0.001   6.340  1.0596  2.1682 -1.2496
  183SLPC  H18S20956   4.591  -0.089   6.480 -0.9916  1.7937 -0.1875
  183SLPC  H18T20957   4.589  -0.162   6.318  0.6274 -0.0175  1.6737
  183SLPC   C3320958   4.809   1.102   5.426 -0.0843  0.0175  0.4579
  183SLPC   H3X20959   4.699   1.116   5.425 -0.1520 -0.5046  0.2448
  183SLPC   H3Y20960   4.840   1.181   5.498 -1.2789  3.5345 -2.5660
  183SLPC   C3420961   4.828   0.961   5.483 -0.5869  0.0506  0.1718
  183SLPC   H4X20962   4.937   0.946   5.470 -0.6424 -2.0743  1.5318
  183SLPC   H4Y20963   4.774   0.894   5.412  0.4730  0.7854 -1.3706
  183SLPC   C3520964   4.792   0.951   5.636  0.1283 -0.0644  0.3878
  183SLPC   H5X20965   4.696   1.008   5.637  1.6757  2.7090  0.2570
  183SLPC   H5Y20966   4.861   1.007   5.702  0.2555  0.2343  0.0070
  183SLPC   C3620967   4.768   0.809   5.688  0.6307 -0.1329 -0.2782
  183SLPC   H6X20968   4.858   0.745   5.680  1.0760  0.6132 -1.5113
  183SLPC   H6Y20969   4.684   0.757   5.637 -1.6462  1.4827  1.6070
  183SLPC   C3720970   4.737   0.809   5.842  0.0266  0.0883  0.3355
  183SLPC   H7X20971   4.663   0.888   5.866  1.2620  1.8654 -1.3614
  183SLPC   H7Y20972   4.823   0.843   5.905 -0.4488  2.2939 -0.1152
  183SLPC   C3820973   4.678   0.674   5.894 -0.1181 -0.7939 -0.2955
  183SLPC   H8X20974   4.689   0.680   6.005 -1.2863  0.9249 -0.2312
  183SLPC   H8Y20975   4.739   0.590   5.855  0.4861 -0.3016 -0.4189
  183SLPC   C3920976   4.526   0.663   5.850 -0.5806  0.0160 -0.9385
  183SLPC   H9X20977   4.509   0.659   5.740  0.1717 -0.9643 -1.0257
  183SLPC   H9Y20978   4.482   0.757   5.890 -0.1672  0.6113 -1.8502
  183SLPC  C31020979   4.449   0.556   5.927 -0.3265  0.1745  0.6517
  183SLPC  H10X20980   4.459   0.583   6.035  0.8737 -0.4072  0.7052
  183SLPC  H10Y20981   4.511   0.466   5.906  1.3928  1.1677  1.2446
  183SLPC  C31120982   4.304   0.525   5.880 -0.4982  0.6691  0.6799
  183SLPC  H11X20983   4.309   0.494   5.773 -0.7121  0.0567  0.8458
  183SLPC  H11Y20984   4.237   0.613   5.893 -0.0470  0.9803  0.9175
  183SLPC  C31220985   4.246   0.401   5.949  0.4420 -0.5114 -0.1760
  183SLPC  H12X20986   4.305   0.307   5.938  0.3777 -0.4345 -1.4082
  183SLPC  H12Y20987   4.149   0.395   5.896  1.2976  0.1797 -1.8996
  183SLPC  C31320988   4.242   0.433   6.101  0.1630  0.5297  0.4037
  183SLPC  H13X20989   4.198   0.535   6.109  1.5812  1.3437 -1.4874
  183SLPC  H13Y20990   4.349   0.440   6.127 -0.0964  2.4701  1.1970
  183SLPC  C31420991   4.179   0.323   6.189 -0.3131 -0.5537 -0.8855
  183SLPC  H14X20992   4.200   0.223   6.148  2.0514 -0.5990  0.2293
  183SLPC  H14Y20993   4.068   0.331   6.189 -0.3302  1.4872  2.5784
  183SLPC  C31520994   4.235   0.321   6.334 -0.5336  0.3896  0.8166
  183SLPC  H15X20995   4.213   0.412   6.393 -2.6191  0.6214 -0.2380
  183SLPC  H15Y20996   4.343   0.295   6.323 -0.3095  1.4663  0.3063
  183SLPC  C31620997   4.177   0.212   6.429 -0.5735 -0.1796  0.0710
  183SLPC  H16X20998   4.068   0.224   6.442 -0.4671  1.0032 -0.0115
  183SLPC  H16Y20999   4.227   0.217   6.529  1.9143  0.2911 -1.1133
  183SLPC  C31721000   4.197   0.062   6.382  0.5101 -0.2733  0.3338
  183SLPC  H17X21001   4.301   0.035   6.409  1.3581  3.1006  0.9107
  183SLPC  H17Y21002   4.182   0.055   6.272 -1.9881  0.2522  0.5851
  183SLPC  C31821003   4.093  -0.033   6.452 -0.0509 -0.4786 -0.6068
  183SLPC  H18X21004   4.094  -0.025   6.563 -0.1768  2.6885 -0.7336
  183SLPC  H18Y21005   4.109  -0.140   6.430  0.2962 -0.4235 -0.6313
  183SLPC  H18Z21006   3.992  -0.005   6.415 -0.5675 -0.3535  0.8085
  184SLPC     N21007   4.171   2.823   4.720 -0.3990  0.5203  0.0848
  184SLPC   C1321008   4.299   2.858   4.648 -0.3187  0.1111 -0.9032
  184SLPC  H13A21009   4.350   2.775   4.602  1.8420 -0.9336  2.9217
  184SLPC  H13B21010   4.287   2.935   4.573  2.5582  1.7622  0.1743
  184SLPC  H13C21011   4.373   2.893   4.719  2.2923 -0.7961 -3.0435
  184SLPC   C1421012   4.133   2.939   4.810 -0.1274  0.2782 -0.2958
  184SLPC  H14A21013   4.216   2.963   4.875 -0.0194  0.7615 -0.6093
  184SLPC  H14B21014   4.113   3.025   4.747 -0.3809 -1.0965 -2.1759
  184SLPC  H14C21015   4.045   2.917   4.869  0.6140  0.9895  1.1187
  184SLPC   C1521016   4.198   2.711   4.815 -0.3030 -0.5902  0.5379
  184SLPC  H15A21017   4.218   2.623   4.755  0.0375 -0.7001  0.8066
  184SLPC  H15B21018   4.280   2.735   4.881 -0.3728 -0.2061  0.4858
  184SLPC  H15C21019   4.116   2.680   4.878  0.2267  0.3033  1.7103
  184SLPC   C1221020   4.065   2.797   4.617  0.0019  0.0573  0.4332
  184SLPC  H12A21021   4.027   2.885   4.569  0.4804 -0.2558 -0.5436
  184SLPC  H12B21022   3.984   2.762   4.678 -0.1734 -0.7247 -0.2188
  184SLPC   C1121023   4.102   2.686   4.509 -0.4785 -0.9388  0.1871
  184SLPC  H11A21024   4.128   2.586   4.551  1.5523 -1.0138 -1.1052
  184SLPC  H11B21025   4.189   2.727   4.453  1.9182 -1.8093  2.9948
  184SLPC     P21026   3.840   2.707   4.424 -0.3714 -0.0389  0.0992
  184SLPC   O1321027   3.817   2.842   4.369 -0.1149  0.2244 -0.0390
  184SLPC   O1421028   3.762   2.600   4.358  0.1181  0.4742 -0.4379
  184SLPC   O1221029   3.988   2.672   4.422 -0.0677  0.2087  0.2305
  184SLPC   O1121030   3.803   2.715   4.576 -0.2377 -0.0290 -0.8996
  184SLPC    C121031   3.673   2.755   4.610 -0.0520 -0.8549  0.0797
  184SLPC    HA21032   3.626   2.828   4.541 -1.9673  1.1584  3.2100
  184SLPC    HB21033   3.598   2.673   4.609 -0.5557 -0.3926 -0.5104
  184SLPC    C221034   3.659   2.816   4.753  0.8003  0.4115 -0.3268
  184SLPC    HS21035   3.756   2.870   4.765  1.4755 -0.9207  0.4516
  184SLPC   O2121036   3.648   2.702   4.838  0.3915  0.2972 -0.1730
  184SLPC   C2121037   3.751   2.661   4.898 -0.0542 -0.1960  0.1194
  184SLPC   O2221038   3.867   2.702   4.887  0.7570 -0.2475  0.3432
  184SLPC   C2221039   3.719   2.527   4.976  0.5581 -0.9116 -0.6516
  184SLPC   H2R21040   3.638   2.555   5.047  0.4034 -1.2950 -0.6751
  184SLPC   H2S21041   3.687   2.455   4.899 -1.8665 -1.0792  0.3988
  184SLPC    C321042   3.523   2.905   4.767  0.1466 -0.0920  0.1368
  184SLPC    HX21043   3.431   2.845   4.750 -0.6340  1.0855  0.1467
  184SLPC    HY21044   3.529   2.990   4.695 -1.9434  0.0977  0.1423
  184SLPC   O3121045   3.514   2.968   4.893  0.3166 -0.2245  0.8355
  184SLPC   C3121046   3.473   2.898   5.001  0.1766 -0.3218  0.1450
  184SLPC   O3221047   3.451   2.779   5.007 -0.1114  0.2567  0.1497
  184SLPC   C3221048   3.469   3.000   5.122 -0.8593 -0.6326  0.3743
  184SLPC   H2X21049   3.406   3.084   5.086 -1.1174 -0.3547  1.4337
  184SLPC   H2Y21050   3.573   3.035   5.131 -0.8718 -0.0491 -1.3915
  184SLPC   C2321051   3.846   2.477   5.050  0.2301  0.5788  0.6139
  184SLPC   H3R21052   3.879   2.549   5.128 -1.6439  0.4073  1.6099
  184SLPC   H3S21053   3.922   2.467   4.969 -0.7434 -1.3374 -0.1371
  184SLPC   C2421054   3.825   2.340   5.114 -0.1478  0.0467 -0.5539
  184SLPC   H4R21055   3.801   2.267   5.033  2.3209  0.5009 -1.7778
  184SLPC   H4S21056   3.733   2.348   5.176  0.1370 -0.3457 -0.0839
  184SLPC   C2521057   3.951   2.305   5.195  0.0880 -0.0378 -1.0177
  184SLPC   H5R21058   4.043   2.317   5.134 -0.0273  0.3998 -1.1090
  184SLPC   H5S21059   3.936   2.196   5.212 -0.3850  0.2745  0.9105
  184SLPC   C2621060   3.981   2.389   5.324 -0.8005  0.3745  0.2114
  184SLPC   H6R21061   3.897   2.365   5.393 -0.1146 -4.0737 -0.1743
  184SLPC   H6S21062   3.994   2.496   5.297 -2.0330  0.6583  0.6714
  184SLPC   C2721063   4.113   2.340   5.388  0.2861  1.0849 -0.2784
  184SLPC   H7R21064   4.186   2.363   5.308 -1.4459  1.9758 -1.6824
  184SLPC   H7S21065   4.111   2.229   5.390 -2.9165  1.0254 -0.8427
  184SLPC   C2821066   4.157   2.397   5.523  0.0357 -0.6440  0.4340
  184SLPC   H8R21067   4.246   2.341   5.560 -0.4644 -0.3294  2.2220
  184SLPC   H8S21068   4.081   2.364   5.597 -0.7224  1.4646  0.6821
  184SLPC   C2921069   4.179   2.547   5.518  0.8535 -0.4618  0.4153
  184SLPC   H9R21070   4.222   2.588   5.425 -0.0041  0.2328  0.3056
  184SLPC  C21021071   4.143   2.635   5.614  0.2974  0.1617  0.0914
  184SLPC  H10R21072   4.175   2.738   5.592  1.7201 -0.5091 -1.1306
  184SLPC  C21121073   4.075   2.611   5.751 -0.4044  0.7341 -0.4743
  184SLPC  H11R21074   3.972   2.573   5.737  0.5077 -1.2370 -2.2924
  184SLPC  H11S21075   4.062   2.712   5.795 -1.0622  0.1660  0.7046
  184SLPC  C21221076   4.153   2.517   5.837 -0.8875 -0.2928 -0.8772
  184SLPC  H12R21077   4.228   2.455   5.786  3.1583  1.3046  2.5470
  184SLPC  C21321078   4.135   2.505   5.966  0.7020 -0.4355  0.1948
  184SLPC  H13R21079   4.195   2.429   6.019  2.1667 -0.5729 -1.5417
  184SLPC  C21421080   4.046   2.593   6.049  0.7928 -0.2055  0.7239
  184SLPC  H14R21081   3.938   2.564   6.052  0.8470 -0.3867  0.9492
  184SLPC  H14S21082   4.042   2.691   5.996  1.5780 -0.9728 -0.8300
  184SLPC  C21521083   4.078   2.613   6.195  0.2206  0.5126  0.5696
  184SLPC  H15R21084   4.177   2.664   6.189  1.7770 -2.4639 -1.7593
  184SLPC  H15S21085   4.097   2.511   6.235 -0.4141  0.5914  1.0944
  184SLPC  C21621086   3.980   2.689   6.278 -0.0110  0.0643  0.0190
  184SLPC  H16R21087   3.936   2.624   6.357 -1.0880 -0.2478 -0.8016
  184SLPC  H16S21088   3.897   2.713   6.207 -1.8680  1.5113  2.5093
  184SLPC  C21721089   4.027   2.816   6.352 -0.2221  0.2241 -0.3690
  184SLPC  H17R21090   4.107   2.777   6.418 -1.5396 -1.2978  0.4143
  184SLPC  H17S21091   3.944   2.855   6.414  0.3435  0.6445  0.1304
  184SLPC  C21821092   4.090   2.922   6.263 -0.6131 -0.0189  0.0808
  184SLPC  H18R21093   4.193   2.903   6.228 -0.7437 -1.0853  0.2335
  184SLPC  H18S21094   4.111   3.010   6.328 -0.4324 -0.6453  0.8982
  184SLPC  H18T21095   4.017   2.947   6.183 -1.4352  1.4481  1.2221
  184SLPC   C3321096   3.405   2.948   5.256 -0.1285 -0.4992 -0.2848
  184SLPC   H3X21097   3.419   3.019   5.340  0.3251 -3.4472  2.3146
  184SLPC   H3Y21098   3.457   2.861   5.301 -0.2062 -0.0772  0.6526
  184SLPC   C3421099   3.254   2.916   5.235  0.0909 -0.0553  0.0539
  184SLPC   H4X21100   3.245   2.841   5.153 -0.7945  2.1026 -1.9396
  184SLPC   H4Y21101   3.206   3.011   5.204 -0.7620 -0.4573  0.0977
  184SLPC   C3521102   3.195   2.858   5.360 -0.2701 -0.1189  0.0461
  184SLPC   H5X21103   3.186   2.938   5.436  0.0824 -0.2987  0.2787
  184SLPC   H5Y21104   3.259   2.773   5.392 -0.0375  0.7323  1.9548
  184SLPC   C3621105   3.066   2.780   5.319 -0.2962 -0.1859  0.7308
  184SLPC   H6X21106   3.108   2.689   5.271 -3.0274 -1.7188  1.0368
  184SLPC   H6Y21107   2.997   2.838   5.253  0.3446  0.1881  0.3778
  184SLPC   C3721108   2.991   2.735   5.445 -0.0343  0.4036 -0.1731
  184SLPC   H7X21109   2.938   2.822   5.491 -1.9669 -0.7430 -0.1331
  184SLPC   H7Y21110   3.074   2.707   5.514 -0.3402  1.7623  0.7928
  184SLPC   C3821111   2.895   2.617   5.438  0.3788  0.0996 -0.3488
  184SLPC   H8X21112   2.951   2.526   5.409  0.5195  0.2479 -0.5448
  184SLPC   H8Y21113   2.828   2.633   5.351 -0.1743  1.3465  0.2740
  184SLPC   C3921114   2.835   2.582   5.574  0.2456  0.1443 -0.0021
  184SLPC   H9X21115   2.769   2.666   5.604  1.5169  1.0713  0.2800
  184SLPC   H9Y21116   2.928   2.584   5.635  1.8116 -1.1837 -2.2299
  184SLPC  C31021117   2.767   2.442   5.587  0.7642 -0.6606  0.2310
  184SLPC  H10X21118   2.840   2.372   5.541  1.0368  0.3400 -0.9208
  184SLPC  H10Y21119   2.670   2.440   5.532  1.1598  2.6313 -0.7820
  184SLPC  C31121120   2.737   2.392   5.728  0.5764 -0.4378  0.0263
  184SLPC  H11X21121   2.824   2.409   5.795 -0.6605 -0.7237  1.7742
  184SLPC  H11Y21122   2.711   2.285   5.722  1.4778 -0.5856 -2.3625
  184SLPC  C31221123   2.617   2.454   5.805  0.1127 -0.3685 -0.1005
  184SLPC  H12X21124   2.520   2.442   5.751 -0.1806 -1.0958  0.5604
  184SLPC  H12Y21125   2.633   2.561   5.829 -2.7989 -0.0169  0.6197
  184SLPC  C31321126   2.597   2.387   5.939 -0.7377 -0.2772  1.0621
  184SLPC  H13X21127   2.602   2.277   5.925  1.1142  0.0889 -2.2573
  184SLPC  H13Y21128   2.496   2.408   5.978 -1.5251 -0.8729 -0.5769
  184SLPC  C31421129   2.708   2.412   6.048  0.1235  0.4785 -0.3972
  184SLPC  H14X21130   2.689   2.516   6.081 -0.4871  0.9917 -2.2528
  184SLPC  H14Y21131   2.812   2.406   6.011  0.5383  1.4638  0.5977
  184SLPC  C31521132   2.685   2.316   6.169 -0.3144 -0.3322 -0.0865
  184SLPC  H15X21133   2.715   2.212   6.146 -1.9437 -0.9971  0.6490
  184SLPC  H15Y21134   2.577   2.313   6.196  0.2141 -1.4191  2.1027
  184SLPC  C31621135   2.736   2.377   6.300  0.3533  0.8157  0.1293
  184SLPC  H16X21136   2.735   2.487   6.287 -2.5808  1.0529  1.5186
  184SLPC  H16Y21137   2.836   2.335   6.327  0.1232 -0.3357 -0.7538
  184SLPC  C31721138   2.651   2.358   6.423  0.8847  0.4408 -0.1242
  184SLPC  H17X21139   2.648   2.250   6.451 -2.2768 -0.0077 -1.6698
  184SLPC  H17Y21140   2.547   2.384   6.393  0.4860  0.4319  1.1810
  184SLPC  C31821141   2.677   2.452   6.541  0.2421 -0.3385 -0.1310
  184SLPC  H18X21142   2.679   2.561   6.516  2.8714  0.4568  2.8046
  184SLPC  H18Y21143   2.776   2.429   6.586  0.4420  1.8773  0.7361
  184SLPC  H18Z21144   2.602   2.451   6.623 -0.6065  0.9332 -0.8620
  185POPC     N21145   1.914   0.229   0.192  0.2087  0.1137 -0.1175
  185POPC   C1221146   1.784   0.199   0.122 -0.1227 -0.1598  0.1642
  185POPC  H12A21147   1.809   0.179   0.019 -2.3620 -1.4340 -0.2010
  185POPC  H12B21148   1.720   0.286   0.131  0.0107 -0.2248  2.1235
  185POPC   C1321149   1.889   0.235   0.344 -0.1784  0.3500 -0.3258
  185POPC  H13A21150   1.828   0.320   0.369  0.1304  0.2115  0.9487
  185POPC  H13B21151   1.839   0.146   0.379  0.2827  0.2590  0.1136
  185POPC  H13C21152   1.986   0.222   0.389  0.7263 -2.7098 -2.8031
  185POPC   C1421153   2.012   0.125   0.161  0.1675 -0.1859  0.2104
  185POPC  H14A21154   2.111   0.157   0.189  0.4752 -1.6713  0.9505
  185POPC  H14B21155   1.975   0.045   0.223 -0.0124  1.0807  1.7960
  185POPC  H14C21156   2.002   0.092   0.058  0.0779  0.4085  0.0246
  185POPC   C1521157   1.967   0.361   0.140 -0.2966  0.1973  0.0134
  185POPC  H15A21158   1.887   0.433   0.132 -1.7038 -1.0010  2.3844
  185POPC  H15B21159   2.001   0.341   0.039  0.2964  0.6819  0.1150
  185POPC  H15C21160   2.049   0.400   0.199  0.6413 -0.9126 -0.5240
  185POPC   C1121161   1.706   0.079   0.179  0.0287 -0.1430 -0.3531
  185POPC  H11A21162   1.605   0.078   0.134  0.5056 -2.7532 -1.5509
  185POPC  H11B21163   1.695   0.087   0.289 -0.6453  0.7173 -0.4700
  185POPC     P21164   1.787  -0.093  -0.002  0.3456 -0.2988  0.2544
  185POPC   O1321165   1.801  -0.238   0.023  0.5599 -0.2344  0.5629
  185POPC   O1421166   1.899  -0.028  -0.084  0.1807  0.3964 -0.8247
  185POPC   O1221167   1.774  -0.037   0.144 -0.3856 -0.2114 -0.2755
  185POPC   O1121168   1.638  -0.063  -0.046 -0.2191  0.0577  0.5034
  185POPC    C121169   1.594  -0.126  -0.164  0.1162 -0.5163 -0.2054
  185POPC    HA21170   1.495  -0.172  -0.147 -1.3503  2.5524  0.1616
  185POPC    HB21171   1.650  -0.210  -0.211 -0.5182 -0.7232 -0.6084
  185POPC    C221172   1.576  -0.019  -0.278 -0.8061  0.0509  0.1058
  185POPC    HS21173   1.522  -0.076  -0.357 -0.7539  0.6275 -0.3507
  185POPC   O2121174   1.702   0.041  -0.317 -0.0631  0.8627 -0.1584
  185POPC   C2121175   1.783  -0.034  -0.391 -0.0993  0.1286  0.5016
  185POPC   O2221176   1.765  -0.151  -0.413  0.5112 -0.5345  0.0397
  185POPC   C2221177   1.886   0.059  -0.456  0.5101 -0.1189  0.2375
  185POPC   H2R21178   1.959   0.063  -0.372 -0.7634 -3.0920  1.6603
  185POPC   H2S21179   1.840   0.155  -0.487 -1.2413 -0.6750  0.9552
  185POPC    C321180   1.485   0.092  -0.225  0.0079 -0.8702 -0.2097
  185POPC    HX21181   1.528   0.159  -0.148 -1.5053 -0.1522  0.0423
  185POPC    HY21182   1.401   0.040  -0.175 -2.1008  1.7722 -0.7619
  185POPC   O3121183   1.445   0.178  -0.335  1.0281 -0.0921 -0.7682
  185POPC   C3121184   1.526   0.278  -0.373 -0.3797 -0.2354 -0.4369
  185POPC   O3221185   1.639   0.299  -0.328 -0.3743 -0.1241 -0.3009
  185POPC   C3221186   1.459   0.353  -0.486 -0.0081  0.3191 -0.0340
  185POPC   H2X21187   1.374   0.387  -0.424 -0.3946  0.2397 -0.5207
  185POPC   H2Y21188   1.420   0.284  -0.564 -1.3504  2.4504 -1.3555
  185POPC   C2321189   1.966  -0.016  -0.568 -0.1280 -1.1746 -0.2301
  185POPC   H3R21190   1.906  -0.052  -0.654 -0.2955  0.2313 -0.7186
  185POPC   H3S21191   2.025  -0.097  -0.520  0.1997  0.8230  3.0689
  185POPC   C2421192   2.061   0.092  -0.623 -0.5665  0.2228  0.7708
  185POPC   H4R21193   2.094   0.157  -0.539 -1.7046 -0.7090  1.9899
  185POPC   H4S21194   1.995   0.153  -0.688  0.1823 -1.2270 -1.4906
  185POPC   C2521195   2.176   0.047  -0.721 -0.0450 -0.2574  0.9663
  185POPC   H5R21196   2.249  -0.024  -0.676  0.2122 -1.2526 -0.9240
  185POPC   H5S21197   2.239   0.137  -0.743  0.2009 -0.8236 -0.7751
  185POPC   C2621198   2.130  -0.016  -0.854  1.0390 -0.4035  0.3312
  185POPC   H6R21199   2.071   0.057  -0.914  1.7463 -0.3127 -0.2730
  185POPC   H6S21200   2.054  -0.094  -0.832  0.5228  0.1555  0.5272
  185POPC   C2721201   2.242  -0.073  -0.938  0.3017 -0.6280  0.6078
  185POPC   H7R21202   2.210  -0.128  -1.030 -0.5506  2.7200 -1.2492
  185POPC   H7S21203   2.302  -0.146  -0.879  0.2527 -0.5707  0.7280
  185POPC   C2821204   2.344   0.038  -0.974 -0.4009  0.7009 -0.0207
  185POPC   H8R21205   2.389   0.084  -0.883 -1.3391  2.7929 -0.5541
  185POPC   H8S21206   2.286   0.116  -1.027 -1.0391  0.2347 -0.0099
  185POPC   C2921207   2.448  -0.018  -1.066  0.0999 -0.4590  0.6710
  185POPC   H9121208   2.527  -0.071  -1.012  0.7365 -0.4951 -0.2722
  185POPC  C21021209   2.459  -0.004  -1.203  0.2273 -0.4554 -0.1825
  185POPC  H10121210   2.547  -0.044  -1.255  1.1462 -0.0428  1.0258
  185POPC  C21121211   2.362   0.063  -1.295 -0.4136 -0.1690  0.2094
  185POPC  H11R21212   2.312   0.149  -1.245 -0.9635  0.3009 -1.0953
  185POPC  H11S21213   2.289  -0.016  -1.327 -0.4705  0.3688 -1.0517
  185POPC  C21221214   2.421   0.120  -1.431  0.0603 -0.0865 -0.6716
  185POPC  H12R21215   2.516   0.175  -1.415 -1.0181  2.2798 -1.7801
  185POPC  H12S21216   2.345   0.195  -1.464  0.5895  2.0050  2.4429
  185POPC  C21321217   2.430  -0.005  -1.525 -0.2463 -0.1920 -0.0228
  185POPC  H13R21218   2.325  -0.037  -1.542  0.0503 -0.8347 -0.6830
  185POPC  H13S21219   2.479  -0.085  -1.465 -1.1503 -0.8427 -0.1305
  185POPC  C21421220   2.509   0.023  -1.652 -0.0609  0.2643  0.3793
  185POPC  H14R21221   2.536  -0.066  -1.712  2.5908  1.9676 -1.1976
  185POPC  H14S21222   2.607   0.063  -1.617  0.7940 -1.3728 -0.0468
  185POPC  C21521223   2.439   0.129  -1.741 -0.1546 -0.3833 -0.6247
  185POPC  H15R21224   2.432   0.228  -1.691  0.7085 -0.9230  0.6081
  185POPC  H15S21225   2.339   0.085  -1.758 -0.7459  0.5981  0.2241
  185POPC  C21621226   2.497   0.133  -1.879 -0.6480 -0.2971  0.4307
  185POPC  H16R21227   2.440   0.198  -1.948 -0.8022 -2.8515 -2.0311
  185POPC  H16S21228   2.497   0.028  -1.918 -2.4615  0.0003 -0.4917
  185POPC  C21721229   2.641   0.196  -1.875 -0.0740 -0.4525  0.7124
  185POPC  H17R21230   2.702   0.141  -1.801  1.6764 -1.8168 -1.5943
  185POPC  H17S21231   2.635   0.301  -1.839  0.7533 -0.2884  0.3956
  185POPC  C21821232   2.700   0.197  -2.010 -0.8235 -0.0889  0.6196
  185POPC  H18R21233   2.703   0.089  -2.039 -1.6746 -0.0701  0.4389
  185POPC  H18S21234   2.801   0.242  -2.019 -2.2251  3.4226  1.2199
  185POPC  H18T21235   2.648   0.240  -2.098 -0.1557  0.9429  0.7177
  185POPC   C3321236   1.535   0.479  -0.534 -0.7596  0.4336  0.5065
  185POPC   H3X21237   1.571   0.542  -0.450  1.6723  2.1118 -1.6220
  185POPC   H3Y21238   1.466   0.543  -0.592  0.7352  2.2024  0.5944
  185POPC   C3421239   1.665   0.453  -0.621 -0.4075  0.5039  0.0624
  185POPC   H4X21240   1.739   0.413  -0.549  1.8454  1.2797 -1.6959
  185POPC   H4Y21241   1.715   0.546  -0.654  0.5598  0.6615  1.8694
  185POPC   C3521242   1.648   0.357  -0.746 -0.5119  0.4924  0.7309
  185POPC   H5X21243   1.563   0.395  -0.806  0.2180  0.1486 -0.5518
  185POPC   H5Y21244   1.627   0.251  -0.720  0.4569  0.1518  0.1908
  185POPC   C3621245   1.774   0.357  -0.835 -0.1981 -0.4918  0.7186
  185POPC   H6X21246   1.857   0.307  -0.781  0.7690 -1.9137 -1.8751
  185POPC   H6Y21247   1.793   0.464  -0.858  1.3991 -0.8694  0.0953
  185POPC   C3721248   1.752   0.283  -0.961  1.0780  0.1747 -0.4847
  185POPC   H7X21249   1.673   0.323  -1.028  0.3353 -1.0928 -0.3917
  185POPC   H7Y21250   1.715   0.184  -0.928  0.9803 -0.1295 -1.4654
  185POPC   C3821251   1.882   0.275  -1.040 -0.1123  0.1139  0.1343
  185POPC   H8X21252   1.970   0.245  -0.980 -0.0931  3.2820  1.9328
  185POPC   H8Y21253   1.892   0.373  -1.092 -1.9712 -1.8983 -4.5292
  185POPC   C3921254   1.868   0.173  -1.153 -0.4731 -0.4183 -0.1870
  185POPC   H9X21255   1.796   0.215  -1.227 -0.7706 -0.3182  0.1540
  185POPC   H9Y21256   1.824   0.076  -1.123  1.8988 -0.6478  3.0404
  185POPC  C31021257   2.013   0.150  -1.217  0.2819  0.0262 -0.0226
  185POPC  H10X21258   2.073   0.086  -1.150  2.6257  2.1063 -0.0189
  185POPC  H10Y21259   2.053   0.251  -1.239 -0.7520 -0.0668 -2.7501
  185POPC  C31121260   2.005   0.084  -1.361  0.7771 -0.4671  0.3122
  185POPC  H11X21261   2.101   0.100  -1.415  0.9473 -1.0224  0.4512
  185POPC  H11Y21262   1.933   0.130  -1.432  0.7674 -2.4063 -1.0028
  185POPC  C31221263   1.977  -0.062  -1.355 -0.0814 -0.3923 -0.6014
  185POPC  H12X21264   1.893  -0.076  -1.283  1.0375 -2.3104  0.4221
  185POPC  H12Y21265   2.054  -0.126  -1.307 -3.7672 -3.0065  2.4957
  185POPC  C31321266   1.939  -0.119  -1.492 -0.2307 -0.3916 -0.1942
  185POPC  H13X21267   1.841  -0.086  -1.534 -0.4542  0.0501  0.6353
  185POPC  H13Y21268   1.929  -0.229  -1.480  1.8556 -0.6239 -0.2473
  185POPC  C31421269   2.052  -0.109  -1.590 -0.7392 -1.0252 -0.7773
  185POPC  H14X21270   2.149  -0.141  -1.548  0.0903  0.8931 -1.1231
  185POPC  H14Y21271   2.070  -0.001  -1.611 -0.2815 -1.2018 -1.3194
  185POPC  C31521272   2.029  -0.174  -1.721 -0.1733  0.0668 -0.0527
  185POPC  H15X21273   1.927  -0.152  -1.759 -0.4583 -1.1230 -0.0079
  185POPC  H15Y21274   2.023  -0.282  -1.696  0.3846  0.2032  0.6986
  185POPC  C31621275   2.131  -0.149  -1.832  0.7000 -0.4562 -0.8577
  185POPC  H16X21276   2.096  -0.051  -1.872 -1.5627 -0.2910  1.2895
  185POPC  H16Y21277   2.126  -0.228  -1.909 -0.8788 -0.8443 -0.3982
  185POPC  H16Z21278   2.237  -0.131  -1.804  0.9449 -2.3575 -0.4575
  186POPC     N21279   4.683   4.312   0.677  0.0338  0.6692 -0.0626
  186POPC   C1221280   4.587   4.193   0.678  0.4636  0.0922 -0.4461
  186POPC  H12A21281   4.582   4.144   0.774 -2.5458  1.3730  0.1633
  186POPC  H12B21282   4.627   4.122   0.607  2.4491 -1.6022  2.1991
  186POPC   C1321283   4.711   4.351   0.532  0.9003 -0.0015 -0.0274
  186POPC  H13A21284   4.623   4.401   0.495  1.3698  0.6365 -0.3056
  186POPC  H13B21285   4.785   4.429   0.524  1.5823 -0.6093  0.2411
  186POPC  H13C21286   4.736   4.260   0.479 -1.2770 -0.0079 -1.1312
  186POPC   C1421287   4.624   4.431   0.741 -0.3014 -0.4706  0.4389
  186POPC  H14A21288   4.692   4.515   0.738  0.1822 -0.8802 -1.4339
  186POPC  H14B21289   4.533   4.469   0.696 -0.6871  0.2200  1.7486
  186POPC  H14C21290   4.608   4.409   0.845 -1.2388 -2.2237 -0.0230
  186POPC   C1521291   4.814   4.268   0.739 -0.0003 -0.1812 -0.2582
  186POPC  H15A21292   4.873   4.213   0.667  0.5505  0.1789 -0.0868
  186POPC  H15B21293   4.802   4.210   0.829  0.1970 -0.7885 -0.6216
  186POPC  H15C21294   4.868   4.356   0.771  1.5026 -2.0384  2.7765
  186POPC   C1121295   4.438   4.216   0.650 -0.2531  0.3675  0.2519
  186POPC  H11A21296   4.384   4.258   0.738  1.0205 -0.4851  1.4719
  186POPC  H11B21297   4.391   4.116   0.655  0.4458  0.0878  3.1282
  186POPC     P21298   4.314   4.408   0.516 -0.0390 -0.0538 -0.0240
  186POPC   O1321299   4.388   4.537   0.517 -0.1221  0.1142  0.3795
  186POPC   O1421300   4.209   4.384   0.615  0.4287 -0.3645 -0.4304
  186POPC   O1221301   4.419   4.283   0.525  0.1227 -0.3372 -0.2408
  186POPC   O1121302   4.253   4.372   0.377 -0.5580 -0.0094 -0.1765
  186POPC    C121303   4.209   4.244   0.342  0.2832  0.4485 -0.2436
  186POPC    HA21304   4.136   4.257   0.260 -0.2959  0.6908  0.2987
  186POPC    HB21305   4.160   4.197   0.430 -1.3211  2.8918  0.2614
  186POPC    C221306   4.321   4.168   0.270  0.4039  0.6036 -0.7946
  186POPC    HS21307   4.391   4.151   0.355 -3.0806 -0.4507  2.1532
  186POPC   O2121308   4.377   4.256   0.172 -0.5444 -0.2809 -0.5236
  186POPC   C2121309   4.502   4.251   0.145 -0.5355  0.1024 -0.5300
  186POPC   O2221310   4.589   4.186   0.206 -0.0004  0.1974  0.3613
  186POPC   C2221311   4.537   4.316   0.012  0.2264  0.2949  0.0279
  186POPC   H2R21312   4.458   4.295  -0.063 -1.7234  1.3262  1.6890
  186POPC   H2S21313   4.640   4.296  -0.025  0.9619  1.2839  1.4366
  186POPC    C321314   4.292   4.034   0.194 -0.3996 -1.2022 -0.1339
  186POPC    HX21315   4.221   4.047   0.110  0.8400 -0.5358 -1.1174
  186POPC    HY21316   4.232   3.973   0.265  0.3526  0.0327  1.6163
  186POPC   O3121317   4.414   3.962   0.157 -0.0977 -0.3539 -0.2604
  186POPC   C3121318   4.436   3.938   0.032 -0.0919 -1.1159  0.1714
  186POPC   O3221319   4.372   3.983  -0.063  0.3880 -0.0598  0.2403
  186POPC   C3221320   4.564   3.851   0.010  0.2686 -0.6421 -0.1284
  186POPC   H2X21321   4.525   3.748   0.028  0.4634 -0.9700 -1.4862
  186POPC   H2Y21322   4.631   3.863   0.098  0.5027  1.1844 -0.5093
  186POPC   C2321323   4.521   4.469   0.013 -0.1147 -0.4574  0.1787
  186POPC   H3R21324   4.579   4.508  -0.073  0.6331  0.3841  1.0349
  186POPC   H3S21325   4.576   4.519   0.096 -1.3803  0.7330  0.3457
  186POPC   C2421326   4.387   4.530   0.014  0.2612 -0.5439 -0.2429
  186POPC   H4R21327   4.385   4.609   0.092  0.4118 -0.1002 -0.6843
  186POPC   H4S21328   4.305   4.463   0.049  0.0434 -0.6227 -0.8862
  186POPC   C2521329   4.364   4.590  -0.136  1.0127  0.9485  0.0828
  186POPC   H5R21330   4.459   4.636  -0.172  1.2628  0.0523 -0.4598
  186POPC   H5S21331   4.288   4.671  -0.138 -1.4117 -1.1950 -2.6438
  186POPC   C2621332   4.321   4.491  -0.247 -0.3305  0.3182 -0.4674
  186POPC   H6R21333   4.218   4.452  -0.230  0.1590 -1.8291 -1.9480
  186POPC   H6S21334   4.371   4.392  -0.249 -1.2906 -0.2577  1.5893
  186POPC   C2721335   4.325   4.567  -0.380  0.4233  0.0845 -0.0081
  186POPC   H7R21336   4.432   4.591  -0.402 -0.1448 -0.1269 -3.5145
  186POPC   H7S21337   4.273   4.664  -0.364  0.1473 -0.1741  0.6991
  186POPC   C2821338   4.256   4.490  -0.498  0.1879 -0.1815  0.7445
  186POPC   H8R21339   4.150   4.475  -0.466 -0.3689  1.9363  0.0322
  186POPC   H8S21340   4.301   4.388  -0.505  3.3199  1.1117  0.5932
  186POPC   C2921341   4.254   4.578  -0.619  0.8758 -0.6910  0.6533
  186POPC   H9121342   4.270   4.685  -0.598  2.5692 -0.4705 -1.4622
  186POPC  C21021343   4.257   4.533  -0.744 -0.0811  0.2534 -0.0829
  186POPC  H10121344   4.240   4.594  -0.833  0.3814  0.2251 -0.1901
  186POPC  C21121345   4.245   4.391  -0.785  0.0431 -0.0543 -0.3742
  186POPC  H11R21346   4.140   4.378  -0.818  0.6441  0.7544 -2.7941
  186POPC  H11S21347   4.267   4.321  -0.701  1.8155 -0.4077 -1.0910
  186POPC  C21221348   4.339   4.359  -0.898  0.1005 -0.3266  1.2761
  186POPC  H12R21349   4.438   4.406  -0.878 -0.7419  1.1377  2.1737
  186POPC  H12S21350   4.315   4.414  -0.992 -1.4235 -1.4365  0.9835
  186POPC  C21321351   4.346   4.210  -0.947  0.0796 -0.1871  0.6863
  186POPC  H13R21352   4.253   4.181  -1.000  0.6830 -0.5343 -0.1906
  186POPC  H13S21353   4.369   4.148  -0.857  1.2931 -0.9388 -0.1104
  186POPC  C21421354   4.458   4.182  -1.052 -0.1379  0.0442 -0.5705
  186POPC  H14R21355   4.558   4.194  -1.005 -0.4576 -1.6630  0.6360
  186POPC  H14S21356   4.459   4.260  -1.132  0.1259  0.6360 -0.0060
  186POPC  C21521357   4.441   4.053  -1.133 -0.0351 -0.3887  0.1982
  186POPC  H15R21358   4.421   3.975  -1.055  2.7632  0.3822  1.8144
  186POPC  H15S21359   4.537   4.022  -1.178  0.1877  1.9764 -1.0973
  186POPC  C21621360   4.335   4.045  -1.241  0.1117 -0.0016  0.4456
  186POPC  H16R21361   4.240   4.093  -1.210  0.2772  1.6367 -1.3715
  186POPC  H16S21362   4.325   3.938  -1.269  0.8713  0.8038 -3.4574
  186POPC  C21721363   4.383   4.118  -1.368  0.7788 -0.6027 -0.7913
  186POPC  H17R21364   4.471   4.069  -1.414  0.2058 -0.8677 -1.6180
  186POPC  H17S21365   4.423   4.220  -1.344  1.7816 -0.8015 -1.5808
  186POPC  C21821366   4.273   4.144  -1.477  0.6534  0.5271 -0.3124
  186POPC  H18R21367   4.196   4.214  -1.437  0.7208  1.2839 -1.4545
  186POPC  H18S21368   4.227   4.044  -1.495  3.1998 -1.0283  1.3081
  186POPC  H18T21369   4.317   4.184  -1.571  1.4522  0.3322 -0.0309
  186POPC   C3321370   4.639   3.859  -0.135 -0.1488  0.4539 -1.1565
  186POPC   H3X21371   4.565   3.879  -0.215 -2.0503 -1.0011  0.1453
  186POPC   H3Y21372   4.693   3.763  -0.144 -0.1869  0.1705  1.0418
  186POPC   C3421373   4.739   3.974  -0.128  0.6727 -0.4821  0.7670
  186POPC   H4X21374   4.827   3.954  -0.062  0.8148 -2.1244  0.1326
  186POPC   H4Y21375   4.696   4.063  -0.078 -0.3516  0.3908 -1.5304
  186POPC   C3521376   4.801   4.000  -0.271  0.1888  0.0534 -0.1760
  186POPC   H5X21377   4.882   3.928  -0.296  0.0957  0.1449 -0.7505
  186POPC   H5Y21378   4.849   4.099  -0.259  1.6015 -0.7584  1.2556
  186POPC   C3621379   4.707   4.015  -0.394  0.2926 -0.1083  0.2539
  186POPC   H6X21380   4.661   3.917  -0.420 -1.1434  1.3241 -3.1651
  186POPC   H6Y21381   4.778   4.041  -0.475 -0.9041  1.1599 -0.4147
  186POPC   C3721382   4.596   4.121  -0.384 -0.9581 -0.1030 -0.3880
  186POPC   H7X21383   4.553   4.110  -0.282 -0.3335 -1.1817 -0.2241
  186POPC   H7Y21384   4.518   4.079  -0.450  0.7656 -2.5658 -1.0094
  186POPC   C3821385   4.636   4.263  -0.419 -0.2789 -0.6071  0.5555
  186POPC   H8X21386   4.709   4.286  -0.338 -0.5110 -3.1794  1.5733
  186POPC   H8Y21387   4.559   4.338  -0.392 -0.2342 -0.9408  1.7063
  186POPC   C3921388   4.662   4.293  -0.570 -0.2414 -0.0062  0.8736
  186POPC   H9X21389   4.572   4.257  -0.624 -1.2525  5.3794 -1.7011
  186POPC   H9Y21390   4.742   4.219  -0.593  0.0203 -0.2256  2.3622
  186POPC  C31021391   4.724   4.430  -0.602  0.6641 -0.0185  0.9452
  186POPC  H10X21392   4.829   4.427  -0.566  0.8637  0.0686  0.3695
  186POPC  H10Y21393   4.674   4.515  -0.549  0.3580 -0.1675  0.8950
  186POPC  C31121394   4.737   4.444  -0.752  0.8238  0.3527 -0.3851
  186POPC  H11X21395   4.795   4.538  -0.759  2.3825 -0.6098 -0.7747
  186POPC  H11Y21396   4.635   4.446  -0.797  0.8639  1.9961 -0.4824
  186POPC  C31221397   4.808   4.335  -0.829 -0.3239  0.0990 -0.5075
  186POPC  H12X21398   4.765   4.236  -0.805  0.6588  0.4082  3.0938
  186POPC  H12Y21399   4.916   4.326  -0.806  0.1328 -0.7108 -2.7008
  186POPC  C31321400   4.798   4.364  -0.986  0.0995  0.0734 -0.3499
  186POPC  H13X21401   4.828   4.467  -1.015 -0.8455 -0.1425 -2.2071
  186POPC  H13Y21402   4.690   4.368  -1.009 -0.6267 -1.1355  2.4392
  186POPC  C31421403   4.856   4.250  -1.072 -0.0723 -0.1312  0.2875
  186POPC  H14X21404   4.777   4.231  -1.148  0.4165  1.6293 -0.7023
  186POPC  H14Y21405   4.867   4.158  -1.011 -0.7281  0.9741  2.1636
  186POPC  C31521406   4.989   4.283  -1.135  0.3276  0.5086  0.1369
  186POPC  H15X21407   5.058   4.312  -1.053 -2.5763  0.9707  2.5975
  186POPC  H15Y21408   4.970   4.371  -1.201  0.3869  0.3968 -0.0308
  186POPC  C31621409   5.041   4.171  -1.219  0.0421  0.6220  0.2182
  186POPC  H16X21410   5.036   4.072  -1.169  0.5951 -0.5941 -2.0052
  186POPC  H16Y21411   5.146   4.202  -1.238  0.1772 -0.0518 -0.1585
  186POPC  H16Z21412   4.995   4.166  -1.320  0.7504  0.3587 -0.0981
  187POPC     N21413   2.131   4.877   4.175  0.5126 -0.1424  0.2792
  187POPC   C1221414   1.997   4.817   4.194 -0.2432  0.0120  0.6379
  187POPC  H12A21415   1.918   4.884   4.161 -1.9736 -2.7221 -1.1037
  187POPC  H12B21416   1.989   4.806   4.302 -0.7387  0.3675  0.6419
  187POPC   C1321417   2.241   4.779   4.215  0.1601  0.2682  0.0199
  187POPC  H13A21418   2.259   4.777   4.322 -1.5281 -0.8867  0.3376
  187POPC  H13B21419   2.209   4.679   4.190  0.5598  0.5283 -1.6400
  187POPC  H13C21420   2.333   4.802   4.165  0.4517 -0.9197 -0.0265
  187POPC   C1421421   2.171   4.913   4.037  0.0578  0.5917  0.4446
  187POPC  H14A21422   2.093   4.979   4.003  0.6125  2.2609  2.2097
  187POPC  H14B21423   2.274   4.946   4.027  0.2079 -0.5592 -3.2070
  187POPC  H14C21424   2.167   4.824   3.976  0.5007  0.7299  0.2008
  187POPC   C1521425   2.149   4.997   4.263 -0.5499  0.3783  0.1230
  187POPC  H15A21426   2.245   5.039   4.239  0.3374 -1.1926  0.7468
  187POPC  H15B21427   2.139   4.975   4.368 -2.8652 -1.4804 -0.4119
  187POPC  H15C21428   2.076   5.074   4.244 -1.0408  0.2215  1.2702
  187POPC   C1121429   1.954   4.682   4.122  0.3168 -0.6772 -0.5379
  187POPC  H11A21430   1.968   4.701   4.014  2.8670 -0.0781 -0.1926
  187POPC  H11B21431   1.847   4.670   4.147  0.4231  0.8296  0.8257
  187POPC     P21432   2.015   4.503   4.310  0.5032  0.2826  0.0353
  187POPC   O1321433   2.139   4.437   4.361 -0.5523  0.1203  0.1529
  187POPC   O1421434   1.897   4.415   4.291 -0.2621 -0.5470  0.0578
  187POPC   O1221435   2.036   4.569   4.168 -0.0076 -0.3389 -0.5925
  187POPC   O1121436   1.970   4.614   4.410  0.5615  0.0061 -0.7848
  187POPC    C121437   2.057   4.672   4.506 -0.1200  1.0410  0.0807
  187POPC    HA21438   2.056   4.783   4.494 -0.3418  1.1631  1.0897
  187POPC    HB21439   2.161   4.632   4.504 -0.6877 -0.4236 -0.6956
  187POPC    C221440   2.008   4.660   4.652 -0.0119  0.2725 -0.8209
  187POPC    HS21441   1.978   4.553   4.661  1.5067 -0.0109  2.6504
  187POPC   O2121442   1.896   4.748   4.672  0.2310  0.2618  0.8199
  187POPC   C2121443   1.789   4.707   4.742  0.2680 -0.2628 -0.8880
  187POPC   O2221444   1.767   4.594   4.778 -0.9058  0.3874 -0.2496
  187POPC   C2221445   1.704   4.826   4.769 -0.1981 -0.1925 -0.0579
  187POPC   H2R21446   1.651   4.872   4.683  0.3210  2.2434  0.8379
  187POPC   H2S21447   1.776   4.900   4.810 -0.3399 -0.2797  0.3527
  187POPC    C321448   2.118   4.691   4.750  0.3340 -0.2853 -0.6661
  187POPC    HX21449   2.143   4.799   4.741 -0.6253 -0.0091 -0.1283
  187POPC    HY21450   2.215   4.636   4.750  1.0675  0.9705  0.1389
  187POPC   O3121451   2.063   4.667   4.887 -0.2891 -0.2755  0.9049
  187POPC   C3121452   2.036   4.536   4.912 -0.4438 -0.2401 -0.6083
  187POPC   O3221453   2.070   4.443   4.842 -0.1489 -0.1466  0.2858
  187POPC   C3221454   1.961   4.523   5.048  0.2633  0.1134  0.7891
  187POPC   H2X21455   1.858   4.496   5.017  0.5757 -0.7813  0.5257
  187POPC   H2Y21456   1.957   4.615   5.111 -1.0588 -0.2108  1.1924
  187POPC   C2321457   1.600   4.810   4.883  0.8911 -0.0678 -0.2542
  187POPC   H3R21458   1.523   4.742   4.840  1.8085 -1.3987  0.1516
  187POPC   H3S21459   1.552   4.909   4.900 -0.8032 -0.9059  0.1133
  187POPC   C2421460   1.659   4.762   5.012 -0.1083 -0.3438 -0.2058
  187POPC   H4R21461   1.734   4.841   5.036  0.5691 -0.6124 -1.3470
  187POPC   H4S21462   1.699   4.659   5.015  1.0834  0.1039  2.9710
  187POPC   C2521463   1.547   4.764   5.126  0.8417  0.2484  0.1885
  187POPC   H5R21464   1.455   4.709   5.097  0.4359  0.4472  1.0452
  187POPC   H5S21465   1.513   4.869   5.138  2.0604  0.7515 -0.6422
  187POPC   C2621466   1.599   4.707   5.258  0.0460  0.2151  0.4637
  187POPC   H6R21467   1.540   4.745   5.343 -3.0760 -1.0308 -0.9948
  187POPC   H6S21468   1.703   4.740   5.281 -0.1915  0.4439  1.2224
  187POPC   C2721469   1.595   4.552   5.267  0.5670 -0.1762  0.5327
  187POPC   H7R21470   1.657   4.508   5.187  2.4708  4.0451 -0.6324
  187POPC   H7S21471   1.488   4.524   5.256 -0.1701  1.5371  2.5821
  187POPC   C2821472   1.650   4.506   5.404 -0.6419  0.6487  0.2126
  187POPC   H8R21473   1.614   4.570   5.487 -1.0257  0.5319  0.1389
  187POPC   H8S21474   1.761   4.513   5.402 -0.6731  1.0724 -0.0610
  187POPC   C2921475   1.615   4.360   5.419  0.6890 -0.0492  0.0236
  187POPC   H9121476   1.641   4.285   5.343  0.1595  0.2853 -0.4971
  187POPC  C21021477   1.553   4.312   5.531 -0.0538  0.3395 -0.4363
  187POPC  H10121478   1.525   4.206   5.522  0.7270  0.2424 -2.5222
  187POPC  C21121479   1.515   4.375   5.663 -0.1804  0.6445 -0.4668
  187POPC  H11R21480   1.405   4.361   5.672 -0.2988  1.0961 -1.1375
  187POPC  H11S21481   1.532   4.485   5.670 -2.1056  0.9251  0.2704
  187POPC  C21221482   1.592   4.319   5.785 -0.4828 -0.1348 -0.3830
  187POPC  H12R21483   1.566   4.375   5.877  1.2667  1.2324 -0.6706
  187POPC  H12S21484   1.703   4.313   5.788 -0.5165 -0.6089  0.5274
  187POPC  C21321485   1.543   4.174   5.808 -0.3547 -0.3749 -0.1298
  187POPC  H13R21486   1.593   4.118   5.726  1.0446 -0.5623  0.8150
  187POPC  H13S21487   1.432   4.173   5.797 -0.4797 -1.5891  0.9284
  187POPC  C21421488   1.585   4.121   5.950 -0.5470  0.3298 -0.3759
  187POPC  H14R21489   1.565   4.013   5.968  2.1971 -0.2311 -0.3286
  187POPC  H14S21490   1.523   4.177   6.024 -0.7631 -0.1245 -0.2105
  187POPC  C21521491   1.730   4.152   5.986  0.1820 -0.5963  0.2018
  187POPC  H15R21492   1.731   4.257   6.022 -2.0639 -1.4263  2.9595
  187POPC  H15S21493   1.798   4.138   5.898  0.7460 -0.2050  0.5659
  187POPC  C21621494   1.782   4.070   6.105 -0.1281 -0.0003  0.1745
  187POPC  H16R21495   1.883   4.112   6.126  0.3153 -1.0645  0.2321
  187POPC  H16S21496   1.797   3.965   6.071 -1.1914 -0.0644 -0.1277
  187POPC  C21721497   1.704   4.075   6.236 -0.4332 -0.6121 -0.1482
  187POPC  H17R21498   1.602   4.034   6.221 -1.7009  2.3188 -0.3315
  187POPC  H17S21499   1.691   4.179   6.273  0.8927 -1.0307  1.6461
  187POPC  C21821500   1.786   4.018   6.354 -0.3322  0.4766 -0.6281
  187POPC  H18R21501   1.883   4.072   6.363  1.2225 -1.8015 -2.5020
  187POPC  H18S21502   1.795   3.908   6.344  0.2023  0.5670 -1.2238
  187POPC  H18T21503   1.736   4.037   6.452  0.2067 -0.7576 -0.1028
  187POPC   C3321504   2.009   4.398   5.135  0.4065  0.2568  0.5567
  187POPC   H3X21505   1.969   4.403   5.238 -1.3242 -2.6405  0.1579
  187POPC   H3Y21506   2.118   4.380   5.142  0.2132 -1.9276 -0.9867
  187POPC   C3421507   1.939   4.266   5.090 -0.3969  0.5635  0.2284
  187POPC   H4X21508   1.966   4.244   4.985 -1.1004  3.0109 -0.5487
  187POPC   H4Y21509   1.830   4.281   5.109 -0.4201  1.0367 -0.2578
  187POPC   C3521510   1.982   4.149   5.170  0.1731 -0.3545 -0.0500
  187POPC   H5X21511   2.093   4.144   5.171  0.1990 -1.1415 -1.9112
  187POPC   H5Y21512   1.943   4.055   5.124 -2.6588  2.0393 -3.0443
  187POPC   C3621513   1.915   4.142   5.314 -0.2519 -0.6274 -0.4692
  187POPC   H6X21514   1.805   4.137   5.309 -0.1616 -2.3309 -1.5033
  187POPC   H6Y21515   1.934   4.233   5.375 -6.1753  1.3665 -0.9569
  187POPC   C3721516   1.960   4.014   5.385 -0.1906  0.6281  0.2949
  187POPC   H7X21517   2.071   4.018   5.392 -0.1360 -0.5249  0.3758
  187POPC   H7Y21518   1.925   3.932   5.318  1.4181 -0.6195  0.9181
  187POPC   C3821519   1.884   4.012   5.517 -0.4261  0.4647 -0.0075
  187POPC   H8X21520   1.776   3.989   5.505  0.0324 -2.0188  0.1160
  187POPC   H8Y21521   1.889   4.114   5.560  1.5595  0.4002  0.0098
  187POPC   C3921522   1.947   3.902   5.608  0.3752  0.7241 -0.4830
  187POPC   H9X21523   1.940   3.796   5.575 -2.6629  0.6504  0.1583
  187POPC   H9Y21524   1.887   3.902   5.701  1.2279  0.5599  0.0866
  187POPC  C31021525   2.098   3.927   5.638  0.3948 -0.4433  0.3732
  187POPC  H10X21526   2.109   4.037   5.645 -0.4067 -0.2597 -0.9262
  187POPC  H10Y21527   2.155   3.916   5.543 -2.1357 -0.8532 -1.2129
  187POPC  C31121528   2.161   3.852   5.753 -0.5663 -0.9542 -0.4256
  187POPC  H11X21529   2.267   3.886   5.760 -0.1384 -2.2796  0.0271
  187POPC  H11Y21530   2.169   3.743   5.730  2.9577 -1.2907  1.6928
  187POPC  C31221531   2.098   3.883   5.888  0.0111  0.0862 -0.3392
  187POPC  H12X21532   1.997   3.841   5.906  0.5457  0.0739  3.5784
  187POPC  H12Y21533   2.074   3.991   5.880 -0.0269 -0.0017 -1.5705
  187POPC  C31321534   2.185   3.850   6.010  0.2064 -0.2709  0.7197
  187POPC  H13X21535   2.288   3.885   5.985 -0.0507 -0.3494 -0.5525
  187POPC  H13Y21536   2.183   3.741   6.028 -0.5861 -0.3674  0.1005
  187POPC  C31421537   2.145   3.930   6.137  1.0705  0.4994 -0.4828
  187POPC  H14X21538   2.036   3.915   6.147  0.4666  3.2235 -1.8244
  187POPC  H14Y21539   2.152   4.036   6.104 -0.3684 -0.2392 -3.5659
  187POPC  C31521540   2.219   3.886   6.250  0.0152  0.5145 -0.1026
  187POPC  H15X21541   2.329   3.893   6.231  0.2386  3.7398  1.6622
  187POPC  H15Y21542   2.193   3.782   6.279  1.0846  0.6433  1.4703
  187POPC  C31621543   2.195   3.975   6.373  0.7481 -0.5404 -0.1893
  187POPC  H16X21544   2.260   3.938   6.456 -1.3245 -0.1371  1.7073
  187POPC  H16Y21545   2.093   3.961   6.414  0.7636 -1.6428 -0.4962
  187POPC  H16Z21546   2.225   4.078   6.344  3.6244 -1.2119  0.0561
  188POPC     N21547   5.461   2.348   4.503 -0.9267 -0.0343 -0.1236
  188POPC   C1221548   5.485   2.431   4.628 -0.2105 -0.4282 -0.9234
  188POPC  H12A21549   5.388   2.456   4.668 -0.5525 -0.9007 -1.4330
  188POPC  H12B21550   5.534   2.523   4.597 -1.6068  1.2801  1.5934
  188POPC   C1321551   5.358   2.411   4.412 -0.7046  0.1164 -0.1427
  188POPC  H13A21552   5.264   2.418   4.465 -0.3200 -0.4414  0.6302
  188POPC  H13B21553   5.386   2.511   4.381  2.2996 -0.0049  1.6954
  188POPC  H13C21554   5.337   2.353   4.324 -1.3319  0.3078 -0.1242
  188POPC   C1421555   5.583   2.342   4.427  0.6454  0.7083 -0.1392
  188POPC  H14A21556   5.665   2.302   4.486  0.8306  0.2037 -0.7301
  188POPC  H14B21557   5.574   2.270   4.347 -0.3111 -1.2594  1.6356
  188POPC  H14C21558   5.617   2.439   4.395  1.7588 -0.4613 -2.8120
  188POPC   C1521559   5.419   2.209   4.551 -0.2203 -0.2651  0.6964
  188POPC  H15A21560   5.346   2.222   4.630 -1.9032  1.4944 -1.0310
  188POPC  H15B21561   5.508   2.166   4.593 -0.3529 -2.0844 -0.7756
  188POPC  H15C21562   5.383   2.137   4.480 -1.1505 -0.4252  1.3155
  188POPC   C1121563   5.584   2.372   4.738 -0.3190  0.0021 -1.2584
  188POPC  H11A21564   5.551   2.269   4.761 -2.0798  1.0923  1.5992
  188POPC  H11B21565   5.570   2.443   4.822 -0.0069 -2.4332  0.9878
  188POPC     P21566   5.838   2.411   4.781  0.0875  0.3766 -0.6591
  188POPC   O1321567   5.843   2.562   4.776  0.5514  0.0450  0.0214
  188POPC   O1421568   5.959   2.345   4.728 -0.5828 -0.2481 -0.5062
  188POPC   O1221569   5.714   2.378   4.689  0.0085 -0.6858  0.1258
  188POPC   O1121570   5.798   2.365   4.926  0.2229 -0.1890  0.1404
  188POPC    C121571   5.774   2.222   4.951 -0.1887  0.0473 -0.6544
  188POPC    HA21572   5.872   2.172   4.940 -0.1366  0.1605 -0.7073
  188POPC    HB21573   5.695   2.176   4.887  2.2937 -0.5074 -3.5109
  188POPC    C221574   5.719   2.201   5.093  0.7214  0.2783  0.1734
  188POPC    HS21575   5.619   2.249   5.103  1.5216  1.6066  2.5902
  188POPC   O2121576   5.797   2.255   5.197 -0.2199  0.8275  0.0442
  188POPC   C2121577   5.768   2.390   5.225  0.0282 -0.0213  0.2063
  188POPC   O2221578   5.670   2.443   5.172  0.1009 -0.4329 -0.2150
  188POPC   C2221579   5.872   2.458   5.317  0.4226 -0.0074  0.1665
  188POPC   H2R21580   5.810   2.513   5.391  1.4685 -1.3717  2.1676
  188POPC   H2S21581   5.918   2.525   5.241 -0.6826  0.2418 -0.3128
  188POPC    C321582   5.691   2.054   5.125 -0.2473 -0.4718  0.6404
  188POPC    HX21583   5.789   2.007   5.100  1.3768  1.7502  2.4565
  188POPC    HY21584   5.624   1.997   5.057 -0.6633 -1.0496  1.5045
  188POPC   O3121585   5.663   2.035   5.266 -0.0738 -0.2042 -0.4814
  188POPC   C3121586   5.535   2.054   5.284 -0.7473 -0.2965 -0.5257
  188POPC   O3221587   5.461   2.092   5.199  0.1047 -0.2919 -0.0008
  188POPC   C3221588   5.510   2.021   5.431  0.0508  0.1060 -0.2441
  188POPC   H2X21589   5.568   2.098   5.486  0.7063 -1.4568  1.3600
  188POPC   H2Y21590   5.561   1.925   5.453  0.1474 -0.0724 -1.2094
  188POPC   C2321591   5.970   2.378   5.395  0.2523 -0.1874  0.2143
  188POPC   H3R21592   6.050   2.445   5.435 -1.8983  1.8526  1.3436
  188POPC   H3S21593   6.018   2.305   5.327  0.1298 -0.0160 -0.0574
  188POPC   C2421594   5.924   2.315   5.522  0.3681  0.4750 -0.4417
  188POPC   H4R21595   5.856   2.379   5.582  0.2676  0.3218 -0.3937
  188POPC   H4S21596   6.017   2.297   5.581  0.7332 -0.1488 -1.1918
  188POPC   C2521597   5.857   2.176   5.500  0.3878  0.0380  0.1247
  188POPC   H5R21598   5.918   2.120   5.425 -0.5277 -1.8678  0.7174
  188POPC   H5S21599   5.756   2.187   5.454  0.3591 -0.1795  0.1297
  188POPC   C2621600   5.858   2.092   5.624 -0.2879  0.2613 -0.0987
  188POPC   H6R21601   5.958   2.082   5.670 -1.2201 -2.4021  1.5854
  188POPC   H6S21602   5.837   1.985   5.603  2.7629 -0.3832 -0.1960
  188POPC   C2721603   5.757   2.145   5.727 -0.2755  0.7664  0.5888
  188POPC   H7R21604   5.659   2.159   5.677  0.7431  1.7567 -1.2321
  188POPC   H7S21605   5.790   2.248   5.754 -1.4484  1.3188 -0.0591
  188POPC   C2821606   5.731   2.070   5.856 -0.7521  0.3898 -0.0285
  188POPC   H8R21607   5.659   2.137   5.907 -0.2201 -0.6787  2.2410
  188POPC   H8S21608   5.812   2.058   5.930  0.7299 -1.3160 -1.8138
  188POPC   C2921609   5.652   1.943   5.828 -0.1254 -0.2617  0.5115
  188POPC   H9121610   5.659   1.912   5.723  0.7562 -0.2800  0.5627
  188POPC  C21021611   5.587   1.876   5.916  0.0779  0.0665  0.2219
  188POPC  H10121612   5.516   1.798   5.884  0.1496  0.1242 -0.0800
  188POPC  C21121613   5.574   1.916   6.063  0.0283  0.1081  0.0366
  188POPC  H11R21614   5.465   1.935   6.074 -0.6747 -1.8207 -2.7049
  188POPC  H11S21615   5.611   2.020   6.074 -1.0049  0.4954 -0.0622
  188POPC  C21221616   5.619   1.812   6.164 -0.7396 -0.2456 -0.2684
  188POPC  H12R21617   5.561   1.718   6.154  0.0472 -0.5559 -2.3180
  188POPC  H12S21618   5.593   1.851   6.265  0.4030 -0.7269  0.2304
  188POPC  C21321619   5.766   1.787   6.162 -0.6968  0.3766 -1.1733
  188POPC  H13R21620   5.796   1.762   6.058 -1.9478 -0.6483 -1.3054
  188POPC  H13S21621   5.780   1.699   6.228  1.6086  0.7170 -1.1144
  188POPC  C21421622   5.844   1.902   6.223 -0.6882 -0.2368  0.3392
  188POPC  H14R21623   5.814   2.004   6.190  1.2868  0.8450  1.6334
  188POPC  H14S21624   5.953   1.903   6.201 -0.0690  2.3195  2.8936
  188POPC  C21521625   5.841   1.898   6.380 -0.9239  0.3124 -0.1076
  188POPC  H15R21626   5.742   1.911   6.428 -1.5905  0.8554 -1.5424
  188POPC  H15S21627   5.898   1.985   6.419 -1.1330  1.1023 -1.4666
  188POPC  C21621628   5.916   1.773   6.435  0.0622 -0.4116 -0.1387
  188POPC  H16R21629   6.012   1.759   6.382  0.4747  1.4729  0.0441
  188POPC  H16S21630   5.860   1.681   6.405 -1.0476 -0.8276  2.8475
  188POPC  C21721631   5.936   1.775   6.583 -0.0075  0.5457  0.1786
  188POPC  H17R21632   5.847   1.816   6.637 -1.3806 -1.9196 -0.0725
  188POPC  H17S21633   6.015   1.853   6.590  2.0682 -1.0772 -2.8435
  188POPC  C21821634   6.003   1.640   6.633 -0.0969 -0.4397  0.1952
  188POPC  H18R21635   6.041   1.642   6.737 -0.1062 -1.9841  0.2569
  188POPC  H18S21636   6.090   1.599   6.579  0.6296 -0.3725  1.2817
  188POPC  H18T21637   5.931   1.556   6.622 -0.9539  0.4741 -1.7511
  188POPC   C3321638   5.363   2.028   5.478 -0.5644 -0.4215 -0.1810
  188POPC   H3X21639   5.310   1.950   5.419 -0.4501  0.3271 -1.2881
  188POPC   H3Y21640   5.314   2.126   5.463  2.4634  1.7510  2.6391
  188POPC   C3421641   5.364   2.000   5.633 -0.4055  0.3894  0.3668
  188POPC   H4X21642   5.434   2.069   5.685  0.2763 -0.1173  0.1424
  188POPC   H4Y21643   5.398   1.895   5.646 -0.1643  0.3533 -0.5307
  188POPC   C3521644   5.230   2.010   5.706 -0.1527 -0.0423  0.2787
  188POPC   H5X21645   5.258   1.965   5.804 -1.6689  0.0072  0.7663
  188POPC   H5Y21646   5.161   1.943   5.649  1.3412  1.9836 -4.4352
  188POPC   C3621647   5.186   2.152   5.752  0.6863  0.0012  0.2800
  188POPC   H6X21648   5.150   2.211   5.665  1.9278  2.0714  1.1028
  188POPC   H6Y21649   5.281   2.200   5.782 -0.2437  2.1522 -0.0509
  188POPC   C3721650   5.070   2.151   5.856 -0.2483  0.0988 -0.6599
  188POPC   H7X21651   4.981   2.092   5.825  0.5897 -2.6716  1.7205
  188POPC   H7Y21652   5.034   2.257   5.852 -1.8387 -0.3709  0.2386
  188POPC   C3821653   5.102   2.135   6.006 -0.0994 -0.3826 -0.6219
  188POPC   H8X21654   5.148   2.036   6.024 -0.0061 -0.5753 -1.8496
  188POPC   H8Y21655   5.017   2.150   6.075  0.5706  1.5017 -0.1336
  188POPC   C3921656   5.206   2.244   6.050  0.5530 -0.3042  0.4660
  188POPC   H9X21657   5.151   2.335   6.082 -0.3254 -1.3555  2.1169
  188POPC   H9Y21658   5.276   2.272   5.969 -0.4754 -0.2141 -0.4210
  188POPC  C31021659   5.282   2.191   6.165 -0.1054 -0.2462  0.4535
  188POPC  H10X21660   5.321   2.098   6.120  0.4093 -0.5956  1.5779
  188POPC  H10Y21661   5.223   2.165   6.256 -1.6948  1.2859 -0.0644
  188POPC  C31121662   5.405   2.278   6.203  0.4126 -0.2548  0.4620
  188POPC  H11X21663   5.364   2.371   6.248  0.4751  0.4484 -0.8963
  188POPC  H11Y21664   5.462   2.326   6.121 -1.1612 -0.8738 -1.0680
  188POPC  C31221665   5.495   2.224   6.309 -0.0650  0.0580 -1.2976
  188POPC  H12X21666   5.555   2.141   6.267  2.7018 -0.5110  3.2032
  188POPC  H12Y21667   5.437   2.188   6.397  0.6520  0.9235 -0.4642
  188POPC  C31321668   5.596   2.318   6.357  0.3595 -0.2845 -0.3276
  188POPC  H13X21669   5.541   2.400   6.408  0.0315 -0.7186  0.0257
  188POPC  H13Y21670   5.649   2.365   6.272 -1.1271  2.3676  0.0936
  188POPC  C31421671   5.684   2.250   6.458  0.0615 -0.2085  0.0379
  188POPC  H14X21672   5.774   2.312   6.477  0.1584 -0.0812 -0.8163
  188POPC  H14Y21673   5.726   2.161   6.405 -0.6309 -0.1861 -0.5586
  188POPC  C31521674   5.618   2.204   6.585 -0.0057  0.5281  0.0872
  188POPC  H15X21675   5.534   2.138   6.551 -1.3103  1.1879  1.8903
  188POPC  H15Y21676   5.582   2.285   6.651 -0.8787  1.3883 -1.3678
  188POPC  C31621677   5.708   2.111   6.670 -0.3996  0.4347  0.8820
  188POPC  H16X21678   5.684   2.122   6.778  1.8425  1.3433  1.3384
  188POPC  H16Y21679   5.809   2.155   6.657  0.9269 -2.7903 -1.0594
  188POPC  H16Z21680   5.715   2.004   6.639  0.2482  0.1293  2.0284
  189SAPI   C1221681   0.119   1.284   0.766 -0.6626  0.6193  0.2965
  189SAPI    H221682   0.010   1.267   0.762 -0.6854  0.5166  1.1830
  189SAPI    O221683   0.149   1.376   0.871  0.0854 -0.0433  0.0668
  189SAPI   HO221684   0.068   1.389   0.921 -0.3345  0.4377 -0.6992
  189SAPI   C1321685   0.184   1.154   0.794  1.0779 -0.0559  0.3920
  189SAPI    H321686   0.170   1.082   0.710  1.6872 -1.7163  1.6658
  189SAPI    O321687   0.124   1.086   0.908 -0.0855  0.5969 -0.6157
  189SAPI   HO321688   0.150   1.134   0.987  1.2361  0.6880 -1.0833
  189SAPI   C1421689   0.336   1.160   0.816 -0.1087  0.4034  0.3157
  189SAPI    H421690   0.355   1.201   0.917 -0.1954 -0.6961  0.7896
  189SAPI    O421691   0.398   1.029   0.813  0.0545  0.4330 -0.1450
  189SAPI   HO421692   0.484   1.027   0.770  0.6596  0.1629  1.0157
  189SAPI   C1521693   0.406   1.251   0.712 -0.3557  0.2142  0.1832
  189SAPI    H521694   0.448   1.183   0.635  0.1590 -2.4363  2.6023
  189SAPI    O521695   0.527   1.312   0.765 -0.1983 -0.1552  0.3682
  189SAPI   HO521696   0.593   1.302   0.697 -0.4094  1.2701 -0.0811
  189SAPI   C1621697   0.322   1.357   0.641 -0.4087 -0.0092 -0.5477
  189SAPI    H621698   0.331   1.453   0.697 -1.7669 -0.7101  0.9263
  189SAPI    O621699   0.375   1.394   0.516  0.8762  0.3626 -0.3080
  189SAPI   HO621700   0.302   1.387   0.455  1.9933  0.3241 -1.6725
  189SAPI   C1121701   0.176   1.338   0.633 -0.1547 -1.4551  0.1350
  189SAPI    H121702   0.165   1.257   0.558 -0.0471 -0.7395 -0.6638
  189SAPI     P21703   0.041   1.478   0.446  0.1113  0.1854  0.0884
  189SAPI   O1321704   0.143   1.461   0.341  0.1762 -0.0860 -0.1932
  189SAPI   O1421705  -0.022   1.608   0.433 -0.3095 -0.2419  0.2171
  189SAPI   O1221706   0.100   1.454   0.597 -0.1513 -0.1651 -0.0203
  189SAPI   O1121707  -0.073   1.373   0.434  0.2208  0.5817  0.1818
  189SAPI    C121708  -0.050   1.271   0.339 -0.1798  0.3258 -0.0091
  189SAPI    HA21709   0.048   1.219   0.338 -1.5520 -2.5476  2.2473
  189SAPI    HB21710  -0.127   1.196   0.368 -1.4715  1.4314 -0.4620
  189SAPI    C221711  -0.083   1.311   0.187 -0.3781  0.8060  0.3542
  189SAPI    HS21712  -0.013   1.394   0.165 -0.1829  0.2170 -1.3948
  189SAPI   O2121713  -0.220   1.352   0.177 -1.0410 -0.0913 -0.0827
  189SAPI   C2121714  -0.246   1.440   0.078  0.0794  0.1763 -0.2870
  189SAPI   O2221715  -0.174   1.478  -0.011  0.3936  0.5683  0.1558
  189SAPI   C2221716  -0.395   1.480   0.090  0.4015  0.2866 -0.8697
  189SAPI   H2R21717  -0.422   1.477   0.198  0.3581 -2.0008 -0.8908
  189SAPI   H2S21718  -0.404   1.588   0.068  0.2826  0.4075 -0.2578
  189SAPI    C321719  -0.061   1.200   0.093 -0.4445  0.2053  0.0922
  189SAPI    HX21720  -0.108   1.225  -0.005  0.0783  0.1107 -0.1872
  189SAPI    HY21721  -0.123   1.122   0.142  0.6193 -1.5783 -1.2699
  189SAPI   O3121722   0.080   1.155   0.076 -0.1658 -0.2064 -0.4737
  189SAPI   C3121723   0.097   1.050   0.004 -0.7600  0.8600 -0.2584
  189SAPI   O3221724   0.017   0.964  -0.029  0.2999 -0.3400 -0.1542
  189SAPI   C3221725   0.244   1.025  -0.011 -0.1372 -0.0181 -0.7631
  189SAPI   H2X21726   0.275   0.922   0.016  0.4606  0.2634 -0.3696
  189SAPI   H2Y21727   0.309   1.089   0.053 -1.5587 -0.8359  1.6227
  189SAPI   C2321728  -0.490   1.403   0.004  0.0946 -0.4708 -0.6865
  189SAPI   H3R21729  -0.529   1.309   0.050 -1.3064 -0.2595 -1.3702
  189SAPI   H3S21730  -0.433   1.376  -0.088 -0.1847 -0.0220 -0.9968
  189SAPI   C2421731  -0.621   1.486  -0.022 -0.2676  0.0997  0.5025
  189SAPI   H4R21732  -0.666   1.527   0.070  0.9323  0.7099  0.8477
  189SAPI   H4S21733  -0.697   1.414  -0.057  0.1880 -0.4935  0.7155
  189SAPI   C2521734  -0.602   1.609  -0.110  0.1444 -0.4432 -0.6849
  189SAPI   H5R21735  -0.598   1.704  -0.056 -0.3773 -2.1429  2.5756
  189SAPI   C2621736  -0.580   1.605  -0.244  0.1239 -0.5664  0.0608
  189SAPI   H6R21737  -0.555   1.704  -0.285 -0.9248  0.6091  2.1219
  189SAPI   C2721738  -0.568   1.491  -0.334  0.4138  0.1784  0.2047
  189SAPI   H7R21739  -0.660   1.491  -0.398  0.7686  0.2341 -0.3109
  189SAPI   H7S21740  -0.561   1.396  -0.276 -1.1018 -0.4709 -0.5947
  189SAPI   C2821741  -0.448   1.503  -0.421  0.3445  0.2460  0.7604
  189SAPI   H8R21742  -0.348   1.502  -0.376  0.9483 -1.5640 -0.4744
  189SAPI   C2921743  -0.462   1.499  -0.559 -0.3677 -0.5305 -0.2931
  189SAPI   H9R21744  -0.367   1.522  -0.608 -0.7004 -2.1874 -1.8183
  189SAPI  C21021745  -0.587   1.485  -0.642 -0.0428  0.2769 -0.1960
  189SAPI  H10R21746  -0.654   1.568  -0.612  2.1923  1.2933  2.3859
  189SAPI  H10S21747  -0.644   1.395  -0.611  1.0159 -0.8065 -1.2721
  189SAPI  C21121748  -0.570   1.477  -0.791  0.5448  0.0729  0.9830
  189SAPI  H11R21749  -0.580   1.375  -0.832 -1.2855  0.7665 -0.4273
  189SAPI  C21221750  -0.576   1.579  -0.884 -0.0804 -0.2851 -0.0302
  189SAPI  H12R21751  -0.558   1.556  -0.990 -0.5745 -2.4820  0.3054
  189SAPI  C21321752  -0.578   1.727  -0.851  0.7503  0.7493  0.7734
  189SAPI  H13R21753  -0.513   1.746  -0.764  0.4476 -0.6018  1.3198
  189SAPI  H13S21754  -0.676   1.752  -0.804  0.3454  1.2290 -0.2953
  189SAPI  C21421755  -0.555   1.822  -0.963 -0.0311 -0.4976 -0.5583
  189SAPI  H14R21756  -0.459   1.868  -0.935 -0.8514  0.1818  1.2973
  189SAPI  C21521757  -0.615   1.841  -1.081 -0.1829 -0.2785 -0.7865
  189SAPI  H15R21758  -0.564   1.915  -1.144  0.1445  0.6463  0.5204
  189SAPI  C21621759  -0.744   1.770  -1.125  0.2361  0.0268 -0.4755
  189SAPI  H16R21760  -0.825   1.843  -1.146 -0.7577  0.3434  3.6527
  189SAPI  H16S21761  -0.786   1.706  -1.045  1.1783  1.0651  0.9105
  189SAPI  C21721762  -0.714   1.679  -1.239  0.0168  0.3993 -0.0351
  189SAPI  H17R21763  -0.805   1.619  -1.259  0.3806 -0.0809 -0.2725
  189SAPI  H17S21764  -0.638   1.601  -1.218  1.1498  1.8415  1.5640
  189SAPI  C21821765  -0.671   1.751  -1.372 -0.6018 -0.1146  0.1144
  189SAPI  H18R21766  -0.580   1.814  -1.368 -2.5838  2.9927 -0.6031
  189SAPI  H18S21767  -0.753   1.822  -1.395  0.1258  0.1144 -1.9948
  189SAPI  C21921768  -0.659   1.642  -1.484 -0.5003 -0.5728 -0.0173
  189SAPI  H19R21769  -0.763   1.608  -1.502 -0.3864  0.2397 -2.7794
  189SAPI  H19S21770  -0.597   1.559  -1.445 -2.1840 -1.7900  0.1908
  189SAPI  C22021771  -0.601   1.706  -1.621  0.0433  0.6143  0.4133
  189SAPI  H20R21772  -0.644   1.638  -1.697  0.9358 -0.2955  0.7142
  189SAPI  H20S21773  -0.492   1.696  -1.641  0.1941  3.3095 -0.4953
  189SAPI  H20T21774  -0.638   1.810  -1.635  0.4403  0.5752 -1.1563
  189SAPI   C3321775   0.294   1.038  -0.161  0.7676 -0.0518 -0.7516
  189SAPI   H3X21776   0.405   1.030  -0.159  0.6785 -1.2002  0.7742
  189SAPI   H3Y21777   0.274   1.139  -0.204 -0.2589  0.7765  1.5299
  189SAPI   C3421778   0.230   0.928  -0.238 -0.4369 -0.2439  1.2103
  189SAPI   H4X21779   0.121   0.938  -0.255 -0.6650 -2.7055  0.9654
  189SAPI   H4Y21780   0.249   0.825  -0.200 -0.2160 -0.0934  1.5191
  189SAPI   C3521781   0.278   0.917  -0.385  0.5093  0.0058 -0.3716
  189SAPI   H5X21782   0.387   0.929  -0.402  0.3939  3.0711  0.5265
  189SAPI   H5Y21783   0.241   1.009  -0.434 -1.0750  0.0565  0.8434
  189SAPI   C3621784   0.221   0.791  -0.459  0.1227 -0.2225 -0.5580
  189SAPI   H6X21785   0.118   0.767  -0.424 -0.1122 -0.1104 -1.1645
  189SAPI   H6Y21786   0.283   0.703  -0.432  0.8448  0.5226  0.2715
  189SAPI   C3721787   0.215   0.810  -0.605 -0.6165  0.3727  0.1317
  189SAPI   H7X21788   0.321   0.815  -0.638 -0.5596 -2.3003 -0.2686
  189SAPI   H7Y21789   0.160   0.902  -0.636  2.3140  1.4787 -2.2521
  189SAPI   C3821790   0.170   0.687  -0.691 -0.1783 -0.1567 -0.3847
  189SAPI   H8X21791   0.061   0.678  -0.677 -0.1067 -2.3552 -0.9612
  189SAPI   H8Y21792   0.223   0.595  -0.659  0.7408  0.8746  1.2178
  189SAPI   C3921793   0.176   0.724  -0.846  0.1119  0.0466  0.4236
  189SAPI   H9X21794   0.281   0.744  -0.876  0.3575 -0.5566  0.8647
  189SAPI   H9Y21795   0.128   0.823  -0.858  1.1101  0.7469  1.9231
  189SAPI  C31021796   0.112   0.627  -0.948 -0.8123  0.0010  0.0420
  189SAPI  H10X21797   0.003   0.614  -0.936 -0.9649 -0.3209 -1.5625
  189SAPI  H10Y21798   0.160   0.528  -0.931 -0.7299 -0.3668 -2.0647
  189SAPI  C31121799   0.157   0.650  -1.089  0.1886  0.6809  0.1088
  189SAPI  H11X21800   0.268   0.659  -1.093  0.3155 -0.9009 -0.6922
  189SAPI  H11Y21801   0.118   0.749  -1.118  1.4519  1.0400 -0.4208
  189SAPI  C31221802   0.119   0.537  -1.191 -0.0557 -1.0057  0.5972
  189SAPI  H12X21803   0.009   0.518  -1.188 -0.9659  2.6099 -2.4643
  189SAPI  H12Y21804   0.185   0.449  -1.179  1.6573  0.1849  0.1542
  189SAPI  C31321805   0.129   0.588  -1.344  0.1596  0.0003  0.2881
  189SAPI  H13X21806   0.102   0.695  -1.355  1.7048  0.1884 -2.7195
  189SAPI  H13Y21807   0.067   0.523  -1.409  0.4685 -1.6107  1.5286
  189SAPI  C31421808   0.275   0.577  -1.391 -0.1894 -0.1278  0.0728
  189SAPI  H14X21809   0.298   0.468  -1.395 -0.8741 -0.2323 -1.3960
  189SAPI  H14Y21810   0.341   0.624  -1.314 -0.5920 -1.9200  1.6111
  189SAPI  C31521811   0.305   0.638  -1.531 -0.1018 -0.0361 -0.2492
  189SAPI  H15X21812   0.409   0.612  -1.561  0.3555  1.3333  0.1077
  189SAPI  H15Y21813   0.291   0.746  -1.511 -1.2236 -0.0756 -0.7271
  189SAPI  C31621814   0.216   0.591  -1.648 -0.2464  0.6325  0.6083
  189SAPI  H16X21815   0.110   0.611  -1.620 -0.0295  0.4758  1.5846
  189SAPI  H16Y21816   0.222   0.480  -1.651 -1.4806  0.5622 -0.1091
  189SAPI  C31721817   0.262   0.646  -1.781 -0.0240 -0.4321  0.4083
  189SAPI  H17X21818   0.372   0.653  -1.788 -0.0282  0.4042  0.9913
  189SAPI  H17Y21819   0.219   0.748  -1.789 -0.8339 -0.9280 -2.8419
  189SAPI  C31821820   0.197   0.564  -1.892 -0.1502 -0.3788 -0.4089
  189SAPI  H18X21821   0.252   0.467  -1.892 -0.8733 -0.8530  2.2171
  189SAPI  H18Y21822   0.192   0.614  -1.991 -2.7862 -0.0564 -0.1808
  189SAPI  H18Z21823   0.090   0.548  -1.865  0.2209  0.7131  1.9663
  190SAPI   C1221824   1.586   3.753   0.182 -0.6223  0.7801  0.1824
  190SAPI    H221825   1.549   3.663   0.128  2.9468 -2.6579  2.8368
  190SAPI    O221826   1.728   3.739   0.197 -0.0107 -0.0340 -0.2587
  190SAPI   HO221827   1.734   3.667   0.261 -0.6334 -1.2595 -1.5267
  190SAPI   C1321828   1.544   3.880   0.109 -0.6446  0.4996 -0.3898
  190SAPI    H321829   1.434   3.891   0.124 -0.4573  2.5600 -0.2821
  190SAPI    O321830   1.571   3.876  -0.031 -0.0739  0.1570  0.1817
  190SAPI   HO321831   1.555   3.965  -0.063  0.4334 -0.8174 -3.0900
  190SAPI   C1421832   1.602   4.004   0.180 -1.0981  0.6755 -0.0271
  190SAPI    H421833   1.713   3.998   0.187 -1.0820  1.6730  0.7104
  190SAPI    O421834   1.581   4.125   0.111  0.1072 -0.3951 -0.2510
  190SAPI   HO421835   1.543   4.196   0.163 -0.7270  0.2221 -1.6524
  190SAPI   C1521836   1.552   4.003   0.326  0.7181 -0.0612  0.1581
  190SAPI    H521837   1.441   4.009   0.319  0.7606  1.6337  0.6233
  190SAPI    O521838   1.596   4.121   0.395  0.6732 -0.2721  0.3381
  190SAPI   HO521839   1.690   4.116   0.410  0.9513  0.3384 -0.9931
  190SAPI   C1621840   1.587   3.875   0.404  1.0740 -0.4714  0.2863
  190SAPI    H621841   1.698   3.872   0.412  1.3885  2.7621 -1.1749
  190SAPI    O621842   1.537   3.881   0.539 -0.3050  0.0787  0.1905
  190SAPI   HO621843   1.475   3.808   0.544 -1.1299  0.7425 -0.2480
  190SAPI   C1121844   1.533   3.749   0.329 -0.3923  0.6683  0.4911
  190SAPI    H121845   1.423   3.758   0.313 -0.3858 -0.0128  0.0113
  190SAPI     P21846   1.465   3.555   0.481  0.1891  0.1141 -0.4173
  190SAPI   O1321847   1.376   3.661   0.543 -0.4904 -0.3116 -0.1961
  190SAPI   O1421848   1.537   3.469   0.573 -0.5366  0.0185 -0.1328
  190SAPI   O1221849   1.574   3.627   0.384 -0.0592  0.3163 -0.1400
  190SAPI   O1121850   1.380   3.470   0.373 -0.0800 -0.0887  0.4636
  190SAPI    C121851   1.449   3.373   0.294  0.2280 -0.6039  0.5039
  190SAPI    HA21852   1.558   3.380   0.310  0.1424 -2.3275  2.1610
  190SAPI    HB21853   1.412   3.271   0.315  0.2763 -0.3063  2.1121
  190SAPI    C221854   1.411   3.401   0.141 -0.3913 -0.0405  0.7995
  190SAPI    HS21855   1.441   3.504   0.109  0.5260 -0.7959 -0.9441
  190SAPI   O2121856   1.271   3.376   0.134 -0.0367 -0.9656  0.0616
  190SAPI   C2121857   1.196   3.495   0.114  0.2909  0.3846 -0.7560
  190SAPI   O2221858   1.240   3.606   0.108  0.3521 -0.5089 -0.1809
  190SAPI   C2221859   1.045   3.456   0.102  0.6528 -0.0681 -0.4523
  190SAPI   H2R21860   1.036   3.361   0.160  2.4523  0.2639  0.4586
  190SAPI   H2S21861   0.982   3.534   0.149 -0.3510 -0.1772 -1.5984
  190SAPI    C321862   1.501   3.309   0.054  0.1626  0.4296  0.2120
  190SAPI    HX21863   1.504   3.209   0.102 -0.9170  0.6655  0.8058
  190SAPI    HY21864   1.606   3.343   0.062  0.2854  0.1805 -0.2708
  190SAPI   O3121865   1.472   3.313  -0.086  0.4507 -0.2636 -0.0921
  190SAPI   C3121866   1.370   3.244  -0.129 -0.0333  0.2283  0.4496
  190SAPI   O3221867   1.292   3.172  -0.073 -0.4995  0.3089  0.2390
  190SAPI   C3221868   1.374   3.270  -0.282 -0.4821  0.2619  0.1794
  190SAPI   H2X21869   1.481   3.269  -0.311 -0.3379 -2.6458  0.4904
  190SAPI   H2Y21870   1.335   3.374  -0.277 -0.2786  0.3145  0.7511
  190SAPI   C2321871   1.010   3.446  -0.048  0.4006 -0.2128  0.2874
  190SAPI   H3R21872   1.076   3.367  -0.090  1.0175  0.7291 -0.5476
  190SAPI   H3S21873   1.049   3.532  -0.105  3.9834 -1.2060  0.9384
  190SAPI   C2421874   0.864   3.414  -0.080 -0.0722  0.0611 -0.1484
  190SAPI   H4R21875   0.861   3.415  -0.192 -1.5597 -2.2405 -0.2074
  190SAPI   H4S21876   0.793   3.495  -0.053  0.0921 -0.2852  1.4184
  190SAPI   C2521877   0.818   3.285  -0.019 -0.5723  0.6858  0.0374
  190SAPI   H5R21878   0.831   3.265   0.088  0.6265 -2.5265 -0.6153
  190SAPI   C2621879   0.788   3.181  -0.093  0.3677  1.1165 -0.1230
  190SAPI   H6R21880   0.764   3.082  -0.052  1.7044 -0.9107 -3.8287
  190SAPI   C2721881   0.779   3.167  -0.248  0.0864 -0.2097 -0.2212
  190SAPI   H7R21882   0.771   3.267  -0.296  0.1608  0.2439  0.6867
  190SAPI   H7S21883   0.687   3.110  -0.274 -0.4475  1.1145 -1.3460
  190SAPI   C2821884   0.888   3.080  -0.307  0.2987  0.1338 -0.5231
  190SAPI   H8R21885   0.971   3.057  -0.239  0.9179 -1.3243 -1.6963
  190SAPI   C2921886   0.905   3.042  -0.428  0.0614  0.1569  0.2103
  190SAPI   H9R21887   0.993   2.995  -0.474 -1.3919 -2.0909 -0.4368
  190SAPI  C21021888   0.812   3.075  -0.544  0.4145  0.3618 -0.1092
  190SAPI  H10R21889   0.714   3.050  -0.498  1.0817  1.4953  2.0526
  190SAPI  H10S21890   0.828   3.002  -0.626 -0.1968 -0.1567  0.2276
  190SAPI  C21121891   0.819   3.211  -0.604  0.1169 -0.5270 -0.2030
  190SAPI  H11R21892   0.854   3.289  -0.535 -1.0536 -0.4241  0.2915
  190SAPI  C21221893   0.792   3.248  -0.730 -0.2112 -0.5143 -0.2643
  190SAPI  H12R21894   0.818   3.348  -0.769 -2.0732 -0.5049 -1.6042
  190SAPI  C21321895   0.750   3.161  -0.842 -0.7020  0.0098  0.4591
  190SAPI  H13R21896   0.712   3.237  -0.913 -0.8663  1.5634  2.1394
  190SAPI  H13S21897   0.663   3.096  -0.819 -2.4248  1.8915 -0.4141
  190SAPI  C21421898   0.858   3.080  -0.912  0.1865  0.8008 -0.8728
  190SAPI  H14R21899   0.949   3.070  -0.851  0.6165  2.9301 -1.0675
  190SAPI  C21521900   0.856   3.008  -1.022 -0.3248 -0.5978  0.8316
  190SAPI  H15R21901   0.949   2.959  -1.052  2.0091  4.0523 -0.4660
  190SAPI  C21621902   0.751   2.996  -1.125 -0.1652  0.1915  0.5192
  190SAPI  H16R21903   0.658   3.049  -1.094 -0.3556  0.2022 -0.0654
  190SAPI  H16S21904   0.720   2.892  -1.145 -0.9437  0.0763  2.1615
  190SAPI  C21721905   0.778   3.056  -1.269  0.0873  0.0458 -0.0327
  190SAPI  H17R21906   0.867   3.008  -1.314  0.7359  2.2925 -1.3275
  190SAPI  H17S21907   0.809   3.161  -1.251 -0.9757  0.0433  2.0781
  190SAPI  C21821908   0.658   3.058  -1.354  0.0862 -0.0776 -0.3822
  190SAPI  H18R21909   0.584   3.123  -1.303  1.2271  0.7862  0.2329
  190SAPI  H18S21910   0.616   2.956  -1.360 -0.5528  0.1894 -0.4797
  190SAPI  C21921911   0.689   3.106  -1.497  0.1346 -0.6839 -0.7269
  190SAPI  H19R21912   0.757   3.193  -1.505  1.1562 -1.3296  0.6576
  190SAPI  H19S21913   0.589   3.119  -1.544 -1.2833 -1.9769  1.7551
  190SAPI  C22021914   0.761   2.990  -1.576 -0.0758  0.0643  0.5889
  190SAPI  H20R21915   0.732   2.886  -1.547  1.8216 -0.5936  0.2797
  190SAPI  H20S21916   0.868   3.006  -1.553  0.2074  0.6265 -0.9549
  190SAPI  H20T21917   0.754   3.017  -1.684 -0.1364 -1.5746  0.1444
  190SAPI   C3321918   1.286   3.178  -0.369 -0.0900 -0.3952 -0.9583
  190SAPI   H3X21919   1.177   3.187  -0.348 -0.2773  2.6702 -2.6534
  190SAPI   H3Y21920   1.321   3.075  -0.346  2.0421  0.7697  1.4625
  190SAPI   C3421921   1.314   3.208  -0.514 -0.1485  0.2818  0.2906
  190SAPI   H4X21922   1.422   3.198  -0.538 -0.5163 -2.7051 -0.4575
  190SAPI   H4Y21923   1.283   3.311  -0.544 -1.0704  0.7567  2.6245
  190SAPI   C3521924   1.253   3.096  -0.609 -0.8427 -0.6593  0.0707
  190SAPI   H5X21925   1.143   3.113  -0.603 -0.3002  3.3577  2.9059
  190SAPI   H5Y21926   1.284   3.001  -0.561  3.3543  2.4205  4.2302
  190SAPI   C3621927   1.295   3.096  -0.756  0.7670 -0.3932 -0.1960
  190SAPI   H6X21928   1.245   3.012  -0.809 -0.1624 -0.0444  0.1035
  190SAPI   H6Y21929   1.406   3.099  -0.762  0.8568 -0.6354  1.0882
  190SAPI   C3721930   1.235   3.215  -0.835  0.6149 -0.1200 -0.3118
  190SAPI   H7X21931   1.289   3.309  -0.809  2.7606 -1.0811 -1.1147
  190SAPI   H7Y21932   1.127   3.225  -0.808  0.9807 -0.7813  1.5187
  190SAPI   C3821933   1.248   3.190  -0.980 -0.5022  0.3806  0.6252
  190SAPI   H8X21934   1.184   3.104  -1.011 -0.3182  0.8978 -1.3397
  190SAPI   H8Y21935   1.353   3.166  -1.005 -0.8094 -0.9130  0.4861
  190SAPI   C3921936   1.203   3.314  -1.070  0.0317 -0.5753 -0.4070
  190SAPI   H9X21937   1.276   3.396  -1.051  0.6810 -1.5750  1.6605
  190SAPI   H9Y21938   1.110   3.358  -1.029  0.1855  2.5505 -2.9553
  190SAPI  C31021939   1.179   3.294  -1.220  0.5124  0.2582  0.0533
  190SAPI  H10X21940   1.156   3.187  -1.234  3.8490 -0.6397  0.5975
  190SAPI  H10Y21941   1.268   3.310  -1.284  0.7601  1.3919  0.6388
  190SAPI  C31121942   1.063   3.387  -1.276 -0.1678 -0.3804 -0.0102
  190SAPI  H11X21943   1.072   3.494  -1.248 -2.6264 -0.7304  2.4928
  190SAPI  H11Y21944   0.966   3.356  -1.233  0.0815  0.5907  1.3211
  190SAPI  C31221945   1.054   3.382  -1.428  0.3477 -0.2280 -0.1412
  190SAPI  H12X21946   0.949   3.414  -1.447  0.3852  0.4979  0.7959
  190SAPI  H12Y21947   1.065   3.281  -1.472 -0.6477 -0.1330 -0.6446
  190SAPI  C31321948   1.145   3.473  -1.507 -0.1610  0.3369  0.1681
  190SAPI  H13X21949   1.249   3.436  -1.497 -0.2459  0.1317  0.3019
  190SAPI  H13Y21950   1.133   3.576  -1.468 -1.0452 -0.4953  2.2039
  190SAPI  C31421951   1.114   3.483  -1.661  0.4013  0.5452 -0.1520
  190SAPI  H14X21952   1.185   3.555  -1.708  2.9847 -2.0784 -0.5296
  190SAPI  H14Y21953   1.010   3.519  -1.678 -0.1222 -1.2627 -1.0032
  190SAPI  C31521954   1.115   3.350  -1.742  1.4295 -0.7584  0.3124
  190SAPI  H15X21955   1.042   3.271  -1.714  0.0613  0.1900 -0.4053
  190SAPI  H15Y21956   1.211   3.300  -1.719  1.1112 -1.0922  0.9629
  190SAPI  C31621957   1.087   3.377  -1.882  0.6013 -0.7056  0.4328
  190SAPI  H16X21958   1.120   3.285  -1.935  1.1590 -2.2899  3.3665
  190SAPI  H16Y21959   1.158   3.457  -1.911 -0.4778  0.3540  0.6170
  190SAPI  C31721960   0.954   3.434  -1.914 -0.3116  0.6177 -0.5490
  190SAPI  H17X21961   0.949   3.444  -2.024 -0.8554  1.2539 -0.4711
  190SAPI  H17Y21962   0.945   3.538  -1.875  2.2909  0.7099  0.0440
  190SAPI  C31821963   0.836   3.348  -1.868  0.0393  0.0368  0.1116
  190SAPI  H18X21964   0.739   3.401  -1.884  1.2893  2.3986 -0.0432
  190SAPI  H18Y21965   0.831   3.324  -1.760 -1.6562  1.6240  0.4298
  190SAPI  H18Z21966   0.824   3.252  -1.923  0.3408 -1.3816  2.3745
  191SAPI   C1221967   0.644   4.458   4.472 -0.4005  0.7657  0.3353
  191SAPI    H221968   0.690   4.453   4.573 -2.0014  3.6480  1.3182
  191SAPI    O221969   0.509   4.498   4.489  0.2977 -0.7744  0.3497
  191SAPI   HO221970   0.458   4.422   4.460  0.1361  0.1438 -1.9981
  191SAPI   C1321971   0.723   4.556   4.396 -0.7288 -0.2557  0.0516
  191SAPI    H321972   0.819   4.513   4.360 -2.7445 -2.4132 -3.3280
  191SAPI    O321973   0.741   4.673   4.483 -0.1093 -0.0295  0.7955
  191SAPI   HO321974   0.654   4.693   4.518 -0.3495  0.8094 -0.2303
  191SAPI   C1421975   0.650   4.595   4.270  0.5049 -0.4425 -0.1208
  191SAPI    H421976   0.554   4.646   4.294 -0.1438 -1.1608 -1.0620
  191SAPI    O421977   0.716   4.702   4.198  0.2294  0.4311  0.0439
  191SAPI   HO421978   0.709   4.781   4.252 -1.1366 -0.2372  0.8959
  191SAPI   C1521979   0.614   4.474   4.178 -0.2430 -0.0993  0.4157
  191SAPI    H521980   0.707   4.451   4.121 -1.1417 -0.3229 -1.0366
  191SAPI    O521981   0.520   4.499   4.071  0.2628 -0.5654 -0.3358
  191SAPI   HO521982   0.435   4.469   4.103  0.5691 -0.0438  1.0254
  191SAPI   C1621983   0.591   4.345   4.258  0.5734 -0.3668  0.4218
  191SAPI    H621984   0.482   4.336   4.279  0.5697 -0.5069  0.3440
  191SAPI    O621985   0.617   4.227   4.186 -0.3517  0.8519  0.8570
  191SAPI   HO621986   0.593   4.150   4.240  1.5760 -0.9970 -0.7484
  191SAPI   C1121987   0.650   4.331   4.396 -0.1597  0.4953  0.1007
  191SAPI    H121988   0.759   4.312   4.381 -0.4876 -0.9966 -0.5486
  191SAPI     P21989   0.678   4.145   4.580  0.0614  0.1393 -0.1427
  191SAPI   O1321990   0.820   4.146   4.540  0.2490 -0.3000 -0.2557
  191SAPI   O1421991   0.618   4.011   4.585  0.7544  0.0743 -0.6401
  191SAPI   O1221992   0.582   4.227   4.465  0.2776 -0.2806  0.5233
  191SAPI   O1121993   0.653   4.225   4.711 -0.1247 -0.0946 -0.0754
  191SAPI    C121994   0.669   4.160   4.839  1.6255 -0.5407  0.5296
  191SAPI    HA21995   0.601   4.211   4.910  3.0808  1.5644  0.4932
  191SAPI    HB21996   0.654   4.050   4.838  2.2339 -0.6309 -0.7422
  191SAPI    C221997   0.809   4.192   4.899  0.3727  0.4791  0.3700
  191SAPI    HS21998   0.880   4.128   4.842 -2.6614 -1.8884 -1.0536
  191SAPI   O2121999   0.801   4.168   5.038 -0.3178 -0.1394 -0.3719
  191SAPI   C2122000   0.914   4.130   5.087 -0.6065 -0.0978  1.0884
  191SAPI   O2222001   1.016   4.083   5.034 -0.2593 -0.3215 -0.0942
  191SAPI   C2222002   0.892   4.131   5.237  0.3105 -0.5193 -0.5350
  191SAPI   H2R22003   0.868   4.235   5.268  0.5604 -0.6698  0.1545
  191SAPI   H2S22004   0.805   4.067   5.265 -0.5096  1.6571  2.4541
  191SAPI    C322005   0.850   4.343   4.876 -0.1910 -0.2349  0.2326
  191SAPI    HX22006   0.782   4.413   4.930  0.2300  1.2579 -1.0813
  191SAPI    HY22007   0.839   4.357   4.766  0.9677 -0.7706  0.0266
  191SAPI   O3122008   0.995   4.363   4.914  0.3035  0.1625  0.2612
  191SAPI   C3122009   1.037   4.490   4.927  0.3540  0.0219  0.4666
  191SAPI   O3222010   0.978   4.591   4.898  0.1412  0.7883 -0.3274
  191SAPI   C3222011   1.171   4.485   4.998 -0.0748 -0.1391 -0.1839
  191SAPI   H2X22012   1.240   4.533   4.925  1.3581 -3.2798 -1.0563
  191SAPI   H2Y22013   1.199   4.381   5.027  0.6943  0.9751  3.7554
  191SAPI   C2322014   1.019   4.087   5.316  0.0541  0.4195 -0.2831
  191SAPI   H3R22015   1.094   4.169   5.306 -0.7157  1.2260  0.3479
  191SAPI   H3S22016   1.068   4.000   5.268  2.7975 -0.8444  4.1913
  191SAPI   C2422017   0.994   4.057   5.469 -0.2300  0.1912  0.1519
  191SAPI   H4R22018   0.913   3.981   5.470 -0.0055 -0.1313 -1.9121
  191SAPI   H4S22019   0.966   4.154   5.516  1.0804  2.2435 -2.9392
  191SAPI   C2522020   1.123   4.015   5.535 -0.2732  0.3316 -0.8167
  191SAPI   H5R22021   1.186   3.951   5.472 -1.3994 -1.8584  0.1376
  191SAPI   C2622022   1.171   4.055   5.654 -0.4651  0.0033 -0.2547
  191SAPI   H6R22023   1.273   4.027   5.683 -0.1940  0.4275 -0.7872
  191SAPI   C2722024   1.094   4.122   5.764 -0.3839  0.5231 -0.5372
  191SAPI   H7R22025   1.001   4.165   5.722 -0.7711 -0.3633 -0.6106
  191SAPI   H7S22026   1.160   4.206   5.792 -1.6977  0.5635  2.8679
  191SAPI   C2822027   1.056   4.036   5.881  0.6675  0.0810 -0.7579
  191SAPI   H8R22028   0.969   3.975   5.854 -0.5739  1.9762 -1.2623
  191SAPI   C2922029   1.101   4.037   6.007  0.1590  0.1669 -0.0879
  191SAPI   H9R22030   1.062   3.966   6.082  0.8870  0.2232  0.3522
  191SAPI  C21022031   1.214   4.126   6.053 -0.1986  0.1561  0.0277
  191SAPI  H10R22032   1.190   4.234   6.056 -4.5458 -0.6287 -0.3225
  191SAPI  H10S22033   1.304   4.127   5.987  0.3221  1.0815  0.7200
  191SAPI  C21122034   1.276   4.078   6.185  0.4193  0.2296 -0.1767
  191SAPI  H11R22035   1.362   4.010   6.180 -0.8040 -1.4817  0.9753
  191SAPI  C21222036   1.238   4.139   6.299  1.2042 -0.1975 -0.7265
  191SAPI  H12R22037   1.279   4.121   6.399 -1.5317 -1.9695  0.1786
  191SAPI  C21322038   1.123   4.224   6.317  0.0988  0.0393  0.5721
  191SAPI  H13R22039   1.076   4.181   6.408  2.9549 -0.1441  2.0759
  191SAPI  H13S22040   1.052   4.217   6.231  0.3269  0.3092  0.3603
  191SAPI  C21422041   1.145   4.372   6.341 -0.7594  0.0139  0.0796
  191SAPI  H14R22042   1.196   4.418   6.256 -0.9001 -0.0860 -0.0598
  191SAPI  C21522043   1.103   4.459   6.438 -0.1492  0.6641 -0.7579
  191SAPI  H15R22044   1.138   4.562   6.456  0.4832  0.0335  2.1137
  191SAPI  C21622045   1.026   4.406   6.555  0.2639  0.7312  0.1139
  191SAPI  H16R22046   0.952   4.329   6.523 -0.6037  1.8653 -0.7036
  191SAPI  H16S22047   0.966   4.494   6.589  1.8261  1.6217  0.6422
  191SAPI  C21722048   1.116   4.351   6.671  0.3021 -0.4097  0.2189
  191SAPI  H17R22049   1.188   4.431   6.698 -1.5062  1.9351 -1.5153
  191SAPI  H17S22050   1.185   4.273   6.632 -0.0608 -0.7810  0.3155
  191SAPI  C21822051   1.043   4.323   6.803 -0.0091  0.1722  0.1591
  191SAPI  H18R22052   0.980   4.409   6.833  0.0240  0.8163 -1.5213
  191SAPI  H18S22053   1.121   4.310   6.881 -0.7639  1.0473  1.0879
  191SAPI  C21922054   0.977   4.186   6.804  0.3913 -0.1777  0.3423
  191SAPI  H19R22055   1.044   4.112   6.755  0.2838  0.3400 -0.6039
  191SAPI  H19S22056   0.884   4.192   6.743  0.8707  0.0406 -0.3808
  191SAPI  C22022057   0.945   4.141   6.944 -0.0641 -0.5386  0.1063
  191SAPI  H20R22058   1.016   4.172   7.024 -0.5385 -0.0584  0.3489
  191SAPI  H20S22059   0.946   4.030   6.947  0.3655 -0.5194  0.8961
  191SAPI  H20T22060   0.842   4.173   6.970 -0.2124  1.2373 -2.3528
  191SAPI   C3322061   1.175   4.561   5.135  1.0998  0.1736 -0.3035
  191SAPI   H3X22062   1.119   4.655   5.116 -0.0068 -0.6340 -1.1257
  191SAPI   H3Y22063   1.281   4.582   5.163  1.3952  2.6633 -2.8334
  191SAPI   C3422064   1.082   4.495   5.243 -0.0045 -0.4902 -0.4254
  191SAPI   H4X22065   1.120   4.393   5.268 -1.9389 -0.9156  1.0100
  191SAPI   H4Y22066   0.985   4.488   5.190 -0.2983 -2.3116  0.2493
  191SAPI   C3522067   1.071   4.570   5.370 -0.4842  0.2133 -0.1737
  191SAPI   H5X22068   0.972   4.540   5.410 -0.4257 -0.5143 -0.5416
  191SAPI   H5Y22069   1.069   4.680   5.352  2.8342  0.3794 -0.1235
  191SAPI   C3622070   1.184   4.543   5.469  0.3222  0.3120 -0.5039
  191SAPI   H6X22071   1.275   4.590   5.427 -0.7485  1.9657 -1.0836
  191SAPI   H6Y22072   1.203   4.434   5.464  1.4619  0.4847 -0.3266
  191SAPI   C3722073   1.149   4.596   5.607  0.1357  0.0282  0.2360
  191SAPI   H7X22074   1.078   4.681   5.599 -0.2380 -0.4089 -1.8477
  191SAPI   H7Y22075   1.243   4.620   5.661 -0.8025  1.0160  1.4607
  191SAPI   C3822076   1.069   4.492   5.689 -0.4065 -0.3997  0.0116
  191SAPI   H8X22077   1.133   4.401   5.691  0.9778  0.4932 -1.3638
  191SAPI   H8Y22078   0.976   4.473   5.632  0.6748 -1.9317 -1.3560
  191SAPI   C3922079   1.021   4.549   5.823 -0.0777  0.2165  0.1449
  191SAPI   H9X22080   0.951   4.633   5.806  0.9323  1.0366 -0.0214
  191SAPI   H9Y22081   1.107   4.586   5.883  0.6302  0.0450 -0.7395
  191SAPI  C31022082   0.949   4.438   5.904 -0.2480 -0.2205 -0.0265
  191SAPI  H10X22083   1.023   4.359   5.930  0.2722 -0.0611 -0.9691
  191SAPI  H10Y22084   0.876   4.398   5.830 -1.2817 -0.4329  1.0841
  191SAPI  C31122085   0.890   4.487   6.031  0.1320  0.2436 -0.7815
  191SAPI  H11X22086   0.831   4.576   6.001 -1.1147 -0.4226 -0.3901
  191SAPI  H11Y22087   0.974   4.534   6.086 -0.0200  0.2789 -0.5786
  191SAPI  C31222088   0.810   4.392   6.118 -0.0564 -0.5731  0.5858
  191SAPI  H12X22089   0.868   4.299   6.134 -0.4499 -1.5530 -2.8772
  191SAPI  H12Y22090   0.719   4.363   6.061  0.2254 -0.3052 -0.0036
  191SAPI  C31322091   0.758   4.451   6.250 -0.1574  0.2419  0.3958
  191SAPI  H13X22092   0.705   4.549   6.245 -1.2421 -0.3425 -0.0006
  191SAPI  H13Y22093   0.840   4.451   6.325  1.7700  0.2298 -1.6056
  191SAPI  C31422094   0.645   4.356   6.296  0.3007  0.2903 -0.6395
  191SAPI  H14X22095   0.704   4.263   6.312 -2.9708 -1.6206  1.3696
  191SAPI  H14Y22096   0.564   4.348   6.221 -0.7205 -0.1707  0.4909
  191SAPI  C31522097   0.592   4.393   6.441  0.2003  0.6784  0.3522
  191SAPI  H15X22098   0.679   4.447   6.485  0.8508 -0.7395  0.8811
  191SAPI  H15Y22099   0.559   4.302   6.494 -0.8166  0.8625  0.0467
  191SAPI  C31622100   0.469   4.494   6.443 -0.3679  0.5288 -0.6328
  191SAPI  H16X22101   0.389   4.463   6.371 -0.4587 -0.9599  0.0669
  191SAPI  H16Y22102   0.505   4.591   6.402  0.4009  0.0551 -1.1089
  191SAPI  C31722103   0.418   4.514   6.588 -0.5011  0.1196 -0.0236
  191SAPI  H17X22104   0.496   4.537   6.663  0.0617  0.4853 -0.7046
  191SAPI  H17Y22105   0.377   4.419   6.628  0.1858 -0.2156 -0.0989
  191SAPI  C31822106   0.319   4.636   6.595 -0.1719  0.2247  0.6276
  191SAPI  H18X22107   0.278   4.658   6.696 -0.8201  0.5763  0.2892
  191SAPI  H18Y22108   0.233   4.621   6.526 -0.5016 -2.0910  1.4370
  191SAPI  H18Z22109   0.366   4.730   6.559 -0.7903  0.3138  0.0396
  192SAPI   C1222110   3.553   4.650   4.102 -0.2590 -0.1829  0.5209
  192SAPI    H222111   3.656   4.691   4.093 -0.8788  1.4373  0.4139
  192SAPI    O222112   3.462   4.737   4.029  0.0273 -0.5851 -0.1762
  192SAPI   HO222113   3.451   4.806   4.095 -0.0959 -2.4769  1.9173
  192SAPI   C1322114   3.553   4.511   4.067  0.0445 -1.0789  0.0326
  192SAPI    H322115   3.622   4.459   4.137  1.1830 -0.2319 -0.4291
  192SAPI    O322116   3.602   4.479   3.937 -0.0393 -0.6114 -0.0626
  192SAPI   HO322117   3.685   4.430   3.939  0.5280  0.3173 -0.4550
  192SAPI   C1422118   3.413   4.439   4.089  0.2103 -0.2691  1.1230
  192SAPI    H422119   3.346   4.476   4.009  0.4418 -0.0460  1.0324
  192SAPI    O422120   3.422   4.294   4.082 -0.1197  0.4542 -0.0643
  192SAPI   HO422121   3.336   4.261   4.055  0.2307 -0.5767  0.0242
  192SAPI   C1522122   3.348   4.483   4.221  0.4350 -1.1984 -0.0014
  192SAPI    H522123   3.388   4.414   4.299  3.1253  0.9799  0.6930
  192SAPI    O522124   3.213   4.449   4.208  0.1783  0.4278 -0.3473
  192SAPI   HO522125   3.193   4.365   4.250 -0.9960  0.3897 -0.9401
  192SAPI   C1622126   3.389   4.616   4.290  0.1746  0.2466 -0.2351
  192SAPI    H622127   3.316   4.690   4.251  0.8495  0.9537 -0.1763
  192SAPI    O622128   3.369   4.614   4.431  0.1310 -0.2700 -0.3483
  192SAPI   HO622129   3.295   4.676   4.435  0.7140  0.6296 -2.2884
  192SAPI   C1122130   3.526   4.674   4.249 -0.0181  0.4440  0.3269
  192SAPI    H122131   3.603   4.618   4.306  1.7292  1.1546 -1.2387
  192SAPI     P22132   3.641   4.894   4.380 -0.1288 -0.0510 -0.1442
  192SAPI   O1322133   3.650   5.038   4.334 -0.0710  0.1701  0.6478
  192SAPI   O1422134   3.770   4.814   4.405 -0.1274  0.6699  0.2120
  192SAPI   O1222135   3.542   4.809   4.281 -0.0981  0.0058  0.5823
  192SAPI   O1122136   3.557   4.894   4.514 -0.8085 -0.0664  0.6388
  192SAPI    C122137   3.571   4.807   4.623  0.0090  0.9188 -0.3989
  192SAPI    HA22138   3.476   4.755   4.647  0.7958  0.2243  1.4438
  192SAPI    HB22139   3.640   4.722   4.599  0.0515  1.4634 -2.3907
  192SAPI    C222140   3.630   4.870   4.754 -0.1126 -0.0629  0.7973
  192SAPI    HS22141   3.667   4.783   4.811  1.2783 -0.4038 -0.5791
  192SAPI   O2122142   3.526   4.948   4.819  0.1664 -0.0181  0.8977
  192SAPI   C2122143   3.504   4.916   4.939  0.0110  0.1810  0.4054
  192SAPI   O2222144   3.553   4.826   5.007  0.7095 -0.0232 -0.0391
  192SAPI   C2222145   3.414   5.022   5.003 -0.3253 -0.3394  0.1055
  192SAPI   H2R22146   3.339   5.035   4.922 -0.3211 -0.6555  0.0520
  192SAPI   H2S22147   3.353   4.978   5.084  0.6227 -2.3453 -0.2227
  192SAPI    C322148   3.751   4.958   4.725 -0.6013 -0.5443 -0.4245
  192SAPI    HX22149   3.723   5.047   4.666 -0.0469 -0.1542 -0.1069
  192SAPI    HY22150   3.814   4.896   4.658  1.6077 -0.4420  1.4208
  192SAPI   O3122151   3.822   5.000   4.844  0.6224  0.0109 -0.1388
  192SAPI   C3122152   3.931   4.930   4.876  0.1614 -0.2383 -0.1638
  192SAPI   O3222153   3.973   4.838   4.811 -0.7505 -0.0410  0.0231
  192SAPI   C3222154   3.980   4.978   5.009  0.2401 -0.9860 -0.3160
  192SAPI   H2X22155   3.900   5.007   5.081  1.6372  1.1749  0.4312
  192SAPI   H2Y22156   4.055   5.059   5.001 -0.5658 -0.1419  0.4322
  192SAPI   C2322157   3.478   5.168   5.008 -0.1411  0.6854  0.2853
  192SAPI   H3R22158   3.539   5.180   4.915 -1.0861 -0.4870 -0.5202
  192SAPI   H3S22159   3.551   5.174   5.092  1.7790  0.4407 -1.2800
  192SAPI   C2422160   3.376   5.279   5.006 -0.5415  0.2646  0.0889
  192SAPI   H4R22161   3.311   5.272   4.916  4.2184 -0.8658 -3.6540
  192SAPI   H4S22162   3.430   5.376   5.017  0.5939 -0.4276  0.8415
  192SAPI   C2522163   3.285   5.259   5.131  0.0342  0.2154 -0.5553
  192SAPI   H5R22164   3.243   5.160   5.152 -1.0330  0.9681  1.1320
  192SAPI   C2622165   3.257   5.361   5.223 -0.0269  0.1300  0.1671
  192SAPI   H6R22166   3.213   5.337   5.321  0.1306  1.9170  0.7025
  192SAPI   C2722167   3.301   5.502   5.207 -0.7930  0.0814 -0.5125
  192SAPI   H7R22168   3.227   5.570   5.253 -1.5126 -1.4372  0.6517
  192SAPI   H7S22169   3.314   5.537   5.102 -2.2539  0.2698 -0.6471
  192SAPI   C2822170   3.440   5.507   5.275  0.1703 -0.0239  0.1986
  192SAPI   H8R22171   3.519   5.451   5.222 -0.9276 -0.8061 -0.6653
  192SAPI   C2922172   3.461   5.601   5.370 -0.3168  0.0289  0.2021
  192SAPI   H9R22173   3.561   5.613   5.413 -1.0674  1.9848  1.5208
  192SAPI  C21022174   3.363   5.696   5.428  0.3376  0.2916  0.4688
  192SAPI  H10R22175   3.281   5.641   5.479  0.8294  0.7054  1.7519
  192SAPI  H10S22176   3.329   5.764   5.348  0.7827  0.1762  0.1760
  192SAPI  C21122177   3.431   5.785   5.529 -0.0968  0.4481  0.3524
  192SAPI  H11R22178   3.467   5.883   5.492 -3.9950  1.5347 -1.0603
  192SAPI  C21222179   3.457   5.766   5.662  0.4087 -0.1267 -0.2058
  192SAPI  H12R22180   3.528   5.837   5.707 -0.2520  0.5235 -0.1689
  192SAPI  C21322181   3.417   5.646   5.741  0.0165  0.1341  0.3522
  192SAPI  H13R22182   3.368   5.569   5.677  2.8259  0.9537 -3.1635
  192SAPI  H13S22183   3.340   5.681   5.812  1.6346 -0.3178  2.4347
  192SAPI  C21422184   3.548   5.592   5.805  0.3289 -0.1155  0.8125
  192SAPI  H14R22185   3.650   5.621   5.776  0.0053  1.7683  1.4222
  192SAPI  C21522186   3.531   5.508   5.903 -0.1047  0.2653  0.4097
  192SAPI  H15R22187   3.626   5.463   5.934  0.8697  1.3379 -0.8997
  192SAPI  C21622188   3.404   5.445   5.956  0.6246  0.1506  0.4001
  192SAPI  H16R22189   3.418   5.335   5.968  0.0905  0.1093  0.6570
  192SAPI  H16S22190   3.314   5.450   5.892  0.0432  0.8312  1.2459
  192SAPI  C21722191   3.368   5.492   6.098 -0.0714 -0.3373 -0.5600
  192SAPI  H17R22192   3.267   5.455   6.125  0.4224 -0.8413  0.6819
  192SAPI  H17S22193   3.361   5.603   6.097 -2.5361 -0.4340  0.0845
  192SAPI  C21822194   3.471   5.436   6.207  0.1586  0.0492  0.5098
  192SAPI  H18R22195   3.577   5.456   6.183 -0.2863 -0.2479 -2.0328
  192SAPI  H18S22196   3.458   5.326   6.197  3.3775 -0.3037 -1.1541
  192SAPI  C21922197   3.440   5.497   6.335  0.5005  0.2781 -0.2734
  192SAPI  H19R22198   3.343   5.462   6.377  1.6791 -3.1038 -0.0264
  192SAPI  H19S22199   3.453   5.607   6.334 -0.9951  0.4976  0.7341
  192SAPI  C22022200   3.545   5.443   6.440 -0.1654 -0.8766 -0.5667
  192SAPI  H20R22201   3.551   5.503   6.533  1.4024 -0.5594 -0.8565
  192SAPI  H20S22202   3.647   5.465   6.401  0.1729 -1.0214  0.2259
  192SAPI  H20T22203   3.541   5.334   6.459 -0.2805 -0.9760 -1.1233
  192SAPI   C3322204   4.056   4.862   5.081 -0.0028  0.7275 -0.6899
  192SAPI   H3X22205   4.122   4.803   5.014 -0.0686  0.2324 -0.3286
  192SAPI   H3Y22206   3.988   4.793   5.135  2.0669  0.0488  1.1964
  192SAPI   C3422207   4.151   4.912   5.191 -0.1167  0.5817 -0.4479
  192SAPI   H4X22208   4.081   4.944   5.271 -0.8638  1.9762 -1.6030
  192SAPI   H4Y22209   4.199   5.005   5.154  0.2882  0.2697 -0.7120
  192SAPI   C3522210   4.262   4.810   5.223  0.0648 -0.3568 -0.7954
  192SAPI   H5X22211   4.361   4.823   5.174  1.6741 -0.5676  2.1392
  192SAPI   H5Y22212   4.207   4.719   5.191 -0.4088  0.1022 -1.3159
  192SAPI   C3622213   4.298   4.791   5.372  0.4447 -0.5006  0.1101
  192SAPI   H6X22214   4.346   4.883   5.411 -0.7683 -0.1385  0.8108
  192SAPI   H6Y22215   4.372   4.708   5.383  0.8017 -0.0088  1.6696
  192SAPI   C3722216   4.188   4.741   5.460 -0.8282 -1.0720 -0.3160
  192SAPI   H7X22217   4.142   4.649   5.416  1.4486 -1.2707 -2.5052
  192SAPI   H7Y22218   4.110   4.820   5.453 -2.1441 -2.3923 -1.2818
  192SAPI   C3822219   4.221   4.723   5.610 -0.1804 -0.1082 -0.4721
  192SAPI   H8X22220   4.329   4.699   5.617  0.6742  3.5582  1.7076
  192SAPI   H8Y22221   4.173   4.640   5.667  0.4939 -0.9049 -1.0421
  192SAPI   C3922222   4.204   4.853   5.690  1.1045 -0.1501  0.2797
  192SAPI   H9X22223   4.104   4.878   5.731  1.6419  0.0761  1.5184
  192SAPI   H9Y22224   4.245   4.932   5.623  1.6418 -1.1158 -0.5455
  192SAPI  C31022225   4.281   4.846   5.819 -0.5931  0.1993  0.8644
  192SAPI  H10X22226   4.392   4.842   5.806 -0.8149 -0.9558 -0.8623
  192SAPI  H10Y22227   4.253   4.757   5.879  2.2408 -1.0058  0.5677
  192SAPI  C31122228   4.251   4.962   5.923  0.2292  0.0101  0.0679
  192SAPI  H11X22229   4.141   4.974   5.926  0.1481 -0.7026  0.2309
  192SAPI  H11Y22230   4.299   5.051   5.878  1.0907  0.0744  1.0791
  192SAPI  C31222231   4.300   4.953   6.069 -0.0717  0.7822  0.0397
  192SAPI  H12X22232   4.411   4.960   6.068 -0.0840  1.5440 -1.9595
  192SAPI  H12Y22233   4.265   4.856   6.110 -1.1603 -0.2753 -3.0605
  192SAPI  C31322234   4.253   5.071   6.164 -0.8150 -0.3837  0.0128
  192SAPI  H13X22235   4.317   5.056   6.253 -1.0369 -2.1321 -0.0925
  192SAPI  H13Y22236   4.147   5.055   6.195 -0.8140 -0.0880  0.1775
  192SAPI  C31422237   4.279   5.211   6.110 -0.1063  0.2634  1.4792
  192SAPI  H14X22238   4.193   5.236   6.043 -0.6312 -0.6401  1.7983
  192SAPI  H14Y22239   4.372   5.223   6.051 -0.5819  0.7704  0.8175
  192SAPI  C31522240   4.271   5.314   6.222  0.5299  0.7143  0.3559
  192SAPI  H15X22241   4.281   5.416   6.178  2.1942  0.5661  0.3314
  192SAPI  H15Y22242   4.362   5.296   6.283 -0.5872 -1.3664  1.5285
  192SAPI  C31622243   4.150   5.299   6.311 -0.1465 -0.8186  0.3284
  192SAPI  H16X22244   4.157   5.213   6.381 -0.1192  0.5834  2.1353
  192SAPI  H16Y22245   4.066   5.272   6.243  0.3921 -1.7067  0.0074
  192SAPI  C31722246   4.119   5.420   6.402  0.5155 -0.4401  0.6959
  192SAPI  H17X22247   4.092   5.508   6.340  0.5414 -0.1707  1.0656
  192SAPI  H17Y22248   4.209   5.455   6.456  0.4262  0.5015  0.2571
  192SAPI  C31822249   4.014   5.386   6.506  0.5051 -0.5235  0.8093
  192SAPI  H18X22250   3.981   5.489   6.532  1.2611  0.3029 -1.2582
  192SAPI  H18Y22251   4.053   5.333   6.595 -2.3626 -2.6928  0.9144
  192SAPI  H18Z22252   3.924   5.336   6.463 -0.4831  0.9813  1.0758
  193SOD    SOD22253   3.752   4.392   4.672 -0.1030 -0.1029  0.6339
  194SOD    SOD22254   0.144   3.200   3.927  0.1865 -0.4342 -0.0718
  195SOD    SOD22255   2.262   5.377   3.931 -0.0553  0.0996 -0.0166
  196SOD    SOD22256   3.792   4.758   1.210  0.2979 -0.1959 -0.0412
  197SOD    SOD22257   4.612   6.259   0.746  0.1729  0.3921  0.2776
  198SOD    SOD22258   1.827   1.102   1.552  0.7624  0.0486  0.0611
  199SOD    SOD22259   5.789   1.508   3.577  0.2361 -0.3172  0.2823
  200SOD    SOD22260   1.165   5.104   0.962 -0.4041  0.0871  0.2215
  201SOD    SOD22261   4.625   4.261   3.191 -0.6385  0.5084 -0.3764
  202SOD    SOD22262   6.167   5.201   3.138 -0.1695 -0.0608 -0.5547
  203SOD    SOD22263   6.281   0.647   3.776 -0.1488 -0.5005  0.0153
  204SOD    SOD22264   1.831   1.522   0.369 -0.1014  0.0494  0.1072
  205SOD    SOD22265   1.863   4.809   1.849 -0.1197 -0.0542  0.1482
  206SOD    SOD22266   5.535   2.211   0.492  0.4668  0.0382  0.0357
  207SOD    SOD22267   1.873   4.601   2.466 -0.0884  0.4250 -0.2481
  208SOD    SOD22268   6.618   1.963   3.575 -0.0172  0.0857  0.0852
  209SOD    SOD22269   1.534   2.875   0.631  0.1189 -0.0044  0.4018
  210SOD    SOD22270   1.954   2.378   2.252  0.1289 -0.3044  0.4083
  211SOD    SOD22271   0.181   5.021   2.691 -0.1766 -0.3107 -0.0659
  212SOD    SOD22272   0.458   2.870   3.148  0.3501 -0.0941 -0.4125
  213SOD    SOD22273   1.085   6.410   1.693  0.1143 -0.3809  0.2315
  214SOD    SOD22274   1.425   0.157   1.134  0.6649  0.3853  0.2320
  215SOD    SOD22275   6.711   3.405   4.370 -0.0141 -0.0178 -0.5658
  216SOD    SOD22276   2.307   3.051   4.408  0.0352  0.3324  0.2119
  217SOD    SOD22277   1.457   0.554   3.329  0.1451  0.1279  0.0596
  218SOD    SOD22278   1.956   1.303   3.876 -0.0391 -0.1494 -0.0156
  219SOD    SOD22279   2.230   2.280   0.009 -0.7299  0.3101  0.1114
  220SOD    SOD22280   3.604   4.455   0.310  0.4248 -0.2565  0.2778
  221SOD    SOD22281   2.832   4.213   0.145  0.4487  0.2126 -0.0412
  222SOD    SOD22282   4.247   1.264   2.627 -0.3861 -0.0349  0.2723
  223SOD    SOD22283   0.918   1.963   1.663 -0.2650 -0.3149 -0.2491
  224SOD    SOD22284   1.036   3.172   4.303 -0.4341 -0.0930  0.4470
  225SOD    SOD22285   6.292   2.431   1.152  0.7575 -0.5428 -0.2059
  226SOD    SOD22286   3.303   3.297   2.884  0.0694 -0.0945 -0.1094
  227SOD    SOD22287   0.175   4.903   1.337 -0.0435  0.1220  0.1436
  228SOD    SOD22288   0.870   0.945   0.290 -0.0759  0.2162 -0.1283
  229SOD    SOD22289   4.850   5.356   1.558 -0.3809  0.2069  0.0882
  230SOD    SOD22290   3.188   2.237   1.163  0.7732 -0.0620  0.2164
  231SOD    SOD22291   4.647   1.575   2.683 -0.2210 -0.0689  0.5103
  232SOD    SOD22292   0.295   2.993   1.130  0.0762  0.0359 -0.4474
  233SOD    SOD22293   4.724   0.825   0.533 -0.0673  0.4664  0.4404
  234CLA    CLA22294   2.083   3.815   1.037  0.0817 -0.0264 -0.2682
  235CLA    CLA22295   4.007   3.462   3.048 -0.0420  0.3018 -0.2555
  236CLA    CLA22296   1.115   1.529   0.995 -0.2229  0.2161 -0.2506
  237CLA    CLA22297   6.528   4.471   1.390 -0.3767 -0.3270  0.3643
  238CLA    CLA22298   0.784   2.546   2.515  0.5400 -0.4381 -0.1490
  239CLA    CLA22299   1.712   0.060   0.749  0.3281  0.2090 -0.2753
  240CLA    CLA22300   2.347   3.507   1.316 -0.1414 -0.1312  0.5137
  241CLA    CLA22301   1.956   1.424   3.623  0.3017  0.0248  0.2510
  242CLA    CLA22302   0.087   2.462   2.773 -0.1191 -0.1792 -0.3534
  243CLA    CLA22303   4.010   4.658   3.793  0.1465 -0.0907 -0.3152
  244CLA    CLA22304   2.926   5.212   0.947  0.5057  0.2750 -0.0897
  245CLA    CLA22305   2.330   2.267   2.866  0.1037 -0.0281 -0.3098
  246CLA    CLA22306   6.763   5.687   2.271  0.1424 -0.0153  0.0959
  247CLA    CLA22307   0.999   5.392   1.685 -0.1945 -0.6258  0.2523
  248CLA    CLA22308   4.074   4.306   2.325  0.4379 -0.2328  0.0038
  249CLA    CLA22309   3.431   2.415   3.075  0.0083 -0.0182 -0.0565
  250CLA    CLA22310   4.125   5.741   2.964 -0.1591 -0.1994 -0.3396
  251TIP3   OH222311   3.075   3.109   1.157  0.0732 -0.4717  0.5666
  251TIP3    H122312   3.031   3.193   1.163  0.4566 -0.3606  1.9924
  251TIP3    H222313   3.011   3.046   1.191 -0.9568 -1.0911 -2.2280
  252TIP3   OH222314   0.484   0.763   1.675  0.0375 -0.2914  0.2926
  252TIP3    H122315   0.514   0.701   1.610 -0.7272 -0.3310 -0.0344
  252TIP3    H222316   0.476   0.846   1.628  0.7175 -0.0225  0.6431
  253TIP3   OH222317   0.449   2.839   2.933  0.3062 -0.2114  0.3426
  253TIP3    H122318   0.452   2.912   2.871  0.9902  0.4087  1.0809
  253TIP3    H222319   0.425   2.763   2.880 -0.7547  0.6022 -0.3793
  254TIP3   OH222320   2.219   6.472   0.842 -0.6276 -0.4494 -0.3033
  254TIP3    H122321   2.284   6.405   0.862  0.7024  0.9511  0.2994
  254TIP3    H222322   2.250   6.513   0.762 -0.3878  0.6529  0.3266
  255TIP3   OH222323   1.724   5.250   2.071  0.2705 -0.0880 -1.1902
  255TIP3    H122324   1.761   5.242   1.983  1.4404  1.6757 -0.9198
  255TIP3    H222325   1.787   5.305   2.118 -0.1674 -1.2443  0.8639
  256TIP3   OH222326   3.506   6.034   1.215  0.8912  0.4314 -0.2408
  256TIP3    H122327   3.466   5.963   1.166  1.2051  1.9993 -2.9801
  256TIP3    H222328   3.540   5.993   1.295 -1.1919 -1.9373 -0.4754
  257TIP3   OH222329   1.697   0.698   2.121 -1.0644 -0.2470  0.4173
  257TIP3    H122330   1.621   0.645   2.098 -2.3140  1.2896  0.7848
  257TIP3    H222331   1.664   0.757   2.189  1.0629 -1.0027  2.1894
  258TIP3   OH222332   5.517   4.002   4.118  0.2043  0.0076 -0.0085
  258TIP3    H122333   5.487   4.023   4.206  1.6279 -0.9696  0.7298
  258TIP3    H222334   5.611   4.017   4.120  0.7378 -2.7695 -0.4972
  259TIP3   OH222335   6.464   4.837   3.196  0.1374  0.3562  0.0549
  259TIP3    H122336   6.549   4.798   3.220 -0.3821 -0.2889  0.9148
  259TIP3    H222337   6.431   4.781   3.126 -0.5443 -0.7316  1.1944
  260TIP3   OH222338   3.640   2.201   0.429 -0.1361 -0.5000 -0.1126
  260TIP3    H122339   3.659   2.285   0.387  1.7550 -2.2824 -3.2335
  260TIP3    H222340   3.551   2.211   0.463 -1.0176  1.9547 -2.7112
  261TIP3   OH222341   3.609   1.678   2.230  0.2652 -0.0610 -0.2964
  261TIP3    H122342   3.675   1.649   2.167  0.6995  0.7775 -0.2467
  261TIP3    H222343   3.651   1.668   2.316  0.3097  0.3968 -0.2595
  262TIP3   OH222344   6.720   1.007   3.237  0.1893 -0.4417 -0.1833
  262TIP3    H122345   6.715   1.049   3.151 -0.4221  1.7190  0.8242
  262TIP3    H222346   6.812   1.015   3.263  0.3103 -0.8149 -0.4874
  263TIP3   OH222347   1.065   3.571   4.555 -0.2776 -0.1725  0.2767
  263TIP3    H122348   0.980   3.563   4.597 -0.0524  0.9521  0.9920
  263TIP3    H222349   1.085   3.665   4.558  0.4315 -0.2543 -1.0090
  264TIP3   OH222350   6.079   5.085   1.985 -0.0189  0.6179 -0.5559
  264TIP3    H122351   5.999   5.067   2.035  0.6158  1.6779  0.8982
  264TIP3    H222352   6.083   5.180   1.980  1.6865  0.6301  0.3369
  265TIP3   OH222353   1.012   2.308   3.632  0.0139  0.2519 -0.2088
  265TIP3    H122354   1.041   2.303   3.541 -0.5536  3.6359 -0.7261
  265TIP3    H222355   1.094   2.311   3.682  0.4012  0.6158 -0.8377
  266TIP3   OH222356   0.530   6.732   0.056 -0.2154  0.2626  0.1142
  266TIP3    H122357   0.577   6.673   0.115 -1.9338 -1.3172 -0.0311
  266TIP3    H222358   0.574   6.817   0.067  0.1806 -0.2170  2.8639
  267TIP3   OH222359   5.820   3.747   0.764 -0.0710  0.7088  0.6545
  267TIP3    H122360   5.814   3.666   0.714  0.5838  0.8975  0.2514
  267TIP3    H222361   5.906   3.743   0.806 -0.6364  0.5282  1.8241
  268TIP3   OH222362   4.165   4.201   0.830 -0.3910  0.4181 -0.3842
  268TIP3    H122363   4.208   4.236   0.908 -0.0287  0.7589 -0.7265
  268TIP3    H222364   4.183   4.267   0.762  0.3267 -0.4392 -1.0573
  269TIP3   OH222365   6.474   2.107   4.064 -0.3616  0.3463 -0.6888
  269TIP3    H122366   6.389   2.100   4.020  0.2960 -0.0501 -1.9543
  269TIP3    H222367   6.477   2.196   4.098 -1.4975  0.1924 -0.1418
  270TIP3   OH222368   4.778   4.623   3.322  0.0478  0.0675  0.5260
  270TIP3    H122369   4.740   4.657   3.403 -2.3101 -1.0529 -0.0490
  270TIP3    H222370   4.710   4.568   3.284  1.9093 -1.2409 -1.1139
  271TIP3   OH222371   3.695   0.758   0.186 -0.6376 -0.0561 -0.4719
  271TIP3    H122372   3.654   0.689   0.239  1.6725 -1.6849 -0.6838
  271TIP3    H222373   3.674   0.839   0.233  0.3569 -1.3227  2.3684
  272TIP3   OH222374   4.585   1.369   3.248 -0.5116 -0.1332  0.0472
  272TIP3    H122375   4.571   1.283   3.288  1.0219 -0.2679  0.3619
  272TIP3    H222376   4.678   1.370   3.224 -0.5471  1.3581 -0.1448
  273TIP3   OH222377   3.330   6.743   0.853 -0.5325 -0.0878  0.8401
  273TIP3    H122378   3.271   6.683   0.898  1.1234 -1.1918  1.6015
  273TIP3    H222379   3.404   6.689   0.826  0.2642  1.3092  0.1216
  274TIP3   OH222380   2.700   2.685   3.051 -0.6509 -0.2959  0.0387
  274TIP3    H122381   2.769   2.752   3.051 -0.4304 -0.5126  1.0937
  274TIP3    H222382   2.722   2.629   2.976  1.5674 -1.6026  1.5529
  275TIP3   OH222383   1.521   5.461   1.942  0.0460 -0.0266 -0.1972
  275TIP3    H122384   1.458   5.521   1.903 -0.6570 -0.6143 -0.0006
  275TIP3    H222385   1.472   5.419   2.013  0.5697 -0.7105 -0.2329
  276TIP3   OH222386   2.362   2.024   3.721  0.5197 -0.3272 -0.7658
  276TIP3    H122387   2.380   1.939   3.761  0.5017 -0.0060 -0.0730
  276TIP3    H222388   2.447   2.050   3.684  0.7738 -0.1712 -0.0766
  277TIP3   OH222389   4.611   5.797   8.555  0.2099  0.5786 -0.1495
  277TIP3    H122390   4.580   5.863   8.492  0.1375  1.1527  0.4796
  277TIP3    H222391   4.666   5.846   8.616  1.0978 -0.1579 -0.3392
  278TIP3   OH222392   0.922   5.759   1.343 -0.1354 -0.1379  0.2459
  278TIP3    H122393   0.876   5.752   1.259 -0.3101  1.0247  0.2321
  278TIP3    H222394   0.977   5.681   1.347  1.2534  0.6772 -1.7728
  279TIP3   OH222395   4.798   4.282   2.564 -0.1543 -0.4186  0.0147
  279TIP3    H122396   4.724   4.241   2.607 -0.4990  0.6089  0.4273
  279TIP3    H222397   4.761   4.360   2.521  0.8348  0.7146  1.1175
  280TIP3   OH222398   1.679   4.456   1.541 -0.0184  0.0881  0.4332
  280TIP3    H122399   1.698   4.363   1.554 -2.4991 -0.8499 -1.7300
  280TIP3    H222400   1.765   4.498   1.542  1.1301 -2.0727  2.1950
  281TIP3   OH222401   0.699   3.087   1.167 -0.5023 -0.3289 -0.0897
  281TIP3    H122402   0.783   3.086   1.213 -0.3714  0.1429 -0.3105
  281TIP3    H222403   0.693   3.000   1.127  0.7606  0.2519 -1.6347
  282TIP3   OH222404   5.455   5.911   0.075 -0.1098  0.2988  0.3266
  282TIP3    H122405   5.477   5.833   0.127 -3.1613 -1.4519 -0.7153
  282TIP3    H222406   5.512   5.906  -0.002 -0.1813 -0.8841  0.3330
  283TIP3   OH222407   2.158   1.883   2.151 -0.3091  0.4592  0.0219
  283TIP3    H122408   2.163   1.863   2.245  1.2730  0.3255 -0.0571
  283TIP3    H222409   2.176   1.976   2.145 -0.6463  0.5155 -0.1361
  284TIP3   OH222410   5.009   6.308   3.666  0.0637  0.4323  0.0109
  284TIP3    H122411   5.005   6.344   3.578  1.8499 -2.7207 -1.5345
  284TIP3    H222412   5.100   6.281   3.677 -0.3083 -0.0727  2.4712
  285TIP3   OH222413   1.793   2.124   2.561  0.4541  0.7040  1.0459
  285TIP3    H122414   1.819   2.156   2.647  1.5359  0.2013  0.9205
  285TIP3    H222415   1.846   2.046   2.547 -1.7454 -0.9183  1.1450
  286TIP3   OH222416   3.411   4.776   1.297  0.0820  0.1123 -0.1892
  286TIP3    H122417   3.389   4.732   1.215  1.2098 -0.8075 -0.0262
  286TIP3    H222418   3.376   4.718   1.365 -1.2714  1.1074  0.0002
  287TIP3   OH222419   0.108   1.373   2.102 -0.0875  0.0587  0.6304
  287TIP3    H122420   0.049   1.442   2.132 -0.5827 -0.2328  0.3331
  287TIP3    H222421   0.061   1.292   2.119 -0.1969 -0.1352 -0.5247
  288TIP3   OH222422   5.947   3.496   2.223  0.3128 -0.3160 -0.3711
  288TIP3    H122423   5.862   3.540   2.216  0.5085 -0.0054 -0.8641
  288TIP3    H222424   5.951   3.465   2.313 -0.5953 -0.8876 -0.5179
  289TIP3   OH222425   3.453   2.602   4.172 -0.4110  0.1813 -0.0360
  289TIP3    H122426   3.369   2.620   4.129 -0.3648  0.6385  0.0588
  289TIP3    H222427   3.483   2.688   4.202 -0.7777 -0.2072  1.5108
  290TIP3   OH222428   4.383   4.563   0.963  0.2043  0.3505 -0.2149
  290TIP3    H122429   4.387   4.467   0.968 -0.1649  0.2653 -1.3451
  290TIP3    H222430   4.326   4.588   1.037  0.3111 -0.2948  0.0921
  291TIP3   OH222431   1.779   5.414   2.752  0.2533 -0.1337  0.4598
  291TIP3    H122432   1.839   5.339   2.750  0.5030  0.0500  0.9353
  291TIP3    H222433   1.837   5.491   2.753  0.0005  0.0964 -0.6153
  292TIP3   OH222434   0.180   0.188   2.268  0.1211 -0.1641  0.1118
  292TIP3    H122435   0.203   0.205   2.176  0.0014  1.4327  0.3573
  292TIP3    H222436   0.260   0.205   2.317 -0.3721  1.0973  0.5118
  293TIP3   OH222437   3.158   6.351   2.083 -0.4680  0.2565  0.5065
  293TIP3    H122438   3.077   6.318   2.124 -0.8322  0.5514  0.0358
  293TIP3    H222439   3.130   6.428   2.034  0.2708  0.9077  1.0796
  294TIP3   OH222440   4.505   4.980   3.652  0.4026 -0.4221 -0.3346
  294TIP3    H122441   4.468   5.062   3.621 -1.4624 -1.0206  0.2036
  294TIP3    H222442   4.434   4.937   3.699  0.7552 -3.1293 -2.0190
  295TIP3   OH222443   3.245   6.778   1.498 -0.2724  0.3831 -0.1757
  295TIP3    H122444   3.204   6.707   1.448 -1.3254  0.2054  0.9004
  295TIP3    H222445   3.212   6.767   1.587 -0.1829  2.0132  0.0938
  296TIP3   OH222446   3.504   1.707   2.941 -0.4974  0.1530 -0.2056
  296TIP3    H122447   3.557   1.686   3.018 -1.0528 -0.9972 -0.1096
  296TIP3    H222448   3.415   1.714   2.976 -0.7738 -0.5396 -0.7671
  297TIP3   OH222449   3.499   0.863   3.217  0.7232 -0.0340  0.4089
  297TIP3    H122450   3.479   0.837   3.306  4.9083 -0.8432  1.3546
  297TIP3    H222451   3.555   0.940   3.227 -0.6398  1.3426 -1.7207
  298TIP3   OH222452   1.398   3.659   0.936 -0.2654 -0.5755  0.0035
  298TIP3    H122453   1.314   3.672   0.891 -0.0486  0.6697 -0.0680
  298TIP3    H222454   1.382   3.584   0.993 -1.5123 -0.2164  0.1746
  299TIP3   OH222455   1.664   0.429   0.472  0.1002 -0.6000 -0.5460
  299TIP3    H122456   1.618   0.384   0.543  0.4453  0.2529  0.2403
  299TIP3    H222457   1.594   0.467   0.419 -0.1595  1.5142  1.1844
  300TIP3   OH222458   6.045   5.964   1.766  0.1634 -0.5039  0.2463
  300TIP3    H122459   6.037   5.870   1.777 -1.1203 -0.4542 -0.0206
  300TIP3    H222460   6.138   5.980   1.751  0.4738 -1.6521  0.9131
  301TIP3   OH222461   5.745   3.560   1.160 -0.0871  0.1383 -0.3774
  301TIP3    H122462   5.816   3.608   1.204 -1.1637 -0.2092  1.8658
  301TIP3    H222463   5.746   3.473   1.200 -0.4225 -0.5936 -1.8861
  302TIP3   OH222464   3.238   3.626   1.396 -0.0253 -0.2740  0.5528
  302TIP3    H122465   3.328   3.598   1.377  0.6625  0.3961  2.5751
  302TIP3    H222466   3.212   3.575   1.473 -1.2582 -0.1905  0.2138
  303TIP3   OH222467   3.737   3.795   4.419 -0.4153  0.0865  0.3650
  303TIP3    H122468   3.797   3.724   4.393  1.0282  1.4596 -0.2164
  303TIP3    H222469   3.749   3.862   4.351 -1.1671  1.2041  1.3110
  304TIP3   OH222470   0.834   3.667   1.225  0.3450  0.0092  0.8435
  304TIP3    H122471   0.781   3.599   1.265  0.9364 -1.4787 -0.7986
  304TIP3    H222472   0.924   3.636   1.233  0.4882 -0.4047 -1.6073
  305TIP3   OH222473   6.222   6.020   3.609 -0.3069 -0.1003  0.2204
  305TIP3    H122474   6.229   6.063   3.694  1.0835 -1.8039  1.0444
  305TIP3    H222475   6.131   6.033   3.582 -0.8226  0.3128  2.0518
  306TIP3   OH222476   1.585   4.041   3.456 -0.1063  0.5684  0.4886
  306TIP3    H122477   1.558   4.055   3.365  0.4752  1.1743  0.3982
  306TIP3    H222478   1.616   4.127   3.485 -0.5973  0.4581  1.3717
  307TIP3   OH222479   3.054   1.250   3.805  0.1263  0.6382  0.1789
  307TIP3    H122480   3.080   1.333   3.765  2.1870 -0.7600 -1.6261
  307TIP3    H222481   3.127   1.229   3.863  0.4460 -0.6861 -0.6730
  308TIP3   OH222482   0.036   3.883   2.394  0.3011  0.3837 -0.2145
  308TIP3    H122483  -0.038   3.903   2.336  0.4737  0.2195 -0.4970
  308TIP3    H222484   0.096   3.832   2.339 -0.5294 -1.7091  0.7442
  309TIP3   OH222485   2.593   2.347   2.352 -0.2256 -0.5023 -0.0873
  309TIP3    H122486   2.686   2.355   2.332  0.0283 -1.0114  0.8792
  309TIP3    H222487   2.583   2.259   2.388 -1.1882 -0.6740 -0.7323
  310TIP3   OH222488   6.531   4.033   1.645  0.5806  0.2512 -0.1777
  310TIP3    H122489   6.526   4.075   1.731 -0.9210 -2.7372  1.3508
  310TIP3    H222490   6.625   4.016   1.633  0.8369  0.9290  0.7497
  311TIP3   OH222491   5.941   1.727   4.465  0.1808  0.0324 -0.4138
  311TIP3    H122492   6.030   1.733   4.499  0.1275 -0.1069 -0.2478
  311TIP3    H222493   5.938   1.645   4.417 -0.4478 -1.0511  1.3622
  312TIP3   OH222494   6.308   2.315   4.417  0.4307 -0.3278 -0.0494
  312TIP3    H122495   6.216   2.342   4.427  0.3198 -1.3722  2.9273
  312TIP3    H222496   6.358   2.383   4.462  0.9298 -0.6850 -0.0569
  313TIP3   OH222497   3.813   1.648   3.651 -0.0609  0.7250 -0.0691
  313TIP3    H122498   3.784   1.557   3.653  0.6330  0.5066  0.4852
  313TIP3    H222499   3.735   1.697   3.623 -0.2399 -0.1012 -1.0852
  314TIP3   OH222500   0.520   1.163   3.078 -0.1386  0.1903 -0.2358
  314TIP3    H122501   0.582   1.234   3.093 -1.2732  1.0067  0.8677
  314TIP3    H222502   0.525   1.110   3.158 -1.6293  0.9058  0.3716
  315TIP3   OH222503   5.592   2.110   0.272 -0.3673  0.4547 -0.6019
  315TIP3    H122504   5.567   2.019   0.284 -0.4363  0.5872  0.3496
  315TIP3    H222505   5.538   2.140   0.198 -2.4268  0.4875  0.8239
  316TIP3   OH222506   3.585   5.696   3.220  0.7008 -0.5770  0.5166
  316TIP3    H122507   3.578   5.729   3.309  2.6202  2.4612 -0.2823
  316TIP3    H222508   3.679   5.699   3.200  0.2342  0.0911 -1.9807
  317TIP3   OH222509   3.078   0.474   1.238 -0.0745  0.2497  0.3159
  317TIP3    H122510   2.987   0.443   1.230 -0.1096  0.4175  0.0457
  317TIP3    H222511   3.090   0.489   1.332 -0.2320 -0.0561  0.3875
  318TIP3   OH222512   2.493   1.308   2.059 -0.1697 -0.2148  0.6948
  318TIP3    H122513   2.483   1.300   2.154  0.0427 -1.3835  0.6349
  318TIP3    H222514   2.585   1.331   2.046  0.3113 -2.0043  0.7085
  319TIP3   OH222515   0.284   6.377   3.857  0.0282  0.4235 -0.3128
  319TIP3    H122516   0.366   6.370   3.906  0.2079  2.2340 -0.2988
  319TIP3    H222517   0.295   6.454   3.802 -0.8715 -0.5134 -1.9006
  320TIP3   OH222518   3.667   3.781   0.713  0.4379 -0.0240 -0.0117
  320TIP3    H122519   3.630   3.733   0.787  0.8836 -0.4958 -0.0885
  320TIP3    H222520   3.762   3.774   0.725  0.5150  0.5912 -0.1869
  321TIP3   OH222521   5.638   4.302   1.028  0.6658 -0.1772 -0.0983
  321TIP3    H122522   5.724   4.343   1.019 -0.3211  1.9549 -0.4100
  321TIP3    H222523   5.654   4.210   1.011  3.3605 -0.3377  2.4058
  322TIP3   OH222524   5.388   1.594   3.357  0.4802  0.4447 -0.0757
  322TIP3    H122525   5.418   1.516   3.310  0.6087 -0.2695  1.1650
  322TIP3    H222526   5.331   1.560   3.426  0.8690  1.4103  0.7437
  323TIP3   OH222527   0.350   0.740   4.224  0.3005 -0.0305 -0.0652
  323TIP3    H122528   0.283   0.683   4.262  0.6059 -0.6163 -0.3810
  323TIP3    H222529   0.394   0.778   4.299  0.6504 -0.8827  0.1748
  324TIP3   OH222530   1.077   6.139   1.196  0.3713  0.2832  0.8230
  324TIP3    H122531   1.062   6.080   1.270  1.5047 -0.3083  0.6186
  324TIP3    H222532   1.151   6.193   1.224  1.6828 -0.8181 -0.3180
  325TIP3   OH222533   6.193   4.469   4.314  0.6035  0.4288 -0.1934
  325TIP3    H122534   6.254   4.424   4.372 -0.6270  0.4090  1.1437
  325TIP3    H222535   6.168   4.548   4.362  0.7159  1.2101 -1.3744
  326TIP3   OH222536   0.639   4.323   2.680  0.2406  0.0185  0.0828
  326TIP3    H122537   0.734   4.333   2.671  0.2445  0.6491  0.7575
  326TIP3    H222538   0.603   4.367   2.603  0.5132 -0.9322 -0.6079
  327TIP3   OH222539   1.721   5.841   2.094 -0.5810 -0.3498  0.1316
  327TIP3    H122540   1.672   5.912   2.051  1.3366  1.1609  0.2661
  327TIP3    H222541   1.809   5.877   2.105 -0.0267 -2.0998  1.9406
  328TIP3   OH222542   4.301   0.947   3.458  0.4985 -0.0927 -0.2471
  328TIP3    H122543   4.291   0.852   3.448  2.2746 -0.0885 -3.7549
  328TIP3    H222544   4.221   0.983   3.421  0.1902 -0.2028  0.3036
  329TIP3   OH222545   2.842   4.121   1.710 -0.2066  0.0958  0.0019
  329TIP3    H122546   2.909   4.072   1.661 -1.0712 -1.0568 -0.0701
  329TIP3    H222547   2.859   4.099   1.802  0.1172  0.5968  0.0671
  330TIP3   OH222548   2.625   6.700   1.366 -0.2890  0.4651 -0.9582
  330TIP3    H122549   2.715   6.669   1.355 -0.7363 -0.6163 -1.8038
  330TIP3    H222550   2.625   6.747   1.449  0.5027 -1.7072  0.3570
  331TIP3   OH222551   2.729   2.970   3.205 -0.1014 -0.2421  0.2729
  331TIP3    H122552   2.789   2.924   3.263  0.6209  1.1875  0.7026
  331TIP3    H222553   2.685   3.034   3.260 -2.3060 -1.4413  0.0356
  332TIP3   OH222554   4.216   4.439   2.073  0.0028  0.2733 -0.0023
  332TIP3    H122555   4.168   4.457   2.154  0.0908 -2.6437  0.8025
  332TIP3    H222556   4.307   4.453   2.096 -0.0034 -0.1724  0.3131
  333TIP3   OH222557   6.295   4.985   2.175 -0.0191  0.4039 -0.3481
  333TIP3    H122558   6.251   5.031   2.104 -0.4165 -0.8828 -0.9680
  333TIP3    H222559   6.361   4.931   2.132  1.1637  1.1587  0.4502
  334TIP3   OH222560   2.282   0.033   0.036 -0.7930 -0.1495 -0.5214
  334TIP3    H122561   2.280   0.119  -0.007  0.0881 -0.3079 -0.9046
  334TIP3    H222562   2.264  -0.029  -0.034 -0.8441 -0.3157 -0.3613
  335TIP3   OH222563   5.407   4.042   1.883 -0.4075  0.0645 -0.5246
  335TIP3    H122564   5.382   4.047   1.975  0.1326 -0.9774 -0.3110
  335TIP3    H222565   5.399   3.950   1.860  0.6192  0.1222 -1.1866
  336TIP3   OH222566   4.807   4.432   4.356  0.1469  0.2047  0.0801
  336TIP3    H122567   4.897   4.434   4.389  0.2837 -0.8295 -0.2144
  336TIP3    H222568   4.753   4.446   4.434  0.4113 -3.5451  1.1114
  337TIP3   OH222569   4.571   4.184   3.979 -0.3762  0.6221 -0.2150
  337TIP3    H122570   4.490   4.148   4.015 -0.2478  0.2877 -0.2566
  337TIP3    H222571   4.557   4.279   3.980 -0.9192  0.5513 -0.5862
  338TIP3   OH222572   0.177   4.857   0.077 -0.0478  0.1621 -0.1141
  338TIP3    H122573   0.203   4.767   0.057  3.2280  0.9160  0.1290
  338TIP3    H222574   0.235   4.911   0.023 -3.0175  2.2410 -1.5264
  339TIP3   OH222575   5.032   5.204   3.372 -0.5477 -0.2714 -0.1553
  339TIP3    H122576   5.063   5.205   3.282  1.6815 -0.9590  0.5573
  339TIP3    H222577   5.021   5.297   3.395 -1.3828 -0.1037 -1.1818
  340TIP3   OH222578   6.105   5.581   3.270  0.0498  0.6113  0.2058
  340TIP3    H122579   6.142   5.623   3.348 -0.7950  0.0294  0.9320
  340TIP3    H222580   6.033   5.638   3.244  0.9284  1.3258 -0.7474
  341TIP3   OH222581   2.518   0.643   0.612 -0.0921  0.0510 -0.0047
  341TIP3    H122582   2.545   0.551   0.605 -0.2005 -0.0650  1.0179
  341TIP3    H222583   2.493   0.654   0.704  3.3229  2.0368  0.8404
  342TIP3   OH222584   4.300   2.268   1.724 -0.5113 -0.1282 -0.4917
  342TIP3    H122585   4.327   2.221   1.645  2.1225  0.0721  0.2052
  342TIP3    H222586   4.288   2.358   1.695  1.5569  0.1861 -0.5403
  343TIP3   OH222587   4.062   2.536   1.670 -0.0944 -0.2259  0.2137
  343TIP3    H122588   4.034   2.457   1.625  2.4037 -0.6480 -0.7939
  343TIP3    H222589   3.982   2.574   1.705 -1.4702 -2.7876  0.0950
  344TIP3   OH222590   5.861   6.467   0.787  0.0960  0.1246  0.2045
  344TIP3    H122591   5.866   6.414   0.867 -2.1855 -0.4416  0.0509
  344TIP3    H222592   5.842   6.555   0.817 -3.7112 -0.5788  0.3566
  345TIP3   OH222593   1.001   3.748   1.837  0.2971 -0.1501  0.4326
  345TIP3    H122594   0.978   3.811   1.905 -1.0068  3.0057 -2.6052
  345TIP3    H222595   1.093   3.766   1.817  0.1613  0.2448  0.1455
  346TIP3   OH222596   0.679   1.727   1.576 -0.0455 -0.7141 -0.0350
  346TIP3    H122597   0.661   1.820   1.564 -0.6284 -0.7614  0.3970
  346TIP3    H222598   0.592   1.687   1.583  0.2006 -0.9923  1.9586
  347TIP3   OH222599   2.624   5.149   1.053  0.5997 -0.4468  0.2122
  347TIP3    H122600   2.709   5.160   1.011  0.3415 -1.1698 -0.5259
  347TIP3    H222601   2.587   5.237   1.056  1.0543 -0.2386 -0.1683
  348TIP3   OH222602   2.481   1.403   4.273  0.2976  0.1722 -0.2229
  348TIP3    H122603   2.429   1.353   4.335  0.5927  1.0703  0.7852
  348TIP3    H222604   2.560   1.427   4.322 -0.1639  2.2386 -0.3959
  349TIP3   OH222605   4.732   1.135   1.419 -0.0671 -0.2672 -0.0304
  349TIP3    H122606   4.655   1.111   1.368 -1.1265 -0.9676  1.7797
  349TIP3    H222607   4.726   1.231   1.429 -1.0898 -0.3850  0.6316
  350TIP3   OH222608   0.783   0.922   3.758 -0.0390 -0.2584  0.5917
  350TIP3    H122609   0.750   1.012   3.759  0.9564  0.1607 -0.7461
  350TIP3    H222610   0.758   0.886   3.843  3.0754  2.5853  2.9743
  351TIP3   OH222611   1.856   0.219   3.585 -0.3740  0.5155  0.3978
  351TIP3    H122612   1.895   0.172   3.511  0.0326  1.0909  0.2406
  351TIP3    H222613   1.826   0.150   3.644  1.7994  0.0557  1.0192
  352TIP3   OH222614   1.965   4.911   3.744  0.4657 -0.3533 -0.2053
  352TIP3    H122615   1.966   4.943   3.655  0.3519 -0.7353 -0.3475
  352TIP3    H222616   1.918   4.978   3.794  2.1649  0.7696 -0.0642
  353TIP3   OH222617   2.433   2.306   1.258  0.4531 -0.4550 -0.8390
  353TIP3    H122618   2.390   2.236   1.209 -2.3934  1.3171 -1.0830
  353TIP3    H222619   2.367   2.337   1.320  2.7170 -0.1351  1.6140
  354TIP3   OH222620   1.564   0.418   4.912 -0.4158 -0.1154  0.1469
  354TIP3    H122621   1.640   0.359   4.913 -0.5480 -0.2845  0.9515
  354TIP3    H222622   1.490   0.362   4.938 -0.9947 -0.1636 -1.4810
  355TIP3   OH222623   4.697   3.355   3.941  0.0284 -0.1838 -0.3549
  355TIP3    H122624   4.728   3.444   3.927  0.0661 -0.4520 -2.2354
  355TIP3    H222625   4.673   3.324   3.854 -1.7085 -1.3944  0.4995
  356TIP3   OH222626   3.692   1.995   0.722 -0.0767 -0.5569  0.2471
  356TIP3    H122627   3.647   1.917   0.688 -0.9453 -0.7103  1.6727
  356TIP3    H222628   3.783   1.985   0.693 -0.1757 -2.0941  0.3923
  357TIP3   OH222629   5.040   1.628   1.396  0.6292  0.2998 -0.0457
  357TIP3    H122630   4.968   1.569   1.374 -0.3538  1.8659 -1.3056
  357TIP3    H222631   5.025   1.704   1.340  1.7385  1.8068  1.6184
  358TIP3   OH222632   3.348   5.969   0.182  0.3910 -0.3817 -0.4465
  358TIP3    H122633   3.256   5.995   0.175 -0.3078 -2.1983  1.0841
  358TIP3    H222634   3.397   6.046   0.152 -1.6014  0.3465 -2.1044
  359TIP3   OH222635   4.114   6.290   3.078  0.7554 -0.2975 -0.0506
  359TIP3    H122636   4.209   6.275   3.078  1.0074  1.0822  1.4577
  359TIP3    H222637   4.077   6.206   3.106  1.6968 -0.1611  1.7186
  360TIP3   OH222638   4.684   5.326   0.589 -0.0857  0.3604  0.7601
  360TIP3    H122639   4.729   5.385   0.529 -0.1110 -1.1479 -0.8195
  360TIP3    H222640   4.597   5.365   0.600 -0.7973 -0.3194 -1.8363
  361TIP3   OH222641   6.123   1.494   3.399  0.3036  0.6747  0.5376
  361TIP3    H122642   6.108   1.409   3.439 -0.6869  1.2035  1.3495
  361TIP3    H222643   6.037   1.537   3.401 -0.4200 -0.0540 -4.1779
  362TIP3   OH222644   0.492   4.732   3.400 -0.0706 -0.7094  0.5071
  362TIP3    H122645   0.528   4.719   3.487  0.6233 -0.7696  0.2183
  362TIP3    H222646   0.481   4.827   3.392 -0.9285 -0.7652  0.9656
  363TIP3   OH222647   1.946   5.635   1.014 -0.4217 -0.6940  0.3458
  363TIP3    H122648   1.949   5.723   1.052  0.3675 -0.4217 -0.3012
  363TIP3    H222649   2.036   5.602   1.023 -0.6399 -1.3143  0.3066
  364TIP3   OH222650   3.303   0.317   3.941 -0.0703 -0.1498  0.1471
  364TIP3    H122651   3.387   0.332   3.984  0.4858  1.3234 -1.3290
  364TIP3    H222652   3.325   0.273   3.859 -0.9215 -1.2027  0.4562
  365TIP3   OH222653   5.487   0.064   1.555  0.7187  0.5823  0.1342
  365TIP3    H122654   5.554   0.020   1.607  0.5433  1.3382  1.0392
  365TIP3    H222655   5.476   0.149   1.598 -0.5437  0.6177 -0.2224
  366TIP3   OH222656   2.740   0.659   1.290  0.0136  0.4078  0.6566
  366TIP3    H122657   2.748   0.604   1.368 -0.9460 -0.9812 -0.1926
  366TIP3    H222658   2.648   0.684   1.287  0.2250  1.2054  0.4346
  367TIP3   OH222659   3.781   3.830   4.094  0.3757  0.1783  0.0723
  367TIP3    H122660   3.742   3.745   4.075  0.7700 -0.0338  0.1991
  367TIP3    H222661   3.723   3.893   4.053 -0.2085 -0.1230  0.4251
  368TIP3   OH222662   1.349   2.657   2.426  0.2953 -0.0263 -0.5827
  368TIP3    H122663   1.268   2.615   2.457  0.3086 -0.1827 -0.7575
  368TIP3    H222664   1.394   2.684   2.506  1.6681 -2.8805 -0.2621
  369TIP3   OH222665   3.259   4.616   1.527  0.4918 -0.0552  0.2018
  369TIP3    H122666   3.313   4.560   1.583  1.1199 -1.2679 -1.5343
  369TIP3    H222667   3.195   4.556   1.488 -0.5774  0.9395  0.3687
  370TIP3   OH222668   5.269   0.546   1.942  0.3978 -0.4480  0.3050
  370TIP3    H122669   5.192   0.490   1.948 -0.4755  0.7116  0.2535
  370TIP3    H222670   5.235   0.635   1.952  1.8093  0.0527  0.8658
  371TIP3   OH222671   1.234   2.109   5.027  0.2102  0.4094 -0.0052
  371TIP3    H122672   1.148   2.149   5.041  0.7272  1.6788 -0.3794
  371TIP3    H222673   1.236   2.088   4.934 -0.2313 -0.9463  0.2686
  372TIP3   OH222674   2.424   5.864   0.742  0.4331  0.1993  0.1633
  372TIP3    H122675   2.420   5.950   0.700  3.0759 -0.2304 -1.1574
  372TIP3    H222676   2.458   5.805   0.675  2.5182 -1.0317  2.1293
  373TIP3   OH222677   1.527   2.088   2.258 -0.0975  0.2303 -0.5395
  373TIP3    H122678   1.483   2.008   2.231  0.7237 -0.4261  0.0007
  373TIP3    H222679   1.470   2.125   2.326  0.1344 -0.5776  0.1136
  374TIP3   OH222680   3.003   1.107   4.529 -0.1907  0.1346  0.3787
  374TIP3    H122681   2.991   1.012   4.533 -0.2074  0.0684 -0.8191
  374TIP3    H222682   2.996   1.136   4.620  0.6564 -1.1009  0.8678
  375TIP3   OH222683   4.678   1.027   3.865  0.1625 -0.2344 -0.0873
  375TIP3    H122684   4.612   1.029   3.934 -1.3536  0.7849 -1.4784
  375TIP3    H222685   4.632   0.989   3.789  1.0051  0.9476 -1.2339
  376TIP3   OH222686   0.474   2.193   3.581  0.1486 -0.2056  0.0226
  376TIP3    H122687   0.451   2.208   3.673 -0.4336 -2.9779  0.4115
  376TIP3    H222688   0.558   2.148   3.584  1.5160  2.1045 -1.0044
  377TIP3   OH222689   6.878   2.061   3.037 -0.2663  0.3519  0.4750
  377TIP3    H122690   6.783   2.061   3.028 -0.2885 -0.5787  0.6368
  377TIP3    H222691   6.909   2.020   2.956  0.0118  0.8643  0.3196
  378TIP3   OH222692   1.169   3.784   1.078  0.3938  0.0199  0.3679
  378TIP3    H122693   1.105   3.788   1.007 -0.0640  1.4882  0.8131
  378TIP3    H222694   1.247   3.746   1.039 -0.1457 -0.0351 -0.6853
  379TIP3   OH222695   3.749   6.871   1.016 -0.6567  0.3794  0.4778
  379TIP3    H122696   3.795   6.888   1.098 -0.2472  1.8990 -0.0295
  379TIP3    H222697   3.657   6.864   1.041 -0.3695 -0.8308  1.2620
  380TIP3   OH222698   2.713   1.868   3.266 -0.3721 -0.3770 -0.5966
  380TIP3    H122699   2.669   1.948   3.237 -0.7033 -0.3237  0.0330
  380TIP3    H222700   2.755   1.834   3.187  0.7804  1.0356 -0.6305
  381TIP3   OH222701   4.808   5.501   1.381  0.2010 -0.2833 -0.1594
  381TIP3    H122702   4.802   5.537   1.293  0.1504  0.9975  0.3412
  381TIP3    H222703   4.867   5.560   1.427 -0.1046 -0.6887  0.7849
  382TIP3   OH222704   2.587   0.641   1.771  0.2767 -0.8537  0.2703
  382TIP3    H122705   2.662   0.645   1.712 -0.5349  0.0858 -0.7508
  382TIP3    H222706   2.612   0.694   1.847  0.3388  0.1799 -0.4517
  383TIP3   OH222707   0.026   4.413   0.196 -0.0728 -0.2502  0.5321
  383TIP3    H122708   0.059   4.465   0.123  2.6005 -0.9340  1.1254
  383TIP3    H222709  -0.042   4.467   0.236 -0.3823  0.8696 -1.3828
  384TIP3   OH222710   2.297   0.360   3.671 -0.3977  0.1863  0.1638
  384TIP3    H122711   2.366   0.417   3.638 -0.0217  1.6960  3.1877
  384TIP3    H222712   2.337   0.273   3.673  0.7133  0.6785 -0.0208
  385TIP3   OH222713   4.259   0.975   3.752 -0.5079  0.3395  0.2406
  385TIP3    H122714   4.175   1.021   3.751 -1.4652 -1.2323  1.7234
  385TIP3    H222715   4.276   0.954   3.660 -1.8075  0.5632 -0.0714
  386TIP3   OH222716   6.277   1.520   1.505 -0.0854  0.1898  0.4306
  386TIP3    H122717   6.343   1.489   1.567 -1.7944 -2.7135  0.9650
  386TIP3    H222718   6.318   1.511   1.419  0.0150 -2.4430  0.6720
  387TIP3   OH222719   3.352   5.403   3.808 -0.2069  0.4031 -0.0970
  387TIP3    H122720   3.315   5.411   3.896 -0.9934  1.8478 -0.5358
  387TIP3    H222721   3.382   5.491   3.785  1.1155 -0.1981 -0.8164
  388TIP3   OH222722   2.851   2.076   4.619 -0.3039 -0.2128  0.1682
  388TIP3    H122723   2.829   2.155   4.667  2.1593  0.9616 -0.4725
  388TIP3    H222724   2.820   2.092   4.530 -1.6989 -0.9161  0.4927
  389TIP3   OH222725   1.067   1.017   0.187  0.2842 -0.0261  0.3815
  389TIP3    H122726   1.045   1.110   0.179  1.8065  0.3717  0.4333
  389TIP3    H222727   1.160   1.013   0.162 -0.0598 -1.7168 -0.7280
  390TIP3   OH222728   5.355   4.059   2.249  0.1010 -0.4618  0.0523
  390TIP3    H122729   5.306   4.125   2.297 -0.6286 -0.0807 -1.1670
  390TIP3    H222730   5.372   3.990   2.313  0.3735  0.6329  1.1943
  391TIP3   OH222731   1.479   1.026   3.610  0.2803  0.1841 -0.0027
  391TIP3    H122732   1.466   1.076   3.690  1.4216  0.7117 -0.1285
  391TIP3    H222733   1.404   1.050   3.555  0.9130  1.9829 -0.1517
  392TIP3   OH222734   3.775   5.203   1.116 -0.2479 -0.1817  0.0557
  392TIP3    H122735   3.689   5.161   1.117  0.1965 -1.1370  0.1938
  392TIP3    H222736   3.819   5.163   1.040 -0.6093  1.7549 -1.2274
  393TIP3   OH222737   4.143   2.203   1.438  0.4215 -0.1032  0.2900
  393TIP3    H122738   4.064   2.213   1.492  0.3003 -0.9183  0.2652
  393TIP3    H222739   4.110   2.198   1.348  0.4215 -1.3313  0.3447
  394TIP3   OH222740   4.621   6.759   1.443 -0.2233  0.3634  0.0012
  394TIP3    H122741   4.714   6.763   1.420 -0.0675 -3.4306 -0.7791
  394TIP3    H222742   4.620   6.759   1.539  0.9878 -2.4370  0.1133
  395TIP3   OH222743   2.467   2.771   3.251 -0.2385  0.3749 -0.3604
  395TIP3    H122744   2.528   2.794   3.181 -0.1217  2.1161  0.2565
  395TIP3    H222745   2.482   2.837   3.319 -1.7259 -0.0820  0.4744
  396TIP3   OH222746   2.274   6.702   2.940 -0.0202 -0.4356  0.3746
  396TIP3    H122747   2.251   6.609   2.941  1.5690 -0.8696 -0.3866
  396TIP3    H222748   2.313   6.719   3.026 -0.1473 -0.5190  0.4483
  397TIP3   OH222749   4.514   5.431   3.116  0.5953 -0.0382 -0.1938
  397TIP3    H122750   4.607   5.408   3.125  0.3450 -0.4355  1.9084
  397TIP3    H222751   4.467   5.353   3.145 -0.3782  0.5075 -0.2521
  398TIP3   OH222752   5.516   3.052   3.685  0.1178  0.3271  0.1953
  398TIP3    H122753   5.440   2.998   3.706  0.7211 -0.4489  0.4138
  398TIP3    H222754   5.498   3.136   3.727 -0.0226 -0.2701  1.3632
  399TIP3   OH222755   0.912   5.609   0.890  0.4516 -0.6232 -0.0244
  399TIP3    H122756   0.844   5.573   0.832  0.8511  0.6903 -1.3706
  399TIP3    H222757   0.960   5.671   0.835 -0.8004  2.7563  2.3531
  400TIP3   OH222758   2.713   4.343   3.420  0.6412  0.2072  0.1010
  400TIP3    H122759   2.640   4.309   3.368 -0.3291  2.5122 -0.1488
  400TIP3    H222760   2.784   4.280   3.406 -0.1291 -0.1692 -2.6293
  401TIP3   OH222761   6.132   5.480   0.864 -0.1448  0.6901  0.4313
  401TIP3    H122762   6.205   5.450   0.810 -0.2292  0.6055  0.3649
  401TIP3    H222763   6.173   5.537   0.929 -0.0158  0.6212  0.4114
  402TIP3   OH222764   3.280   1.644   1.778  0.4556 -0.1063  0.1826
  402TIP3    H122765   3.194   1.607   1.760  0.7414 -0.5225 -0.3698
  402TIP3    H222766   3.336   1.568   1.795  0.8018  0.1320  0.1254
  403TIP3   OH222767   1.554   4.694   1.151  0.2120  0.2548 -0.1702
  403TIP3    H122768   1.630   4.673   1.097 -0.1576 -2.3596  0.2024
  403TIP3    H222769   1.545   4.620   1.211 -2.6390  0.4396 -0.2132
  404TIP3   OH222770   4.514   4.680   4.875  0.5722 -0.0649 -0.1016
  404TIP3    H122771   4.572   4.604   4.881 -0.3833 -0.7036  1.9548
  404TIP3    H222772   4.569   4.754   4.899  0.8630 -0.4819  0.5433
  405TIP3   OH222773   4.013   4.754   1.306  0.0618 -0.3584  0.6776
  405TIP3    H122774   4.080   4.752   1.238  1.3839 -0.8900  1.9301
  405TIP3    H222775   4.061   4.781   1.385 -1.4683  0.4965  1.3506
  406TIP3   OH222776   5.228   5.822   2.214  0.2066 -0.3408  0.0998
  406TIP3    H122777   5.274   5.894   2.172 -1.4918  1.4497  1.1447
  406TIP3    H222778   5.142   5.819   2.171 -0.4542 -0.4443  1.3660
  407TIP3   OH222779   5.538   2.542   3.575 -0.0005  0.3980 -0.3804
  407TIP3    H122780   5.575   2.589   3.650  0.4815  0.6712 -0.7843
  407TIP3    H222781   5.613   2.519   3.521 -0.2033 -1.1015 -0.0612
  408TIP3   OH222782   5.563   6.649   1.086 -0.2001  0.5249 -0.2948
  408TIP3    H122783   5.613   6.568   1.092 -1.6762 -0.4370 -0.5409
  408TIP3    H222784   5.550   6.676   1.177 -0.8188 -0.2558 -0.1372
  409TIP3   OH222785   2.801   4.775   1.228 -0.2470  0.1423  0.2118
  409TIP3    H122786   2.718   4.787   1.181  0.9764  2.3379 -1.6043
  409TIP3    H222787   2.816   4.681   1.227 -0.7703 -0.0230 -3.1027
  410TIP3   OH222788   4.966   5.038   2.439 -0.3175  0.1758 -0.0491
  410TIP3    H122789   4.903   4.971   2.412 -0.2067  0.2351 -0.4609
  410TIP3    H222790   5.050   4.992   2.441 -0.2733  0.2532 -0.1327
  411TIP3   OH222791   4.897   4.868   3.328  0.2130  0.0232  0.1796
  411TIP3    H122792   4.872   4.777   3.316  1.3632 -0.5034  1.4473
  411TIP3    H222793   4.821   4.909   3.368 -0.5824 -0.1859 -1.0828
  412TIP3   OH222794   1.084   3.997   0.010 -0.2337 -0.4255 -0.2418
  412TIP3    H122795   0.998   4.028   0.038 -0.4756 -2.3165  1.2382
  412TIP3    H222796   1.067   3.915  -0.036  0.7779 -0.8262  0.0593
  413TIP3   OH222797   2.453   6.621   4.221  0.0891  0.1235 -0.4206
  413TIP3    H122798   2.457   6.591   4.312 -0.6038 -0.8225 -0.6881
  413TIP3    H222799   2.532   6.673   4.210  0.5850 -0.4001  0.5053
  414TIP3   OH222800   0.722   6.277   3.758  0.1517 -0.0405 -0.0718
  414TIP3    H122801   0.663   6.307   3.690 -2.3525 -1.3473  1.3627
  414TIP3    H222802   0.704   6.335   3.833 -0.0264 -1.0299  0.6754
  415TIP3   OH222803   3.600   4.674   2.949  0.0535  0.0532  0.7142
  415TIP3    H122804   3.529   4.710   3.002 -0.8111 -0.6808  0.0855
  415TIP3    H222805   3.674   4.731   2.967 -0.5066  0.4497  1.8959
  416TIP3   OH222806   4.397   3.881   0.667 -0.1881  0.0612 -0.2072
  416TIP3    H122807   4.406   3.798   0.620  1.1552 -0.6146  1.1473
  416TIP3    H222808   4.450   3.943   0.616 -0.0029 -0.2719 -0.4272
  417TIP3   OH222809   4.736   5.546   1.992  0.2832  0.1035  0.4606
  417TIP3    H122810   4.696   5.625   2.030  0.0109 -0.8880  2.3251
  417TIP3    H222811   4.795   5.514   2.060  1.1996 -0.7356 -0.6913
  418TIP3   OH222812   4.311   3.570   0.265 -0.4145 -0.1516 -1.2880
  418TIP3    H122813   4.295   3.640   0.202  0.4926  0.7440 -0.5669
  418TIP3    H222814   4.359   3.504   0.216 -0.5241  0.1147 -1.7615
  419TIP3   OH222815   4.818   4.228   1.314  0.3431  0.1719  0.0523
  419TIP3    H122816   4.845   4.315   1.285 -0.4524  0.2125 -0.5988
  419TIP3    H222817   4.731   4.241   1.350  0.1028 -0.4003 -0.3035
  420TIP3   OH222818   4.552   2.412   1.637  0.0626  0.1558  0.2518
  420TIP3    H122819   4.478   2.462   1.603  1.7467  2.0690 -0.8448
  420TIP3    H222820   4.546   2.327   1.594 -1.7675  0.0662  0.6113
  421TIP3   OH222821   5.486   6.019   1.269  0.4029  0.4449  0.4033
  421TIP3    H122822   5.573   6.005   1.306  0.0129  1.4626  1.8083
  421TIP3    H222823   5.431   5.953   1.312  0.6091 -0.7656 -1.1196
  422TIP3   OH222824   5.148   0.309   2.937  0.3555  0.4381  0.1364
  422TIP3    H122825   5.133   0.248   2.865 -1.1026  2.0872 -1.0328
  422TIP3    H222826   5.073   0.296   2.996  1.0783 -0.2720  0.9253
  423TIP3   OH222827   1.798   3.929   2.042 -0.1139 -0.0716 -0.1045
  423TIP3    H122828   1.830   3.839   2.037  0.5976  0.0991  1.0193
  423TIP3    H222829   1.793   3.948   2.135  1.6690  1.6864 -0.2975
  424TIP3   OH222830   0.540   2.107   2.516 -0.2812 -0.1789 -0.5328
  424TIP3    H122831   0.541   2.194   2.478  0.0168  0.7057  1.3426
  424TIP3    H222832   0.627   2.097   2.555 -1.1705 -0.1431  1.6389
  425TIP3   OH222833   2.420   3.765   2.845  0.3526  0.1183 -0.1128
  425TIP3    H122834   2.498   3.770   2.789  0.7788 -0.4804  0.4160
  425TIP3    H222835   2.423   3.845   2.897 -1.1918  1.7837 -2.3676
  426TIP3   OH222836   4.222   2.395   4.701  0.3732 -0.2637  0.3304
  426TIP3    H122837   4.267   2.311   4.703  0.2628 -0.3272  0.0936
  426TIP3    H222838   4.273   2.450   4.761  0.7424 -0.3470  0.0981
  427TIP3   OH222839   4.168   0.114   1.963 -0.3138  0.4412  0.0151
  427TIP3    H122840   4.248   0.146   2.005  1.3888 -1.1365 -1.8074
  427TIP3    H222841   4.147   0.181   1.898 -0.5749  0.9227  0.5847
  428TIP3   OH222842   0.333   3.432   3.306 -0.0415  0.2967 -0.1245
  428TIP3    H122843   0.383   3.351   3.301  1.5957  0.9094  3.3908
  428TIP3    H222844   0.242   3.404   3.318 -0.2247 -0.8437 -3.2184
  429TIP3   OH222845   4.184   6.281   2.260 -0.3485  0.2649  0.4426
  429TIP3    H122846   4.209   6.350   2.199  0.9078 -0.0444  0.5927
  429TIP3    H222847   4.235   6.298   2.339 -1.6926  0.4588  1.3112
  430TIP3   OH222848   1.314   5.577   3.710  0.0392 -0.4600 -0.0549
  430TIP3    H122849   1.389   5.603   3.764  0.1147  0.9476 -0.7927
  430TIP3    H222850   1.274   5.660   3.683 -1.1370 -1.1751 -0.5891
  431TIP3   OH222851   6.323   0.138   0.765  0.2588 -0.2891 -0.0190
  431TIP3    H122852   6.415   0.164   0.769  0.3921 -0.8209  0.5088
  431TIP3    H222853   6.323   0.045   0.789 -0.5279 -0.0169  1.1384
  432TIP3   OH222854   3.795   0.169   3.458  0.3803 -0.2179  0.0564
  432TIP3    H122855   3.794   0.081   3.422  2.9634  0.3679 -1.7282
  432TIP3    H222856   3.828   0.224   3.387  1.5229  1.7267  1.9613
  433TIP3   OH222857   0.040   0.354   2.444  0.4214  0.3471  0.7261
  433TIP3    H122858   0.102   0.427   2.443  1.6527 -0.6555 -0.6051
  433TIP3    H222859   0.050   0.313   2.358 -1.6016 -0.2951  0.7441
  434TIP3   OH222860   5.608   1.068   1.582 -0.3005  0.5496  0.1557
  434TIP3    H122861   5.541   1.116   1.533  0.0181 -0.5335 -1.4365
  434TIP3    H222862   5.688   1.117   1.567  0.0381 -0.4387 -1.5263
  435TIP3   OH222863   3.892   4.036   3.076  0.4838 -0.0695  0.3053
  435TIP3    H122864   3.923   3.946   3.065  1.8434  0.1967  1.5759
  435TIP3    H222865   3.841   4.034   3.157 -0.0180  0.1747 -0.0043
  436TIP3   OH222866   5.088   2.866   1.358  0.4477 -0.0047  0.6552
  436TIP3    H122867   5.118   2.957   1.351 -2.7074  1.1432  0.6570
  436TIP3    H222868   5.057   2.844   1.270 -1.5000 -0.0127  1.3096
  437TIP3   OH222869   1.318   3.996   2.449 -0.2525  0.2704  0.4345
  437TIP3    H122870   1.342   4.077   2.495  0.3534  0.1913  0.2706
  437TIP3    H222871   1.364   4.001   2.366  1.1140 -0.9669  1.0538
  438TIP3   OH222872   6.512   4.806   2.373  0.0594  0.0317  0.4783
  438TIP3    H122873   6.484   4.867   2.305  0.6290  0.5118  0.6709
  438TIP3    H222874   6.558   4.737   2.326  1.8443  1.1464  0.4764
  439TIP3   OH222875   2.683   2.463   4.025  0.5097  0.1184 -0.1046
  439TIP3    H122876   2.634   2.409   4.087  0.9789 -0.8324 -0.5419
  439TIP3    H222877   2.740   2.517   4.080 -1.4373  1.7555  0.4708
  440TIP3   OH222878   1.538   6.740   3.528  0.2637  0.0429  0.2350
  440TIP3    H122879   1.465   6.762   3.586  0.4543 -1.2068  0.9821
  440TIP3    H222880   1.500   6.742   3.440 -1.2840 -2.7533  0.7518
  441TIP3   OH222881   3.244   2.119   3.440  0.4219  0.2911  0.2256
  441TIP3    H122882   3.239   2.108   3.535  0.0722  0.0519  0.1814
  441TIP3    H222883   3.156   2.148   3.415  0.1593 -0.7731 -0.1661
  442TIP3   OH222884   6.397   5.340   1.780 -0.2965  0.0604  0.2485
  442TIP3    H122885   6.367   5.359   1.868  0.6536 -2.3185  1.1592
  442TIP3    H222886   6.481   5.386   1.773 -0.2520  0.0469  0.6691
  443TIP3   OH222887   6.578   3.389   0.903  0.2694 -0.1143 -0.7665
  443TIP3    H122888   6.628   3.444   0.843  0.6733  0.0793 -0.2620
  443TIP3    H222889   6.506   3.443   0.932  0.7938  0.2402 -0.0951
  444TIP3   OH222890   1.923   3.096   4.219  0.4488  0.6047 -0.1593
  444TIP3    H122891   1.845   3.131   4.177 -0.8094 -2.5424 -0.7534
  444TIP3    H222892   1.896   3.081   4.310 -0.1684 -1.5802 -0.6294
  445TIP3   OH222893   4.199   6.108   4.099 -0.2920  0.0962 -0.4656
  445TIP3    H122894   4.256   6.091   4.024 -0.6524 -0.0982 -0.6988
  445TIP3    H222895   4.115   6.071   4.074  0.3097 -2.6188  1.2032
  446TIP3   OH222896   0.863   5.215   2.957  0.0541 -0.3486  0.2947
  446TIP3    H122897   0.843   5.217   3.051 -0.1891 -0.4506  0.2463
  446TIP3    H222898   0.802   5.151   2.921 -0.2551  0.1194 -0.0236
  447TIP3   OH222899   3.759   6.907   0.398 -0.4500  0.3236  0.1918
  447TIP3    H122900   3.735   6.856   0.322 -2.6372 -3.0644  2.8540
  447TIP3    H222901   3.824   6.854   0.444 -0.8970  1.0937  1.8266
  448TIP3   OH222902   3.455   6.670   2.981 -0.4250  0.1919  0.2939
  448TIP3    H122903   3.496   6.585   3.000  1.5960  1.2979  1.1654
  448TIP3    H222904   3.469   6.722   3.060 -0.9449  1.5749 -0.4950
  449TIP3   OH222905   1.395   3.968   3.680  0.5179 -0.2354  0.2500
  449TIP3    H122906   1.326   4.015   3.632 -0.7578 -2.4859 -0.2533
  449TIP3    H222907   1.475   3.985   3.630 -0.6205 -1.8363 -2.3270
  450TIP3   OH222908   4.773   2.506   4.149  0.4310  0.2674 -0.1200
  450TIP3    H122909   4.678   2.520   4.143  0.3358  0.4372  1.3491
  450TIP3    H222910   4.801   2.566   4.218  1.7047  0.5903 -0.8938
  451TIP3   OH222911   1.826   2.213   3.896 -0.9541 -0.2123  0.2126
  451TIP3    H122912   1.891   2.235   3.963 -0.1253 -1.6225 -0.0774
  451TIP3    H222913   1.861   2.251   3.815 -1.3767  0.5015  0.3549
  452TIP3   OH222914   2.730   2.913   2.243 -0.4489 -0.1176 -0.0459
  452TIP3    H122915   2.653   2.857   2.246 -1.1368  0.5544 -2.7570
  452TIP3    H222916   2.696   3.001   2.260 -0.0080 -0.0175  0.3357
  453TIP3   OH222917   3.005   0.769   8.519  0.3315  0.2158 -0.3908
  453TIP3    H122918   3.064   0.702   8.484  1.2092  0.9584 -0.3492
  453TIP3    H222919   2.919   0.745   8.483  0.3198 -1.7826  0.8048
  454TIP3   OH222920   2.014   1.390   0.435 -0.1956  0.4573 -0.3137
  454TIP3    H122921   2.109   1.396   0.422 -0.2247  1.3049 -0.2255
  454TIP3    H222922   1.997   1.298   0.454  0.6296  0.3308 -0.1807
  455TIP3   OH222923   3.602   5.917   2.964 -0.0752 -0.3851  0.2938
  455TIP3    H122924   3.663   5.871   3.023  1.0209  1.6173  0.8260
  455TIP3    H222925   3.516   5.904   3.004 -0.2285 -3.8190 -0.8180
  456TIP3   OH222926   5.551   0.384   2.316  0.7552 -0.7893 -0.1586
  456TIP3    H122927   5.627   0.428   2.278  1.0932 -1.5147 -0.3266
  456TIP3    H222928   5.588   0.321   2.378  0.2499 -0.3963  0.5588
  457TIP3   OH222929   4.389   3.690   4.040 -0.1540  0.3445 -0.1084
  457TIP3    H122930   4.295   3.670   4.038 -0.3647  1.0903  1.3312
  457TIP3    H222931   4.431   3.605   4.051 -0.7426  0.1476  0.6829
  458TIP3   OH222932   0.196   2.231   0.994  0.9137  0.5332 -0.1689
  458TIP3    H122933   0.210   2.296   1.063  1.4865  2.0241 -1.6231
  458TIP3    H222934   0.124   2.267   0.943  0.1555 -0.8102 -0.0724
  459TIP3   OH222935   5.195   2.270   4.734 -0.1273 -0.2533  0.0666
  459TIP3    H122936   5.156   2.284   4.820  0.3122  0.3840  0.1676
  459TIP3    H222937   5.171   2.180   4.711 -1.5933  0.0945  0.1499
  460TIP3   OH222938   4.337   5.895   3.451 -0.2382  0.8118 -0.3134
  460TIP3    H122939   4.318   5.844   3.373  0.6511 -0.6618  0.3889
  460TIP3    H222940   4.425   5.929   3.435  0.6155 -0.8202  0.6673
  461TIP3   OH222941   6.797   1.539   3.506  0.4533  0.6470 -0.4091
  461TIP3    H122942   6.758   1.453   3.488 -0.5019  0.6564  1.3425
  461TIP3    H222943   6.887   1.531   3.475  0.4691 -1.0940 -0.0682
  462TIP3   OH222944   1.589   4.471   2.700  0.2187 -0.4477 -0.1903
  462TIP3    H122945   1.611   4.383   2.671  0.6326 -0.6494  0.6945
  462TIP3    H222946   1.620   4.528   2.629 -0.5743 -1.0402 -1.0277
  463TIP3   OH222947   5.301   1.064   2.115  0.1342  0.1528  0.7410
  463TIP3    H122948   5.328   1.106   2.033  0.2843 -0.6778  0.3442
  463TIP3    H222949   5.318   1.129   2.183  1.2297  0.4021  0.2620
  464TIP3   OH222950   2.963   6.122   4.385 -0.2049  0.1509  0.9843
  464TIP3    H122951   3.007   6.071   4.452 -0.1521 -1.4461 -0.2124
  464TIP3    H222952   2.870   6.103   4.397 -0.0924 -1.4706 -0.3742
  465TIP3   OH222953   5.586   6.201   2.535  0.1478  0.2263 -0.5821
  465TIP3    H122954   5.602   6.247   2.618  0.6290  1.4053 -1.3059
  465TIP3    H222955   5.633   6.118   2.544  0.6411  0.5711  0.1216
  466TIP3   OH222956   3.368   6.697   3.683 -0.3572  0.0460 -0.3468
  466TIP3    H122957   3.283   6.669   3.648 -0.6536  0.8341 -0.2751
  466TIP3    H222958   3.373   6.657   3.769 -1.1279  0.8289  0.0793
  467TIP3   OH222959   1.877   1.146   1.333 -0.1211  0.0924  0.2002
  467TIP3    H122960   1.802   1.159   1.275  0.0189  2.1345  0.4064
  467TIP3    H222961   1.952   1.179   1.283  0.1785  0.7799  1.0783
  468TIP3   OH222962   3.595   3.863   2.551 -0.0608  0.0850  0.5732
  468TIP3    H122963   3.619   3.881   2.642  0.5990  0.0211  0.4144
  468TIP3    H222964   3.617   3.771   2.539 -1.5278 -0.3116  0.7792
  469TIP3   OH222965   1.623   4.702   2.100 -0.5211 -0.6553 -0.0699
  469TIP3    H122966   1.615   4.624   2.045 -0.0993 -0.9962  0.3442
  469TIP3    H222967   1.536   4.715   2.137 -0.2245 -1.9230  1.1763
  470TIP3   OH222968   1.265   5.234   1.743 -0.1063  0.3812  0.0611
  470TIP3    H122969   1.327   5.263   1.676  1.2341  0.8646  1.4708
  470TIP3    H222970   1.192   5.295   1.735  1.1262  2.0071  0.6320
  471TIP3   OH222971   4.720   5.386   4.013  0.0339  0.4412  0.0071
  471TIP3    H122972   4.667   5.340   3.948 -0.9084  0.7756  0.5234
  471TIP3    H222973   4.711   5.333   4.092  2.0428 -0.5609 -0.3656
  472TIP3   OH222974   0.332   4.929   3.797 -0.6932 -0.4037  0.0671
  472TIP3    H122975   0.370   4.841   3.794 -1.0522 -0.6409  1.3608
  472TIP3    H222976   0.238   4.914   3.804 -0.7253  0.0565  0.7851
  473TIP3   OH222977   3.004   4.671   2.552 -0.0910 -0.4034 -0.4801
  473TIP3    H122978   2.938   4.682   2.483 -0.7678  0.6558  0.3167
  473TIP3    H222979   3.036   4.759   2.568 -1.2324 -0.3399  1.7989
  474TIP3   OH222980   2.528   1.546   1.681 -0.0305  0.0001 -0.7338
  474TIP3    H122981   2.550   1.581   1.767  2.9599 -2.5926 -0.2450
  474TIP3    H222982   2.438   1.515   1.690  0.3458 -0.6169  1.6680
  475TIP3   OH222983   4.762   6.848   3.210  0.2314  0.2053 -0.2176
  475TIP3    H122984   4.718   6.847   3.295  1.9543 -0.8009  0.7208
  475TIP3    H222985   4.715   6.914   3.159 -0.8552  0.8177  1.5039
  476TIP3   OH222986   4.822   2.943   2.895 -0.2791  0.3420 -0.3318
  476TIP3    H122987   4.886   3.014   2.898  0.1254 -0.0202 -0.3102
  476TIP3    H222988   4.776   2.956   2.812  0.4345  0.0771 -0.7758
  477TIP3   OH222989   1.759   5.511   0.397 -0.0069 -0.4369  0.1475
  477TIP3    H122990   1.774   5.416   0.395  0.4268 -0.4952 -4.6425
  477TIP3    H222991   1.678   5.524   0.347  0.3772  1.7835  0.0025
  478TIP3   OH222992   3.259   4.918   0.701 -0.3862 -0.3475 -0.2196
  478TIP3    H122993   3.234   5.007   0.726 -1.0164 -0.5581 -0.0805
  478TIP3    H222994   3.177   4.876   0.674 -0.1527 -0.9822  0.0239
  479TIP3   OH222995   4.346   0.273   2.098 -0.5055  0.3109 -0.3809
  479TIP3    H122996   4.440   0.286   2.101 -0.3551 -0.7325  0.4172
  479TIP3    H222997   4.325   0.233   2.183 -1.7402  1.0026 -0.3398
  480TIP3   OH222998   1.270   2.443   1.799  0.2745 -0.4327  0.8480
  480TIP3    H122999   1.313   2.462   1.882  0.0247 -0.6174  1.0188
  480TIP3    H223000   1.319   2.368   1.763  1.4170  0.6537  0.0572
  481TIP3   OH223001   0.531   3.616   1.597 -0.2155  0.0727  0.1896
  481TIP3    H123002   0.497   3.579   1.679 -1.6953  0.0738 -0.3855
  481TIP3    H223003   0.603   3.559   1.572 -0.1448 -0.2854  1.1683
  482TIP3   OH223004   4.200   2.370   3.563 -0.4084 -0.5844 -0.2888
  482TIP3    H123005   4.158   2.452   3.591  0.1318 -0.0087 -1.1527
  482TIP3    H223006   4.129   2.305   3.569 -1.4169  0.3424 -1.5854
  483TIP3   OH223007   3.961   5.137   1.656 -0.3322  0.5825 -0.3863
  483TIP3    H123008   3.883   5.096   1.619 -0.1455 -1.1505  1.0244
  483TIP3    H223009   4.015   5.159   1.580 -1.2849 -0.0725 -1.2802
  484TIP3   OH223010   2.719   5.695   4.197  0.4878  0.4931  0.7918
  484TIP3    H123011   2.673   5.611   4.195 -0.3812  0.9418 -1.8685
  484TIP3    H223012   2.811   5.672   4.190  0.2813 -0.2667  0.4406
  485TIP3   OH223013   0.067   5.752   2.466  0.1863 -0.2261  0.2578
  485TIP3    H123014   0.023   5.742   2.382  1.5615 -1.8748 -0.3311
  485TIP3    H223015  -0.001   5.784   2.526 -1.1600 -0.3871 -1.1313
  486TIP3   OH223016   5.977   4.159   4.279 -0.3318  0.2251  0.3667
  486TIP3    H123017   6.034   4.154   4.355 -0.9101 -1.5471  0.7184
  486TIP3    H223018   5.895   4.120   4.307 -1.0806  0.9333 -0.7260
  487TIP3   OH223019   6.186   4.669   1.926 -0.1980 -0.0746  0.0090
  487TIP3    H123020   6.252   4.728   1.889 -0.4702  0.9320  1.0718
  487TIP3    H223021   6.108   4.684   1.871 -0.0929  0.1221 -0.0884
  488TIP3   OH223022   1.111   0.415   4.052  0.3882 -0.4481 -0.0361
  488TIP3    H123023   1.053   0.470   4.105 -2.8795 -0.4485 -3.1792
  488TIP3    H223024   1.141   0.473   3.981  0.9308 -1.4986 -0.6948
  489TIP3   OH223025   1.919   4.650   0.818 -0.2664 -0.5401 -0.2879
  489TIP3    H123026   1.954   4.719   0.875 -1.2877 -0.9546  0.9029
  489TIP3    H223027   1.992   4.629   0.759  0.1523  1.3527 -0.5232
  490TIP3   OH223028   5.241   2.621   4.925 -0.0026  0.2843  0.2728
  490TIP3    H123029   5.285   2.591   4.845  0.0180 -0.8198  0.6872
  490TIP3    H223030   5.297   2.591   4.996 -0.3877  0.6564  0.7364
  491TIP3   OH223031   2.500   5.970   3.192 -0.5581 -0.2137  0.0911
  491TIP3    H123032   2.509   5.978   3.097 -0.4182 -1.5819 -0.0276
  491TIP3    H223033   2.422   6.022   3.213 -1.0086 -0.4811 -0.8579
  492TIP3   OH223034   2.300   4.657   2.511 -0.0477 -0.7085  0.5937
  492TIP3    H123035   2.317   4.692   2.599  1.6954 -1.6892  0.6887
  492TIP3    H223036   2.363   4.702   2.455 -1.1903 -0.0486 -0.1793
  493TIP3   OH223037   2.137   2.219   3.589 -0.1967  0.5385 -0.1150
  493TIP3    H123038   2.054   2.262   3.610  0.1130  0.5884  1.0864
  493TIP3    H223039   2.151   2.159   3.662  0.6915  0.3260 -0.4518
  494TIP3   OH223040   2.102   6.630   3.728  0.2318  0.3949 -0.1788
  494TIP3    H123041   2.114   6.538   3.752 -1.7816  0.1883  0.2222
  494TIP3    H223042   2.081   6.674   3.810 -0.9890  0.7709 -0.6633
  495TIP3   OH223043   2.604   6.838   2.648 -0.4165  0.0553 -0.2131
  495TIP3    H123044   2.603   6.807   2.739  1.2276 -1.4192 -0.6566
  495TIP3    H223045   2.689   6.882   2.639  0.1131 -1.1701 -1.4412
  496TIP3   OH223046   0.392   0.833   0.467  0.7983  0.3687 -0.1924
  496TIP3    H123047   0.361   0.902   0.409 -1.8107  0.7030  1.4565
  496TIP3    H223048   0.316   0.810   0.520  2.4002 -1.6635  1.3912
  497TIP3   OH223049   4.942   3.981   1.362  0.2681 -0.0577 -0.3756
  497TIP3    H123050   4.937   4.073   1.335 -0.9194  0.3101  0.9698
  497TIP3    H223051   5.033   3.968   1.388  0.1179  1.2105  0.8918
  498TIP3   OH223052   3.442   1.638   2.688 -0.3960 -0.0006  0.6731
  498TIP3    H123053   3.395   1.576   2.743  1.9823 -1.5512  1.1281
  498TIP3    H223054   3.508   1.676   2.746  0.1469  0.6888 -0.3586
  499TIP3   OH223055   6.167   4.780   0.841  0.1190 -0.3535  0.5029
  499TIP3    H123056   6.161   4.764   0.747 -1.1199  0.3294  0.4395
  499TIP3    H223057   6.095   4.729   0.878 -0.5595  0.8068  0.8502
  500TIP3   OH223058   3.792   2.283   1.846 -0.0520 -0.2469 -0.2277
  500TIP3    H123059   3.791   2.190   1.866  0.5487 -0.2388 -0.1370
  500TIP3    H223060   3.781   2.287   1.751  1.7564 -0.5043 -0.4755
  501TIP3   OH223061   5.225   1.442   0.217  0.5165  0.1739 -0.4370
  501TIP3    H123062   5.308   1.397   0.234 -0.7820 -1.5347  1.9500
  501TIP3    H223063   5.207   1.491   0.298 -2.3320 -2.1639  0.5147
  502TIP3   OH223064   4.943   3.291   3.189  0.4325  0.6113  0.3242
  502TIP3    H123065   4.988   3.210   3.168  0.3405  0.8097 -0.7056
  502TIP3    H223066   4.910   3.278   3.278  0.9718 -0.2195  0.4144
  503TIP3   OH223067   5.665   5.555   1.725  0.2174  0.7086 -0.0865
  503TIP3    H123068   5.655   5.591   1.637  4.0072 -0.2948 -1.1122
  503TIP3    H223069   5.640   5.463   1.715 -0.6920  0.9024  0.2874
  504TIP3   OH223070   0.871   1.855   3.848 -0.2142  0.1843  0.4767
  504TIP3    H123071   0.918   1.792   3.903 -0.3613  0.0529  0.4536
  504TIP3    H223072   0.915   1.938   3.863  0.6097 -0.1072 -0.2276
  505TIP3   OH223073   1.858   2.590   0.603  0.0412 -0.0015  0.1101
  505TIP3    H123074   1.847   2.495   0.602  0.5329 -0.0637 -1.3470
  505TIP3    H223075   1.845   2.617   0.512  0.8398  1.2223  0.3306
  506TIP3   OH223076   6.349   4.857   1.120 -0.8272 -0.2046 -0.7121
  506TIP3    H123077   6.254   4.852   1.117 -0.9581  1.7517 -0.7894
  506TIP3    H223078   6.368   4.947   1.146  0.9819 -1.3236  2.3797
  507TIP3   OH223079   6.401   3.647   2.902  0.0934 -0.4907  0.1916
  507TIP3    H123080   6.345   3.643   2.979 -1.4995  1.8309 -0.7272
  507TIP3    H223081   6.418   3.741   2.889 -0.4956 -0.6962 -2.7732
  508TIP3   OH223082   4.789   5.939   0.893 -0.2567 -0.3324 -0.1303
  508TIP3    H123083   4.723   5.882   0.933 -0.6954  0.3119  0.0891
  508TIP3    H223084   4.796   5.908   0.803  0.5667 -1.6449  0.3605
  509TIP3   OH223085   0.315   1.295   0.230  0.5416 -0.1594  0.1220
  509TIP3    H123086   0.339   1.312   0.139 -0.5463 -0.0952 -0.1622
  509TIP3    H223087   0.246   1.358   0.249  0.4944 -0.4255  0.8702
  510TIP3   OH223088   6.421   2.558   3.860 -0.4642 -0.1949  0.5991
  510TIP3    H123089   6.427   2.624   3.791 -0.3014 -0.3297  0.4829
  510TIP3    H223090   6.507   2.557   3.901 -0.6435  0.0789  0.9865
  511TIP3   OH223091   3.698   1.430   0.127 -0.4257  0.0291 -0.2392
  511TIP3    H123092   3.727   1.380   0.203 -1.2763 -0.9372 -0.5207
  511TIP3    H223093   3.746   1.512   0.132 -0.0629 -0.2413  1.0361
  512TIP3   OH223094   4.806   2.049   0.103  0.1863  1.1290 -0.4965
  512TIP3    H123095   4.754   2.044   0.023 -0.1539  1.2392 -0.2841
  512TIP3    H223096   4.861   1.971   0.101 -2.1351 -0.6535  0.7509
  513TIP3   OH223097   3.122   3.196   0.749 -0.2364 -0.0581  0.0960
  513TIP3    H123098   3.194   3.240   0.704 -0.6875 -0.2726 -0.8564
  513TIP3    H223099   3.064   3.267   0.778  0.9165  0.1993  1.9067
  514TIP3   OH223100   5.547   2.283   3.795 -0.0309 -0.1948  0.0645
  514TIP3    H123101   5.507   2.370   3.800  0.6358  0.2178 -1.3306
  514TIP3    H223102   5.522   2.250   3.708  1.5265 -0.4748 -0.2970
  515TIP3   OH223103   4.044   0.919   0.260 -0.4225  0.1431 -0.5583
  515TIP3    H123104   4.020   0.992   0.317 -1.3341 -0.4718 -0.1233
  515TIP3    H223105   4.018   0.948   0.173 -0.8217  0.3225 -0.3833
  516TIP3   OH223106   3.055   1.741   3.274 -0.4816  0.7209  0.1550
  516TIP3    H123107   3.118   1.691   3.221 -0.3899  1.4158 -0.4160
  516TIP3    H223108   3.036   1.819   3.221 -0.5871  1.3124  1.0372
  517TIP3   OH223109   1.697   6.749   0.361 -0.9267 -0.1079 -0.1405
  517TIP3    H123110   1.718   6.786   0.275  0.2367  2.4009  1.1044
  517TIP3    H223111   1.626   6.803   0.394  0.5594  0.9240  1.5962
  518TIP3   OH223112   0.930   2.137   3.896 -0.1237 -0.6504 -0.3351
  518TIP3    H123113   0.895   2.226   3.909 -1.6957 -1.2829  0.0292
  518TIP3    H223114   1.016   2.151   3.856  0.5968  1.0919  1.6321
  519TIP3   OH223115   0.828   5.163   1.478  0.1249  0.3100  0.0879
  519TIP3    H123116   0.866   5.175   1.565  0.6923 -2.2037  0.2557
  519TIP3    H223117   0.903   5.146   1.422 -0.4649 -1.8052 -0.1378
  520TIP3   OH223118   1.165   0.804   0.567  0.4337  0.0542 -0.3880
  520TIP3    H123119   1.143   0.744   0.497 -1.1946 -0.9700  0.9055
  520TIP3    H223120   1.224   0.755   0.624 -0.4578 -0.1695  0.3775
  521TIP3   OH223121   2.850   2.002   3.482 -0.5772  0.1687 -0.4797
  521TIP3    H123122   2.905   2.054   3.424 -1.0581 -0.8994 -1.9515
  521TIP3    H223123   2.839   1.919   3.436 -1.9969 -0.2728  0.5926
  522TIP3   OH223124   2.183   6.072   2.177  0.2142 -0.0065 -0.0370
  522TIP3    H123125   2.145   6.121   2.250 -1.7749 -0.1493 -0.8928
  522TIP3    H223126   2.212   5.990   2.216  0.3195  0.4229  0.8048
  523TIP3   OH223127   0.549   0.730   2.923  0.4620  0.2851 -0.4014
  523TIP3    H123128   0.486   0.802   2.926 -1.6049 -1.3735 -1.3495
  523TIP3    H223129   0.593   0.732   3.008 -2.5353  0.1520  1.2937
  524TIP3   OH223130   2.231   0.992   3.083 -0.0216  0.1517 -0.6383
  524TIP3    H123131   2.194   0.904   3.080 -1.7553  0.7919  0.7452
  524TIP3    H223132   2.294   0.990   3.155 -1.1296  0.3925  0.3699
  525TIP3   OH223133   5.614   1.152   3.332  0.2405  0.0967  0.2058
  525TIP3    H123134   5.600   1.102   3.252  0.4530 -0.6753  0.6399
  525TIP3    H223135   5.658   1.091   3.391 -0.9316  0.2869  1.3140
  526TIP3   OH223136   3.075   4.501   3.981  0.2032 -0.3892 -0.7013
  526TIP3    H123137   3.114   4.515   4.067 -1.9903  0.1314  0.2922
  526TIP3    H223138   3.131   4.437   3.939 -0.6113 -3.5441  2.5470
  527TIP3   OH223139   0.326   0.443   1.122  1.0997 -0.1389 -0.1541
  527TIP3    H123140   0.232   0.457   1.113  1.2776 -0.1584 -2.5661
  527TIP3    H223141   0.347   0.478   1.209 -1.3290 -1.4222  1.0383
  528TIP3   OH223142   1.668   3.932   4.293  0.3393 -0.4005  0.1567
  528TIP3    H123143   1.727   3.878   4.241  0.8655  0.1693  0.1479
  528TIP3    H223144   1.659   3.886   4.376  2.2572  0.3990  0.8586
  529TIP3   OH223145   4.593   3.429   0.724  0.0347  0.3817  0.2131
  529TIP3    H123146   4.602   3.432   0.628  0.8813  0.0116  0.2772
  529TIP3    H223147   4.581   3.521   0.749  0.9450  0.6124 -0.1486
  530TIP3   OH223148   1.859   3.002   2.671  0.0069 -0.0367 -0.1127
  530TIP3    H123149   1.919   2.937   2.708 -0.6893 -0.1700  0.8385
  530TIP3    H223150   1.785   3.003   2.733 -0.7856  0.4013 -1.0487
  531TIP3   OH223151   3.020   3.140   4.725 -0.3953 -0.4068 -0.1963
  531TIP3    H123152   2.927   3.135   4.749 -0.8717 -0.1740 -1.8718
  531TIP3    H223153   3.040   3.233   4.728 -0.0312 -0.5069  0.7621
  532TIP3   OH223154   3.866   0.988   3.514  0.5204  0.1924  0.0460
  532TIP3    H123155   3.819   1.020   3.591  1.7861 -0.1602  1.0130
  532TIP3    H223156   3.818   0.910   3.488  0.4694 -0.0820  0.9155
  533TIP3   OH223157   5.058   3.787   1.855  0.2847 -0.2898  0.1875
  533TIP3    H123158   5.008   3.798   1.774 -0.0742 -0.3812  0.3938
  533TIP3    H223159   4.994   3.802   1.924  0.3151 -1.3649  0.4662
  534TIP3   OH223160   6.893   4.524   0.525 -0.0119  0.0367  0.4105
  534TIP3    H123161   6.826   4.475   0.476  0.4355 -1.3979  1.1629
  534TIP3    H223162   6.846   4.597   0.565 -0.7469  0.1374 -0.6054
  535TIP3   OH223163   5.735   4.814   3.905  0.0899  0.0020  0.0278
  535TIP3    H123164   5.759   4.774   3.989 -1.9509  0.1312  0.7211
  535TIP3    H223165   5.640   4.809   3.902  0.1226 -0.4742 -2.5470
  536TIP3   OH223166   1.937   3.075   3.038 -0.6890  0.4266 -0.2181
  536TIP3    H123167   1.874   3.068   2.967  0.7761  0.6791 -1.5967
  536TIP3    H223168   1.995   2.999   3.027  1.3311  1.9950 -1.1645
  537TIP3   OH223169   4.407   2.500   4.865 -0.1253 -0.0905 -0.3266
  537TIP3    H123170   4.418   2.565   4.934 -0.1832 -0.6735  0.2489
  537TIP3    H223171   4.495   2.490   4.827 -0.4434  1.5693 -1.6044
  538TIP3   OH223172   0.107   2.786   1.164 -0.1808 -0.4126  0.7180
  538TIP3    H123173   0.017   2.802   1.137  0.4600 -1.2758 -2.4366
  538TIP3    H223174   0.119   2.692   1.149  1.4521 -0.1523  0.1978
  539TIP3   OH223175   2.616   0.988   1.032 -0.4567  0.4575 -0.3110
  539TIP3    H123176   2.710   0.976   1.048 -0.6260 -0.4458  0.0597
  539TIP3    H223177   2.576   0.979   1.119 -0.8663  1.1975 -0.4072
  540TIP3   OH223178   0.681   6.864   1.594  0.1016 -0.3673  0.7379
  540TIP3    H123179   0.689   6.873   1.499  0.4540 -1.2182  0.6772
  540TIP3    H223180   0.589   6.884   1.612 -0.0984 -0.7401  0.1461
  541TIP3   OH223181   0.232   0.685   4.699 -0.1280  0.0952  0.2836
  541TIP3    H123182   0.169   0.614   4.706  0.3313 -0.3113  0.3129
  541TIP3    H223183   0.178   0.764   4.689 -0.6885 -0.0161  2.0888
  542TIP3   OH223184   3.543   4.873   0.814 -0.2429  0.0457  1.3421
  542TIP3    H123185   3.462   4.822   0.825  0.1859 -0.6106  1.4778
  542TIP3    H223186   3.609   4.809   0.790  0.3903  0.4748  1.8948
  543TIP3   OH223187   3.178   2.068   0.599 -0.4427  0.7779 -0.0499
  543TIP3    H123188   3.260   2.072   0.648  0.2486 -1.1263 -0.9352
  543TIP3    H223189   3.112   2.047   0.665  0.0711  0.6324  0.4263
  544TIP3   OH223190   5.042   6.676   2.472 -0.0981  0.0833  0.5254
  544TIP3    H123191   4.992   6.625   2.410 -1.3172  1.3448  0.4239
  544TIP3    H223192   5.043   6.765   2.435  1.4594  0.2877  0.9748
  545TIP3   OH223193   6.157   4.004   1.761  0.3732 -0.5889  0.2058
  545TIP3    H123194   6.229   4.040   1.812 -0.0520  0.5082  0.0557
  545TIP3    H223195   6.169   3.909   1.766  2.2513 -0.4265 -0.4400
  546TIP3   OH223196   1.047   1.938   1.119 -0.2908  0.0454 -0.1146
  546TIP3    H123197   1.077   1.995   1.048  4.7154  0.1041  1.6292
  546TIP3    H223198   1.010   1.998   1.184  3.3757  1.4061  0.9693
  547TIP3   OH223199   3.338   4.223   4.542 -0.3316 -0.3606  0.1516
  547TIP3    H123200   3.359   4.250   4.632 -0.9674 -3.9808  1.5371
  547TIP3    H223201   3.245   4.244   4.532  0.0723  1.4502 -0.3375
  548TIP3   OH223202   4.431   5.220   2.904 -0.0847  0.7890  0.7187
  548TIP3    H123203   4.390   5.207   2.989 -0.5034  2.2019  0.7636
  548TIP3    H223204   4.362   5.260   2.850  0.2318  0.1006 -0.2319
  549TIP3   OH223205   5.369   2.599   1.901 -0.5759 -0.7726 -0.7820
  549TIP3    H123206   5.405   2.609   1.813  1.8864 -0.1778  0.2004
  549TIP3    H223207   5.344   2.507   1.906  0.2821 -1.0805 -1.7466
  550TIP3   OH223208   1.628   5.850   1.686 -0.0448  0.3776  0.0941
  550TIP3    H123209   1.549   5.823   1.731  0.4095  1.4268  1.5773
  550TIP3    H223210   1.648   5.937   1.720  1.3147  0.4692 -0.8286
  551TIP3   OH223211   6.624   2.619   1.363 -0.0238  0.3282  0.1075
  551TIP3    H123212   6.643   2.550   1.299  0.6952  0.3052  0.3317
  551TIP3    H223213   6.544   2.660   1.331 -0.7971 -0.9854  0.2868
  552TIP3   OH223214   6.038   5.987   0.336  0.3772 -0.4235 -0.1851
  552TIP3    H123215   6.110   5.943   0.290 -1.0285 -0.8265 -2.1544
  552TIP3    H223216   6.063   6.079   0.336  1.1262 -0.6135 -0.3957
  553TIP3   OH223217   2.211   1.200   1.368 -0.1647 -0.0587 -0.1408
  553TIP3    H123218   2.143   1.214   1.301 -0.6074  0.8633  0.4743
  553TIP3    H223219   2.273   1.272   1.353  0.6236 -0.8288 -0.6222
  554TIP3   OH223220   4.859   0.741   1.193 -0.9710  0.3415  0.3786
  554TIP3    H123221   4.874   0.813   1.254  0.7430 -0.0752  0.5205
  554TIP3    H223222   4.903   0.769   1.112  0.5932 -0.8959  0.7405
  555TIP3   OH223223   2.043   5.794   0.694 -0.1176  0.3832 -0.3941
  555TIP3    H123224   2.091   5.801   0.776  0.9617  0.0209 -0.9783
  555TIP3    H223225   2.057   5.878   0.650 -0.8248  0.6373 -0.1571
  556TIP3   OH223226   2.855   5.614   3.870  0.0416  0.0406 -0.9658
  556TIP3    H123227   2.905   5.649   3.943  2.1378 -1.6779 -1.4811
  556TIP3    H223228   2.821   5.692   3.825  0.5801  1.1866  0.5382
  557TIP3   OH223229   0.937   3.558   1.502 -0.2957  0.6300  0.4893
  557TIP3    H123230   0.969   3.537   1.414 -1.9733  0.0965 -0.0426
  557TIP3    H223231   0.975   3.643   1.522  1.9662 -0.2463  0.2343
  558TIP3   OH223232   3.580   3.751   3.559 -0.4204  0.3170  0.1834
  558TIP3    H123233   3.535   3.809   3.620 -1.3332 -0.6198  0.4387
  558TIP3    H223234   3.551   3.663   3.585  0.5764 -0.2196 -0.4692
  559TIP3   OH223235   1.193   4.147   1.854  0.3557  0.3586  0.2195
  559TIP3    H123236   1.178   4.106   1.769  1.2528  1.1193 -0.3156
  559TIP3    H223237   1.137   4.098   1.914 -0.0268 -0.4107 -0.7432
  560TIP3   OH223238   0.311   2.877   4.348 -0.0267 -0.9065 -0.2498
  560TIP3    H123239   0.357   2.811   4.399 -0.2452 -0.2163  0.8863
  560TIP3    H223240   0.218   2.857   4.361 -0.0804 -1.1534 -0.9736
  561TIP3   OH223241   6.436   1.954   1.195 -0.2140  0.0446  0.1618
  561TIP3    H123242   6.373   1.920   1.259  2.3514 -0.4899  2.6081
  561TIP3    H223243   6.503   1.886   1.190  0.6197  0.9395 -1.7196
  562TIP3   OH223244   5.124   2.393   0.695 -0.0753 -0.3782  0.0584
  562TIP3    H123245   5.046   2.379   0.749 -0.6123  1.2255 -0.2282
  562TIP3    H223246   5.105   2.347   0.613 -0.5776 -0.2697  0.1115
  563TIP3   OH223247   3.046   5.738   4.504  0.5514  0.4826  0.1300
  563TIP3    H123248   3.027   5.823   4.543  1.6208 -0.3302  2.5707
  563TIP3    H223249   3.136   5.719   4.530 -0.3881 -2.4014  1.7078
  564TIP3   OH223250   2.227   1.432   1.663  0.2495 -0.0330 -0.0428
  564TIP3    H123251   2.168   1.451   1.736  1.0886  0.6444  0.4819
  564TIP3    H223252   2.189   1.479   1.589 -1.0432 -1.3592 -0.2698
  565TIP3   OH223253   4.882   3.855   2.131  0.2053 -0.3739 -0.3028
  565TIP3    H123254   4.825   3.925   2.099 -0.3422  0.2367  1.8364
  565TIP3    H223255   4.971   3.884   2.111  0.0569  1.5305  1.5649
  566TIP3   OH223256   5.171   4.720   2.864  0.1966 -0.7748 -0.5897
  566TIP3    H123257   5.197   4.811   2.849  1.0364 -1.1882 -1.7346
  566TIP3    H223258   5.122   4.723   2.946 -0.0918  0.7598 -0.7897
  567TIP3   OH223259   2.882   6.391   3.075  0.4800 -0.2010  0.1974
  567TIP3    H123260   2.825   6.423   3.144 -1.4039 -0.5045 -1.1449
  567TIP3    H223261   2.847   6.429   2.995  0.5509 -2.4406 -0.9876
  568TIP3   OH223262   4.462   6.266   1.547 -0.2760 -0.5025  0.0947
  568TIP3    H123263   4.473   6.340   1.488  0.9227  0.0046  0.9191
  568TIP3    H223264   4.389   6.291   1.604 -0.5789 -0.4394 -0.3144
  569TIP3   OH223265   5.014   3.776   0.308  0.1631 -0.2473  0.0702
  569TIP3    H123266   4.934   3.726   0.323  0.2907 -0.0617  1.4836
  569TIP3    H223267   5.084   3.710   0.309  0.0837 -0.3548 -0.7359
  570TIP3   OH223268   6.724   6.359   1.572  0.1392 -0.9607  0.2399
  570TIP3    H123269   6.694   6.319   1.653  1.8240 -0.2439  1.2550
  570TIP3    H223270   6.649   6.410   1.542  0.2679  0.8940  2.7679
  571TIP3   OH223271   0.418   4.854   0.820  0.5800  0.3750 -0.2516
  571TIP3    H123272   0.370   4.781   0.858 -2.1295  1.8979 -0.4377
  571TIP3    H223273   0.475   4.885   0.890 -0.5025 -0.0361  0.8452
  572TIP3   OH223274   4.900   1.025   3.005  0.7045 -0.1506 -0.3354
  572TIP3    H123275   4.995   1.021   2.996  0.9593  0.5028  1.6598
  572TIP3    H223276   4.875   0.937   3.033  0.8042 -0.1251 -0.1679
  573TIP3   OH223277   4.901   6.771   2.969 -0.2487  0.4364  0.4095
  573TIP3    H123278   4.865   6.740   2.886  0.3188  3.4281 -1.0590
  573TIP3    H223279   4.825   6.781   3.026 -1.0535  1.1463 -0.7469
  574TIP3   OH223280   5.088   6.246   3.260 -0.0498  0.3691 -0.7848
  574TIP3    H123281   5.117   6.155   3.262 -0.0739  0.3766  0.0433
  574TIP3    H223282   5.094   6.271   3.167 -1.1860 -0.8490 -1.2304
  575TIP3   OH223283   2.243   3.696   3.994  0.6764  0.1237 -0.2404
  575TIP3    H123284   2.321   3.690   3.939  1.0745  0.4596  0.2706
  575TIP3    H223285   2.270   3.751   4.068 -0.0829  0.3463 -0.1166
  576TIP3   OH223286   5.822   4.483   4.224  0.5138 -0.3653  0.5902
  576TIP3    H123287   5.891   4.455   4.165 -0.7043 -2.9278  0.2299
  576TIP3    H223288   5.749   4.422   4.207 -0.9152  0.6050  2.7050
  577TIP3   OH223289   1.505   2.255   3.572  0.5190  0.0731  0.5101
  577TIP3    H123290   1.481   2.171   3.611  0.9058 -0.2527  0.0517
  577TIP3    H223291   1.558   2.232   3.496 -0.6791  0.6783 -0.5390
  578TIP3   OH223292   4.349   4.866   1.875 -0.0763  0.0595 -0.4147
  578TIP3    H123293   4.379   4.776   1.870 -4.1308 -1.5066  0.0198
  578TIP3    H223294   4.266   4.867   1.827 -0.7969  3.2710  0.6228
  579TIP3   OH223295   6.174   0.096   2.839  0.1943  0.2120 -0.2745
  579TIP3    H123296   6.089   0.115   2.800  0.3186  2.3352  0.3548
  579TIP3    H223297   6.154   0.047   2.919 -0.4372  0.6253 -0.1751
  580TIP3   OH223298   3.331   0.205   3.571  0.3989 -0.4998  0.1219
  580TIP3    H123299   3.315   0.222   3.478 -0.8501  0.2419  0.4542
  580TIP3    H223300   3.248   0.171   3.605 -0.1203  1.9851  1.5715
  581TIP3   OH223301   0.613   3.688   0.210 -0.5510 -0.4951  0.3289
  581TIP3    H123302   0.605   3.596   0.187  1.0768 -0.5893  0.0602
  581TIP3    H223303   0.542   3.731   0.163  0.1400 -1.2811 -1.5069
  582TIP3   OH223304   4.420   1.625   2.724 -0.1245  0.3874 -0.0415
  582TIP3    H123305   4.361   1.573   2.779  0.0886  0.3512  0.1527
  582TIP3    H223306   4.369   1.702   2.701  0.0253  0.7351  0.7750
  583TIP3   OH223307   2.098   1.585   3.403 -0.0673 -0.3581  0.1312
  583TIP3    H123308   2.056   1.507   3.440  2.2512 -1.9384 -0.3305
  583TIP3    H223309   2.153   1.618   3.474 -0.9855  0.8674  0.2998
  584TIP3   OH223310   5.699   0.965   3.961 -0.2197  0.2056  0.5973
  584TIP3    H123311   5.787   0.928   3.948 -0.3142  0.5700 -1.3949
  584TIP3    H223312   5.641   0.890   3.959 -0.0231  0.0239  1.3222
  585TIP3   OH223313   6.121   0.733   0.358 -0.1757 -0.2251 -0.0071
  585TIP3    H123314   6.038   0.718   0.403 -0.4169  0.0678 -0.3513
  585TIP3    H223315   6.120   0.825   0.334  0.0664 -0.3168 -0.3819
  586TIP3   OH223316   1.287   4.316   3.800  0.1923 -0.2100 -0.1296
  586TIP3    H123317   1.350   4.387   3.792 -0.9689  0.7566 -0.8906
  586TIP3    H223318   1.324   4.245   3.747  0.7805  0.2314 -0.3142
  587TIP3   OH223319   1.672   5.151   4.595  0.1729 -0.0963 -0.1537
  587TIP3    H123320   1.583   5.140   4.629  0.0411  1.1749 -0.0464
  587TIP3    H223321   1.680   5.082   4.529 -1.4696  0.7311 -1.2931
  588TIP3   OH223322   4.544   4.497   4.178  0.2550 -0.2464  0.0745
  588TIP3    H123323   4.581   4.575   4.220 -0.0628 -0.9364  1.7102
  588TIP3    H223324   4.537   4.433   4.248 -0.8524 -1.2765 -0.9264
  589TIP3   OH223325   6.883   6.782   0.910 -0.0821  0.4672 -0.6900
  589TIP3    H123326   6.943   6.836   0.858  0.9724 -1.2927 -1.4155
  589TIP3    H223327   6.836   6.730   0.845  0.1691 -0.6961  0.0291
  590TIP3   OH223328   1.303   1.006   0.072 -0.6220 -0.7248  0.5554
  590TIP3    H123329   1.258   1.041  -0.005 -0.7127 -1.0976  0.4375
  590TIP3    H223330   1.352   1.081   0.106 -2.1625 -0.0042  1.3175
  591TIP3   OH223331   3.683   1.904   2.656 -0.3355 -0.1057 -0.0219
  591TIP3    H123332   3.738   1.981   2.640 -0.3127 -0.5891 -2.6339
  591TIP3    H223333   3.619   1.934   2.722  0.6461  1.6363  0.2038
  592TIP3   OH223334   6.604   0.107   2.577 -0.3230 -0.2882  0.5654
  592TIP3    H123335   6.589   0.194   2.539  1.3787 -0.5745 -0.8821
  592TIP3    H223336   6.676   0.071   2.527 -1.8005 -3.0904  0.2386
  593TIP3   OH223337   3.262   3.385   4.909  0.1630  0.4224  0.3109
  593TIP3    H123338   3.312   3.463   4.886  0.7465  0.2562  0.9944
  593TIP3    H223339   3.301   3.315   4.856  0.7727  0.2591  0.9715
  594TIP3   OH223340   4.175   2.168   4.174 -0.0414  0.3278  0.0857
  594TIP3    H123341   4.141   2.096   4.226 -1.2183  0.0432 -1.0281
  594TIP3    H223342   4.120   2.243   4.196  0.1612  0.4891  0.0567
  595TIP3   OH223343   4.494   0.208   3.335 -0.0660  0.5720  0.0867
  595TIP3    H123344   4.456   0.200   3.248  1.0932  0.2621 -0.4117
  595TIP3    H223345   4.463   0.131   3.382  0.1788  0.1682 -0.4046
  596TIP3   OH223346   0.281   4.097   3.541 -0.2420 -0.5001 -0.1417
  596TIP3    H123347   0.306   4.049   3.462 -1.2210 -0.7194 -0.3297
  596TIP3    H223348   0.346   4.071   3.606 -1.5941 -3.2887  0.2033
  597TIP3   OH223349   5.282   0.896   3.084  0.5091 -0.4790 -0.3082
  597TIP3    H123350   5.313   0.972   3.035 -1.2232  0.7598  0.4053
  597TIP3    H223351   5.295   0.919   3.176  0.4419 -1.2653 -0.0937
  598TIP3   OH223352   5.518   2.393   1.725  0.3612 -0.0251  0.1471
  598TIP3    H123353   5.464   2.325   1.685  0.6288 -0.6853  0.8792
  598TIP3    H223354   5.599   2.391   1.675  0.6347 -0.7380  0.5991
  599TIP3   OH223355   0.511   1.878   1.279 -0.3073 -0.3804  0.4557
  599TIP3    H123356   0.507   1.783   1.290 -2.1287 -0.3153  0.7267
  599TIP3    H223357   0.592   1.893   1.230 -0.3324 -2.1373 -0.2061
  600TIP3   OH223358   6.181   2.333   3.079 -0.9588  0.0840 -0.3939
  600TIP3    H123359   6.240   2.408   3.072 -1.8354  0.7131 -1.3767
  600TIP3    H223360   6.214   2.270   3.016 -0.0016 -0.5449  0.6944
  601TIP3   OH223361   4.885   3.754   1.647 -0.2294  0.0167  0.1130
  601TIP3    H123362   4.860   3.690   1.580 -4.5132  1.1701  0.3198
  601TIP3    H223363   4.854   3.838   1.613  1.2225  1.3193  1.7913
  602TIP3   OH223364   6.719   3.416   0.444 -0.4180  0.2485  0.0231
  602TIP3    H123365   6.774   3.471   0.388 -0.6381 -0.2208 -0.6685
  602TIP3    H223366   6.771   3.336   0.456  0.0136  0.6923  1.2352
  603TIP3   OH223367   2.816   4.439   4.138 -0.5473 -0.3142 -0.6236
  603TIP3    H123368   2.757   4.409   4.070 -0.6386  0.6637 -0.9985
  603TIP3    H223369   2.893   4.472   4.091 -0.3705 -0.1466 -0.2274
  604TIP3   OH223370   3.083   3.689   4.466  0.4854  0.2247  0.5304
  604TIP3    H123371   2.995   3.657   4.482 -0.3540  1.4911 -1.2094
  604TIP3    H223372   3.137   3.611   4.460 -0.9668 -0.7135 -0.8108
  605TIP3   OH223373   6.138   5.639   0.458 -0.7995  0.2127  0.4748
  605TIP3    H123374   6.230   5.617   0.446 -1.0207 -0.2000 -0.5237
  605TIP3    H223375   6.135   5.684   0.543 -0.3193 -3.6820  2.8319
  606TIP3   OH223376   0.541   2.747   3.846 -0.7459 -0.6490 -0.5656
  606TIP3    H123377   0.569   2.823   3.896  0.2987 -0.1435 -1.8356
  606TIP3    H223378   0.449   2.765   3.824 -1.1849 -0.8325  1.0176
  607TIP3   OH223379   4.222   0.616   3.732  0.1851 -0.7007  0.1392
  607TIP3    H123380   4.162   0.629   3.806 -0.9693 -3.0229 -0.3019
  607TIP3    H223381   4.197   0.684   3.669  0.0655  0.2521  1.1685
  608TIP3   OH223382   4.507   6.709   2.974  0.2631  0.0149 -0.3133
  608TIP3    H123383   4.573   6.652   3.013 -0.5360  0.6318  2.0631
  608TIP3    H223384   4.544   6.797   2.982 -1.0747  0.4545  1.7293
  609TIP3   OH223385   0.945   4.922   1.224 -0.5677  0.5487 -0.1395
  609TIP3    H123386   0.919   4.884   1.308 -1.7265  0.1685 -0.6627
  609TIP3    H223387   0.989   4.851   1.178  0.2806  0.8233  0.2188
  610TIP3   OH223388   6.271   2.960   0.982  0.4538 -0.2116 -0.3965
  610TIP3    H123389   6.328   3.037   0.987  1.2344 -0.8128  0.1863
  610TIP3    H223390   6.192   2.992   0.938  0.2251  1.2557  0.9685
  611TIP3   OH223391   2.178   0.415   2.851 -0.1859 -0.1245 -0.1672
  611TIP3    H123392   2.253   0.439   2.797  0.3051  0.1272  0.5967
  611TIP3    H223393   2.103   0.459   2.810  0.3735  1.0724  0.0481
  612TIP3   OH223394   3.343   0.501   3.603  0.4565  0.1159 -0.0407
  612TIP3    H123395   3.338   0.412   3.568 -0.1662  0.6361 -1.3815
  612TIP3    H223396   3.261   0.512   3.651 -0.4907  0.6218 -1.6621
  613TIP3   OH223397   3.983   1.378   2.612 -0.8446 -0.0466  0.1588
  613TIP3    H123398   3.928   1.410   2.683 -1.1856 -1.3578  0.5143
  613TIP3    H223399   3.948   1.291   2.592 -1.0119  0.4469 -1.8925
  614TIP3   OH223400   2.216   0.521   0.467 -0.1563  0.0974  0.6718
  614TIP3    H123401   2.271   0.513   0.388 -0.5180 -0.5238  0.4756
  614TIP3    H223402   2.219   0.614   0.489  0.2616  0.2136  0.1453
  615TIP3   OH223403   2.306   3.989   2.263  0.4312 -0.3007 -0.3295
  615TIP3    H123404   2.287   3.993   2.357 -0.6721  0.2816 -0.5623
  615TIP3    H223405   2.354   4.070   2.245 -0.0581 -0.0247 -0.4092
  616TIP3   OH223406   0.111   4.432   1.712  0.3410 -0.5153  0.1343
  616TIP3    H123407   0.040   4.386   1.666  1.2067 -2.1086  0.3195
  616TIP3    H223408   0.181   4.368   1.717  0.9788  0.2749  1.9833
  617TIP3   OH223409   4.025   1.224   2.996  0.3947 -0.2960 -0.1791
  617TIP3    H123410   4.084   1.244   2.923  2.2765 -0.3449  1.2516
  617TIP3    H223411   4.016   1.129   2.995 -0.1675 -0.2429 -0.7562
  618TIP3   OH223412   4.664   4.668   3.794 -0.6142 -0.2522 -0.0462
  618TIP3    H123413   4.571   4.683   3.809 -0.3009 -0.5837  2.7303
  618TIP3    H223414   4.684   4.586   3.840  1.1390  0.1014 -0.0838
  619TIP3   OH223415   1.446   0.997   3.247 -0.4958 -0.9035 -0.0757
  619TIP3    H123416   1.386   1.033   3.183  0.1411 -0.7682 -0.6055
  619TIP3    H223417   1.516   1.063   3.255  1.2454 -2.4281 -1.8452
  620TIP3   OH223418   1.781   4.478   3.789  0.2602 -0.3643  0.2039
  620TIP3    H123419   1.833   4.399   3.801 -0.5010 -1.0990 -1.0692
  620TIP3    H223420   1.845   4.548   3.776  0.9574 -1.1850 -0.9547
  621TIP3   OH223421   4.530   3.705   0.896  0.4340 -0.1606  0.2965
  621TIP3    H123422   4.476   3.657   0.959 -1.1406  0.0208 -0.8416
  621TIP3    H223423   4.500   3.796   0.904  0.0339 -0.1716 -0.8495
  622TIP3   OH223424   4.879   2.163   2.466 -0.1899 -1.0760  0.0750
  622TIP3    H123425   4.943   2.194   2.530 -0.0712 -0.2377 -0.4363
  622TIP3    H223426   4.814   2.117   2.518 -0.4749  0.1951  0.8901
  623TIP3   OH223427   5.543   1.471   3.133  0.5213  0.2351  0.5774
  623TIP3    H123428   5.607   1.539   3.152  1.1776 -0.6086  1.5149
  623TIP3    H223429   5.593   1.405   3.085  0.7398 -1.0102  2.3873
  624TIP3   OH223430   5.652   2.031   0.603  0.9328  0.3928 -0.5687
  624TIP3    H123431   5.624   1.985   0.682  1.4595 -0.4735 -0.8631
  624TIP3    H223432   5.706   1.967   0.556  1.8050  1.3572 -0.9344
  625TIP3   OH223433   4.679   3.968   0.862  0.3743 -0.1541  0.1725
  625TIP3    H123434   4.734   3.958   0.940  1.9041  2.7429 -0.4199
  625TIP3    H223435   4.669   3.879   0.829  3.0540 -1.0522  1.4547
  626TIP3   OH223436   5.620   1.648   1.645  0.8645  0.6104  0.0403
  626TIP3    H123437   5.615   1.744   1.639 -1.3853  0.5455 -0.1115
  626TIP3    H223438   5.710   1.627   1.619  0.6600  2.5132 -2.7239
  627TIP3   OH223439   5.450   1.851   4.592 -0.2743  0.1415  0.0797
  627TIP3    H123440   5.499   1.871   4.673  1.7879 -0.5829 -0.9059
  627TIP3    H223441   5.510   1.796   4.542 -1.7215  0.1394 -1.7278
  628TIP3   OH223442   0.723   3.780   1.006  0.3603  0.1122 -0.5928
  628TIP3    H123443   0.710   3.704   0.950  1.9506  0.2190 -1.1616
  628TIP3    H223444   0.752   3.745   1.090 -0.5025  0.0220 -0.3305
  629TIP3   OH223445   0.799   1.629   0.709  0.7331  0.5498  0.6745
  629TIP3    H123446   0.795   1.629   0.614 -0.3831  0.4513  0.7008
  629TIP3    H223447   0.813   1.537   0.732 -2.2739 -0.0409  0.6383
  630TIP3   OH223448   6.321   0.113   3.397  0.0858 -0.1808  0.2504
  630TIP3    H123449   6.317   0.018   3.386  0.9911 -0.1431 -0.4783
  630TIP3    H223450   6.414   0.133   3.409 -0.1738  0.5320  1.2370
  631TIP3   OH223451   0.340   0.640   1.383 -0.0991 -0.4076  0.0570
  631TIP3    H123452   0.272   0.574   1.393  0.1992 -1.0502 -1.7535
  631TIP3    H223453   0.413   0.609   1.438 -1.5466  0.8497  2.9012
  632TIP3   OH223454   0.556   4.276   3.308  0.1848 -0.4941  0.2819
  632TIP3    H123455   0.576   4.193   3.267 -1.9717 -1.4391  1.0033
  632TIP3    H223456   0.530   4.254   3.398 -0.3323  0.9505  0.5304
  633TIP3   OH223457   3.901   3.218   2.295 -0.3280  0.0245  0.5689
  633TIP3    H123458   3.994   3.198   2.284 -0.5702 -1.0751  0.3678
  633TIP3    H223459   3.894   3.311   2.276  0.6487  0.0026  0.0329
  634TIP3   OH223460   3.660   5.264   2.073  0.5689 -0.1019 -0.2508
  634TIP3    H123461   3.737   5.309   2.039  0.2491  0.8870  0.2987
  634TIP3    H223462   3.686   5.231   2.158  0.9034 -1.2730 -0.7881
  635TIP3   OH223463   5.115   0.190   2.700 -0.2364 -0.5727  0.7156
  635TIP3    H123464   5.107   0.285   2.688 -0.6228 -0.5794  0.9025
  635TIP3    H223465   5.051   0.153   2.638 -0.7960 -0.6733  1.3462
  636TIP3   OH223466   4.400   0.983   2.482  0.2752  0.4053  0.3723
  636TIP3    H123467   4.432   0.913   2.424  0.2234  0.3849  0.3685
  636TIP3    H223468   4.403   0.945   2.570  2.5006  1.1654  0.6808
  637TIP3   OH223469   6.146   2.727   2.907 -0.1838 -0.3740 -0.0871
  637TIP3    H123470   6.208   2.799   2.900 -0.4826 -0.1664 -0.6433
  637TIP3    H223471   6.072   2.753   2.852 -0.3219 -1.0725 -0.2445
  638TIP3   OH223472   5.184   0.874   1.471 -0.8521  0.8829 -0.0185
  638TIP3    H123473   5.168   0.892   1.563 -3.2933 -2.4927  0.4135
  638TIP3    H223474   5.099   0.891   1.429 -1.0567 -1.6789 -0.7888
  639TIP3   OH223475   6.596   0.737   2.561 -0.2567 -0.0785 -0.4909
  639TIP3    H123476   6.659   0.687   2.510 -0.1697 -0.5183  0.0422
  639TIP3    H223477   6.512   0.719   2.519 -0.4346 -1.8010  0.5144
  640TIP3   OH223478   2.929   2.532   1.290  0.0121  0.1960 -0.3434
  640TIP3    H123479   2.988   2.470   1.334 -0.9512 -0.0330  0.6563
  640TIP3    H223480   2.854   2.480   1.265  0.1148  0.5402 -1.4064
  641TIP3   OH223481   1.539   0.113   2.280  0.2972  0.5226  0.2394
  641TIP3    H123482   1.545   0.205   2.304 -0.1464 -0.1626  3.4157
  641TIP3    H223483   1.630   0.085   2.267  0.5545  1.0800  0.7832
  642TIP3   OH223484   6.095   3.320   1.566  0.3184  0.1317  0.4558
  642TIP3    H123485   6.112   3.315   1.660 -1.1640  1.5051  0.8433
  642TIP3    H223486   6.165   3.374   1.531  0.8995 -0.4204  0.7414
  643TIP3   OH223487   0.684   4.725   3.895 -0.2400  0.4305  0.0656
  643TIP3    H123488   0.677   4.658   3.962  0.0383 -0.0705 -0.4016
  643TIP3    H223489   0.766   4.770   3.914 -0.7875  1.1562  0.8332
  644TIP3   OH223490   5.462   4.272   1.750  0.0824  0.3149 -0.4978
  644TIP3    H123491   5.528   4.303   1.813 -1.7988  1.6321  0.9496
  644TIP3    H223492   5.435   4.187   1.783 -0.1356  0.5321 -0.1034
  645TIP3   OH223493   1.156   6.705   3.059  0.0559 -0.7690 -0.0222
  645TIP3    H123494   1.070   6.665   3.045  1.1444 -3.1765 -0.3120
  645TIP3    H223495   1.188   6.664   3.139  0.1095  1.7047  1.3034
  646TIP3   OH223496   6.618   1.761   0.650 -0.0212  0.4680  0.0727
  646TIP3    H123497   6.694   1.711   0.678  0.4427 -0.1119 -2.0181
  646TIP3    H223498   6.652   1.847   0.628  0.2041  0.0412 -1.4046
  647TIP3   OH223499   3.968   3.769   3.064  0.3213  0.0904 -0.5454
  647TIP3    H123500   4.003   3.808   2.984  2.2033 -0.8462 -0.2294
  647TIP3    H223501   3.978   3.675   3.051 -2.9261 -0.3513 -0.7523
  648TIP3   OH223502   3.688   4.088   3.248  0.1162 -0.3048  0.4854
  648TIP3    H123503   3.627   4.141   3.300  0.6230  0.8233 -0.0480
  648TIP3    H223504   3.632   4.026   3.201 -0.6350  0.6942  0.0238
  649TIP3   OH223505   4.271   5.608   1.119  0.1644  0.0321  0.4827
  649TIP3    H123506   4.344   5.665   1.142  1.7037 -0.9343 -1.6660
  649TIP3    H223507   4.251   5.561   1.200  1.9053  0.3796  1.1533
  650TIP3   OH223508   2.607   5.972   4.208 -0.4657  0.1775  0.3302
  650TIP3    H123509   2.519   6.011   4.202 -0.6569 -0.3859 -0.9718
  650TIP3    H223510   2.654   6.007   4.132 -0.5453 -1.8040 -0.7129
  651TIP3   OH223511   1.448   4.015   1.871  0.6722  0.7355 -0.3671
  651TIP3    H123512   1.529   4.065   1.881 -0.0978  1.9276  0.0708
  651TIP3    H223513   1.378   4.079   1.884 -0.4057 -0.8144  2.4059
  652TIP3   OH223514   0.978   1.003   0.498  0.1122  0.1537  0.3439
  652TIP3    H123515   1.013   0.921   0.532  2.2506  0.8853  0.0172
  652TIP3    H223516   1.009   1.070   0.560  1.4650  1.1179 -1.2980
  653TIP3   OH223517   6.257   2.561   4.835  0.7610  0.2132 -0.4955
  653TIP3    H123518   6.189   2.627   4.847  0.4301 -0.1346 -0.4730
  653TIP3    H223519   6.331   2.610   4.797  0.0410  0.3621 -1.7812
  654TIP3   OH223520   3.881   5.488   0.494 -0.3316 -0.1407  0.1208
  654TIP3    H123521   3.855   5.557   0.434 -1.5825 -2.0271 -1.6401
  654TIP3    H223522   3.977   5.492   0.496 -0.3863  1.6676  0.1632
  655TIP3   OH223523   3.957   2.864   3.906 -0.0808 -0.4979 -0.7095
  655TIP3    H123524   4.049   2.855   3.931 -0.5767 -1.4801  0.9732
  655TIP3    H223525   3.943   2.958   3.899  0.5756 -0.2274  1.0849
  656TIP3   OH223526   4.071   3.600   3.763  0.4521 -0.0666 -0.3997
  656TIP3    H123527   4.059   3.607   3.858 -0.9462 -3.8732 -0.1549
  656TIP3    H223528   4.036   3.683   3.729 -1.1118  0.4830  2.2438
  657TIP3   OH223529   1.520   2.470   3.724 -0.2780 -0.2526 -0.1507
  657TIP3    H123530   1.506   2.402   3.658 -1.2164 -1.7161  1.4825
  657TIP3    H223531   1.485   2.433   3.805  1.1693  1.3267  1.2750
  658TIP3   OH223532   6.429   3.391   4.148  0.1863 -0.0745  0.2292
  658TIP3    H123533   6.380   3.439   4.081  0.0857 -0.6499 -0.1154
  658TIP3    H223534   6.397   3.301   4.142  1.2279 -0.4491  0.0439
  659TIP3   OH223535   0.068   1.898   1.405 -0.0931 -0.1547  0.2864
  659TIP3    H123536   0.145   1.945   1.372  1.6618 -3.3221 -0.5247
  659TIP3    H223537   0.020   1.874   1.326  1.5837 -3.6110  0.1160
  660TIP3   OH223538   6.690   1.297   1.753  0.0069 -0.1872  0.4989
  660TIP3    H123539   6.703   1.390   1.769 -2.5676  0.1196  1.3225
  660TIP3    H223540   6.640   1.293   1.671  0.8332 -0.9288  0.0074
  661TIP3   OH223541   3.942   0.852   3.184  0.0027  0.1678 -0.0358
  661TIP3    H123542   4.011   0.822   3.123 -1.0105  1.1818 -1.7581
  661TIP3    H223543   3.895   0.772   3.206  1.6005 -0.5271  1.0562
  662TIP3   OH223544   6.413   1.186   2.802 -0.2579 -0.2069 -0.6998
  662TIP3    H123545   6.320   1.208   2.792 -0.0536  0.8366 -0.3997
  662TIP3    H223546   6.430   1.122   2.733 -1.2125 -0.4424 -0.7300
  663TIP3   OH223547   1.397   5.867   1.413 -0.1859 -0.0467  0.3168
  663TIP3    H123548   1.408   5.782   1.455  2.3557  0.2893  0.4990
  663TIP3    H223549   1.395   5.930   1.485 -0.0763  0.1817  0.1238
  664TIP3   OH223550   4.582   2.456   3.356  0.2605  0.1675 -0.1785
  664TIP3    H123551   4.578   2.541   3.401 -1.6663  0.5688 -1.0018
  664TIP3    H223552   4.583   2.391   3.426  2.6646  0.8329  0.4878
  665TIP3   OH223553   1.329   1.909   2.224 -0.2242  0.5628  0.0702
  665TIP3    H123554   1.274   1.968   2.275  0.0620  0.0754  0.9645
  665TIP3    H223555   1.280   1.827   2.221  0.0845  0.3743  0.1664
  666TIP3   OH223556   1.540   2.699   2.216  0.1280  0.5449  0.4611
  666TIP3    H123557   1.507   2.788   2.208 -2.6316 -0.3875  0.3816
  666TIP3    H223558   1.493   2.662   2.291  3.2387 -0.0878  2.2711
  667TIP3   OH223559   5.266   6.474   2.424 -0.1609  0.7778  0.2393
  667TIP3    H123560   5.259   6.532   2.500  1.9263  1.6204 -0.1403
  667TIP3    H223561   5.190   6.497   2.369 -1.1500  0.8371  1.5911
  668TIP3   OH223562   5.294   0.009   3.887  0.0938  0.3366 -0.4075
  668TIP3    H123563   5.356  -0.031   3.948 -1.9585 -0.2875  1.4101
  668TIP3    H223564   5.268   0.090   3.929 -0.7440  0.3086 -0.8434
  669TIP3   OH223565   4.691   2.905   3.912  0.0568  0.3645 -0.3008
  669TIP3    H123566   4.759   2.853   3.869 -0.3919 -0.1125 -0.4539
  669TIP3    H223567   4.726   2.923   3.999  0.2751 -0.0999 -0.2847
  670TIP3   OH223568   6.138   3.202   0.811  0.1154  0.5593  0.0144
  670TIP3    H123569   6.085   3.262   0.758  1.4441  0.2978 -1.7049
  670TIP3    H223570   6.114   3.115   0.780  1.8698  0.4552 -1.1862
  671TIP3   OH223571   1.829   0.735   2.900  0.4422 -0.3619  0.0173
  671TIP3    H123572   1.776   0.777   2.967 -0.7546 -0.2404 -0.9765
  671TIP3    H223573   1.781   0.656   2.877  1.0316 -0.5985 -0.4301
  672TIP3   OH223574   4.828   6.597   2.742 -0.5011 -0.0680 -0.2130
  672TIP3    H123575   4.885   6.520   2.750  0.8437  0.8924 -0.1878
  672TIP3    H223576   4.798   6.596   2.651 -0.4408 -0.5892 -0.2278
  673TIP3   OH223577   1.487   5.566   2.810  0.7099  0.6052  0.4759
  673TIP3    H123578   1.568   5.594   2.768  0.9580 -1.5836 -0.6405
  673TIP3    H223579   1.436   5.525   2.740 -0.1926 -0.4113  1.6782
  674TIP3   OH223580   1.031   2.010   1.467  0.1211  0.2972 -0.7227
  674TIP3    H123581   1.116   1.971   1.447 -0.0616 -1.5960  1.6851
  674TIP3    H223582   1.023   2.083   1.406  3.0038 -0.0907 -1.7199
  675TIP3   OH223583   4.913   1.338   2.836  0.1777  0.3582  0.4453
  675TIP3    H123584   4.923   1.425   2.797 -1.3295  0.5226  0.3553
  675TIP3    H223585   4.865   1.288   2.770  0.0807 -0.2139  0.9414
  676TIP3   OH223586   5.826   4.868   0.928  0.8302  0.5464  0.1765
  676TIP3    H123587   5.837   4.946   0.983  1.6945  0.6507 -0.1243
  676TIP3    H223588   5.890   4.806   0.961  0.9695  0.4038 -0.3412
  677TIP3   OH223589   2.863   3.639   4.156 -0.2991 -0.1166  0.7718
  677TIP3    H123590   2.819   3.665   4.075 -0.1242 -1.4333  0.2233
  677TIP3    H223591   2.814   3.682   4.226 -0.3580  1.1710 -0.0346
  678TIP3   OH223592   2.147   4.803   2.208 -0.4861  0.0045  0.0607
  678TIP3    H123593   2.216   4.821   2.145 -0.5047  1.0682  0.3285
  678TIP3    H223594   2.165   4.714   2.238  1.1789  0.4809  0.6117
  679TIP3   OH223595   1.004   6.240   3.969  0.6014  0.0418  0.7670
  679TIP3    H123596   0.943   6.223   4.042 -1.5266 -0.2788 -0.9774
  679TIP3    H223597   0.972   6.321   3.930  1.2411 -0.1799 -0.2474
  680TIP3   OH223598   3.789   1.185   2.625  0.7288  0.1916  0.1404
  680TIP3    H123599   3.762   1.158   2.712  2.0412 -0.1698  0.4501
  680TIP3    H223600   3.723   1.249   2.598 -1.5860 -2.1083  0.0099
  681TIP3   OH223601   0.624   0.073   3.177 -0.0974  0.6095 -0.0178
  681TIP3    H123602   0.626   0.131   3.254 -0.4354  3.0911 -1.7752
  681TIP3    H223603   0.705   0.023   3.184  0.6317  1.8640  1.1721
  682TIP3   OH223604   2.179   0.721   3.816 -0.7012 -0.9880 -0.2133
  682TIP3    H123605   2.108   0.772   3.779 -0.2744 -1.1435 -1.2728
  682TIP3    H223606   2.187   0.645   3.759  3.0770  1.0516 -2.8025
  683TIP3   OH223607   6.721   4.664   1.956 -0.2368 -0.1216  0.3624
  683TIP3    H123608   6.744   4.634   1.868 -1.4693  1.5724 -0.6202
  683TIP3    H223609   6.755   4.754   1.960 -0.5355 -0.0388  1.4686
  684TIP3   OH223610   3.585   0.745   3.756 -0.1982 -0.2134  0.4140
  684TIP3    H123611   3.565   0.663   3.802 -0.1954 -0.0182  0.7614
  684TIP3    H223612   3.677   0.761   3.775 -0.5054  0.5041  1.3435
  685TIP3   OH223613   4.989   6.791   1.784 -0.9685 -0.5025 -0.3866
  685TIP3    H123614   5.023   6.847   1.715  0.9248  3.1553  3.0792
  685TIP3    H223615   4.899   6.822   1.799 -0.5759  0.3346  0.2791
  686TIP3   OH223616   2.891   0.882   0.191  0.6125  0.1293 -0.0528
  686TIP3    H123617   2.901   0.977   0.187  1.5155  0.0688  0.4845
  686TIP3    H223618   2.940   0.849   0.116  1.3203  0.0264  0.4514
  687TIP3   OH223619   4.070   4.866   3.512 -0.5372  0.6507  0.3386
  687TIP3    H123620   4.061   4.815   3.593 -0.5397  1.0297  0.5761
  687TIP3    H223621   4.057   4.801   3.443  0.8460  0.0454  0.6138
  688TIP3   OH223622   1.597   2.339   2.112 -0.3805 -0.8835 -0.0717
  688TIP3    H123623   1.676   2.330   2.166 -1.3704 -0.2032  1.5631
  688TIP3    H223624   1.541   2.266   2.138 -0.6577 -0.8690 -0.6050
  689TIP3   OH223625   2.616   4.180   0.242 -0.3911 -0.2211 -0.0384
  689TIP3    H123626   2.524   4.200   0.226 -0.5968 -0.3780  0.8805
  689TIP3    H223627   2.615   4.116   0.314  0.4762  1.0111  1.1287
  690TIP3   OH223628   4.963   1.798   1.128 -0.0104  0.5812 -0.1139
  690TIP3    H123629   4.877   1.832   1.105  0.1977  1.6309  0.6102
  690TIP3    H223630   4.971   1.717   1.077 -2.3432 -0.7512  1.4638
  691TIP3   OH223631   2.669   2.407   8.501 -0.0412  0.0097 -0.2588
  691TIP3    H123632   2.696   2.428   8.412  1.2423 -1.0632 -0.1715
  691TIP3    H223633   2.746   2.364   8.539  0.5498  3.0143  2.3613
  692TIP3   OH223634   1.587   1.927   2.789  0.1800 -0.4017 -0.0566
  692TIP3    H123635   1.575   1.907   2.882  2.3719  1.1145  0.6552
  692TIP3    H223636   1.654   1.865   2.759  2.2565  1.4146  0.4759
  693TIP3   OH223637   3.412   1.894   2.141  0.1968 -0.0491  0.4588
  693TIP3    H123638   3.470   1.818   2.149 -0.7157 -0.8118  0.0951
  693TIP3    H223639   3.350   1.885   2.214  0.1271  0.3892  0.4580
  694TIP3   OH223640   6.889   5.426   3.482  0.8591 -0.0750 -0.3774
  694TIP3    H123641   6.960   5.468   3.433  0.6341  0.2434 -0.4353
  694TIP3    H223642   6.811   5.442   3.430  0.5636  0.5357  0.2234
  695TIP3   OH223643   0.304   0.491   2.936  0.1301  0.2963  0.3760
  695TIP3    H123644   0.351   0.506   2.854 -2.2072  1.3944 -0.8762
  695TIP3    H223645   0.346   0.550   2.999  2.0787 -0.6936  0.0668
  696TIP3   OH223646   4.313   0.337   0.755  0.0419  0.4820 -0.0557
  696TIP3    H123647   4.311   0.432   0.764 -2.1007  0.5102 -0.3568
  696TIP3    H223648   4.314   0.321   0.661  0.4702  0.2090 -0.0063
  697TIP3   OH223649   0.060   4.078   3.697 -0.1028  0.3992 -0.1385
  697TIP3    H123650   0.110   4.018   3.752 -0.4431  0.6771  0.4821
  697TIP3    H223651   0.126   4.117   3.639  0.7247  1.9687  1.7385
  698TIP3   OH223652   6.909   6.876   8.305 -0.1090  0.4031 -0.3249
  698TIP3    H123653   6.829   6.833   8.275 -0.1020  1.8902 -2.7800
  698TIP3    H223654   6.877   6.948   8.360 -0.3121 -0.2792  0.4729
  699TIP3   OH223655   6.684   3.262   3.700 -0.1990 -0.3328  0.6109
  699TIP3    H123656   6.603   3.295   3.661  0.5035 -0.2049 -0.8502
  699TIP3    H223657   6.744   3.254   3.625  1.4064  0.4158  1.7539
  700TIP3   OH223658   1.559   6.544   8.097  0.1108 -1.0620 -0.3234
  700TIP3    H123659   1.573   6.470   8.157  1.8279 -1.8118 -1.5678
  700TIP3    H223660   1.627   6.608   8.122 -1.9270  0.5987  1.3563
  701TIP3   OH223661   1.715   4.117   1.859  0.2032  0.3017 -0.2572
  701TIP3    H123662   1.790   4.102   1.802 -0.7369  0.0553 -1.4754
  701TIP3    H223663   1.731   4.061   1.935  1.0783 -0.0060 -0.6565
  702TIP3   OH223664   1.879   6.859   0.524 -0.5101 -0.1896  0.3457
  702TIP3    H123665   1.831   6.834   0.445 -0.7620  0.4460  0.2934
  702TIP3    H223666   1.813   6.899   0.581  0.4904  4.1454 -1.1997
  703TIP3   OH223667   3.606   0.530   3.030  0.3410 -0.4435 -0.3043
  703TIP3    H123668   3.603   0.446   2.984  2.0447 -1.5913  1.5385
  703TIP3    H223669   3.515   0.560   3.031 -0.5821 -3.0479  0.3442
  704TIP3   OH223670   3.898   0.156   1.680  0.2822 -0.4367  0.2690
  704TIP3    H123671   3.848   0.146   1.761  1.9731 -0.8878  1.3165
  704TIP3    H223672   3.838   0.131   1.610 -1.4110  0.5488  1.3258
  705TIP3   OH223673   1.059   0.498   2.414  0.4439 -0.3713 -0.1265
  705TIP3    H123674   0.983   0.550   2.439  0.3112 -0.6021 -0.0493
  705TIP3    H223675   1.061   0.426   2.477  1.4344  0.2936  0.6292
  706TIP3   OH223676   3.077   3.664   2.898 -0.1936 -0.0032  0.2142
  706TIP3    H123677   3.139   3.736   2.905 -0.3301  0.0264  1.3367
  706TIP3    H223678   2.991   3.704   2.911 -0.3431 -0.2416 -0.0173
  707TIP3   OH223679   6.654   0.871   1.398  0.0809 -0.3792  0.3700
  707TIP3    H123680   6.586   0.825   1.448 -0.6837 -0.7947 -1.0100
  707TIP3    H223681   6.724   0.886   1.462 -2.5660  3.0737  2.8968
  708TIP3   OH223682   2.993   4.191   1.387 -0.2227  0.5106  0.4282
  708TIP3    H123683   2.919   4.179   1.327 -0.7877  0.7462  1.0686
  708TIP3    H223684   3.059   4.236   1.334 -1.5456  2.7178  0.5529
  709TIP3   OH223685   2.743   6.202   2.920  0.2908  0.3090  0.0031
  709TIP3    H123686   2.721   6.277   2.975  0.8941  0.1990  0.4022
  709TIP3    H223687   2.800   6.148   2.974 -0.4504 -0.6454 -0.1416
  710TIP3   OH223688   4.349   5.082   1.295 -0.3757  0.7507 -0.1151
  710TIP3    H123689   4.299   5.015   1.247 -0.4794 -0.5384  1.6917
  710TIP3    H223690   4.439   5.070   1.266 -0.3773 -0.2841  0.2690
  711TIP3   OH223691   0.359   6.077   1.536  0.3005 -0.6447 -0.0909
  711TIP3    H123692   0.276   6.102   1.578  0.1503  2.2913 -1.7883
  711TIP3    H223693   0.426   6.107   1.597  0.1032 -0.3229 -0.0268
  712TIP3   OH223694   2.540   6.744   1.822  0.0310 -0.2401 -0.3300
  712TIP3    H123695   2.621   6.793   1.831  0.1835 -0.7709  1.7049
  712TIP3    H223696   2.536   6.689   1.901 -1.8990 -0.8106 -0.7664
  713TIP3   OH223697   6.358   6.361   2.603  0.9000  0.5536  0.0210
  713TIP3    H123698   6.411   6.335   2.679 -0.6898  1.1716  1.4166
  713TIP3    H223699   6.398   6.443   2.573 -1.0122  2.8390  3.1085
  714TIP3   OH223700   3.913   0.740   1.383 -0.0236  0.2953 -0.1468
  714TIP3    H123701   3.898   0.788   1.301 -2.0721 -1.4053 -0.8777
  714TIP3    H223702   3.843   0.674   1.384  0.2663 -0.0567  2.7551
  715TIP3   OH223703   6.741   5.920   3.803  0.6367 -0.0876  0.3800
  715TIP3    H123704   6.648   5.898   3.801  0.6410 -0.1005  0.3175
  715TIP3    H223705   6.783   5.843   3.842  0.8208 -0.7960 -1.1394
  716TIP3   OH223706   3.977   6.337   2.773 -0.0088  0.1005  0.8162
  716TIP3    H123707   3.947   6.321   2.863 -0.7217 -2.6544  0.1763
  716TIP3    H223708   4.031   6.260   2.752  1.4349  1.4258 -0.6261
  717TIP3   OH223709   0.766   1.662   3.666 -0.5696 -0.7087  0.0003
  717TIP3    H123710   0.696   1.622   3.718 -1.0787 -0.3978 -0.4371
  717TIP3    H223711   0.807   1.724   3.727 -1.0325 -0.4909  0.0979
  718TIP3   OH223712   1.318   3.720   3.928  0.1717 -0.9607 -0.1995
  718TIP3    H123713   1.323   3.624   3.920  2.6180 -1.0420  1.3195
  718TIP3    H223714   1.348   3.738   4.017 -5.9255  0.9479  2.0427
  719TIP3   OH223715   2.042   0.442   3.620  0.4539 -0.2520  0.1795
  719TIP3    H123716   1.978   0.377   3.589  1.2176  0.4118 -3.2459
  719TIP3    H223717   2.119   0.390   3.643  0.6787 -0.6923 -1.4573
  720TIP3   OH223718   3.954   1.089   4.617 -0.2839  0.0734 -0.9317
  720TIP3    H123719   3.908   1.039   4.685  1.7476  0.3625  0.7461
  720TIP3    H223720   4.027   1.033   4.592  1.8969  1.9503  0.7983
  721TIP3   OH223721   6.401   1.861   4.923  0.0992 -0.6830 -0.5501
  721TIP3    H123722   6.496   1.875   4.915  0.0295  1.5721  1.3238
  721TIP3    H223723   6.363   1.915   4.854  0.1501  1.0177  0.6839
  722TIP3   OH223724   1.955   3.682   1.288 -0.7548 -0.7267  0.1630
  722TIP3    H123725   1.995   3.724   1.212 -1.0004  0.0522  0.4532
  722TIP3    H223726   2.029   3.645   1.336 -0.5509 -0.7554 -0.1692
  723TIP3   OH223727   0.808   3.896   2.053 -0.3117  1.2613  0.2495
  723TIP3    H123728   0.778   3.986   2.042  1.4914  1.9521  0.6476
  723TIP3    H223729   0.765   3.866   2.133 -1.5245  1.4797 -0.3037
  724TIP3   OH223730   0.118   0.625   0.343  0.0453 -0.0814 -0.3484
  724TIP3    H123731   0.146   0.698   0.398 -2.3732  2.9600 -2.7673
  724TIP3    H223732   0.055   0.578   0.396  0.4144  0.5988  0.7256
  725TIP3   OH223733   3.736   4.173   1.540 -0.3045 -0.3283 -0.5084
  725TIP3    H123734   3.644   4.159   1.517 -0.4483 -1.0227  0.4514
  725TIP3    H223735   3.743   4.267   1.553 -1.1286 -0.3712  0.3969
  726TIP3   OH223736   2.636   4.653   4.612  0.6647 -0.1107 -0.2475
  726TIP3    H123737   2.673   4.704   4.684  0.0397  2.3742 -1.5311
  726TIP3    H223738   2.650   4.708   4.535 -1.7452 -1.0377 -1.4615
  727TIP3   OH223739   4.386   0.927   2.725 -0.6658  0.0197 -0.4034
  727TIP3    H123740   4.431   0.884   2.798  1.0506  0.5587 -1.1013
  727TIP3    H223741   4.335   0.858   2.684  0.4381 -0.8884 -0.2766
  728TIP3   OH223742   4.857   3.228   3.424 -0.7798  0.7634 -0.6386
  728TIP3    H123743   4.833   3.290   3.494 -1.1196 -0.0079 -0.0521
  728TIP3    H223744   4.908   3.161   3.468 -1.8064 -0.2454 -0.9288
  729TIP3   OH223745   1.183   6.076   0.520 -0.0419 -0.1647 -0.2901
  729TIP3    H123746   1.126   6.055   0.446 -0.4148 -0.1406 -0.0128
  729TIP3    H223747   1.267   6.038   0.497  0.2671  1.1453 -1.4241
  730TIP3   OH223748   1.220   0.195   0.161  0.6715 -0.0619  0.0788
  730TIP3    H123749   1.237   0.246   0.082  1.6668  2.7244  1.9017
  730TIP3    H223750   1.144   0.237   0.202 -0.6945 -2.3012  0.0129
  731TIP3   OH223751   5.977   4.568   2.222 -0.0375 -0.5551 -0.1269
  731TIP3    H123752   5.999   4.634   2.156 -0.1195 -2.3468 -2.0820
  731TIP3    H223753   5.882   4.579   2.235 -0.0137 -0.1497 -0.2655
  732TIP3   OH223754   1.632   2.533   1.167 -0.4536 -0.6973 -0.2724
  732TIP3    H123755   1.605   2.593   1.098  1.2431 -1.9376 -2.1617
  732TIP3    H223756   1.718   2.565   1.195 -2.0384  1.0951  3.0002
  733TIP3   OH223757   3.500   5.133   2.556  0.5352  0.3273 -0.0943
  733TIP3    H123758   3.589   5.149   2.588  1.7944 -1.0672 -2.5689
  733TIP3    H223759   3.513   5.078   2.478 -2.4673  0.6737 -0.9379
  734TIP3   OH223760   2.230   5.569   0.960  0.4367 -0.0468  0.1782
  734TIP3    H123761   2.207   5.543   0.871  1.4218  0.3731 -0.2138
  734TIP3    H223762   2.242   5.664   0.955 -1.1103  0.2501  1.1404
  735TIP3   OH223763   3.774   4.708   0.752  0.6365  0.1241 -0.0470
  735TIP3    H123764   3.810   4.796   0.735  1.7524 -0.3774 -0.4056
  735TIP3    H223765   3.851   4.651   0.750 -0.2719 -1.1298 -1.7033
  736TIP3   OH223766   3.172   1.325   3.160  0.9191 -0.3507  0.3006
  736TIP3    H123767   3.180   1.275   3.241  0.8756  0.5096  0.8505
  736TIP3    H223768   3.247   1.297   3.107  0.7984 -1.1113  0.5262
  737TIP3   OH223769   1.917   2.703   1.729  0.0918  0.1445  0.1702
  737TIP3    H123770   1.927   2.609   1.740  0.0350  0.3162  2.1087
  737TIP3    H223771   1.914   2.716   1.635  0.7056 -1.7219 -0.1546
  738TIP3   OH223772   2.219   5.629   1.396  0.2325  0.7301 -0.1273
  738TIP3    H123773   2.240   5.683   1.472 -0.2232  1.3664 -0.4466
  738TIP3    H223774   2.129   5.598   1.413  0.2166  0.6845 -0.2962
  739TIP3   OH223775   4.545   0.655   2.113 -0.2022  0.6809  0.3049
  739TIP3    H123776   4.546   0.737   2.064  0.2979  0.8986  0.6678
  739TIP3    H223777   4.470   0.607   2.078 -2.6992  2.7145  2.4783
  740TIP3   OH223778   2.807   1.720   1.744  0.7016  0.4966 -0.3718
  740TIP3    H123779   2.719   1.729   1.782  1.0732  1.3943  0.3142
  740TIP3    H223780   2.840   1.810   1.739  2.0611  0.0838  0.5554
  741TIP3   OH223781   0.043   3.314   2.695  0.1697 -0.3487  0.3165
  741TIP3    H123782   0.066   3.337   2.785 -0.1105 -0.5723  0.4455
  741TIP3    H223783  -0.005   3.232   2.702  0.3360 -0.4824 -0.0590
  742TIP3   OH223784   0.548   3.020   2.261 -0.3983  0.5339 -0.1589
  742TIP3    H123785   0.611   3.085   2.291  0.6619 -1.4282  2.2239
  742TIP3    H223786   0.593   2.973   2.191  0.3069  0.0180  0.6201
  743TIP3   OH223787   4.058   3.172   3.415 -0.1336  0.0914  0.1595
  743TIP3    H123788   4.103   3.241   3.464 -1.5702  1.2298 -0.0585
  743TIP3    H223789   3.976   3.157   3.463 -1.4399  1.0167 -1.6379
  744TIP3   OH223790   1.979   2.254   8.561 -0.0772  0.1079 -0.4505
  744TIP3    H123791   1.955   2.299   8.480 -0.1807  0.0536 -0.4501
  744TIP3    H223792   1.906   2.272   8.621  1.4093  2.8294  0.7054
  745TIP3   OH223793   0.322   6.336   0.675  0.2698 -0.0130  0.0195
  745TIP3    H123794   0.311   6.242   0.692  2.4598 -0.3381 -0.1035
  745TIP3    H223795   0.288   6.348   0.586  0.2379 -0.7597 -0.0785
  746TIP3   OH223796   5.629   0.618   1.458 -0.3195 -0.2435 -0.7950
  746TIP3    H123797   5.557   0.680   1.452  0.8794  1.1538 -1.4852
  746TIP3    H223798   5.667   0.615   1.370 -0.6975 -2.4538 -0.9339
  747TIP3   OH223799   1.267   3.225   2.942  0.1746 -0.1519 -0.0910
  747TIP3    H123800   1.350   3.272   2.928 -1.3655  2.5685 -0.8831
  747TIP3    H223801   1.213   3.248   2.867 -1.7635 -0.7730  1.0311
  748TIP3   OH223802   6.334   3.551   0.951 -0.1851  0.7989 -0.3740
  748TIP3    H123803   6.250   3.506   0.944  1.6768 -2.9992 -0.9176
  748TIP3    H223804   6.349   3.558   1.045 -0.1769 -0.5927 -0.2459
  749TIP3   OH223805   1.633   1.638   0.284  0.4929  0.1336  0.4416
  749TIP3    H123806   1.591   1.572   0.229 -2.2339  1.6350  0.5001
  749TIP3    H223807   1.668   1.702   0.223  1.0959 -0.2225  0.4124
  750TIP3   OH223808   5.845   5.239   3.549 -0.2097  0.5882  0.0603
  750TIP3    H123809   5.799   5.255   3.631 -0.3839  2.6518 -0.3962
  750TIP3    H223810   5.906   5.168   3.569 -0.3698  0.9281  1.9164
  751TIP3   OH223811   0.825   2.992   3.759 -0.2550 -0.0001  0.0470
  751TIP3    H123812   0.881   2.921   3.728  0.4235  0.5214  0.0682
  751TIP3    H223813   0.776   2.954   3.832 -0.7149 -0.7681 -0.6345
  752TIP3   OH223814   3.545   0.547   4.293  0.4369 -0.4603 -0.4173
  752TIP3    H123815   3.533   0.588   4.208  0.5616 -0.6060 -0.5044
  752TIP3    H223816   3.639   0.553   4.310  0.5596 -1.3250 -0.7397
  753TIP3   OH223817   3.956   0.095   2.424  0.2780  0.5686 -0.1451
  753TIP3    H123818   3.883   0.036   2.406 -0.4430  1.1988  0.5866
  753TIP3    H223819   3.980   0.077   2.515  0.0983  1.3171  0.0654
  754TIP3   OH223820   0.814   2.090   2.500 -0.3241 -0.0486 -0.4113
  754TIP3    H123821   0.882   2.135   2.550 -1.9418  1.1072  0.8641
  754TIP3    H223822   0.784   2.155   2.437 -1.6068  0.1759  0.3983
  755TIP3   OH223823   2.931   0.985   1.748 -0.1141 -0.0118  0.4525
  755TIP3    H123824   3.024   1.005   1.738 -0.0971 -0.6525 -0.9352
  755TIP3    H223825   2.914   0.997   1.841  1.2674  0.4846  0.6685
  756TIP3   OH223826   2.925   3.183   3.538  0.2837  0.0320 -0.5562
  756TIP3    H123827   2.947   3.204   3.447 -1.1120 -0.5757 -1.0689
  756TIP3    H223828   2.954   3.093   3.549 -1.3150 -0.5780 -1.0571
  757TIP3   OH223829   3.699   1.068   1.045  0.4238  0.3605  0.2166
  757TIP3    H123830   3.676   0.997   0.986 -0.6966  0.5222  0.4363
  757TIP3    H223831   3.663   1.146   1.004  1.2508  0.7469  0.2027
  758TIP3   OH223832   3.205   6.020   3.654 -0.4254  0.2605 -0.0573
  758TIP3    H123833   3.258   6.006   3.576 -0.1717  2.0619 -0.2402
  758TIP3    H223834   3.202   6.115   3.665 -0.6959  0.0658  1.9640
  759TIP3   OH223835   3.843   1.426   0.717 -0.3996  0.0108  0.9250
  759TIP3    H123836   3.859   1.518   0.739  0.6503 -0.0503  0.5099
  759TIP3    H223837   3.927   1.383   0.736 -0.5265 -0.6446  0.0492
  760TIP3   OH223838   0.941   3.187   3.300 -0.0937 -0.3489 -0.2706
  760TIP3    H123839   1.027   3.164   3.265  0.3514  2.1292 -0.9987
  760TIP3    H223840   0.959   3.232   3.383 -0.5723  1.0714 -0.9006
  761TIP3   OH223841   1.615   5.658   3.395  0.1661 -0.7597 -0.2548
  761TIP3    H123842   1.565   5.674   3.315  0.5605 -0.0725 -0.3755
  761TIP3    H223843   1.619   5.563   3.403 -0.2719 -0.8225 -0.8041
  762TIP3   OH223844   3.321   3.705   1.065  0.0076  0.6292 -0.0024
  762TIP3    H123845   3.379   3.769   1.025 -0.3133  0.7374 -0.2999
  762TIP3    H223846   3.330   3.627   1.011  0.9852  0.1495  0.8044
  763TIP3   OH223847   2.123   1.177   4.510 -0.0815 -0.5809  0.2174
  763TIP3    H123848   2.081   1.234   4.575 -0.4401 -1.0051  0.3599
  763TIP3    H223849   2.217   1.186   4.528 -0.2032 -1.3590  1.3837
  764TIP3   OH223850   4.132   1.135   2.400 -0.0893  0.1642 -0.2983
  764TIP3    H123851   4.182   1.167   2.325 -0.0107  1.3578  0.2417
  764TIP3    H223852   4.129   1.040   2.388 -0.7224  0.3941 -2.1920
  765TIP3   OH223853   1.849   6.447   8.426  0.5209 -0.4617 -0.4154
  765TIP3    H123854   1.854   6.510   8.498  0.0058  0.5956 -1.2707
  765TIP3    H223855   1.929   6.461   8.376  0.2087 -0.1657 -0.8471
  766TIP3   OH223856   0.552   3.887   4.214  0.2176 -0.4186 -0.6563
  766TIP3    H123857   0.495   3.954   4.253 -0.0328 -1.0592  0.1012
  766TIP3    H223858   0.618   3.870   4.281  0.9483 -0.1262 -1.2894
  767TIP3   OH223859   3.862   1.907   3.863 -0.0124  0.5638  0.2486
  767TIP3    H123860   3.805   1.833   3.881 -0.4819  1.1290  1.2089
  767TIP3    H223861   3.931   1.872   3.808 -0.9932 -0.2601 -0.4913
  768TIP3   OH223862   6.828   2.742   2.270  0.0608 -0.6801  0.3972
  768TIP3    H123863   6.869   2.672   2.322  2.0036  1.2244  1.6085
  768TIP3    H223864   6.902   2.788   2.230 -0.7777  2.6247  2.2403
  769TIP3   OH223865   4.619   4.185   1.782  0.2912  0.1678  0.0870
  769TIP3    H123866   4.573   4.267   1.763  0.8704  0.3253 -0.6943
  769TIP3    H223867   4.603   4.130   1.705  1.1025  0.1008 -0.0526
  770TIP3   OH223868   3.932   6.056   0.641 -0.0705  0.1224 -0.2123
  770TIP3    H123869   3.922   6.069   0.547 -0.4992 -0.4682 -0.2503
  770TIP3    H223870   4.025   6.071   0.657 -0.1630  1.1834 -0.5697
  771TIP3   OH223871   4.600   2.818   0.868 -0.4168 -0.3026  0.9711
  771TIP3    H123872   4.514   2.802   0.829  0.5033 -1.4352 -0.6789
  771TIP3    H223873   4.624   2.734   0.908  0.6279 -0.4907 -0.0246
  772TIP3   OH223874   6.204   6.138   2.721  0.6491  0.2280 -0.5325
  772TIP3    H123875   6.191   6.134   2.816 -1.1394  2.0572 -0.6325
  772TIP3    H223876   6.280   6.195   2.709  2.8783 -2.4714 -0.2013
  773TIP3   OH223877   3.010   5.866   0.652  0.4250  0.1420  0.4806
  773TIP3    H123878   3.031   5.817   0.731 -2.1311 -2.5107 -0.3378
  773TIP3    H223879   2.916   5.882   0.658  0.4988  1.4772 -1.2019
  774TIP3   OH223880   0.205   3.033   1.764 -0.2056 -0.3617  0.0952
  774TIP3    H123881   0.295   3.014   1.794 -0.3647  1.0458  1.6133
  774TIP3    H223882   0.150   3.000   1.835 -0.6724  2.0349  0.9118
  775TIP3   OH223883   2.312   3.788   3.286 -0.5460  0.1440  0.5505
  775TIP3    H123884   2.358   3.706   3.305  0.3095  1.0069  2.4615
  775TIP3    H223885   2.219   3.765   3.291 -0.3198 -0.6274  1.6677
  776TIP3   OH223886   2.592   2.500   0.818  0.2592 -0.3339 -0.0462
  776TIP3    H123887   2.572   2.421   0.768  0.3663  1.1165 -2.5345
  776TIP3    H223888   2.639   2.556   0.756 -0.1502  1.8377  1.5030
  777TIP3   OH223889   6.658   1.233   0.697 -0.4516  0.2545  0.3885
  777TIP3    H123890   6.626   1.267   0.613  0.8297 -1.5939 -0.9356
  777TIP3    H223891   6.674   1.140   0.681 -0.3156 -0.2050  2.7600
  778TIP3   OH223892   2.613   5.082   1.659 -0.0431 -0.3037  0.4476
  778TIP3    H123893   2.683   5.127   1.611 -1.2751  0.1044 -1.0077
  778TIP3    H223894   2.622   4.990   1.635  0.8494 -0.4910  1.3936
  779TIP3   OH223895   0.522   6.668   8.373 -0.0881  0.1917  0.0810
  779TIP3    H123896   0.487   6.747   8.332 -1.0754  0.2499  0.9879
  779TIP3    H223897   0.524   6.689   8.467 -1.1156 -1.1291  0.4242
  780TIP3   OH223898   3.667   5.962   0.708 -0.3073 -0.0772  0.0856
  780TIP3    H123899   3.660   5.922   0.795 -0.5441 -0.0894  0.0605
  780TIP3    H223900   3.761   5.966   0.691 -0.0935  2.1167  1.3637
  781TIP3   OH223901   2.889   2.224   3.052 -0.4420  0.6071 -0.1064
  781TIP3    H123902   2.802   2.214   3.013 -0.1228 -0.1686 -0.6402
  781TIP3    H223903   2.903   2.319   3.054 -1.9504  0.8582  1.4745
  782TIP3   OH223904   1.414   4.792   3.832  0.0762  0.5812 -0.2262
  782TIP3    H123905   1.384   4.706   3.803  1.2766 -0.3197  1.0741
  782TIP3    H223906   1.504   4.798   3.801  0.8379  0.2802  1.8149
  783TIP3   OH223907   0.606   1.620   3.089  0.5470  0.7829  0.4758
  783TIP3    H123908   0.663   1.641   3.015 -1.5619  1.1207 -1.1578
  783TIP3    H223909   0.628   1.686   3.155  2.4586  0.4994  0.1875
  784TIP3   OH223910   0.045   3.179   2.206 -0.4387  0.9049 -0.2133
  784TIP3    H123911   0.050   3.138   2.292 -2.0074  2.1115  0.5203
  784TIP3    H223912   0.087   3.117   2.147 -1.1063 -0.9064  1.1045
  785TIP3   OH223913   2.942   4.364   0.980  0.5837 -0.0700  0.0392
  785TIP3    H123914   2.906   4.386   0.894  0.7626 -0.3325 -0.1052
  785TIP3    H223915   3.024   4.413   0.985 -1.1861  3.0136  1.6231
  786TIP3   OH223916   5.704   2.226   1.357  0.3811  0.0547 -0.5032
  786TIP3    H123917   5.710   2.301   1.416 -0.6486  0.5279 -0.9617
  786TIP3    H223918   5.744   2.256   1.276  0.6942 -0.1697 -0.4311
  787TIP3   OH223919   2.487   3.675   4.227  0.7723 -0.4330  0.0597
  787TIP3    H123920   2.412   3.713   4.274  0.8512 -1.9844  1.5565
  787TIP3    H223921   2.563   3.701   4.279  1.0295 -0.8037 -0.1284
  788TIP3   OH223922   6.272   5.906   0.241 -0.3710  0.2753 -0.1132
  788TIP3    H123923   6.320   5.982   0.209 -1.3417  0.7240 -0.5720
  788TIP3    H223924   6.335   5.834   0.238  0.7151  1.1712  0.8674
  789TIP3   OH223925   6.110   1.607   3.815 -0.0922 -0.0399  0.0423
  789TIP3    H123926   6.027   1.610   3.766  0.1782 -0.9817 -0.5153
  789TIP3    H223927   6.156   1.686   3.789 -0.2024 -0.2401 -0.7997
  790TIP3   OH223928   2.051   1.080   1.579  0.1551  0.3616  0.2776
  790TIP3    H123929   2.092   1.148   1.525  1.1216  1.0002  1.7506
  790TIP3    H223930   2.105   1.002   1.564  0.7445  0.6791  0.7050
  791TIP3   OH223931   4.602   4.365   1.412  0.4949 -0.4723  0.3971
  791TIP3    H123932   4.529   4.356   1.474  1.2423 -0.9770  1.2426
  791TIP3    H223933   4.669   4.413   1.460  0.6620  0.1320 -0.4259
  792TIP3   OH223934   6.699   2.060   0.681 -0.0814  0.1495  0.2266
  792TIP3    H123935   6.625   2.109   0.718  0.1973 -0.2931  1.4393
  792TIP3    H223936   6.753   2.126   0.638 -0.7622  0.5967  0.0477
  793TIP3   OH223937   5.907   0.678   2.510  0.1247 -0.0539 -0.7755
  793TIP3    H123938   5.829   0.715   2.468  1.1054  2.4619 -0.5813
  793TIP3    H223939   5.975   0.744   2.496  1.7732 -1.3804  0.5362
  794TIP3   OH223940   3.348   4.449   1.885  0.2112 -0.7055 -0.8073
  794TIP3    H123941   3.418   4.513   1.894 -0.2928 -0.2577  0.0276
  794TIP3    H223942   3.278   4.481   1.942 -0.3160 -1.6328 -0.9104
  795TIP3   OH223943   5.584   6.185   2.183  0.3066 -0.1206 -0.9217
  795TIP3    H123944   5.612   6.274   2.163  0.3159  0.4519  1.3897
  795TIP3    H223945   5.655   6.148   2.236 -0.9366 -0.4575  0.5995
  796TIP3   OH223946   2.618   1.713   1.466  0.2968 -1.0732  0.1222
  796TIP3    H123947   2.535   1.753   1.438  1.3163  2.1508  1.2842
  796TIP3    H223948   2.595   1.662   1.543 -0.4897  0.7452  1.1417
  797TIP3   OH223949   4.220   6.534   1.817 -0.0891 -0.2588  0.0129
  797TIP3    H123950   4.259   6.495   1.895  0.8020 -0.0225 -0.3015
  797TIP3    H223951   4.280   6.605   1.793 -0.2982 -0.3856 -0.9319
  798TIP3   OH223952   1.240   2.498   1.490  0.1036 -0.4846 -0.4670
  798TIP3    H123953   1.322   2.454   1.468  0.0285 -0.7029 -0.3170
  798TIP3    H223954   1.235   2.492   1.585  1.0897  1.6258 -0.2383
  799TIP3   OH223955   5.102   2.116   2.713 -0.2695  0.0566 -0.6027
  799TIP3    H123956   5.186   2.114   2.666 -0.3112  1.1721 -0.7327
  799TIP3    H223957   5.093   2.206   2.742  0.6921 -0.9052  3.3015
  800TIP3   OH223958   1.151   3.091   0.177  0.1505 -0.2221 -0.1837
  800TIP3    H123959   1.225   3.122   0.228  0.0260  0.7553 -0.5780
  800TIP3    H223960   1.164   3.128   0.090  0.1848 -1.5931 -0.8009
  801TIP3   OH223961   2.972   1.062   2.725  0.6025  0.2968 -0.7118
  801TIP3    H123962   2.968   0.967   2.712 -1.5426  0.2334  0.0550
  801TIP3    H223963   2.880   1.090   2.730  1.1793  2.4159 -0.8582
  802TIP3   OH223964   0.617   4.797   3.651 -0.0855 -0.0356  0.1321
  802TIP3    H123965   0.638   4.785   3.744 -1.1134  0.1538  0.4056
  802TIP3    H223966   0.701   4.814   3.610  0.3572  0.1789  1.0835
  803TIP3   OH223967   5.615   1.402   0.153  0.2002  0.0494 -0.5008
  803TIP3    H123968   5.596   1.491   0.125  0.7013  0.2003 -0.3806
  803TIP3    H223969   5.557   1.386   0.227 -2.5362 -1.0216 -2.6910
  804TIP3   OH223970   0.714   5.500   3.423  0.4931  0.7176  0.2483
  804TIP3    H123971   0.735   5.538   3.508  0.3248 -0.1129  0.6719
  804TIP3    H223972   0.660   5.424   3.444  0.1378  0.7189 -0.6260
  805TIP3   OH223973   0.286   6.709   1.056  0.3774 -0.0498  0.2677
  805TIP3    H123974   0.259   6.622   1.084  1.4902 -1.1264 -1.7582
  805TIP3    H223975   0.368   6.726   1.101  0.2381 -0.1058  0.5428
  806TIP3   OH223976   6.538   6.599   3.169 -0.3143 -0.2960  0.0516
  806TIP3    H123977   6.584   6.660   3.226  0.5169 -1.6934  0.9473
  806TIP3    H223978   6.606   6.538   3.138 -1.3474 -1.7569  0.5315
  807TIP3   OH223979   5.262   6.336   0.346 -0.4542 -0.0045 -0.4372
  807TIP3    H123980   5.354   6.312   0.330 -0.5645 -0.7905  0.0385
  807TIP3    H223981   5.233   6.373   0.263 -0.0840 -0.9977 -1.0362
  808TIP3   OH223982   3.846   2.800   3.439  0.1659 -0.1986 -0.0219
  808TIP3    H123983   3.868   2.765   3.353 -3.6403 -1.0867 -0.8090
  808TIP3    H223984   3.787   2.736   3.477 -1.1420  1.8771  1.6935
  809TIP3   OH223985   5.796   3.034   4.946 -0.3358 -0.4922  0.1702
  809TIP3    H123986   5.823   2.943   4.958 -2.2939 -0.7762  3.9628
  809TIP3    H223987   5.702   3.034   4.964 -0.4786  2.2265 -0.1119
  810TIP3   OH223988   1.979   4.266   1.773 -0.3108 -0.2149  0.3092
  810TIP3    H123989   1.922   4.245   1.699 -0.5873 -2.3494  1.0435
  810TIP3    H223990   1.999   4.181   1.812  1.7809  0.6521  1.2711
  811TIP3   OH223991   3.078   0.088   4.030  0.7377 -0.8937  0.4839
  811TIP3    H123992   3.105   0.090   4.122  2.1768 -3.5055  0.2185
  811TIP3    H223993   2.986   0.061   4.033  0.3899  0.2919  1.1660
  812TIP3   OH223994   4.936   0.800   3.196 -0.3048  0.1522 -0.0088
  812TIP3    H123995   4.885   0.782   3.275  1.1569 -1.4704  0.6589
  812TIP3    H223996   4.931   0.719   3.145 -0.2245  0.7539 -1.0081
  813TIP3   OH223997   0.803   0.715   2.800  0.1607  0.0276  0.1887
  813TIP3    H123998   0.783   0.634   2.847  1.4431  0.2480  1.1570
  813TIP3    H223999   0.724   0.768   2.810 -0.2020 -0.5823  0.6636
  814TIP3   OH224000   6.675   5.159   2.022  0.2044 -0.1014 -0.0097
  814TIP3    H124001   6.673   5.177   1.928  0.8359 -1.5353 -0.3256
  814TIP3    H224002   6.737   5.222   2.058 -0.3396  0.7214 -0.4754
  815TIP3   OH224003   1.148   3.053   1.412  0.0106 -0.0240 -0.0248
  815TIP3    H124004   1.214   3.013   1.356  0.7369 -1.2377  1.5938
  815TIP3    H224005   1.180   3.037   1.501 -0.1607  3.3666  0.7808
  816TIP3   OH224006   6.474   0.655   3.631  0.1637  0.3355  0.5456
  816TIP3    H124007   6.510   0.570   3.607 -0.5241  0.7208 -2.0729
  816TIP3    H224008   6.548   0.703   3.669  1.2436 -0.4709 -0.5000
  817TIP3   OH224009   1.695   1.017   4.573  0.1847  0.3139  0.7518
  817TIP3    H124010   1.702   0.925   4.548  0.8445  0.4587  0.3740
  817TIP3    H224011   1.653   1.016   4.659 -2.3306 -0.2113 -0.3741
  818TIP3   OH224012   5.458   1.178   4.042 -0.0869  0.4964 -0.4124
  818TIP3    H124013   5.537   1.135   4.008 -0.3067  0.6046 -1.0743
  818TIP3    H224014   5.489   1.263   4.074  0.4495 -0.3434  1.4298
  819TIP3   OH224015   0.660   3.589   4.006  0.5800 -0.0748 -0.6425
  819TIP3    H124016   0.726   3.590   4.075 -0.1126  0.4798  0.0236
  819TIP3    H224017   0.709   3.609   3.926  1.3183 -0.3033 -0.2574
  820TIP3   OH224018   3.279   2.147   0.981  0.4057  0.6328  0.4195
  820TIP3    H124019   3.347   2.197   0.937  2.0498 -0.9301  1.0721
  820TIP3    H224020   3.255   2.079   0.919  0.2256  0.5119  0.6183
  821TIP3   OH224021   2.966   3.137   3.908  0.5181 -0.5215 -0.5139
  821TIP3    H124022   2.977   3.107   3.817 -0.1830 -0.5424 -0.5937
  821TIP3    H224023   3.046   3.187   3.926  1.2304 -1.5486 -0.7292
  822TIP3   OH224024   5.275   1.886   5.087  0.0049 -0.4996  0.1324
  822TIP3    H124025   5.342   1.948   5.117 -1.8450  2.3854 -1.2744
  822TIP3    H224026   5.265   1.905   4.993 -1.1166 -2.5388 -0.2182
  823TIP3   OH224027   5.912   5.372   1.031  0.4469 -0.0590  0.9525
  823TIP3    H124028   5.849   5.443   1.040 -0.6439 -0.8931  0.1355
  823TIP3    H224029   5.969   5.397   0.958  0.4780  0.2641  1.0889
  824TIP3   OH224030   0.515   1.012   1.598 -0.1829  0.5954  0.5286
  824TIP3    H124031   0.533   1.086   1.539 -0.3421 -0.3550 -0.7440
  824TIP3    H224032   0.450   1.046   1.659  0.7179  1.9093  0.8076
  825TIP3   OH224033   5.353   2.078   2.012  0.0684  0.2488  0.2395
  825TIP3    H124034   5.306   2.159   1.988  1.4174  0.7107 -0.9966
  825TIP3    H224035   5.287   2.009   2.002 -0.9774  1.1194  0.8339
  826TIP3   OH224036   2.598   1.715   1.907  0.6613  0.1694 -0.3441
  826TIP3    H124037   2.609   1.646   1.972 -0.4333 -0.8403 -1.1800
  826TIP3    H224038   2.514   1.756   1.930  0.7286  0.4242 -0.5580
  827TIP3   OH224039   0.402   4.368   0.628 -0.0412 -0.4312  0.8703
  827TIP3    H124040   0.450   4.434   0.578  0.1286 -0.2069  1.3211
  827TIP3    H224041   0.459   4.350   0.703 -0.5818 -0.2857  1.3234
  828TIP3   OH224042   5.933   0.827   3.873 -0.0156  0.3565  0.1204
  828TIP3    H124043   5.940   0.834   3.778  0.3000 -0.0830  0.1135
  828TIP3    H224044   5.985   0.901   3.906 -3.3248  3.0169 -0.0864
  829TIP3   OH224045   3.515   3.607   2.514 -0.1260  0.2446 -0.4222
  829TIP3    H124046   3.442   3.586   2.455 -1.0214  0.1145  0.6850
  829TIP3    H224047   3.498   3.554   2.592  2.5175 -1.7184 -1.0425
  830TIP3   OH224048   1.467   4.586   4.632  0.0276  0.0383  0.4127
  830TIP3    H124049   1.383   4.552   4.601 -0.3081  0.0178  1.3104
  830TIP3    H224050   1.486   4.659   4.574 -0.7767  0.2555  0.4016
  831TIP3   OH224051   6.130   3.625   3.708  0.0642 -0.4354  0.4568
  831TIP3    H124052   6.141   3.693   3.642 -1.9238 -1.2552 -0.7965
  831TIP3    H224053   6.070   3.663   3.772 -0.9847 -0.9421 -0.2028
  832TIP3   OH224054   1.172   3.728   0.808  0.6614  0.3223 -0.0913
  832TIP3    H124055   1.102   3.663   0.818 -0.5908  1.5901 -0.3792
  832TIP3    H224056   1.156   3.769   0.723  0.1908  2.4052  0.9352
  833TIP3   OH224057   6.775   3.498   2.991  0.0793  0.3856 -0.0477
  833TIP3    H124058   6.737   3.499   2.903  0.0223 -0.2683 -0.0373
  833TIP3    H224059   6.709   3.539   3.046 -0.5541 -0.5823 -0.0605
  834TIP3   OH224060   3.233   6.788   4.523 -0.0585  0.1951 -0.4499
  834TIP3    H124061   3.167   6.814   4.589  0.6946  0.1251  0.3477
  834TIP3    H224062   3.302   6.745   4.574  0.9592  0.9310 -1.1712
  835TIP3   OH224063   3.555   4.689   3.473 -0.2856 -1.3108  0.2452
  835TIP3    H124064   3.587   4.741   3.546 -1.5413  0.9179 -0.6888
  835TIP3    H224065   3.485   4.636   3.510  0.6138 -1.9578  1.0868
  836TIP3   OH224066   3.998   5.341   0.741 -0.3200  0.2886 -0.3684
  836TIP3    H124067   4.045   5.379   0.666  1.6625 -0.6328  0.3469
  836TIP3    H224068   4.018   5.399   0.814 -0.5978  0.0843 -0.1271
  837TIP3   OH224069   0.431   5.858   3.898 -0.0255  0.6542  0.0492
  837TIP3    H124070   0.359   5.851   3.836 -1.9218 -2.4983  2.3025
  837TIP3    H224071   0.446   5.952   3.907 -2.7036  1.3785 -1.7873
  838TIP3   OH224072   4.249   5.914   2.364  0.1007  0.3018  0.4228
  838TIP3    H124073   4.173   5.871   2.323  0.8219 -0.7056  0.1132
  838TIP3    H224074   4.303   5.942   2.291 -1.0221  3.0963  0.5584
  839TIP3   OH224075   3.984   2.108   3.364 -0.1536 -0.1657 -0.5901
  839TIP3    H124076   3.935   2.131   3.443  0.1746  0.1750 -0.4794
  839TIP3    H224077   3.940   2.030   3.330 -1.2066  0.5424 -0.8864
  840TIP3   OH224078   3.059   1.462   1.115  0.0170  0.0823 -0.9682
  840TIP3    H124079   2.994   1.411   1.066 -0.0332 -0.5213 -0.2780
  840TIP3    H224080   3.035   1.451   1.207 -0.3367  1.8334 -0.8197
  841TIP3   OH224081   4.265   1.712   0.702  1.0120 -0.4285 -0.2194
  841TIP3    H124082   4.255   1.637   0.643 -0.1252 -0.4836  0.0161
  841TIP3    H224083   4.359   1.730   0.702  1.2868 -1.7317 -0.4415
  842TIP3   OH224084   2.150   0.043   2.265 -1.0320  0.2562 -0.0175
  842TIP3    H124085   2.078   0.101   2.289 -0.1009  1.4148  0.0414
  842TIP3    H224086   2.228   0.098   2.268 -0.2610 -0.7289 -1.0383
  843TIP3   OH224087   3.692   4.069   2.385  0.3888  0.3882 -0.9021
  843TIP3    H124088   3.663   3.983   2.416 -0.2023  0.6296 -0.7619
  843TIP3    H224089   3.782   4.056   2.356  0.9778  0.1513  0.9168
  844TIP3   OH224090   1.216   5.198   3.776  0.1070  0.4098 -0.6206
  844TIP3    H124091   1.190   5.108   3.796  0.9533  0.4598  0.7991
  844TIP3    H224092   1.279   5.221   3.844  1.5369  1.3546 -2.1921
  845TIP3   OH224093   5.105   6.685   1.510 -0.2545  0.1691  0.1460
  845TIP3    H124094   5.142   6.766   1.545  1.2144 -0.2544 -0.3449
  845TIP3    H224095   5.039   6.714   1.447 -2.5623  0.9511  2.6957
  846TIP3   OH224096   3.887   2.605   3.866 -0.3501  0.0803  0.1313
  846TIP3    H124097   3.897   2.695   3.899  1.0782 -0.5385  1.5142
  846TIP3    H224098   3.793   2.588   3.870 -0.4407  0.7538  2.0253
  847TIP3   OH224099   2.083   6.359   3.742 -0.3612 -0.6981  0.1351
  847TIP3    H124100   2.021   6.321   3.805 -0.7245 -1.3212 -0.5788
  847TIP3    H224101   2.162   6.306   3.751 -0.4233 -0.8060  0.0452
  848TIP3   OH224102   0.620   4.538   3.207 -0.1093 -1.2489 -0.4931
  848TIP3    H124103   0.592   4.619   3.250 -0.8766 -0.9567 -1.4988
  848TIP3    H224104   0.566   4.470   3.247  0.8993 -1.3735  0.7257
  849TIP3   OH224105   6.389   4.157   3.863 -0.1485  0.1043 -0.8566
  849TIP3    H124106   6.377   4.139   3.956 -0.3612  1.4260 -0.6131
  849TIP3    H224107   6.313   4.118   3.821 -0.6889  0.5816 -0.3318
  850TIP3   OH224108   3.870   6.702   0.505  0.7865 -0.6388 -0.2102
  850TIP3    H124109   3.943   6.643   0.526  1.2101 -0.5963 -1.4851
  850TIP3    H224110   3.797   6.644   0.484  0.8276 -0.6932 -0.2026
  851TIP3   OH224111   3.380   4.748   0.524  0.3738  0.7818  0.0546
  851TIP3    H124112   3.414   4.720   0.609  0.3461  2.4346  0.6384
  851TIP3    H224113   3.296   4.788   0.543  0.6012  1.6486 -0.6869
  852TIP3   OH224114   6.380   4.052   4.109 -0.3492 -0.1488  0.6048
  852TIP3    H124115   6.327   4.039   4.188 -0.5688 -0.2644  0.4412
  852TIP3    H224116   6.386   3.965   4.070 -2.7174  0.3349 -1.0627
  853TIP3   OH224117   6.626   0.237   1.363 -0.9985  0.1116 -0.4424
  853TIP3    H124118   6.571   0.199   1.294 -0.0254 -0.9711 -0.6607
  853TIP3    H224119   6.681   0.164   1.391  0.7369  1.3103 -0.6518
  854TIP3   OH224120   0.053   1.129   1.398  0.3492  0.0428 -0.1681
  854TIP3    H124121   0.089   1.047   1.364  1.1946  0.5297 -0.4795
  854TIP3    H224122   0.129   1.174   1.436  0.3355  1.6471 -1.9148
  855TIP3   OH224123   4.825   5.458   0.354 -0.1358 -0.2734  0.6584
  855TIP3    H124124   4.852   5.372   0.323 -0.5412 -0.7631  1.6251
  855TIP3    H224125   4.904   5.511   0.351 -0.2190 -0.1983 -1.4861
  856TIP3   OH224126   1.700   1.648   8.543  0.2701 -0.2639 -0.0288
  856TIP3    H124127   1.627   1.594   8.574 -0.7428  0.4621 -1.1037
  856TIP3    H224128   1.694   1.729   8.594 -0.3812  0.2541 -0.9059
  857TIP3   OH224129   4.672   5.899   3.750 -0.4436 -0.0987  0.2355
  857TIP3    H124130   4.619   5.964   3.705 -1.9828 -0.2875  1.6576
  857TIP3    H224131   4.724   5.858   3.681 -2.1450  0.1106 -1.2517
  858TIP3   OH224132   2.283   3.113   2.266  0.5963 -0.0446 -0.7240
  858TIP3    H124133   2.224   3.185   2.242 -0.1361 -0.1405  0.7016
  858TIP3    H224134   2.283   3.113   2.362  1.3828 -1.3149 -0.7038
  859TIP3   OH224135   4.939   2.024   4.458 -0.3450 -0.0498 -0.0363
  859TIP3    H124136   4.971   2.103   4.414  0.8965 -0.0647  0.7665
  859TIP3    H224137   4.993   2.018   4.537 -2.4293 -0.0508  1.4814
  860TIP3   OH224138   6.576   6.234   1.870  0.6568  0.2951 -0.4514
  860TIP3    H124139   6.499   6.291   1.871 -0.6253 -1.3266 -0.9095
  860TIP3    H224140   6.623   6.256   1.950 -1.8573 -0.6166  1.4315
  861TIP3   OH224141   3.344   1.563   2.436  0.2599 -0.8830 -0.0773
  861TIP3    H124142   3.382   1.478   2.412  1.7410 -0.4632  0.6604
  861TIP3    H224143   3.381   1.583   2.521 -0.3266  0.3633 -0.0923
  862TIP3   OH224144   4.445   1.863   3.763  0.0897  0.2294 -0.0712
  862TIP3    H124145   4.378   1.916   3.806  1.4763  1.7376  0.3392
  862TIP3    H224146   4.453   1.785   3.819 -0.1455  0.8227  0.8168
  863TIP3   OH224147   3.308   4.265   2.082  0.2342  0.7196  0.1700
  863TIP3    H124148   3.338   4.324   2.012 -1.5728  0.6198 -0.7492
  863TIP3    H224149   3.388   4.223   2.115  1.1307  0.7542 -1.8474
  864TIP3   OH224150   5.992   1.261   0.630 -0.1184 -0.0761  0.1680
  864TIP3    H124151   5.922   1.326   0.639  0.4179  0.3588  1.4823
  864TIP3    H224152   5.968   1.191   0.691  0.2492 -0.2444  0.1214
  865TIP3   OH224153   4.771   5.922   0.172 -0.0100 -0.1139  0.2238
  865TIP3    H124154   4.779   5.978   0.249 -0.7890 -0.1770  0.3660
  865TIP3    H224155   4.851   5.937   0.122 -0.4019  1.4604  0.0336
  866TIP3   OH224156   3.148   3.723   5.059  0.6305 -0.2833  0.1245
  866TIP3    H124157   3.134   3.630   5.039  3.6506 -0.8939  0.3175
  866TIP3    H224158   3.176   3.761   4.975 -0.2056  0.3797  0.1391
  867TIP3   OH224159   5.177   0.786   2.390 -0.9652  0.1676 -0.1879
  867TIP3    H124160   5.249   0.737   2.351 -1.7879 -1.4909  0.2770
  867TIP3    H224161   5.213   0.873   2.407  0.5085 -0.2182 -1.1723
  868TIP3   OH224162   6.817   4.694   1.124  0.1521 -0.3738  0.3532
  868TIP3    H124163   6.811   4.726   1.034  0.2069 -2.9568 -0.6418
  868TIP3    H224164   6.726   4.680   1.150  0.0877  1.1674  1.0558
  869TIP3   OH224165   3.300   6.334   2.764 -0.2829 -0.1526  0.1289
  869TIP3    H124166   3.382   6.288   2.749 -0.4208 -0.4870  0.3943
  869TIP3    H224167   3.269   6.301   2.848  0.4781  1.6677  1.2002
  870TIP3   OH224168   3.564   2.083   1.966  0.2905  0.0456  0.6567
  870TIP3    H124169   3.659   2.079   1.955  0.3751  0.2600  1.2848
  870TIP3    H224170   3.530   2.024   1.899  0.7953  1.1181 -0.6104
  871TIP3   OH224171   1.950   3.267   4.686  0.1130  0.3823  0.4948
  871TIP3    H124172   1.866   3.233   4.656 -0.0468 -0.3727  1.7227
  871TIP3    H224173   1.941   3.272   4.781  1.4016  0.4543  0.6303
  872TIP3   OH224174   1.700   4.479   0.272 -0.4622 -0.3338  0.0465
  872TIP3    H124175   1.794   4.476   0.253 -0.4541 -0.6573  0.1363
  872TIP3    H224176   1.669   4.556   0.223  0.0066  0.3226  0.7520
  873TIP3   OH224177   3.346   2.271   0.461 -0.1708 -0.1752  0.3183
  873TIP3    H124178   3.332   2.255   0.367  0.4619  0.5861  0.0754
  873TIP3    H224179   3.309   2.195   0.504  0.4949 -1.0699 -0.6247
  874TIP3   OH224180   5.107   2.162   1.707  0.0271 -0.8523 -0.4354
  874TIP3    H124181   5.065   2.206   1.633  0.6114  0.8204  0.1635
  874TIP3    H224182   5.044   2.095   1.734 -1.8790  0.9435 -0.1368
  875TIP3   OH224183   4.607   1.400   2.849  0.4796 -0.4425  0.3083
  875TIP3    H124184   4.619   1.334   2.917  0.2144 -1.2056 -0.3795
  875TIP3    H224185   4.565   1.473   2.894 -0.4272 -1.2533  0.7965
  876TIP3   OH224186   2.812   2.662   3.788 -0.0208  0.2305 -0.0079
  876TIP3    H124187   2.763   2.587   3.823  0.9895  0.1530  1.3349
  876TIP3    H224188   2.746   2.731   3.781 -0.5199 -0.1212  0.9401
  877TIP3   OH224189   2.414   4.836   4.742  0.1481  0.2660 -0.0463
  877TIP3    H124190   2.503   4.861   4.768  0.8702 -2.0301 -0.0554
  877TIP3    H224191   2.423   4.746   4.711 -2.1664  0.0496 -0.2666
  878TIP3   OH224192   2.227   0.741   0.867 -0.1231  0.2262  0.4352
  878TIP3    H124193   2.160   0.809   0.860  0.5128  0.8302 -0.0429
  878TIP3    H224194   2.235   0.724   0.960 -1.2364 -0.1601  0.4685
  879TIP3   OH224195   6.028   1.260   3.863  0.7906  0.3805 -0.3666
  879TIP3    H124196   5.993   1.188   3.915 -2.1081  1.3558 -0.7701
  879TIP3    H224197   6.016   1.337   3.917 -1.0546  1.2249 -1.8582
  880TIP3   OH224198   2.086   3.831   4.897  0.2337  1.0374  0.1095
  880TIP3    H124199   1.994   3.856   4.889  0.6885  2.2951 -2.0331
  880TIP3    H224200   2.131   3.883   4.831  2.1759 -1.1225 -0.4119
  881TIP3   OH224201   5.153   5.366   3.139  0.1597 -0.2803  0.0718
  881TIP3    H124202   5.236   5.401   3.169 -0.1238  0.2646  0.2381
  881TIP3    H224203   5.109   5.440   3.096 -0.3525 -0.4827  0.2321
  882TIP3   OH224204   0.763   3.992   2.505  0.4209 -0.2915 -0.0743
  882TIP3    H124205   0.810   4.014   2.586 -0.6895  1.0057  0.2637
  882TIP3    H224206   0.671   4.001   2.529  0.0660  1.9468 -1.9075
  883TIP3   OH224207   4.949   4.443   0.339 -0.6341 -0.3027  0.1165
  883TIP3    H124208   4.971   4.351   0.330  0.0408 -0.1173 -0.1396
  883TIP3    H224209   5.020   4.480   0.391 -1.4517 -0.1390  1.1445
  884TIP3   OH224210   4.367   1.373   3.453 -0.6802 -0.2794 -0.3673
  884TIP3    H124211   4.456   1.385   3.420 -0.7941 -2.1204 -1.4785
  884TIP3    H224212   4.378   1.350   3.545  0.0298 -0.8779 -0.5949
  885TIP3   OH224213   4.318   6.063   3.881  0.0631 -0.5792 -0.4842
  885TIP3    H124214   4.401   6.103   3.856 -0.9081  1.5860 -0.4734
  885TIP3    H224215   4.277   6.038   3.798  0.0785 -0.2877 -0.5787
  886TIP3   OH224216   6.031   1.009   0.406 -0.7009 -0.2845  0.3117
  886TIP3    H124217   5.963   0.972   0.351 -0.4892 -1.9865  1.1262
  886TIP3    H224218   5.984   1.048   0.480 -0.8995  0.7026 -0.3193
  887TIP3   OH224219   1.603   3.173   1.056  0.1447 -0.2570 -0.3558
  887TIP3    H124220   1.665   3.225   1.006  0.0914  0.2875  0.1298
  887TIP3    H224221   1.642   3.086   1.061 -0.0079 -0.4110 -1.6123
  888TIP3   OH224222   6.451   1.943   2.417 -0.4866  0.0720  0.1725
  888TIP3    H124223   6.365   1.982   2.404 -2.2801 -3.5257 -0.1018
  888TIP3    H224224   6.433   1.850   2.434  3.3140 -0.6911  1.0446
  889TIP3   OH224225   1.706   2.612   3.862 -0.5751  0.1561 -0.3695
  889TIP3    H124226   1.624   2.602   3.813  0.4194 -0.4753 -1.9412
  889TIP3    H224227   1.726   2.525   3.894  0.0538  0.0957 -0.9219
  890TIP3   OH224228   1.540   2.396   0.802  0.1616  0.0397  0.2981
  890TIP3    H124229   1.468   2.380   0.863  1.8143 -0.7818  2.1457
  890TIP3    H224230   1.535   2.323   0.740  0.1311 -0.7151  1.1649
  891TIP3   OH224231   6.361   2.372   1.397  0.3531 -0.0070 -0.1474
  891TIP3    H124232   6.405   2.298   1.439  1.0976 -0.3777 -1.5313
  891TIP3    H224233   6.354   2.437   1.467  1.0474 -0.8023  0.7019
  892TIP3   OH224234   6.072   2.444   1.074 -0.9262  0.4190 -1.2324
  892TIP3    H124235   6.040   2.531   1.099  1.1965  0.9390 -0.0462
  892TIP3    H224236   6.112   2.456   0.988 -1.5078  0.3833 -1.5092
  893TIP3   OH224237   0.660   2.736   1.594 -0.1268 -0.1451 -0.0521
  893TIP3    H124238   0.740   2.689   1.617 -0.9794 -2.0200 -0.7176
  893TIP3    H224239   0.690   2.823   1.568  1.7902 -1.0180 -0.9666
  894TIP3   OH224240   5.597   2.235   1.032  0.1221 -0.4243 -0.4339
  894TIP3    H124241   5.549   2.318   1.032 -0.6636 -0.8627 -1.0693
  894TIP3    H224242   5.689   2.261   1.028 -0.1213  0.4225 -0.9219
  895TIP3   OH224243   4.869   3.581   0.402  0.5995 -0.4941  0.1476
  895TIP3    H124244   4.936   3.518   0.427  1.8567  1.2417  1.3295
  895TIP3    H224245   4.788   3.546   0.441  0.9048 -2.1805 -0.6116
  896TIP3   OH224246   0.719   4.237   1.148 -0.2636 -0.1301  0.4647
  896TIP3    H124247   0.783   4.242   1.077 -0.3830  1.1895  0.4080
  896TIP3    H224248   0.671   4.156   1.132  0.1815 -0.2099 -0.5473
  897TIP3   OH224249   3.340   6.778   2.298 -0.5854  0.6609 -0.5233
  897TIP3    H124250   3.408   6.776   2.366 -2.3082 -1.5093  1.2628
  897TIP3    H224251   3.325   6.687   2.275 -1.4692  1.2219 -2.4388
  898TIP3   OH224252   1.259   0.885   1.314 -0.9432  0.2653  0.4050
  898TIP3    H124253   1.227   0.863   1.226 -0.4668 -1.4776  0.6171
  898TIP3    H224254   1.191   0.941   1.351 -0.6656  1.9417 -1.4250
  899TIP3   OH224255   2.399   1.669   2.266 -0.3339 -0.1827  0.6080
  899TIP3    H124256   2.464   1.663   2.336 -0.2189  0.4250  0.5657
  899TIP3    H224257   2.425   1.601   2.203 -1.3098 -1.7394  1.8253
  900TIP3   OH224258   2.564   4.679   2.206 -0.0259 -0.3780  0.4208
  900TIP3    H124259   2.580   4.704   2.115 -1.1003 -0.6803  0.1321
  900TIP3    H224260   2.554   4.583   2.203  0.0427 -0.4009  0.8774
  901TIP3   OH224261   3.437   0.419   1.695  0.4565 -0.4319  0.3683
  901TIP3    H124262   3.511   0.479   1.685  0.8862 -0.9691  0.2588
  901TIP3    H224263   3.373   0.469   1.747  0.0896  0.7204 -1.1234
  902TIP3   OH224264   0.371   6.723   2.578 -0.2105  0.0716 -0.4808
  902TIP3    H124265   0.449   6.748   2.527 -0.2624 -0.2210 -0.7031
  902TIP3    H224266   0.308   6.794   2.561  0.3635  0.8492  0.5212
  903TIP3   OH224267   6.128   2.924   1.224 -0.1351  0.0767 -0.0343
  903TIP3    H124268   6.169   2.967   1.149 -0.5081 -0.3638 -0.4934
  903TIP3    H224269   6.182   2.951   1.299  0.6003  0.0331 -0.5363
  904TIP3   OH224270   2.177   3.524   1.049  0.1378 -0.2836 -0.2213
  904TIP3    H124271   2.231   3.512   1.127 -0.6416 -2.2724  0.0778
  904TIP3    H224272   2.163   3.619   1.043  2.7857  0.1986  0.2394
  905TIP3   OH224273   0.407   6.488   1.720  0.4485  0.5435 -0.0344
  905TIP3    H124274   0.473   6.557   1.722  2.0125 -0.9178  0.7115
  905TIP3    H224275   0.441   6.419   1.777 -0.9064 -1.0018 -0.9860
  906TIP3   OH224276   2.837   5.227   1.590  0.1916 -0.3386  0.4606
  906TIP3    H124277   2.899   5.219   1.518  1.8231  0.4356  1.7072
  906TIP3    H224278   2.815   5.321   1.592  0.1771 -0.3488  0.9678
  907TIP3   OH224279   6.683   5.283   2.354  0.4687 -0.3389 -0.3223
  907TIP3    H124280   6.724   5.312   2.435 -0.5066  0.1405  0.0138
  907TIP3    H224281   6.754   5.243   2.304  1.1140 -0.4724  0.6841
  908TIP3   OH224282   0.459   5.269   3.995 -0.2153  0.1412  0.3425
  908TIP3    H124283   0.376   5.316   3.985  0.4178  1.8429  2.4375
  908TIP3    H224284   0.459   5.239   4.086  2.9964  3.5147  1.6866
  909TIP3   OH224285   5.860   2.521   3.131  0.9802 -0.4607 -0.3972
  909TIP3    H124286   5.785   2.568   3.094  1.1799 -0.0786 -0.3155
  909TIP3    H224287   5.867   2.442   3.077 -0.2448 -1.1182  0.3656
  910TIP3   OH224288   1.062   5.926   1.987  0.1380  0.1220 -0.1825
  910TIP3    H124289   1.096   6.010   2.019  1.7475 -0.4879 -0.1751
  910TIP3    H224290   1.052   5.938   1.893  0.0832  0.4150 -0.1397
  911TIP3   OH224291   4.208   6.111   0.637  0.3071  0.3018 -0.2983
  911TIP3    H124292   4.206   6.204   0.614 -2.0673  0.3464 -0.0968
  911TIP3    H224293   4.241   6.110   0.727 -0.8022  1.0700  0.1366
  912TIP3   OH224294   1.094   1.644   0.212  0.4596  0.2753  0.6440
  912TIP3    H124295   1.163   1.591   0.171 -0.7239 -0.9887  0.2363
  912TIP3    H224296   1.140   1.690   0.283  1.2480 -2.7227  2.2814
  913TIP3   OH224297   5.230   4.633   4.880 -0.8300 -0.1995  0.4426
  913TIP3    H124298   5.210   4.540   4.892  1.4117 -0.6064  1.6589
  913TIP3    H224299   5.145   4.676   4.875 -1.9532 -2.4229 -1.3078
  914TIP3   OH224300   3.435   0.609   2.379 -0.1340  0.4337  0.0738
  914TIP3    H124301   3.423   0.580   2.469 -0.0411 -0.7091 -0.2644
  914TIP3    H224302   3.483   0.538   2.337  1.8165  1.8799 -0.3283
  915TIP3   OH224303   6.874   1.391   2.788 -0.0759  0.6546 -0.3537
  915TIP3    H124304   6.887   1.366   2.880  0.5127 -0.3312 -0.6822
  915TIP3    H224305   6.783   1.418   2.783 -0.1630  0.5454  0.4873
  916TIP3   OH224306   5.557   5.387   3.614  0.2869 -0.1114 -0.1545
  916TIP3    H124307   5.544   5.341   3.530  1.2462 -1.0239  0.1725
  916TIP3    H224308   5.578   5.317   3.676  1.0979  0.7078  0.5117
  917TIP3   OH224309   2.357   6.722   1.402 -0.1879 -0.0698 -0.1670
  917TIP3    H124310   2.430   6.706   1.342 -0.9206  0.7782 -1.3337
  917TIP3    H224311   2.301   6.784   1.355  0.4089  2.5713  2.3493
  918TIP3   OH224312   4.039   4.162   3.513 -0.0461 -0.4227  0.5031
  918TIP3    H124313   3.994   4.208   3.442 -0.7632 -2.3176 -0.3617
  918TIP3    H224314   4.100   4.103   3.468  1.7131  0.4737  1.5980
  919TIP3   OH224315   1.861   2.475   2.589  0.5109  0.7772 -0.3379
  919TIP3    H124316   1.902   2.467   2.676  0.5695 -0.0517 -0.4369
  919TIP3    H224317   1.929   2.517   2.535  0.7551  0.6016 -0.1715
  920TIP3   OH224318   5.568   0.192   1.327 -0.0019 -0.3212 -0.6171
  920TIP3    H124319   5.482   0.230   1.308  0.2144  0.9362  0.6717
  920TIP3    H224320   5.551   0.125   1.393 -0.0252 -0.2756 -0.5770
  921TIP3   OH224321   3.918   1.143   8.523 -0.6313  0.4254 -0.1383
  921TIP3    H124322   3.944   1.050   8.521  1.8955  1.0548 -0.5012
  921TIP3    H224323   3.823   1.141   8.518 -0.6453 -2.1439 -0.5437
  922TIP3   OH224324   6.510   0.386   3.621 -1.0037 -0.6907  0.3375
  922TIP3    H124325   6.548   0.364   3.537 -0.7333  1.6392 -0.2385
  922TIP3    H224326   6.582   0.376   3.684  0.6330  3.0304 -0.6407
  923TIP3   OH224327   5.404   3.418   0.417 -0.0686  0.0481  0.6607
  923TIP3    H124328   5.372   3.347   0.472 -0.8319 -0.4822 -0.4364
  923TIP3    H224329   5.371   3.397   0.330  0.9746  0.9569  0.0317
  924TIP3   OH224330   6.065   5.034   1.391  0.1677 -0.0485 -0.4643
  924TIP3    H124331   6.156   5.021   1.363  0.2395  2.2617 -1.6141
  924TIP3    H224332   6.071   5.097   1.463 -0.5638  1.9025 -2.0134
  925TIP3   OH224333   3.404   3.212   0.995  0.5905 -0.2138 -0.0818
  925TIP3    H124334   3.333   3.256   0.949 -0.1667  0.1307  1.3648
  925TIP3    H224335   3.375   3.207   1.086  2.2265 -0.4692  0.4641
  926TIP3   OH224336   4.231   2.922   1.576 -0.3470 -0.2419  0.1820
  926TIP3    H124337   4.239   2.865   1.500 -0.1020 -1.5807  1.1623
  926TIP3    H224338   4.215   2.862   1.649 -0.7603  1.0128  1.1568
  927TIP3   OH224339   6.039   5.032   0.694 -0.8872 -0.3697 -0.0113
  927TIP3    H124340   6.131   5.017   0.675 -0.2510  0.5720  2.0238
  927TIP3    H224341   6.022   4.981   0.773 -1.3620  1.4738  1.1508
  928TIP3   OH224342   4.982   1.292   4.994 -0.8338 -0.7976 -0.0974
  928TIP3    H124343   5.027   1.358   5.047 -2.3060 -0.5146  0.8569
  928TIP3    H224344   4.913   1.341   4.950 -0.2956 -1.2384 -1.4653
  929TIP3   OH224345   3.119   2.994   2.625  0.5318 -0.1991  0.2771
  929TIP3    H124346   3.030   2.961   2.634  0.4697  0.1366  0.9537
  929TIP3    H224347   3.114   3.056   2.553  0.3297 -0.5557 -0.0202
  930TIP3   OH224348   4.402   4.678   3.851 -0.1825  0.2174  0.3413
  930TIP3    H124349   4.396   4.729   3.932 -2.1458 -1.2166  1.1820
  930TIP3    H224350   4.329   4.708   3.798  0.6269  0.5882 -0.5808
  931TIP3   OH224351   4.043   6.092   2.087  0.3892 -0.0969  0.7239
  931TIP3    H124352   4.094   6.148   2.146 -1.7435  1.2499  1.4035
  931TIP3    H224353   4.107   6.059   2.025  2.3117  0.4308  2.2992
  932TIP3   OH224354   5.171   0.271   1.532 -0.3205  0.1715  0.3026
  932TIP3    H124355   5.156   0.318   1.450 -1.0573  1.0156  0.9077
  932TIP3    H224356   5.252   0.310   1.567 -0.4031  0.3145  0.3336
  933TIP3   OH224357   4.897   1.577   2.676  0.2809 -0.4818  0.0189
  933TIP3    H124358   4.919   1.670   2.675  0.6056 -0.5002  1.6682
  933TIP3    H224359   4.944   1.539   2.601  2.6915  0.1725  1.0940
  934TIP3   OH224360   3.068   4.218   2.653 -0.8703  0.2100 -0.0005
  934TIP3    H124361   3.060   4.155   2.581 -0.0779  0.2209 -0.1001
  934TIP3    H224362   3.127   4.285   2.620  0.2186 -0.2352  0.9694
  935TIP3   OH224363   3.011   2.020   0.049 -0.1332 -0.0755  0.1338
  935TIP3    H124364   3.096   1.976   0.050 -0.9216 -1.7201  1.8567
  935TIP3    H224365   2.955   1.963  -0.003 -0.2325  1.0048 -1.0022
  936TIP3   OH224366   3.879   0.313   0.677  0.0872 -0.5650 -0.5362
  936TIP3    H124367   3.880   0.233   0.729 -0.6893 -0.0348  0.3550
  936TIP3    H224368   3.953   0.306   0.618  0.7214 -1.4162  0.3406
  937TIP3   OH224369   0.051   4.935   2.256 -0.3658 -0.0129 -0.0559
  937TIP3    H124370  -0.006   4.889   2.317  0.5776  0.3742  1.1439
  937TIP3    H224371   0.056   4.878   2.180 -0.4144 -1.1774  0.7998
  938TIP3   OH224372   0.186   5.096   3.202 -0.2482 -0.2473 -0.3693
  938TIP3    H124373   0.110   5.151   3.182 -1.2492 -0.6012  2.2036
  938TIP3    H224374   0.241   5.151   3.257 -0.1172 -0.9948  0.2595
  939TIP3   OH224375   5.902   4.288   2.147 -0.4246 -0.3978  0.7218
  939TIP3    H124376   5.834   4.271   2.211 -0.5800  0.8259  0.9145
  939TIP3    H224377   5.948   4.365   2.181  1.7339 -1.7846  1.1294
  940TIP3   OH224378   6.060   1.212   2.764 -0.2841  0.3186 -0.0307
  940TIP3    H124379   6.023   1.201   2.676  1.6168 -0.1578 -0.8069
  940TIP3    H224380   6.081   1.305   2.769 -0.5584  0.3811  0.0028
  941TIP3   OH224381   1.010   4.105   4.366  0.0268 -0.6970  0.0116
  941TIP3    H124382   0.938   4.124   4.426 -0.0935  0.0498 -0.3615
  941TIP3    H224383   1.009   4.177   4.303  0.0149 -1.5741 -1.0237
  942TIP3   OH224384   1.645   4.454   4.384  0.2353 -0.0658 -0.0832
  942TIP3    H124385   1.664   4.536   4.428  1.6792 -1.0103  1.1449
  942TIP3    H224386   1.727   4.430   4.342 -0.0176 -1.1337  0.0052
  943TIP3   OH224387   1.786   6.879   2.282 -0.4548 -0.5942  0.2282
  943TIP3    H124388   1.699   6.838   2.276 -1.2391  0.7503  1.6328
  943TIP3    H224389   1.832   6.828   2.349  0.0016 -1.5311 -0.7703
  944TIP3   OH224390   6.250   3.069   1.435  0.0466 -0.1981 -0.1083
  944TIP3    H124391   6.170   3.116   1.457 -0.7805 -0.6735 -1.8762
  944TIP3    H224392   6.319   3.135   1.437 -0.1591  0.0400  2.3506
  945TIP3   OH224393   6.337   2.658   1.205  0.0621  0.2704  1.0093
  945TIP3    H124394   6.331   2.686   1.297  4.3489  1.1035  1.2208
  945TIP3    H224395   6.358   2.738   1.157 -0.2444 -0.4813 -0.4260
  946TIP3   OH224396   1.227   6.598   3.399 -0.6133  0.2118 -0.3767
  946TIP3    H124397   1.231   6.609   3.494 -1.9970  0.4950 -0.3365
  946TIP3    H224398   1.316   6.618   3.369 -0.6119  1.9830  0.6890
  947TIP3   OH224399   6.198   1.748   2.422  0.0322  0.5593 -0.5766
  947TIP3    H124400   6.179   1.728   2.514 -0.0951  0.5289 -0.6098
  947TIP3    H224401   6.285   1.710   2.406 -1.1144 -1.9615 -1.2792
  948TIP3   OH224402   2.415   0.122   2.257  0.0699  0.1925 -0.3847
  948TIP3    H124403   2.462   0.039   2.267 -0.2693  0.0261 -0.1590
  948TIP3    H224404   2.419   0.162   2.344 -1.0762 -0.2917 -0.0942
  949TIP3   OH224405   5.247   3.663   0.914  0.2720  0.5711 -0.3228
  949TIP3    H124406   5.336   3.699   0.922  0.1628  0.9252 -0.6779
  949TIP3    H224407   5.258   3.586   0.858  0.3714  0.5705 -0.3025
  950TIP3   OH224408   2.033   6.204   3.373 -0.1413 -0.3476 -0.3504
  950TIP3    H124409   2.099   6.181   3.438 -0.0014 -0.9120 -0.6887
  950TIP3    H224410   1.993   6.285   3.407  0.1848 -0.4302  0.2430
  951TIP3   OH224411   2.454   0.676   4.027  0.0807 -0.0334  0.3266
  951TIP3    H124412   2.363   0.688   4.052  0.2097  0.8497  0.3755
  951TIP3    H224413   2.502   0.668   4.110 -0.1545 -2.2390  0.3119
  952TIP3   OH224414   3.041   2.523   3.419  1.0903 -0.1948  0.0352
  952TIP3    H124415   3.095   2.475   3.482  1.4587  1.3392  0.9259
  952TIP3    H224416   3.093   2.600   3.397  0.5172 -0.1782 -1.3767
  953TIP3   OH224417   1.929   0.815   4.034  1.3088  0.1397  0.1035
  953TIP3    H124418   1.845   0.768   4.036 -0.3724  2.8398  3.8968
  953TIP3    H224419   1.928   0.859   3.949 -1.2338  0.1594  0.0447
  954TIP3   OH224420   5.257   3.355   0.200 -0.3233 -0.4769 -0.5823
  954TIP3    H124421   5.215   3.434   0.167 -1.3015 -1.0217 -0.6752
  954TIP3    H224422   5.195   3.285   0.181 -1.3087 -0.7694  3.0108
  955TIP3   OH224423   6.189   4.836   2.704 -0.4207 -0.0968  0.4514
  955TIP3    H124424   6.191   4.903   2.636  2.5138 -2.8553 -2.5587
  955TIP3    H224425   6.097   4.810   2.709 -1.1225  2.0045 -0.5246
  956TIP3   OH224426   4.715   3.553   2.530 -0.8265 -0.5184  0.0018
  956TIP3    H124427   4.762   3.633   2.552 -1.5068  0.3363 -1.5277
  956TIP3    H224428   4.739   3.491   2.600  2.1240  0.0362 -0.3850
  957TIP3   OH224429   0.299   2.474   2.107  0.4614 -0.4708 -0.0260
  957TIP3    H124430   0.394   2.487   2.114  0.8318 -3.0843  1.3170
  957TIP3    H224431   0.286   2.382   2.130 -2.3354 -0.4721 -1.1682
  958TIP3   OH224432   6.173   1.266   4.376 -0.0489  0.1635  0.2772
  958TIP3    H124433   6.138   1.349   4.408  2.2031  1.4125 -0.2685
  958TIP3    H224434   6.166   1.207   4.450 -3.5201  0.1669  0.0958
  959TIP3   OH224435   5.456   2.780   0.716 -0.1021  0.0257  0.5177
  959TIP3    H124436   5.441   2.867   0.681 -3.2723 -0.2241  1.0012
  959TIP3    H224437   5.431   2.720   0.646  2.6704 -0.6234 -0.0594
  960TIP3   OH224438   1.073   0.760   3.189 -0.2827 -0.2203 -0.6069
  960TIP3    H124439   1.039   0.701   3.257 -0.7844 -1.4289 -1.8546
  960TIP3    H224440   0.995   0.804   3.155  0.1118  1.4341  0.4867
  961TIP3   OH224441   1.430   3.164   2.239 -0.6011 -0.0328 -0.3601
  961TIP3    H124442   1.345   3.205   2.223 -0.2228  0.5393 -0.9619
  961TIP3    H224443   1.484   3.234   2.275 -0.2525 -0.2659 -0.4232
  962TIP3   OH224444   6.429   3.073   2.424  0.3319  0.3671  0.3789
  962TIP3    H124445   6.432   2.995   2.368 -1.3920  0.8782 -0.4866
  962TIP3    H224446   6.452   3.040   2.511 -1.7765 -1.4537  0.3510
  963TIP3   OH224447   5.616   4.780   2.799  0.0943 -0.2619 -0.1036
  963TIP3    H124448   5.629   4.696   2.843  0.3915 -0.9077 -1.3893
  963TIP3    H224449   5.524   4.780   2.774 -0.4851  0.7942  1.8579
  964TIP3   OH224450   4.551   2.766   1.435 -0.4617  0.5895 -0.1767
  964TIP3    H124451   4.580   2.840   1.383  1.6201 -0.1220 -0.1353
  964TIP3    H224452   4.549   2.798   1.525  1.2469  0.4376 -0.0486
  965TIP3   OH224453   4.325   3.292   3.618 -0.2242 -0.0693  0.4335
  965TIP3    H124454   4.280   3.377   3.607 -1.1450 -0.6761 -0.8258
  965TIP3    H224455   4.295   3.260   3.703 -0.2483  0.6498  0.7036
  966TIP3   OH224456   3.630   5.447   3.644  0.4353 -0.6362  0.3680
  966TIP3    H124457   3.719   5.433   3.676  1.2584 -0.5017 -1.7173
  966TIP3    H224458   3.641   5.473   3.552 -1.6317  1.4612  0.6096
  967TIP3   OH224459   6.555   2.818   1.746  0.5884  0.7893  0.1758
  967TIP3    H124460   6.544   2.794   1.838  1.3692  1.5320  0.4738
  967TIP3    H224461   6.625   2.761   1.715  2.0877  2.2402  0.7468
  968TIP3   OH224462   2.226   5.268   3.144  0.6389 -0.6354 -0.2265
  968TIP3    H124463   2.185   5.338   3.093  0.3198  0.8828  1.9921
  968TIP3    H224464   2.304   5.245   3.093  0.7503  1.3239 -1.0603
  969TIP3   OH224465   0.100   0.167   3.955  0.1985  0.1320  0.2188
  969TIP3    H124466   0.078   0.252   3.918 -0.8847  1.2060  3.0764
  969TIP3    H224467   0.107   0.182   4.049  3.5932 -2.2311  0.5256
  970TIP3   OH224468   1.515   3.908   0.947  0.0752  0.2450 -1.1913
  970TIP3    H124469   1.510   3.813   0.953  0.3026  0.2562 -0.7344
  970TIP3    H224470   1.487   3.939   1.034 -0.6364  0.6198 -1.5486
  971TIP3   OH224471   4.366   4.180   4.171  0.4325 -0.0566 -0.9363
  971TIP3    H124472   4.422   4.222   4.237 -0.3598  1.7869 -1.3716
  971TIP3    H224473   4.350   4.093   4.206  2.9476 -0.4177 -0.4498
  972TIP3   OH224474   5.797   3.115   3.699 -0.6280 -0.3353  0.2941
  972TIP3    H124475   5.727   3.179   3.687 -0.3921  0.1700  1.4895
  972TIP3    H224476   5.769   3.040   3.646 -0.4470  1.0554 -1.9075
  973TIP3   OH224477   1.732   4.492   2.930  0.0680 -0.0675  0.7624
  973TIP3    H124478   1.674   4.468   3.002 -0.0216 -0.1620  0.6597
  973TIP3    H224479   1.675   4.494   2.853  0.1882 -0.0957  0.6723
  974TIP3   OH224480   4.337   3.449   3.918  0.3707  0.4608 -0.3366
  974TIP3    H124481   4.363   3.505   3.845  1.0445 -0.6894 -1.0012
  974TIP3    H224482   4.244   3.431   3.903  0.4727  0.3398 -0.8481
  975TIP3   OH224483   4.004   0.838   1.926  0.1625 -0.1958  0.3418
  975TIP3    H124484   4.025   0.927   1.897 -0.5731 -0.3211 -0.6635
  975TIP3    H224485   3.912   0.827   1.901 -0.4784 -0.4260  2.5749
  976TIP3   OH224486   4.940   3.309   2.008 -0.2143 -0.6087 -0.9867
  976TIP3    H124487   4.893   3.256   2.073 -2.2280 -0.3321 -2.1041
  976TIP3    H224488   4.920   3.400   2.032 -0.9046 -0.5040 -1.9040
  977TIP3   OH224489   0.020   0.798   1.855  0.0701  0.3556 -0.4116
  977TIP3    H124490   0.112   0.807   1.833  0.0655 -0.8699 -0.9661
  977TIP3    H224491   0.016   0.814   1.950  0.8409  0.4403 -0.3943
  978TIP3   OH224492   5.036   3.572   4.103 -0.1511  0.0285 -0.1788
  978TIP3    H124493   4.947   3.589   4.071 -1.0610 -1.5036  1.3894
  978TIP3    H224494   5.067   3.499   4.049 -0.1186  0.1067 -0.2657
  979TIP3   OH224495   0.125   2.183   2.433  0.4834  0.7311  0.0650
  979TIP3    H124496   0.146   2.271   2.402  0.6659  1.0191  0.9785
  979TIP3    H224497   0.053   2.196   2.495 -1.2674 -0.0469 -1.6961
  980TIP3   OH224498   0.706   0.289   1.520 -0.1381  0.0559 -0.8335
  980TIP3    H124499   0.759   0.209   1.511  0.2407  0.1875  0.1374
  980TIP3    H224500   0.621   0.258   1.550 -0.3115 -0.0673 -1.4393
  981TIP3   OH224501   5.545   4.742   4.475 -0.0901 -0.0816  0.2147
  981TIP3    H124502   5.501   4.821   4.444 -0.5534 -0.8442 -1.1804
  981TIP3    H224503   5.632   4.771   4.503 -0.3625  0.9536  0.0012
  982TIP3   OH224504   2.409   6.186   1.879 -0.3343  0.1682 -0.3740
  982TIP3    H124505   2.330   6.219   1.922  0.2755 -0.7398  1.5541
  982TIP3    H224506   2.384   6.100   1.844 -0.3947  0.2152 -0.4474
  983TIP3   OH224507   5.630   4.976   3.667 -0.4392  0.6119 -0.2512
  983TIP3    H124508   5.691   4.958   3.739  0.1215 -2.9043 -1.4050
  983TIP3    H224509   5.543   4.958   3.704 -0.2132 -0.4480 -0.1944
  984TIP3   OH224510   2.530   6.023   2.898  0.2551  0.1588  0.6245
  984TIP3    H124511   2.607   6.078   2.882  1.0543 -0.2409  2.6960
  984TIP3    H224512   2.455   6.081   2.882  0.9823  0.7759 -0.7090
  985TIP3   OH224513   0.432   0.041   1.241 -0.6580 -0.2285  0.0461
  985TIP3    H124514   0.458   0.001   1.324  1.0943  0.1589 -0.2766
  985TIP3    H224515   0.468  -0.017   1.174 -0.2506  0.5483 -0.4230
  986TIP3   OH224516   1.785   1.060   2.283 -0.0880  0.3460 -0.4269
  986TIP3    H124517   1.817   1.089   2.368  0.6434  0.5162 -0.7484
  986TIP3    H224518   1.704   1.015   2.302 -0.5874  1.4705  0.2360
  987TIP3   OH224519   6.854   3.111   3.446 -0.1896  0.6433 -0.3218
  987TIP3    H124520   6.903   3.058   3.509 -0.4810  0.5953 -0.1299
  987TIP3    H224521   6.774   3.061   3.431 -0.6765  1.2435  0.2115
  988TIP3   OH224522   3.799   6.835   1.877 -0.5018  0.1924 -0.0515
  988TIP3    H124523   3.777   6.746   1.906  0.8827 -0.2977 -0.4542
  988TIP3    H224524   3.791   6.889   1.956 -2.4593 -0.0561 -0.0362
  989TIP3   OH224525   6.204   2.286   4.805 -0.1619  0.2074 -0.3175
  989TIP3    H124526   6.254   2.367   4.814  0.8828 -0.4702  0.1220
  989TIP3    H224527   6.119   2.314   4.771  0.8633  1.2756 -2.1425
  990TIP3   OH224528   2.059   1.937   2.725  0.5691 -0.6574  0.1722
  990TIP3    H124529   2.103   1.854   2.741  0.2283 -0.6034  1.5060
  990TIP3    H224530   2.040   1.937   2.631 -1.0861 -2.9117  0.4486
  991TIP3   OH224531   3.836   5.654   3.090  0.7541 -0.7109  0.2712
  991TIP3    H124532   3.811   5.566   3.061  1.7024 -0.9893  0.2808
  991TIP3    H224533   3.901   5.683   3.027 -0.5993  0.6007 -0.5938
  992TIP3   OH224534   4.691   2.019   6.181 -0.3626 -0.0971 -0.1644
  992TIP3    H124535   4.636   1.955   6.226 -2.3984  1.3372 -0.4685
  992TIP3    H224536   4.641   2.043   6.103 -0.2320  2.6539  0.4984
  993TIP3   OH224537   4.087   3.433   3.529 -0.1896  0.2924 -0.7978
  993TIP3    H124538   4.096   3.501   3.595  0.9358 -0.0796 -0.5409
  993TIP3    H224539   4.006   3.455   3.483  0.8835  2.7005 -1.7236
  994TIP3   OH224540   4.571   4.163   2.208 -0.0761  0.0917 -0.1303
  994TIP3    H124541   4.490   4.163   2.157 -1.2296 -2.4059  1.5130
  994TIP3    H224542   4.635   4.204   2.151 -2.4516  2.2008 -1.5029
  995TIP3   OH224543   1.733   6.200   2.698 -0.7215 -0.1582  0.0975
  995TIP3    H124544   1.797   6.129   2.693 -1.4612 -0.8490  0.1804
  995TIP3    H224545   1.669   6.179   2.631  0.3586  1.8182 -1.6672
  996TIP3   OH224546   2.785   5.439   2.605 -0.1727  0.0324  0.4766
  996TIP3    H124547   2.838   5.432   2.684  0.8772 -0.5698 -0.2447
  996TIP3    H224548   2.846   5.415   2.534 -1.6473 -1.6205 -0.3034
  997TIP3   OH224549   6.721   2.809   2.651 -0.2550  0.2806  0.3518
  997TIP3    H124550   6.723   2.788   2.745  0.3121  0.3211  0.3535
  997TIP3    H224551   6.630   2.836   2.634 -0.4268  0.0117  0.8304
  998TIP3   OH224552   4.209   2.146   1.956 -0.0241  0.0931  0.0614
  998TIP3    H124553   4.219   2.168   1.863 -1.2412  1.4399  0.2190
  998TIP3    H224554   4.150   2.070   1.956  0.1219 -0.0250 -0.2549
  999TIP3   OH224555   6.435   4.033   1.389 -0.0869  0.0346 -0.1230
  999TIP3    H124556   6.425   4.126   1.369  1.4074  0.1539 -0.4110
  999TIP3    H224557   6.473   4.031   1.476 -1.7124 -0.3744  0.6147
 1000TIP3   OH224558   0.400   1.325   2.040 -0.3156  0.5715  0.1225
 1000TIP3    H124559   0.406   1.270   1.962  0.2478  0.9246 -0.0846
 1000TIP3    H224560   0.306   1.328   2.059 -0.2834 -1.4446  0.8451
 1001TIP3   OH224561   5.703   6.888   2.608  0.0676 -0.3592  0.3802
 1001TIP3    H124562   5.616   6.919   2.634 -0.2449  2.1241 -2.9111
 1001TIP3    H224563   5.689   6.845   2.524  1.7548 -2.1620  0.9546
 1002TIP3   OH224564   5.192   2.591   3.708  0.0839 -0.7879  0.2023
 1002TIP3    H124565   5.180   2.638   3.625  1.7217  0.1919  0.4814
 1002TIP3    H224566   5.127   2.521   3.705 -3.5441  2.3065  0.4541
 1003TIP3   OH224567   2.625   1.319   3.657 -0.0920  0.1223  0.6494
 1003TIP3    H124568   2.639   1.235   3.701 -2.9615  0.7305  3.0366
 1003TIP3    H224569   2.705   1.369   3.676  0.6306 -1.2303  1.3151
 1004TIP3   OH224570   4.489   1.043   1.688  1.1840  0.4108 -0.5815
 1004TIP3    H124571   4.438   0.969   1.658  0.4479  0.0113  1.5091
 1004TIP3    H224572   4.452   1.066   1.774  2.5974  1.9911 -0.3204
 1005TIP3   OH224573   4.991   0.681   3.503  0.3339  0.7658 -0.2173
 1005TIP3    H124574   5.056   0.714   3.441  1.9822 -0.2345  0.9170
 1005TIP3    H224575   4.956   0.602   3.461 -0.6332  1.6202 -1.0894
 1006TIP3   OH224576   0.801   2.435   2.007  0.0625  0.2009  0.0594
 1006TIP3    H124577   0.763   2.350   2.029 -1.1271  0.5981 -0.4062
 1006TIP3    H224578   0.885   2.414   1.966 -0.0879 -0.7337  0.2063
 1007TIP3   OH224579   4.163   1.074   2.723  0.0300  0.1345 -0.1490
 1007TIP3    H124580   4.238   1.016   2.734 -0.6085 -1.1057 -1.8616
 1007TIP3    H224581   4.092   1.030   2.770 -1.0961 -1.9196 -3.4525
 1008TIP3   OH224582   6.860   1.897   1.156  0.0988 -0.4223  1.0667
 1008TIP3    H124583   6.774   1.922   1.123  0.4929 -1.4961 -0.9059
 1008TIP3    H224584   6.910   1.874   1.078  2.8933  2.1381  1.8876
 1009TIP3   OH224585   5.165   3.400   3.850 -0.2320 -0.1781 -0.2269
 1009TIP3    H124586   5.187   3.461   3.780  0.1466 -0.8233 -0.6919
 1009TIP3    H224587   5.104   3.338   3.810  1.3289 -1.6026 -0.5538
 1010TIP3   OH224588   2.023   2.388   0.430  0.0952  0.7704 -1.0850
 1010TIP3    H124589   2.110   2.420   0.452 -0.1732  0.8883 -0.1688
 1010TIP3    H224590   2.033   2.293   0.426 -0.3507  0.5221  2.0113
 1011TIP3   OH224591   3.558   3.875   3.119 -0.0631  0.0669  0.3564
 1011TIP3    H124592   3.576   3.845   3.030  0.0356 -0.5167  0.5667
 1011TIP3    H224593   3.466   3.903   3.116 -0.1394 -0.2020  0.1364
 1012TIP3   OH224594   6.838   4.902   1.889  0.0399  0.9414 -0.1091
 1012TIP3    H124595   6.908   4.952   1.847 -1.7440  1.8680 -2.1235
 1012TIP3    H224596   6.797   4.964   1.949  0.5634  0.5604  0.6586
 1013TIP3   OH224597   5.941   2.406   3.502 -0.2898  0.0964 -0.0358
 1013TIP3    H124598   6.028   2.406   3.462  0.2912  0.4646  1.1995
 1013TIP3    H224599   5.957   2.412   3.596 -1.6510  0.0731  0.2200
 1014TIP3   OH224600   6.274   4.590   3.498  0.3184  0.5937  0.6340
 1014TIP3    H124601   6.304   4.510   3.541 -3.0894 -1.0479  0.3373
 1014TIP3    H224602   6.282   4.572   3.405  0.2678  0.8979  0.5706
 1015TIP3   OH224603   4.042   5.533   3.267  0.5794 -0.0399 -0.1938
 1015TIP3    H124604   4.022   5.612   3.218 -1.5266 -0.5217 -0.2010
 1015TIP3    H224605   3.970   5.473   3.248  1.5535 -1.5761  0.6593
 1016TIP3   OH224606   3.521   1.954   1.298  0.1365  0.1621 -0.1090
 1016TIP3    H124607   3.493   2.040   1.267 -0.5883  1.0082  2.6178
 1016TIP3    H224608   3.617   1.961   1.304  0.0430  1.0203  0.6297
 1017TIP3   OH224609   4.714   3.134   3.111  0.5869 -0.3970 -0.4908
 1017TIP3    H124610   4.802   3.169   3.097  0.3496  0.0650 -0.8900
 1017TIP3    H224611   4.694   3.086   3.030  0.2510 -0.0032 -0.6470
 1018TIP3   OH224612   1.178   2.660   0.805  0.0396 -0.0817  0.5791
 1018TIP3    H124613   1.103   2.623   0.758  0.7260 -1.5572  0.5972
 1018TIP3    H224614   1.228   2.707   0.739 -0.1957 -0.2270  0.2991
 1019TIP3   OH224615   3.619   6.536   1.334  0.1182  0.6924  0.0149
 1019TIP3    H124616   3.559   6.495   1.272 -0.0827  1.3614 -0.2464
 1019TIP3    H224617   3.634   6.624   1.299 -0.2496  1.1967  1.0610
 1020TIP3   OH224618   4.477   2.190   4.704 -0.0926  0.3956 -0.3212
 1020TIP3    H124619   4.428   2.153   4.630  0.1474  0.1032 -0.3380
 1020TIP3    H224620   4.509   2.113   4.751 -1.0872  0.5599  0.6521
 1021TIP3   OH224621   0.933   0.967   4.018 -0.0997  0.1802 -0.0340
 1021TIP3    H124622   0.931   1.058   3.987 -0.7282 -0.6694 -2.7958
 1021TIP3    H224623   1.017   0.959   4.062 -0.2168  2.2002  0.6596
 1022TIP3   OH224624   2.318   0.566   1.722 -0.3407 -0.1821 -1.3186
 1022TIP3    H124625   2.331   0.474   1.699  0.4724 -0.4381  0.0228
 1022TIP3    H224626   2.406   0.598   1.745 -0.9164  0.2615  0.4596
 1023TIP3   OH224627   6.662   2.692   2.920 -0.4053  0.1585  0.3568
 1023TIP3    H124628   6.711   2.734   2.990 -0.2006 -1.7351  1.4153
 1023TIP3    H224629   6.572   2.723   2.932 -0.0012  1.4364  0.1714
 1024TIP3   OH224630   1.505   0.826   2.279 -0.4389 -0.3854 -0.6585
 1024TIP3    H124631   1.453   0.904   2.299 -0.2783  0.2750 -2.6466
 1024TIP3    H224632   1.439   0.756   2.270 -0.6163 -0.4248  0.7054
 1025TIP3   OH224633   5.699   3.291   1.817 -0.4507 -0.3664  0.3205
 1025TIP3    H124634   5.635   3.362   1.817 -0.2725 -0.1848 -0.8209
 1025TIP3    H224635   5.661   3.226   1.876 -0.7281  0.5632  1.1968
 1026TIP3   OH224636   5.337   4.415   2.757 -0.2052  0.3140  0.4925
 1026TIP3    H124637   5.371   4.334   2.795  0.2489  0.2698 -0.0040
 1026TIP3    H224638   5.254   4.390   2.715  0.5859 -0.1814 -0.8259
 1027TIP3   OH224639   2.970   3.201   4.333 -0.1424  0.3440 -0.6597
 1027TIP3    H124640   2.968   3.292   4.301  0.6530  1.3908  1.9762
 1027TIP3    H224641   2.880   3.184   4.361 -0.0654  0.7612 -0.1277
 1028TIP3   OH224642   2.657   5.562   4.776 -0.1125 -0.6295  0.4199
 1028TIP3    H124643   2.686   5.652   4.770  0.6098 -0.8986 -0.1928
 1028TIP3    H224644   2.735   5.509   4.757  0.1821 -1.4523  3.3855
 1029TIP3   OH224645   4.714   4.571   2.549  0.1059  0.3194 -0.2096
 1029TIP3    H124646   4.624   4.553   2.524  0.2087 -0.9483  0.2753
 1029TIP3    H224647   4.723   4.666   2.541 -0.6364  0.2690 -2.3725
 1030TIP3   OH224648   3.501   5.554   2.148 -0.7353 -0.4003  0.1998
 1030TIP3    H124649   3.596   5.559   2.161 -0.7466 -1.7837  1.0667
 1030TIP3    H224650   3.491   5.515   2.061 -0.4275 -2.5087  1.0473
 1031TIP3   OH224651   3.300   3.815   3.707 -0.4711  0.0746 -0.1140
 1031TIP3    H124652   3.291   3.753   3.635 -2.6865 -1.3072  1.2614
 1031TIP3    H224653   3.245   3.889   3.682 -0.4978  0.0048 -0.2604
 1032TIP3   OH224654   1.969   0.530   2.629 -0.2431 -0.1521  0.1158
 1032TIP3    H124655   1.908   0.574   2.570  0.2404  0.3979  0.0241
 1032TIP3    H224656   2.009   0.601   2.680 -0.1506 -0.5623  0.6246
 1033TIP3   OH224657   3.238   3.445   0.959  0.4174  0.0397 -0.0773
 1033TIP3    H124658   3.200   3.438   0.871  0.3322  1.4815 -0.1813
 1033TIP3    H224659   3.163   3.461   1.016  0.7155  2.1675 -0.1846
 1034TIP3   OH224660   1.615   1.171   1.866  0.1847  0.6615 -0.0712
 1034TIP3    H124661   1.609   1.078   1.885 -2.1252  0.7355 -0.1186
 1034TIP3    H224662   1.683   1.178   1.799 -1.3458 -1.3545 -1.9910
 1035TIP3   OH224663   0.475   5.116   1.117 -0.4149 -0.6896  0.6209
 1035TIP3    H124664   0.513   5.135   1.203 -1.3390 -2.9581  1.6181
 1035TIP3    H224665   0.530   5.046   1.081  0.5570  0.8802 -1.1445
 1036TIP3   OH224666   3.601   5.264   3.070  0.2067  0.1817 -0.0251
 1036TIP3    H124667   3.557   5.181   3.086  1.0707 -0.3836 -0.4929
 1036TIP3    H224668   3.540   5.330   3.101 -0.4404 -0.6328  0.4741
 1037TIP3   OH224669   4.039   5.321   1.150 -0.7772  0.0574 -0.2046
 1037TIP3    H124670   4.060   5.408   1.114  1.1338 -0.5114 -0.6051
 1037TIP3    H224671   3.944   5.316   1.146 -0.8190  1.1979 -2.4504
 1038TIP3   OH224672   4.781   6.816   1.042 -0.0648 -0.5484  0.0386
 1038TIP3    H124673   4.728   6.745   1.007  0.9047 -0.6153 -1.3957
 1038TIP3    H224674   4.857   6.772   1.081  0.5279 -0.3274 -0.8359
 1039TIP3   OH224675   5.074   0.391   2.133 -0.3489 -0.0163  0.0497
 1039TIP3    H124676   5.074   0.483   2.105  0.0826  0.3493  1.2333
 1039TIP3    H224677   5.152   0.382   2.187  0.3995 -1.4537 -1.1858
 1040TIP3   OH224678   2.261   4.066   3.224 -0.2786 -0.6336  0.1319
 1040TIP3    H124679   2.284   3.978   3.252  1.2952  0.5253  2.9134
 1040TIP3    H224680   2.177   4.084   3.264  0.0141 -0.4385  0.6685
 1041TIP3   OH224681   1.765   6.536   2.627 -0.3742  0.5090  0.0730
 1041TIP3    H124682   1.739   6.546   2.719 -1.1015 -0.8725  0.0238
 1041TIP3    H224683   1.744   6.446   2.605 -0.4390  0.8917 -1.5432
 1042TIP3   OH224684   4.982   3.263   1.250 -0.6773 -0.0041 -0.4328
 1042TIP3    H124685   4.948   3.316   1.177 -0.5315 -0.5673 -0.9223
 1042TIP3    H224686   4.984   3.323   1.324  0.1154  0.8768 -1.1298
 1043TIP3   OH224687   6.644   4.654   4.625 -0.2971  0.1569  0.5604
 1043TIP3    H124688   6.666   4.739   4.664  0.0132  1.4521 -2.1328
 1043TIP3    H224689   6.728   4.618   4.597 -0.5322 -0.5081  0.7021
 1044TIP3   OH224690   1.008   0.975   2.510  0.7042  0.1216  0.6307
 1044TIP3    H124691   0.958   1.055   2.496  2.0805  1.0647  0.9320
 1044TIP3    H224692   1.049   0.986   2.595  1.5096 -0.5874  0.3482
 1045TIP3   OH224693   3.470   6.533   1.590  0.1039  0.0129  0.2669
 1045TIP3    H124694   3.494   6.575   1.508 -2.0865 -0.3324 -0.6179
 1045TIP3    H224695   3.446   6.444   1.565  2.0474 -1.0105  1.7310
 1046TIP3   OH224696   1.835   3.371   1.319 -0.1584  0.1642  0.1396
 1046TIP3    H124697   1.895   3.425   1.369  0.2507 -0.1204 -0.0357
 1046TIP3    H224698   1.865   3.380   1.228 -0.7396  0.4814 -0.0275
 1047TIP3   OH224699   3.343   1.530   0.316  0.5079 -0.3321  0.1611
 1047TIP3    H124700   3.286   1.470   0.364  0.6157 -0.3357  0.2839
 1047TIP3    H224701   3.384   1.584   0.383  1.0875 -0.7109  0.1215
 1048TIP3   OH224702   3.236   2.915   2.307  0.0179  0.2781 -0.4291
 1048TIP3    H124703   3.297   2.843   2.294 -2.0119 -1.7645  0.6035
 1048TIP3    H224704   3.292   2.992   2.323  2.3346 -1.5827  1.1912
 1049TIP3   OH224705   0.696   3.114   4.596 -0.5830 -0.9914  0.3272
 1049TIP3    H124706   0.730   3.109   4.685  0.7673  0.0141 -0.0921
 1049TIP3    H224707   0.690   3.207   4.577  0.1536 -1.1804 -0.9761
 1050TIP3   OH224708   3.928   5.423   2.163 -0.2063  0.6388  0.2072
 1050TIP3    H124709   3.883   5.339   2.176 -0.4538  0.8081  0.4452
 1050TIP3    H224710   3.987   5.430   2.238  2.1093 -0.7725 -1.3442
 1051TIP3   OH224711   4.983   5.763   2.068  0.1517  0.6585  0.5824
 1051TIP3    H124712   4.914   5.771   2.134  1.0901 -0.9514  1.8338
 1051TIP3    H224713   4.942   5.793   1.987 -0.9839  2.9312  1.8728
 1052TIP3   OH224714   5.888   2.450   2.644 -0.1206  0.5391  0.2943
 1052TIP3    H124715   5.807   2.439   2.595 -0.0128  1.8259 -0.2107
 1052TIP3    H224716   5.957   2.420   2.585 -0.0863  1.0163  0.0934
 1053TIP3   OH224717   5.813   1.330   1.871  0.3184 -0.4218  0.1552
 1053TIP3    H124718   5.735   1.337   1.815  2.4220  1.9224 -2.8157
 1053TIP3    H224719   5.845   1.241   1.857 -0.3072 -0.5061 -0.8403
 1054TIP3   OH224720   5.803   0.766   1.856 -0.0933  0.4381 -0.0228
 1054TIP3    H124721   5.814   0.714   1.776  0.9718  0.8494 -0.1575
 1054TIP3    H224722   5.887   0.759   1.901 -0.4488  0.7979  0.7150
 1055TIP3   OH224723   4.297   1.071   1.401  0.1510 -0.1604 -0.2296
 1055TIP3    H124724   4.224   1.019   1.434  0.2258  1.5338  2.9285
 1055TIP3    H224725   4.255   1.139   1.348 -0.2550 -0.9793 -1.0002
 1056TIP3   OH224726   6.863   4.943   4.446  0.4640  0.3509 -0.3639
 1056TIP3    H124727   6.850   4.907   4.533 -0.5599  0.5769 -0.4130
 1056TIP3    H224728   6.842   5.036   4.455 -1.1981  0.0842 -1.1743
 1057TIP3   OH224729   2.007   4.525   2.911  0.1548 -0.1189 -0.3793
 1057TIP3    H124730   1.916   4.495   2.904  0.9695 -2.5144 -2.0918
 1057TIP3    H224731   2.039   4.485   2.992  0.2432 -1.0982 -0.8748
 1058TIP3   OH224732   4.423   3.244   2.201 -0.1064  0.0723  0.5288
 1058TIP3    H124733   4.489   3.303   2.239 -1.0684  0.9450  0.9212
 1058TIP3    H224734   4.467   3.203   2.127  0.2796  2.2290 -0.5419
 1059TIP3   OH224735   1.122   5.570   3.898  0.2371 -0.4614 -0.3175
 1059TIP3    H124736   1.086   5.659   3.889  4.2995  1.7804  2.5568
 1059TIP3    H224737   1.193   5.566   3.834 -0.4132 -2.0903 -1.0001
 1060TIP3   OH224738   3.889   3.271   1.961  0.0350  0.6775 -0.1324
 1060TIP3    H124739   3.806   3.232   1.989  0.6827 -1.5420 -1.0732
 1060TIP3    H224740   3.866   3.323   1.883 -0.5951  0.8348  0.1489
 1061TIP3   OH224741   3.617   6.498   4.120 -0.1254  0.2770 -0.0829
 1061TIP3    H124742   3.712   6.492   4.124 -0.0330  0.6324 -1.4193
 1061TIP3    H224743   3.589   6.495   4.212  1.2402  1.5930  0.4047
 1062TIP3   OH224744   6.624   6.264   4.042  0.2740  0.1804  0.0784
 1062TIP3    H124745   6.671   6.245   4.123 -0.8299  0.0207  0.7004
 1062TIP3    H224746   6.532   6.250   4.063 -0.0167 -0.1548 -1.2932
 1063TIP3   OH224747   6.083   4.025   1.478  0.1575  0.3151  0.0939
 1063TIP3    H124748   6.113   4.032   1.568  0.8478 -1.1000  0.0010
 1063TIP3    H224749   6.031   4.104   1.464  1.0141  1.1377  1.3491
 1064TIP3   OH224750   2.593   0.905   8.387 -0.1962 -0.1400 -0.0769
 1064TIP3    H124751   2.502   0.893   8.415  0.6399 -0.9980  2.5156
 1064TIP3    H224752   2.628   0.816   8.381  0.9753  0.2338  0.8390
 1065TIP3   OH224753   4.117   2.586   2.614 -0.2870 -0.6055 -0.2499
 1065TIP3    H124754   4.081   2.498   2.619 -0.8233 -0.5556 -2.2668
 1065TIP3    H224755   4.091   2.618   2.527 -0.1406  1.5534  0.4258
 1066TIP3   OH224756   1.742   1.232   2.925 -0.6542  0.1622 -0.3143
 1066TIP3    H124757   1.813   1.177   2.959 -0.4556  0.1049 -0.7996
 1066TIP3    H224758   1.664   1.203   2.972 -0.6549 -0.9157 -0.9437
 1067TIP3   OH224759   6.639   5.401   0.598 -0.4621 -0.7911  0.4045
 1067TIP3    H124760   6.723   5.445   0.612  0.3597 -2.7200  2.0277
 1067TIP3    H224761   6.602   5.444   0.521  0.6963  2.0217  1.2733
 1068TIP3   OH224762   3.446   3.541   2.957  0.0842 -0.4073 -0.5462
 1068TIP3    H124763   3.443   3.621   2.905  2.0348  0.2923  0.2945
 1068TIP3    H224764   3.540   3.523   2.968 -0.2927 -2.8234 -0.6892
 1069TIP3   OH224765   1.306   3.543   4.158 -0.0374 -0.3102  0.0005
 1069TIP3    H124766   1.389   3.578   4.190 -0.1363  0.3553 -0.4680
 1069TIP3    H224767   1.239   3.604   4.190 -0.4441 -1.2780  1.0662
 1070TIP3   OH224768   0.856   1.159   3.262  0.0968 -0.0719 -0.0759
 1070TIP3    H124769   0.780   1.180   3.315  0.2166  0.3347 -0.0618
 1070TIP3    H224770   0.926   1.141   3.325  0.8164  2.4586 -0.0397
 1071TIP3   OH224771   3.171   1.797   4.917  0.1921  0.4019 -0.2202
 1071TIP3    H124772   3.238   1.785   4.984  0.1636  0.4222 -0.1880
 1071TIP3    H224773   3.188   1.728   4.853 -0.4372 -0.2824  0.3468
 1072TIP3   OH224774   3.879   2.652   1.847 -0.5049 -0.0499  0.6296
 1072TIP3    H124775   3.869   2.593   1.922 -3.0824 -0.9954 -0.3035
 1072TIP3    H224776   3.828   2.730   1.871 -1.2332 -0.3046 -0.0391
 1073TIP3   OH224777   2.035   3.984   1.797  0.3010  0.2191  0.4149
 1073TIP3    H124778   2.081   3.955   1.876  1.4809 -0.8140 -0.6003
 1073TIP3    H224779   1.973   3.913   1.779 -1.2581  1.2813  1.3781
 1074TIP3   OH224780   2.382   3.555   3.353 -0.4867  0.2554 -0.2583
 1074TIP3    H124781   2.290   3.532   3.368 -0.3848  0.2056  0.3399
 1074TIP3    H224782   2.428   3.518   3.429 -0.2673  2.0765  0.5413
 1075TIP3   OH224783   6.390   2.479   2.048 -0.0773  0.3269  0.5799
 1075TIP3    H124784   6.347   2.438   1.973  4.2488 -0.0087 -2.0134
 1075TIP3    H224785   6.420   2.406   2.103  0.7970  0.3499  0.1405
 1076TIP3   OH224786   3.033   4.203   0.006 -0.4223  1.1638  0.7093
 1076TIP3    H124787   3.104   4.165  -0.045  0.0805  1.3264  1.2725
 1076TIP3    H224788   3.072   4.281   0.047 -1.4291  2.3190 -0.4492
 1077TIP3   OH224789   5.829   0.888   1.550 -0.6268 -0.2970  0.2838
 1077TIP3    H124790   5.749   0.935   1.574 -0.1185  0.7599 -0.0212
 1077TIP3    H224791   5.806   0.796   1.557 -2.1697 -0.0331 -0.7698
 1078TIP3   OH224792   4.912   0.282   3.097  0.2417 -0.1615  0.1715
 1078TIP3    H124793   4.886   0.248   3.012  0.2766  0.3527 -0.0504
 1078TIP3    H224794   4.842   0.342   3.122  0.1706 -0.4051  0.5628
 1079TIP3   OH224795   4.504   4.013   4.520 -0.1076  0.1430 -0.0337
 1079TIP3    H124796   4.578   3.982   4.571 -2.3720 -1.1002  2.7587
 1079TIP3    H224797   4.518   3.976   4.432  3.2486  1.2567 -0.0945
 1080TIP3   OH224798   6.594   5.352   3.824  0.1832 -0.0097  0.1743
 1080TIP3    H124799   6.498   5.357   3.815  0.1794 -0.3011  0.0221
 1080TIP3    H224800   6.624   5.442   3.816 -0.0538  0.0464 -0.1118
 1081TIP3   OH224801   2.226   0.796   4.162  0.1084 -0.6970 -0.7440
 1081TIP3    H124802   2.232   0.719   4.218 -1.7388  1.5517  2.9199
 1081TIP3    H224803   2.144   0.784   4.114  0.4594 -1.5397 -1.1480
 1082TIP3   OH224804   5.218   1.395   1.755  0.5361  0.4435 -0.0989
 1082TIP3    H124805   5.304   1.436   1.742  0.0822  0.7868 -2.6345
 1082TIP3    H224806   5.155   1.466   1.740 -0.1960 -0.3972 -1.2006
 1083TIP3   OH224807   1.793   3.617   3.177 -0.0048  0.2920 -0.0585
 1083TIP3    H124808   1.797   3.667   3.095  1.6906  1.3538  0.6139
 1083TIP3    H224809   1.769   3.683   3.243  0.0843 -0.2580  0.5241
 1084TIP3   OH224810   2.516   1.695   3.014  0.0551 -0.1786  0.0939
 1084TIP3    H124811   2.609   1.702   3.036  0.3677 -1.8544 -0.5253
 1084TIP3    H224812   2.471   1.740   3.085  1.2495 -1.0511  1.4552
 1085TIP3   OH224813   3.657   2.324   1.163  0.3158 -0.3145 -0.0668
 1085TIP3    H124814   3.742   2.363   1.181 -0.0324  0.7094 -0.5778
 1085TIP3    H224815   3.677   2.249   1.107  0.7862  0.7852 -1.4452
 1086TIP3   OH224816   2.214   4.650   3.397 -0.3813  0.1760 -0.7224
 1086TIP3    H124817   2.188   4.585   3.463  0.7058  0.4717  0.0256
 1086TIP3    H224818   2.142   4.713   3.397 -0.2371  0.3669  0.4783
 1087TIP3   OH224819   2.001   6.009   3.739  0.4697 -0.6107 -0.6028
 1087TIP3    H124820   1.971   6.089   3.783 -0.4300 -0.1648 -1.9810
 1087TIP3    H224821   1.931   5.987   3.678 -0.0804 -3.4320  0.8898
 1088TIP3   OH224822   4.176   4.046   5.308 -0.4046 -0.1854 -0.0841
 1088TIP3    H124823   4.158   3.953   5.299  0.1586 -0.5699  2.2001
 1088TIP3    H224824   4.102   4.081   5.358  0.4862  0.0886  1.1064
 1089TIP3   OH224825   0.208   3.390   4.085  0.2044 -0.0576 -0.6313
 1089TIP3    H124826   0.146   3.403   4.156 -1.0209 -1.2696 -1.4330
 1089TIP3    H224827   0.289   3.432   4.116 -0.2594 -0.6110  1.4902
 1090TIP3   OH224828   5.412   4.864   1.428 -0.0088  0.2256  0.4373
 1090TIP3    H124829   5.363   4.916   1.491  0.7260  1.0000  0.3945
 1090TIP3    H224830   5.503   4.872   1.455  0.3649  0.8980 -0.9256
 1091TIP3   OH224831   0.742   3.888   3.749 -0.3854 -0.5585 -0.2597
 1091TIP3    H124832   0.664   3.834   3.733  0.1713 -1.4776  0.1134
 1091TIP3    H224833   0.789   3.843   3.818  0.7486 -0.2834 -0.8345
 1092TIP3   OH224834   0.080   5.408   2.369  0.4984  0.3478 -0.7107
 1092TIP3    H124835   0.039   5.418   2.283  0.4348 -0.0671 -0.7331
 1092TIP3    H224836   0.018   5.448   2.430 -0.5399 -1.3293 -0.6038
 1093TIP3   OH224837   6.174   2.812   4.886  0.2347 -0.4103  0.1783
 1093TIP3    H124838   6.257   2.850   4.860  0.5255 -0.7059  0.6561
 1093TIP3    H224839   6.145   2.867   4.959  1.2479 -1.7755  1.6903
 1094TIP3   OH224840   3.625   6.245   2.023  0.0617  0.2395 -0.1246
 1094TIP3    H124841   3.546   6.246   1.969  0.8637 -0.3422 -1.3431
 1094TIP3    H224842   3.609   6.313   2.089 -0.5081  1.7768 -1.7450
 1095TIP3   OH224843   1.461   0.825   0.477 -0.0862  0.0553 -0.2539
 1095TIP3    H124844   1.418   0.748   0.514 -1.8571  1.6093  1.1497
 1095TIP3    H224845   1.450   0.816   0.382 -0.5303 -1.2647 -0.0923
 1096TIP3   OH224846   4.670   2.946   2.654  0.9272 -0.0322  0.1500
 1096TIP3    H124847   4.616   2.885   2.604 -0.9607  0.6582  1.2453
 1096TIP3    H224848   4.661   3.029   2.608  2.2687 -0.2036 -0.4752
 1097TIP3   OH224849   5.965   2.983   0.957 -0.3967 -0.0521 -0.2101
 1097TIP3    H124850   5.999   2.968   0.868  0.0071  1.3741 -0.3257
 1097TIP3    H224851   5.880   2.938   0.958 -0.2407 -0.4064 -1.1901
 1098TIP3   OH224852   3.391   1.013   1.454  0.0526 -0.2320 -0.1926
 1098TIP3    H124853   3.458   0.972   1.509 -0.5880 -0.3502  0.5082
 1098TIP3    H224854   3.441   1.054   1.383  1.0761  1.3758  1.3499
 1099TIP3   OH224855   5.354   1.097   2.922 -0.2984  0.0502 -0.5739
 1099TIP3    H124856   5.321   1.186   2.931  0.4470  0.2019  1.0786
 1099TIP3    H224857   5.427   1.105   2.860  1.3131  1.0975  1.3132
 1100TIP3   OH224858   3.157   2.759   2.082  0.0245 -0.5782 -0.3523
 1100TIP3    H124859   3.145   2.846   2.119 -2.4276 -1.0153  0.0939
 1100TIP3    H224860   3.202   2.709   2.151  0.0210 -0.0753  0.0194
 1101TIP3   OH224861   6.085   6.735   2.372 -0.2616 -0.1634 -0.3957
 1101TIP3    H124862   6.112   6.645   2.351 -0.6021 -0.1835 -0.7662
 1101TIP3    H224863   6.015   6.754   2.309 -0.5328  0.1843  0.0064
 1102TIP3   OH224864   2.706   3.783   4.355  0.0823 -0.0346  0.1009
 1102TIP3    H124865   2.734   3.872   4.378 -1.6753  0.2608  1.3183
 1102TIP3    H224866   2.745   3.727   4.422  0.1062 -0.0074  0.1096
 1103TIP3   OH224867   3.600   3.414   2.136 -0.0366 -0.2199 -0.4019
 1103TIP3    H124868   3.647   3.436   2.217  0.4446 -1.0266 -0.4541
 1103TIP3    H224869   3.648   3.460   2.067  0.3678 -0.6255 -0.3921
 1104TIP3   OH224870   1.729   0.648   3.806 -0.1582  0.4718 -0.2419
 1104TIP3    H124871   1.698   0.565   3.768 -1.8564  0.4135  1.1451
 1104TIP3    H224872   1.715   0.712   3.736 -0.1236 -0.1804 -0.8624
 1105TIP3   OH224873   0.942   5.231   2.177  0.1948 -0.2947 -0.2492
 1105TIP3    H124874   0.863   5.276   2.148  0.5144  0.5468  0.1611
 1105TIP3    H224875   0.927   5.214   2.270  0.2439 -0.6887 -0.3116
 1106TIP3   OH224876   6.235   6.768   0.752 -0.0592  0.0837  0.1785
 1106TIP3    H124877   6.186   6.734   0.827  2.3307 -0.9354  1.3798
 1106TIP3    H224878   6.222   6.702   0.684 -1.7031  0.6886 -0.1371
 1107TIP3   OH224879   4.562   3.066   0.098  0.4822 -0.3315  0.3430
 1107TIP3    H124880   4.603   3.138   0.146 -0.8849 -0.0786  1.1723
 1107TIP3    H224881   4.468   3.078   0.113  0.0205 -0.4974 -2.0438
 1108TIP3   OH224882   3.028   2.006   3.113 -0.1468 -0.2281  0.2868
 1108TIP3    H124883   2.985   2.091   3.118  0.6717  0.2205 -0.1467
 1108TIP3    H224884   3.035   1.988   3.020 -0.2097 -0.7155  0.3738
 1109TIP3   OH224885   5.102   4.294   3.868  0.0172  0.5892 -0.4354
 1109TIP3    H124886   5.057   4.312   3.951 -0.1000  0.5543 -0.4907
 1109TIP3    H224887   5.084   4.201   3.851  2.5393 -0.2604  1.0216
 1110TIP3   OH224888   5.248   4.456   3.657 -1.0814  0.2302  0.5101
 1110TIP3    H124889   5.246   4.550   3.674  1.1014  0.2038  1.1758
 1110TIP3    H224890   5.231   4.416   3.743  0.4417  0.0578  0.7547
 1111TIP3   OH224891   3.380   2.029   4.729 -0.3496 -0.1632 -0.3420
 1111TIP3    H124892   3.377   1.949   4.677 -2.4678 -0.5545  0.2585
 1111TIP3    H224893   3.288   2.049   4.747  0.2321  1.0109  1.6349
 1112TIP3   OH224894   6.618   4.997   2.592 -0.3417  0.3269  0.4736
 1112TIP3    H124895   6.554   5.064   2.570  0.6865  1.5521  1.0824
 1112TIP3    H224896   6.606   4.929   2.526  0.6331  2.4790 -2.1069
 1113TIP3   OH224897   2.552   2.297   2.641 -0.7491  0.2173  0.0604
 1113TIP3    H124898   2.593   2.375   2.678 -2.2487  0.8543  0.4599
 1113TIP3    H224899   2.470   2.287   2.689  0.0426 -2.4987  1.0456
 1114TIP3   OH224900   2.539   2.749   2.049  0.2823 -0.4221  0.0657
 1114TIP3    H124901   2.453   2.760   2.090  0.5771 -0.4582  0.7006
 1114TIP3    H224902   2.551   2.829   1.998 -0.1705 -0.4611 -0.1098
 1115TIP3   OH224903   6.749   2.162   2.216  0.0750  0.4557  0.2335
 1115TIP3    H124904   6.731   2.084   2.267  0.6418 -0.2564 -0.6354
 1115TIP3    H224905   6.680   2.163   2.149  0.1093  0.6739  0.1999
 1116TIP3   OH224906   1.960   5.987   2.040  0.3590 -0.0950  0.0780
 1116TIP3    H124907   2.042   6.024   2.073  0.7009 -1.7674  1.2234
 1116TIP3    H224908   1.968   5.994   1.944  1.8350 -0.2319  0.1683
 1117TIP3   OH224909   2.817   4.137   5.052 -0.2615  0.0464 -0.2206
 1117TIP3    H124910   2.739   4.128   5.108  0.8196 -0.0524  1.3440
 1117TIP3    H224911   2.884   4.174   5.110  0.4456  1.6237 -1.9394
 1118TIP3   OH224912   3.794   1.662   4.390 -0.0086  0.7763 -0.1629
 1118TIP3    H124913   3.731   1.717   4.437  0.0150 -0.5027  1.4708
 1118TIP3    H224914   3.745   1.582   4.371 -0.0101  1.2413 -2.3925
 1119TIP3   OH224915   2.167   3.209   4.267 -0.3242  0.5776  0.4723
 1119TIP3    H124916   2.157   3.304   4.264  0.8509  0.6799 -1.2300
 1119TIP3    H224917   2.090   3.175   4.222 -0.4346  0.7505  0.5310
 1120TIP3   OH224918   2.518   6.800   3.504  0.0762  0.1785  0.2427
 1120TIP3    H124919   2.531   6.734   3.436 -0.8091  0.1243  0.1129
 1120TIP3    H224920   2.445   6.766   3.557  0.5504  0.3679  1.0355
 1121TIP3   OH224921   5.896   3.844   3.764  0.1499  0.3322  0.1776
 1121TIP3    H124922   5.840   3.827   3.839 -0.1895  0.6645  0.0026
 1121TIP3    H224923   5.982   3.865   3.802 -0.3734  1.9587  0.5488
 1122TIP3   OH224924   6.613   3.596   3.180  0.5552 -0.0783 -0.0663
 1122TIP3    H124925   6.532   3.547   3.187  1.0028 -0.9583 -0.7599
 1122TIP3    H224926   6.603   3.669   3.241  0.0854 -1.3371  1.4219
 1123TIP3   OH224927   6.630   3.927   1.999 -0.2384  0.0235 -0.1187
 1123TIP3    H124928   6.595   3.928   2.088  2.3397  0.1243  0.9795
 1123TIP3    H224929   6.680   4.008   1.992 -1.1196  0.4709 -2.0313
 1124TIP3   OH224930   6.048   4.746   1.708 -0.3909  0.0905  0.2167
 1124TIP3    H124931   6.017   4.739   1.617  0.4847  0.7977 -0.1526
 1124TIP3    H224932   6.129   4.797   1.702  0.3699 -0.9371  1.2534
 1125TIP3   OH224933   5.272   4.849   1.916 -0.3785  0.0742  0.3558
 1125TIP3    H124934   5.248   4.939   1.892  1.8239  0.7396  0.4772
 1125TIP3    H224935   5.272   4.849   2.012 -0.8470 -0.1964  0.3568
 1126TIP3   OH224936   6.164   5.495   2.754 -0.7034  0.1873  0.7899
 1126TIP3    H124937   6.162   5.407   2.718  1.1394  0.8090 -1.0870
 1126TIP3    H224938   6.132   5.551   2.683 -1.9076  1.0681  1.9636
 1127TIP3   OH224939   3.361   0.135   2.560  0.0086 -0.1252 -0.4079
 1127TIP3    H124940   3.419   0.198   2.517  0.9528 -1.6586 -1.5137
 1127TIP3    H224941   3.386   0.139   2.653  1.4038 -0.2240 -0.7537
 1128TIP3   OH224942   0.272   0.872   1.824  0.0337 -0.0177 -0.1705
 1128TIP3    H124943   0.266   0.959   1.786 -0.1300  0.0368 -0.0192
 1128TIP3    H224944   0.329   0.823   1.764  1.0403  0.5063  0.3286
 1129TIP3   OH224945   2.459   0.297   1.297  0.1894 -0.2184 -0.1864
 1129TIP3    H124946   2.462   0.261   1.208  0.3111 -0.9719  0.1167
 1129TIP3    H224947   2.542   0.342   1.307 -1.0079  2.5493 -1.5278
 1130TIP3   OH224948   0.906   6.305   3.526  0.4931 -0.4666 -0.1466
 1130TIP3    H124949   0.990   6.349   3.543  1.4664 -2.1165 -0.4636
 1130TIP3    H224950   0.920   6.215   3.555 -1.3246 -0.6782  0.1522
 1131TIP3   OH224951   3.028   4.439   5.029  0.2499  0.1818 -0.1475
 1131TIP3    H124952   3.023   4.380   4.954  0.2933  0.8579 -0.6960
 1131TIP3    H224953   3.027   4.381   5.105  2.9969 -0.7182 -0.6756
 1132TIP3   OH224954   3.306   4.557   3.039  0.3437  0.0248  0.0027
 1132TIP3    H124955   3.243   4.485   3.042  0.7760 -0.3187  1.4403
 1132TIP3    H224956   3.295   4.602   3.123 -0.0105  1.7332 -0.9195
 1133TIP3   OH224957   3.404   4.851   0.291 -0.0810 -0.2409  0.3774
 1133TIP3    H124958   3.410   4.813   0.379  1.5935  1.4535  1.0566
 1133TIP3    H224959   3.322   4.900   0.292 -0.9453 -1.6088  0.3576
 1134TIP3   OH224960   0.009   5.875   2.069 -0.4984 -0.3110 -0.2697
 1134TIP3    H124961  -0.032   5.810   2.126 -0.8046 -1.1363 -1.3946
 1134TIP3    H224962   0.013   5.832   1.983 -0.6038  1.1247 -1.0134
 1135TIP3   OH224963   2.130   6.827   1.853  0.6082 -0.0830 -0.3617
 1135TIP3    H124964   2.123   6.759   1.786  1.3314 -0.2099 -0.3199
 1135TIP3    H224965   2.058   6.809   1.913  0.2260 -0.2394 -0.8641
 1136TIP3   OH224966   2.145   3.249   2.933 -0.3564  0.0333 -0.0437
 1136TIP3    H124967   2.075   3.187   2.957 -0.4504 -0.3726 -1.2868
 1136TIP3    H224968   2.108   3.299   2.861  0.4754  0.1267 -0.4157
 1137TIP3   OH224969   1.797   1.569   2.190  0.3033 -0.3158 -0.5069
 1137TIP3    H124970   1.725   1.624   2.160  0.2601  0.9174  1.6323
 1137TIP3    H224971   1.873   1.598   2.140  0.0410  0.9773 -0.2028
 1138TIP3   OH224972   2.547   3.829   3.447 -0.4837  0.6205  0.2729
 1138TIP3    H124973   2.458   3.800   3.466 -0.5594  0.4658 -0.2830
 1138TIP3    H224974   2.540   3.869   3.360  0.3114 -0.9426 -0.5558
 1139TIP3   OH224975   0.725   6.028   3.458 -0.4455  0.1054 -0.3098
 1139TIP3    H124976   0.657   5.960   3.467 -1.7301  1.4467  0.7253
 1139TIP3    H224977   0.685   6.094   3.402  0.0313  0.8807  0.2442
 1140TIP3   OH224978   2.818   3.298   1.397  0.3856  0.3468 -0.4613
 1140TIP3    H124979   2.895   3.341   1.433  0.8799  0.2256 -1.3568
 1140TIP3    H224980   2.843   3.272   1.309 -0.6370  0.1877 -0.7226
 1141TIP3   OH224981   5.566   3.612   1.451 -0.4614  0.3442  0.3937
 1141TIP3    H124982   5.542   3.562   1.529 -0.2085 -1.2030 -0.4901
 1141TIP3    H224983   5.647   3.571   1.420 -0.6587  0.8180 -0.7915
 1142TIP3   OH224984   1.936   3.092   1.181 -0.1004  0.2017  0.6511
 1142TIP3    H124985   1.949   3.187   1.171 -0.0371  0.0062 -1.6431
 1142TIP3    H224986   2.002   3.066   1.246 -0.2485  1.7335  1.4743
 1143TIP3   OH224987   3.965   1.983   2.172 -0.5638 -0.4072  0.2170
 1143TIP3    H124988   3.893   1.981   2.235 -0.4459 -2.9107  0.3875
 1143TIP3    H224989   3.990   1.891   2.162  1.6427  0.2479 -0.9539
 1144TIP3   OH224990   4.902   1.972   1.772  0.6654  0.2939  0.3894
 1144TIP3    H124991   4.820   1.923   1.759  0.8681 -0.0362  0.3379
 1144TIP3    H224992   4.914   1.973   1.867  1.1720 -0.6174  0.3440
 1145TIP3   OH224993   5.695   4.052   4.403 -1.0471 -0.0419 -0.1907
 1145TIP3    H124994   5.631   4.122   4.417 -1.9836 -0.6742 -1.2056
 1145TIP3    H224995   5.683   3.993   4.478 -1.3776  0.0455 -0.1737
 1146TIP3   OH224996   5.410   2.181   3.184 -0.3875 -0.5767  0.2889
 1146TIP3    H124997   5.329   2.160   3.138 -0.3643 -0.1561  0.0440
 1146TIP3    H224998   5.387   2.255   3.241  0.4553  1.5211 -1.9036
 1147TIP3   OH224999   6.733   0.325   3.057 -0.2683 -0.1038 -0.1073
 1147TIP3    H125000   6.825   0.341   3.081 -1.0664  1.2905  2.3668
 1147TIP3    H225001   6.708   0.402   3.006 -0.7936  1.0339  1.7349
 1148TIP3   OH225002   0.636   5.672   3.863  0.3264 -0.7474 -0.1309
 1148TIP3    H125003   0.674   5.687   3.950  0.4871  2.1250 -0.6160
 1148TIP3    H225004   0.551   5.716   3.866  0.0570 -1.1682 -1.2406
 1149TIP3   OH225005   0.393   3.575   1.940 -0.0932 -0.2586 -0.3139
 1149TIP3    H125006   0.478   3.607   1.909 -1.4452  2.9247 -1.1565
 1149TIP3    H225007   0.352   3.538   1.862  0.2520 -1.2490 -0.0389
 1150TIP3   OH225008   4.593   3.878   4.135  0.4470 -0.7078 -0.4102
 1150TIP3    H125009   4.544   3.835   4.065 -0.8303  1.3660 -0.8817
 1150TIP3    H225010   4.563   3.834   4.215  1.3708 -2.5938 -1.0353
 1151TIP3   OH225011   2.053   5.172   1.277  0.0974  0.0892 -0.3114
 1151TIP3    H125012   1.990   5.242   1.291 -4.8703 -3.6721 -1.1062
 1151TIP3    H225013   2.065   5.133   1.364 -2.2009 -1.7164 -0.7378
 1152TIP3   OH225014   2.467   0.191   1.021  0.3091 -0.4179  0.4215
 1152TIP3    H125015   2.400   0.128   0.995  1.1299 -1.1753  0.0681
 1152TIP3    H225016   2.537   0.137   1.057  1.7918  0.0965 -1.4987
 1153TIP3   OH225017   1.632   2.027   1.519 -0.3432  0.3675 -0.1566
 1153TIP3    H125018   1.632   2.087   1.594  0.9309  1.4991 -1.0022
 1153TIP3    H225019   1.691   1.956   1.545 -0.6316  0.2789  0.2641
 1154TIP3   OH225020   2.029   6.493   4.231  0.0289 -0.1787  0.6274
 1154TIP3    H125021   2.098   6.466   4.171 -0.2925  0.3426  0.0184
 1154TIP3    H225022   2.047   6.585   4.248 -1.3772  0.3965 -0.7456
 1155TIP3   OH225023   3.332   3.305   0.657  0.6960  0.4674  0.7821
 1155TIP3    H125024   3.285   3.359   0.593  0.4776 -0.2604  0.3084
 1155TIP3    H225025   3.424   3.325   0.642  0.5927  1.1192  0.9941
 1156TIP3   OH225026   5.981   5.029   1.080  0.4887  0.8563 -0.2595
 1156TIP3    H125027   6.008   5.119   1.095  0.0044  0.7762  1.3003
 1156TIP3    H225028   6.001   4.984   1.162 -0.9877 -0.0187 -0.3400
 1157TIP3   OH225029   2.629   1.844   4.536  0.3767 -0.2261 -0.1292
 1157TIP3    H125030   2.573   1.919   4.514  0.7645  0.9637  2.5815
 1157TIP3    H225031   2.717   1.871   4.509  0.9464  1.4541  2.9598
 1158TIP3   OH225032   3.392   6.563   3.937  0.8327  0.2875  0.0265
 1158TIP3    H125033   3.390   6.651   3.975  1.2322 -0.0350  0.8094
 1158TIP3    H225034   3.450   6.514   3.994  1.5938 -0.1721 -1.1003
 1159TIP3   OH225035   3.721   2.647   1.601 -0.0837  0.6603 -0.2260
 1159TIP3    H125036   3.778   2.673   1.674  0.3821 -1.3208  0.1620
 1159TIP3    H225037   3.633   2.646   1.639  0.1144 -0.0359  0.2315
 1160TIP3   OH225038   0.467   6.576   0.716 -0.1788  0.3769 -0.4138
 1160TIP3    H125039   0.438   6.616   0.634 -1.3498 -0.1228 -0.2675
 1160TIP3    H225040   0.406   6.503   0.729  0.9588 -0.5125  0.1050
 1161TIP3   OH225041   6.295   4.268   1.426  0.7762 -0.1905 -0.0216
 1161TIP3    H125042   6.232   4.316   1.478 -0.1992  0.8848 -2.0656
 1161TIP3    H225043   6.363   4.333   1.404  2.2068 -1.1130  1.4466
 1162TIP3   OH225044   5.708   4.961   1.964  0.5221  0.2525 -0.3405
 1162TIP3    H125045   5.767   4.947   2.038 -1.4731  0.0708  1.3188
 1162TIP3    H225046   5.629   4.998   2.004 -0.6638  0.0478 -2.3872
 1163TIP3   OH225047   3.499   0.296   2.774  0.4477 -0.8816  0.1085
 1163TIP3    H125048   3.573   0.262   2.826 -0.5711 -1.4177  1.2754
 1163TIP3    H225049   3.424   0.291   2.834 -0.6105 -0.7047 -1.1650
 1164TIP3   OH225050   1.100   6.748   1.093  0.5341  0.0096 -0.7071
 1164TIP3    H125051   1.134   6.771   1.180  1.1333 -0.9479 -0.6785
 1164TIP3    H225052   1.108   6.653   1.088  0.0164  0.0022 -1.6175
 1165TIP3   OH225053   3.897   6.787   4.229  0.1994 -0.3660 -0.3356
 1165TIP3    H125054   3.860   6.699   4.236 -0.5131  0.0624  2.2413
 1165TIP3    H225055   3.837   6.843   4.278  0.1858  1.7707 -2.5773
 1166TIP3   OH225056   2.063   0.949   0.803  0.2705 -0.0980  0.3536
 1166TIP3    H125057   2.128   0.991   0.859 -0.9726 -0.5394  2.2328
 1166TIP3    H225058   1.986   1.006   0.809 -0.5363 -1.1712  0.7538
 1167TIP3   OH225059   2.017   0.343   1.486 -0.0746 -0.1452 -0.1151
 1167TIP3    H125060   1.957   0.317   1.416 -0.5595  0.1882  0.1719
 1167TIP3    H225061   2.098   0.297   1.465 -1.4770 -3.8923  1.5937
 1168TIP3   OH225062   5.539   0.080   2.964  0.0616  0.0027  0.0373
 1168TIP3    H125063   5.531   0.174   2.981 -1.7572  0.2998 -1.9849
 1168TIP3    H225064   5.529   0.039   3.049  0.5003  1.5981  0.9149
 1169TIP3   OH225065   0.597   4.735   1.248 -0.0237  0.6483 -0.6325
 1169TIP3    H125066   0.617   4.662   1.189  0.6136 -1.1592  1.6430
 1169TIP3    H225067   0.642   4.712   1.330  1.4354  4.3500 -0.1993
 1170TIP3   OH225068   3.136   2.397   1.865  0.1694  0.3126 -0.1681
 1170TIP3    H125069   3.132   2.435   1.952 -1.5651  1.7158 -0.8149
 1170TIP3    H225070   3.145   2.303   1.880  0.2381  0.5612  1.4966
 1171TIP3   OH225071   1.667   1.170   3.207  0.1571  0.0495 -0.1644
 1171TIP3    H125072   1.761   1.172   3.188  0.6895 -1.0936  1.9979
 1171TIP3    H225073   1.654   1.237   3.275 -0.8835  1.1221 -1.3541
 1172TIP3   OH225074   1.950   1.162   2.479 -0.2240 -0.2358  0.1887
 1172TIP3    H125075   1.952   1.248   2.437  2.1604 -0.1283  0.3892
 1172TIP3    H225076   1.908   1.178   2.564 -0.3429  0.6088 -0.0241
 1173TIP3   OH225077   2.190   2.157   1.830 -0.1411  0.0641  0.3774
 1173TIP3    H125078   2.257   2.222   1.807  0.8632 -0.8626  0.5812
 1173TIP3    H225079   2.205   2.141   1.924 -1.3693  0.6384  0.6888
 1174TIP3   OH225080   1.989   6.771   3.322 -0.4360 -0.0267 -0.2173
 1174TIP3    H125081   1.894   6.765   3.321 -0.3931 -0.8611 -0.3106
 1174TIP3    H225082   2.008   6.853   3.368 -1.1490 -1.0986  2.1096
 1175TIP3   OH225083   6.596   2.268   3.115 -0.7895  0.4929 -0.2428
 1175TIP3    H125084   6.655   2.288   3.042  0.6908 -0.9910  0.4695
 1175TIP3    H225085   6.622   2.327   3.185 -0.4338  0.1443 -0.0765
 1176TIP3   OH225086   3.479   4.319   0.858  0.1599 -0.2257  0.0589
 1176TIP3    H125087   3.565   4.358   0.870  0.4812 -0.8900 -0.0621
 1176TIP3    H225088   3.493   4.225   0.866 -0.5450 -0.3460 -0.0069
 1177TIP3   OH225089   3.695   2.350   4.320 -0.0282  0.0730 -0.4450
 1177TIP3    H125090   3.709   2.440   4.349  1.1775 -0.5261  0.9504
 1177TIP3    H225091   3.753   2.298   4.376 -1.7675 -1.7276 -0.2275
 1178TIP3   OH225092   3.300   5.258   4.630  0.1614  0.1873  0.1076
 1178TIP3    H125093   3.214   5.252   4.671 -1.9270  1.3607 -3.6758
 1178TIP3    H225094   3.319   5.169   4.602 -0.8681  0.2692 -0.8985
 1179TIP3   OH225095   2.225   3.256   1.625  0.7067  0.1120  0.4216
 1179TIP3    H125096   2.198   3.208   1.703  1.7193  1.3249  1.5667
 1179TIP3    H225097   2.276   3.192   1.574 -0.2525 -0.7826  0.5618
 1180TIP3   OH225098   4.472   4.089   5.266 -0.1450  0.3476 -0.1698
 1180TIP3    H125099   4.517   4.174   5.265  1.3316 -0.4059 -1.4981
 1180TIP3    H225100   4.388   4.107   5.310  0.6883  2.1856  0.7872
 1181TIP3   OH225101   1.977   3.597   1.652  0.0611 -0.4000 -0.4617
 1181TIP3    H125102   2.027   3.544   1.589 -0.6800 -1.1736 -0.4075
 1181TIP3    H225103   2.041   3.660   1.685  1.0531 -1.4347 -0.3182
 1182TIP3   OH225104   6.100   0.901   1.616 -0.0872 -0.5413  0.1178
 1182TIP3    H125105   6.146   0.933   1.539 -1.0177  2.1396  0.5804
 1182TIP3    H225106   6.007   0.902   1.592 -0.3081 -0.7378  0.9142
 1183TIP3   OH225107   2.318   5.284   0.660  0.1065  0.3274 -0.5251
 1183TIP3    H125108   2.266   5.206   0.638  0.3837  0.6147 -2.3495
 1183TIP3    H225109   2.258   5.357   0.645 -0.1950  0.4890  1.3120
 1184TIP3   OH225110   0.336   3.116   2.135 -0.1854  0.0606 -0.0479
 1184TIP3    H125111   0.356   3.091   2.045  0.3226  2.2839 -0.6123
 1184TIP3    H225112   0.400   3.069   2.188 -0.5022 -1.2905 -0.7962
 1185TIP3   OH225113   0.164   6.043   0.375  0.2772  0.2860  0.0293
 1185TIP3    H125114   0.145   6.009   0.288 -0.2707 -1.5190  0.8044
 1185TIP3    H225115   0.120   6.128   0.378  0.6271  0.5490 -1.5671
 1186TIP3   OH225116   4.445   1.199   4.343 -0.2502 -0.4455  0.0317
 1186TIP3    H125117   4.371   1.181   4.400 -0.7723  2.6577  0.4883
 1186TIP3    H225118   4.519   1.155   4.385 -0.4883  2.0694  3.5363
 1187TIP3   OH225119   6.551   1.754   3.920 -0.3230  0.5891  0.3653
 1187TIP3    H125120   6.574   1.680   3.864 -0.3107  0.3677  0.6577
 1187TIP3    H225121   6.614   1.822   3.896  0.4029  0.1207  0.8747
 1188TIP3   OH225122   0.288   0.804   2.475 -0.2897 -0.1910  0.0117
 1188TIP3    H125123   0.239   0.838   2.550  0.4405 -0.3757  0.5841
 1188TIP3    H225124   0.367   0.765   2.513 -0.9380 -2.2780 -0.6239
 1189TIP3   OH225125   6.826   6.139   3.027  0.0430 -0.2256 -0.7255
 1189TIP3    H125126   6.911   6.180   3.013 -0.6499  1.4340 -0.3465
 1189TIP3    H225127   6.821   6.125   3.122 -0.6597  1.0383 -0.5511
 1190TIP3   OH225128   0.061   3.779   3.520 -0.3469  0.3811 -0.6758
 1190TIP3    H125129   0.021   3.781   3.433  1.5268  0.5864 -1.5729
 1190TIP3    H225130   0.099   3.866   3.532 -0.0527  0.1584  0.0985
 1191TIP3   OH225131   6.477   4.569   2.925 -0.0288  0.1093  0.6425
 1191TIP3    H125132   6.541   4.621   2.974 -0.0713  0.6379  0.1429
 1191TIP3    H225133   6.437   4.631   2.864  0.4278 -0.6686 -0.4698
 1192TIP3   OH225134   5.086   3.444   0.479  0.1571 -0.5106  0.4603
 1192TIP3    H125135   5.144   3.371   0.500 -1.7549 -1.6602  2.1589
 1192TIP3    H225136   5.142   3.521   0.480  1.8878 -1.7135  0.6075
 1193TIP3   OH225137   0.443   6.725   3.442  0.7415 -0.5103  0.4003
 1193TIP3    H125138   0.499   6.705   3.367  1.6635 -1.9192  1.4201
 1193TIP3    H225139   0.485   6.799   3.484  0.8038 -0.3938  0.1389
 1194TIP3   OH225140   0.284   2.800   3.710  0.5235 -0.3368 -0.8286
 1194TIP3    H125141   0.269   2.821   3.618 -0.3134 -0.2150 -0.6763
 1194TIP3    H225142   0.235   2.867   3.758  0.0031 -1.0668 -0.3141
 1195TIP3   OH225143   5.915   0.574   1.243  0.3024  0.1829 -0.0034
 1195TIP3    H125144   5.955   0.577   1.156 -0.0846  0.1038 -0.1874
 1195TIP3    H225145   5.886   0.483   1.253 -1.6124  0.6811 -0.6973
 1196TIP3   OH225146   6.218   1.797   2.910  0.5574  0.2348 -0.1570
 1196TIP3    H125147   6.139   1.780   2.858  0.2420 -0.2992  0.4819
 1196TIP3    H225148   6.190   1.784   3.001  1.4842 -0.4125  0.0550
 1197TIP3   OH225149   1.070   1.202   0.700 -0.0368  0.3339 -0.3405
 1197TIP3    H125150   0.995   1.221   0.755  0.0924 -1.9905  0.7836
 1197TIP3    H225151   1.114   1.286   0.688  0.3269  0.9258  3.7774
 1198TIP3   OH225152   0.959   3.996   3.416 -0.8532  0.0914  0.6659
 1198TIP3    H125153   1.028   3.931   3.406  0.6341  1.3044  2.4423
 1198TIP3    H225154   0.949   4.007   3.511 -1.6742  1.7964  0.4284
 1199TIP3   OH225155   1.941   2.176   2.052 -0.3969 -0.2776 -0.1611
 1199TIP3    H125156   2.029   2.212   2.061 -0.0737 -1.2659  0.7931
 1199TIP3    H225157   1.914   2.200   1.963  0.6414  0.4329 -0.2974
 1200TIP3   OH225158   0.085   1.659   2.507 -0.0146  0.1586 -0.1371
 1200TIP3    H125159   0.060   1.751   2.505  0.5637  0.3254 -0.0431
 1200TIP3    H225160   0.131   1.648   2.591  0.7787  0.0290 -0.5771
 1201TIP3   OH225161   6.325   0.071   3.781  0.0469  0.5754 -0.0470
 1201TIP3    H125162   6.325   0.133   3.853 -1.0758  0.9290 -0.3385
 1201TIP3    H225163   6.354  -0.012   3.820  1.9318  1.3370  0.2606
 1202TIP3   OH225164   5.369   4.155   2.577 -0.3801  0.1678 -0.1777
 1202TIP3    H125165   5.418   4.175   2.657 -0.2028 -0.5551 -0.1025
 1202TIP3    H225166   5.279   4.140   2.607 -0.8536  2.2804 -0.4066
 1203TIP3   OH225167   3.153   4.605   4.774  0.4016  0.0887  0.6460
 1203TIP3    H125168   3.132   4.627   4.864 -0.6210 -1.0610  0.7163
 1203TIP3    H225169   3.100   4.665   4.721 -1.8943 -1.6269  0.8344
 1204TIP3   OH225170   4.267   1.523   4.084 -0.8560 -0.1958  0.1542
 1204TIP3    H125171   4.306   1.436   4.096  2.1031  1.0345  0.3787
 1204TIP3    H225172   4.173   1.506   4.077 -0.3899 -3.4171 -0.0564
 1205TIP3   OH225173   4.923   6.854   1.348 -0.5163 -0.5052  0.2213
 1205TIP3    H125174   4.862   6.919   1.315 -0.0425 -0.3182 -0.2936
 1205TIP3    H225175   4.931   6.790   1.278 -0.6188 -0.8725  0.5404
 1206TIP3   OH225176   1.954   1.549   8.486  0.8100 -1.0879 -0.5672
 1206TIP3    H125177   2.022   1.606   8.522 -1.3424  0.8421  0.6643
 1206TIP3    H225178   1.873   1.600   8.492 -0.9498 -3.6019 -1.1087
 1207TIP3   OH225179   2.882   0.174   3.639 -0.4794  0.0081 -0.1126
 1207TIP3    H125180   2.827   0.252   3.645 -2.4334 -1.1599 -1.3479
 1207TIP3    H225181   2.913   0.174   3.549  1.2923  0.4315  0.4641
 1208TIP3   OH225182   3.951   2.864   0.703 -0.4057 -0.3179  0.1362
 1208TIP3    H125183   3.999   2.800   0.650  0.7182  0.1756  0.5176
 1208TIP3    H225184   3.956   2.945   0.652  0.7120  0.1685  0.9738
 1209TIP3   OH225185   1.825   1.376   1.509 -0.0041 -0.1017  0.7528
 1209TIP3    H125186   1.908   1.424   1.505 -0.5352  0.7950  0.1317
 1209TIP3    H225187   1.787   1.385   1.422 -0.5240 -0.9377  0.8793
 1210TIP3   OH225188   2.008   5.297   2.855 -0.0118  0.7854  0.8588
 1210TIP3    H125189   2.015   5.346   2.937  2.2483  1.4265  0.3591
 1210TIP3    H225190   1.987   5.208   2.882  2.8155  0.4608  2.4057
 1211TIP3   OH225191   6.444   1.066   1.054  0.2152 -0.3112  0.1968
 1211TIP3    H125192   6.533   1.047   1.084  0.3887  0.6437  0.3262
 1211TIP3    H225193   6.442   1.036   0.963  1.7351  2.5567 -0.9080
 1212TIP3   OH225194   4.533   3.565   4.559 -0.5343 -0.0705 -0.0304
 1212TIP3    H125195   4.601   3.525   4.504 -0.1256  1.2586 -0.5201
 1212TIP3    H225196   4.582   3.609   4.629 -0.9768 -0.3813  0.4792
 1213TIP3   OH225197   0.323   0.518   1.727 -0.7296  0.2288  0.5464
 1213TIP3    H125198   0.390   0.477   1.782 -0.0291  0.4792 -0.1110
 1213TIP3    H225199   0.332   0.612   1.746  0.2810  0.4342 -0.8043
 1214TIP3   OH225200   5.869   3.934   1.056  0.0654  0.2625  0.2887
 1214TIP3    H125201   5.910   3.878   0.990  0.0042 -0.4333  0.8280
 1214TIP3    H225202   5.874   3.883   1.137  2.5725  2.1820  1.4652
 1215TIP3   OH225203   6.863   0.236   2.678  0.3695 -0.0429 -0.6697
 1215TIP3    H125204   6.910   0.258   2.598 -0.3372 -0.1482 -1.1158
 1215TIP3    H225205   6.930   0.194   2.733  1.0724  0.8126 -0.8430
 1216TIP3   OH225206   0.605   2.542   2.264  0.1824  0.1584  0.2354
 1216TIP3    H125207   0.668   2.535   2.192  0.0694  0.1638  0.1343
 1216TIP3    H225208   0.657   2.529   2.343  0.6683  2.0661  0.2781
 1217TIP3   OH225209   3.490   2.512   0.447  0.9024 -0.0722 -0.2635
 1217TIP3    H125210   3.472   2.510   0.353 -1.7433 -0.0740  0.1451
 1217TIP3    H225211   3.428   2.449   0.484  0.5681  1.2780  1.6326
 1218TIP3   OH225212   0.824   4.355   0.185 -0.3356  0.4007 -0.2561
 1218TIP3    H125213   0.746   4.388   0.228 -0.0619 -0.1359  0.6829
 1218TIP3    H225214   0.854   4.428   0.130 -1.1182  0.8313 -0.1231
 1219TIP3   OH225215   0.597   4.815   2.244 -0.3342  0.1707 -0.0387
 1219TIP3    H125216   0.663   4.838   2.178 -1.0604  2.9426  0.0448
 1219TIP3    H225217   0.647   4.793   2.322  0.5131 -2.0602 -1.1251
 1220TIP3   OH225218   5.554   0.525   0.548  0.5002 -0.0745  0.0973
 1220TIP3    H125219   5.586   0.615   0.557 -0.8814  0.6169 -1.3210
 1220TIP3    H225220   5.508   0.525   0.464 -0.2192 -1.9065  0.4492
 1221TIP3   OH225221   1.154   6.600   8.359  0.9914 -0.5016  0.0234
 1221TIP3    H125222   1.203   6.567   8.435  0.4235 -3.5608 -0.8140
 1221TIP3    H225223   1.065   6.568   8.373 -0.2364  2.5936  0.1120
 1222TIP3   OH225224   1.123   4.516   2.147 -0.0317  0.1534  0.2752
 1222TIP3    H125225   1.160   4.452   2.207  1.6508 -0.6869 -1.5294
 1222TIP3    H225226   1.149   4.485   2.060  0.0621  2.7798 -0.7304
 1223TIP3   OH225227   2.300   6.578   0.590 -0.4834  0.4536 -0.1416
 1223TIP3    H125228   2.365   6.507   0.592  0.2823  1.1529  0.1869
 1223TIP3    H225229   2.285   6.594   0.497  0.7937  1.1448 -0.2602
 1224TIP3   OH225230   2.277   3.303   3.178 -0.1748  0.4763  0.2267
 1224TIP3    H125231   2.243   3.283   3.091  1.4416  0.2594 -0.4083
 1224TIP3    H225232   2.202   3.337   3.227 -1.0420  0.9424 -1.3590
 1225TIP3   OH225233   6.177   1.878   4.064 -0.5818 -0.1694 -0.1139
 1225TIP3    H125234   6.222   1.848   3.985 -0.0845 -0.2899  0.2112
 1225TIP3    H225235   6.128   1.955   4.036 -0.3894 -0.1983 -0.5338
 1226TIP3   OH225236   6.600   2.097   1.981  0.1408 -0.4723  0.2585
 1226TIP3    H125237   6.650   2.122   1.903  1.3373 -1.5641  0.6430
 1226TIP3    H225238   6.545   2.024   1.951  1.1268 -1.3754  0.5671
 1227TIP3   OH225239   2.520   0.275   4.027  0.4404  0.5673 -0.3484
 1227TIP3    H125240   2.548   0.185   4.043 -0.7636  0.2780  0.2772
 1227TIP3    H225241   2.498   0.308   4.114 -0.9215  0.8339 -0.7778
 1228TIP3   OH225242   2.749   0.012   3.404  0.2390  0.4752  0.1997
 1228TIP3    H125243   2.701  -0.036   3.472 -1.1516 -1.1589 -1.7989
 1228TIP3    H225244   2.686   0.076   3.371 -0.4273 -1.1701 -1.9311
 1229TIP3   OH225245   5.721   5.163   3.212 -0.1977  0.2580  0.4476
 1229TIP3    H125246   5.773   5.195   3.139  0.9374 -1.2223  0.5320
 1229TIP3    H225247   5.734   5.068   3.210 -1.2847  0.0511  1.7147
 1230TIP3   OH225248   6.113   4.648   2.515  0.4189 -0.4708 -0.0639
 1230TIP3    H125249   6.173   4.684   2.581 -0.1965 -0.3153  0.4151
 1230TIP3    H225250   6.026   4.661   2.552  0.0092  0.3018 -1.2269
 1231TIP3   OH225251   5.863   4.013   3.119 -0.1429 -0.3656 -0.6366
 1231TIP3    H125252   5.914   4.072   3.064  0.6700 -0.3366  0.1290
 1231TIP3    H225253   5.873   3.927   3.078 -0.6307 -0.1201 -1.2745
 1232TIP3   OH225254   6.617   3.521   2.768 -0.1606 -0.3644  0.1012
 1232TIP3    H125255   6.669   3.601   2.761  0.0252 -0.4787  0.1885
 1232TIP3    H225256   6.539   3.547   2.817  0.5558 -0.5600  1.3653
 1233TIP3   OH225257   5.242   2.942   4.140 -0.0294 -0.0171  0.0315
 1233TIP3    H125258   5.222   2.891   4.062  0.3496  1.2246 -0.9097
 1233TIP3    H225259   5.230   3.033   4.113  1.9302  0.5461  0.8371
 1234TIP3   OH225260   3.568   0.111   0.578 -0.1090 -0.9405  0.1741
 1234TIP3    H125261   3.638   0.092   0.640  0.9569  0.3203 -0.5955
 1234TIP3    H225262   3.575   0.044   0.511  1.8456  0.4129 -1.0715
 1235TIP3   OH225263   0.532   3.912   2.955 -0.0100 -0.1133 -0.0760
 1235TIP3    H125264   0.439   3.927   2.975 -0.0657  0.0367 -0.4289
 1235TIP3    H225265   0.539   3.817   2.947 -0.2528 -0.0940 -0.5830
 1236TIP3   OH225266   5.742   4.076   2.713  0.5053 -0.7309 -0.0148
 1236TIP3    H125267   5.768   3.989   2.744 -0.6075 -1.2806 -0.5581
 1236TIP3    H225268   5.734   4.066   2.618 -2.1125 -0.7872  0.1274
 1237TIP3   OH225269   0.723   3.085   4.896 -0.2344  0.3172  0.0753
 1237TIP3    H125270   0.680   3.002   4.875  0.5726 -0.3167  0.8598
 1237TIP3    H225271   0.812   3.061   4.921  0.3702  1.5362 -0.7769
 1238TIP3   OH225272   6.639   0.053   3.801  0.3534  0.0941  0.0948
 1238TIP3    H125273   6.663   0.057   3.894  0.5474  2.2808 -0.0088
 1238TIP3    H225274   6.544   0.064   3.800  0.3108 -0.2564  0.0330
 1239TIP3   OH225275   2.726   5.988   4.481 -0.0429  0.5281  0.9480
 1239TIP3    H125276   2.712   5.964   4.390 -2.1581 -0.3829  1.4564
 1239TIP3    H225277   2.682   6.073   4.491  2.3609  1.9248  0.5847
 1240TIP3   OH225278   6.343   6.743   3.939  0.1619  0.4052  0.2062
 1240TIP3    H125279   6.307   6.658   3.964 -0.4104 -0.0087 -1.8390
 1240TIP3    H225280   6.344   6.793   4.020  0.3594 -1.4809  1.4277
 1241TIP3   OH225281   1.339   1.349   2.433 -0.1109 -0.3861 -0.0146
 1241TIP3    H125282   1.298   1.285   2.375 -0.8082 -1.1984  1.3380
 1241TIP3    H225283   1.417   1.306   2.465  0.8707  0.4744 -1.1515
 1242TIP3   OH225284   0.331   5.973   1.117 -0.6301  0.0814 -0.1093
 1242TIP3    H125285   0.426   5.968   1.125 -0.5753  2.0430  1.2915
 1242TIP3    H225286   0.298   5.903   1.173 -0.0105 -0.0886  0.0417
 1243TIP3   OH225287   4.173   1.080   4.139  0.2379  0.1888 -0.4277
 1243TIP3    H125288   4.245   1.022   4.165  0.8644  1.5067  0.9552
 1243TIP3    H225289   4.102   1.021   4.114  1.3825 -1.1443 -0.6359
 1244TIP3   OH225290   6.845   0.538   0.533  0.4875  0.8589 -0.6776
 1244TIP3    H125291   6.906   0.516   0.603  0.7365  1.7224 -0.6147
 1244TIP3    H225292   6.794   0.611   0.566 -0.3920  0.3396 -0.8486
 1245TIP3   OH225293   3.241   2.976   4.821 -0.4101  0.2180 -0.5371
 1245TIP3    H125294   3.170   3.038   4.805 -0.6545 -0.4202 -2.1297
 1245TIP3    H225295   3.238   2.917   4.745  1.1474 -0.4620 -0.0953
 1246TIP3   OH225296   2.045   2.531   2.785 -0.2378 -0.2705  0.2792
 1246TIP3    H125297   2.017   2.470   2.853 -1.0284 -0.2913 -0.0504
 1246TIP3    H225298   2.140   2.532   2.790 -0.1932 -1.8049  0.0531
 1247TIP3   OH225299   4.020   2.402   4.355  0.4733 -0.3014  0.5126
 1247TIP3    H125300   4.016   2.452   4.273 -0.1146 -1.4877 -0.2147
 1247TIP3    H225301   4.035   2.468   4.423  1.2013  0.6847 -0.5727
 1248TIP3   OH225302   0.148   2.635   1.921  0.1518  0.2257  0.1753
 1248TIP3    H125303   0.216   2.701   1.904  0.0743  0.1088 -0.6074
 1248TIP3    H225304   0.196   2.559   1.953  0.2929  0.4612  0.5407
 1249TIP3   OH225305   5.755   3.060   2.322 -0.2065  0.2896 -0.3529
 1249TIP3    H125306   5.752   3.120   2.248 -0.0842 -0.7886 -1.2622
 1249TIP3    H225307   5.665   3.030   2.333 -0.0284 -0.4752 -0.8715
 1250TIP3   OH225308   4.865   2.666   2.537  0.1956 -0.3057  0.0463
 1250TIP3    H125309   4.815   2.654   2.456 -1.6412 -1.6911  1.3034
 1250TIP3    H225310   4.799   2.661   2.607  1.8989 -0.5560  1.7051
 1251TIP3   OH225311   4.925   5.869   1.821  0.0190 -0.6771  0.2012
 1251TIP3    H125312   4.949   5.959   1.845  1.5384 -0.4442 -1.9122
 1251TIP3    H225313   4.835   5.876   1.788 -0.3175 -0.1981  1.1526
 1252TIP3   OH225314   2.605   4.787   4.058 -0.2933 -0.4141 -0.0834
 1252TIP3    H125315   2.620   4.850   4.128  0.5780 -0.5678 -0.1217
 1252TIP3    H225316   2.685   4.735   4.055  0.1558  0.3038 -1.9375
 1253TIP3   OH225317   2.787   6.851   3.690  0.4352 -0.2075 -0.4468
 1253TIP3    H125318   2.830   6.805   3.617 -0.2111  0.5467 -1.3257
 1253TIP3    H225319   2.829   6.937   3.691 -0.9002  0.4857 -1.2194
 1254TIP3   OH225320   3.288   5.086   2.895 -0.7976 -0.2074 -0.0536
 1254TIP3    H125321   3.345   5.041   2.957 -1.3866 -0.0892  0.5934
 1254TIP3    H225322   3.299   5.179   2.915 -2.8831 -0.2519  1.6448
 1255TIP3   OH225323   2.061   4.713   1.876 -0.4925  0.5035 -0.0894
 1255TIP3    H125324   2.152   4.743   1.878 -0.4824  0.7024 -1.8990
 1255TIP3    H225325   2.067   4.620   1.851 -0.7727  0.5149 -0.2044
 1256TIP3   OH225326   6.234   0.689   4.023 -0.1684 -0.0761  0.1011
 1256TIP3    H125327   6.253   0.621   4.088 -0.7927  0.5972  1.0169
 1256TIP3    H225328   6.193   0.759   4.073  0.1641  0.8465 -0.8807
 1257TIP3   OH225329   4.079   1.235   1.542 -0.1643  0.1826 -0.3132
 1257TIP3    H125330   4.046   1.319   1.512 -2.2499 -0.7121 -0.6538
 1257TIP3    H225331   4.106   1.190   1.462  1.2454  0.5804 -0.1076
 1258TIP3   OH225332   5.727   6.882   1.763 -0.0877 -0.1229 -0.1819
 1258TIP3    H125333   5.733   6.786   1.763  0.1681 -0.1133  0.3089
 1258TIP3    H225334   5.811   6.911   1.799 -0.4008  0.2669  0.2482
 1259TIP3   OH225335   0.662   0.604   3.875 -0.2361 -0.0469  0.8384
 1259TIP3    H125336   0.720   0.658   3.929 -1.4466  1.4247  0.7394
 1259TIP3    H225337   0.596   0.571   3.936  0.3950 -1.3301  0.8648
 1260TIP3   OH225338   1.906   4.101   0.371  0.3243 -0.0042  0.6066
 1260TIP3    H125339   1.958   4.138   0.299 -1.4499  0.3371 -0.5636
 1260TIP3    H225340   1.963   4.109   0.448  2.2435 -0.2794 -0.7093
 1261TIP3   OH225341   4.057   4.706   3.254 -0.1237 -0.2894 -0.0381
 1261TIP3    H125342   4.052   4.706   3.158  1.6273  1.3866 -0.1965
 1261TIP3    H225343   3.981   4.656   3.282 -2.1760  1.3365 -2.2574
 1262TIP3   OH225344   4.139   0.490   1.195 -0.3323  0.4111 -0.0335
 1262TIP3    H125345   4.161   0.435   1.120 -0.3777 -0.1127  0.3292
 1262TIP3    H225346   4.180   0.447   1.270 -1.9583 -0.2093  0.5529
 1263TIP3   OH225347   6.326   0.562   2.007 -0.0298 -0.0830 -0.7072
 1263TIP3    H125348   6.252   0.541   2.065 -0.2599  2.7979  0.2339
 1263TIP3    H225349   6.285   0.582   1.923 -0.3799  1.2059 -0.2695
 1264TIP3   OH225350   3.422   5.902   0.479  0.0359 -0.3185  0.1187
 1264TIP3    H125351   3.466   5.890   0.395  1.3315  0.9704  0.5729
 1264TIP3    H225352   3.329   5.905   0.458  0.2976 -0.6760 -1.1712
 1265TIP3   OH225353   4.409   6.533   3.816  0.2683  0.4354 -0.4537
 1265TIP3    H125354   4.442   6.589   3.886  1.8684  0.9248 -1.5301
 1265TIP3    H225355   4.373   6.457   3.861  0.6835  1.0255  0.9220
 1266TIP3   OH225356   5.512   3.749   1.064  0.1663  0.4297 -0.3277
 1266TIP3    H125357   5.590   3.700   1.091  0.8681  1.6840  0.0067
 1266TIP3    H225358   5.518   3.754   0.969  0.2002  0.0690 -0.3472
 1267TIP3   OH225359   5.093   2.022   2.270 -0.1486  0.4979 -0.0648
 1267TIP3    H125360   5.148   1.950   2.303 -2.8785 -1.1592  1.1639
 1267TIP3    H225361   5.149   2.099   2.280  2.5072 -1.2225 -0.3450
 1268TIP3   OH225362   0.365   3.905   4.571 -0.0595  0.0792  0.3320
 1268TIP3    H125363   0.440   3.962   4.584 -1.0429  1.4671  0.1672
 1268TIP3    H225364   0.323   3.936   4.491 -0.0388 -1.5910 -0.3836
 1269TIP3   OH225365   0.560   4.613   0.667  0.4678 -0.1596  0.1175
 1269TIP3    H125366   0.516   4.588   0.585  0.7839 -0.0047 -0.0997
 1269TIP3    H225367   0.501   4.676   0.707  0.0041 -0.7063  0.3214
 1270TIP3   OH225368   5.440   4.591   3.871  0.1583  0.0093 -0.7602
 1270TIP3    H125369   5.490   4.528   3.820  1.4257  2.2723 -2.5278
 1270TIP3    H225370   5.393   4.643   3.806 -1.7466  0.2200  0.6878
 1271TIP3   OH225371   5.666   5.323   2.057  0.3740  0.3691 -0.1746
 1271TIP3    H125372   5.610   5.249   2.081  0.2656  1.0027  1.7276
 1271TIP3    H225373   5.682   5.312   1.964  0.4317 -2.0978  0.0530
 1272TIP3   OH225374   5.753   2.748   2.518  0.0492 -0.3994 -0.0835
 1272TIP3    H125375   5.696   2.805   2.467 -0.3244 -1.2319 -0.6142
 1272TIP3    H225376   5.721   2.755   2.608  0.3167  0.5963 -0.0600
 1273TIP3   OH225377   2.613   4.204   1.932  0.3504 -0.4290  0.7877
 1273TIP3    H125378   2.691   4.152   1.951  0.9888  0.6088  1.1156
 1273TIP3    H225379   2.579   4.168   1.851  2.1435  0.1644 -0.2867
 1274TIP3   OH225380   6.198   1.698   4.714 -0.3555 -0.4264 -0.3228
 1274TIP3    H125381   6.274   1.646   4.688  0.0458 -0.5441  1.0201
 1274TIP3    H225382   6.235   1.779   4.749 -0.9197  0.1114 -0.9332
 1275TIP3   OH225383   1.349   2.680   3.897 -0.3191  0.5957 -0.1651
 1275TIP3    H125384   1.365   2.689   3.991 -0.3981  1.6455 -0.2357
 1275TIP3    H225385   1.290   2.605   3.889 -0.0272  0.2780  0.5862
 1276TIP3   OH225386   6.633   2.837   4.244  0.3154 -0.2378  0.2154
 1276TIP3    H125387   6.546   2.867   4.270  0.6945  0.5918  0.5366
 1276TIP3    H225388   6.646   2.756   4.294 -0.3341 -0.4582  0.0368
 1277TIP3   OH225389   3.499   4.991   3.095  0.0833 -0.0998  0.3404
 1277TIP3    H125390   3.435   4.994   3.166 -0.4294 -0.8801 -0.0710
 1277TIP3    H225391   3.580   4.964   3.137 -0.5125 -1.8688  0.4740
 1278TIP3   OH225392   3.880   1.089   0.758  0.3102  0.2819  0.2106
 1278TIP3    H125393   3.971   1.090   0.789  0.4783 -0.3949 -0.2208
 1278TIP3    H225394   3.847   1.002   0.783  0.8742 -0.8549 -2.5503
 1279TIP3   OH225395   3.216   2.812   1.827  0.3015 -0.3619 -0.4835
 1279TIP3    H125396   3.189   2.807   1.919  1.5809 -1.3014 -0.1317
 1279TIP3    H225397   3.204   2.722   1.795  0.2026 -0.1165 -1.1360
 1280TIP3   OH225398   3.593   5.718   3.756 -0.2713 -0.2986  0.4262
 1280TIP3    H125399   3.581   5.624   3.767 -0.4526 -0.5077 -1.2693
 1280TIP3    H225400   3.687   5.733   3.769  0.0348 -0.9802 -0.8540
 1281TIP3   OH225401   2.346   2.883   0.790  0.2050 -0.8805 -0.4140
 1281TIP3    H125402   2.430   2.877   0.743  1.1164 -0.9655  1.1467
 1281TIP3    H225403   2.357   2.960   0.846 -1.1268 -0.3666 -0.8227
 1282TIP3   OH225404   5.159   5.964   3.144  0.2155  0.4943 -0.2248
 1282TIP3    H125405   5.149   6.020   3.067 -0.2843 -0.9141 -1.2352
 1282TIP3    H225406   5.069   5.949   3.174  0.3816  0.6835  0.3603
 1283TIP3   OH225407   6.013   0.526   1.999  0.7718  0.1191  0.5598
 1283TIP3    H125408   5.974   0.441   2.016 -0.2794  0.0233 -1.9559
 1283TIP3    H225409   6.048   0.520   1.910 -0.3696  2.6154 -0.1807
 1284TIP3   OH225410   6.654   0.548   2.893 -0.2577 -0.2874  0.0899
 1284TIP3    H125411   6.700   0.557   2.809 -1.4165 -1.3058 -0.6908
 1284TIP3    H225412   6.664   0.634   2.935  0.6454  0.1291 -0.9163
 1285TIP3   OH225413   0.693   5.551   0.735 -0.6617 -0.1741  0.5138
 1285TIP3    H125414   0.611   5.581   0.695 -0.2944 -1.0332 -0.9703
 1285TIP3    H225415   0.721   5.478   0.679  0.9251 -0.1320  1.2149
 1286TIP3   OH225416   3.485   3.037   1.519  0.4796 -0.1974  0.2715
 1286TIP3    H125417   3.509   3.012   1.608 -0.0737  0.3078  0.5698
 1286TIP3    H225418   3.525   2.971   1.464  0.2575 -0.8980  0.9381
 1287TIP3   OH225419   6.102   5.177   0.305  0.3130  0.0837 -0.2334
 1287TIP3    H125420   6.120   5.208   0.393 -0.5875 -1.4733  0.5467
 1287TIP3    H225421   6.183   5.191   0.257  0.4594  2.0069  0.4971
 1288TIP3   OH225422   0.489   6.117   3.887  0.0913  0.2200  0.0905
 1288TIP3    H125423   0.527   6.172   3.819 -0.7542  0.5229 -0.1471
 1288TIP3    H225424   0.464   6.179   3.956  1.8632 -0.1770  1.1457
 1289TIP3   OH225425   0.842   0.617   4.520  0.6519 -0.1872 -0.1935
 1289TIP3    H125426   0.905   0.544   4.518  0.2257 -0.6475  1.2974
 1289TIP3    H225427   0.895   0.695   4.533  1.0531 -0.3377 -0.9191
 1290TIP3   OH225428   3.754   1.151   1.867 -0.2891 -0.4913  0.1971
 1290TIP3    H125429   3.738   1.087   1.797  1.1281 -0.6086 -0.0474
 1290TIP3    H225430   3.819   1.211   1.830  0.4068 -0.4936  1.3690
 1291TIP3   OH225431   4.299   5.997   1.320 -0.4185  0.0749  0.5442
 1291TIP3    H125432   4.236   5.944   1.272 -2.3825  1.6338  1.2106
 1291TIP3    H225433   4.252   6.079   1.338  1.4982  0.9574  1.9175
 1292TIP3   OH225434   4.622   0.256   1.964 -0.2099 -0.1508  0.2263
 1292TIP3    H125435   4.713   0.228   1.966  0.3520  1.3495 -1.4461
 1292TIP3    H225436   4.610   0.293   1.877 -2.6232 -0.8836  0.1740
 1293TIP3   OH225437   4.483   4.037   1.076  0.2929  0.1139  0.3621
 1293TIP3    H125438   4.539   4.002   1.007  0.7580  0.2619  0.6615
 1293TIP3    H225439   4.504   3.986   1.154  0.2565  0.3937  0.5591
 1294TIP3   OH225440   3.256   1.152   0.754  0.2049 -0.3698  0.3509
 1294TIP3    H125441   3.312   1.074   0.765 -1.5207 -1.9106 -1.1351
 1294TIP3    H225442   3.308   1.211   0.699  0.4567 -1.7553 -0.9747
 1295TIP3   OH225443   4.131   5.498   3.892  0.4949 -0.3726  0.6876
 1295TIP3    H125444   4.192   5.449   3.946  0.8049 -0.7437  0.0056
 1295TIP3    H225445   4.166   5.587   3.891  0.4415 -0.3423  1.1561
 1296TIP3   OH225446   0.432   3.713   3.379 -0.1098  0.2885 -0.0956
 1296TIP3    H125447   0.525   3.709   3.357  0.0953  0.5155  0.6879
 1296TIP3    H225448   0.399   3.626   3.358  0.4899 -0.0908  0.4807
 1297TIP3   OH225449   1.963   0.723   2.207  0.3026  0.1548 -0.2626
 1297TIP3    H125450   1.874   0.733   2.173  1.1896  0.2229 -2.8250
 1297TIP3    H225451   1.993   0.640   2.171  1.4448  0.3694  0.1490
 1298TIP3   OH225452   0.277   4.751   4.178  0.2382 -0.4505 -0.6764
 1298TIP3    H125453   0.283   4.657   4.167 -0.2112 -0.2971 -2.5455
 1298TIP3    H225454   0.183   4.769   4.184  0.3522 -0.1897  0.6075
 1299TIP3   OH225455   1.445   0.001   0.922  0.2571  0.5172  0.1105
 1299TIP3    H125456   1.513   0.038   0.867  0.4395 -0.0978 -0.0868
 1299TIP3    H225457   1.423  -0.083   0.881  2.5504 -1.4691  2.5608
 1300TIP3   OH225458   5.642   6.366   1.103  0.7014 -0.1763 -0.1518
 1300TIP3    H125459   5.727   6.339   1.136  0.7284  0.3376  0.2096
 1300TIP3    H225460   5.639   6.333   1.013  1.1769 -0.4109 -0.0819
 1301TIP3   OH225461   5.970   2.120   3.112  0.1960 -0.1288 -0.0515
 1301TIP3    H125462   6.027   2.176   3.060  0.3735  1.2169  1.4994
 1301TIP3    H225463   5.881   2.146   3.088  0.2642  1.5886  1.3494
 1302TIP3   OH225464   2.476   1.153   1.509 -0.2318  0.1687 -0.3295
 1302TIP3    H125465   2.381   1.150   1.519 -0.0916 -1.0542  1.0245
 1302TIP3    H225466   2.509   1.103   1.584  1.5187  1.4531 -0.2017
 1303TIP3   OH225467   2.692   0.410   1.922 -0.1843  0.1826  0.2060
 1303TIP3    H125468   2.636   0.446   1.991 -0.1793 -1.9449  1.4009
 1303TIP3    H225469   2.779   0.446   1.939 -0.4383  0.6390  0.5567
 1304TIP3   OH225470   1.537   4.901   3.023 -0.4185 -0.1893  0.2729
 1304TIP3    H125471   1.470   4.839   2.997 -3.0601  1.7854  1.8324
 1304TIP3    H225472   1.514   4.925   3.113  2.3113  0.7413  0.8117
 1305TIP3   OH225473   0.654   2.967   3.081 -0.4596  0.3781 -0.3468
 1305TIP3    H125474   0.646   3.059   3.058  0.6898  0.2010 -1.5727
 1305TIP3    H225475   0.735   2.961   3.133  0.2181 -0.1182 -1.4268
 1306TIP3   OH225476   1.415   2.666   4.173  0.3372  0.6894  0.2016
 1306TIP3    H125477   1.500   2.692   4.209  0.4376 -0.2076  0.6422
 1306TIP3    H225478   1.360   2.652   4.250 -0.0554  0.7355 -0.0657
 1307TIP3   OH225479   6.002   3.573   1.656  0.3127 -0.0300 -0.4882
 1307TIP3    H125480   5.922   3.623   1.638 -1.6018 -2.7791 -0.2940
 1307TIP3    H225481   6.027   3.537   1.572  0.4444 -0.4203 -0.2827
 1308TIP3   OH225482   6.516   6.582   2.527 -0.2932  0.1334 -0.3540
 1308TIP3    H125483   6.438   6.634   2.547  0.4804  0.8772  0.8678
 1308TIP3    H225484   6.583   6.646   2.506 -0.3526 -0.5387 -2.9939
 1309TIP3   OH225485   1.351   6.541   2.440  0.1929  0.0606 -0.3105
 1309TIP3    H125486   1.377   6.563   2.529 -1.9205  0.8883  0.1812
 1309TIP3    H225487   1.312   6.454   2.447  0.4195 -0.0602 -0.5220
 1310TIP3   OH225488   1.660   1.774   3.387  0.2577  0.1248  0.3844
 1310TIP3    H125489   1.671   1.683   3.360  0.2878  0.4401 -0.7081
 1310TIP3    H225490   1.741   1.817   3.358  0.5945  0.3581  1.5907
 1311TIP3   OH225491   1.928   1.206   3.171  0.2787  0.6210 -0.2286
 1311TIP3    H125492   1.983   1.282   3.191  1.9139 -0.3835 -0.6970
 1311TIP3    H225493   1.955   1.179   3.083 -0.1734 -0.5713 -0.0228
 1312TIP3   OH225494   4.346   1.703   3.237  0.3855  0.5187  0.1992
 1312TIP3    H125495   4.420   1.691   3.297  0.9729  0.0678 -0.6033
 1312TIP3    H225496   4.275   1.735   3.293  0.8500 -0.1179  1.1815
 1313TIP3   OH225497   4.329   4.958   0.502 -0.3256 -0.6682  0.0351
 1313TIP3    H125498   4.234   4.954   0.502 -0.3451 -0.2403  0.2901
 1313TIP3    H225499   4.355   4.912   0.422 -0.7834  0.0909 -0.5590
 1314TIP3   OH225500   1.775   3.572   3.925  0.1984  0.1471 -0.8209
 1314TIP3    H125501   1.808   3.510   3.860  0.2058  0.9162 -1.5615
 1314TIP3    H225502   1.731   3.640   3.874  1.0018  1.2523 -0.0862
 1315TIP3   OH225503   1.636   1.934   1.053 -0.0178 -0.0005  0.1495
 1315TIP3    H125504   1.685   2.003   1.008  1.6420 -1.5236 -0.4683
 1315TIP3    H225505   1.550   1.936   1.011  0.4668  0.7382 -0.8735
 1316TIP3   OH225506   6.769   1.853   0.308 -0.1632 -0.1846 -0.2334
 1316TIP3    H125507   6.676   1.832   0.307 -0.6566  1.4559  2.4984
 1316TIP3    H225508   6.812   1.771   0.332 -1.1390 -0.3798  0.9198
 1317TIP3   OH225509   0.149   1.047   2.724 -0.1434  0.2006  0.0885
 1317TIP3    H125510   0.159   1.131   2.678 -0.1429  1.2618  1.9269
 1317TIP3    H225511   0.230   1.038   2.774 -1.3756  0.6844  2.3041
 1318TIP3   OH225512   1.353   3.562   1.628  0.3057 -0.0923  0.4338
 1318TIP3    H125513   1.353   3.602   1.542  0.7109  0.0610  0.5037
 1318TIP3    H225514   1.267   3.519   1.635  0.5540 -0.7456 -0.3426
 1319TIP3   OH225515   1.473   5.462   0.533 -0.5052 -0.0806  0.7581
 1319TIP3    H125516   1.558   5.420   0.547 -0.1402 -0.6664 -2.4570
 1319TIP3    H225517   1.494   5.553   0.512 -0.6178 -0.2860 -0.2921
 1320TIP3   OH225518   0.536   1.525   1.907 -0.1333  0.1999  0.3084
 1320TIP3    H125519   0.480   1.450   1.891 -0.8069  0.6202  0.6406
 1320TIP3    H225520   0.595   1.497   1.977  0.6050 -0.5043 -0.5616
 1321TIP3   OH225521   4.738   1.673   3.171 -0.1433 -0.4037 -0.1276
 1321TIP3    H125522   4.766   1.582   3.168 -1.3040 -0.7562 -0.9124
 1321TIP3    H225523   4.673   1.677   3.242 -0.2325 -0.2366 -0.2160
 1322TIP3   OH225524   1.510   0.622   3.102 -0.0356 -0.5450  0.1448
 1322TIP3    H125525   1.440   0.646   3.041 -1.0668  0.3481  1.6376
 1322TIP3    H225526   1.554   0.705   3.121  1.0006 -0.9976 -0.2410
 1323TIP3   OH225527   4.410   2.163   2.158  0.6413 -0.0787  0.1516
 1323TIP3    H125528   4.364   2.184   2.077 -0.1366 -0.7056  0.4154
 1323TIP3    H225529   4.417   2.246   2.204 -0.9200 -0.0816  0.4510
 1324TIP3   OH225530   6.815   1.879   1.755 -0.2230  0.2612  0.1550
 1324TIP3    H125531   6.857   1.839   1.679 -2.2554  0.3549 -1.0801
 1324TIP3    H225532   6.866   1.958   1.772  0.8353 -0.2632 -0.4854
 1325TIP3   OH225533   3.221   1.203   2.701  0.6045 -0.6305  0.0818
 1325TIP3    H125534   3.132   1.179   2.675  1.1625 -1.1503 -1.4910
 1325TIP3    H225535   3.249   1.131   2.758  0.1885 -0.7107  0.1932
 1326TIP3   OH225536   1.606   3.719   1.235 -0.0516 -0.2902  0.2882
 1326TIP3    H125537   1.588   3.811   1.254  0.9587 -0.2155  1.0331
 1326TIP3    H225538   1.675   3.695   1.298 -0.3841 -1.5884  0.1902
 1327TIP3   OH225539   5.475   5.056   2.810 -0.1579  0.2668  0.3362
 1327TIP3    H125540   5.504   4.987   2.869 -0.2822  0.8645  1.1239
 1327TIP3    H225541   5.383   5.071   2.834 -0.2281  0.4652 -0.0544
 1328TIP3   OH225542   4.577   6.392   4.178  0.4355  0.3940  0.1179
 1328TIP3    H125543   4.631   6.459   4.136 -1.9070  0.4852 -3.1323
 1328TIP3    H225544   4.521   6.441   4.239  1.7267  0.6981  1.1130
 1329TIP3   OH225545   1.330   5.083   3.508  0.5845 -0.5876 -0.5839
 1329TIP3    H125546   1.395   5.085   3.578 -1.3489  0.9739  1.2808
 1329TIP3    H225547   1.278   5.162   3.521 -3.0224 -2.7462 -0.6486
 1330TIP3   OH225548   1.530   3.824   3.146  0.0783  0.3510 -0.2704
 1330TIP3    H125549   1.485   3.760   3.092  1.2991 -0.3501 -0.4909
 1330TIP3    H225550   1.551   3.777   3.226  1.2481  0.3713 -0.5545
 1331TIP3   OH225551   6.613   1.791   1.985  0.4813  0.1900 -0.0339
 1331TIP3    H125552   6.648   1.711   2.026  0.3604  0.1389 -0.0287
 1331TIP3    H225553   6.690   1.837   1.953  0.4742 -0.5726 -1.2227
 1332TIP3   OH225554   2.893   2.260   2.138  0.3775  0.5290 -0.2844
 1332TIP3    H125555   2.953   2.269   2.212  0.2766 -0.2217 -0.1097
 1332TIP3    H225556   2.888   2.348   2.100 -1.8276  1.6654  2.3155
 1333TIP3   OH225557   6.236   2.091   3.297 -0.2833 -0.0390  0.8882
 1333TIP3    H125558   6.221   2.172   3.249  0.2282 -0.0009  0.7875
 1333TIP3    H225559   6.312   2.051   3.254 -0.2108 -0.3125  1.2644
 1334TIP3   OH225560   5.003   0.817   2.172  0.1136 -0.0996  0.0405
 1334TIP3    H125561   4.925   0.833   2.225  1.2512  0.6486  1.5592
 1334TIP3    H225562   5.067   0.779   2.233  0.6417 -1.6802 -1.3928
 1335TIP3   OH225563   1.348   3.777   4.540  0.1983 -0.2224  0.2876
 1335TIP3    H125564   1.337   3.817   4.454 -0.7316  1.1662  1.0302
 1335TIP3    H225565   1.438   3.800   4.565  0.0274  0.5015  0.2503
 1336TIP3   OH225566   6.365   0.250   2.160  0.5517 -0.7742  0.4741
 1336TIP3    H125567   6.316   0.277   2.237  1.3293 -1.1499  1.1150
 1336TIP3    H225568   6.444   0.305   2.162  0.0323  0.0633 -0.7245
 1337TIP3   OH225569   1.691   6.202   8.121 -0.5469  0.2175 -0.9881
 1337TIP3    H125570   1.690   6.295   8.140 -0.4508  0.3721 -1.7099
 1337TIP3    H225571   1.741   6.163   8.193 -1.3827  0.5954 -0.1812
 1338TIP3   OH225572   3.380   6.607   1.186 -0.6482  0.4639 -0.1152
 1338TIP3    H125573   3.321   6.595   1.260  0.2171 -1.3123  0.3321
 1338TIP3    H225574   3.330   6.576   1.110 -0.6592 -0.1174  0.1202
 1339TIP3   OH225575   2.332   4.174   0.145 -0.2415 -0.4536 -0.0307
 1339TIP3    H125576   2.267   4.109   0.115 -0.5891 -0.3972  0.5832
 1339TIP3    H225577   2.321   4.177   0.240  0.1329  0.1285  0.0006
 1340TIP3   OH225578   5.828   3.179   2.577 -0.4186  0.0774  0.2683
 1340TIP3    H125579   5.745   3.226   2.581 -0.2674  0.6640 -1.9356
 1340TIP3    H225580   5.821   3.124   2.499  1.7391  1.2290 -0.8634
 1341TIP3   OH225581   2.541   1.667   2.495  0.2489 -0.7565  0.5436
 1341TIP3    H125582   2.630   1.660   2.531  0.6194  0.4430 -0.0857
 1341TIP3    H225583   2.484   1.653   2.570  0.9875 -0.4716  1.1731
 1342TIP3   OH225584   2.890   2.837   2.007  0.1420 -0.1085 -0.1139
 1342TIP3    H125585   2.960   2.902   2.000 -1.3710  1.5678 -0.7054
 1342TIP3    H225586   2.834   2.870   2.078 -0.5392 -0.8810 -0.2765
 1343TIP3   OH225587   3.059   2.495   2.118  0.1788  0.8595  0.0234
 1343TIP3    H125588   3.051   2.590   2.123  0.8301  1.0462 -1.6668
 1343TIP3    H225589   3.117   2.472   2.191 -2.0181  1.3916  2.0693
 1344TIP3   OH225590   0.544   0.748   0.691 -0.1480 -0.6535 -0.5343
 1344TIP3    H125591   0.475   0.794   0.644 -1.0338 -1.0964  0.3109
 1344TIP3    H225592   0.607   0.816   0.713 -0.3435 -0.2339 -1.2275
 1345TIP3   OH225593   1.494   3.282   2.609  0.2270  0.3162  0.9645
 1345TIP3    H125594   1.480   3.354   2.548 -0.6485 -1.3256 -0.8764
 1345TIP3    H225595   1.556   3.224   2.565 -0.6861 -1.0797  1.4441
 1346TIP3   OH225596   4.811   1.211   1.117  0.3481  0.2162  0.2788
 1346TIP3    H125597   4.736   1.160   1.147 -0.0503 -1.0174 -2.4818
 1346TIP3    H225598   4.776   1.298   1.100 -0.1530  0.0185  0.2850
 1347TIP3   OH225599   0.111   5.805   3.312  0.3258  0.2474 -0.0428
 1347TIP3    H125600   0.063   5.820   3.394 -1.8180 -0.3369 -1.0973
 1347TIP3    H225601   0.153   5.889   3.293  2.1162 -0.0012  2.3345
 1348TIP3   OH225602   1.580   5.843   2.408  0.1970  0.4887 -0.1413
 1348TIP3    H125603   1.660   5.809   2.368  0.3218 -0.2380  0.7005
 1348TIP3    H225604   1.603   5.857   2.499 -1.0601 -1.1942  0.4733
 1349TIP3   OH225605   1.156   1.518   3.651  0.1185 -0.1197 -0.4168
 1349TIP3    H125606   1.231   1.519   3.710 -0.0480  0.1258 -0.2072
 1349TIP3    H225607   1.158   1.603   3.607 -2.8260  2.1312  3.1733
 1350TIP3   OH225608   6.532   5.972   0.124  0.3663  0.4382  0.5664
 1350TIP3    H125609   6.504   5.896   0.176 -0.7530 -1.3683 -2.3551
 1350TIP3    H225610   6.596   5.936   0.062 -0.5698  1.7129 -1.2429
 1351TIP3   OH225611   4.190   6.515   1.227 -0.0696  0.1032 -0.3741
 1351TIP3    H125612   4.231   6.601   1.231 -0.8563  0.4900 -0.5175
 1351TIP3    H225613   4.145   6.505   1.311  1.7607 -1.0770  0.5258
 1352TIP3   OH225614   6.750   1.910   3.748  0.7149 -0.1452 -0.1728
 1352TIP3    H125615   6.733   1.962   3.827  1.0728 -1.9558  1.1645
 1352TIP3    H225616   6.841   1.930   3.726  1.0879 -0.7290  0.7727
 1353TIP3   OH225617   0.444   5.053   3.016 -0.2079 -0.8066  0.4616
 1353TIP3    H125618   0.415   5.005   3.094  1.2884 -0.1303  1.4809
 1353TIP3    H225619   0.532   5.020   2.999 -0.2691 -0.4691 -0.5458
 1354TIP3   OH225620   4.552   2.033   1.831 -0.3285 -0.3016  0.3281
 1354TIP3    H125621   4.471   2.080   1.813  0.0230 -0.8163 -3.4326
 1354TIP3    H225622   4.617   2.102   1.843 -0.7196  0.1629 -0.1383
 1355TIP3   OH225623   0.640   1.794   3.420 -0.1216  0.0265 -0.6234
 1355TIP3    H125624   0.573   1.860   3.434  0.7295  0.8918 -0.5267
 1355TIP3    H225625   0.665   1.766   3.508  1.3727  1.5093 -0.5363
 1356TIP3   OH225626   3.476   5.040   1.180 -0.0113 -0.6318  0.1912
 1356TIP3    H125627   3.455   4.961   1.228  1.4748 -0.5493  1.0314
 1356TIP3    H225628   3.503   5.103   1.248 -0.9106  0.5108 -0.4773
 1357TIP3   OH225629   3.267   4.136   1.571  0.1973  0.2373  0.8182
 1357TIP3    H125630   3.330   4.097   1.631 -1.6510  0.7845  3.2534
 1357TIP3    H225631   3.218   4.062   1.535  2.1866 -0.2060 -1.2206
 1358TIP3   OH225632   6.567   4.075   3.070  0.0834  0.3796  0.3269
 1358TIP3    H125633   6.631   4.141   3.094  0.2776  0.4039 -0.2368
 1358TIP3    H225634   6.610   4.022   3.002  0.2344 -0.8391  1.3388
 1359TIP3   OH225635   0.050   0.513   1.093 -0.0663  0.4033  0.0453
 1359TIP3    H125636  -0.040   0.492   1.067 -0.6405  0.7112  1.7010
 1359TIP3    H225637   0.043   0.592   1.146  1.2318  0.6353 -0.0878
 1360TIP3   OH225638   2.264   1.492   2.070 -0.1983  0.0039 -0.0894
 1360TIP3    H125639   2.260   1.489   2.166 -0.7959  0.3810 -0.0932
 1360TIP3    H225640   2.318   1.417   2.046  0.2528  0.1101  0.5602
 1361TIP3   OH225641   3.726   4.918   3.240 -0.2157  0.4939 -0.3141
 1361TIP3    H125642   3.785   4.982   3.280 -1.4128  0.3536  1.8102
 1361TIP3    H225643   3.722   4.846   3.303 -0.8451 -0.5740 -1.5197
 1362TIP3   OH225644   4.681   3.640   1.765  0.4332 -0.1968  0.1217
 1362TIP3    H125645   4.754   3.684   1.722  0.5489  0.2323  0.7530
 1362TIP3    H225646   4.610   3.705   1.766  0.9278  0.3690  1.9720
 1363TIP3   OH225647   5.891   6.104   0.802  0.7552 -0.3364  0.2096
 1363TIP3    H125648   5.803   6.134   0.824  1.3521  0.2049  2.0929
 1363TIP3    H225649   5.892   6.098   0.707 -1.1627  0.1016  0.1313
 1364TIP3   OH225650   1.661   3.194   4.176 -0.1073  0.0192 -0.0361
 1364TIP3    H125651   1.574   3.163   4.201 -0.4385  1.3766  0.6105
 1364TIP3    H225652   1.670   3.170   4.084 -0.4464 -1.6538  0.3284
 1365TIP3   OH225653   4.218   5.244   2.725 -0.8361  0.2890 -0.1104
 1365TIP3    H125654   4.241   5.273   2.637 -3.0656 -0.6158 -1.0735
 1365TIP3    H225655   4.149   5.304   2.752 -1.2755 -0.4151  0.3568
 1366TIP3   OH225656   0.435   0.506   4.643  0.3405 -0.0420  0.5469
 1366TIP3    H125657   0.379   0.581   4.660  2.5504  1.8262  0.0028
 1366TIP3    H225658   0.517   0.526   4.688  1.1829 -1.8751 -0.0648
 1367TIP3   OH225659   4.888   6.118   4.230 -0.2666  0.6246  0.2859
 1367TIP3    H125660   4.934   6.202   4.236  0.3403  0.2937  0.3233
 1367TIP3    H225661   4.856   6.116   4.140 -0.8194  1.1696  0.4653
 1368TIP3   OH225662   3.142   3.493   0.637 -0.3546  0.0172  0.2186
 1368TIP3    H125663   3.204   3.550   0.682  0.4567 -0.2896 -0.4714
 1368TIP3    H225664   3.074   3.552   0.605  0.3258  0.5664 -0.2348
 1369TIP3   OH225665   4.810   3.036   4.190 -0.2280 -0.0005  0.1749
 1369TIP3    H125666   4.769   3.117   4.161 -0.8134  0.1161  1.2745
 1369TIP3    H225667   4.869   3.063   4.261  0.5746 -0.3774 -0.3268
 1370TIP3   OH225668   5.607   3.963   3.713  0.1637  0.5596  0.2435
 1370TIP3    H125669   5.648   3.882   3.683 -0.0016  0.7805 -0.6107
 1370TIP3    H225670   5.543   3.936   3.777  0.3483  0.0438  0.2136
 1371TIP3   OH225671   5.108   5.333   0.599  0.1937 -0.1261 -0.1876
 1371TIP3    H125672   5.185   5.312   0.652 -0.6660 -0.3061  1.0314
 1371TIP3    H225673   5.034   5.300   0.650 -0.7194  0.2382 -1.2299
 1372TIP3   OH225674   4.721   3.359   1.841 -0.3266  0.7092 -0.2679
 1372TIP3    H125675   4.809   3.346   1.877 -0.5744 -0.9079 -0.1476
 1372TIP3    H225676   4.719   3.450   1.813  1.3965  0.7676 -0.2948
 1373TIP3   OH225677   6.696   5.911   2.906  0.2612  0.0086 -0.0375
 1373TIP3    H125678   6.739   5.840   2.953  0.9493  0.5309  0.1337
 1373TIP3    H225679   6.724   5.991   2.951 -1.2808  0.3400  0.3860
 1374TIP3   OH225680   3.357   5.696   2.954 -0.3850 -0.4438  0.0821
 1374TIP3    H125681   3.315   5.668   2.873 -0.1665 -1.3346  0.2620
 1374TIP3    H225682   3.288   5.744   3.001 -0.9101 -1.0337 -0.0637
 1375TIP3   OH225683   5.037   4.258   1.535 -0.0059 -0.3359 -0.2588
 1375TIP3    H125684   5.078   4.262   1.449 -0.4839  1.8213 -0.4463
 1375TIP3    H225685   5.093   4.314   1.590 -0.1089 -1.1109  0.6475
 1376TIP3   OH225686   6.085   6.704   1.133 -0.0935  0.0153  0.1957
 1376TIP3    H125687   6.175   6.678   1.117 -0.3381 -0.3163 -0.7418
 1376TIP3    H225688   6.075   6.703   1.228  1.0990  0.8053  0.3399
 1377TIP3   OH225689   2.029   1.328   1.205  0.8805  0.2430 -0.2304
 1377TIP3    H125690   1.940   1.360   1.219  0.4444  0.1748 -2.5155
 1377TIP3    H225691   2.083   1.407   1.202  0.8291  0.3196  0.5265
 1378TIP3   OH225692   1.532   1.650   1.470 -1.0730 -0.5735 -0.4948
 1378TIP3    H125693   1.578   1.723   1.511 -1.4278 -0.6139 -0.0063
 1378TIP3    H225694   1.553   1.657   1.377  2.3165 -2.3057 -0.0095
 1379TIP3   OH225695   2.986   2.816   8.477 -0.8254  0.3107  0.1890
 1379TIP3    H125696   3.041   2.845   8.404 -0.1640 -0.6753  0.2858
 1379TIP3    H225697   3.027   2.736   8.508 -0.6544  1.0835  2.1210
 1380TIP3   OH225698   5.019   4.773   1.081  0.3684 -0.0711  0.5143
 1380TIP3    H125699   5.092   4.817   1.124  1.0978  0.1040 -0.8426
 1380TIP3    H225700   5.060   4.716   1.016 -0.5715 -2.3916  1.8282
 1381TIP3   OH225701   0.256   3.074   5.011  0.6275  0.1795 -0.3232
 1381TIP3    H125702   0.186   3.021   5.049  1.2442 -1.0701 -0.8829
 1381TIP3    H225703   0.273   3.141   5.077 -0.0613 -0.3984  0.4737
 1382TIP3   OH225704   3.451   3.887   0.886  0.5998 -0.6444  0.8699
 1382TIP3    H125705   3.543   3.912   0.886  0.0645  1.5070  1.5948
 1382TIP3    H225706   3.411   3.939   0.817  0.0105 -2.0465  0.1155
 1383TIP3   OH225707   5.650   1.180   0.834  0.4353 -0.5424 -0.1931
 1383TIP3    H125708   5.729   1.207   0.880 -0.0035 -1.1928  0.9974
 1383TIP3    H225709   5.620   1.258   0.788  1.9548 -0.3820 -0.9590
 1384TIP3   OH225710   0.864   4.869   3.523 -0.2922  0.2060 -0.0719
 1384TIP3    H125711   0.834   4.959   3.519 -0.0598  0.2794 -0.2300
 1384TIP3    H225712   0.956   4.875   3.551 -0.4205 -0.0123  0.4168
 1385TIP3   OH225713   2.203   1.742   2.605 -0.0267  0.0575 -0.2177
 1385TIP3    H125714   2.294   1.716   2.612  0.8258  2.2938 -1.9203
 1385TIP3    H225715   2.155   1.673   2.651  2.6271 -0.0146  2.7397
 1386TIP3   OH225716   6.865   3.283   0.961  0.3352 -0.0146  0.0350
 1386TIP3    H125717   6.778   3.321   0.967 -0.7490 -2.1726 -0.8220
 1386TIP3    H225718   6.865   3.236   0.878  3.5031  2.5739 -1.6359
 1387TIP3   OH225719   0.625   4.510   3.706 -0.0170  0.4213  0.8066
 1387TIP3    H125720   0.679   4.492   3.629 -0.4192  2.0248  0.1038
 1387TIP3    H225721   0.649   4.599   3.732 -0.8514  0.4006  1.7209
 1388TIP3   OH225722   3.810   3.667   3.614  0.1996  0.3744 -0.1137
 1388TIP3    H125723   3.728   3.698   3.576 -0.4460  1.6046  2.1333
 1388TIP3    H225724   3.866   3.744   3.616  1.5724 -0.5044 -1.8375
 1389TIP3   OH225725   4.811   6.546   3.670 -0.0388  0.1534 -0.2580
 1389TIP3    H125726   4.824   6.535   3.576 -3.1145 -0.9334 -0.6683
 1389TIP3    H225727   4.739   6.487   3.692  2.2512 -1.6657  3.3456
 1390TIP3   OH225728   1.756   6.557   4.090 -0.6756  0.4781 -0.0416
 1390TIP3    H125729   1.705   6.527   4.166  0.6973 -0.9138  0.3716
 1390TIP3    H225730   1.847   6.550   4.118 -0.1821  1.4735 -1.2906
 1391TIP3   OH225731   2.652   6.291   2.217  0.4499 -0.3711 -0.3441
 1391TIP3    H125732   2.640   6.381   2.186 -2.2711 -0.4440  0.2372
 1391TIP3    H225733   2.651   6.238   2.138 -1.3427 -0.1183 -0.5451
 1392TIP3   OH225734   1.003   5.820   3.845 -0.1580  0.2267 -0.0064
 1392TIP3    H125735   0.989   5.909   3.813 -1.0182 -0.2312 -0.9580
 1392TIP3    H225736   0.962   5.819   3.931  0.1406  0.8349  0.1502
 1393TIP3   OH225737   5.590   4.111   0.637  0.0208 -0.1721 -0.1356
 1393TIP3    H125738   5.650   4.185   0.637 -1.4393  1.0766  0.0936
 1393TIP3    H225739   5.584   4.086   0.729 -0.0638 -0.0556 -0.1079
 1394TIP3   OH225740   2.162   4.814   2.769 -0.1050 -0.3164 -0.0903
 1394TIP3    H125741   2.187   4.906   2.781 -1.1139 -0.0996  0.3761
 1394TIP3    H225742   2.111   4.792   2.847  0.2803 -1.3374 -0.1072
 1395TIP3   OH225743   5.585   2.652   2.261 -0.2735  0.3345 -0.5819
 1395TIP3    H125744   5.577   2.721   2.327  0.0090  1.2534 -1.4849
 1395TIP3    H225745   5.556   2.693   2.180  2.6256  0.3467 -1.7406
 1396TIP3   OH225746   5.283   6.577   3.006 -0.2703 -0.2018  0.3576
 1396TIP3    H125747   5.293   6.592   2.911 -3.7516 -1.9702 -0.4413
 1396TIP3    H225748   5.245   6.659   3.038 -2.5264 -0.8240 -0.5568
 1397TIP3   OH225749   0.359   4.801   3.124  0.0473 -0.6913 -0.4510
 1397TIP3    H125750   0.264   4.815   3.126  0.1420 -0.0993  0.3702
 1397TIP3    H225751   0.379   4.756   3.206  0.4715 -0.8730 -0.6516
 1398TIP3   OH225752   4.157   0.908   4.543  0.1968 -0.6578 -0.0404
 1398TIP3    H125753   4.192   0.887   4.457 -2.3001 -0.9576 -1.0486
 1398TIP3    H225754   4.196   0.843   4.601  1.7997 -0.5409 -0.9358
 1399TIP3   OH225755   4.381   2.307   3.214  0.2041  0.2084  0.1741
 1399TIP3    H125756   4.434   2.352   3.279  0.4188 -0.2775  0.3390
 1399TIP3    H225757   4.408   2.216   3.219 -0.2539  0.0489 -0.1269
 1400TIP3   OH225758   3.221   0.008   1.087 -0.4181  0.2011 -0.1697
 1400TIP3    H125759   3.258  -0.020   1.003 -0.7858 -0.1812 -0.2096
 1400TIP3    H225760   3.292  -0.004   1.150 -0.0971  0.6177 -0.4445
 1401TIP3   OH225761   5.940   5.332   2.033 -0.3313  0.5834  0.1531
 1401TIP3    H125762   5.927   5.401   1.968 -0.8659  0.3079 -0.0388
 1401TIP3    H225763   5.854   5.322   2.074 -0.9938 -1.7272 -1.5678
 1402TIP3   OH225764   1.171   4.897   0.862 -0.4778  0.0923 -0.4952
 1402TIP3    H125765   1.192   4.885   0.770  2.4556 -0.0003  0.0983
 1402TIP3    H225766   1.214   4.824   0.907 -1.5574  0.3133  1.0158
 1403TIP3   OH225767   6.569   4.593   0.766 -0.1192 -0.1824 -0.6134
 1403TIP3    H125768   6.484   4.626   0.739  0.8960  3.1195 -0.1671
 1403TIP3    H225769   6.603   4.547   0.689 -2.4522 -2.1593 -0.5915
 1404TIP3   OH225770   3.558   0.534   1.380 -0.3140 -0.6657  0.1597
 1404TIP3    H125771   3.639   0.483   1.379  0.2781  0.2676 -0.4073
 1404TIP3    H225772   3.501   0.489   1.318  0.6394  0.0226 -1.2562
 1405TIP3   OH225773   1.191   0.153   1.225  0.4977  0.0209 -0.2790
 1405TIP3    H125774   1.170   0.153   1.318 -2.2179  4.9014 -0.5242
 1405TIP3    H225775   1.106   0.138   1.182  1.4780 -0.8764 -2.0159
 1406TIP3   OH225776   1.548   1.520   3.203 -0.7922 -0.3455  0.2102
 1406TIP3    H125777   1.620   1.566   3.159 -1.1794  0.1500  0.0848
 1406TIP3    H225778   1.590   1.446   3.246 -0.2668 -0.3002 -0.2096
 1407TIP3   OH225779   2.925   1.032   0.612 -0.5724  0.4913  0.1831
 1407TIP3    H125780   2.950   0.981   0.689  0.0609 -1.9067 -1.4961
 1407TIP3    H225781   2.835   1.006   0.593 -0.3533  0.2024 -0.5073
 1408TIP3   OH225782   2.407   1.834   4.316 -0.4262  0.7136 -1.0239
 1408TIP3    H125783   2.475   1.833   4.383 -2.2289  0.2245  0.8905
 1408TIP3    H225784   2.455   1.826   4.234  1.9085  1.8651  0.1353
 1409TIP3   OH225785   6.632   2.073   2.897  0.1625  0.0005 -0.0775
 1409TIP3    H125786   6.607   2.041   2.811 -0.2605 -0.3946  0.1890
 1409TIP3    H225787   6.671   2.159   2.881  1.8382 -0.8590 -0.8671
 1410TIP3   OH225788   2.054   1.312   0.863 -0.0118 -0.3203  0.4846
 1410TIP3    H125789   2.053   1.293   0.956  2.2859 -0.1140  0.5992
 1410TIP3    H225790   2.051   1.408   0.857  1.1168 -0.2739  0.4280
 1411TIP3   OH225791   0.552   6.720   1.148  0.1974 -0.4375 -1.0325
 1411TIP3    H125792   0.540   6.625   1.160 -0.4114 -0.2085  0.3861
 1411TIP3    H225793   0.646   6.734   1.160  0.1594 -0.7574 -0.2932
 1412TIP3   OH225794   3.204   3.239   2.153  0.1028  0.3366 -0.0709
 1412TIP3    H125795   3.214   3.334   2.154  0.7804  0.2814 -0.6659
 1412TIP3    H225796   3.290   3.206   2.127 -0.2735 -0.4127 -0.4120
 1413TIP3   OH225797   5.109   2.649   0.379  0.0765  0.1926 -0.1961
 1413TIP3    H125798   5.014   2.656   0.377 -0.0473 -0.3649  1.7468
 1413TIP3    H225799   5.133   2.624   0.290 -1.3735  2.4272 -1.2927
 1414TIP3   OH225800   2.332   4.457   2.920 -0.0747  0.0717 -0.9422
 1414TIP3    H125801   2.357   4.536   2.872  0.2686 -0.0363 -0.9447
 1414TIP3    H225802   2.404   4.396   2.905 -0.2632 -0.1873 -0.8094
 1415TIP3   OH225803   5.036   4.656   3.907 -0.6841  0.3030 -0.0280
 1415TIP3    H125804   5.009   4.681   3.819  0.4667  0.8904 -0.2232
 1415TIP3    H225805   4.953   4.644   3.954 -1.3389 -0.6056 -1.3288
 1416TIP3   OH225806   3.074   1.412   2.477  0.1868 -0.0003  0.2590
 1416TIP3    H125807   3.123   1.477   2.427  1.4038 -1.6952 -0.8808
 1416TIP3    H225808   3.141   1.363   2.525 -0.3807 -1.9040 -0.7579
 1417TIP3   OH225809   3.656   1.267   0.864 -0.0794  0.0007  0.3857
 1417TIP3    H125810   3.578   1.323   0.867 -0.3565 -0.3143 -0.4863
 1417TIP3    H225811   3.724   1.323   0.829  0.0918  0.2762  1.1455
 1418TIP3   OH225812   0.938   0.439   2.153 -0.3930 -1.0483 -0.1241
 1418TIP3    H125813   0.978   0.477   2.232 -1.6740 -1.4236  0.7384
 1418TIP3    H225814   1.008   0.386   2.114  0.2280 -0.9469  0.8122
 1419TIP3   OH225815   0.384   2.725   1.795 -0.2686  0.2459  0.1277
 1419TIP3    H125816   0.362   2.666   1.722 -1.3020  1.0094 -0.2065
 1419TIP3    H225817   0.465   2.690   1.830  0.8313  0.4299 -2.0490
 1420TIP3   OH225818   4.699   0.794   0.763  0.1066  0.1033 -0.9872
 1420TIP3    H125819   4.670   0.713   0.804 -0.6294  0.2987 -1.1125
 1420TIP3    H225820   4.702   0.858   0.834  1.9471 -0.3246 -0.6249
 1421TIP3   OH225821   6.356   3.265   2.715  0.1579  0.1076  0.0158
 1421TIP3    H125822   6.338   3.236   2.626  1.4165  0.2782 -0.3119
 1421TIP3    H225823   6.307   3.347   2.724 -2.2598 -1.3107  0.4718
 1422TIP3   OH225824   2.920   0.038   2.244  0.2389  0.3443  0.3310
 1422TIP3    H125825   2.925  -0.040   2.188  1.7050 -0.4639  1.5000
 1422TIP3    H225826   2.999   0.033   2.298  0.3153  2.6203  0.5069
 1423TIP3   OH225827   5.186   1.590   0.454 -0.3047  0.0591 -0.2655
 1423TIP3    H125828   5.192   1.528   0.527 -0.0267  0.0932 -0.2578
 1423TIP3    H225829   5.158   1.672   0.494  1.0731  0.4182 -0.0012
 1424TIP3   OH225830   4.276   3.191   1.378  0.0011 -0.0122 -0.1258
 1424TIP3    H125831   4.209   3.122   1.373  0.8409 -0.7894 -1.3508
 1424TIP3    H225832   4.347   3.150   1.428  0.1320  0.3002 -0.0585
 1425TIP3   OH225833   3.912   6.869   2.932  0.2472  0.0407 -0.4150
 1425TIP3    H125834   3.822   6.901   2.940  0.0162 -0.2584 -1.6146
 1425TIP3    H225835   3.921   6.803   3.001 -0.2762  0.4606  0.0552
 1426TIP3   OH225836   2.435   2.053   1.115  0.0853 -0.0953 -0.2729
 1426TIP3    H125837   2.409   2.062   1.023  2.0851 -0.1542 -0.8888
 1426TIP3    H225838   2.411   1.963   1.138 -0.9405  0.0979 -0.5530
 1427TIP3   OH225839   6.360   1.334   0.389 -0.4988 -0.2832  0.0463
 1427TIP3    H125840   6.397   1.267   0.331  0.6777  0.1286  0.2753
 1427TIP3    H225841   6.437   1.384   0.419 -1.0202 -0.6862  2.2324
 1428TIP3   OH225842   2.166   0.837   1.334 -0.1799 -0.3217  0.2152
 1428TIP3    H125843   2.138   0.889   1.260 -2.6384 -0.4705  0.9673
 1428TIP3    H225844   2.090   0.783   1.357  1.2923 -2.0632  1.3282
 1429TIP3   OH225845   0.523   0.529   2.338  0.8695 -0.1797 -0.1798
 1429TIP3    H125846   0.579   0.549   2.264  1.8227  0.6631  0.7358
 1429TIP3    H225847   0.544   0.596   2.403  2.1860 -2.4852  1.9753
 1430TIP3   OH225848   0.207   2.768   3.180  0.8282 -0.1356  0.1350
 1430TIP3    H125849   0.211   2.673   3.183  2.3036 -0.0895  0.7321
 1430TIP3    H225850   0.177   2.788   3.091  0.1438 -1.1565  0.1228
 1431TIP3   OH225851   3.122   0.183   3.080 -0.3952 -0.5062 -0.6993
 1431TIP3    H125852   3.052   0.120   3.060 -1.9147  1.3451 -1.4904
 1431TIP3    H225853   3.105   0.209   3.170 -0.7475 -0.0358 -0.9005
 1432TIP3   OH225854   6.274   2.651   3.511  0.3820 -0.2800  0.0196
 1432TIP3    H125855   6.294   2.562   3.541  2.5706  0.0548 -0.2724
 1432TIP3    H225856   6.331   2.707   3.565  0.0082  0.8222 -0.7157
 1433TIP3   OH225857   5.818   1.649   3.765  0.4994  0.0799  0.2694
 1433TIP3    H125858   5.749   1.651   3.831  0.7862 -0.3792  0.5895
 1433TIP3    H225859   5.843   1.741   3.754 -0.8431  0.3832 -0.5988
 1434TIP3   OH225860   2.453   3.674   1.969  0.5007  0.5758  0.1221
 1434TIP3    H125861   2.448   3.755   1.918  1.5748  1.2762  1.0793
 1434TIP3    H225862   2.539   3.677   2.011  1.5750 -2.1642 -1.6025
 1435TIP3   OH225863   3.862   1.313   3.660  0.1973  0.6132 -0.3737
 1435TIP3    H125864   3.845   1.301   3.567  1.3067  1.4698 -0.6956
 1435TIP3    H225865   3.947   1.356   3.665  0.5391 -0.1351  1.0665
 1436TIP3   OH225866   1.482   2.977   4.259  0.3829 -0.0003 -0.0737
 1436TIP3    H125867   1.541   2.990   4.334  1.8987 -0.7425 -1.0800
 1436TIP3    H225868   1.532   2.922   4.199 -1.1086 -0.0876 -1.2888
 1437TIP3   OH225869   2.159   1.337   2.668  0.1204 -0.2037  0.3203
 1437TIP3    H125870   2.150   1.431   2.683  2.1453  0.3127 -1.1330
 1437TIP3    H225871   2.071   1.302   2.680 -1.4561  2.3784 -2.2872
 1438TIP3   OH225872   0.268   4.048   3.086 -0.0492 -0.4731 -0.4241
 1438TIP3    H125873   0.245   3.993   3.011  0.6517  0.0463 -1.0381
 1438TIP3    H225874   0.266   4.137   3.051 -1.8999 -0.0066  0.7336
 1439TIP3   OH225875   0.061   6.698   2.414 -0.3427 -0.2736  0.0754
 1439TIP3    H125876   0.092   6.789   2.419 -0.9276  0.1217 -2.1325
 1439TIP3    H225877   0.130   6.647   2.457  0.0006  1.2020  1.3585
 1440TIP3   OH225878   1.550   4.939   2.746 -1.0654 -0.5642  0.2408
 1440TIP3    H125879   1.640   4.954   2.716 -1.2994 -1.8191 -1.1891
 1440TIP3    H225880   1.558   4.927   2.841 -0.0057  1.2822  0.4325
 1441TIP3   OH225881   3.666   3.148   2.434 -0.4125  0.3589 -0.1664
 1441TIP3    H125882   3.696   3.102   2.512 -1.1321  1.5773  0.8741
 1441TIP3    H225883   3.746   3.181   2.393  0.1404 -1.9800 -1.0980
 1442TIP3   OH225884   5.841   1.563   2.798  0.2226 -0.0410  0.0446
 1442TIP3    H125885   5.847   1.598   2.709 -0.3071  0.9756  0.3860
 1442TIP3    H225886   5.811   1.473   2.786  1.4155 -0.3379 -0.8637
 1443TIP3   OH225887   5.006   5.505   1.658  0.4356  0.6501  0.3631
 1443TIP3    H125888   5.039   5.592   1.635 -0.9712  1.0727 -0.1604
 1443TIP3    H225889   5.031   5.493   1.750  1.4691  1.1970  0.1663
 1444TIP3   OH225890   3.996   3.851   3.673  0.7217 -0.2855  0.3228
 1444TIP3    H125891   4.031   3.894   3.596 -1.6326 -0.6814 -1.0839
 1444TIP3    H225892   4.020   3.907   3.746  1.4817  1.0590 -0.9199
 1445TIP3   OH225893   0.037   6.879   3.251 -0.6062  0.7989 -0.4629
 1445TIP3    H125894   0.092   6.845   3.321 -0.5317 -0.2928 -1.0310
 1445TIP3    H225895   0.098   6.900   3.180 -0.7608  1.1498 -0.4972
 1446TIP3   OH225896   6.294   4.120   3.041  0.0189  0.2404 -0.3530
 1446TIP3    H125897   6.336   4.202   3.014  0.2466  0.5515  0.8787
 1446TIP3    H225898   6.365   4.066   3.076 -0.1209 -0.5295 -1.2134
 1447TIP3   OH225899   6.068   2.259   2.767 -0.6207 -0.1205  0.5407
 1447TIP3    H125900   6.101   2.349   2.762 -0.0385 -0.3818 -0.6831
 1447TIP3    H225901   6.128   2.214   2.825  0.8875 -0.4353 -1.1729
 1448TIP3   OH225902   1.191   3.303   2.159  0.0624  0.1839  0.1650
 1448TIP3    H125903   1.182   3.386   2.112 -1.2053 -0.2087 -0.3093
 1448TIP3    H225904   1.106   3.260   2.150 -0.2684  0.0836  2.8205
 1449TIP3   OH225905   4.391   2.805   1.127 -0.0270  0.2520 -0.0189
 1449TIP3    H125906   4.402   2.713   1.105  0.0971  0.5135 -1.0944
 1449TIP3    H225907   4.480   2.839   1.135 -0.0723  0.4189 -0.2280
 1450TIP3   OH225908   0.187   0.420   1.415 -0.0488  0.5302 -0.3328
 1450TIP3    H125909   0.177   0.355   1.346 -0.0157  0.4859 -0.2957
 1450TIP3    H225910   0.098   0.437   1.445 -0.0095  0.0688  0.0592
 1451TIP3   OH225911   2.902   5.225   1.244  0.7281 -0.4153 -0.1248
 1451TIP3    H125912   2.923   5.228   1.150  0.9158  1.9111 -0.0748
 1451TIP3    H225913   2.975   5.269   1.286  0.5586 -1.2833  1.1280
 1452TIP3   OH225914   0.110   3.321   3.324  0.0536 -0.1401 -0.5419
 1452TIP3    H125915   0.084   3.241   3.370 -0.8108 -0.4074 -1.4660
 1452TIP3    H225916   0.059   3.320   3.243  0.6630  0.9245 -0.9587
 1453TIP3   OH225917   6.099   0.615   3.045 -0.2011  0.5000  0.5474
 1453TIP3    H125918   6.060   0.532   3.072  0.1087  0.8380  2.1042
 1453TIP3    H225919   6.126   0.600   2.954 -3.4306  0.0636 -0.4763
 1454TIP3   OH225920   5.315   0.494   4.470 -0.4472 -0.6562  0.0525
 1454TIP3    H125921   5.345   0.445   4.547 -1.0846 -0.8594  0.1732
 1454TIP3    H225922   5.285   0.427   4.409  0.5346 -0.5302 -0.5977
 1455TIP3   OH225923   0.960   3.933   2.988  0.5287 -0.3412  0.6264
 1455TIP3    H125924   0.958   3.861   2.924 -0.6300  1.1853 -1.1619
 1455TIP3    H225925   0.887   3.914   3.048 -0.3052 -0.2501 -0.3377
 1456TIP3   OH225926   4.817   2.398   0.639 -0.2083 -0.4204 -0.1036
 1456TIP3    H125927   4.833   2.488   0.611 -0.4366  0.6149  2.7616
 1456TIP3    H225928   4.840   2.344   0.563 -0.1335  2.0393 -1.9141
 1457TIP3   OH225929   3.101   5.885   1.065  0.4739  0.6376  0.1326
 1457TIP3    H125930   3.055   5.815   1.112  0.7325 -1.7601 -2.9110
 1457TIP3    H225931   3.036   5.918   1.003  1.1580  1.3290 -0.2233
 1458TIP3   OH225932   6.417   6.647   1.263  0.3852 -0.7175  0.5239
 1458TIP3    H125933   6.418   6.647   1.167  2.5091 -1.8873  0.4693
 1458TIP3    H225934   6.371   6.728   1.286  1.6329  0.7142 -1.5229
 1459TIP3   OH225935   2.119   6.760   3.964  0.2434  0.0554 -0.1195
 1459TIP3    H125936   2.059   6.806   4.023  0.0831  0.6466 -0.7268
 1459TIP3    H225937   2.166   6.700   4.021 -0.3763  0.1344  0.5028
 1460TIP3   OH225938   6.341   1.301   4.679  0.0445  0.0258 -0.0974
 1460TIP3    H125939   6.255   1.263   4.696  0.6384 -1.7966 -0.8633
 1460TIP3    H225940   6.328   1.395   4.689 -1.8506 -0.2520  0.5391
 1461TIP3   OH225941   6.055   4.687   4.310 -0.4455 -0.1938  0.2270
 1461TIP3    H125942   6.040   4.774   4.272  0.0359 -0.2170 -0.0307
 1461TIP3    H225943   5.979   4.636   4.285 -0.3972 -0.0449 -0.2302
 1462TIP3   OH225944   4.657   3.303   3.653 -0.3674 -0.1290 -0.0775
 1462TIP3    H125945   4.624   3.214   3.641 -0.7498 -0.1905  1.2408
 1462TIP3    H225946   4.610   3.356   3.588 -0.3978 -0.8186 -0.6230
 1463TIP3   OH225947   3.178   5.683   0.841  0.6948  0.5508  0.5420
 1463TIP3    H125948   3.106   5.626   0.867 -0.7915  2.2398  0.3746
 1463TIP3    H225949   3.179   5.752   0.908  1.7853  0.8621  0.2260
 1464TIP3   OH225950   1.997   3.576   5.039  0.0908  0.3497  0.3263
 1464TIP3    H125951   1.921   3.519   5.027 -1.9459  2.7165  1.0930
 1464TIP3    H225952   2.000   3.629   4.959  0.8424  0.4166  0.3903
 1465TIP3   OH225953   1.136   4.821   2.422  0.0283  0.1209  0.5212
 1465TIP3    H125954   1.070   4.793   2.360  0.9449  0.4075 -0.6267
 1465TIP3    H225955   1.184   4.891   2.376 -0.3662  1.5540  2.1962
 1466TIP3   OH225956   4.321   1.457   1.956 -0.1071 -0.1089 -0.6829
 1466TIP3    H125957   4.379   1.501   2.017 -0.9534  2.3377 -1.5205
 1466TIP3    H225958   4.375   1.441   1.879  0.1704 -0.4069 -0.4279
 1467TIP3   OH225959   1.389   6.826   0.135  0.1877  0.1785  0.2684
 1467TIP3    H125960   1.409   6.733   0.120 -0.8212 -0.0736  0.4214
 1467TIP3    H225961   1.450   6.873   0.079 -0.4075 -0.6364 -1.1161
 1468TIP3   OH225962   2.103   6.532   0.354  0.1940 -0.0391  0.4510
 1468TIP3    H125963   2.057   6.448   0.367 -0.4273  0.0486 -0.9925
 1468TIP3    H225964   2.120   6.535   0.260 -1.3390  2.2102  0.1705
 1469TIP3   OH225965   0.012   6.163   2.733  0.1161  0.4615 -0.0860
 1469TIP3    H125966  -0.019   6.116   2.810 -0.6072 -0.8349 -1.1321
 1469TIP3    H225967   0.067   6.100   2.686 -2.3338 -0.1136 -2.4712
 1470TIP3   OH225968   2.920   1.353   1.365  0.1068 -0.4526 -0.8598
 1470TIP3    H125969   2.839   1.401   1.352  0.2697 -0.0554 -0.4324
 1470TIP3    H225970   2.893   1.261   1.373 -0.1219 -0.6127 -2.7704
 1471TIP3   OH225971   0.443   1.617   1.065  0.2773 -1.3035  0.0013
 1471TIP3    H125972   0.435   1.528   1.100 -0.6163 -0.3656  2.3404
 1471TIP3    H225973   0.536   1.639   1.078  0.1749 -1.3495  0.8410
 1472TIP3   OH225974   4.388   2.179   2.562  0.3187 -0.0269  0.2015
 1472TIP3    H125975   4.405   2.263   2.519 -0.0372  0.1847  0.4768
 1472TIP3    H225976   4.416   2.114   2.498  1.1199  0.3031  0.1993
 1473TIP3   OH225977   1.500   1.430   1.865 -0.1027 -0.1855  0.7132
 1473TIP3    H125978   1.550   1.353   1.892  1.9284  0.7956 -0.0868
 1473TIP3    H225979   1.496   1.485   1.943 -1.2130 -0.8768  1.1728
 1474TIP3   OH225980   3.529   6.190   3.231 -0.0291  0.1153 -0.2682
 1474TIP3    H125981   3.546   6.228   3.317 -0.1509 -0.0361 -0.1778
 1474TIP3    H225982   3.614   6.193   3.187 -0.1416  0.9231 -0.4335
 1475TIP3   OH225983   3.179   0.220   1.950  0.7798 -0.2400 -0.2325
 1475TIP3    H125984   3.217   0.308   1.945 -0.0102  0.4777  3.6876
 1475TIP3    H225985   3.100   0.225   1.896  0.6788  1.5017  0.0290
 1476TIP3   OH225986   3.816   3.853   2.087 -0.0535  0.6286  0.6038
 1476TIP3    H125987   3.885   3.828   2.025  0.4238  0.5951  1.1360
 1476TIP3    H225988   3.860   3.913   2.148 -1.3420  3.5281 -1.1055
 1477TIP3   OH225989   1.599   5.435   0.850  0.1023  0.2920  0.2937
 1477TIP3    H125990   1.505   5.450   0.838  0.7430  2.9142 -3.0375
 1477TIP3    H225991   1.628   5.400   0.765  2.3523  1.0554  0.6839
 1478TIP3   OH225992   6.407   3.323   2.985  0.3058  0.1693 -0.2443
 1478TIP3    H125993   6.327   3.371   2.962 -1.7418 -2.8897 -0.0584
 1478TIP3    H225994   6.426   3.269   2.908  0.8513 -0.7784  0.5360
 1479TIP3   OH225995   4.953   5.453   3.439 -0.6818 -0.1926  0.1273
 1479TIP3    H125996   4.874   5.502   3.419 -1.0847 -0.7042  0.4611
 1479TIP3    H225997   4.954   5.445   3.534  0.0886  0.3300  0.1777
 1480TIP3   OH225998   0.628   0.764   1.912 -0.1959 -0.1866  0.3509
 1480TIP3    H125999   0.633   0.731   1.823  2.5004 -0.4846  0.5159
 1480TIP3    H226000   0.534   0.765   1.933 -0.7280 -3.0085 -1.3865
 1481TIP3   OH226001   5.037   3.748   0.714  0.1886  0.1173 -0.5626
 1481TIP3    H126002   4.959   3.703   0.681 -0.0622  0.5368 -0.5467
 1481TIP3    H226003   5.046   3.715   0.804 -1.2680  1.6881  0.2200
 1482TIP3   OH226004   5.501   4.599   4.808  0.0653  0.3920 -0.0954
 1482TIP3    H126005   5.418   4.610   4.854  0.0077  1.3202 -0.4035
 1482TIP3    H226006   5.516   4.682   4.763  1.0390  0.1572 -0.2509
 1483TIP3   OH226007   6.196   0.708   3.283 -0.0689  0.1086  0.9341
 1483TIP3    H126008   6.211   0.630   3.336  0.4238 -0.8649 -0.5769
 1483TIP3    H226009   6.178   0.675   3.196  3.1753  1.6962 -0.5179
 1484TIP3   OH226010   4.966   2.259   4.202 -0.1692  0.4877  0.3763
 1484TIP3    H126011   4.906   2.315   4.251  0.5478  0.1186  1.7287
 1484TIP3    H226012   4.914   2.226   4.129  0.0372  4.8469 -2.0350
 1485TIP3   OH226013   5.967   0.819   4.435  0.1702 -0.4779  0.0983
 1485TIP3    H126014   5.970   0.728   4.407  0.0640 -1.1608  2.1433
 1485TIP3    H226015   5.964   0.815   4.530 -2.0102  1.5950  0.2188
 1486TIP3   OH226016   1.549   0.342   3.258 -0.0065  0.4619 -0.1632
 1486TIP3    H126017   1.567   0.364   3.167  0.7193  1.0954  0.1242
 1486TIP3    H226018   1.604   0.266   3.276  1.4976  1.6104  0.3354
 1487TIP3   OH226019   1.586   5.955   8.280 -0.2300  0.0294  0.3960
 1487TIP3    H126020   1.656   6.010   8.317  1.8674 -1.7463 -0.6456
 1487TIP3    H226021   1.572   5.990   8.192 -1.0409  0.6856  0.7748
 1488TIP3   OH226022   3.103   3.182   2.447  0.1955 -0.4681  0.0521
 1488TIP3    H126023   3.091   3.208   2.356 -1.1114  3.1088  1.0651
 1488TIP3    H226024   3.197   3.163   2.455  0.9811  2.3482 -1.4182
 1489TIP3   OH226025   3.574   4.127   3.593  0.4482 -0.4973 -0.3183
 1489TIP3    H126026   3.620   4.053   3.633 -0.4840 -1.2939 -0.6922
 1489TIP3    H226027   3.528   4.090   3.519 -1.0032  0.2318  0.1749
 1490TIP3   OH226028   6.852   0.167   8.491  0.5642  0.0001  0.1858
 1490TIP3    H126029   6.761   0.179   8.518  0.5812  1.2328 -0.2388
 1490TIP3    H226030   6.900   0.239   8.533  1.4859 -1.0535  1.0018
 1491TIP3   OH226031   2.363   1.133   4.842  0.0692  0.4221  0.4492
 1491TIP3    H126032   2.331   1.148   4.931 -1.1288  0.1223  0.0915
 1491TIP3    H226033   2.410   1.214   4.820  0.0280  0.6613  1.2021
 1492TIP3   OH226034   5.857   5.980   1.986  0.2412 -0.6671  0.0469
 1492TIP3    H126035   5.833   6.067   1.953 -0.5411 -0.7466  0.3963
 1492TIP3    H226036   5.921   5.948   1.923  0.6736  0.2351  0.0093
 1493TIP3   OH226037   3.805   0.840   0.862  0.3605  0.3473 -0.1025
 1493TIP3    H126038   3.851   0.859   0.944  1.3821  1.0327 -0.8080
 1493TIP3    H226039   3.765   0.754   0.876 -0.5414  0.9940  1.5437
 1494TIP3   OH226040   3.128   1.745   2.556 -0.2817 -0.2707 -0.0500
 1494TIP3    H126041   3.174   1.822   2.588  1.0322 -1.6754  1.6834
 1494TIP3    H226042   3.178   1.717   2.479 -0.6518  0.4635 -0.5695
 1495TIP3   OH226043   3.429   1.463   1.885  0.0813  0.1435 -0.4192
 1495TIP3    H126044   3.393   1.506   1.963  1.7107  1.4433 -0.3266
 1495TIP3    H226045   3.414   1.370   1.900  0.4661  0.3510  1.5386
 1496TIP3   OH226046   3.111   5.546   1.334  0.2339  0.2775  0.0031
 1496TIP3    H126047   3.160   5.465   1.319 -2.8694 -1.5277 -1.3634
 1496TIP3    H226048   3.056   5.527   1.409 -2.0839  0.1948 -1.5996
 1497TIP3   OH226049   0.551   5.098   3.765  0.3472  0.4781 -0.5852
 1497TIP3    H126050   0.476   5.038   3.763 -0.0092  0.8100  1.3643
 1497TIP3    H226051   0.528   5.163   3.830  2.1263  0.8957 -0.3237
 1498TIP3   OH226052   1.942   1.906   2.467  0.5919 -0.3814  0.4556
 1498TIP3    H126053   2.029   1.912   2.426  0.7700 -0.2139  0.8563
 1498TIP3    H226054   1.881   1.917   2.394  0.9103  0.4549  0.3026
 1499TIP3   OH226055   3.851   2.139   2.808  0.0504  0.2058  0.4263
 1499TIP3    H126056   3.941   2.130   2.838  0.7717 -0.2784 -1.6922
 1499TIP3    H226057   3.801   2.080   2.863  1.0143  0.4519  1.6114
 1500TIP3   OH226058   2.178   2.600   1.534 -0.2349  0.1637  0.7673
 1500TIP3    H126059   2.273   2.603   1.519  0.3071 -3.2834  2.4627
 1500TIP3    H226060   2.167   2.538   1.606 -3.8676 -0.4399 -0.1167
 1501TIP3   OH226061   1.534   6.204   2.016 -0.1040  0.0393 -0.0493
 1501TIP3    H126062   1.457   6.185   2.069 -0.9083  0.1053 -1.1460
 1501TIP3    H226063   1.573   6.282   2.056 -0.8060  0.2082  0.3111
 1502TIP3   OH226064   1.787   2.335   0.666  0.0605 -0.5602 -0.3149
 1502TIP3    H126065   1.724   2.291   0.608  0.5650 -2.5961  0.5777
 1502TIP3    H226066   1.734   2.366   0.739 -0.1026 -1.1619 -0.1673
 1503TIP3   OH226067   3.089   1.508   0.815  0.0975 -0.1723  0.0033
 1503TIP3    H126068   3.117   1.536   0.902 -1.1970  1.3020 -0.0258
 1503TIP3    H226069   3.059   1.418   0.827  1.2584 -0.4869  0.7666
 1504TIP3   OH226070   2.396   3.020   1.575 -0.4204  0.1954 -0.2235
 1504TIP3    H126071   2.451   2.959   1.624 -1.2375 -0.9608 -0.7179
 1504TIP3    H226072   2.422   3.009   1.484 -0.6607  0.4932 -0.3299
 1505TIP3   OH226073   0.671   1.938   4.794  0.0471 -0.2899 -0.3010
 1505TIP3    H126074   0.713   2.024   4.803 -0.7133 -0.0634  1.5214
 1505TIP3    H226075   0.604   1.951   4.727  2.4764 -0.5503 -2.9630
 1506TIP3   OH226076   3.539   4.983   2.147  0.0265 -0.2891 -0.0040
 1506TIP3    H126077   3.503   4.942   2.068 -0.2846 -0.5669  0.2811
 1506TIP3    H226078   3.565   4.909   2.203  2.3607 -0.1473 -0.7716
 1507TIP3   OH226079   2.306   4.950   0.790 -0.4140  0.7162  0.1592
 1507TIP3    H126080   2.300   4.876   0.850  0.0817  0.2670 -0.3330
 1507TIP3    H226081   2.350   4.915   0.713  0.4429  1.6923  0.1851
 1508TIP3   OH226082   3.543   0.357   4.062  0.1734  0.2145 -0.1057
 1508TIP3    H126083   3.630   0.395   4.075 -0.4308  1.2410  1.2261
 1508TIP3    H226084   3.512   0.338   4.151 -0.5317 -1.1448 -0.6236
 1509TIP3   OH226085   2.794   2.962   4.016 -0.3722 -0.5162  0.8000
 1509TIP3    H126086   2.849   3.040   4.007 -0.0582 -0.7493  0.6813
 1509TIP3    H226087   2.742   2.959   3.936  0.3310 -0.9771  0.3480
 1510TIP3   OH226088   6.337   2.025   0.501 -0.1353 -0.2265  0.1903
 1510TIP3    H126089   6.244   2.002   0.505 -0.2037 -0.2046 -0.9517
 1510TIP3    H226090   6.382   1.940   0.500 -0.0076 -0.2593  2.4979
 1511TIP3   OH226091   3.841   3.080   4.685 -0.2965 -0.0157  0.6221
 1511TIP3    H126092   3.854   3.174   4.674  2.2159 -0.2996  0.5664
 1511TIP3    H226093   3.852   3.066   4.780  0.1092 -0.3434  0.5282
 1512TIP3   OH226094   2.278   0.991   1.876 -0.5158 -0.0763  0.9633
 1512TIP3    H126095   2.262   0.945   1.793  2.3835 -0.4056  0.4657
 1512TIP3    H226096   2.261   1.083   1.857 -0.2277 -0.1969  0.0731
 1513TIP3   OH226097   6.347   1.836   1.462 -0.2333  0.1506  0.1003
 1513TIP3    H126098   6.322   1.768   1.525  0.6861  0.7693  1.1772
 1513TIP3    H226099   6.410   1.890   1.510  0.2592  0.8248 -1.2720
 1514TIP3   OH226100   2.344   0.064   4.195 -0.3586 -0.1216 -0.2067
 1514TIP3    H126101   2.356   0.159   4.202  1.0878 -0.4289  2.8553
 1514TIP3    H226102   2.423   0.033   4.151 -1.6541  0.1485 -2.9571
 1515TIP3   OH226103   6.704   3.170   2.436 -0.0651  0.3466  0.1994
 1515TIP3    H126104   6.733   3.255   2.470  0.3250 -0.4525  1.9890
 1515TIP3    H226105   6.609   3.169   2.454 -0.5168  1.2891 -1.9028
 1516TIP3   OH226106   0.806   4.100   3.995 -0.1668  0.2106  0.5420
 1516TIP3    H126107   0.746   4.151   4.048  0.0714  0.7490  0.3053
 1516TIP3    H226108   0.770   4.105   3.906  0.0068  0.2000  0.4699
 1517TIP3   OH226109   6.400   6.649   0.966 -0.8244  0.0939 -0.1279
 1517TIP3    H126110   6.324   6.622   0.915 -1.1038  2.9572 -1.4630
 1517TIP3    H226111   6.475   6.609   0.922 -1.2984  0.1600 -1.0112
 1518TIP3   OH226112   2.876   4.850   2.929  0.2212 -0.4012 -0.6304
 1518TIP3    H126113   2.803   4.896   2.887  0.1205 -0.0242 -0.0655
 1518TIP3    H226114   2.875   4.762   2.891 -1.7213 -1.0322  0.7038
 1519TIP3   OH226115   1.791   6.421   2.148  0.5548  0.2787  0.1331
 1519TIP3    H126116   1.755   6.488   2.090  0.0350  0.3347  0.5110
 1519TIP3    H226117   1.878   6.453   2.172  0.1395  1.0383  0.6633
 1520TIP3   OH226118   0.730   4.800   0.437 -0.1527 -0.4921 -0.2548
 1520TIP3    H126119   0.668   4.771   0.370 -0.6265  0.2056 -0.1208
 1520TIP3    H226120   0.685   4.869   0.485  1.3080  1.2653 -1.2502
 1521TIP3   OH226121   2.454   1.755   1.157 -0.3716  0.3244 -0.3808
 1521TIP3    H126122   2.536   1.784   1.117 -0.1672  2.1948  1.2297
 1521TIP3    H226123   2.416   1.695   1.093  1.7572  0.1821 -1.6122
 1522TIP3   OH226124   5.337   2.550   0.515 -0.3498  0.1002  0.4552
 1522TIP3    H126125   5.352   2.457   0.533  0.6828  0.4428  1.4248
 1522TIP3    H226126   5.241   2.557   0.509 -0.5918 -0.6733  2.4955
 1523TIP3   OH226127   6.463   5.874   3.601  0.0279  0.3224 -0.8303
 1523TIP3    H126128   6.450   5.846   3.691  0.5621 -1.9120 -1.3709
 1523TIP3    H226129   6.381   5.917   3.577 -0.9207 -0.8909  0.1026
 1524TIP3   OH226130   1.213   0.990   1.566 -0.2601  0.1627  0.4804
 1524TIP3    H126131   1.279   1.052   1.535  1.0405 -1.7439 -0.7474
 1524TIP3    H226132   1.135   1.010   1.515  0.8140 -0.5943 -1.5948
 1525TIP3   OH226133   6.305   3.498   1.630 -0.2347  0.2563 -0.0167
 1525TIP3    H126134   6.295   3.493   1.725 -0.6268  2.4278  0.1077
 1525TIP3    H226135   6.356   3.578   1.615  1.9508 -1.3051 -1.5517
 1526TIP3   OH226136   0.847   1.591   0.419 -0.6004  0.3673 -0.0674
 1526TIP3    H126137   0.772   1.563   0.366 -0.8319  0.7349  0.0668
 1526TIP3    H226138   0.900   1.644   0.360 -1.5656  1.9468  0.4442
 1527TIP3   OH226139   1.824   3.092   2.234  0.3198 -0.0623  0.1472
 1527TIP3    H126140   1.872   3.158   2.184  1.7405 -0.8924  0.3575
 1527TIP3    H226141   1.779   3.040   2.167 -0.9168  1.1456 -0.0143
 1528TIP3   OH226142   1.187   6.788   1.347  0.0006  0.0074 -0.0163
 1528TIP3    H126143   1.237   6.767   1.425 -1.7060 -0.1674  1.0870
 1528TIP3    H226144   1.141   6.870   1.369 -1.2672 -0.5605 -0.4182
 1529TIP3   OH226145   2.168   3.727   5.208 -0.3038 -0.2951  0.4569
 1529TIP3    H126146   2.125   3.682   5.136  1.1258 -1.4275  0.2603
 1529TIP3    H226147   2.114   3.706   5.285 -2.4401  1.7891 -0.3635
 1530TIP3   OH226148   3.865   0.483   1.250 -0.4188 -0.2490  0.3283
 1530TIP3    H126149   3.949   0.456   1.213 -0.8589 -1.2861  0.0633
 1530TIP3    H226150   3.819   0.525   1.178 -0.6046 -0.7544  0.1535
 1531TIP3   OH226151   1.014   1.064   8.221  0.8425 -0.1973  0.1297
 1531TIP3    H126152   0.934   1.116   8.226  0.8986 -0.0470 -0.5250
 1531TIP3    H226153   1.082   1.126   8.193  0.8068 -0.7127 -1.1724
 1532TIP3   OH226154   6.431   4.275   2.291  0.1215 -0.9289 -0.0009
 1532TIP3    H126155   6.466   4.299   2.205 -2.4465 -1.2736 -1.2308
 1532TIP3    H226156   6.379   4.350   2.318  0.0089 -1.2659  0.7477
 1533TIP3   OH226157   2.811   6.324   1.548 -0.1981 -0.0040 -0.4747
 1533TIP3    H126158   2.720   6.297   1.542  0.2500 -2.3268  1.3854
 1533TIP3    H226159   2.816   6.376   1.628  0.2851 -0.9135  0.1063
 1534TIP3   OH226160   4.567   1.743   0.627  0.7873  0.2437  0.0524
 1534TIP3    H126161   4.596   1.731   0.536  0.1601  2.3609 -0.4828
 1534TIP3    H226162   4.594   1.833   0.648  1.2082 -0.3184  2.0962
 1535TIP3   OH226163   2.363   6.208   2.802  0.6913  0.5241  0.6553
 1535TIP3    H126164   2.277   6.229   2.839 -0.4751  1.4767 -2.2636
 1535TIP3    H226165   2.400   6.293   2.778  1.5894  0.0061  0.1386
 1536TIP3   OH226166   0.915   5.997   4.421  0.0986 -0.1365  0.5654
 1536TIP3    H126167   0.989   6.013   4.479  0.0953 -0.2195  0.5934
 1536TIP3    H226168   0.917   6.069   4.358 -0.0396  0.0782  0.8097
 1537TIP3   OH226169   4.923   0.239   2.347  0.0024 -0.8219  0.1980
 1537TIP3    H126170   4.932   0.297   2.422  0.0177  0.0783 -0.4793
 1537TIP3    H226171   4.917   0.298   2.272  2.4536 -1.7027 -0.7904
 1538TIP3   OH226172   4.716   5.253   2.914 -0.2852 -0.6319 -0.2545
 1538TIP3    H126173   4.707   5.159   2.932  0.0852 -0.3934  1.3287
 1538TIP3    H226174   4.639   5.275   2.862  0.0185 -1.9592 -1.3125
 1539TIP3   OH226175   2.354   3.958   3.715  0.2130  0.1291  0.5741
 1539TIP3    H126176   2.389   4.036   3.672  0.9835 -0.5014  0.0240
 1539TIP3    H226177   2.264   3.952   3.683 -0.2697  1.4552  1.5703
 1540TIP3   OH226178   0.970   3.386   0.645 -0.1875  0.0568  0.3963
 1540TIP3    H126179   0.935   3.388   0.556 -0.3893  1.4718  0.4884
 1540TIP3    H226180   0.900   3.348   0.698 -1.4697  2.4275  0.5088
 1541TIP3   OH226181   3.578   3.647   0.960 -0.2692  0.2170 -0.1247
 1541TIP3    H126182   3.600   3.699   1.037 -1.8594  0.0142  0.5066
 1541TIP3    H226183   3.577   3.556   0.992  1.3747 -0.1449 -0.9597
 1542TIP3   OH226184   6.903   4.627   4.411 -0.1889  0.6994 -0.0404
 1542TIP3    H126185   6.907   4.689   4.339  3.4101  1.9168  1.0100
 1542TIP3    H226186   6.909   4.541   4.369 -0.1570  1.2715 -1.2592
 1543TIP3   OH226187   3.645   5.705   0.904  0.4690 -0.1822  0.3669
 1543TIP3    H126188   3.693   5.633   0.863 -1.0743 -0.8939 -0.2621
 1543TIP3    H226189   3.573   5.723   0.844 -1.1989 -0.4758  2.1703
 1544TIP3   OH226190   4.158   4.772   1.582 -0.1582 -0.4813  0.1719
 1544TIP3    H126191   4.246   4.736   1.574  0.2154  0.2991  0.5795
 1544TIP3    H226192   4.170   4.867   1.573 -1.2537 -0.4864 -2.0041
 1545TIP3   OH226193   1.094   2.895   2.676 -0.0489 -0.2185  0.5559
 1545TIP3    H126194   1.140   2.814   2.699 -3.3865 -2.6160 -0.3507
 1545TIP3    H226195   1.086   2.892   2.581  0.2688  1.5114  0.4565
 1546TIP3   OH226196   0.348   2.563   1.247 -0.2247 -0.1890 -0.5176
 1546TIP3    H126197   0.357   2.549   1.153 -1.6449 -1.1637 -0.5523
 1546TIP3    H226198   0.282   2.499   1.274 -0.7655  0.9120  0.9167
 1547TIP3   OH226199   5.276   3.200   2.051  0.1289 -0.6555  0.0918
 1547TIP3    H126200   5.204   3.136   2.059 -2.1045  1.6626 -0.2644
 1547TIP3    H226201   5.240   3.281   2.087  2.0715  0.9770 -1.4140
 1548TIP3   OH226202   1.283   1.616   1.900  0.0281 -0.4312  0.1310
 1548TIP3    H126203   1.326   1.619   1.815 -0.2566 -1.4782 -0.0688
 1548TIP3    H226204   1.205   1.563   1.885  0.1088 -0.8426  1.1037
 1549TIP3   OH226205   2.448   2.813   4.467 -0.2186  0.3889  0.2471
 1549TIP3    H126206   2.490   2.728   4.453 -1.1370  0.0079 -0.3111
 1549TIP3    H226207   2.438   2.819   4.562  1.4233  0.6721  0.4350
 1550TIP3   OH226208   3.892   0.715   2.551  0.7584 -0.1829 -0.4892
 1550TIP3    H126209   3.911   0.807   2.568 -0.5998  0.0409 -0.0151
 1550TIP3    H226210   3.830   0.690   2.620  0.1068 -1.0869 -1.3650
 1551TIP3   OH226211   5.781   1.867   2.851 -0.0156 -0.4626  0.1303
 1551TIP3    H126212   5.825   1.794   2.808  1.5735  0.3394  0.3230
 1551TIP3    H226213   5.830   1.882   2.932  0.4738  1.5289 -0.4599
 1552TIP3   OH226214   0.789   1.285   0.578  0.3120 -0.1746 -0.6744
 1552TIP3    H126215   0.742   1.318   0.502  0.8723  0.9898 -0.5358
 1552TIP3    H226216   0.881   1.302   0.558  0.4134  0.8425  0.5730
 1553TIP3   OH226217   0.795   6.544   1.998  0.3475  0.3463 -0.3470
 1553TIP3    H126218   0.738   6.510   2.067 -3.5308  0.5516 -3.1141
 1553TIP3    H226219   0.799   6.638   2.014 -1.7237  0.6070 -1.0390
 1554TIP3   OH226220   2.382   5.277   1.357  0.5545  0.2038  0.7501
 1554TIP3    H126221   2.474   5.295   1.340  0.2164  1.3056 -0.0332
 1554TIP3    H226222   2.335   5.320   1.285 -0.4769 -2.0542 -0.0096
 1555TIP3   OH226223   0.662   5.494   1.620 -0.1077  0.1364  0.4246
 1555TIP3    H126224   0.746   5.448   1.620 -0.0136  0.3148  0.9331
 1555TIP3    H226225   0.633   5.494   1.711 -0.0658  1.1704  0.4464
 1556TIP3   OH226226   4.556   4.479   3.246  0.2252  0.4351  0.0306
 1556TIP3    H126227   4.528   4.515   3.162  0.7561  0.3001 -0.2084
 1556TIP3    H226228   4.521   4.540   3.312 -1.3175 -0.1531 -0.1991
 1557TIP3   OH226229   2.103   1.634   2.316 -0.5769 -0.4919 -0.1279
 1557TIP3    H126230   2.135   1.684   2.391 -1.6196  0.0100  0.0003
 1557TIP3    H226231   2.167   1.651   2.247 -1.0728  1.3606 -0.1996
 1558TIP3   OH226232   6.903   5.250   2.128 -0.5188 -0.0286  1.0597
 1558TIP3    H126233   6.984   5.199   2.130  0.1222  0.9438  0.4548
 1558TIP3    H226234   6.926   5.331   2.082 -1.8663  0.2073  0.7527
 1559TIP3   OH226235   4.623   1.436   2.499  0.3527  0.1606 -0.0620
 1559TIP3    H126236   4.543   1.388   2.479  0.4838 -0.3067  0.5051
 1559TIP3    H226237   4.657   1.463   2.414  0.0524 -0.3922 -0.3632
 1560TIP3   OH226238   4.505   4.934   3.255 -0.4994  0.0967  0.3440
 1560TIP3    H126239   4.533   4.923   3.165 -0.5102  3.8441 -0.2633
 1560TIP3    H226240   4.468   4.849   3.279 -0.1991 -1.1288 -3.0312
 1561TIP3   OH226241   2.144   6.239   8.419  0.3051  0.5663 -0.3191
 1561TIP3    H126242   2.217   6.179   8.434 -0.9609 -1.0169 -0.2710
 1561TIP3    H226243   2.075   6.208   8.477 -0.8943  1.1770 -1.3790
 1562TIP3   OH226244   3.567   5.926   4.420  0.5686 -0.4916  0.6785
 1562TIP3    H126245   3.577   5.993   4.352 -1.5076 -0.3880  0.4137
 1562TIP3    H226246   3.575   5.843   4.373 -0.6934 -0.4187  0.2971
 1563TIP3   OH226247   2.883   1.926   2.277  0.1654 -0.3658  0.0359
 1563TIP3    H126248   2.863   1.836   2.304 -1.7386  0.0886  0.2483
 1563TIP3    H226249   2.916   1.968   2.356 -0.4210 -0.4633  0.3375
 1564TIP3   OH226250   0.613   2.273   0.758 -0.4805 -0.5812 -0.2641
 1564TIP3    H126251   0.538   2.332   0.745 -0.1674 -0.2638 -0.6990
 1564TIP3    H226252   0.623   2.229   0.673  1.6994  1.6262 -1.2723
 1565TIP3   OH226253   4.672   1.795   1.796  0.7441 -0.4135 -0.4702
 1565TIP3    H126254   4.614   1.863   1.762  1.1895 -0.8485 -2.2110
 1565TIP3    H226255   4.658   1.796   1.891 -0.4211  1.0096 -0.6268
 1566TIP3   OH226256   2.235   6.256   2.403 -0.3707 -0.0078 -0.2926
 1566TIP3    H126257   2.273   6.342   2.383 -0.4786  0.0369 -0.3038
 1566TIP3    H226258   2.159   6.275   2.457 -0.2710 -0.1092 -0.1154
 1567TIP3   OH226259   5.689   3.764   3.029  0.2265 -0.2337 -0.0376
 1567TIP3    H126260   5.651   3.747   2.943  0.7377 -1.4013 -0.0521
 1567TIP3    H226261   5.774   3.720   3.027  0.9337  1.0736  0.5162
 1568TIP3   OH226262   4.576   2.625   5.459 -0.1465 -0.3135  0.4287
 1568TIP3    H126263   4.623   2.542   5.466 -0.8572 -0.5797  2.4893
 1568TIP3    H226264   4.621   2.672   5.388  0.7869 -2.0922 -0.2108
 1569TIP3   OH226265   1.411   3.294   4.099  0.1509 -0.4227 -0.1236
 1569TIP3    H126266   1.459   3.350   4.160  0.3653 -0.1909 -0.4994
 1569TIP3    H226267   1.386   3.353   4.028  0.2462 -0.7761 -0.4502
 1570TIP3   OH226268   4.758   5.867   0.606  0.1055 -0.2779 -0.0549
 1570TIP3    H126269   4.839   5.918   0.606 -0.5888  0.8991  1.1083
 1570TIP3    H226270   4.753   5.828   0.519  1.0739  0.9929 -0.6989
 1571TIP3   OH226271   0.177   2.750   0.782  0.3114 -0.0304 -0.3982
 1571TIP3    H126272   0.216   2.715   0.702  1.7721 -0.1675  0.3272
 1571TIP3    H226273   0.083   2.751   0.765  0.4724 -1.4519 -1.5460
 1572TIP3   OH226274   1.816   4.006   1.123 -0.0398  0.1513 -0.0002
 1572TIP3    H126275   1.846   4.082   1.174  1.9470 -0.9440  0.5918
 1572TIP3    H226276   1.897   3.966   1.091 -1.1299 -0.7424 -1.7748
 1573TIP3   OH226277   0.993   6.181   2.576  0.4253  0.2327 -0.4228
 1573TIP3    H126278   0.936   6.116   2.536  0.3966 -0.4404  0.6481
 1573TIP3    H226279   1.047   6.131   2.638  0.2527  1.2454  0.5925
 1574TIP3   OH226280   3.368   5.872   1.030  0.0870  0.3256 -0.2343
 1574TIP3    H126281   3.400   5.782   1.027 -1.2025 -0.1765  0.2952
 1574TIP3    H226282   3.275   5.864   1.052 -0.2607  1.7520 -1.0399
 1575TIP3   OH226283   1.490   1.194   2.101 -0.1753  0.1683 -0.1654
 1575TIP3    H126284   1.585   1.182   2.091 -0.3304 -0.3689 -1.0786
 1575TIP3    H226285   1.455   1.181   2.013 -0.9910  1.4520 -0.0564
 1576TIP3   OH226286   1.992   3.626   3.559  0.3011 -0.3047  0.6970
 1576TIP3    H126287   2.043   3.675   3.623 -0.0702  1.1787 -0.1021
 1576TIP3    H226288   1.913   3.679   3.544  0.8772 -0.0170 -1.7840
 1577TIP3   OH226289   2.871   6.041   0.360 -0.2291  0.3945 -0.3517
 1577TIP3    H126290   2.845   6.005   0.445  1.6930 -1.1229 -0.3642
 1577TIP3    H226291   2.880   5.965   0.303  2.4705  0.9355 -0.7864
 1578TIP3   OH226292   4.945   6.643   1.143  0.3160 -0.9486 -0.1909
 1578TIP3    H126293   4.898   6.560   1.141 -0.8955 -0.2930 -3.0454
 1578TIP3    H226294   5.037   6.618   1.152 -0.1515 -2.4490  0.9165
 1579TIP3   OH226295   2.715   5.039   2.345  0.2439  0.4642 -0.0382
 1579TIP3    H126296   2.729   5.116   2.400 -1.7256  1.1714 -0.4198
 1579TIP3    H226297   2.699   5.074   2.257 -1.4603 -0.2849 -0.0703
 1580TIP3   OH226298   4.772   2.907   2.300  0.0214  0.3714 -0.4268
 1580TIP3    H126299   4.688   2.890   2.343 -0.2556 -1.0644 -1.4771
 1580TIP3    H226300   4.752   2.903   2.207  1.0294  1.3063 -0.7033
 1581TIP3   OH226301   2.425   3.903   1.793  0.1651 -0.0756 -0.4879
 1581TIP3    H126302   2.472   3.866   1.718 -0.5098 -0.0195 -0.9464
 1581TIP3    H226303   2.421   3.997   1.775 -2.2967 -0.3280 -1.7486
 1582TIP3   OH226304   3.039   3.881   2.059  0.2009  0.0779  0.6379
 1582TIP3    H126305   3.106   3.928   2.109 -0.0586  1.6518 -0.4055
 1582TIP3    H226306   3.066   3.893   1.967 -0.4443 -0.9666  0.2982
 1583TIP3   OH226307   6.495   1.733   0.336  0.0246  0.4470 -0.5084
 1583TIP3    H126308   6.470   1.665   0.273  2.4551 -0.3301 -0.7532
 1583TIP3    H226309   6.423   1.735   0.399 -0.0313 -2.5788 -0.3452
 1584TIP3   OH226310   0.393   1.657   4.071  0.4435 -0.0273 -0.4381
 1584TIP3    H126311   0.373   1.634   4.162  2.1902  1.9843  0.5414
 1584TIP3    H226312   0.315   1.703   4.040 -0.9006 -2.2840 -0.6602
 1585TIP3   OH226313   2.292   3.834   4.316  0.5869 -0.2458 -0.0083
 1585TIP3    H126314   2.212   3.879   4.340  0.6323 -0.7425  1.1451
 1585TIP3    H226315   2.361   3.900   4.326  0.3472  0.1508 -0.9001
 1586TIP3   OH226316   3.879   2.465   2.048 -0.5536 -0.7574  0.4989
 1586TIP3    H126317   3.962   2.434   2.085  0.0424  1.6487  1.3579
 1586TIP3    H226318   3.865   2.408   1.972  2.0971 -1.0318  0.0964
 1587TIP3   OH226319   6.761   3.554   1.142  0.0217  0.1162  0.4673
 1587TIP3    H126320   6.850   3.520   1.128  0.0720 -0.5320  2.2094
 1587TIP3    H226321   6.757   3.632   1.086  1.3469 -0.3721 -0.3684
 1588TIP3   OH226322   1.852   3.225   0.850 -0.4893  0.0916 -0.2307
 1588TIP3    H126323   1.870   3.300   0.908  1.2153 -0.7166  0.3687
 1588TIP3    H226324   1.800   3.262   0.779 -1.7055  1.3521  1.2272
 1589TIP3   OH226325   4.563   4.956   1.555  0.6220  0.0765 -0.1189
 1589TIP3    H126326   4.471   4.983   1.563  1.0392  1.6055 -0.2304
 1589TIP3    H226327   4.562   4.890   1.485 -0.4606 -0.3491  0.2677
 1590TIP3   OH226328   0.075   3.860   4.440  0.1629 -0.2898 -0.1082
 1590TIP3    H126329   0.165   3.834   4.421  0.0886 -0.4368 -0.2584
 1590TIP3    H226330   0.021   3.795   4.395 -0.0226  0.1230 -0.4896
 1591TIP3   OH226331   0.540   1.198   0.023 -0.5154  0.0983  0.3979
 1591TIP3    H126332   0.633   1.205   0.043 -0.8873 -0.0123  2.3878
 1591TIP3    H226333   0.519   1.106   0.038 -0.9842  0.1514  0.0959
 1592TIP3   OH226334   6.553   5.099   3.339 -0.3029  0.2652 -0.1653
 1592TIP3    H126335   6.629   5.055   3.377 -0.3191  0.8626  0.5916
 1592TIP3    H226336   6.504   5.029   3.296 -0.8838 -0.6871  1.9006
 1593TIP3   OH226337   1.810   0.356   1.307  0.1868  0.3292  0.5984
 1593TIP3    H126338   1.861   0.427   1.269 -0.7820  1.4443  1.3193
 1593TIP3    H226339   1.721   0.371   1.277 -0.2165  0.0314  1.6022
 1594TIP3   OH226340   3.065   3.575   1.702 -0.8847 -0.0717 -0.3590
 1594TIP3    H126341   3.120   3.648   1.730 -2.4976  1.0827 -0.0537
 1594TIP3    H226342   2.976   3.606   1.717 -1.6963 -1.0907 -2.7183
 1595TIP3   OH226343   2.319   2.709   0.225  0.5274 -0.2691  0.1547
 1595TIP3    H126344   2.365   2.738   0.147 -0.1538  0.9757  0.1861
 1595TIP3    H226345   2.385   2.711   0.294  0.5347  1.1986  0.1392
 1596TIP3   OH226346   2.460   2.273   0.031 -0.6172  0.2540 -1.0309
 1596TIP3    H126347   2.532   2.336   0.035 -0.3279  0.1251 -3.1233
 1596TIP3    H226348   2.496   2.192   0.065 -0.7647  0.9687  0.9580
 1597TIP3   OH226349   5.568   5.457   2.324  0.8153 -0.3372 -0.2074
 1597TIP3    H126350   5.593   5.429   2.236  0.2640 -0.1441 -0.4287
 1597TIP3    H226351   5.511   5.532   2.310 -0.1973 -0.9923  0.2518
 1598TIP3   OH226352   4.829   6.171   3.850  0.3161  0.0012  0.3872
 1598TIP3    H126353   4.811   6.082   3.821 -1.0236  0.6099 -0.7870
 1598TIP3    H226354   4.891   6.205   3.786 -1.0694  0.6799 -0.6451
 1599TIP3   OH226355   3.913   4.643   1.031  0.0862  0.1664  0.0691
 1599TIP3    H126356   3.969   4.602   0.965 -0.5070  0.6428 -0.7496
 1599TIP3    H226357   3.834   4.668   0.983  0.0893  1.5036  0.7233
 1600TIP3   OH226358   4.149   5.551   2.329  0.2277 -0.1599 -0.1827
 1600TIP3    H126359   4.100   5.631   2.308 -0.7214 -0.6865 -0.0150
 1600TIP3    H226360   4.229   5.558   2.277  1.9062  2.6200  2.4278
 1601TIP3   OH226361   3.562   5.573   1.545  0.4794 -0.2554 -0.0385
 1601TIP3    H126362   3.582   5.550   1.636 -0.2306  1.9068  0.7300
 1601TIP3    H226363   3.494   5.640   1.552 -0.6336 -1.0475 -2.2405
 1602TIP3   OH226364   5.556   4.996   2.293 -0.3039  0.1948  0.0168
 1602TIP3    H126365   5.538   5.018   2.384 -2.6305 -0.1261 -0.3169
 1602TIP3    H226366   5.608   5.069   2.261 -1.4526  1.4835  0.9870
 1603TIP3   OH226367   3.299   2.246   0.195  0.5202  0.3837  0.2906
 1603TIP3    H126368   3.322   2.190   0.121  0.9520 -0.6917  1.2187
 1603TIP3    H226369   3.321   2.334   0.166  1.8935 -0.1595 -0.3975
 1604TIP3   OH226370   5.042   1.010   2.685 -0.4849  1.0138  0.0379
 1604TIP3    H126371   4.950   1.022   2.709 -0.2315  1.9982  0.5466
 1604TIP3    H226372   5.039   0.951   2.609 -1.5193  0.8775  0.1722
 1605TIP3   OH226373   1.959   3.225   2.446 -0.4584 -0.5086  0.3639
 1605TIP3    H126374   1.939   3.147   2.393 -1.3490 -1.4924  2.0586
 1605TIP3    H226375   2.001   3.190   2.525  0.0864  0.8404  0.6998
 1606TIP3   OH226376   3.425   5.423   1.933 -0.3878 -0.0819 -0.2166
 1606TIP3    H126377   3.397   5.353   1.992 -0.5987 -1.7447 -2.1802
 1606TIP3    H226378   3.354   5.487   1.936 -1.0046 -0.7767  0.3148
 1607TIP3   OH226379   4.768   3.761   2.752  0.5586  0.8820 -0.5011
 1607TIP3    H126380   4.692   3.748   2.810  0.0822  3.2742 -0.4541
 1607TIP3    H226381   4.840   3.783   2.812  0.8002  0.5035 -0.6538
 1608TIP3   OH226382   6.320   0.092   2.593 -0.0216  0.2620  0.1443
 1608TIP3    H126383   6.289   0.103   2.683  0.3025  0.1418  0.2726
 1608TIP3    H226384   6.415   0.106   2.598 -0.0455  0.6151 -0.2405
 1609TIP3   OH226385   6.604   2.274   0.849 -0.1009 -0.4314  0.2302
 1609TIP3    H126386   6.555   2.336   0.902  1.5136  1.5224 -0.4531
 1609TIP3    H226387   6.550   2.260   0.771  0.1655  1.3183 -0.2986
 1610TIP3   OH226388   3.730   0.911   2.070  0.7472  0.2285  0.0363
 1610TIP3    H126389   3.757   0.902   2.161  2.3375 -1.7335 -0.5669
 1610TIP3    H226390   3.699   1.002   2.063  1.1192  0.5927  2.3570
 1611TIP3   OH226391   5.290   2.739   2.360 -0.4490  0.4263  0.1003
 1611TIP3    H126392   5.197   2.762   2.366 -0.3211  0.7441  1.0653
 1611TIP3    H226393   5.298   2.658   2.411 -0.1763  0.4580  0.1086
 1612TIP3   OH226394   4.356   3.059   4.388  0.0581 -0.5907 -0.1194
 1612TIP3    H126395   4.305   3.042   4.308 -2.4203 -2.5019  1.6945
 1612TIP3    H226396   4.406   2.979   4.401 -0.4328 -0.7547  0.8123
 1613TIP3   OH226397   1.092   5.469   1.090 -0.0147  0.6259 -0.1807
 1613TIP3    H126398   1.046   5.546   1.055  0.8442  1.1950 -0.0964
 1613TIP3    H226399   1.036   5.395   1.066 -0.6173  1.2275 -0.6901
 1614TIP3   OH226400   2.751   3.189   2.006  0.0300 -0.2429  0.2725
 1614TIP3    H126401   2.710   3.150   2.083  0.3877 -0.8550  0.1622
 1614TIP3    H226402   2.841   3.156   2.008 -0.2140 -1.0651 -0.9227
 1615TIP3   OH226403   6.061   4.343   4.100 -0.6268  0.3888  0.0809
 1615TIP3    H126404   6.119   4.377   4.169  1.2746 -1.7407 -0.3283
 1615TIP3    H226405   6.015   4.270   4.141 -1.0665  0.4281 -0.3334
 1616TIP3   OH226406   3.279   1.177   4.811  0.1547  0.1909 -0.6051
 1616TIP3    H126407   3.206   1.127   4.846  1.2328 -1.1856 -0.2262
 1616TIP3    H226408   3.283   1.255   4.866 -0.3710 -0.2315  0.0519
 1617TIP3   OH226409   1.793   1.470   1.233  0.4587  0.0240  0.0606
 1617TIP3    H126410   1.768   1.556   1.266  0.5403  0.3051 -0.6035
 1617TIP3    H226411   1.749   1.464   1.148  1.3596 -0.1335 -0.3986
 1618TIP3   OH226412   0.541   2.945   0.590 -0.6269 -0.4496 -0.9071
 1618TIP3    H126413   0.534   3.037   0.616  1.0766 -0.6868  0.6085
 1618TIP3    H226414   0.454   2.922   0.559 -1.6937  1.0642  0.7819
 1619TIP3   OH226415   1.052   6.596   3.654 -0.0087  0.6764 -0.1239
 1619TIP3    H126416   0.977   6.563   3.605 -1.3575  1.8259  1.0796
 1619TIP3    H226417   1.023   6.596   3.745  1.0595  2.1340  0.2556
 1620TIP3   OH226418   1.273   6.080   0.803 -0.4022  0.3682 -0.0443
 1620TIP3    H126419   1.229   6.050   0.724 -2.7471 -1.4369  1.7720
 1620TIP3    H226420   1.211   6.142   0.843  0.2930  0.5258  0.8317
 1621TIP3   OH226421   3.532   6.568   2.679 -0.2089  0.1276 -0.5871
 1621TIP3    H126422   3.459   6.506   2.681 -0.1016  0.0271  0.2596
 1621TIP3    H226423   3.582   6.549   2.758 -1.3480  2.7256  0.8391
 1622TIP3   OH226424   1.208   6.104   3.785  0.1624  0.1554 -0.0015
 1622TIP3    H126425   1.135   6.139   3.836  1.3077  2.7361  0.0428
 1622TIP3    H226426   1.260   6.055   3.848  0.3372  1.3693  0.8415
 1623TIP3   OH226427   5.932   0.560   3.832  0.1645  0.3680 -0.0148
 1623TIP3    H126428   5.936   0.652   3.856  1.3408  0.2995  0.1133
 1623TIP3    H226429   6.012   0.545   3.781 -0.1408 -0.5206 -0.2578
 1624TIP3   OH226430   6.115   4.084   3.785  0.3234 -0.5158 -0.5831
 1624TIP3    H126431   6.044   4.126   3.833  1.7324  1.4336 -0.0498
 1624TIP3    H226432   6.094   4.099   3.693 -0.7520 -1.4254 -0.5095
 1625TIP3   OH226433   4.970   1.793   3.445 -0.1089  0.1371  0.3927
 1625TIP3    H126434   4.944   1.780   3.354  1.9431 -1.0533 -0.0856
 1625TIP3    H226435   5.061   1.820   3.440  0.3771 -1.0196  2.1259
 1626TIP3   OH226436   2.631   2.275   2.964  0.5122  0.5756  0.0125
 1626TIP3    H126437   2.617   2.343   3.030  0.5032  1.0546 -0.4759
 1626TIP3    H226438   2.543   2.250   2.936  0.2972 -1.9838  2.4897
 1627TIP3   OH226439   0.552   6.091   3.085  0.0900 -0.5355 -0.3590
 1627TIP3    H126440   0.632   6.128   3.049  0.0733  0.2535  0.3733
 1627TIP3    H226441   0.541   6.135   3.169 -0.3569 -1.6612  0.1958
 1628TIP3   OH226442   6.368   3.625   2.495  0.1189 -0.3842 -0.4155
 1628TIP3    H126443   6.457   3.652   2.518  0.0086  0.5570 -1.0227
 1628TIP3    H226444   6.375   3.588   2.407 -0.2184  0.5265 -0.8390
 1629TIP3   OH226445   2.420   3.542   3.052  0.3471 -0.4347  0.5326
 1629TIP3    H126446   2.341   3.589   3.023  0.2660 -1.0557 -0.2792
 1629TIP3    H226447   2.397   3.508   3.138  0.0029  0.0316  0.6337
 1630TIP3   OH226448   3.697   0.851   3.011 -0.1860 -0.0417 -0.2404
 1630TIP3    H126449   3.628   0.835   2.946 -0.0211  1.2466 -0.7742
 1630TIP3    H226450   3.655   0.834   3.095 -0.9009 -0.1508 -0.6100
 1631TIP3   OH226451   1.619   6.065   2.911  0.9289 -0.4624 -0.1905
 1631TIP3    H126452   1.654   6.138   2.859  0.8814 -0.0830  0.3084
 1631TIP3    H226453   1.627   6.094   3.002  0.1909 -0.7661 -0.0259
 1632TIP3   OH226454   4.520   0.939   0.545 -0.6207 -0.2623 -0.7955
 1632TIP3    H126455   4.430   0.913   0.568 -0.7811 -1.1360 -2.2950
 1632TIP3    H226456   4.509   1.011   0.484 -0.3154 -0.6868 -1.3563
 1633TIP3   OH226457   4.667   2.951   3.321  0.2400  0.1813 -0.2773
 1633TIP3    H126458   4.689   3.042   3.299  0.2261  0.6209  1.4050
 1633TIP3    H226459   4.751   2.905   3.322  0.7199  0.9650  2.1701
 1634TIP3   OH226460   2.242   6.205   0.761 -0.4291 -0.4693 -0.0414
 1634TIP3    H126461   2.313   6.203   0.825 -0.3352 -1.3252 -0.1647
 1634TIP3    H226462   2.286   6.206   0.676 -0.5671 -0.9457 -0.1173
 1635TIP3   OH226463   0.618   4.062   1.426  0.4879 -0.3141 -0.0490
 1635TIP3    H126464   0.696   4.008   1.410  0.9671  0.5673 -0.8054
 1635TIP3    H226465   0.557   4.037   1.357  0.7276  0.1242 -0.4275
 1636TIP3   OH226466   0.345   3.314   2.325 -0.1211 -0.1172  0.1635
 1636TIP3    H126467   0.328   3.246   2.260 -0.0682 -0.9788  1.0273
 1636TIP3    H226468   0.424   3.359   2.293  0.3547 -1.0325  0.0265
 1637TIP3   OH226469   5.199   6.619   2.681  0.1880 -0.4989  0.2717
 1637TIP3    H126470   5.134   6.620   2.610  0.4814 -1.8589 -0.0496
 1637TIP3    H226471   5.203   6.710   2.711  1.5613  0.5849 -2.8085
 1638TIP3   OH226472   6.255   3.634   3.141 -0.1175 -0.6240 -0.2172
 1638TIP3    H126473   6.215   3.557   3.180 -1.5464 -0.1231 -0.5943
 1638TIP3    H226474   6.312   3.670   3.209 -0.2732 -1.4114  0.3333
 1639TIP3   OH226475   0.530   5.886   1.470  0.2173 -0.5400  0.1749
 1639TIP3    H126476   0.453   5.943   1.468 -0.1374 -1.0413 -1.4907
 1639TIP3    H226477   0.536   5.858   1.562 -0.8675  0.4492  0.5752
 1640TIP3   OH226478   3.158   1.150   1.133 -0.5107 -0.4059  0.1047
 1640TIP3    H126479   3.247   1.119   1.119 -0.0316  0.6074  0.7913
 1640TIP3    H226480   3.152   1.166   1.228 -0.9425  0.8963 -0.1158
 1641TIP3   OH226481   0.812   0.229   2.809 -0.0093  0.3375  0.2066
 1641TIP3    H126482   0.815   0.325   2.808  1.7582  0.3755  2.1112
 1641TIP3    H226483   0.817   0.206   2.902  3.3998 -1.5994 -0.2987
 1642TIP3   OH226484   4.675   2.629   5.186  0.5766 -0.3525 -0.0788
 1642TIP3    H126485   4.733   2.681   5.129  0.6462 -1.7556 -1.3327
 1642TIP3    H226486   4.706   2.539   5.175  1.1235 -0.6004  2.8369
 1643TIP3   OH226487   1.091   2.617   2.504  0.2752  0.1818  0.0447
 1643TIP3    H126488   1.047   2.535   2.482  0.5271 -0.5173  1.9606
 1643TIP3    H226489   1.021   2.682   2.510  0.0229  0.0334 -1.0119
 1644TIP3   OH226490   5.823   6.543   2.563  0.3494  0.1091 -0.8592
 1644TIP3    H126491   5.799   6.628   2.527 -0.0286  0.3496 -0.0632
 1644TIP3    H226492   5.913   6.529   2.533  1.4871  2.0965  1.2666
 1645TIP3   OH226493   3.474   3.496   3.621  0.4560  0.1867 -0.1989
 1645TIP3    H126494   3.394   3.489   3.673  0.0323  1.3384 -0.6652
 1645TIP3    H226495   3.449   3.461   3.535 -0.0937  2.1606 -0.8860
 1646TIP3   OH226496   4.978   4.127   1.834 -0.0080 -0.0281 -0.5517
 1646TIP3    H126497   4.916   4.198   1.817 -1.3469 -0.5587  1.6786
 1646TIP3    H226498   4.925   4.057   1.874  1.8112 -0.9916  0.3343
 1647TIP3   OH226499   1.158   1.897   2.596 -0.9321 -0.3914  0.3806
 1647TIP3    H126500   1.243   1.856   2.583 -0.9282 -0.8377  1.7116
 1647TIP3    H226501   1.124   1.858   2.677 -2.2008  0.1144  0.1206
 1648TIP3   OH226502   3.240   2.192   2.980 -0.7353  0.2827 -0.6042
 1648TIP3    H126503   3.299   2.264   3.003 -1.2345  0.3970  0.3417
 1648TIP3    H226504   3.160   2.210   3.028 -0.4576 -1.5560  0.6336
 1649TIP3   OH226505   1.475   0.965   2.960  0.4357 -0.7120  0.1434
 1649TIP3    H126506   1.553   0.943   3.011 -0.1567 -2.1795  0.4640
 1649TIP3    H226507   1.403   0.924   3.007 -0.3131 -0.8794 -1.0940
 1650TIP3   OH226508   0.672   1.719   4.155 -0.4572 -0.0024  0.7523
 1650TIP3    H126509   0.597   1.662   4.142  1.4797 -2.8777  1.1835
 1650TIP3    H226510   0.678   1.729   4.250 -0.6429  0.7831  0.6900
 1651TIP3   OH226511   2.432   3.402   0.616  0.6506 -0.8290  0.1003
 1651TIP3    H126512   2.421   3.313   0.582  1.6168 -0.6695 -0.6977
 1651TIP3    H226513   2.437   3.391   0.711  0.1560 -1.5586  0.0520
 1652TIP3   OH226514   2.079   5.128   2.462 -0.0128 -0.4060  0.6794
 1652TIP3    H126515   2.134   5.178   2.522  0.5294  0.3567 -0.4044
 1652TIP3    H226516   2.139   5.099   2.393 -0.7596 -0.4665  0.0357
 1653TIP3   OH226517   3.798   1.304   0.351  0.0609  0.0344  0.7817
 1653TIP3    H126518   3.754   1.340   0.428  1.0319  0.8682  0.9579
 1653TIP3    H226519   3.848   1.229   0.384  0.9279  0.7305  1.0809
 1654TIP3   OH226520   2.181   5.817   2.302 -0.0120  0.2996  0.6967
 1654TIP3    H126521   2.151   5.760   2.372  0.0129  1.2228  1.4863
 1654TIP3    H226522   2.273   5.793   2.289 -0.0946 -0.0664  0.7806
 1655TIP3   OH226523   2.653   2.598   4.877  0.6399 -0.6633  0.4056
 1655TIP3    H126524   2.741   2.605   4.840  0.5782  2.5919  0.5585
 1655TIP3    H226525   2.659   2.643   4.961 -0.5093 -3.1615  1.9072
 1656TIP3   OH226526   4.249   2.294   2.975 -0.2759  0.2061  0.0596
 1656TIP3    H126527   4.314   2.238   3.017  0.2900  0.0588 -0.9920
 1656TIP3    H226528   4.169   2.280   3.026 -0.0534 -1.2920  0.0338
 1657TIP3   OH226529   2.380   0.288   2.495  0.5366 -0.1063  1.0759
 1657TIP3    H126530   2.373   0.216   2.558  1.7641  0.2451  1.6393
 1657TIP3    H226531   2.290   0.320   2.486  0.0565 -1.3330  1.2457
 1658TIP3   OH226532   3.099   2.077   4.752  0.4904  0.4108  0.1139
 1658TIP3    H126533   3.014   2.068   4.708  2.0205  0.5142 -3.1542
 1658TIP3    H226534   3.089   2.029   4.834 -2.0301 -1.5433 -1.2044
 1659TIP3   OH226535   3.449   2.497   1.371 -0.1419  0.2162  0.4429
 1659TIP3    H126536   3.426   2.588   1.355  0.4871  0.2679 -0.2399
 1659TIP3    H226537   3.503   2.499   1.450  0.2687  0.4979  0.1592
 1660TIP3   OH226538   1.134   6.048   2.760  0.0174 -0.2931 -0.1927
 1660TIP3    H126539   1.183   5.967   2.779  1.2047  0.3400 -0.4411
 1660TIP3    H226540   1.119   6.087   2.846 -0.4319 -0.6953 -0.0816
 1661TIP3   OH226541   2.515   0.957   4.708  0.0382 -0.2844 -0.0322
 1661TIP3    H126542   2.452   1.017   4.748 -1.8078 -2.3451  0.3662
 1661TIP3    H226543   2.566   0.924   4.782  1.4537  1.1294 -0.3164
 1662TIP3   OH226544   6.040   2.343   2.385 -0.0166  0.1698 -0.3318
 1662TIP3    H126545   6.045   2.316   2.293 -0.0760  0.1265 -0.3222
 1662TIP3    H226546   6.095   2.279   2.431  0.2908  0.3959 -0.3818
 1663TIP3   OH226547   1.294   2.864   0.582  0.9271  0.0540  0.0924
 1663TIP3    H126548   1.286   2.816   0.499  1.7043  0.2727 -0.1164
 1663TIP3    H226549   1.254   2.949   0.565 -0.8720 -0.6439  0.5988
 1664TIP3   OH226550   4.956   4.453   1.906 -0.0498 -0.6030 -0.0279
 1664TIP3    H126551   4.891   4.506   1.860 -0.3375 -1.3408 -0.4928
 1664TIP3    H226552   5.030   4.447   1.845  1.5182  2.1938  1.3801
 1665TIP3   OH226553   0.024   4.883   3.860  0.5334 -0.1353  0.5944
 1665TIP3    H126554  -0.053   4.903   3.913 -0.1899  0.4196 -0.6074
 1665TIP3    H226555   0.017   4.789   3.843 -0.9086  0.1957 -0.9697
 1666TIP3   OH226556   0.226   5.531   3.350  0.0693 -0.1491  0.3712
 1666TIP3    H126557   0.171   5.604   3.321  1.4545  1.5734  1.8542
 1666TIP3    H226558   0.314   5.568   3.355  1.4486 -2.7628 -1.7759
 1667TIP3   OH226559   1.269   1.799   4.180  0.1662  0.3800  0.2488
 1667TIP3    H126560   1.268   1.891   4.155  0.6928  0.7200  1.3999
 1667TIP3    H226561   1.294   1.799   4.273 -3.1011 -0.7140  1.2510
 1668TIP3   OH226562   0.356   0.797   0.982 -0.6870  0.7787 -0.0380
 1668TIP3    H126563   0.290   0.740   0.943 -1.2299  0.3131  1.4850
 1668TIP3    H226564   0.363   0.871   0.922 -0.0012 -0.8346 -2.0610
 1669TIP3   OH226565   5.011   1.335   1.914 -0.4575 -0.9272  0.3302
 1669TIP3    H126566   5.096   1.338   1.871 -0.4935  1.7752  0.2370
 1669TIP3    H226567   4.998   1.243   1.936  2.4013 -1.4562  0.2046
 1670TIP3   OH226568   6.074   2.080   5.101  0.4247  0.0293 -0.0141
 1670TIP3    H126569   6.020   2.067   5.179  0.4457 -1.7320 -0.2456
 1670TIP3    H226570   6.091   2.174   5.099 -2.1868  0.5740  0.3480
 1671TIP3   OH226571   6.499   1.778   0.905 -0.0530  0.0787 -0.6443
 1671TIP3    H126572   6.499   1.696   0.955  0.4334 -0.1149 -0.9527
 1671TIP3    H226573   6.525   1.752   0.816 -1.1995  0.3697 -1.0874
 1672TIP3   OH226574   3.875   4.317   1.061 -0.4061  0.2849  0.3608
 1672TIP3    H126575   3.872   4.223   1.077  1.3161 -0.0601 -1.0850
 1672TIP3    H226576   3.946   4.349   1.116 -0.0424  0.5036 -0.2336
 1673TIP3   OH226577   0.573   6.216   1.701  0.1675 -0.1083 -0.0564
 1673TIP3    H126578   0.654   6.166   1.711 -0.2924 -0.7676  0.4430
 1673TIP3    H226579   0.568   6.269   1.781 -1.4509 -2.3827  1.4677
 1674TIP3   OH226580   2.157   4.273   2.131  0.5715  0.6187  0.2293
 1674TIP3    H126581   2.239   4.263   2.180  2.1316 -0.6308 -2.3783
 1674TIP3    H226582   2.180   4.330   2.058 -0.5933 -0.5147 -1.0906
 1675TIP3   OH226583   3.805   2.294   0.776  0.0464  0.1762 -0.4094
 1675TIP3    H126584   3.803   2.244   0.694  0.7243  0.3798 -0.5551
 1675TIP3    H226585   3.897   2.318   0.787 -0.2040  1.0419 -0.1329
 1676TIP3   OH226586   4.434   4.341   1.670  0.5201 -0.3053 -0.0202
 1676TIP3    H126587   4.379   4.273   1.709 -0.2963  0.6589  0.5504
 1676TIP3    H226588   4.377   4.383   1.605  0.1339  1.4449  1.3540
 1677TIP3   OH226589   3.361   6.079   1.533  0.0061  0.0462 -0.6134
 1677TIP3    H126590   3.412   6.009   1.494 -0.9059 -0.6570 -0.5824
 1677TIP3    H226591   3.290   6.034   1.579  0.1357  0.9261  0.4925
 1678TIP3   OH226592   4.632   1.795   2.579  0.0597  0.3485  0.2578
 1678TIP3    H126593   4.561   1.775   2.519  1.9484 -0.9274 -1.7242
 1678TIP3    H226594   4.702   1.830   2.523  1.5972 -0.0797  1.8134
 1679TIP3   OH226595   3.793   2.617   3.235  0.0680  0.7969 -0.6616
 1679TIP3    H126596   3.717   2.614   3.176  2.7791 -0.8051 -4.4707
 1679TIP3    H226597   3.812   2.525   3.254 -0.1262  1.2452  2.1039
 1680TIP3   OH226598   6.111   1.039   1.027  0.4698 -0.4902 -0.0548
 1680TIP3    H126599   6.112   1.035   1.123  1.1698 -0.4790 -0.0588
 1680TIP3    H226600   6.156   0.960   0.999  0.8167 -0.1852 -0.3655
 1681TIP3   OH226601   5.341   4.968   3.346  0.0781  0.5446 -0.2553
 1681TIP3    H126602   5.400   5.040   3.369  0.8769 -0.0095 -0.5223
 1681TIP3    H226603   5.358   4.951   3.254  0.2063 -0.2461 -0.0993
 1682TIP3   OH226604   2.580   0.462   2.858 -0.1866 -0.0365 -0.0449
 1682TIP3    H126605   2.623   0.443   2.941 -4.6477 -2.8581  1.9912
 1682TIP3    H226606   2.584   0.379   2.810 -2.8055 -0.3564  0.1362
 1683TIP3   OH226607   3.066   3.456   1.201 -0.1679  0.5953 -0.1407
 1683TIP3    H126608   3.040   3.492   1.286  1.2522  2.3719 -0.3998
 1683TIP3    H226609   2.984   3.438   1.156 -0.9417 -0.1291  1.4809
 1684TIP3   OH226610   6.285   6.728   2.561  0.0300  0.2875 -0.1513
 1684TIP3    H126611   6.298   6.822   2.569 -1.4239  0.4142  1.2143
 1684TIP3    H226612   6.202   6.719   2.513  0.6499 -0.3391 -1.1549
 1685TIP3   OH226613   5.006   1.961   1.342 -0.1758 -0.2453 -0.5113
 1685TIP3    H126614   5.029   1.925   1.256  0.1611 -1.0126 -0.1015
 1685TIP3    H226615   4.929   1.911   1.370 -0.4804  0.2211 -0.5019
 1686TIP3   OH226616   4.569   2.542   1.302  0.0179  0.2792 -0.1847
 1686TIP3    H126617   4.556   2.624   1.350 -1.9400  0.6302 -1.1803
 1686TIP3    H226618   4.481   2.504   1.296  0.5637 -0.8779 -1.5112
 1687TIP3   OH226619   1.714   5.010   2.298 -0.6489 -0.1089 -0.0220
 1687TIP3    H126620   1.716   5.064   2.219  0.9352 -1.6696 -1.1184
 1687TIP3    H226621   1.653   4.939   2.278 -1.5663  0.4184  0.8372
 1688TIP3   OH226622   6.311   5.275   3.661 -0.4595 -0.2309  0.0786
 1688TIP3    H126623   6.282   5.304   3.748  1.1452  1.8293  0.0078
 1688TIP3    H226624   6.230   5.260   3.613 -1.3963 -1.6644  1.9490
 1689TIP3   OH226625   6.711   3.441   2.523  0.0198  0.7445  0.5245
 1689TIP3    H126626   6.664   3.428   2.605  1.1924 -0.4712  1.0316
 1689TIP3    H226627   6.795   3.479   2.549  1.3178 -1.6914  0.1808
 1690TIP3   OH226628   0.886   0.603   1.751 -0.3089 -0.2088 -0.3452
 1690TIP3    H126629   0.941   0.582   1.827  3.3980 -1.0025 -2.9579
 1690TIP3    H226630   0.892   0.699   1.745 -0.0371 -0.2002 -0.0368
 1691TIP3   OH226631   1.424   5.202   2.386 -1.1227 -0.2246 -0.1545
 1691TIP3    H126632   1.430   5.113   2.351 -0.2283  0.6743 -2.5231
 1691TIP3    H226633   1.482   5.202   2.462 -0.0635 -1.3423 -0.9203
 1692TIP3   OH226634   6.631   4.382   0.568  0.6325  0.3394  0.0112
 1692TIP3    H126635   6.636   4.290   0.543 -0.5648  0.1114  0.5051
 1692TIP3    H226636   6.575   4.422   0.500  2.6847  1.1551 -1.2988
 1693TIP3   OH226637   0.890   0.028   3.170  0.1335 -0.2401  0.1198
 1693TIP3    H126638   0.964   0.081   3.201  1.0011 -0.5295 -1.3622
 1693TIP3    H226639   0.923  -0.016   3.092 -1.4533 -0.7846 -0.2834
 1694TIP3   OH226640   4.810   6.179   2.655 -1.1674  0.5187 -0.1922
 1694TIP3    H126641   4.813   6.083   2.660 -3.3746  0.3505 -1.2061
 1694TIP3    H226642   4.811   6.199   2.562  2.6847  1.7422 -0.0517
 1695TIP3   OH226643   4.609   1.215   0.587 -0.5122  0.0465  0.1651
 1695TIP3    H126644   4.692   1.174   0.562 -1.2208 -2.2446  1.2900
 1695TIP3    H226645   4.589   1.275   0.515  0.5107 -1.7724 -1.7356
 1696TIP3   OH226646   2.016   6.066   2.701  0.4158  0.4658  0.5251
 1696TIP3    H126647   2.093   6.009   2.698  1.1485  1.3339  1.8617
 1696TIP3    H226648   1.951   6.022   2.646  1.0539 -1.5121  1.2612
 1697TIP3   OH226649   6.346   2.842   2.164  0.1829  0.1967  0.3804
 1697TIP3    H126650   6.437   2.841   2.195  0.0999 -0.7396  0.6526
 1697TIP3    H226651   6.343   2.772   2.099 -0.1193  0.8609 -0.3165
 1698TIP3   OH226652   2.433   6.486   3.817  0.0772  0.0477 -0.1713
 1698TIP3    H126653   2.401   6.513   3.731 -2.3028 -1.1250  0.2800
 1698TIP3    H226654   2.409   6.394   3.824  0.2670  0.1035  1.7489
 1699TIP3   OH226655   0.579   3.346   3.884 -0.4217 -0.0991  0.7653
 1699TIP3    H126656   0.640   3.277   3.908 -0.9525 -1.1385 -0.7385
 1699TIP3    H226657   0.595   3.416   3.949  3.5418  0.4268 -0.4977
 1700TIP3   OH226658   1.915   4.816   1.604 -0.0971 -0.0588 -0.2173
 1700TIP3    H126659   1.931   4.728   1.570 -0.0856 -0.4810  0.8201
 1700TIP3    H226660   1.907   4.871   1.527 -1.9285 -1.2737 -0.9543
 1701TIP3   OH226661   6.397   6.324   3.193 -0.0179  0.0186 -0.1398
 1701TIP3    H126662   6.312   6.333   3.237  1.4521 -0.2044  3.0112
 1701TIP3    H226663   6.451   6.393   3.230  2.1319 -1.9044  0.5193
 1702TIP3   OH226664   0.817   4.080   0.365  0.5961  0.0127 -0.1149
 1702TIP3    H126665   0.822   3.995   0.409 -1.1691  0.5167  1.1766
 1702TIP3    H226666   0.765   4.064   0.287  1.9290 -0.4564 -0.9374
 1703TIP3   OH226667   4.105   1.299   1.986 -1.0878 -0.4415 -0.7112
 1703TIP3    H126668   4.157   1.377   2.008 -1.1008 -0.8131  0.7282
 1703TIP3    H226669   4.048   1.328   1.914 -1.0182  0.8473 -0.2716
 1704TIP3   OH226670   2.577   6.056   0.989 -0.2626  0.5280 -0.2366
 1704TIP3    H126671   2.505   6.111   0.958  0.1636  1.3501  0.2207
 1704TIP3    H226672   2.534   5.984   1.036 -0.7730  2.4976  2.5549
 1705TIP3   OH226673   0.920   2.672   3.839  1.1181  1.1622  0.3493
 1705TIP3    H126674   0.982   2.742   3.820  0.5257  1.7852  0.6471
 1705TIP3    H226675   0.846   2.716   3.881 -0.1065  0.6429 -1.1502
 1706TIP3   OH226676   3.665   1.924   3.002 -0.1101 -0.1516  0.7415
 1706TIP3    H126677   3.576   1.905   2.973  0.6531  1.1338 -3.0004
 1706TIP3    H226678   3.657   2.007   3.049 -0.8595  0.2525 -0.0658
 1707TIP3   OH226679   4.759   6.072   2.998 -0.3116  0.1286 -0.1780
 1707TIP3    H126680   4.701   6.149   3.000  1.4892  1.5620  1.1520
 1707TIP3    H226681   4.842   6.106   2.965  0.0272 -1.6988 -1.3359
 1708TIP3   OH226682   3.599   0.633   0.415 -0.2062 -0.4894  0.6234
 1708TIP3    H126683   3.524   0.684   0.445 -0.1287 -0.5755  0.9667
 1708TIP3    H226684   3.594   0.551   0.464  0.0350 -0.5531  0.5446
 1709TIP3   OH226685   0.035   1.873   2.685 -0.1838 -0.8353 -0.1842
 1709TIP3    H126686   0.056   1.965   2.699  0.1591 -0.6548 -1.7973
 1709TIP3    H226687   0.030   1.836   2.774  0.3899  0.5608  0.4504
 1710TIP3   OH226688   4.598   6.362   3.705  0.5241 -0.2467  0.0992
 1710TIP3    H126689   4.533   6.419   3.746  1.1763  0.8777 -0.3773
 1710TIP3    H226690   4.627   6.304   3.775 -0.3412 -0.1671  0.5336
 1711TIP3   OH226691   6.310   0.964   3.417 -0.1225 -0.1028  0.3784
 1711TIP3    H126692   6.344   1.006   3.338  0.5840  0.3276  0.9023
 1711TIP3    H226693   6.263   0.887   3.384 -1.2020  0.9184 -0.5661
 1712TIP3   OH226694   1.916   1.424   1.974  0.0522  0.1855  0.0559
 1712TIP3    H126695   1.821   1.436   1.980 -0.1031 -1.2361  1.0977
 1712TIP3    H226696   1.934   1.351   2.033  1.8811  0.8149  0.3460
 1713TIP3   OH226697   0.595   0.559   1.523 -0.2559  0.5392 -0.2960
 1713TIP3    H126698   0.627   0.559   1.433 -1.5566  0.5844 -0.7772
 1713TIP3    H226699   0.638   0.484   1.564 -1.7732 -1.2114 -1.7594
 1714TIP3   OH226700   1.355   5.528   1.147  0.3477  0.5243  0.2670
 1714TIP3    H126701   1.270   5.489   1.126 -0.1673  2.3876 -1.5024
 1714TIP3    H226702   1.409   5.454   1.176 -1.5669 -0.8692  0.4871
 1715TIP3   OH226703   0.615   5.911   0.815 -0.1293  0.2622 -0.2954
 1715TIP3    H126704   0.532   5.882   0.778 -0.2645  0.5766 -0.2487
 1715TIP3    H226705   0.622   5.864   0.898 -1.2972  1.7845  0.7342
 1716TIP3   OH226706   0.977   6.738   0.717 -0.2168 -0.2597 -0.1639
 1716TIP3    H126707   1.050   6.683   0.690 -0.6827 -0.8726 -0.2106
 1716TIP3    H226708   0.904   6.709   0.662 -0.5387  0.2199  0.0061
 1717TIP3   OH226709   6.213   0.941   4.631 -0.1453 -0.0206  0.0345
 1717TIP3    H126710   6.267   0.904   4.701 -0.0904 -0.2144 -0.1107
 1717TIP3    H226711   6.144   0.989   4.678 -0.0303 -0.0336  0.2206
 1718TIP3   OH226712   5.908   1.503   0.891 -0.9226  0.5384  0.1509
 1718TIP3    H126713   5.910   1.598   0.885 -1.0723  0.4725 -2.7232
 1718TIP3    H226714   5.877   1.475   0.804  0.4056 -2.1631  0.4469
 1719TIP3   OH226715   5.322   0.125   3.573  0.3563  0.0412 -0.0912
 1719TIP3    H126716   5.395   0.069   3.546  1.5397  0.6228  1.7201
 1719TIP3    H226717   5.361   0.210   3.589 -0.8070  0.4952  0.4587
 1720TIP3   OH226718   0.980   6.374   2.352 -0.4894 -0.0519 -0.0614
 1720TIP3    H126719   0.958   6.348   2.441 -1.7078 -0.2933 -0.4171
 1720TIP3    H226720   0.973   6.470   2.353 -0.6265 -0.0630  0.0742
 1721TIP3   OH226721   5.788   4.355   2.617  0.0448  0.3347  0.0051
 1721TIP3    H126722   5.726   4.282   2.608 -0.6181  0.8993 -0.0234
 1721TIP3    H226723   5.733   4.433   2.621  0.7108  0.7685  0.9325
 1722TIP3   OH226724   0.711   2.660   3.586  0.2918 -0.6778  0.1524
 1722TIP3    H126725   0.631   2.616   3.555 -0.3147  0.0523  0.6498
 1722TIP3    H226726   0.715   2.639   3.679  0.8844 -1.0040  0.0574
 1723TIP3   OH226727   1.877   0.639   0.365 -0.1815 -0.2743 -0.8473
 1723TIP3    H126728   1.818   0.608   0.296  0.7984 -3.2843 -0.5192
 1723TIP3    H226729   1.842   0.599   0.445  0.7090  0.2123 -0.2038
 1724TIP3   OH226730   6.025   3.705   3.345  0.2263 -0.3671  0.6323
 1724TIP3    H126731   6.053   3.796   3.347 -0.1372 -0.2589  1.6937
 1724TIP3    H226732   5.955   3.700   3.410  0.4690 -1.4720  0.8321
 1725TIP3   OH226733   2.588   1.566   0.743 -0.4241  0.4445  0.1372
 1725TIP3    H126734   2.677   1.537   0.724 -0.6045 -0.6529  0.8784
 1725TIP3    H226735   2.588   1.660   0.724  0.0719 -0.0626 -2.7588
 1726TIP3   OH226736   5.269   0.822   1.984 -0.3404 -0.5717 -0.1389
 1726TIP3    H126737   5.252   0.908   2.023 -0.0719 -0.3183 -0.5743
 1726TIP3    H226738   5.349   0.792   2.028  0.5517  0.1639 -1.1895
 1727TIP3   OH226739   4.379   3.934   3.826 -0.0336 -0.6085  0.0513
 1727TIP3    H126740   4.373   3.840   3.845 -0.9907 -0.5041  0.2925
 1727TIP3    H226741   4.299   3.971   3.861  1.1414  0.6044  1.6258
 1728TIP3   OH226742   3.741   3.242   3.068  0.5917 -0.1284  0.1115
 1728TIP3    H126743   3.752   3.157   3.112  1.6234 -0.6914 -1.1797
 1728TIP3    H226744   3.829   3.280   3.066  0.5186 -0.0001 -1.2056
 1729TIP3   OH226745   5.278   0.467   4.767 -0.6177  0.4065  0.6361
 1729TIP3    H126746   5.256   0.383   4.728  1.1156 -0.7649  2.0360
 1729TIP3    H226747   5.195   0.501   4.800 -1.3047 -0.8916  0.3082
 1730TIP3   OH226748   1.229   1.138   1.052 -0.0524  0.2860 -0.3580
 1730TIP3    H126749   1.245   1.045   1.038  0.1328  0.4758 -1.4688
 1730TIP3    H226750   1.271   1.182   0.978  1.8214  1.4436  1.2814
 1731TIP3   OH226751   1.970   6.333   2.855 -0.0832 -0.2182 -0.0921
 1731TIP3    H126752   2.012   6.260   2.901  0.3760 -1.6925 -2.6415
 1731TIP3    H226753   1.882   6.301   2.835 -0.5017  0.6592  0.3273
 1732TIP3   OH226754   2.906   0.691   2.940 -0.0205 -0.5862  0.3604
 1732TIP3    H126755   2.913   0.612   2.994 -1.8222 -0.4426  0.8628
 1732TIP3    H226756   2.812   0.705   2.931  0.2473  1.7166  0.5880
 1733TIP3   OH226757   1.745   5.440   3.889  0.0190 -0.4583  0.5114
 1733TIP3    H126758   1.783   5.403   3.810 -0.4181  0.1183  0.0124
 1733TIP3    H226759   1.687   5.372   3.923 -1.0630 -0.1354 -0.5997
 1734TIP3   OH226760   0.362   5.016   4.065 -0.1822 -0.2470 -0.1374
 1734TIP3    H126761   0.358   4.926   4.099 -0.1925 -0.1264  0.1760
 1734TIP3    H226762   0.334   5.007   3.973 -1.8210 -0.3176  0.3402
 1735TIP3   OH226763   6.684   1.038   4.234 -0.3222 -0.0662 -0.4862
 1735TIP3    H126764   6.761   1.023   4.288 -0.3323 -2.3646 -0.9955
 1735TIP3    H226765   6.620   1.078   4.293 -0.0325 -1.6727  1.0004
 1736TIP3   OH226766   2.830   0.430   0.992  0.3217 -0.1243 -0.2277
 1736TIP3    H126767   2.845   0.519   1.021 -1.3526  0.6577 -1.5553
 1736TIP3    H226768   2.799   0.439   0.902 -0.8674 -1.9372 -0.0679
 1737TIP3   OH226769   2.304   2.827   2.188 -0.1573  0.4684 -0.0059
 1737TIP3    H126770   2.210   2.809   2.197 -0.5123  2.0832 -0.1657
 1737TIP3    H226771   2.313   2.918   2.216  1.3969  0.2871  0.1359
 1738TIP3   OH226772   2.494   2.093   1.932 -0.2187 -0.2353  0.3276
 1738TIP3    H126773   2.451   2.011   1.960 -0.0258  0.1455  1.8128
 1738TIP3    H226774   2.582   2.088   1.970 -0.6375  1.2418  1.5902
 1739TIP3   OH226775   2.009   2.261   3.145 -0.2566 -0.1736 -0.0882
 1739TIP3    H126776   2.057   2.207   3.209  0.1418  1.0911  0.7164
 1739TIP3    H226777   2.011   2.210   3.064 -1.1156 -2.0126  0.9775
 1740TIP3   OH226778   2.165   4.435   3.977 -0.1962 -0.9908  0.7609
 1740TIP3    H126779   2.254   4.415   4.008 -0.2972  0.7531  2.4147
 1740TIP3    H226780   2.122   4.475   4.053 -1.4070  0.9606 -0.8393
 1741TIP3   OH226781   0.482   5.847   3.521 -0.0245 -0.5727  0.1559
 1741TIP3    H126782   0.496   5.778   3.456 -1.4101 -0.4327 -0.3226
 1741TIP3    H226783   0.410   5.814   3.575 -0.2090  0.1813  0.3786
 1742TIP3   OH226784   4.679   1.949   1.068  0.2734 -0.4662  0.1120
 1742TIP3    H126785   4.647   1.870   1.025  1.8104 -0.6152 -0.8308
 1742TIP3    H226786   4.689   2.012   0.997  2.5979 -0.6241  0.2460
 1743TIP3   OH226787   3.106   1.738   4.581  0.9269 -0.6722 -0.2910
 1743TIP3    H126788   3.099   1.674   4.511  1.9751 -1.2661  0.1174
 1743TIP3    H226789   3.182   1.791   4.557  1.0950 -0.6719  0.2309
 1744TIP3   OH226790   2.481   0.154   3.684  0.0720 -0.6650 -0.4161
 1744TIP3    H126791   2.512   0.082   3.628  1.9171  0.7479 -1.3543
 1744TIP3    H226792   2.506   0.128   3.773 -0.4510 -1.7387 -0.5711
 1745TIP3   OH226793   2.623   0.413   2.433 -0.4486 -0.2692 -0.2521
 1745TIP3    H126794   2.549   0.364   2.468 -0.5097 -0.6621 -0.9057
 1745TIP3    H226795   2.673   0.348   2.383  0.2845  0.0130  0.0944
 1746TIP3   OH226796   2.939   3.291   2.637  0.2677  0.3280 -0.6365
 1746TIP3    H126797   2.990   3.241   2.573  1.1250 -2.4642  1.9833
 1746TIP3    H226798   2.849   3.289   2.603  0.8187 -0.2723 -2.1464
 1747TIP3   OH226799   1.753   4.890   1.161  0.4697  0.7576  0.0953
 1747TIP3    H126800   1.690   4.820   1.180 -0.8245  1.6904 -0.5722
 1747TIP3    H226801   1.830   4.845   1.128  0.4864 -0.4749  1.6950
 1748TIP3   OH226802   4.230   0.399   3.146 -0.4407  0.7193 -0.3645
 1748TIP3    H126803   4.155   0.403   3.207 -0.4795  1.8482 -0.4726
 1748TIP3    H226804   4.225   0.480   3.096  0.9381  0.8715 -0.2944
 1749TIP3   OH226805   0.946   5.107   2.465 -1.0935  0.2895 -0.4257
 1749TIP3    H126806   0.874   5.149   2.512 -0.8598 -0.5465  0.7156
 1749TIP3    H226807   1.023   5.159   2.487 -1.1809  0.6135 -0.8720
 1750TIP3   OH226808   1.677   6.654   2.044  0.5012 -0.6964  0.4981
 1750TIP3    H126809   1.652   6.719   1.978  0.4710  0.9987  2.0893
 1750TIP3    H226810   1.594   6.629   2.086  0.7311 -0.0866  1.3442
 1751TIP3   OH226811   2.938   1.331   0.560  0.5661  0.4350 -0.2531
 1751TIP3    H126812   2.866   1.316   0.621  2.5684  0.2795  2.2647
 1751TIP3    H226813   2.980   1.245   0.550  0.8869  0.6679 -1.0278
 1752TIP3   OH226814   6.660   3.544   4.202  0.4876  0.3832  0.1870
 1752TIP3    H126815   6.601   3.509   4.135  2.5894 -0.0905 -1.4996
 1752TIP3    H226816   6.700   3.621   4.163  0.8316  0.8405  1.3827
 1753TIP3   OH226817   1.967   3.757   3.887 -0.7742 -0.0853 -0.1260
 1753TIP3    H126818   1.904   3.688   3.909 -1.0497 -0.2389 -1.3313
 1753TIP3    H226819   2.053   3.715   3.897 -0.9058 -0.2703  0.2380
 1754TIP3   OH226820   0.636   1.907   2.793 -0.1246 -0.2562 -0.6417
 1754TIP3    H126821   0.675   1.995   2.795  0.1224 -0.3638 -0.6956
 1754TIP3    H226822   0.612   1.894   2.701  0.4556 -0.5142 -0.7565
 1755TIP3   OH226823   4.512   2.475   4.091 -0.3326  0.9214 -0.0711
 1755TIP3    H126824   4.473   2.466   4.005  0.2833  1.2043 -0.3915
 1755TIP3    H226825   4.457   2.539   4.136 -1.5500 -0.3402  0.3089
 1756TIP3   OH226826   1.917   5.661   2.728  0.0862  0.0439 -0.6283
 1756TIP3    H126827   1.859   5.730   2.759  0.5402 -0.4973  1.6292
 1756TIP3    H226828   1.962   5.631   2.807  2.6612 -0.2763 -2.1210
 1757TIP3   OH226829   0.538   6.426   3.629  0.0433 -0.2256  0.1646
 1757TIP3    H126830   0.471   6.494   3.627  1.3704  1.2068  1.8907
 1757TIP3    H226831   0.495   6.349   3.591 -2.0343  1.0756 -0.2647
 1758TIP3   OH226832   6.441   4.575   4.438 -0.1424  0.3116 -0.6905
 1758TIP3    H126833   6.419   4.482   4.437  0.0217  0.2684 -1.4813
 1758TIP3    H226834   6.504   4.585   4.510  0.4998 -0.3541 -1.1418
 1759TIP3   OH226835   2.633   2.167   1.649  0.7398 -0.0789  0.2396
 1759TIP3    H126836   2.544   2.132   1.656  1.1721 -1.3751 -0.4848
 1759TIP3    H226837   2.680   2.103   1.596  1.9001  0.9973 -0.0796
 1760TIP3   OH226838   3.891   1.348   3.387 -0.2487  0.0115  0.9418
 1760TIP3    H126839   3.906   1.361   3.293 -2.0311  2.2172  0.8666
 1760TIP3    H226840   3.970   1.382   3.429 -0.1607  0.6195  0.2975
 1761TIP3   OH226841   6.771   3.791   1.013 -0.4658 -0.3157  0.1745
 1761TIP3    H126842   6.714   3.846   1.066 -1.1704  0.2655 -1.1250
 1761TIP3    H226843   6.735   3.798   0.924  0.1784 -1.8802 -0.2519
 1762TIP3   OH226844   5.706   5.089   4.037  0.2320  0.2027 -0.6785
 1762TIP3    H126845   5.783   5.033   4.028 -0.4434 -0.5949 -1.8169
 1762TIP3    H226846   5.635   5.027   4.056  0.1701  1.0921  2.4647
 1763TIP3   OH226847   3.059   2.747   1.409  0.1068 -0.0537  0.1747
 1763TIP3    H126848   3.111   2.783   1.336  1.5974  0.2335  1.3204
 1763TIP3    H226849   3.019   2.668   1.373  0.4773  0.3078 -1.0821
 1764TIP3   OH226850   2.455   5.769   1.865  0.3170 -0.2870  0.4236
 1764TIP3    H126851   2.506   5.803   1.938 -2.4767  2.0424  1.5134
 1764TIP3    H226852   2.378   5.729   1.906 -0.1709 -1.1066 -1.1808
 1765TIP3   OH226853   2.798   2.301   4.364  0.3184 -0.1424 -0.4094
 1765TIP3    H126854   2.811   2.356   4.442  0.2167  0.3935 -0.7716
 1765TIP3    H226855   2.723   2.339   4.320 -0.5705 -1.3595  0.0149
 1766TIP3   OH226856   1.931   4.235   2.286 -0.9059  0.1102 -0.2489
 1766TIP3    H126857   2.010   4.240   2.233 -0.7601 -2.3483 -0.4045
 1766TIP3    H226858   1.899   4.325   2.291  0.3296  0.7533 -2.5482
 1767TIP3   OH226859   0.285   2.906   1.366  0.0450 -0.0943 -0.4662
 1767TIP3    H126860   0.379   2.906   1.345  0.4736  0.8455  1.2281
 1767TIP3    H226861   0.253   2.822   1.335  1.2587 -0.0710 -1.8639
 1768TIP3   OH226862   6.366   2.046   4.473  0.2958  0.2885  0.5214
 1768TIP3    H126863   6.364   2.132   4.431 -3.2703 -1.3015 -3.2753
 1768TIP3    H226864   6.451   2.010   4.448  0.1471  1.1896 -1.5237
 1769TIP3   OH226865   0.701   3.378   3.519  0.5008  0.1163 -0.3912
 1769TIP3    H126866   0.682   3.470   3.541  1.2204  0.4986 -1.2779
 1769TIP3    H226867   0.628   3.352   3.462  0.5802  0.3288 -0.5967
 1770TIP3   OH226868   2.625   2.136   3.263  0.0218  0.3431  0.1964
 1770TIP3    H126869   2.690   2.201   3.236 -0.9066  1.4633  0.5696
 1770TIP3    H226870   2.548   2.155   3.209 -0.1117 -0.7346  0.0000
 1771TIP3   OH226871   3.757   4.772   2.731 -0.5212 -0.2749 -0.2272
 1771TIP3    H126872   3.812   4.781   2.809  0.6735  0.3572 -1.1165
 1771TIP3    H226873   3.684   4.832   2.746  0.0810  0.3908  0.0912
 1772TIP3   OH226874   4.163   3.176   4.573 -0.2505 -0.3210  0.7344
 1772TIP3    H126875   4.105   3.110   4.534  1.2563 -1.2814  0.0328
 1772TIP3    H226876   4.114   3.258   4.567 -1.1812 -0.9448 -0.6568
 1773TIP3   OH226877   4.310   4.982   4.901 -0.5801 -0.3211  0.2740
 1773TIP3    H126878   4.267   5.007   4.819  0.8238 -2.1302 -1.1135
 1773TIP3    H226879   4.385   5.041   4.908 -0.9581  0.1387  0.5285
 1774TIP3   OH226880   1.934   0.898   8.518  0.0559  0.1234 -0.1039
 1774TIP3    H126881   1.982   0.830   8.471  1.1330  0.3717  0.6088
 1774TIP3    H226882   1.904   0.957   8.449 -1.4927 -1.3898 -0.8112
 1775TIP3   OH226883   3.717   5.197   1.532 -0.3967 -0.1483  0.3332
 1775TIP3    H126884   3.674   5.224   1.614 -0.2491 -1.7973  0.9947
 1775TIP3    H226885   3.645   5.187   1.470 -0.4165  2.0844 -0.0697
 1776TIP3   OH226886   5.764   3.497   3.711 -0.3085  1.0018 -0.1363
 1776TIP3    H126887   5.732   3.424   3.657  0.3649  0.0689  0.7023
 1776TIP3    H226888   5.685   3.545   3.735 -0.9343 -0.3584  0.5980
 1777TIP3   OH226889   0.137   6.202   4.385 -0.3589  0.9626  0.4410
 1777TIP3    H126890   0.100   6.119   4.353 -0.8548  1.7088 -1.0033
 1777TIP3    H226891   0.180   6.240   4.309  0.5429  1.6805  1.2908
 1778TIP3   OH226892   4.971   0.390   0.611 -0.7710  0.1162 -0.5337
 1778TIP3    H126893   4.976   0.452   0.685 -0.9763  0.4380 -0.7840
 1778TIP3    H226894   4.906   0.325   0.639 -2.0126  1.0916 -1.0396
 1779TIP3   OH226895   4.001   5.870   2.229  1.0855 -0.0082  0.6482
 1779TIP3    H126896   3.965   5.946   2.184  1.3810 -0.7644 -0.9269
 1779TIP3    H226897   3.924   5.826   2.266  0.4629 -0.8373 -1.4772
 1780TIP3   OH226898   6.077   6.369   2.529  0.7004 -0.3017 -0.5847
 1780TIP3    H126899   6.132   6.292   2.542  0.0401 -0.8786 -1.1393
 1780TIP3    H226900   6.006   6.358   2.593 -0.2099 -0.9404 -1.6708
 1781TIP3   OH226901   3.715   5.991   0.438 -0.3415 -0.2614  0.4141
 1781TIP3    H126902   3.682   5.982   0.528  0.0026 -1.9383  0.3999
 1781TIP3    H226903   3.714   5.902   0.403 -1.4292  0.4905 -1.6235
 1782TIP3   OH226904   4.002   0.013   2.685 -0.2106 -0.6079 -0.2872
 1782TIP3    H126905   3.948  -0.003   2.762  0.8462 -0.9224  0.4161
 1782TIP3    H226906   4.045  -0.071   2.668 -0.2885 -0.4943 -1.1153
 1783TIP3   OH226907   0.987   4.578   4.161  0.2347 -0.4354 -0.2126
 1783TIP3    H126908   1.027   4.614   4.082  1.5196  0.0575  0.6346
 1783TIP3    H226909   0.921   4.643   4.186  1.7190  0.8119  0.6304
 1784TIP3   OH226910   4.943   6.843   3.463  0.9396 -0.4357  0.1794
 1784TIP3    H126911   4.988   6.769   3.422 -0.4496 -1.9514  1.2668
 1784TIP3    H226912   4.991   6.858   3.544 -1.1608 -3.0522  2.1159
 1785TIP3   OH226913   6.589   3.125   0.433  0.6378 -0.5769 -0.6387
 1785TIP3    H126914   6.656   3.072   0.476  1.3589  0.5237 -0.3714
 1785TIP3    H226915   6.635   3.204   0.406 -0.2434 -0.4101 -1.7173
 1786TIP3   OH226916   3.591   0.165   1.838  0.2520 -0.1435 -0.0548
 1786TIP3    H126917   3.535   0.237   1.807  1.1922 -0.4526 -2.7492
 1786TIP3    H226918   3.549   0.086   1.803  0.0332 -0.8013  1.6351
 1787TIP3   OH226919   0.614   1.364   3.225 -0.5173 -0.1520 -0.3907
 1787TIP3    H126920   0.622   1.438   3.165  0.5474 -0.6514 -0.9005
 1787TIP3    H226921   0.634   1.400   3.311 -1.0562  0.3655 -0.4775
 1788TIP3   OH226922   0.509   4.368   1.418 -0.8639  0.0481 -0.0925
 1788TIP3    H126923   0.503   4.376   1.514 -1.3504  1.0470 -0.1931
 1788TIP3    H226924   0.570   4.295   1.404 -0.8395 -0.1553  0.9779
 1789TIP3   OH226925   4.464   6.680   4.069  0.1701 -0.5392 -0.6169
 1789TIP3    H126926   4.446   6.672   4.163 -1.7866 -2.5094 -1.0779
 1789TIP3    H226927   4.560   6.682   4.063  0.3709  2.2075  1.5233
 1790TIP3   OH226928   2.913   0.658   1.764 -0.2089 -0.3239  0.3669
 1790TIP3    H126929   2.933   0.566   1.780  0.2826 -0.4616 -0.9278
 1790TIP3    H226930   2.999   0.699   1.752 -0.4382  0.2718  0.7210
 1791TIP3   OH226931   4.818   4.235   3.847  0.4434 -0.3922 -0.2189
 1791TIP3    H126932   4.734   4.203   3.878  0.1616  0.9483  0.4404
 1791TIP3    H226933   4.858   4.277   3.923  0.7774  0.8548 -1.0564
 1792TIP3   OH226934   0.702   1.586   0.184  0.6412  0.3614 -0.3136
 1792TIP3    H126935   0.716   1.536   0.103  0.1496  1.8337 -1.3309
 1792TIP3    H226936   0.751   1.667   0.170 -0.5297  1.1919  0.3110
 1793TIP3   OH226937   0.116   0.723   0.072  0.6081  0.0185 -0.3330
 1793TIP3    H126938   0.097   0.719   0.166 -1.7189 -2.9009 -0.7897
 1793TIP3    H226939   0.082   0.809   0.045  0.6362  0.5972  1.3298
 1794TIP3   OH226940   3.639   0.962   4.065 -0.1569 -0.4359 -0.4774
 1794TIP3    H126941   3.616   0.871   4.085  1.4049 -0.6092  0.7486
 1794TIP3    H226942   3.645   1.004   4.151  0.4782  0.4833 -0.9552
 1795TIP3   OH226943   2.217   5.643   4.229 -0.3790  0.2018 -0.0790
 1795TIP3    H126944   2.183   5.559   4.260 -1.5365  1.2069  1.5354
 1795TIP3    H226945   2.250   5.686   4.308  0.8487  0.9974 -0.9845
 1796TIP3   OH226946   0.059   6.085   1.892 -0.1402 -0.7434 -0.3006
 1796TIP3    H126947   0.038   6.018   1.957  1.2310 -0.9226 -0.0045
 1796TIP3    H226948   0.004   6.063   1.816 -1.1954 -0.9807  0.5106
 1797TIP3   OH226949   4.870   2.875   1.826  0.1007  0.1292 -0.1461
 1797TIP3    H126950   4.964   2.870   1.843  0.1099 -0.3375 -0.2976
 1797TIP3    H226951   4.863   2.921   1.742  0.1749  0.4958  0.0508
 1798TIP3   OH226952   5.513   0.594   0.263  0.0694  0.0283 -0.0676
 1798TIP3    H126953   5.588   0.638   0.223 -0.0778 -0.1388 -0.5246
 1798TIP3    H226954   5.447   0.589   0.194 -1.2267  2.1605  0.9268
 1799TIP3   OH226955   4.748   1.057   2.484  0.0412  0.2590 -0.0924
 1799TIP3    H126956   4.747   1.151   2.505 -2.1918  0.1594  0.5327
 1799TIP3    H226957   4.735   1.014   2.569  1.2922 -0.6426 -0.3427
 1800TIP3   OH226958   6.030   2.133   1.647 -0.2679 -0.0093  0.1536
 1800TIP3    H126959   5.996   2.060   1.699  1.4149 -1.2134 -0.3583
 1800TIP3    H226960   6.126   2.125   1.654 -0.0331  1.8058 -0.4127
 1801TIP3   OH226961   3.187   2.611   1.632 -0.3537 -0.8253 -0.4973
 1801TIP3    H126962   3.141   2.669   1.571 -0.8148 -1.5958 -0.8892
 1801TIP3    H226963   3.121   2.547   1.658 -0.1846 -0.4878  0.8587
 1802TIP3   OH226964   3.513   0.864   2.703  0.3689  0.6328  0.2768
 1802TIP3    H126965   3.430   0.821   2.721  1.0796 -1.0374 -0.2729
 1802TIP3    H226966   3.498   0.956   2.726 -1.3160  0.1824  1.1023
 1803TIP3   OH226967   3.772   6.044   2.577  0.2682 -0.0768  0.9307
 1803TIP3    H126968   3.754   6.119   2.521  2.4923  1.8537  2.6135
 1803TIP3    H226969   3.861   6.017   2.554 -0.1043 -1.5577  1.1029
 1804TIP3   OH226970   0.159   4.069   1.764 -0.3919  0.1194  0.2905
 1804TIP3    H126971   0.246   4.093   1.731 -0.9616 -0.3811 -1.6900
 1804TIP3    H226972   0.168   3.978   1.790 -0.9572 -0.9099 -2.6845
 1805TIP3   OH226973   0.425   2.245   3.846  0.3546  0.2976 -0.0050
 1805TIP3    H126974   0.351   2.303   3.862 -0.7402 -1.0528  0.0449
 1805TIP3    H226975   0.499   2.288   3.888 -0.4828  1.4893  0.2937
 1806TIP3   OH226976   4.150   2.776   0.515 -0.2021 -0.0708  0.6556
 1806TIP3    H126977   4.171   2.849   0.457  1.7634  0.0486  1.4760
 1806TIP3    H226978   4.171   2.698   0.463 -3.2307 -0.2142 -0.5981
 1807TIP3   OH226979   1.161   0.582   3.636 -0.3090  0.0887  0.1175
 1807TIP3    H126980   1.234   0.581   3.698  0.3909  1.0544 -0.6678
 1807TIP3    H226981   1.142   0.674   3.622 -0.2993 -0.0957 -1.2635
 1808TIP3   OH226982   0.897   2.508   2.807  0.0605  0.1731 -0.6920
 1808TIP3    H126983   0.890   2.592   2.852  0.9009 -0.5393  0.8236
 1808TIP3    H226984   0.876   2.529   2.716 -0.8523  1.8073 -0.1549
 1809TIP3   OH226985   0.303   4.251   1.224  0.3847 -0.1921  0.9219
 1809TIP3    H126986   0.283   4.160   1.244  0.5166 -0.3193  0.4981
 1809TIP3    H226987   0.346   4.284   1.302 -0.6893 -0.1606  1.5103
 1810TIP3   OH226988   4.519   0.834   1.914 -0.4204  0.1801  0.5227
 1810TIP3    H126989   4.437   0.862   1.875 -0.4483 -0.7681 -0.1300
 1810TIP3    H226990   4.568   0.915   1.928 -0.7483  0.6077 -0.7154
 1811TIP3   OH226991   3.497   5.212   4.220 -0.4327 -0.1425  0.3611
 1811TIP3    H126992   3.436   5.247   4.285  1.2347  0.6192  1.6047
 1811TIP3    H226993   3.564   5.168   4.272 -1.0816 -3.0421 -1.0496
 1812TIP3   OH226994   0.429   6.005   2.229  0.0097 -0.4211 -0.2437
 1812TIP3    H126995   0.515   6.004   2.187  0.8443  0.6339  1.3523
 1812TIP3    H226996   0.379   6.070   2.179  0.1656 -0.9291 -1.0847
 1813TIP3   OH226997   1.108   3.624   1.295  0.3273  0.6081 -0.4623
 1813TIP3    H126998   1.125   3.673   1.214  1.8776 -0.7697 -1.0261
 1813TIP3    H226999   1.195   3.601   1.328 -0.2854  0.8213  1.4263
 1814TIP3   OH227000   4.194   6.812   3.139 -0.3523  0.3598 -0.1554
 1814TIP3    H127001   4.221   6.805   3.048  0.2424 -1.9352  0.1458
 1814TIP3    H227002   4.262   6.867   3.179  0.4997 -0.2790 -0.6881
 1815TIP3   OH227003   1.483   1.942   0.354  0.0978 -0.4442 -0.2346
 1815TIP3    H127004   1.541   1.869   0.376  0.9300  0.2639  0.0125
 1815TIP3    H227005   1.541   2.019   0.356 -0.8859  0.3018  0.1309
 1816TIP3   OH227006   0.945   4.801   1.497  0.0785  0.2540  0.0076
 1816TIP3    H127007   0.969   4.860   1.568  1.7754  1.2254 -1.2694
 1816TIP3    H227008   1.018   4.739   1.492  0.0048  0.2268 -0.8889
 1817TIP3   OH227009   6.795   2.847   4.014  0.3896 -0.0334 -0.5023
 1817TIP3    H127010   6.738   2.871   4.087 -0.5753  0.3303 -1.3440
 1817TIP3    H227011   6.877   2.819   4.055  0.2060  1.0687  0.6754
 1818TIP3   OH227012   5.261   3.182   3.993 -0.6290  0.3748  0.0747
 1818TIP3    H127013   5.356   3.190   3.980 -0.6580  1.8786  0.6039
 1818TIP3    H227014   5.224   3.258   3.948 -1.3201  1.4847  2.3794
 1819TIP3   OH227015   4.063   2.592   3.654  0.6169  0.2040 -0.3151
 1819TIP3    H127016   4.003   2.586   3.728 -0.0075  0.4856 -0.7841
 1819TIP3    H227017   4.075   2.686   3.641 -0.4201  0.2054 -1.4536
 1820TIP3   OH227018   2.220   0.270   4.578  0.1539  0.6739  0.3331
 1820TIP3    H127019   2.254   0.182   4.563 -2.7760 -0.4222 -0.4967
 1820TIP3    H227020   2.282   0.327   4.532  1.4958 -1.0327 -0.0921
 1821TIP3   OH227021   5.657   1.154   2.378 -0.1572  0.1258  0.0394
 1821TIP3    H127022   5.589   1.103   2.423  1.7178 -2.1374  0.5471
 1821TIP3    H227023   5.628   1.158   2.287 -1.4221  0.0613  0.4235
 1822TIP3   OH227024   3.477   0.726   4.116  0.5046  0.3952  0.7456
 1822TIP3    H127025   3.410   0.759   4.175  1.3064 -0.0749  1.9614
 1822TIP3    H227026   3.429   0.671   4.054 -0.2049 -0.1679  1.7639
 1823TIP3   OH227027   6.387   3.516   2.241 -0.5606  0.5251 -0.5079
 1823TIP3    H127028   6.405   3.576   2.168  0.7738  1.0706  0.2269
 1823TIP3    H227029   6.461   3.455   2.240  0.7938  1.9550  1.7514
 1824TIP3   OH227030   1.083   4.726   1.099 -0.1294  0.6178  0.2040
 1824TIP3    H127031   1.177   4.736   1.080  0.4780 -0.9394  2.1065
 1824TIP3    H227032   1.056   4.650   1.048 -0.6612  1.6430 -1.1213
 1825TIP3   OH227033   0.613   6.181   1.078  0.0109 -0.1844  0.2360
 1825TIP3    H127034   0.527   6.208   1.045 -0.3235 -0.8892  0.4853
 1825TIP3    H227035   0.592   6.126   1.154  0.6368 -1.2122 -0.3086
 1826TIP3   OH227036   5.328   5.501   1.872  0.0130 -0.3567 -0.2556
 1826TIP3    H127037   5.342   5.409   1.849 -0.6685 -0.6511  0.4459
 1826TIP3    H227038   5.235   5.516   1.856 -0.1073 -0.0956  0.6270
 1827TIP3   OH227039   5.475   4.535   1.516 -0.2801 -0.0211 -0.0504
 1827TIP3    H127040   5.433   4.573   1.593  0.5813  0.0109  0.4161
 1827TIP3    H227041   5.515   4.609   1.470  0.2163 -0.1829  0.1128
 1828TIP3   OH227042   4.946   3.178   2.845  0.3216  0.2882 -0.1508
 1828TIP3    H127043   5.004   3.239   2.891 -0.4835  0.1846  1.0698
 1828TIP3    H227044   4.928   3.219   2.761  1.9731  0.4256 -0.4606
 1829TIP3   OH227045   6.433   0.737   2.789 -0.3250  0.1378 -0.7364
 1829TIP3    H127046   6.507   0.677   2.777  0.7121  1.0899  0.5845
 1829TIP3    H227047   6.470   0.824   2.771 -0.1381  1.0265  3.1839
 1830TIP3   OH227048   4.805   0.610   4.107  0.3277  0.0201  0.3732
 1830TIP3    H127049   4.881   0.564   4.143 -0.0200  0.0748  1.1982
 1830TIP3    H227050   4.735   0.595   4.171 -1.1907 -2.3908 -1.6582
 1831TIP3   OH227051   0.901   2.690   4.447  0.8412 -0.1858  0.0132
 1831TIP3    H127052   0.861   2.623   4.502 -0.6865  0.9485  0.3436
 1831TIP3    H227053   0.895   2.656   4.358  0.9843 -0.9045  0.2736
 1832TIP3   OH227054   0.752   6.206   2.954 -0.3472  0.5827 -0.2951
 1832TIP3    H127055   0.769   6.292   2.991  1.1544 -0.0163  0.5097
 1832TIP3    H227056   0.832   6.156   2.972 -0.7780 -0.6635 -1.6663
 1833TIP3   OH227057   3.557   3.041   3.580 -0.6653  0.1792  0.0735
 1833TIP3    H127058   3.584   2.984   3.652 -2.6268  1.5367  1.9924
 1833TIP3    H227059   3.622   3.112   3.581  0.2102 -0.5912 -0.5571
 1834TIP3   OH227060   4.782   4.953   3.828  0.5916 -0.2710  0.6106
 1834TIP3    H127061   4.776   5.008   3.751 -2.3297 -0.2920  0.7271
 1834TIP3    H227062   4.771   4.864   3.795  1.3535 -0.4700  0.8613
 1835TIP3   OH227063   5.206   3.929   2.464 -0.1346  0.2372 -0.4118
 1835TIP3    H127064   5.182   3.857   2.522 -1.6046 -0.6948 -2.0519
 1835TIP3    H227065   5.164   4.006   2.502 -0.1679 -0.1350  0.3216
 1836TIP3   OH227066   2.408   2.942   3.814  0.2002  0.3521  0.2702
 1836TIP3    H127067   2.402   2.861   3.864  2.4118 -1.4117 -2.0757
 1836TIP3    H227068   2.329   2.941   3.758  0.6041 -0.6537 -0.3140
 1837TIP3   OH227069   5.085   0.009   2.327  0.2701  0.7909  0.0195
 1837TIP3    H127070   5.056   0.100   2.327  0.9142  1.0035 -0.2665
 1837TIP3    H227071   5.069  -0.020   2.237  0.2670  0.6919  0.0525
 1838TIP3   OH227072   4.423   1.008   3.984 -0.1828 -0.1691  0.2240
 1838TIP3    H127073   4.405   0.967   4.069  0.8058 -0.1261  0.4623
 1838TIP3    H227074   4.360   0.967   3.925 -1.9920  0.9506  1.2703
 1839TIP3   OH227075   6.718   3.219   4.198  0.3900  0.2782 -0.3904
 1839TIP3    H127076   6.810   3.238   4.217  0.1315  1.3952 -0.2145
 1839TIP3    H227077   6.704   3.255   4.110 -0.7318  3.2109  0.8756
 1840TIP3   OH227078   5.402   0.526   3.992 -0.0119  0.2626  0.1227
 1840TIP3    H127079   5.327   0.566   4.034  0.6303 -0.4162  2.0017
 1840TIP3    H227080   5.396   0.433   4.014  0.6706 -0.0297 -0.8167
 1841TIP3   OH227081   0.323   4.893   2.809 -0.0706 -0.3522 -0.6766
 1841TIP3    H127082   0.315   4.951   2.885 -1.2351 -0.0911 -0.9809
 1841TIP3    H227083   0.374   4.819   2.842  0.3558  0.2544  0.0661
 1842TIP3   OH227084   6.725   5.635   3.797  0.0185 -0.5330  0.0479
 1842TIP3    H127085   6.647   5.650   3.849 -0.5342 -0.3335 -0.8234
 1842TIP3    H227086   6.704   5.670   3.710  0.9979 -0.6545 -0.2536
 1843TIP3   OH227087   3.944   4.027   2.270  0.5792 -0.3602  0.2849
 1843TIP3    H127088   3.966   4.120   2.275  0.1818 -0.2935  1.0506
 1843TIP3    H227089   4.018   3.982   2.312  0.0360 -0.2523  1.4124
 1844TIP3   OH227090   1.695   0.515   8.404  0.2666 -0.4436  0.1252
 1844TIP3    H127091   1.599   0.507   8.407  0.3543 -1.2345  1.5420
 1844TIP3    H227092   1.725   0.428   8.376  0.6130 -0.5152  0.7120
 1845TIP3   OH227093   4.875   5.312   2.481  0.2621 -0.3420  0.2470
 1845TIP3    H127094   4.894   5.223   2.451  1.7870 -0.2796  0.9161
 1845TIP3    H227095   4.959   5.357   2.476  0.1957  0.2040  2.7306
 1846TIP3   OH227096   4.889   1.541   3.900  0.3190 -0.4052 -0.2796
 1846TIP3    H127097   4.919   1.518   3.812 -1.5550  0.6911 -1.2440
 1846TIP3    H227098   4.893   1.458   3.948  0.9895 -1.1076 -1.4769
 1847TIP3   OH227099   6.098   3.745   2.490  0.2818 -0.1211 -0.3881
 1847TIP3    H127100   6.167   3.680   2.505  0.7571  0.1187 -1.4769
 1847TIP3    H227101   6.121   3.786   2.407  0.9795  2.6387  1.0091
 1848TIP3   OH227102   1.329   5.968   4.213 -0.3686 -0.1836 -0.5867
 1848TIP3    H127103   1.414   5.951   4.254 -0.4969  1.1611  0.2997
 1848TIP3    H227104   1.266   5.960   4.284 -0.6651  1.5027 -0.6083
 1849TIP3   OH227105   4.742   0.601   0.491 -0.0753 -0.2494  0.1090
 1849TIP3    H127106   4.793   0.543   0.548 -0.6100 -0.0105  0.8511
 1849TIP3    H227107   4.683   0.543   0.444 -0.0492 -0.3913  0.2499
 1850TIP3   OH227108   0.866   5.744   3.294 -0.6514 -0.0111 -0.1166
 1850TIP3    H127109   0.867   5.684   3.369 -3.7421  0.8675  0.7762
 1850TIP3    H227110   0.953   5.784   3.295  1.0764 -3.4023  0.0433
 1851TIP3   OH227111   1.403   4.958   2.261 -0.6978  0.2825  0.6326
 1851TIP3    H127112   1.398   4.864   2.243  1.0438  0.4791 -1.3225
 1851TIP3    H227113   1.320   4.993   2.229 -1.2591 -0.5566  1.1587
 1852TIP3   OH227114   1.697   1.883   0.135 -0.2757 -0.1877 -0.0355
 1852TIP3    H127115   1.662   1.962   0.093 -1.9717 -0.2976  1.0690
 1852TIP3    H227116   1.778   1.912   0.177 -1.5190  1.3600  1.4595
 1853TIP3   OH227117   4.471   3.024   3.818  0.1013  0.2077  0.8957
 1853TIP3    H127118   4.461   3.029   3.723  0.5742  3.7478  0.8760
 1853TIP3    H227119   4.555   2.980   3.832 -0.4935 -1.3663 -0.2060
 1854TIP3   OH227120   0.193   5.369   3.966  0.1418 -0.2046  0.2054
 1854TIP3    H127121   0.147   5.300   3.918 -0.8189  1.0438 -0.7486
 1854TIP3    H227122   0.174   5.449   3.917  2.4617  0.5441  0.4146
 1855TIP3   OH227123   1.902   6.240   1.063 -0.9568  0.2328  0.6574
 1855TIP3    H127124   1.983   6.287   1.080  0.2258 -1.8090  1.0680
 1855TIP3    H227125   1.889   6.250   0.968  0.1206  0.0963  0.4764
 1856TIP3   OH227126   0.315   1.999   1.401  0.0365 -0.3713 -0.2150
 1856TIP3    H127127   0.330   1.976   1.493 -1.4525  0.2483  0.2194
 1856TIP3    H227128   0.393   1.969   1.355  1.0367 -0.2380  1.3376
 1857TIP3   OH227129   3.948   4.743   1.747 -0.1713 -0.2394 -0.4064
 1857TIP3    H127130   4.013   4.714   1.683 -1.9660 -3.0483 -1.1588
 1857TIP3    H227131   3.951   4.677   1.816  1.7581  2.7432  2.6896
 1858TIP3   OH227132   4.919   5.195   0.295  0.4353 -0.6760  0.0108
 1858TIP3    H127133   4.991   5.173   0.354  0.0774  1.3362  1.3136
 1858TIP3    H227134   4.952   5.175   0.207  2.4136 -0.2051  0.6138
 1859TIP3   OH227135   5.536   6.489   3.162 -0.2264  0.1944  0.1388
 1859TIP3    H127136   5.598   6.531   3.103  0.2624 -1.1695 -0.3657
 1859TIP3    H227137   5.456   6.540   3.153  0.3953  1.1202 -0.2838
 1860TIP3   OH227138   2.200   6.097   1.559 -0.7011  0.4029 -0.2025
 1860TIP3    H127139   2.199   6.138   1.472  0.0704  0.6973 -0.0733
 1860TIP3    H227140   2.290   6.067   1.571 -1.2797 -1.5030 -0.3568
 1861TIP3   OH227141   1.618   4.596   0.742  0.5799  0.7961  0.8122
 1861TIP3    H127142   1.675   4.569   0.815  0.2055  0.1867  0.8901
 1861TIP3    H227143   1.611   4.517   0.688  1.1008  1.3286 -0.0587
 1862TIP3   OH227144   4.823   4.430   1.541  0.3545  0.2297 -0.3783
 1862TIP3    H127145   4.872   4.348   1.531  0.9168  0.6808 -1.4353
 1862TIP3    H227146   4.889   4.498   1.530  0.0202  0.8383  1.1709
 1863TIP3   OH227147   5.988   2.708   1.174  0.0704  0.0423  0.4000
 1863TIP3    H127148   5.978   2.714   1.079  0.1477 -1.2696  0.2824
 1863TIP3    H227149   6.046   2.780   1.197 -0.7294  0.9901 -0.4008
 1864TIP3   OH227150   6.912   0.322   3.736  0.0509 -0.0640  0.0485
 1864TIP3    H127151   6.970   0.385   3.694  1.1226  0.5046  2.2034
 1864TIP3    H227152   6.877   0.269   3.665  1.4953  1.0180 -1.5342
 1865TIP3   OH227153   3.706   2.166   3.115  0.1166  0.3319 -0.1422
 1865TIP3    H127154   3.648   2.238   3.140  1.2256  0.4171  2.4947
 1865TIP3    H227155   3.792   2.205   3.108  0.5582 -0.5447  0.2143
 1866TIP3   OH227156   2.277   1.898   3.462 -0.2559  0.1647 -0.3538
 1866TIP3    H127157   2.278   1.807   3.492 -0.9415  0.3666  0.3233
 1866TIP3    H227158   2.262   1.949   3.542 -0.1824  0.8509 -0.7714
 1867TIP3   OH227159   1.172   5.391   2.255 -0.3246  0.5971 -0.3298
 1867TIP3    H127160   1.190   5.449   2.181 -1.3682 -0.2336 -1.2876
 1867TIP3    H227161   1.090   5.347   2.231 -0.3644 -0.1395  1.0540
 1868TIP3   OH227162   2.089   2.768   4.989 -0.3969  0.2166 -0.1487
 1868TIP3    H127163   2.171   2.794   5.031 -0.6867 -0.2496  0.7245
 1868TIP3    H227164   2.074   2.678   5.018 -2.0005  0.8051  0.9690
 1869TIP3   OH227165   6.701   4.359   2.240 -0.7581  0.3654 -0.2118
 1869TIP3    H127166   6.756   4.341   2.165  0.8059 -0.1908  1.0099
 1869TIP3    H227167   6.687   4.274   2.281  0.5511  0.9260  1.5123
 1870TIP3   OH227168   6.573   4.365   3.228  0.0012 -0.0088  0.3434
 1870TIP3    H127169   6.573   4.382   3.323  1.4656 -3.2766  1.0831
 1870TIP3    H227170   6.662   4.336   3.209 -0.3925  0.0974 -1.9604
 1871TIP3   OH227171   2.574   3.569   3.584 -0.3641 -0.8595  0.2175
 1871TIP3    H127172   2.629   3.495   3.560 -0.3417 -0.5915 -0.5620
 1871TIP3    H227173   2.589   3.634   3.516  0.5016  0.3394  1.4845
 1872TIP3   OH227174   1.693   4.813   3.803  0.1123 -0.2392 -0.0427
 1872TIP3    H127175   1.756   4.858   3.746 -0.7689  1.4649  0.2555
 1872TIP3    H227176   1.743   4.796   3.883  1.0696 -1.7591 -0.9216
 1873TIP3   OH227177   2.448   5.217   3.961  0.5092 -0.2472  0.3130
 1873TIP3    H127178   2.504   5.154   3.917 -0.5715 -0.5356 -0.7060
 1873TIP3    H227179   2.453   5.194   4.054  2.3693  0.0093  0.3015
 1874TIP3   OH227180   4.128   5.805   1.493 -0.4493  0.2007 -0.4230
 1874TIP3    H127181   4.185   5.814   1.416 -0.1622 -1.1893 -0.4082
 1874TIP3    H227182   4.046   5.846   1.467  0.1309  1.0693 -0.9288
 1875TIP3   OH227183   4.449   3.083   0.856  1.1389  0.5664  0.3100
 1875TIP3    H127184   4.441   3.068   0.950 -2.1539 -0.7997 -0.0254
 1875TIP3    H227185   4.470   2.998   0.819 -0.5834  0.3685 -0.3382
 1876TIP3   OH227186   2.343   0.053   2.655  0.0978  0.4559  0.7776
 1876TIP3    H127187   2.310  -0.007   2.588 -2.1487  0.2715  1.9659
 1876TIP3    H227188   2.438   0.037   2.658 -0.0067 -0.7705 -1.0931
 1877TIP3   OH227189   0.023   5.175   3.847  0.2313 -0.2157 -0.4244
 1877TIP3    H127190  -0.010   5.202   3.761  1.9757  1.5870 -0.6063
 1877TIP3    H227191   0.028   5.080   3.842 -2.1628 -0.3739 -1.3393
 1878TIP3   OH227192   5.075   3.783   1.090  0.2016  0.2869 -0.5021
 1878TIP3    H127193   5.125   3.744   1.017 -0.4303  0.9844 -1.3194
 1878TIP3    H227194   5.115   3.869   1.103  1.6939 -0.6267  1.4031
 1879TIP3   OH227195   0.455   0.571   2.714 -0.0523 -0.3985 -0.3973
 1879TIP3    H127196   0.493   0.630   2.780 -1.5247  1.1255 -0.8606
 1879TIP3    H227197   0.482   0.608   2.630  0.9844 -1.7722 -0.7088
 1880TIP3   OH227198   2.153   3.982   2.056  0.2614 -0.0744 -0.0377
 1880TIP3    H127199   2.130   4.075   2.058  1.1628  0.1535 -0.0803
 1880TIP3    H227200   2.221   3.971   2.122 -0.1322 -0.7955  0.2680
 1881TIP3   OH227201   2.027   6.295   1.880  0.2305 -0.1032  0.2500
 1881TIP3    H127202   2.020   6.368   1.818 -3.0770 -0.5996 -0.1322
 1881TIP3    H227203   2.069   6.334   1.957  0.7647  1.5713 -0.8376
 1882TIP3   OH227204   3.759   4.548   3.653 -0.0351 -0.0129  0.2860
 1882TIP3    H127205   3.832   4.578   3.707 -0.8691 -1.8416  2.6243
 1882TIP3    H227206   3.681   4.585   3.695 -0.5873  0.5857 -1.2056
 1883TIP3   OH227207   0.447   3.889   3.957 -0.4824 -0.0199  0.1327
 1883TIP3    H127208   0.424   3.977   3.987  0.1641  0.3448 -0.4066
 1883TIP3    H227209   0.485   3.847   4.034  0.4831  0.6545  0.0485
 1884TIP3   OH227210   6.656   4.923   1.690  0.4190  0.0897  0.5314
 1884TIP3    H127211   6.577   4.871   1.671  0.8285  0.1380 -1.6723
 1884TIP3    H227212   6.714   4.861   1.734  0.4219 -1.0162 -0.9330
 1885TIP3   OH227213   2.721   1.933   1.113  0.3371  0.1200 -0.0061
 1885TIP3    H127214   2.701   1.913   1.021  2.0448  0.0375 -0.3951
 1885TIP3    H227215   2.655   1.997   1.139  0.1876  0.6034 -1.4841
 1886TIP3   OH227216   6.728   4.682   2.673 -0.2517  0.6615  0.4139
 1886TIP3    H127217   6.633   4.683   2.685 -0.2740  0.8025  0.2383
 1886TIP3    H227218   6.746   4.601   2.626 -0.4890  1.4484 -1.1093
 1887TIP3   OH227219   2.749   6.118   3.992 -0.1373 -0.3380 -0.3292
 1887TIP3    H127220   2.672   6.140   3.941 -0.4075  0.8806  0.5550
 1887TIP3    H227221   2.823   6.142   3.936 -0.3672 -1.7238 -1.2669
 1888TIP3   OH227222   6.822   0.837   1.614  0.0396 -0.0927 -0.0086
 1888TIP3    H127223   6.888   0.826   1.683  0.0181  1.2868  0.2471
 1888TIP3    H227224   6.742   0.859   1.662  0.2630  1.9276 -0.5058
 1889TIP3   OH227225   4.549   6.665   1.713  0.0415  0.0653 -0.1350
 1889TIP3    H127226   4.561   6.653   1.807  0.1076 -1.1069 -0.2790
 1889TIP3    H227227   4.478   6.729   1.706  0.4505  0.6361  0.7014
 1890TIP3   OH227228   1.396   6.676   2.903  0.5804 -0.9573 -0.0018
 1890TIP3    H127229   1.316   6.698   2.949 -0.1598 -2.2076 -0.6596
 1890TIP3    H227230   1.377   6.696   2.811  2.0202  1.4705  0.1201
 1891TIP3   OH227231   4.942   4.168   2.372 -0.1263  0.0323 -0.3295
 1891TIP3    H127232   4.867   4.186   2.429 -0.1384  0.3358 -0.4398
 1891TIP3    H227233   4.942   4.073   2.363 -1.9153  0.1485 -2.2027
 1892TIP3   OH227234   3.466   2.751   1.298 -0.3362 -0.1827 -0.0598
 1892TIP3    H127235   3.382   2.796   1.289  0.1446  0.8585  0.4986
 1892TIP3    H227236   3.530   2.811   1.261  0.3963 -0.1193  1.2504
 1893TIP3   OH227237   4.093   2.697   3.043  0.0430  0.5182  0.1476
 1893TIP3    H127238   4.084   2.792   3.038  0.8109  0.6173  0.4698
 1893TIP3    H227239   4.098   2.679   3.137  0.6475  0.2411  0.0652
 1894TIP3   OH227240   2.314   5.434   3.419  0.3188 -0.1590 -0.4868
 1894TIP3    H127241   2.406   5.456   3.410  0.3528 -0.0332  0.1148
 1894TIP3    H227242   2.295   5.379   3.343  0.9757 -0.4710 -0.4356
 1895TIP3   OH227243   3.411   4.326   2.677  0.0717 -1.0414  0.0862
 1895TIP3    H127244   3.436   4.351   2.766  0.3041  0.0581 -0.2750
 1895TIP3    H227245   3.376   4.406   2.638 -1.4581 -1.8718 -0.3280
 1896TIP3   OH227246   2.818   1.724   3.038  0.4975 -0.1444  0.4624
 1896TIP3    H127247   2.882   1.741   2.969  0.9542  0.3808  1.0035
 1896TIP3    H227248   2.813   1.628   3.044  0.7166 -0.1881 -0.0524
 1897TIP3   OH227249   6.401   0.836   3.106  0.0231  0.3356 -0.2549
 1897TIP3    H127250   6.361   0.757   3.140  0.6852  0.3425  0.5651
 1897TIP3    H227251   6.470   0.805   3.048  0.2529  0.3147  0.0308
 1898TIP3   OH227252   3.857   5.380   1.392  0.1829  0.0957  0.0908
 1898TIP3    H127253   3.952   5.365   1.390  0.3413  0.6607  1.5808
 1898TIP3    H227254   3.823   5.304   1.439 -0.3382 -0.9645 -1.9167
 1899TIP3   OH227255   4.175   3.927   1.757  0.7288  0.0630  0.0151
 1899TIP3    H127256   4.213   3.841   1.739  0.0759  0.0182 -1.3119
 1899TIP3    H227257   4.193   3.977   1.677  2.1823  1.5911  1.2170
 1900TIP3   OH227258   6.904   3.389   4.870  0.0100 -0.0465  0.1463
 1900TIP3    H127259   6.811   3.371   4.885 -0.1194 -0.1401 -0.7499
 1900TIP3    H227260   6.906   3.477   4.833  0.1017 -0.7946 -1.6969
 1901TIP3   OH227261   0.829   0.078   1.373  0.0261  0.6873  0.4084
 1901TIP3    H127262   0.844   0.077   1.278  1.7154  0.6654  0.6466
 1901TIP3    H227263   0.878   0.003   1.406  0.3943  1.3458  1.4146
 1902TIP3   OH227264   5.391   2.754   4.715 -0.1818  0.1488 -0.4597
 1902TIP3    H127265   5.459   2.752   4.782  0.8149  0.0717 -1.4539
 1902TIP3    H227266   5.415   2.826   4.658  0.1722 -1.0812 -1.9265
 1903TIP3   OH227267   3.683   6.493   2.469  0.3296  0.1896  0.8475
 1903TIP3    H127268   3.761   6.468   2.519  0.5421 -0.1401  0.3558
 1903TIP3    H227269   3.619   6.520   2.535  0.5564 -0.3886  1.3008
 1904TIP3   OH227270   5.781   5.375   4.368  0.4066  0.3506 -0.4749
 1904TIP3    H127271   5.732   5.294   4.357 -0.1049  0.5902 -0.0784
 1904TIP3    H227272   5.841   5.357   4.441 -1.2676  0.9876  1.1547
 1905TIP3   OH227273   4.062   3.531   0.704 -0.0810  0.3059 -0.1503
 1905TIP3    H127274   4.137   3.473   0.687  0.1627  0.9125 -1.2226
 1905TIP3    H227275   4.012   3.486   0.773 -0.1863 -1.4653 -1.3061
 1906TIP3   OH227276   3.998   6.009   3.092 -0.4700 -0.3599 -0.5323
 1906TIP3    H127277   4.057   5.948   3.047 -1.0298 -1.3144 -0.0054
 1906TIP3    H227278   3.974   5.963   3.173  0.1485  1.1289  0.5369
 1907TIP3   OH227279   3.486   4.211   1.353  0.2763  0.0635  0.4177
 1907TIP3    H127280   3.476   4.116   1.355 -0.1966 -0.0636 -2.5712
 1907TIP3    H227281   3.397   4.245   1.368  0.5048  0.0683  1.8201
 1908TIP3   OH227282   5.022   1.901   0.833 -0.3952 -0.3214  0.1853
 1908TIP3    H127283   4.936   1.886   0.794 -0.6519  1.8058 -0.2044
 1908TIP3    H227284   5.018   1.991   0.867  2.8030  1.4253 -3.2524
 1909TIP3   OH227285   4.311   4.005   3.235 -0.1982  0.0482  0.3041
 1909TIP3    H127286   4.385   4.066   3.241  0.0045 -0.2338  0.6920
 1909TIP3    H227287   4.300   3.991   3.141 -0.6016  1.1079  0.1841
 1910TIP3   OH227288   5.445   4.432   1.192  0.1419  0.2689 -1.0175
 1910TIP3    H127289   5.404   4.487   1.125  1.1159  1.8441 -0.3657
 1910TIP3    H227290   5.508   4.379   1.145  0.0597  0.5944 -1.4979
 1911TIP3   OH227291   0.486   5.001   3.505 -0.0875  0.2097 -0.0276
 1911TIP3    H127292   0.563   5.027   3.455 -0.5678 -1.1619 -1.5550
 1911TIP3    H227293   0.521   4.972   3.589  1.0080  0.1735 -0.4846
 1912TIP3   OH227294   1.088   0.146   0.510 -0.4819 -0.4050  0.5152
 1912TIP3    H127295   1.070   0.184   0.424 -1.1218 -0.6020  0.5560
 1912TIP3    H227296   1.002   0.135   0.550 -0.1277  2.4861  2.4179
 1913TIP3   OH227297   2.802   4.771   2.347 -0.0422 -0.5286 -0.0234
 1913TIP3    H127298   2.721   4.722   2.331  1.2488 -2.5334 -0.7619
 1913TIP3    H227299   2.773   4.861   2.362 -2.3855 -1.1595 -0.4114
 1914TIP3   OH227300   2.814   2.709   1.774  0.4545 -0.1685 -0.0033
 1914TIP3    H127301   2.826   2.771   1.846 -0.7595 -1.6928  1.6313
 1914TIP3    H227302   2.784   2.762   1.701  1.3922  1.4083  0.6977
 1915TIP3   OH227303   0.273   5.673   1.786  0.3811 -0.0555 -0.7473
 1915TIP3    H127304   0.315   5.634   1.709  0.3018 -0.0512 -0.7927
 1915TIP3    H227305   0.313   5.760   1.794 -0.0659  0.1943 -1.1594
 1916TIP3   OH227306   3.161   1.443   1.490 -0.4304 -0.0185  0.7846
 1916TIP3    H127307   3.077   1.412   1.455 -0.5596 -1.8265  2.5289
 1916TIP3    H227308   3.138   1.505   1.558 -0.2091  2.0683 -0.9263
 1917TIP3   OH227309   1.475   4.237   4.472 -0.4333  0.0448  0.2341
 1917TIP3    H127310   1.484   4.203   4.383 -2.1248 -0.8183  0.3483
 1917TIP3    H227311   1.523   4.320   4.472  1.5825 -1.0661 -0.7956
 1918TIP3   OH227312   6.152   1.399   1.875 -0.2941  0.2984 -0.9265
 1918TIP3    H127313   6.102   1.472   1.912 -1.1533 -1.3276  1.3256
 1918TIP3    H227314   6.098   1.368   1.801 -1.5012  0.0272  0.0326
 1919TIP3   OH227315   6.726   6.256   2.105 -0.0499 -0.0673  0.0900
 1919TIP3    H127316   6.743   6.176   2.154 -0.9375 -1.4980 -1.8011
 1919TIP3    H227317   6.799   6.314   2.127  0.9446 -1.6095  1.0580
 1920TIP3   OH227318   5.272   2.370   4.024  0.8309  0.5168  0.3675
 1920TIP3    H127319   5.185   2.405   4.009  0.6334 -0.5101 -1.0679
 1920TIP3    H227320   5.258   2.294   4.080  0.8542  0.6145  0.5057
 1921TIP3   OH227321   5.070   5.496   1.926  0.0654 -0.1777 -0.1760
 1921TIP3    H127322   5.041   5.576   1.970  1.5604  0.6341 -0.5879
 1921TIP3    H227323   5.113   5.445   1.994 -0.2884 -0.3238 -0.0599
 1922TIP3   OH227324   0.143   2.335   0.075  0.1575  0.7158  0.4859
 1922TIP3    H127325   0.120   2.251   0.036  0.5558  0.5781  0.5363
 1922TIP3    H227326   0.144   2.318   0.170 -0.9465  1.0845  0.5717
 1923TIP3   OH227327   1.205   0.039   4.576  0.5295  0.5540 -0.5029
 1923TIP3    H127328   1.132   0.081   4.531  0.4189  0.9875  0.0768
 1923TIP3    H227329   1.171  -0.046   4.603  0.8321 -0.0398 -1.9021
 1924TIP3   OH227330   0.881   3.267   3.734  0.2057 -0.4253  0.4557
 1924TIP3    H127331   0.808   3.317   3.697  0.6592  1.6345  2.1130
 1924TIP3    H227332   0.845   3.180   3.752 -0.9640 -0.3916 -1.4659
 1925TIP3   OH227333   3.361   5.610   3.487  0.0175 -0.2654 -0.5836
 1925TIP3    H127334   3.335   5.695   3.523 -0.8461 -1.0720  0.7723
 1925TIP3    H227335   3.449   5.595   3.521  0.7569  0.6736 -1.9588
 1926TIP3   OH227336   5.059   6.144   2.295  0.2088 -0.1794  0.2063
 1926TIP3    H127337   5.054   6.228   2.251 -1.4198 -0.4093 -0.1147
 1926TIP3    H227338   5.149   6.139   2.328  0.7341  1.0699 -0.9487
 1927TIP3   OH227339   0.628   5.699   2.097 -0.7273 -0.3903  0.0439
 1927TIP3    H127340   0.566   5.662   2.159 -0.7837 -1.5566 -0.6735
 1927TIP3    H227341   0.640   5.790   2.125  1.3942 -1.5497  3.4360
 1928TIP3   OH227342   1.088   0.573   0.996  0.7424  0.3566  0.5512
 1928TIP3    H127343   1.009   0.626   0.988  0.6420  0.1288 -0.0072
 1928TIP3    H227344   1.062   0.487   0.965  1.6453  0.7017 -1.3081
 1929TIP3   OH227345   3.613   2.140   4.823 -0.0931  0.1360 -0.6261
 1929TIP3    H127346   3.540   2.083   4.802 -0.5204  0.3071  0.3462
 1929TIP3    H227347   3.589   2.181   4.907  1.3927 -0.3168  0.0573
 1930TIP3   OH227348   2.246   1.384   3.664 -0.4391 -0.1373 -0.1851
 1930TIP3    H127349   2.154   1.403   3.644 -0.7527  0.5230  1.6560
 1930TIP3    H227350   2.242   1.304   3.717 -0.0350  0.2592  0.4569
 1931TIP3   OH227351   6.024   4.712   4.663 -0.0502  0.1839  0.8545
 1931TIP3    H127352   6.119   4.725   4.664  0.1599 -0.9745 -0.4216
 1931TIP3    H227353   5.988   4.797   4.685  1.2592  1.8145 -2.5046
 1932TIP3   OH227354   6.324   5.402   3.911  0.2608  0.5424 -0.2361
 1932TIP3    H127355   6.323   5.391   4.006  0.3512 -0.5175 -0.3430
 1932TIP3    H227356   6.359   5.490   3.897  1.1259  0.3570  0.6827
 1933TIP3   OH227357   6.157   0.072   2.116 -0.1423  0.3886  0.6952
 1933TIP3    H127358   6.227   0.137   2.121 -1.5733  2.0564  0.0084
 1933TIP3    H227359   6.188  -0.001   2.170  1.7795  1.3792  1.0103
 1934TIP3   OH227360   1.423   1.293   0.381 -0.2270  0.5144 -0.6707
 1934TIP3    H127361   1.358   1.242   0.429 -0.7630  1.9770  0.1988
 1934TIP3    H227362   1.415   1.262   0.291  0.1536 -1.6226 -0.0425
 1935TIP3   OH227363   4.654   6.283   2.856  0.0630 -0.3341  0.0225
 1935TIP3    H127364   4.717   6.244   2.795 -1.1061 -0.0713 -1.4138
 1935TIP3    H227365   4.569   6.265   2.816 -0.7245  0.1529  1.4311
 1936TIP3   OH227366   6.225   4.940   1.769  0.3269 -0.2520  0.4714
 1936TIP3    H127367   6.207   4.987   1.850 -0.9139 -0.4644  0.3508
 1936TIP3    H227368   6.315   4.910   1.777  0.9712  1.6302  0.8077
 1937TIP3   OH227369   2.053   5.415   4.004 -0.7488 -0.0081  0.1094
 1937TIP3    H127370   2.015   5.363   4.075 -0.0315 -1.7126 -0.6978
 1937TIP3    H227371   1.985   5.415   3.936 -0.3839 -0.7853 -0.2779
 1938TIP3   OH227372   2.496   1.062   2.646  0.5504  0.2294 -0.0469
 1938TIP3    H127373   2.440   0.998   2.602  0.8098 -0.4685  0.6068
 1938TIP3    H227374   2.474   1.053   2.739  1.4277  0.2584  0.1720
 1939TIP3   OH227375   0.633   2.831   4.800 -0.6554 -0.0934  0.5617
 1939TIP3    H127376   0.586   2.758   4.760 -0.9992  1.2948 -1.6903
 1939TIP3    H227377   0.721   2.797   4.815 -0.1251 -0.3866 -2.5651
 1940TIP3   OH227378   0.488   5.660   3.308  0.3548 -0.0542  0.4081
 1940TIP3    H127379   0.509   5.709   3.229  1.1059  0.8181  1.1127
 1940TIP3    H227380   0.554   5.590   3.311 -0.3854 -0.8030 -0.3179
 1941TIP3   OH227381   6.551   5.310   3.119 -0.1772  0.0215  0.2550
 1941TIP3    H127382   6.546   5.325   3.024  2.9530 -1.7313 -0.3351
 1941TIP3    H227383   6.490   5.238   3.135  1.3432 -1.6726 -1.0669
 1942TIP3   OH227384   3.181   4.644   1.997 -0.1342 -0.2564 -0.0826
 1942TIP3    H127385   3.137   4.728   1.985  1.1047  0.5961  1.0408
 1942TIP3    H227386   3.113   4.587   2.033 -0.8418  0.4258 -0.2955
 1943TIP3   OH227387   6.120   5.500   2.130  0.3342 -0.3522  0.1990
 1943TIP3    H127388   6.052   5.445   2.090  1.1799 -0.3546 -1.2941
 1943TIP3    H227389   6.082   5.588   2.128 -0.5835 -0.6795  1.6094
 1944TIP3   OH227390   3.779   5.746   2.364 -0.4284 -0.1049 -1.1875
 1944TIP3    H127391   3.735   5.831   2.368 -0.8005 -0.2765 -1.5752
 1944TIP3    H227392   3.716   5.685   2.402  1.0118  0.2291  1.9940
 1945TIP3   OH227393   2.665   0.130   1.971  0.0772  0.3439 -0.4890
 1945TIP3    H127394   2.632   0.209   1.928  0.7795  0.6791 -0.4261
 1945TIP3    H227395   2.590   0.096   2.019 -0.7932 -0.1738 -2.1510
 1946TIP3   OH227396   3.733   5.409   0.752  0.6033 -0.1352 -0.4189
 1946TIP3    H127397   3.821   5.376   0.772  1.1419  2.0743  1.2584
 1946TIP3    H227398   3.730   5.414   0.657  1.0885 -3.1832 -0.7064
 1947TIP3   OH227399   4.348   1.785   1.835  0.2932 -0.4650  0.6925
 1947TIP3    H127400   4.412   1.838   1.787 -2.3305  1.2279 -1.2158
 1947TIP3    H227401   4.386   1.697   1.836  1.4080 -0.2109 -2.9860
 1948TIP3   OH227402   0.883   2.777   0.889  0.1603 -0.3762  0.0756
 1948TIP3    H127403   0.920   2.705   0.941 -1.7618 -2.6786 -1.5394
 1948TIP3    H227404   0.957   2.836   0.873  2.2154 -2.7869  0.1957
 1949TIP3   OH227405   6.857   5.207   1.312  0.4106 -0.0285 -0.1622
 1949TIP3    H127406   6.885   5.123   1.276 -1.9469 -0.2594 -1.6546
 1949TIP3    H227407   6.775   5.227   1.267 -0.6331  1.6689  2.2560
 1950TIP3   OH227408   3.763   4.911   1.033 -0.4600  0.1097  0.4125
 1950TIP3    H127409   3.821   4.955   0.970  1.2395  1.2228  2.6284
 1950TIP3    H227410   3.675   4.928   1.000  0.3020  2.0728 -0.7887
 1951TIP3   OH227411   6.649   5.466   3.344 -0.5272 -0.6631  0.2629
 1951TIP3    H127412   6.566   5.467   3.392 -0.9362  0.9523 -0.4027
 1951TIP3    H227413   6.625   5.452   3.253 -0.4749  2.8718 -0.4381
 1952TIP3   OH227414   4.189   3.922   2.332 -0.4136  0.1923 -0.6005
 1952TIP3    H127415   4.200   3.972   2.413 -1.0230 -1.3014  0.4532
 1952TIP3    H227416   4.239   3.841   2.347  2.2801  1.2222 -3.0578
 1953TIP3   OH227417   4.388   6.308   2.486  0.2170  0.0357  0.0144
 1953TIP3    H127418   4.386   6.227   2.538 -0.7559 -1.0208 -1.5738
 1953TIP3    H227419   4.480   6.319   2.462  0.3063 -0.8474 -0.0846
 1954TIP3   OH227420   5.657   0.256   0.926  0.1034 -0.1591 -0.0754
 1954TIP3    H127421   5.696   0.173   0.953 -0.1623 -0.5953 -0.9866
 1954TIP3    H227422   5.565   0.250   0.950  0.1295 -0.0428  0.0535
 1955TIP3   OH227423   5.669   4.738   0.311  0.5150 -0.0473  0.0544
 1955TIP3    H127424   5.581   4.727   0.347  0.9168 -0.9425  0.7948
 1955TIP3    H227425   5.683   4.833   0.311  0.4536  0.0138  2.2092
 1956TIP3   OH227426   3.257   4.317   3.444  0.5880 -0.2872 -0.1111
 1956TIP3    H127427   3.220   4.327   3.531  2.0617  0.9688  0.4014
 1956TIP3    H227428   3.256   4.405   3.407 -1.1748 -0.9714 -1.9026
 1957TIP3   OH227429   4.651   5.232   3.760 -0.2122  0.1321  0.2215
 1957TIP3    H127430   4.699   5.150   3.762  0.2549  0.3280 -1.4261
 1957TIP3    H227431   4.628   5.245   3.667  0.2477  2.1437  0.3332
 1958TIP3   OH227432   5.492   3.074   2.141  0.9341 -1.0430 -0.0908
 1958TIP3    H127433   5.434   3.137   2.098  0.7036 -0.4202  1.1068
 1958TIP3    H227434   5.457   2.988   2.117 -0.0434 -0.6830  0.0239
 1959TIP3   OH227435   2.576   6.762   0.472  0.2273 -0.0775 -0.3635
 1959TIP3    H127436   2.580   6.667   0.464 -0.0917 -0.0898 -0.3680
 1959TIP3    H227437   2.519   6.790   0.401  0.4377  0.1315 -0.4538
 1960TIP3   OH227438   4.058   3.828   1.118 -0.1381  0.1736  0.2132
 1960TIP3    H127439   4.011   3.746   1.104 -0.3027  0.2068  0.5648
 1960TIP3    H227440   4.119   3.834   1.045 -1.5631  0.7809 -0.9660
 1961TIP3   OH227441   2.130   5.488   2.290  0.1730 -0.7860  0.1369
 1961TIP3    H127442   2.131   5.566   2.346 -0.1387 -1.0072  0.4518
 1961TIP3    H227443   2.109   5.416   2.349  1.2082 -1.2287 -0.0142
 1962TIP3   OH227444   1.131   4.868   3.559  0.3559 -0.0894  0.7201
 1962TIP3    H127445   1.209   4.922   3.567  1.1734 -1.3052  1.2806
 1962TIP3    H227446   1.146   4.795   3.620 -1.6194  0.1265  1.5421
 1963TIP3   OH227447   6.219   5.996   2.320 -0.3192 -0.1744 -0.0659
 1963TIP3    H127448   6.275   6.045   2.380 -0.6273  1.0238 -0.7222
 1963TIP3    H227449   6.130   6.024   2.342 -0.3498  1.6750 -2.2092
 1964TIP3   OH227450   1.692   2.610   3.484  0.4220  0.2580 -0.2019
 1964TIP3    H127451   1.597   2.607   3.492  0.1296  2.3810 -1.9303
 1964TIP3    H227452   1.721   2.520   3.502 -2.2934 -1.4995 -3.4681
 1965TIP3   OH227453   2.271   0.151   1.807 -0.2596 -0.8792 -0.3670
 1965TIP3    H127454   2.233   0.065   1.822 -0.8084 -0.7118 -0.7427
 1965TIP3    H227455   2.318   0.172   1.887 -2.2964 -0.4031  0.7837
 1966TIP3   OH227456   5.119   4.978   2.753  0.2995  0.1434 -0.3468
 1966TIP3    H127457   5.099   5.043   2.685  0.9745  2.3578  1.4299
 1966TIP3    H227458   5.098   5.023   2.836 -0.4204 -2.4001  0.9535
 1967TIP3   OH227459   5.608   6.456   2.727 -0.2792  0.1967  0.0023
 1967TIP3    H127460   5.678   6.463   2.663  0.5691  1.1959  0.9866
 1967TIP3    H227461   5.616   6.536   2.780 -1.1928 -0.3974  1.0926
 1968TIP3   OH227462   4.982   2.151   0.922 -0.0572  0.4888  0.0582
 1968TIP3    H127463   4.892   2.167   0.952 -0.7875 -0.2100 -1.6437
 1968TIP3    H227464   5.034   2.218   0.966 -1.3831  0.8420  1.1689
 1969TIP3   OH227465   5.620   0.297   1.766  0.0082 -0.7547  0.2759
 1969TIP3    H127466   5.692   0.335   1.815  0.7705 -1.1953 -0.4872
 1969TIP3    H227467   5.588   0.226   1.822 -0.3512 -0.0639  0.9615
 1970TIP3   OH227468   5.667   4.085   1.315 -0.7282  0.0629 -0.1936
 1970TIP3    H127469   5.636   4.141   1.385 -0.9981 -0.2675 -0.0498
 1970TIP3    H227470   5.601   4.093   1.246 -0.9381 -0.3413 -0.0391
 1971TIP3   OH227471   1.520   2.210   0.615 -0.0104  0.0426  0.5343
 1971TIP3    H127472   1.445   2.158   0.643 -1.1067  1.4218  0.2385
 1971TIP3    H227473   1.490   2.258   0.539  0.9567  1.1544  0.8256
 1972TIP3   OH227474   1.129   3.784   0.528 -0.2961 -0.0703 -0.3155
 1972TIP3    H127475   1.122   3.795   0.433 -1.0113 -2.2679 -0.5833
 1972TIP3    H227476   1.208   3.732   0.540 -0.2740  0.0963  0.2984
 1973TIP3   OH227477   5.399   5.204   0.582  0.4158 -0.1739 -0.4085
 1973TIP3    H127478   5.490   5.220   0.555  0.7743  0.0672  0.8615
 1973TIP3    H227479   5.402   5.117   0.624  0.3465  0.3665  0.7611
 1974TIP3   OH227480   5.093   5.327   2.158 -0.3237  0.3206  0.0035
 1974TIP3    H127481   5.146   5.399   2.191  0.1648  0.3907 -0.9094
 1974TIP3    H227482   5.003   5.353   2.179 -0.1870  1.3683 -0.6104
 1975TIP3   OH227483   4.062   4.579   0.793  0.8850  0.7079  0.3428
 1975TIP3    H127484   4.110   4.514   0.742  0.3585  0.8466 -0.3468
 1975TIP3    H227485   4.102   4.663   0.769  0.9589  0.7288  0.5351
 1976TIP3   OH227486   1.004   5.839   3.543 -0.0483  0.2679 -0.2932
 1976TIP3    H127487   0.953   5.920   3.550  0.4746  0.6224 -0.4985
 1976TIP3    H227488   1.048   5.831   3.628 -0.5568 -0.1246 -0.0567
 1977TIP3   OH227489   5.453   0.476   0.800 -1.2708  0.0397 -0.4328
 1977TIP3    H127490   5.379   0.424   0.767 -0.8466  0.8921 -2.9402
 1977TIP3    H227491   5.519   0.470   0.731 -0.5536  2.5341 -0.0610
 1978TIP3   OH227492   6.849   2.894   1.449  0.2613 -0.6392  0.4261
 1978TIP3    H127493   6.917   2.949   1.488 -0.4397 -0.0751  0.8681
 1978TIP3    H227494   6.825   2.940   1.368 -1.4678  0.6155  1.5845
 1979TIP3   OH227495   5.151   2.583   3.178 -0.3892  0.3729  0.4006
 1979TIP3    H127496   5.222   2.602   3.117  0.5531 -0.2868  1.2610
 1979TIP3    H227497   5.071   2.592   3.126  0.3824 -0.0872 -0.8957
 1980TIP3   OH227498   1.614   6.413   8.323  0.5189 -0.2984  0.1993
 1980TIP3    H127499   1.702   6.421   8.360  1.0630 -1.9098 -0.6718
 1980TIP3    H227500   1.569   6.352   8.381 -0.0337  0.5214  0.6407
 1981TIP3   OH227501   4.163   4.030   1.506 -0.3110 -0.0920 -0.3272
 1981TIP3    H127502   4.189   4.088   1.435 -0.1318  1.1468  0.7189
 1981TIP3    H227503   4.082   3.990   1.476  0.3185 -0.4300 -1.6669
 1982TIP3   OH227504   2.004   1.578   0.944  0.6064 -0.0114  0.6821
 1982TIP3    H127505   1.935   1.634   0.979 -1.0643 -1.8175  0.4461
 1982TIP3    H227506   2.073   1.581   1.010 -1.3950 -1.3228  2.9970
 1983TIP3   OH227507   4.875   4.164   4.339 -0.3566  0.3126 -0.1595
 1983TIP3    H127508   4.879   4.123   4.252  0.3943  0.1686 -0.0717
 1983TIP3    H227509   4.820   4.241   4.327 -2.1888 -0.9520 -0.2258
 1984TIP3   OH227510   6.639   6.877   0.978 -0.5676 -0.0839  0.1366
 1984TIP3    H127511   6.732   6.853   0.988 -0.3738  0.6666  0.2337
 1984TIP3    H227512   6.595   6.795   0.956  0.2963 -0.2480 -1.0663
 1985TIP3   OH227513   2.851   1.003   2.017 -0.2608 -0.2441 -0.7465
 1985TIP3    H127514   2.942   1.013   2.043 -0.2984 -0.2171 -0.6237
 1985TIP3    H227515   2.819   1.092   2.005 -0.0948 -0.2746 -1.4055
 1986TIP3   OH227516   2.751   2.562   2.055  0.3367 -0.0305 -0.2221
 1986TIP3    H127517   2.830   2.601   2.020  0.8105 -0.0803  0.7412
 1986TIP3    H227518   2.682   2.624   2.034  0.6711  0.1407 -0.8395
 1987TIP3   OH227519   0.367   1.572   3.210  0.0456  0.0542  0.4091
 1987TIP3    H127520   0.458   1.566   3.179 -0.2107  0.0918 -0.3795
 1987TIP3    H227521   0.345   1.483   3.238  1.0467  0.4898  2.7583
 1988TIP3   OH227522   0.323   6.622   3.071 -0.0766 -0.1054 -0.2746
 1988TIP3    H127523   0.308   6.687   3.002  1.6652  0.7005  0.0476
 1988TIP3    H227524   0.394   6.568   3.038  1.5203  0.9491  1.2650
 1989TIP3   OH227525   5.625   0.018   4.658  0.2987 -0.2403 -0.9689
 1989TIP3    H127526   5.603  -0.035   4.582  0.9399 -2.1716  0.1043
 1989TIP3    H227527   5.720   0.007   4.668  0.0112 -1.5216  1.0790
 1990TIP3   OH227528   5.627   0.005   8.543  0.6991  0.9379  0.1444
 1990TIP3    H127529   5.681   0.045   8.612  0.2234  1.4377  0.2402
 1990TIP3    H227530   5.638  -0.089   8.555  1.3457  1.0346  0.3227
 1991TIP3   OH227531   5.002   1.046   4.876  0.5176  0.2325 -0.0889
 1991TIP3    H127532   5.004   1.137   4.906 -1.9326  0.6839 -1.0877
 1991TIP3    H227533   4.968   0.997   4.951  0.9047  0.2766  0.1194
 1992TIP3   OH227534   1.699   0.454   3.999 -0.0289  0.0373 -0.0621
 1992TIP3    H127535   1.705   0.533   3.945  0.5733 -1.0332 -1.6429
 1992TIP3    H227536   1.731   0.481   4.085  1.8262  1.1349 -1.0245
 1993TIP3   OH227537   3.485   5.122   0.888 -0.3928  0.2174  0.5776
 1993TIP3    H127538   3.508   5.040   0.846  0.5646  1.4347 -1.4362
 1993TIP3    H227539   3.415   5.099   0.949 -0.8752 -1.9050 -0.6750
 1994TIP3   OH227540   3.991   3.786   1.892  0.1028 -0.8260 -0.0291
 1994TIP3    H127541   4.040   3.852   1.842  0.3510 -0.8375  0.2001
 1994TIP3    H227542   3.977   3.714   1.830 -1.6785  0.1372 -0.8327
 1995TIP3   OH227543   5.395   6.278   1.508  0.4070  0.7940  0.2070
 1995TIP3    H127544   5.478   6.247   1.546 -0.5034 -0.1128  1.5290
 1995TIP3    H227545   5.417   6.296   1.416  1.9885  0.2223  0.4312
 1996TIP3   OH227546   2.839   6.556   2.233  0.3761 -0.4103  0.0059
 1996TIP3    H127547   2.862   6.637   2.187 -1.0646  0.2184  0.3471
 1996TIP3    H227548   2.820   6.584   2.323  1.2927 -1.3556  0.5211
 1997TIP3   OH227549   0.679   1.729   4.439  0.3341 -0.7063  0.1738
 1997TIP3    H127550   0.596   1.698   4.476  0.6865 -1.9925 -0.0760
 1997TIP3    H227551   0.746   1.680   4.485  0.9255 -0.2371 -0.1747
 1998TIP3   OH227552   2.830   4.500   1.172 -0.2428  0.0566  0.2741
 1998TIP3    H127553   2.855   4.459   1.255 -1.3052 -2.0221 -0.3686
 1998TIP3    H227554   2.861   4.440   1.105  0.8075  1.8294 -0.8916
 1999TIP3   OH227555   5.571   1.908   0.827 -0.0265  0.0474 -0.8125
 1999TIP3    H127556   5.503   1.922   0.893 -0.3172 -1.9206 -0.6535
 1999TIP3    H227557   5.646   1.875   0.877  0.1197 -0.4000 -1.3217
 2000TIP3   OH227558   2.346   6.584   0.158  0.0203 -0.0513 -0.3495
 2000TIP3    H127559   2.257   6.614   0.141  0.3148 -0.0338 -2.0359
 2000TIP3    H227560   2.388   6.656   0.205 -0.7057  0.1596 -0.0298
 2001TIP3   OH227561   0.732   0.540   0.779  0.0116  0.2411  0.4224
 2001TIP3    H127562   0.794   0.530   0.706 -1.3292 -1.3260 -0.5825
 2001TIP3    H227563   0.672   0.609   0.751  1.2604  1.7884  1.4140
 2002TIP3   OH227564   1.776   3.511   2.874  0.4006  0.4508 -0.7478
 2002TIP3    H127565   1.846   3.446   2.870 -0.1552 -0.1758 -0.4632
 2002TIP3    H227566   1.818   3.589   2.909  0.6647 -0.3276  0.7392
 2003TIP3   OH227567   5.887   0.095   4.650 -0.0829 -0.3095  0.0155
 2003TIP3    H127568   5.860   0.186   4.636  0.5509 -0.1995 -0.5856
 2003TIP3    H227569   5.968   0.087   4.599 -1.7391 -2.0681 -2.5857
 2004TIP3   OH227570   2.778   1.091   8.371 -0.1962  0.3625  0.7437
 2004TIP3    H127571   2.712   1.024   8.387  1.2172 -1.0103  1.0310
 2004TIP3    H227572   2.860   1.054   8.404  0.7005  2.1232  0.6668
 2005TIP3   OH227573   3.069   3.195   1.771 -0.2277  0.6166  0.2337
 2005TIP3    H127574   3.057   3.156   1.684  0.1124 -2.4095  1.3982
 2005TIP3    H227575   3.148   3.247   1.764  0.3047 -0.3201 -1.0636
 2006TIP3   OH227576   2.135   6.868   1.265  0.2456  0.2565 -0.2526
 2006TIP3    H127577   2.091   6.798   1.217 -0.9450 -0.2312  1.4558
 2006TIP3    H227578   2.098   6.949   1.229 -3.3751 -0.1155  2.0563
 2007TIP3   OH227579   1.018   0.292   0.982 -0.0575 -0.5321 -0.0581
 2007TIP3    H127580   0.992   0.208   1.019  4.9439 -1.3595  2.4206
 2007TIP3    H227581   1.047   0.272   0.893  2.0564 -1.8445  0.8428
 2008TIP3   OH227582   1.357   4.691   2.201 -0.2794 -0.3411 -0.1839
 2008TIP3    H127583   1.346   4.637   2.279 -0.0954 -0.2031 -0.0627
 2008TIP3    H227584   1.268   4.708   2.171 -0.3958  0.4935  0.5982
 2009TIP3   OH227585   1.680   1.379   0.463 -0.6039 -0.1207  0.1860
 2009TIP3    H127586   1.591   1.343   0.461 -0.3697 -0.7339  0.7197
 2009TIP3    H227587   1.717   1.346   0.544 -0.3867  1.3628  0.7066
 2010TIP3   OH227588   0.159   6.654   8.311 -0.3347  0.3403  0.2932
 2010TIP3    H127589   0.091   6.719   8.330  0.3840  1.0556  0.4805
 2010TIP3    H227590   0.233   6.706   8.280 -0.1813 -0.4995 -0.8189
 2011TIP3   OH227591   3.516   4.360   2.945 -0.0052  0.7177  0.0738
 2011TIP3    H127592   3.487   4.449   2.928 -0.0428  0.6079 -0.4595
 2011TIP3    H227593   3.576   4.367   3.020 -0.0745  1.1745  0.0854
 2012TIP3   OH227594   4.287   0.286   1.028  0.4046  0.0952  0.1261
 2012TIP3    H127595   4.286   0.294   0.932 -1.6353  1.0982  0.1857
 2012TIP3    H227596   4.235   0.208   1.045 -0.9958  1.0652  0.4541
 2013TIP3   OH227597   5.870   6.487   2.261  0.5570  0.3775  0.0348
 2013TIP3    H127598   5.796   6.515   2.316  1.1596 -1.6772  2.0528
 2013TIP3    H227599   5.863   6.392   2.260  0.9616  0.2715 -3.0630
 2014TIP3   OH227600   6.201   0.549   2.791 -0.0360 -0.8307  0.5096
 2014TIP3    H127601   6.273   0.612   2.800  0.4266 -1.2026 -0.5118
 2014TIP3    H227602   6.241   0.464   2.809  0.2764 -1.2774 -1.9826
 2015TIP3   OH227603   3.994   6.079   3.922 -0.4051 -0.3542 -0.0588
 2015TIP3    H127604   4.047   6.122   3.856  0.5949 -0.4888  0.6309
 2015TIP3    H227605   3.919   6.044   3.874 -1.2252  2.0558 -0.6562
 2016TIP3   OH227606   2.627   3.958   3.811  0.4504 -0.6037 -0.4590
 2016TIP3    H127607   2.661   3.964   3.900  1.6351  1.3483 -0.9870
 2016TIP3    H227608   2.533   3.942   3.822  0.0727  2.2286  1.2469
 2017TIP3   OH227609   2.721   4.323   1.591  0.3666 -0.1857 -0.1469
 2017TIP3    H127610   2.777   4.259   1.634  1.7377  1.6308  0.8961
 2017TIP3    H227611   2.725   4.400   1.647 -0.7507  1.0377 -1.6677
 2018TIP3   OH227612   6.137   5.216   2.672 -0.6293 -0.2826 -0.5678
 2018TIP3    H127613   6.154   5.253   2.586 -1.1304 -0.0821 -0.5860
 2018TIP3    H227614   6.177   5.129   2.670  1.4147  0.5871 -0.1998
 2019TIP3   OH227615   5.334   2.246   5.020 -0.0373 -0.2826  0.3728
 2019TIP3    H127616   5.368   2.185   5.087 -1.3479 -1.7882 -0.2756
 2019TIP3    H227617   5.352   2.202   4.937  3.4298  2.4688 -0.5617
 2020TIP3   OH227618   6.443   5.891   2.771  0.9112 -0.6529  0.0845
 2020TIP3    H127619   6.518   5.922   2.821 -0.0381 -0.7216  1.6520
 2020TIP3    H227620   6.373   5.883   2.836 -1.6490  3.1720 -1.8147
 2021TIP3   OH227621   3.797   1.424   2.830  0.6927 -0.4145 -0.0352
 2021TIP3    H127622   3.819   1.516   2.845 -0.1394  0.0240 -1.3278
 2021TIP3    H227623   3.779   1.389   2.918  0.9176  0.6703  0.4624
 2022TIP3   OH227624   5.121   6.874   3.653 -0.1821 -0.6466  0.0969
 2022TIP3    H127625   5.172   6.917   3.585 -0.0596  0.7290  1.0247
 2022TIP3    H227626   5.158   6.905   3.735 -1.9179 -0.2962  0.7962
 2023TIP3   OH227627   3.225   1.214   4.401  0.2082  1.3673  0.2414
 2023TIP3    H127628   3.137   1.189   4.431  0.4206  1.0745  0.6225
 2023TIP3    H227629   3.284   1.158   4.451  0.5172 -0.3666 -1.8973
 2024TIP3   OH227630   6.637   0.310   2.399 -0.5988  0.3204 -1.2806
 2024TIP3    H127631   6.713   0.358   2.431 -1.3666  1.0658 -0.5160
 2024TIP3    H227632   6.585   0.376   2.352 -0.9823 -0.0768 -1.4278
 2025TIP3   OH227633   6.614   5.067   3.668 -0.2265  0.1440  0.1141
 2025TIP3    H127634   6.684   5.121   3.630  1.4547 -0.2721  2.3736
 2025TIP3    H227635   6.555   5.130   3.708  0.6849  0.4246  1.0663
 2026TIP3   OH227636   1.028   2.370   2.334  0.7075  0.8437 -0.6040
 2026TIP3    H127637   1.026   2.312   2.409 -0.6632  1.1694 -0.3597
 2026TIP3    H227638   0.947   2.351   2.286  0.2987  2.4119 -0.6060
 2027TIP3   OH227639   6.006   5.681   1.682 -0.1037 -0.7938 -0.1459
 2027TIP3    H127640   6.095   5.693   1.650 -0.2580 -0.0749 -0.3209
 2027TIP3    H227641   5.960   5.639   1.609  0.1467 -1.3974  0.0362
 2028TIP3   OH227642   2.203   1.706   2.911 -0.6357 -0.0391 -0.6925
 2028TIP3    H127643   2.256   1.786   2.916 -1.3178  0.4679 -1.3528
 2028TIP3    H227644   2.245   1.646   2.972  0.0018  0.7611 -0.3204
 2029TIP3   OH227645   0.742   2.161   2.782  0.4693  0.1024  0.4168
 2029TIP3    H127646   0.670   2.220   2.758 -0.7421 -0.3060  2.7010
 2029TIP3    H227647   0.817   2.195   2.734 -0.8070  1.7711 -0.5433
 2030TIP3   OH227648   2.932   0.289   1.786  0.0614 -0.4321  0.0707
 2030TIP3    H127649   2.942   0.205   1.742  0.3432 -0.4191  0.1132
 2030TIP3    H227650   2.837   0.306   1.783  0.2332  0.5733 -2.4158
 2031TIP3   OH227651   1.664   0.656   2.463 -0.3337  0.1272 -0.4690
 2031TIP3    H127652   1.583   0.692   2.427 -0.6610  1.2901  1.3088
 2031TIP3    H227653   1.716   0.732   2.487 -0.6247 -0.5021  2.5157
 2032TIP3   OH227654   2.501   4.081   1.223  0.0891 -0.0411  0.2285
 2032TIP3    H127655   2.416   4.043   1.246  1.4429 -1.8566  2.7200
 2032TIP3    H227656   2.565   4.016   1.252  2.4070  1.7280 -0.5816
 2033TIP3   OH227657   6.747   3.570   3.917 -0.5032 -0.7206  0.1420
 2033TIP3    H127658   6.695   3.650   3.928  1.1825  0.3660  0.6690
 2033TIP3    H227659   6.752   3.557   3.823 -2.3019 -1.2956  0.0753
 2034TIP3   OH227660   2.004   1.578   2.773  0.2174  0.4786  0.6936
 2034TIP3    H127661   2.080   1.598   2.828  0.9000  1.2744 -0.5140
 2034TIP3    H227662   1.938   1.642   2.800  0.3053  0.4160  1.0651
 2035TIP3   OH227663   6.901   2.156   2.731  0.3619 -0.2034 -0.5774
 2035TIP3    H127664   6.960   2.230   2.740  0.7455 -0.6720  1.3338
 2035TIP3    H227665   6.821   2.194   2.695  0.3135  1.3192  0.9587
 2036TIP3   OH227666   4.073   3.209   4.237  0.6668 -0.1621 -0.4101
 2036TIP3    H127667   4.088   3.151   4.162  2.1335 -0.3763  0.0366
 2036TIP3    H227668   4.051   3.150   4.309 -1.3775  0.0770 -0.7732
 2037TIP3   OH227669   1.402   1.986   0.908  0.0701 -0.1521  0.2487
 2037TIP3    H127670   1.323   2.032   0.882 -0.3218 -0.9964 -0.0793
 2037TIP3    H227671   1.438   1.952   0.826  0.7218  0.1295  0.4070
 2038TIP3   OH227672   4.850   6.320   1.477  0.6224  0.2895  0.0317
 2038TIP3    H127673   4.761   6.357   1.473  0.7471  0.5767 -0.0884
 2038TIP3    H227674   4.885   6.331   1.389  0.9596  0.6272  0.2053
 2039TIP3   OH227675   5.673   1.672   4.503  0.3108 -0.4487 -0.1385
 2039TIP3    H127676   5.640   1.662   4.414 -1.5942  1.8656  0.2071
 2039TIP3    H227677   5.760   1.709   4.493  0.1844 -0.3801 -1.0584
 2040TIP3   OH227678   6.421   4.381   1.692  0.2357  0.3471 -0.0827
 2040TIP3    H127679   6.334   4.418   1.709 -0.4699 -0.6316 -1.4102
 2040TIP3    H227680   6.424   4.367   1.597  1.6445 -0.1252  0.0025
 2041TIP3   OH227681   4.133   5.306   2.009  0.3148 -0.0793  0.0428
 2041TIP3    H127682   4.158   5.252   2.084 -0.6010 -1.5012 -0.6247
 2041TIP3    H227683   4.049   5.344   2.033  0.0000 -0.5697 -0.2561
 2042TIP3   OH227684   2.709   5.659   1.240 -0.1893  0.4683  0.0177
 2042TIP3    H127685   2.725   5.621   1.154  0.0658  1.9483 -0.6342
 2042TIP3    H227686   2.621   5.631   1.263  0.6462 -1.9900  0.4321
 2043TIP3   OH227687   4.634   4.706   1.448  0.0479 -0.2627  0.4273
 2043TIP3    H127688   4.724   4.723   1.475 -0.4622  0.4116  1.8145
 2043TIP3    H227689   4.636   4.618   1.410  1.2224 -0.3791  0.7282
 2044TIP3   OH227690   5.134   4.014   1.640  0.1531 -0.3407 -0.0002
 2044TIP3    H127691   5.071   4.086   1.631 -0.1493 -0.4604  1.0406
 2044TIP3    H227692   5.144   4.003   1.735  0.6299 -1.2952 -0.1551
 2045TIP3   OH227693   3.842   5.469   2.580  0.2384  0.0464  0.1822
 2045TIP3    H127694   3.768   5.508   2.533  0.5134 -0.0175 -0.3097
 2045TIP3    H227695   3.902   5.542   2.595 -0.2650  0.2448  1.2492
 2046TIP3   OH227696   0.719   1.465   1.729  0.1557  0.0719 -0.2761
 2046TIP3    H127697   0.725   1.544   1.675 -0.1029 -0.1261 -0.6013
 2046TIP3    H227698   0.658   1.487   1.798 -0.8210 -0.2144 -1.0320
 2047TIP3   OH227699   1.004   4.490   0.460  0.7266  0.1716 -0.1774
 2047TIP3    H127700   0.938   4.500   0.528  1.5233  0.2971  0.5892
 2047TIP3    H227701   1.054   4.571   0.462 -0.5119  1.0861 -2.3494
 2048TIP3   OH227702   3.438   2.735   0.927 -0.3334 -0.1104  0.2542
 2048TIP3    H127703   3.430   2.649   0.967  0.4584 -1.1620 -1.7316
 2048TIP3    H227704   3.353   2.752   0.888 -0.1823 -0.4837 -0.2494
 2049TIP3   OH227705   6.205   3.346   1.282  0.4622  0.3208 -0.0398
 2049TIP3    H127706   6.287   3.325   1.237  0.4031  1.3749 -0.6807
 2049TIP3    H227707   6.138   3.295   1.235  0.9330 -2.0628  1.6802
 2050TIP3   OH227708   1.873   5.426   3.455  0.2366 -0.7582 -0.5323
 2050TIP3    H127709   1.823   5.368   3.513 -0.4438  0.5702  0.2665
 2050TIP3    H227710   1.929   5.367   3.405  1.7160 -1.9697  2.2634
 2051TIP3   OH227711   6.513   2.178   1.502  0.3057 -0.2227 -0.3544
 2051TIP3    H127712   6.595   2.183   1.551  0.3574 -1.8238 -0.2145
 2051TIP3    H227713   6.530   2.114   1.433 -0.5838  0.0317 -0.8265
 2052TIP3   OH227714   3.898   3.969   1.485 -0.3723  0.0598  0.4651
 2052TIP3    H127715   3.841   4.044   1.502 -0.6346 -0.1188  0.3811
 2052TIP3    H227716   3.845   3.893   1.510 -0.3700 -0.1410 -0.1083
 2053TIP3   OH227717   0.064   6.533   3.286  0.2523 -0.0185 -0.3105
 2053TIP3    H127718   0.060   6.616   3.333 -0.1136  0.0270 -0.4161
 2053TIP3    H227719  -0.026   6.500   3.288  0.8712 -1.7581  2.1157
 2054TIP3   OH227720   1.152   3.861   4.717  0.3112  0.1029  0.3676
 2054TIP3    H127721   1.242   3.850   4.686  0.8084 -1.7473  2.2711
 2054TIP3    H227722   1.098   3.828   4.645  1.2385 -0.5319 -0.0609
 2055TIP3   OH227723   0.900   6.690   1.348  0.3792  0.0611 -0.4418
 2055TIP3    H127724   0.980   6.646   1.319  0.4423  0.3427 -0.6934
 2055TIP3    H227725   0.847   6.620   1.387  0.0752 -0.4178 -1.6716
 2056TIP3   OH227726   0.104   1.820   3.660  0.6414  0.5566  0.0137
 2056TIP3    H127727   0.129   1.794   3.571  0.7786  0.3780  0.1034
 2056TIP3    H227728   0.099   1.737   3.708  0.4233  0.6403  0.1351
 2057TIP3   OH227729   3.494   0.314   0.209 -0.0349 -0.7788  0.8297
 2057TIP3    H127730   3.477   0.220   0.198  0.9944 -0.9181  0.3757
 2057TIP3    H227731   3.577   0.318   0.257 -0.3036 -0.0958  1.2524
 2058TIP3   OH227732   5.753   6.583   3.458 -0.3555  0.1887  0.4865
 2058TIP3    H127733   5.818   6.577   3.528 -1.3874  0.8625  1.5483
 2058TIP3    H227734   5.794   6.639   3.392  1.6737 -2.5389 -0.7170
 2059TIP3   OH227735   5.103   5.679   0.980 -0.3126 -0.7567  0.0270
 2059TIP3    H127736   5.039   5.693   0.911 -2.6669 -2.1299  1.8020
 2059TIP3    H227737   5.182   5.649   0.933 -2.1280 -2.6676 -2.0328
 2060TIP3   OH227738   1.677   1.250   4.423 -0.1124  0.1293 -0.8259
 2060TIP3    H127739   1.673   1.174   4.482  0.7916  2.1735  2.1306
 2060TIP3    H227740   1.606   1.307   4.452  0.8070  1.5301 -1.1968
 2061TIP3   OH227741   2.952   3.699   4.830 -0.4066  0.2913  0.4459
 2061TIP3    H127742   2.970   3.681   4.922 -0.2181  1.3882  0.6266
 2061TIP3    H227743   2.950   3.794   4.823 -0.1709  0.2299 -0.7305
 2062TIP3   OH227744   1.114   0.344   3.524  0.4971 -0.0679 -0.3645
 2062TIP3    H127745   1.144   0.415   3.581  0.7027 -0.5338  0.1127
 2062TIP3    H227746   1.066   0.285   3.582 -0.7901  0.3253 -0.9878
 2063TIP3   OH227747   6.253   2.926   1.685 -0.1204  0.6374  0.3659
 2063TIP3    H127748   6.300   2.954   1.764 -0.6730  0.6049  0.7053
 2063TIP3    H227749   6.254   3.003   1.628  1.8187  0.1535 -0.3459
 2064TIP3   OH227750   6.289   2.728   1.455 -0.8201  0.3488  0.2853
 2064TIP3    H127751   6.244   2.803   1.494  0.0145  0.2303  1.5078
 2064TIP3    H227752   6.323   2.678   1.529 -0.0074 -0.4011 -0.5616
 2065TIP3   OH227753   1.145   2.325   3.018  0.5007  0.7113 -0.4329
 2065TIP3    H127754   1.214   2.346   3.081  0.8084 -0.6252 -0.2937
 2065TIP3    H227755   1.190   2.280   2.947 -0.0383  1.0344 -0.9835
 2066TIP3   OH227756   5.528   5.048   0.875 -0.4046 -0.1893 -0.1060
 2066TIP3    H127757   5.600   5.082   0.928 -0.6256 -2.1594  1.5520
 2066TIP3    H227758   5.561   4.965   0.840 -0.8937  0.2404 -1.6887
 2067TIP3   OH227759   0.528   3.941   0.908  0.2419 -0.0449  0.2060
 2067TIP3    H127760   0.522   3.921   0.815 -2.2631 -1.6125  0.6002
 2067TIP3    H227761   0.610   3.900   0.936  0.0295 -1.3556 -0.9496
 2068TIP3   OH227762   3.917   6.068   1.779  0.1390  0.1138  0.1539
 2068TIP3    H127763   3.899   6.020   1.699  4.1990 -1.4730 -0.0694
 2068TIP3    H227764   3.944   6.155   1.750 -0.3091  0.1903 -0.0324
 2069TIP3   OH227765   0.884   4.868   0.911  0.1267  0.5249  0.5764
 2069TIP3    H127766   0.909   4.838   0.823 -2.5104 -2.1452  0.5796
 2069TIP3    H227767   0.956   4.839   0.967  0.3027 -0.7711 -0.2675
 2070TIP3   OH227768   3.177   3.962   0.463  0.1272 -0.0648  0.0937
 2070TIP3    H127769   3.086   3.934   0.472 -0.2269  0.2197 -1.9764
 2070TIP3    H227770   3.200   3.941   0.372  1.0448  2.8220 -0.4495
 2071TIP3   OH227771   6.744   6.352   3.706 -0.0325  0.3827  0.0135
 2071TIP3    H127772   6.778   6.265   3.730  0.1112  0.6434  0.7969
 2071TIP3    H227773   6.822   6.407   3.700 -0.2424  0.8559  1.2630
 2072TIP3   OH227774   1.374   0.459   2.849 -0.4329 -0.0486  0.1248
 2072TIP3    H127775   1.366   0.517   2.773  1.0208 -1.2264 -0.9942
 2072TIP3    H227776   1.285   0.445   2.879 -1.1405 -0.3364 -1.9825
 2073TIP3   OH227777   0.150   2.874   2.690  0.0771 -0.1440 -0.5739
 2073TIP3    H127778   0.144   2.933   2.615 -1.9184  0.2463 -0.1575
 2073TIP3    H227779   0.123   2.789   2.656 -0.3773 -0.0676 -0.4076
 2074TIP3   OH227780   4.612   4.414   1.992 -0.3347  0.0772 -0.8135
 2074TIP3    H127781   4.685   4.374   2.039  0.2444  0.9098 -0.9646
 2074TIP3    H227782   4.554   4.447   2.060 -1.2266 -1.6914 -0.6815
 2075TIP3   OH227783   2.162   3.723   1.813 -0.0704 -0.0335  0.1825
 2075TIP3    H127784   2.235   3.665   1.790  0.9603  0.2354  2.4411
 2075TIP3    H227785   2.204   3.807   1.833 -0.7777 -0.1785  2.6284
 2076TIP3   OH227786   5.689   0.733   0.689 -0.0856  0.2215 -0.1888
 2076TIP3    H127787   5.777   0.771   0.686  0.5071 -1.1513 -1.9812
 2076TIP3    H227788   5.689   0.678   0.767  1.0376 -0.5512 -0.7035
 2077TIP3   OH227789   0.964   3.092   2.311  0.3618 -0.4973 -0.0574
 2077TIP3    H127790   0.974   3.005   2.272 -0.9374 -0.4684 -0.5047
 2077TIP3    H227791   0.921   3.144   2.243  3.6164  1.3646 -0.9476
 2078TIP3   OH227792   5.450   5.965   2.075 -0.3740  0.0415 -0.0038
 2078TIP3    H127793   5.483   6.038   2.127 -0.6051  0.1424  0.0029
 2078TIP3    H227794   5.529   5.919   2.046 -0.1842  0.8133 -0.7594
 2079TIP3   OH227795   4.846   2.706   8.516 -0.0000 -0.1098  0.2300
 2079TIP3    H127796   4.848   2.635   8.581 -1.3293  0.3511  0.8204
 2079TIP3    H227797   4.814   2.664   8.436 -0.7845 -0.1867  0.5772
 2080TIP3   OH227798   1.939   2.539   1.179 -0.5421  0.7910  0.0098
 2080TIP3    H127799   1.990   2.616   1.207 -1.7596  1.2886  0.9602
 2080TIP3    H227800   1.927   2.552   1.085  1.5514  0.3478 -0.3816
 2081TIP3   OH227801   3.400   3.919   4.505  0.4839  0.3382 -0.6621
 2081TIP3    H127802   3.347   3.895   4.429  0.2174 -0.2811 -0.2819
 2081TIP3    H227803   3.365   4.004   4.532  0.3730  0.4144 -1.0383
 2082TIP3   OH227804   1.517   4.497   3.139 -0.2195 -0.0898 -0.2089
 2082TIP3    H127805   1.594   4.543   3.173  0.3266 -0.2087 -1.2365
 2082TIP3    H227806   1.443   4.546   3.174  0.3197  0.1312  0.6644
 2083TIP3   OH227807   3.302   3.302   1.257  0.2054  0.0488 -0.0060
 2083TIP3    H127808   3.231   3.365   1.241  0.6211  0.7287  0.7416
 2083TIP3    H227809   3.363   3.349   1.313  0.8234 -0.8327  0.0770
 2084TIP3   OH227810   2.609   0.747   3.598  0.3214  0.2260 -0.3254
 2084TIP3    H127811   2.650   0.716   3.679 -1.4363 -0.7460  0.2741
 2084TIP3    H227812   2.681   0.776   3.543  1.5980  0.7590  1.5176
 2085TIP3   OH227813   4.045   3.671   3.300  0.5551 -0.1303 -0.2037
 2085TIP3    H127814   4.071   3.592   3.254  0.0518 -0.4851  0.1078
 2085TIP3    H227815   3.992   3.720   3.236 -1.7016 -1.4799  0.5131
 2086TIP3   OH227816   5.414   2.047   4.853 -0.0631  0.1257  0.0633
 2086TIP3    H127817   5.504   2.030   4.826 -0.4815  0.2687 -1.5379
 2086TIP3    H227818   5.364   1.973   4.818 -0.5127 -0.1828  1.3222
 2087TIP3   OH227819   4.415   0.337   2.458  0.2436 -0.4377  0.0784
 2087TIP3    H127820   4.352   0.396   2.415 -0.0855  0.3368  1.5308
 2087TIP3    H227821   4.467   0.301   2.387 -0.5803  0.4140 -0.9962
 2088TIP3   OH227822   2.880   4.920   0.923  0.4320 -0.1875  0.5685
 2088TIP3    H127823   2.893   5.011   0.951  1.9323 -0.5868  1.3031
 2088TIP3    H227824   2.969   4.885   0.915 -0.0541 -1.0390 -1.6576
 2089TIP3   OH227825   1.231   4.553   4.020  0.4277 -0.6603  0.2991
 2089TIP3    H127826   1.244   4.459   4.034  0.7666 -0.7601 -0.5717
 2089TIP3    H227827   1.291   4.595   4.082  0.5355 -1.0279  0.4503
 2090TIP3   OH227828   5.917   6.465   0.335  0.1014  0.3473 -0.4138
 2090TIP3    H127829   5.840   6.435   0.288  0.2872  0.4283 -0.7733
 2090TIP3    H227830   5.977   6.390   0.332  0.5862  0.7614 -1.3575
 2091TIP3   OH227831   6.600   1.178   3.052  0.3506 -0.4642 -0.2966
 2091TIP3    H127832   6.570   1.170   2.962  2.2748 -1.5727 -0.9118
 2091TIP3    H227833   6.524   1.155   3.106 -0.9894  0.7845 -1.5873
 2092TIP3   OH227834   2.398   0.945   0.707  0.4148 -0.1813 -0.1333
 2092TIP3    H127835   2.375   0.879   0.772  0.6045  0.4661  0.5997
 2092TIP3    H227836   2.341   1.019   0.726  1.8971  0.8108  0.6427
 2093TIP3   OH227837   5.910   4.767   2.650  0.5855 -0.1084 -0.4601
 2093TIP3    H127838   5.855   4.813   2.714  0.6890 -1.8298  0.9515
 2093TIP3    H227839   5.854   4.754   2.574 -0.2852 -0.0121  0.1592
 2094TIP3   OH227840   2.710   1.311   0.877 -0.3003  0.8545 -0.3214
 2094TIP3    H127841   2.642   1.272   0.822 -2.2383  1.3741  1.5736
 2094TIP3    H227842   2.782   1.248   0.876 -1.6028 -0.6765 -0.8102
 2095TIP3   OH227843   1.597   5.682   1.117 -0.1370  0.0140  0.1273
 2095TIP3    H127844   1.527   5.635   1.071  1.3393 -1.6636 -0.5547
 2095TIP3    H227845   1.615   5.628   1.195 -0.0322  0.7670  0.6337
 2096TIP3   OH227846   5.408   1.772   2.963 -0.1103  0.2137 -0.4076
 2096TIP3    H127847   5.353   1.746   2.889  2.0540  0.1053 -2.0746
 2096TIP3    H227848   5.436   1.861   2.941 -0.7631  0.8175  1.1303
 2097TIP3   OH227849   5.391   5.378   3.258 -0.2097 -0.1740 -0.2457
 2097TIP3    H127850   5.459   5.352   3.195  2.8182 -0.4626  2.8170
 2097TIP3    H227851   5.386   5.304   3.319 -2.5151  0.3565  0.2997
 2098TIP3   OH227852   1.308   1.711   3.223  0.0071 -0.1301 -0.2656
 2098TIP3    H127853   1.366   1.777   3.260  0.0425  1.3626 -2.7386
 2098TIP3    H227854   1.365   1.637   3.203  0.5531  0.2506 -0.1466
 2099TIP3   OH227855   2.567   1.062   4.462 -0.7640  0.1119 -0.2976
 2099TIP3    H127856   2.559   1.002   4.388 -0.5554 -0.1420 -0.1140
 2099TIP3    H227857   2.540   1.010   4.538 -1.4526  0.5119 -0.2578
 2100TIP3   OH227858   4.581   1.788   2.078  0.1528 -0.2168  0.1650
 2100TIP3    H127859   4.543   1.859   2.129 -1.5376 -1.1300  0.2339
 2100TIP3    H227860   4.532   1.710   2.103 -2.2293 -0.4387 -4.1726
 2101TIP3   OH227861   1.926   6.243   0.775  0.2441  0.2204 -0.2072
 2101TIP3    H127862   1.900   6.316   0.719 -3.1426 -0.1490  0.6647
 2101TIP3    H227863   2.021   6.250   0.782  0.3242  2.7678 -2.5096
 2102TIP3   OH227864   1.029   1.107   2.001 -0.1267 -0.0795  0.4671
 2102TIP3    H127865   1.003   1.036   1.942 -0.7355 -1.9062  2.8001
 2102TIP3    H227866   0.983   1.184   1.967 -1.9299 -1.4553 -0.3969
 2103TIP3   OH227867   1.990   6.340   2.517 -1.0106  0.8277 -0.0908
 2103TIP3    H127868   1.966   6.277   2.584 -0.5196  0.1759 -0.5154
 2103TIP3    H227869   1.926   6.326   2.447 -0.6811  0.5339 -0.3399
 2104TIP3   OH227870   1.761   3.431   4.946 -0.0033  0.1351  0.7136
 2104TIP3    H127871   1.681   3.438   4.999  0.3905  1.7932  1.1467
 2104TIP3    H227872   1.788   3.340   4.956  0.2160  0.4293  3.6738
 2105TIP3   OH227873   0.833   3.899   1.392  0.9832 -0.5196  0.2142
 2105TIP3    H127874   0.912   3.926   1.346  1.3464 -1.0519  0.5093
 2105TIP3    H227875   0.815   3.811   1.357  0.2443 -0.2078 -0.2066
 2106TIP3   OH227876   3.660   4.061   0.905  0.4070  0.2567 -0.1402
 2106TIP3    H127877   3.725   4.050   0.835  1.6672 -2.6851  1.2861
 2106TIP3    H227878   3.711   4.051   0.986 -1.2541  1.9094  1.1926
 2107TIP3   OH227879   1.450   4.875   1.522 -0.0335  0.4013 -0.5184
 2107TIP3    H127880   1.482   4.822   1.594 -0.1189  0.2142 -0.6162
 2107TIP3    H227881   1.489   4.961   1.536 -0.3228  0.4626 -0.0581
 2108TIP3   OH227882   4.667   4.852   2.075 -0.1663 -0.1500  0.0487
 2108TIP3    H127883   4.693   4.936   2.112 -2.8724  0.7432  0.1313
 2108TIP3    H227884   4.679   4.862   1.980  0.8287 -0.2097  0.1551
 2109TIP3   OH227885   6.530   0.666   1.208  0.1574  0.1665 -0.5598
 2109TIP3    H127886   6.458   0.605   1.224  1.8187 -1.9603 -0.7042
 2109TIP3    H227887   6.526   0.728   1.280 -0.4856 -1.2495  0.6737
 2110TIP3   OH227888   5.403   4.150   3.928  0.0772  0.0831 -0.2114
 2110TIP3    H127889   5.458   4.083   3.967  0.8693  0.1008 -1.2575
 2110TIP3    H227890   5.323   4.149   3.981  0.9611 -0.1209  1.1650
 2111TIP3   OH227891   5.135   4.593   2.078 -0.0401  0.1010 -0.1953
 2111TIP3    H127892   5.055   4.641   2.100  0.1709 -0.1079  1.0887
 2111TIP3    H227893   5.106   4.525   2.017 -0.6838  0.5677 -0.4279
 2112TIP3   OH227894   3.756   1.009   3.813  0.1043 -0.0823  0.1586
 2112TIP3    H127895   3.694   1.026   3.742  0.5822 -0.3797 -0.3302
 2112TIP3    H227896   3.700   0.997   3.891 -0.6076 -2.5483 -0.6614
 2113TIP3   OH227897   5.133   6.903   4.208  0.1949  0.1618 -0.2148
 2113TIP3    H127898   5.056   6.853   4.180  0.7828 -0.0468 -1.5113
 2113TIP3    H227899   5.105   6.995   4.201  0.2050  0.1032 -1.1523
 2114TIP3   OH227900   1.717   0.117   4.030 -0.5994  0.2918 -0.0386
 2114TIP3    H127901   1.629   0.091   4.056 -0.4746 -1.0633 -0.8880
 2114TIP3    H227902   1.727   0.206   4.065 -1.9080  0.0784  0.9517
 2115TIP3   OH227903   3.376   5.866   2.531  0.2338  0.1488  0.3457
 2115TIP3    H127904   3.448   5.846   2.592  1.5843  1.0389 -0.9036
 2115TIP3    H227905   3.410   5.842   2.445 -1.1712  0.1343 -0.2277
 2116TIP3   OH227906   4.632   1.109   4.553 -0.1149  0.4139  0.3553
 2116TIP3    H127907   4.620   1.024   4.594 -0.7116 -0.0170 -0.6773
 2116TIP3    H227908   4.608   1.173   4.620 -2.4665 -0.2955  0.2505
 2117TIP3   OH227909   1.526   1.882   8.359  0.3486 -0.1255 -0.1547
 2117TIP3    H127910   1.621   1.872   8.348  0.3128 -0.1931 -0.4133
 2117TIP3    H227911   1.488   1.810   8.309  0.1666 -0.2241  0.1254
 2118TIP3   OH227912   2.085   3.428   1.464  0.1540  0.4770  0.0155
 2118TIP3    H127913   2.158   3.416   1.402  0.7283 -0.6033  0.8692
 2118TIP3    H227914   2.093   3.355   1.525 -1.5772  0.4185  0.2179
 2119TIP3   OH227915   4.134   0.732   3.022 -0.7096 -0.2037 -0.2386
 2119TIP3    H127916   4.228   0.747   3.017 -0.2574 -1.3566  2.8230
 2119TIP3    H227917   4.120   0.647   2.981 -0.3203 -0.3446 -0.0786
 2120TIP3   OH227918   1.101   0.033   0.852  0.0658 -0.4112  0.8093
 2120TIP3    H127919   1.059  -0.027   0.791 -0.5157  0.4026  0.4115
 2120TIP3    H227920   1.130  -0.024   0.924  2.1641 -1.6399 -0.8921
 2121TIP3   OH227921   0.649   1.065   1.897 -0.0321 -0.4255 -0.1096
 2121TIP3    H127922   0.723   1.127   1.899 -0.0464 -0.4182  0.2376
 2121TIP3    H227923   0.609   1.079   1.811  0.0723 -0.0764 -0.1050
 2122TIP3   OH227924   1.853   2.405   2.957  0.2605 -0.1480  0.4489
 2122TIP3    H127925   1.888   2.358   3.033 -0.7149 -0.0146  1.0024
 2122TIP3    H227926   1.778   2.352   2.929 -0.2120  0.5140  0.4281
 2123TIP3   OH227927   2.743   2.253   3.826  0.0441 -1.0994 -0.1965
 2123TIP3    H127928   2.653   2.272   3.853  0.9513 -0.1234  2.3126
 2123TIP3    H227929   2.756   2.161   3.849  0.4093 -0.6043  1.7064
 2124TIP3   OH227930   3.217   0.382   2.408 -0.6220  0.1227 -0.5580
 2124TIP3    H127931   3.242   0.292   2.389  0.9344  0.5665 -0.7248
 2124TIP3    H227932   3.201   0.421   2.322  3.7474  1.3675 -1.0352
 2125TIP3   OH227933   2.140   0.962   2.449  0.7162 -0.0794 -0.2955
 2125TIP3    H127934   2.085   1.040   2.452 -1.1905 -1.3776  1.7808
 2125TIP3    H227935   2.194   0.973   2.370 -0.7326  2.4518 -1.0325
 2126TIP3   OH227936   3.238   3.218   3.273  0.0483  0.3012  0.1502
 2126TIP3    H127937   3.235   3.268   3.191  1.6174 -1.5223 -1.1147
 2126TIP3    H227938   3.188   3.139   3.255 -0.9137  0.5585  1.5272
 2127TIP3   OH227939   3.185   0.108   4.310  0.0475  0.4771 -0.2349
 2127TIP3    H127940   3.219   0.041   4.370 -0.3422 -1.5698 -2.1818
 2127TIP3    H227941   3.248   0.179   4.316  0.8126 -0.2856  1.4835
 2128TIP3   OH227942   5.030   5.591   0.722 -0.0611  0.0411 -0.5792
 2128TIP3    H127943   5.066   5.672   0.686  1.0616 -1.1932 -2.4005
 2128TIP3    H227944   5.064   5.522   0.665 -2.3695 -1.5804 -0.1561
 2129TIP3   OH227945   2.615   3.962   0.454  0.1255  0.2778 -0.5577
 2129TIP3    H127946   2.656   3.884   0.492  2.0733  1.3943 -0.2473
 2129TIP3    H227947   2.541   3.928   0.403  0.6127 -1.7108 -0.0188
 2130TIP3   OH227948   1.531   6.739   2.595 -0.1058 -0.0687  0.2923
 2130TIP3    H127949   1.591   6.686   2.541 -0.8272  1.4877 -2.2376
 2130TIP3    H227950   1.575   6.823   2.603 -0.3693 -0.0347  1.5664
 2131TIP3   OH227951   1.146   6.816   2.596 -0.4386 -0.4320 -0.0712
 2131TIP3    H127952   1.218   6.852   2.648  0.1381 -0.7634 -0.6268
 2131TIP3    H227953   1.155   6.721   2.604 -0.9299 -0.4752  0.0091
 2132TIP3   OH227954   2.150   6.300   0.174 -0.2947  0.3444 -0.2764
 2132TIP3    H127955   2.099   6.295   0.093  0.8120 -0.7244 -0.9339
 2132TIP3    H227956   2.239   6.318   0.146  0.4150 -1.6057  0.5554
 2133TIP3   OH227957   1.610   2.189   1.757  0.0951  0.3580 -0.3085
 2133TIP3    H127958   1.579   2.142   1.834 -2.9585  1.2149 -0.8812
 2133TIP3    H227959   1.605   2.281   1.782 -1.1443  0.6557 -1.5421
 2134TIP3   OH227960   1.592   4.121   2.518 -0.0440  0.2107  0.2823
 2134TIP3    H127961   1.681   4.090   2.538 -0.9868 -3.7483 -0.6532
 2134TIP3    H227962   1.553   4.138   2.603  0.9428 -0.2405  0.8489
 2135TIP3   OH227963   0.117   3.844   2.636  0.1826  0.6947  0.3283
 2135TIP3    H127964   0.073   3.876   2.557  0.7569  1.4853  0.3231
 2135TIP3    H227965   0.194   3.798   2.604  0.7375  1.5271  0.4435
 2136TIP3   OH227966   3.524   2.290   2.799  0.1735 -0.0412  0.6492
 2136TIP3    H127967   3.511   2.324   2.887  3.4415  1.1227  0.8082
 2136TIP3    H227968   3.603   2.334   2.767  1.2611 -3.1509 -1.4428
 2137TIP3   OH227969   3.342   1.193   2.428  0.7877  0.3172 -0.0367
 2137TIP3    H127970   3.296   1.208   2.511 -0.5584  0.8001 -0.8311
 2137TIP3    H227971   3.433   1.216   2.446  0.1010  2.7711  0.6853
 2138TIP3   OH227972   5.055   2.411   2.958  0.9274  0.5749 -0.3427
 2138TIP3    H127973   4.977   2.366   2.924  0.3481  1.1266  0.2177
 2138TIP3    H227974   5.040   2.415   3.052  2.5587 -1.0435  0.0418
 2139TIP3   OH227975   1.835   1.439   0.159  0.2820  0.2540  0.3949
 2139TIP3    H127976   1.768   1.380   0.124  2.4676 -2.0759 -0.1455
 2139TIP3    H227977   1.864   1.490   0.084  2.1763 -1.9514 -0.5013
 2140TIP3   OH227978   1.034   1.296   4.319 -0.2103 -0.0084  1.1361
 2140TIP3    H127979   1.064   1.386   4.305  0.9123 -0.4890  0.3794
 2140TIP3    H227980   1.005   1.295   4.410  1.8923  0.5447  1.8738
 2141TIP3   OH227981   3.977   2.252   3.114  0.3041  0.2309 -0.1366
 2141TIP3    H127982   3.991   2.227   3.205 -0.5985  0.7442  0.1543
 2141TIP3    H227983   3.996   2.172   3.064  0.6888 -0.0834  0.5022
 2142TIP3   OH227984   2.393   1.289   4.507 -0.2085 -0.4865  0.3467
 2142TIP3    H127985   2.424   1.321   4.592 -0.3244 -0.7531  0.4879
 2142TIP3    H227986   2.440   1.207   4.494 -0.3685 -0.5634  0.2600
 2143TIP3   OH227987   4.917   4.696   1.478  0.2987  0.0074 -0.6865
 2143TIP3    H127988   4.950   4.751   1.549  1.3855 -1.5432  0.0801
 2143TIP3    H227989   4.989   4.694   1.414  0.5288 -0.9640 -0.4197
 2144TIP3   OH227990   5.044   3.637   2.334  0.5437  0.1351 -0.1190
 2144TIP3    H127991   5.079   3.703   2.394 -0.4333 -1.2440  2.1106
 2144TIP3    H227992   4.960   3.674   2.305  0.2332  0.1268  0.7272
 2145TIP3   OH227993   5.136   4.621   1.307 -0.6491 -0.4770 -0.0599
 2145TIP3    H127994   5.190   4.558   1.259  3.1235 -0.1941  3.2741
 2145TIP3    H227995   5.175   4.706   1.287 -0.7751 -0.0820  1.2925
 2146TIP3   OH227996   4.177   5.213   3.744 -0.1929  0.1887 -0.1577
 2146TIP3    H127997   4.217   5.299   3.758  0.4438 -0.0872 -0.2663
 2146TIP3    H227998   4.125   5.224   3.664 -1.7006  1.0145  0.8929
 2147TIP3   OH227999   0.149   5.351   4.973  0.0515  0.4398  0.1659
 2147TIP3    H128000   0.144   5.442   4.941  0.2204  0.2502 -0.4116
 2147TIP3    H228001   0.058   5.320   4.969  0.0243  0.5168  0.1656
 2148TIP3   OH228002   1.642   5.099   3.350 -0.3235 -0.2018  0.5938
 2148TIP3    H128003   1.642   5.193   3.366  1.4443 -0.3387  1.7006
 2148TIP3    H228004   1.554   5.080   3.317 -0.8970  1.7272  0.8898
 2149TIP3   OH228005   1.604   1.884   1.995 -0.4576 -0.2183  0.3956
 2149TIP3    H128006   1.547   1.961   1.998  1.6362  1.5100 -0.8213
 2149TIP3    H228007   1.555   1.816   2.040 -2.1319  2.0380  2.2667
 2150TIP3   OH228008   5.151   5.137   3.001 -0.2767  0.2273 -0.1325
 2150TIP3    H128009   5.168   5.214   3.055  0.0271 -0.2022  0.3945
 2150TIP3    H228010   5.200   5.067   3.044 -0.4680 -0.2360 -0.6661
 2151TIP3   OH228011   6.160   1.011   0.727 -0.7574 -0.0923 -0.0723
 2151TIP3    H128012   6.184   1.064   0.803 -0.9806 -0.2402  0.1058
 2151TIP3    H228013   6.204   1.052   0.653 -0.6119  0.1075  0.1258
 2152TIP3   OH228014   3.284   1.555   4.825 -0.4798 -0.4149  0.2015
 2152TIP3    H128015   3.293   1.497   4.749  0.1669  0.2553 -0.2531
 2152TIP3    H228016   3.365   1.607   4.824 -0.7710  0.0623  0.9596
 2153TIP3   OH228017   1.001   4.482   0.948 -0.3811  0.0475 -0.1759
 2153TIP3    H128018   1.090   4.497   0.917 -0.0965 -0.6370  0.2730
 2153TIP3    H228019   0.961   4.429   0.879 -0.1230 -0.4664  0.0560
 2154TIP3   OH228020   3.207   5.211   4.322  0.3790  0.1173 -0.7694
 2154TIP3    H128021   3.213   5.294   4.369 -0.6750 -0.7147  0.9359
 2154TIP3    H228022   3.230   5.145   4.387 -2.0476 -1.1546 -1.0579
 2155TIP3   OH228023   4.309   2.996   5.078 -0.3359  0.6363  0.1409
 2155TIP3    H128024   4.365   3.030   5.008  0.0541  0.0981  0.1842
 2155TIP3    H228025   4.337   3.044   5.156  0.9230 -0.4756  0.4060
 2156TIP3   OH228026   5.770   5.199   2.351 -0.5266  0.2344  0.0663
 2156TIP3    H128027   5.781   5.294   2.351 -3.8157  0.7244 -0.5387
 2156TIP3    H228028   5.803   5.171   2.437  0.2015  1.9448  0.3732
 2157TIP3   OH228029   3.290   4.023   0.722  0.1762  0.5897 -0.3477
 2157TIP3    H128030   3.223   4.088   0.744 -0.2130  0.0316  0.1370
 2157TIP3    H228031   3.260   3.985   0.639 -0.3962 -0.0312  0.1342
 2158TIP3   OH228032   4.803   3.914   1.093  0.4669  0.0945  0.5191
 2158TIP3    H128033   4.879   3.879   1.138  0.8776  1.6385  1.0840
 2158TIP3    H228034   4.735   3.917   1.161  0.1657 -0.4178  0.2470
 2159TIP3   OH228035   3.093   1.226   4.096  0.5596  0.3495  1.0949
 2159TIP3    H128036   3.088   1.143   4.048  1.2673 -0.3618  2.2262
 2159TIP3    H228037   3.146   1.207   4.173  2.6954  2.4152  0.2450
 2160TIP3   OH228038   5.465   1.540   2.758  0.8808 -0.5588 -0.3909
 2160TIP3    H128039   5.488   1.541   2.851 -1.9594 -0.5795  0.3969
 2160TIP3    H228040   5.373   1.517   2.756  1.1784 -1.9408 -3.3437
 2161TIP3   OH228041   1.281   6.803   1.693 -0.0397  0.1109  0.0552
 2161TIP3    H128042   1.198   6.828   1.735 -0.1668  0.2714 -0.2876
 2161TIP3    H228043   1.276   6.708   1.685 -0.7490  0.2263 -1.1071
 2162TIP3   OH228044   6.537   3.332   4.501 -0.3260 -0.1314 -0.2591
 2162TIP3    H128045   6.474   3.395   4.534 -0.9690 -0.7440 -0.3064
 2162TIP3    H228046   6.502   3.246   4.525 -0.5659 -0.5811 -2.0645
 2163TIP3   OH228047   4.669   0.628   2.449 -0.3893 -0.4963  0.8576
 2163TIP3    H128048   4.686   0.719   2.427  0.2682 -0.6165  0.8240
 2163TIP3    H228049   4.701   0.578   2.373 -0.5488 -0.7611  0.9626
 2164TIP3   OH228050   2.695   2.409   3.587  0.6012  0.3011  0.2839
 2164TIP3    H128051   2.657   2.353   3.519  0.8756  0.7197 -0.2281
 2164TIP3    H228052   2.677   2.363   3.669 -0.9660  0.4445  0.0612
 2165TIP3   OH228053   1.053   1.610   4.330  0.2532  0.0710  0.2478
 2165TIP3    H128054   1.077   1.677   4.394 -2.0042  0.5541  0.6500
 2165TIP3    H228055   0.969   1.576   4.360  0.5543 -1.8334 -0.8485
 2166TIP3   OH228056   0.924   4.347   1.317  0.4962 -0.0816 -0.3782
 2166TIP3    H128057   0.852   4.307   1.268  1.0654  0.1997 -1.4857
 2166TIP3    H228058   0.904   4.329   1.409 -0.4804 -0.8391 -0.7217
 2167TIP3   OH228059   0.178   1.762   1.626 -0.3257 -0.0773  0.7870
 2167TIP3    H128060   0.156   1.806   1.544 -1.1975  1.2281  1.6888
 2167TIP3    H228061   0.273   1.751   1.622 -0.4570 -0.8877 -0.7915
 2168TIP3   OH228062   4.457   1.504   1.700  0.4186 -0.2132  0.3480
 2168TIP3    H128063   4.550   1.511   1.679  0.7196 -1.8462  1.0433
 2168TIP3    H228064   4.428   1.424   1.656 -0.8172  0.5828 -0.3485
 2169TIP3   OH228065   5.420   3.828   3.916 -0.5745 -0.1564  0.5027
 2169TIP3    H128066   5.489   3.854   3.977 -0.5136 -0.9851  0.8049
 2169TIP3    H228067   5.342   3.872   3.949  0.1700  2.5677 -1.0975
 2170TIP3   OH228068   4.374   1.980   3.532  0.7272 -0.3498  0.1355
 2170TIP3    H128069   4.396   1.917   3.600 -0.5546 -2.0894 -0.9843
 2170TIP3    H228070   4.303   1.940   3.483  0.3108  1.6848 -1.0725
 2171TIP3   OH228071   5.916   5.842   3.520  0.3128 -0.4591 -0.0051
 2171TIP3    H128072   5.854   5.793   3.574  1.1780 -1.0432  0.4854
 2171TIP3    H228073   6.001   5.801   3.538  0.7539 -0.0542 -1.1038
 2172TIP3   OH228074   0.285   6.540   2.775 -0.0901 -0.2246  0.5361
 2172TIP3    H128075   0.318   6.610   2.720 -0.1112 -1.0326 -0.5443
 2172TIP3    H228076   0.208   6.506   2.728  0.1678 -1.2449  0.8168
 2173TIP3   OH228077   5.501   1.545   2.015 -0.0764 -0.5219 -0.3529
 2173TIP3    H128078   5.511   1.629   2.059  0.1581 -1.3828  1.3249
 2173TIP3    H228079   5.478   1.567   1.925  1.4190  1.3639 -0.3397
 2174TIP3   OH228080   3.298   4.000   1.129  0.2047 -0.8308  0.0112
 2174TIP3    H128081   3.270   3.924   1.181  0.2006 -1.5410 -1.0054
 2174TIP3    H228082   3.354   3.962   1.061  0.9286  0.1889  0.0231
 2175TIP3   OH228083   4.248   4.923   2.133 -0.8173 -0.1580 -0.1849
 2175TIP3    H128084   4.167   4.973   2.132  1.2799  3.5797 -1.1677
 2175TIP3    H228085   4.276   4.920   2.042  0.4849 -0.8211  0.2070
 2176TIP3   OH228086   4.981   2.726   3.021 -0.0352 -0.7456 -0.0013
 2176TIP3    H128087   4.905   2.768   2.980  0.0823 -1.1728 -0.6661
 2176TIP3    H228088   5.056   2.769   2.982  0.0950 -1.7686 -0.9340
 2177TIP3   OH228089   6.909   6.568   2.015 -0.0478  0.4267  0.0556
 2177TIP3    H128090   6.870   6.650   2.046 -0.1865 -0.0262  1.1329
 2177TIP3    H228091   6.935   6.522   2.095 -0.1721 -0.6794 -0.5139
 2178TIP3   OH228092   4.718   5.719   0.388 -0.5784  0.2561 -0.0105
 2178TIP3    H128093   4.727   5.749   0.298  1.1788  0.0997  0.0844
 2178TIP3    H228094   4.729   5.624   0.382 -0.1172  0.2811  0.4003
 2179TIP3   OH228095   3.542   6.210   2.761  0.5412 -0.0303 -0.3116
 2179TIP3    H128096   3.556   6.178   2.672 -2.1936 -1.3967 -0.3486
 2179TIP3    H228097   3.569   6.138   2.818 -2.5973 -1.3495 -0.2985
 2180TIP3   OH228098   0.078   2.570   8.473  0.0878 -0.0765  0.2755
 2180TIP3    H128099   0.082   2.480   8.506  3.2135 -0.3886 -0.6407
 2180TIP3    H228100   0.150   2.615   8.517 -0.2126  1.4610 -0.7334
 2181TIP3   OH228101   0.415   0.219   2.897 -0.5419 -0.7615 -0.3865
 2181TIP3    H128102   0.476   0.223   2.971 -2.7493 -0.9676  1.5809
 2181TIP3    H228103   0.359   0.296   2.909 -0.4852 -0.3765 -2.3386
 2182TIP3   OH228104   1.010   4.562   2.415 -0.5142 -0.2955 -0.2046
 2182TIP3    H128105   1.092   4.575   2.462 -0.8968 -0.7622  0.6135
 2182TIP3    H228106   1.033   4.575   2.323  0.4316 -0.2279  0.0294
 2183TIP3   OH228107   5.671   3.427   2.965  0.3504 -0.6157 -0.3345
 2183TIP3    H128108   5.586   3.440   3.005  0.1453  0.0924 -0.9922
 2183TIP3    H228109   5.669   3.478   2.885  0.7520 -1.9897 -1.2654
 2184TIP3   OH228110   0.109   2.769   2.925 -0.5423  0.3528 -0.3253
 2184TIP3    H128111   0.078   2.682   2.901 -0.0261 -0.1589  0.7814
 2184TIP3    H228112   0.130   2.811   2.841 -0.8534 -0.5586 -0.8781
 2185TIP3   OH228113   2.219   2.713   3.174  0.3073 -0.1424  0.0683
 2185TIP3    H128114   2.199   2.626   3.139  0.0648  0.9958 -2.9984
 2185TIP3    H228115   2.314   2.712   3.189  0.2141 -1.1097  0.6236
 2186TIP3   OH228116   5.484   5.087   2.030 -0.5666  0.3603 -0.6427
 2186TIP3    H128117   5.450   5.129   1.950 -2.7276 -0.1070 -0.0311
 2186TIP3    H228118   5.414   5.098   2.094  0.7448 -0.1267  0.9277
 2187TIP3   OH228119   2.708   4.896   1.480  0.0080 -0.5113 -0.1964
 2187TIP3    H128120   2.627   4.929   1.441 -0.8165 -1.0920  0.9573
 2187TIP3    H228121   2.766   4.879   1.406 -1.7136 -2.1581 -1.2584
 2188TIP3   OH228122   2.447   0.065   3.062 -0.0578  0.1664  0.1603
 2188TIP3    H128123   2.383   0.006   3.102 -0.2448  1.0367  1.2113
 2188TIP3    H228124   2.399   0.146   3.047  0.7541  0.7970  0.8715
 2189TIP3   OH228125   0.465   5.066   1.782 -0.4328 -0.0278 -0.3949
 2189TIP3    H128126   0.511   5.009   1.720 -1.9010 -1.0169 -0.6138
 2189TIP3    H228127   0.424   5.006   1.844 -0.6251  0.8763  0.3767
 2190TIP3   OH228128   4.710   4.556   1.772  0.5289 -0.1831 -0.4995
 2190TIP3    H128129   4.706   4.490   1.703 -0.4695  0.0518 -0.6773
 2190TIP3    H228130   4.669   4.515   1.848  1.7684 -0.4987  0.0235
 2191TIP3   OH228131   4.654   2.540   4.481 -0.2160 -0.1047  0.6218
 2191TIP3    H128132   4.567   2.536   4.443 -0.3238 -1.4513  0.9497
 2191TIP3    H228133   4.687   2.450   4.474  0.7955  0.1983  1.2862
 2192TIP3   OH228134   2.831   3.753   2.989  0.3401 -0.8914  0.3897
 2192TIP3    H128135   2.788   3.758   2.904 -1.2264 -2.9734  0.9853
 2192TIP3    H228136   2.761   3.735   3.051  1.4218  0.6782  2.1978
 2193TIP3   OH228137   6.849   2.329   3.017 -0.3510 -0.3998 -0.3020
 2193TIP3    H128138   6.877   2.337   2.926 -1.2087 -0.2302 -0.5611
 2193TIP3    H228139   6.862   2.236   3.039 -1.6985 -0.8097 -1.1376
 2194TIP3   OH228140   6.704   5.697   1.598  0.0480 -1.0171  0.5328
 2194TIP3    H128141   6.614   5.722   1.618 -0.5843 -2.1287 -0.7858
 2194TIP3    H228142   6.736   5.765   1.539  0.0608 -0.6509  0.9577
 2195TIP3   OH228143   4.812   2.480   1.745 -0.1222  0.3442  0.0053
 2195TIP3    H128144   4.830   2.545   1.677  0.1605  1.3387  0.9859
 2195TIP3    H228145   4.720   2.457   1.733  0.4277 -1.1034 -2.0067
 2196TIP3   OH228146   4.618   3.400   2.911  0.3684 -0.2940 -0.0629
 2196TIP3    H128147   4.550   3.338   2.938 -0.6883  0.7171 -0.2825
 2196TIP3    H228148   4.635   3.379   2.819 -1.2058  0.7625 -0.6381
 2197TIP3   OH228149   4.374   6.810   2.638 -0.1965  0.2559 -0.0666
 2197TIP3    H128150   4.404   6.724   2.668  1.8542  0.4040 -1.4524
 2197TIP3    H228151   4.342   6.794   2.549 -2.0998  0.5501  0.5235
 2198TIP3   OH228152   1.126   3.140   3.730  0.2066 -0.0766 -0.3078
 2198TIP3    H128153   1.075   3.074   3.776  0.1643 -0.1611 -0.4756
 2198TIP3    H228154   1.067   3.215   3.722  0.9436  0.8111  1.8256
 2199TIP3   OH228155   0.934   6.358   3.252  0.2051  0.6570 -0.5359
 2199TIP3    H128156   0.934   6.347   3.347 -0.4190  0.3054 -0.5754
 2199TIP3    H228157   1.026   6.350   3.227  0.4350  1.2413  0.0893
 2200TIP3   OH228158   6.617   0.832   3.397  0.9117 -0.0164  0.4793
 2200TIP3    H128159   6.641   0.901   3.336 -0.2930 -0.3551 -0.4275
 2200TIP3    H228160   6.543   0.868   3.446  0.5690 -0.4920  0.3193
 2201TIP3   OH228161   6.371   3.573   1.218 -0.6724  0.2397 -1.1528
 2201TIP3    H128162   6.315   3.538   1.287 -2.1841  0.6017 -2.1659
 2201TIP3    H228163   6.447   3.608   1.265  0.5518 -3.4929 -0.0084
 2202TIP3   OH228164   5.997   2.968   2.208  0.5658 -0.1670 -0.3198
 2202TIP3    H128165   6.032   3.045   2.163  0.5838 -0.8159 -1.4401
 2202TIP3    H228166   5.924   3.002   2.260  0.9640  0.7011 -0.2967
 2203TIP3   OH228167   6.847   0.662   3.216 -0.4850 -0.6816 -0.1169
 2203TIP3    H128168   6.755   0.669   3.239 -1.1441 -1.6705 -2.1678
 2203TIP3    H228169   6.863   0.568   3.210  0.9728 -0.5645  1.2471
 2204TIP3   OH228170   1.243   5.784   2.814  0.4960  0.0751 -0.5962
 2204TIP3    H128171   1.317   5.723   2.825  0.8453  0.9772  3.6493
 2204TIP3    H228172   1.172   5.744   2.863 -0.9200  0.7326 -2.0424
 2205TIP3   OH228173   2.402   0.629   3.010  0.2324 -0.1903  0.0768
 2205TIP3    H128174   2.473   0.588   2.961  1.5423  2.2477 -0.1985
 2205TIP3    H228175   2.386   0.712   2.965 -0.7726  0.6389  1.8674
 2206TIP3   OH228176   3.206   2.749   4.339  0.1902  0.1578 -0.1744
 2206TIP3    H128177   3.283   2.711   4.298  0.2690 -0.7512  0.7722
 2206TIP3    H228178   3.178   2.818   4.279  2.1832  1.0384 -0.1530
 2207TIP3   OH228179   5.876   1.183   3.207  0.1208 -0.1181  0.3395
 2207TIP3    H128180   5.886   1.273   3.176  0.6104 -0.2083  0.2182
 2207TIP3    H228181   5.782   1.167   3.205  0.0470  0.3229  0.1665
 2208TIP3   OH228182   6.677   0.073   2.273  0.5209 -0.1051  0.0142
 2208TIP3    H128183   6.643   0.147   2.322  1.0211 -0.1647  0.4539
 2208TIP3    H228184   6.709   0.111   2.191  0.3515  0.0991  0.0438
 2209TIP3   OH228185   2.162   6.458   3.006  0.2386  0.5536 -0.4834
 2209TIP3    H128186   2.096   6.399   2.971  0.9996 -1.0288  0.6072
 2209TIP3    H228187   2.118   6.504   3.078  0.0712  0.1806 -0.3487
 2210TIP3   OH228188   4.968   5.934   3.591 -0.1848  0.2593  0.7393
 2210TIP3    H128189   5.063   5.940   3.594 -0.2239  0.7491  1.8178
 2210TIP3    H228190   4.946   5.923   3.499  0.8954  0.6361  0.4324
 2211TIP3   OH228191   3.335   3.883   2.464 -0.6364  0.4588 -0.4067
 2211TIP3    H128192   3.402   3.936   2.422 -0.9120  1.4115  0.3086
 2211TIP3    H228193   3.383   3.829   2.527 -0.5409  1.3127  0.2773
 2212TIP3   OH228194   6.134   5.266   2.317  0.0344  0.2571  0.2305
 2212TIP3    H128195   6.211   5.212   2.337 -0.7446 -0.8941  0.2381
 2212TIP3    H228196   6.162   5.321   2.244  0.2222 -1.7764 -1.3401
 2213TIP3   OH228197   0.035   5.109   4.141  0.2806 -0.3324  0.1497
 2213TIP3    H128198  -0.058   5.130   4.132  0.4697  0.4595 -0.0019
 2213TIP3    H228199   0.068   5.102   4.052  0.6623  0.7836  0.1828
 2214TIP3   OH228200   3.818   6.908   2.148 -0.1047  0.1305 -0.2578
 2214TIP3    H128201   3.804   6.851   2.224  0.5956 -0.5319 -0.6106
 2214TIP3    H228202   3.908   6.890   2.121 -0.3815  0.2658 -1.3099
 2215TIP3   OH228203   1.338   4.702   0.982  0.0422 -0.7464  0.4019
 2215TIP3    H128204   1.407   4.683   1.045 -1.4674 -1.7187  1.8471
 2215TIP3    H228205   1.357   4.646   0.907  1.9429  0.5192 -0.1338
 2216TIP3   OH228206   4.905   6.217   0.713 -0.7901 -0.0928  0.1336
 2216TIP3    H128207   4.950   6.145   0.668 -1.3274  0.6485 -1.6942
 2216TIP3    H228208   4.925   6.294   0.660 -1.5020  0.8352  1.1734
 2217TIP3   OH228209   4.555   3.158   1.986  0.0381  0.2857  0.0697
 2217TIP3    H128210   4.630   3.216   1.973  0.9307 -0.6893  0.6877
 2217TIP3    H228211   4.546   3.112   1.903  0.3359  0.1694  0.1010
 2218TIP3   OH228212   0.918   4.343   2.647 -0.1766  0.2803 -0.2060
 2218TIP3    H128213   0.955   4.394   2.719  1.1587  0.6879 -1.1377
 2218TIP3    H228214   0.992   4.292   2.614 -0.6478  0.4240 -1.5501
 2219TIP3   OH228215   3.449   2.624   1.654 -0.1514 -0.3147 -0.0462
 2219TIP3    H128216   3.477   2.548   1.705  0.9607  0.0960 -0.0203
 2219TIP3    H228217   3.353   2.621   1.658 -0.1269 -1.6058  0.1033
 2220TIP3   OH228218   6.130   2.610   4.321  0.2628  0.4599  0.5052
 2220TIP3    H128219   6.117   2.671   4.248 -0.0250  0.4918  0.5793
 2220TIP3    H228220   6.044   2.569   4.333  0.7722 -0.9518 -0.4186
 2221TIP3   OH228221   4.780   1.033   2.756  0.7927 -0.3927  0.8724
 2221TIP3    H128222   4.774   0.949   2.802  0.4788 -0.5197  0.6021
 2221TIP3    H228223   4.750   1.097   2.820  0.1719 -0.5908  0.7850
 2222TIP3   OH228224   4.187   5.081   3.404  0.3868 -0.0076 -0.0529
 2222TIP3    H128225   4.150   4.998   3.434 -0.2825 -0.3815 -1.7941
 2222TIP3    H228226   4.257   5.100   3.466  1.5673 -2.6573 -0.4454
 2223TIP3   OH228227   3.955   2.570   0.500 -0.0866 -0.0614 -0.1950
 2223TIP3    H128228   3.972   2.664   0.498 -0.3596  0.0287  0.8550
 2223TIP3    H228229   3.892   2.556   0.430 -0.2790  0.5952 -0.1663
 2224TIP3   OH228230   4.613   5.620   0.652  0.4738 -0.0139  0.2757
 2224TIP3    H128231   4.646   5.709   0.669  0.0094  0.0711  0.7290
 2224TIP3    H228232   4.523   5.633   0.623  0.4431 -0.3331  0.2278
 2225TIP3   OH228233   1.105   2.716   2.907  0.5326  0.3592 -0.4121
 2225TIP3    H128234   1.158   2.793   2.927 -0.5854  0.8389  0.9130
 2225TIP3    H228235   1.076   2.684   2.993 -1.8550  0.5661 -1.0601
 2226TIP3   OH228236   2.385   2.477   3.336 -0.2602  0.0874  0.8167
 2226TIP3    H128237   2.348   2.459   3.250  0.0482  0.7863  0.5272
 2226TIP3    H228238   2.417   2.568   3.330  0.0780  0.0253  1.5507
 2227TIP3   OH228239   1.877   6.155   3.121 -0.3119  0.2078 -0.6179
 2227TIP3    H128240   1.955   6.150   3.176 -1.8793 -0.7844  1.6345
 2227TIP3    H228241   1.836   6.069   3.129 -1.8429  0.8224 -1.4492
 2228TIP3   OH228242   1.388   6.404   2.970  0.7800  0.2422  0.3174
 2228TIP3    H128243   1.351   6.396   3.058  0.5113  0.0584  0.1896
 2228TIP3    H228244   1.383   6.497   2.950 -1.1333  0.0407 -0.3391
 2229TIP3   OH228245   4.177   3.391   2.534  0.5421 -0.0995 -0.1023
 2229TIP3    H128246   4.108   3.375   2.599  1.1440 -0.6815  0.3972
 2229TIP3    H228247   4.143   3.354   2.453  0.7007 -1.3342  0.3820
 2230TIP3   OH228248   3.343   0.472   1.175 -0.2163 -0.4197  0.6370
 2230TIP3    H128249   3.252   0.489   1.199 -0.5215 -0.5466 -0.3546
 2230TIP3    H228250   3.341   0.386   1.132  0.6967 -1.3116  2.2833
 2231TIP3   OH228251   5.245   1.871   3.462 -0.6854  0.0155 -0.1618
 2231TIP3    H128252   5.294   1.900   3.385 -0.8780  2.0467  0.4375
 2231TIP3    H228253   5.312   1.833   3.520 -0.1381  0.8045 -0.2630
 2232TIP3   OH228254   5.284   3.717   1.379  0.0237  0.8626  0.1695
 2232TIP3    H128255   5.281   3.813   1.377 -1.2674  0.8795  1.3427
 2232TIP3    H228256   5.377   3.696   1.379  0.3642  2.0245 -2.1146
 2233TIP3   OH228257   1.666   6.639   0.708  0.6858 -0.2211  0.3220
 2233TIP3    H128258   1.570   6.643   0.704  0.6863 -1.0887 -2.4081
 2233TIP3    H228259   1.692   6.729   0.730 -0.7331  1.2092 -3.0542
 2234TIP3   OH228260   4.348   2.686   3.657  0.2253 -0.1221 -0.8141
 2234TIP3    H128261   4.425   2.702   3.602  0.3592  1.0726 -0.3007
 2234TIP3    H228262   4.276   2.727   3.609 -0.0825 -1.1034 -1.2169
 2235TIP3   OH228263   2.383   4.155   0.963  0.1327 -0.8742 -0.4356
 2235TIP3    H128264   2.291   4.163   0.990  0.4735 -0.3069  0.6082
 2235TIP3    H228265   2.414   4.076   1.008  0.3237 -0.7137 -0.2844
 2236TIP3   OH228266   3.253   5.362   0.704 -0.5157 -0.4998  0.1159
 2236TIP3    H128267   3.183   5.427   0.706  0.0633  0.1265  2.0018
 2236TIP3    H228268   3.322   5.399   0.759  1.2298 -1.2102 -1.4725
 2237TIP3   OH228269   0.936   1.232   3.947  0.1009  0.4867  1.1360
 2237TIP3    H128270   0.971   1.314   3.980  1.4484 -0.0920  1.2323
 2237TIP3    H228271   0.861   1.257   3.894 -0.3499  1.6525  2.2930
 2238TIP3   OH228272   4.677   3.985   3.061 -0.0204 -0.2397 -0.3240
 2238TIP3    H128273   4.695   3.935   3.140 -1.6461  0.9778  0.8938
 2238TIP3    H228274   4.621   3.928   3.008  0.4364 -0.7662 -0.2453
 2239TIP3   OH228275   2.334   6.763   3.208 -0.3696 -0.7003 -0.3307
 2239TIP3    H128276   2.286   6.757   3.291 -0.8365 -1.3422 -0.6277
 2239TIP3    H228277   2.423   6.736   3.229  0.3158  1.9487  0.5408
 2240TIP3   OH228278   3.167   5.118   2.204 -0.2673  0.0744  0.1706
 2240TIP3    H128279   3.186   5.054   2.136 -0.9137 -0.7350  0.7265
 2240TIP3    H228280   3.247   5.169   2.213  1.2032 -2.3327  1.5168
 2241TIP3   OH228281   6.745   5.606   0.979  0.1059  0.7046 -0.6827
 2241TIP3    H128282   6.659   5.645   0.994  0.2435  1.7371 -2.2762
 2241TIP3    H228283   6.806   5.680   0.982  0.9183  0.0175  0.1977
 2242TIP3   OH228284   0.915   3.602   0.806  0.3895  0.6000 -0.0525
 2242TIP3    H128285   0.933   3.546   0.731 -0.1058  0.4171 -0.0349
 2242TIP3    H228286   0.850   3.665   0.774 -1.0693 -0.4897  0.6656
 2243TIP3   OH228287   1.184   4.319   3.348 -0.3099  0.3407  0.6517
 2243TIP3    H128288   1.163   4.383   3.280 -1.1166  0.7506  1.2572
 2243TIP3    H228289   1.213   4.241   3.301 -0.2551  0.8281 -0.1328
 2244TIP3   OH228290   1.521   6.888   0.513 -0.0432  0.3769 -0.1193
 2244TIP3    H128291   1.567   6.896   0.597 -0.5904 -0.6737  0.2892
 2244TIP3    H228292   1.428   6.891   0.535 -0.2201  1.8963 -0.8862
 2245TIP3   OH228293   3.743   4.866   1.652 -0.3396  0.0949 -0.0735
 2245TIP3    H128294   3.823   4.822   1.680 -0.8206 -0.7455  0.0232
 2245TIP3    H228295   3.696   4.885   1.733 -1.4936 -1.8809 -0.2016
 2246TIP3   OH228296   5.428   2.695   2.660 -0.1994  0.6147 -0.7037
 2246TIP3    H128297   5.424   2.790   2.671 -0.3679  0.3830  1.5865
 2246TIP3    H228298   5.337   2.668   2.646 -0.4314  0.5889  0.7693
 2247TIP3   OH228299   2.090   2.816   3.383 -0.2975 -0.1030  0.2463
 2247TIP3    H128300   2.112   2.776   3.299 -0.5685  1.1904 -0.4624
 2247TIP3    H228301   1.997   2.795   3.396 -0.5458  0.6260 -0.3193
 2248TIP3   OH228302   2.546   1.741   8.348 -0.4130  0.4022 -0.3205
 2248TIP3    H128303   2.559   1.830   8.379  0.2990  0.6217 -1.1927
 2248TIP3    H228304   2.631   1.698   8.363 -1.0682 -0.4568  1.0870
 2249TIP3   OH228305   6.330   3.915   2.836 -0.0531  0.0369 -0.0011
 2249TIP3    H128306   6.255   3.927   2.777  0.1761  0.3616 -0.2263
 2249TIP3    H228307   6.327   3.991   2.894 -0.1149 -0.1406  0.2294
 2250TIP3   OH228308   5.122   3.379   2.919  0.3910 -0.3967 -0.0456
 2250TIP3    H128309   5.074   3.383   3.002  1.6798  1.5785  0.6659
 2250TIP3    H228310   5.097   3.458   2.873  2.4394  0.3747  0.0828
 2251TIP3   OH228311   3.015   3.105   2.030  0.0039 -0.0693 -0.4569
 2251TIP3    H128312   3.085   3.141   2.084 -2.1836  2.3980  0.9346
 2251TIP3    H228313   3.033   3.137   1.942  0.4506  0.8482 -0.0438
 2252TIP3   OH228314   5.215   3.464   4.682  0.0136 -0.0436 -0.1640
 2252TIP3    H128315   5.286   3.415   4.641  0.9018 -0.3606  1.6380
 2252TIP3    H228316   5.233   3.458   4.776 -2.3762 -0.0814  0.3547
 2253TIP3   OH228317   0.068   4.219   2.486 -0.9520 -0.1621 -0.5829
 2253TIP3    H128318   0.074   4.255   2.398 -0.3895  0.3432 -0.3438
 2253TIP3    H228319   0.117   4.136   2.482 -0.4152  0.1514 -0.6010
 2254TIP3   OH228320   4.891   2.969   1.559 -1.3799  0.0869  0.0389
 2254TIP3    H128321   4.975   2.959   1.514 -0.3028  1.2122  1.6923
 2254TIP3    H228322   4.841   3.028   1.502 -1.6140 -1.5590 -1.5918
 2255TIP3   OH228323   5.750   6.893   3.336  0.0962 -0.8407 -0.6093
 2255TIP3    H128324   5.730   6.918   3.426  0.3964  0.3104 -0.8468
 2255TIP3    H228325   5.740   6.974   3.286  0.3224 -1.3798 -1.5473
 2256TIP3   OH228326   3.071   3.923   4.342  0.2542 -0.4333  0.1701
 2256TIP3    H128327   3.091   3.837   4.379  1.5491  0.4247  1.5405
 2256TIP3    H228328   3.056   3.979   4.418 -1.1561  0.4545 -0.7135
 2257TIP3   OH228329   6.695   1.374   0.934 -0.0602  0.7410  0.3225
 2257TIP3    H128330   6.674   1.304   0.873 -1.4954 -1.0992  2.7307
 2257TIP3    H228331   6.756   1.334   0.996 -0.0126  1.9832  1.1040
 2258TIP3   OH228332   1.594   1.808   4.162  0.8093 -0.3015 -0.0913
 2258TIP3    H128333   1.685   1.817   4.189  0.2068 -0.1215  2.1162
 2258TIP3    H228334   1.545   1.810   4.244 -1.0257 -2.8952 -1.0106
 2259TIP3   OH228335   1.318   3.392   1.889  0.0448  0.2277  0.5378
 2259TIP3    H128336   1.381   3.327   1.921 -0.4401 -0.1816  0.6742
 2259TIP3    H228337   1.296   3.363   1.801  0.6572  0.8279  0.1760
 2260TIP3   OH228338   1.009   2.027   2.088 -0.2268 -0.2424 -0.1229
 2260TIP3    H128339   0.991   2.062   2.001  0.4530  0.1019 -0.1329
 2260TIP3    H228340   1.067   2.091   2.129 -0.7335 -0.2795  0.6820
 2261TIP3   OH228341   5.513   1.753   2.529 -0.3166  0.1302 -0.3490
 2261TIP3    H128342   5.528   1.777   2.620  0.0995  0.7467 -0.5746
 2261TIP3    H228343   5.425   1.715   2.528 -0.9767  1.5891  0.0395
 2262TIP3   OH228344   5.444   1.355   0.366  0.1756  0.0202  0.5534
 2262TIP3    H128345   5.480   1.423   0.423  0.8691 -1.1364  1.5491
 2262TIP3    H228346   5.418   1.285   0.426  2.9656 -2.1984 -0.5854
 2263TIP3   OH228347   6.717   4.472   2.496  0.0742 -0.5741 -0.0032
 2263TIP3    H128348   6.733   4.455   2.403  0.3126 -1.6056  0.2087
 2263TIP3    H228349   6.649   4.409   2.520  0.1230 -0.4187  0.5558
 2264TIP3   OH228350   1.703   6.208   0.024  0.4681 -0.2016  0.0030
 2264TIP3    H128351   1.613   6.190   0.051  1.0420 -0.3697  1.9277
 2264TIP3    H228352   1.716   6.300   0.043  0.8735 -0.3048  0.2335
 2265TIP3   OH228353   3.512   1.336   3.306 -0.1180 -0.1377 -0.3726
 2265TIP3    H128354   3.439   1.297   3.257 -1.6823  0.6843  1.1826
 2265TIP3    H228355   3.571   1.263   3.322 -1.3314 -1.1758 -0.4141
 2266TIP3   OH228356   0.120   0.446   3.378 -0.2006  0.0966  0.2713
 2266TIP3    H128357   0.154   0.359   3.396  1.2724  0.4045 -0.8628
 2266TIP3    H228358   0.162   0.503   3.443  1.7205  0.5027 -1.2260
 2267TIP3   OH228359   3.318   0.078   0.716 -0.5336  0.0358  0.6568
 2267TIP3    H128360   3.391   0.109   0.663 -0.6090 -1.5954 -0.4741
 2267TIP3    H228361   3.357   0.009   0.771 -0.8807  0.3295  1.2784
 2268TIP3   OH228362   6.336   4.331   2.905  0.3763  0.7132 -0.3675
 2268TIP3    H128363   6.317   4.321   2.811  1.5300 -1.1726 -0.4444
 2268TIP3    H228364   6.397   4.404   2.909 -0.4244  1.4349 -0.9736
 2269TIP3   OH228365   2.504   6.388   0.626 -0.3997  0.0512  0.5867
 2269TIP3    H128366   2.566   6.402   0.698 -0.7783  0.8795  0.7645
 2269TIP3    H228367   2.528   6.302   0.590 -0.7802 -0.8023  2.2704
 2270TIP3   OH228368   0.252   6.718   4.312 -0.0530  0.2615  0.2258
 2270TIP3    H128369   0.268   6.631   4.348 -0.1273  1.1507  2.5326
 2270TIP3    H228370   0.211   6.767   4.383 -0.3705  2.0883 -1.1365
 2271TIP3   OH228371   4.927   2.422   8.452 -0.1384  0.0008  0.4640
 2271TIP3    H128372   4.838   2.449   8.430 -0.4671 -2.5362 -1.9751
 2271TIP3    H228373   4.960   2.382   8.372  1.8092 -2.4720  2.3273
 2272TIP3   OH228374   4.861   1.327   4.074  0.1428 -0.2279 -0.5068
 2272TIP3    H128375   4.914   1.248   4.087 -0.3947 -0.5693 -0.3711
 2272TIP3    H228376   4.816   1.341   4.157  0.1836  0.1864 -0.5482
 2273TIP3   OH228377   1.850   3.770   2.957  0.2137 -0.4785 -0.1113
 2273TIP3    H128378   1.869   3.764   2.863  0.1604 -1.9068 -0.0540
 2273TIP3    H228379   1.919   3.827   2.992  0.7191 -0.5948 -0.8903
 2274TIP3   OH228380   3.328   0.640   1.500 -0.7641  0.7952 -0.4906
 2274TIP3    H128381   3.298   0.675   1.584  2.0080 -0.0725  0.9663
 2274TIP3    H228382   3.422   0.657   1.499  0.2458 -3.6391 -1.0901
 2275TIP3   OH228383   4.564   3.925   2.642  0.2140 -0.1150 -0.3093
 2275TIP3    H128384   4.635   3.875   2.682  0.4302 -0.2838 -0.8905
 2275TIP3    H228385   4.550   3.999   2.701  0.0555 -0.7258  0.4316
 2276TIP3   OH228386   3.730   0.135   1.466 -0.2627  0.1590  0.3078
 2276TIP3    H128387   3.750   0.088   1.384 -2.1387 -0.4650  0.1462
 2276TIP3    H228388   3.636   0.120   1.479  0.3742 -1.8421  3.8578
 2277TIP3   OH228389   1.840   2.761   3.670  0.2284  0.0826  0.0288
 2277TIP3    H128390   1.789   2.728   3.744 -0.9174 -0.5735 -1.0099
 2277TIP3    H228391   1.810   2.709   3.595  1.9358  0.1853 -0.7596
 2278TIP3   OH228392   1.202   2.530   4.612 -0.3129  0.4026 -0.2553
 2278TIP3    H128393   1.288   2.563   4.638 -0.3287  0.8829 -0.8025
 2278TIP3    H228394   1.152   2.530   4.693 -0.7870  3.1958 -0.4294
 2279TIP3   OH228395   3.550   4.474   4.559  0.5335 -0.5234 -0.0223
 2279TIP3    H128396   3.505   4.538   4.504  1.4928  0.3727  0.2034
 2279TIP3    H228397   3.493   4.463   4.635  0.7241  0.6830  0.3102
 2280TIP3   OH228398   3.735   6.419   0.196  0.8100 -0.9468 -0.6160
 2280TIP3    H128399   3.723   6.324   0.205  1.4431 -1.0823 -1.1224
 2280TIP3    H228400   3.708   6.454   0.280  2.2611 -1.7463  0.2261
 2281TIP3   OH228401   2.854   4.092   1.993  0.0375  0.3248 -0.1866
 2281TIP3    H128402   2.870   4.147   2.070  1.5553  0.3335 -0.4835
 2281TIP3    H228403   2.880   4.004   2.021 -0.6990  0.0634 -0.2830
 2282TIP3   OH228404   4.331   5.389   4.072  0.1387 -0.3317  0.0476
 2282TIP3    H128405   4.307   5.362   4.160  1.3121  1.4910  0.9993
 2282TIP3    H228406   4.381   5.315   4.037  1.8542 -0.1406  1.9163
 2283TIP3   OH228407   4.471   2.271   3.602 -0.0250  0.2039  0.0535
 2283TIP3    H128408   4.477   2.175   3.603 -1.8571  0.0652  0.1932
 2283TIP3    H228409   4.377   2.290   3.598  0.3353  1.9946 -2.0069
 2284TIP3   OH228410   5.219   4.171   4.132 -0.5204 -0.0076 -0.3711
 2284TIP3    H128411   5.291   4.227   4.159 -0.8883  0.4831 -0.3884
 2284TIP3    H228412   5.168   4.157   4.212 -1.5176  1.3094 -0.7314
 2285TIP3   OH228413   1.613   1.291   3.868  0.0018  0.0528 -0.5892
 2285TIP3    H128414   1.519   1.298   3.883  0.0687  1.8813 -0.7696
 2285TIP3    H228415   1.638   1.376   3.831  1.9284  0.0623  0.5683
 2286TIP3   OH228416   1.187   5.013   0.444  0.2037 -0.2217 -0.2430
 2286TIP3    H128417   1.111   4.967   0.411  0.9549 -0.5527 -1.5992
 2286TIP3    H228418   1.215   5.069   0.372  0.8630  0.3996  0.4625
 2287TIP3   OH228419   1.951   4.448   3.212  0.0526  0.6442 -0.5175
 2287TIP3    H128420   1.967   4.465   3.305 -1.1139  1.4122 -0.4314
 2287TIP3    H228421   2.029   4.400   3.182 -0.0341 -0.6179  1.1123
 2288TIP3   OH228422   0.721   4.948   2.972 -0.4926 -0.0315 -0.2021
 2288TIP3    H128423   0.793   4.890   2.998  2.1687  2.1371 -2.2028
 2288TIP3    H228424   0.689   4.910   2.890  0.8844  0.8945 -1.2222
 2289TIP3   OH228425   0.780   1.756   2.027  0.1602 -0.1415 -0.0250
 2289TIP3    H128426   0.858   1.778   2.076  1.0302 -2.4233 -0.2269
 2289TIP3    H228427   0.761   1.665   2.051 -1.7102 -0.0432 -0.9070
 2290TIP3   OH228428   6.884   1.285   1.111  0.1789  0.2275 -0.2113
 2290TIP3    H128429   6.850   1.205   1.151  0.4704 -0.0586 -0.5387
 2290TIP3    H228430   6.964   1.305   1.161  0.0844  0.3408 -0.1030
 2291TIP3   OH228431   6.710   4.933   4.015 -0.3589  0.1191 -0.0396
 2291TIP3    H128432   6.636   4.892   3.971 -3.1791  1.2198  3.2752
 2291TIP3    H228433   6.681   5.022   4.035  1.6408  0.4526  1.8226
 2292TIP3   OH228434   5.568   0.909   1.892 -0.0587 -0.1318 -0.3515
 2292TIP3    H128435   5.507   0.842   1.861  1.6963 -2.2007  0.4891
 2292TIP3    H228436   5.655   0.871   1.880  0.9305  1.0423  2.2763
 2293TIP3   OH228437   1.742   3.291   3.524 -0.5297  0.0858 -0.0777
 2293TIP3    H128438   1.662   3.262   3.481 -1.0651  2.2545 -0.6545
 2293TIP3    H228439   1.810   3.279   3.458 -1.4529  4.0502 -2.0218
 2294TIP3   OH228440   2.755   2.622   2.795 -0.1488  0.6344 -0.3568
 2294TIP3    H128441   2.824   2.556   2.795  0.7220  1.4725  1.4198
 2294TIP3    H228442   2.713   2.613   2.710  1.2148 -0.8680 -0.9219
 2295TIP3   OH228443   4.980   0.833   0.521  0.3828  0.2371 -0.0954
 2295TIP3    H128444   5.007   0.742   0.509 -0.2355  0.0860 -0.3610
 2295TIP3    H228445   5.060   0.878   0.548  0.3438 -0.6923  1.6622
 2296TIP3   OH228446   3.695   5.953   1.017  0.8343 -0.1434 -0.3055
 2296TIP3    H128447   3.698   5.861   0.993 -0.6848  0.0041 -1.2188
 2296TIP3    H228448   3.643   5.955   1.097  2.6311 -0.2471  0.9241
 2297TIP3   OH228449   0.330   6.214   2.070  0.1335  0.0898 -0.1216
 2297TIP3    H128450   0.380   6.293   2.093  1.9545 -0.4205 -2.0382
 2297TIP3    H228451   0.245   6.248   2.041  0.1056  1.1591  1.1156
 2298TIP3   OH228452   6.022   6.856   3.834 -0.3497  0.2800  0.2029
 2298TIP3    H128453   5.976   6.835   3.916 -0.0955  1.1015  0.5652
 2298TIP3    H228454   6.113   6.833   3.851 -0.5950 -1.4235 -0.5446
 2299TIP3   OH228455   3.361   6.188   1.902  0.0382 -0.0232 -0.0956
 2299TIP3    H128456   3.311   6.238   1.966  2.2261  2.2034  0.0147
 2299TIP3    H228457   3.307   6.112   1.884 -3.2408  2.0313  0.2163
 2300TIP3   OH228458   6.035   4.016   4.639 -0.3319  0.0573  1.0700
 2300TIP3    H128459   6.077   4.082   4.585 -0.5637 -0.1745  0.5940
 2300TIP3    H228460   6.018   4.059   4.723 -1.1824  0.8502  0.5158
 2301TIP3   OH228461   0.424   1.867   2.539 -0.4049 -0.3146 -0.0824
 2301TIP3    H128462   0.366   1.846   2.466  2.0634 -3.0111 -1.5049
 2301TIP3    H228463   0.467   1.948   2.512  1.0348 -1.6562 -2.1486
 2302TIP3   OH228464   6.761   3.753   2.687 -0.4624 -0.1517  0.3856
 2302TIP3    H128465   6.845   3.779   2.648 -0.4735  0.3302  0.6706
 2302TIP3    H228466   6.701   3.747   2.613  0.1314 -1.8219  0.0056
 2303TIP3   OH228467   3.723   2.190   1.549 -0.7360  0.9749 -0.6889
 2303TIP3    H128468   3.744   2.098   1.566 -0.3033  1.1048 -0.4883
 2303TIP3    H228469   3.628   2.195   1.555 -0.6607  0.8859  1.1081
 2304TIP3   OH228470   0.610   0.566   4.337 -0.2559  0.3961  0.0738
 2304TIP3    H128471   0.691   0.608   4.368 -1.6057  3.2683 -0.0321
 2304TIP3    H228472   0.624   0.555   4.243 -0.1791  1.3895 -0.0408
 2305TIP3   OH228473   6.535   1.752   3.007 -0.1532 -0.2945 -0.0531
 2305TIP3    H128474   6.575   1.791   2.930 -3.1128  0.9923 -1.1035
 2305TIP3    H228475   6.472   1.689   2.973 -1.0548 -0.1938  1.3273
 2306TIP3   OH228476   1.701   6.810   1.030  0.1533 -0.7155  0.5817
 2306TIP3    H128477   1.640   6.861   1.082 -1.5740 -1.3271 -0.7548
 2306TIP3    H228478   1.700   6.851   0.943 -1.2888 -2.9052 -0.5299
 2307TIP3   OH228479   0.482   1.639   0.459  0.7989 -0.4777 -0.3417
 2307TIP3    H128480   0.545   1.663   0.526 -1.1602 -1.5832  2.0312
 2307TIP3    H228481   0.435   1.564   0.495 -1.4735 -0.0848 -2.2042
 2308TIP3   OH228482   0.514   0.925   3.838  0.3724  0.5853  0.4873
 2308TIP3    H128483   0.443   0.863   3.856  0.9595 -0.0092  0.7626
 2308TIP3    H228484   0.554   0.894   3.758  0.3025  0.9463  0.3093
 2309TIP3   OH228485   2.656   2.446   3.175 -0.2197  0.1666 -0.0924
 2309TIP3    H128486   2.629   2.488   3.256  3.0239  0.0065  1.2131
 2309TIP3    H228487   2.684   2.518   3.118  2.7181  0.1414  1.1205
 2310TIP3   OH228488   3.245   4.071   8.464  0.2189 -0.0413 -0.4516
 2310TIP3    H128489   3.320   4.055   8.407  2.4223  0.8432  2.0126
 2310TIP3    H228490   3.266   4.026   8.545 -1.4198  1.1340  0.6925
 2311TIP3   OH228491   3.122   5.267   1.432  0.2105 -0.0794 -0.3009
 2311TIP3    H128492   3.187   5.196   1.432 -1.1164 -1.3729  0.7551
 2311TIP3    H228493   3.148   5.324   1.505 -0.0458 -0.8386  0.4064
 2312TIP3   OH228494   2.224   0.171   0.431 -0.6352  0.2072  0.2412
 2312TIP3    H128495   2.203   0.217   0.512 -0.4031  3.3748 -1.3657
 2312TIP3    H228496   2.180   0.086   0.441 -0.9606  0.6024  3.4589
 2313TIP3   OH228497   1.189   4.411   1.892 -0.4652  0.0805  0.6209
 2313TIP3    H128498   1.099   4.439   1.873 -0.6485 -1.2393 -0.6754
 2313TIP3    H228499   1.188   4.317   1.875  1.7568  0.4316 -1.9923
 2314TIP3   OH228500   3.291   1.534   8.467  0.1430  0.8833 -0.3103
 2314TIP3    H128501   3.197   1.514   8.472  0.1886  0.9657  3.8707
 2314TIP3    H228502   3.295   1.629   8.454 -0.3829  1.0658  0.8132
 2315TIP3   OH228503   6.778   0.304   4.085 -0.0255 -0.1198 -0.2944
 2315TIP3    H128504   6.758   0.211   4.076  0.7014 -0.1346 -2.3244
 2315TIP3    H228505   6.864   0.306   4.127  0.2545 -0.4097 -0.8417
 2316TIP3   OH228506   4.352   0.157   3.118  0.4234  0.2279 -0.5811
 2316TIP3    H128507   4.305   0.112   3.047  1.2838  0.8309 -1.5491
 2316TIP3    H228508   4.297   0.232   3.139  0.9823  1.0062 -1.8018
 2317TIP3   OH228509   6.301   1.050   2.102  0.0960  0.4930 -0.6080
 2317TIP3    H128510   6.372   1.002   2.144 -0.0328 -0.4477 -1.4287
 2317TIP3    H228511   6.308   1.139   2.138 -0.9753 -0.5816  2.5744
 2318TIP3   OH228512   6.771   1.632   2.356  0.2927  0.2007  0.3210
 2318TIP3    H128513   6.741   1.548   2.392  1.2968  1.4231  4.5566
 2318TIP3    H228514   6.861   1.640   2.387  0.8077  2.1354 -1.4626
 2319TIP3   OH228515   2.526   6.892   1.596  0.6822 -0.5591  0.1200
 2319TIP3    H128516   2.465   6.838   1.546 -1.3157  0.9412  0.8001
 2319TIP3    H228517   2.529   6.850   1.683  0.3952 -0.4942  0.1635
 2320TIP3   OH228518   2.484   3.098   4.553  0.2166 -0.1487 -0.2064
 2320TIP3    H128519   2.514   3.178   4.596  0.3287 -1.0012  1.3821
 2320TIP3    H228520   2.557   3.036   4.564 -0.3473 -0.8482 -0.2863
 2321TIP3   OH228521   4.009   5.769   4.512 -0.1653 -0.4370 -0.5980
 2321TIP3    H128522   4.099   5.771   4.479  0.1403 -0.6251  0.1970
 2321TIP3    H228523   3.964   5.706   4.456  0.1455 -0.1919 -1.1278
 2322TIP3   OH228524   6.510   1.899   1.679  0.3629  0.2425 -0.4864
 2322TIP3    H128525   6.469   1.816   1.702  0.2069  0.1607 -1.0455
 2322TIP3    H228526   6.600   1.892   1.712  0.1090  0.1832  0.2045
 2323TIP3   OH228527   2.396   4.184   0.663  0.1041  0.1345  0.1727
 2323TIP3    H128528   2.350   4.209   0.742 -0.7232  0.2758 -0.3392
 2323TIP3    H228529   2.489   4.185   0.687 -0.1025  0.7472  0.9679
 2324TIP3   OH228530   3.947   1.204   1.001 -0.3044  0.4839  0.3233
 2324TIP3    H128531   3.875   1.179   0.943 -0.4706 -0.2965  0.8554
 2324TIP3    H228532   4.026   1.181   0.952 -0.4249  0.9336 -0.0816
 2325TIP3   OH228533   0.690   3.858   3.197  0.0145  0.0471 -0.3904
 2325TIP3    H128534   0.611   3.867   3.143 -0.0078 -1.1851 -0.6107
 2325TIP3    H228535   0.700   3.943   3.240 -1.1298  0.3974 -0.7702
 2326TIP3   OH228536   1.596   3.440   1.763  0.2244 -0.1884  0.3882
 2326TIP3    H128537   1.561   3.351   1.755 -0.7642  0.0404  1.7291
 2326TIP3    H228538   1.518   3.495   1.772  0.8584  0.6946  0.5908
 2327TIP3   OH228539   3.266   1.454   2.793 -0.0565  0.3273 -0.3309
 2327TIP3    H128540   3.273   1.437   2.886 -0.2288  0.2671 -0.3278
 2327TIP3    H228541   3.254   1.368   2.753  1.4657  0.1937 -0.5583
 2328TIP3   OH228542   1.313   6.444   1.950 -0.5405  0.1332 -0.2401
 2328TIP3    H128543   1.300   6.353   1.922  1.0383 -0.2678  0.2305
 2328TIP3    H228544   1.227   6.485   1.940 -1.6377 -1.7705  0.9169
 2329TIP3   OH228545   1.589   4.429   4.897  0.3149 -0.7027  0.2636
 2329TIP3    H128546   1.635   4.485   4.835 -0.0484 -0.6467  0.0377
 2329TIP3    H228547   1.505   4.411   4.855 -0.5353  0.5095  1.3396
 2330TIP3   OH228548   1.791   6.094   8.369 -0.1250 -0.1191 -0.2678
 2330TIP3    H128549   1.757   6.078   8.457 -0.6795 -0.4330 -0.5273
 2330TIP3    H228550   1.882   6.067   8.373 -0.2502 -0.5020  0.1192
 2331TIP3   OH228551   1.765   3.802   2.315  0.7320 -0.2632 -0.4446
 2331TIP3    H128552   1.798   3.717   2.344  1.8632 -0.8567 -3.2039
 2331TIP3    H228553   1.811   3.866   2.370 -1.3182 -1.3359  2.8050
 2332TIP3   OH228554   4.510   2.820   4.456 -0.7192 -0.4701  0.0806
 2332TIP3    H128555   4.593   2.844   4.497 -0.4413  2.2443 -1.7650
 2332TIP3    H228556   4.536   2.776   4.375 -0.7612  3.0382 -2.0617
 2333TIP3   OH228557   5.321   2.691   3.473 -0.0951 -0.0330 -0.4448
 2333TIP3    H128558   5.390   2.636   3.510 -0.2596 -1.4207 -2.0929
 2333TIP3    H228559   5.250   2.631   3.453 -0.3927  0.8041 -2.0690
 2334TIP3   OH228560   1.255   4.434   2.970  0.3187  0.3494 -0.2837
 2334TIP3    H128561   1.182   4.488   3.001 -0.7890 -0.4213 -1.4685
 2334TIP3    H228562   1.330   4.465   3.020 -0.7732  1.3002  0.8298
 2335TIP3   OH228563   3.204   6.283   3.713 -0.5299 -0.8444  0.6693
 2335TIP3    H128564   3.189   6.355   3.652  0.6668 -0.7625  0.4583
 2335TIP3    H228565   3.299   6.277   3.721 -0.6411 -0.7633  2.6341
 2336TIP3   OH228566   2.315   2.073   0.803  0.0528 -0.1925 -0.2589
 2336TIP3    H128567   2.264   2.043   0.728  0.7821  1.2273 -1.3752
 2336TIP3    H228568   2.267   2.149   0.836  0.8849  0.5371 -0.6888
 2337TIP3   OH228569   1.554   6.243   0.878  0.1946 -0.7238  0.2361
 2337TIP3    H128570   1.497   6.200   0.942 -0.3244  0.5870  0.6961
 2337TIP3    H228571   1.580   6.325   0.920 -0.6937  0.4870 -1.4337
 2338TIP3   OH228572   3.145   4.224   1.160 -0.1873  0.5370 -0.5785
 2338TIP3    H128573   3.221   4.166   1.153  0.2446  0.9897  0.2682
 2338TIP3    H228574   3.110   4.227   1.071  0.3442 -0.2705 -0.8282
 2339TIP3   OH228575   5.345   4.578   3.246 -0.3283  0.2300 -0.1492
 2339TIP3    H128576   5.362   4.523   3.323 -0.4431 -0.7711 -0.8161
 2339TIP3    H228577   5.253   4.600   3.251 -0.5491 -0.5773 -0.4472
 2340TIP3   OH228578   3.405   2.211   1.279 -0.0640 -0.1852 -0.1085
 2340TIP3    H128579   3.422   2.241   1.368 -0.3914 -1.7307  0.5107
 2340TIP3    H228580   3.479   2.244   1.228  0.3891  0.2886  0.8292
 2341TIP3   OH228581   2.789   3.446   1.121 -0.0419  0.0537  0.3299
 2341TIP3    H128582   2.800   3.463   1.028  1.5153 -0.9029  0.3026
 2341TIP3    H228583   2.714   3.387   1.127  0.2435 -0.3858 -0.3853
 2342TIP3   OH228584   2.574   3.108   1.345 -0.5045 -0.0463 -0.0198
 2342TIP3    H128585   2.622   3.149   1.418 -2.7194  0.2132  1.3805
 2342TIP3    H228586   2.571   3.176   1.278 -1.3653  0.9902  1.0189
 2343TIP3   OH228587   5.839   2.168   3.383  0.0274 -0.2773 -0.0804
 2343TIP3    H128588   5.889   2.246   3.407  0.7762 -0.7631 -0.0126
 2343TIP3    H228589   5.811   2.184   3.293 -0.6737  0.4881  0.2647
 2344TIP3   OH228590   2.680   4.600   3.511  0.0185  0.1883  0.2343
 2344TIP3    H128591   2.763   4.641   3.486 -0.2978 -0.4624 -2.1270
 2344TIP3    H228592   2.689   4.509   3.484 -0.7274 -0.4270  1.8877
 2345TIP3   OH228593   4.775   4.754   0.974 -0.5235 -0.6099  0.5166
 2345TIP3    H128594   4.859   4.774   1.014 -0.4156  0.7282 -0.3094
 2345TIP3    H228595   4.796   4.703   0.896 -0.3272  0.8123 -0.4079
 2346TIP3   OH228596   5.310   6.756   3.348  0.3309  0.0703 -0.3529
 2346TIP3    H128597   5.364   6.740   3.425 -0.0750 -1.0158 -0.2795
 2346TIP3    H228598   5.353   6.830   3.304  2.3630 -1.2574 -0.7201
 2347TIP3   OH228599   3.160   6.053   4.160  0.1273 -0.4207 -0.2202
 2347TIP3    H128600   3.104   6.090   4.228 -0.0376  1.7984 -1.4886
 2347TIP3    H228601   3.200   6.129   4.117  0.1483 -1.7232 -2.6899
 2348TIP3   OH228602   6.058   4.864   2.343  0.3511  0.5465  0.3043
 2348TIP3    H128603   6.134   4.885   2.288 -0.6534  0.3554 -1.2212
 2348TIP3    H228604   6.063   4.769   2.356  0.5341  0.5758  0.4455
 2349TIP3   OH228605   4.854   4.917   1.266 -0.2259 -0.4023 -0.4872
 2349TIP3    H128606   4.911   4.901   1.190  0.7039  1.1335 -0.1642
 2349TIP3    H228607   4.880   4.852   1.330 -1.6369 -2.3142 -1.7680
 2350TIP3   OH228608   3.527   3.828   1.790 -0.4263  0.0771 -0.6506
 2350TIP3    H128609   3.484   3.907   1.824  0.5338  1.1213 -1.7897
 2350TIP3    H228610   3.616   3.855   1.771 -0.3076 -1.0638 -1.8626
 2351TIP3   OH228611   5.584   6.478   2.093  0.5377 -0.1000  0.5208
 2351TIP3    H128612   5.534   6.516   2.021  2.2009  0.8355 -0.2131
 2351TIP3    H228613   5.554   6.526   2.170  0.7395  0.9097 -0.0045
 2352TIP3   OH228614   4.469   1.206   0.958 -0.2114 -0.6122  0.0276
 2352TIP3    H128615   4.399   1.265   0.930 -0.8358 -0.9030  0.9154
 2352TIP3    H228616   4.509   1.174   0.877 -0.8988 -0.1958 -0.4792
 2353TIP3   OH228617   1.128   3.798   2.522  0.2033  0.2702  0.1228
 2353TIP3    H128618   1.206   3.853   2.526  0.0809  0.4733 -0.2437
 2353TIP3    H228619   1.152   3.727   2.463 -0.1911  0.8283 -0.7270
 2354TIP3   OH228620   3.334   1.457   3.466  0.4935  0.1598  0.3456
 2354TIP3    H128621   3.329   1.373   3.513  0.7569 -0.0208  0.0546
 2354TIP3    H228622   3.390   1.439   3.391 -1.2863 -0.0014 -0.9981
 2355TIP3   OH228623   3.241   0.334   2.880  0.1492 -0.3918  0.1175
 2355TIP3    H128624   3.190   0.260   2.911 -0.4109 -0.3928 -0.7619
 2355TIP3    H228625   3.182   0.382   2.822  1.1450 -0.4527 -1.0048
 2356TIP3   OH228626   4.268   2.550   2.266 -0.5832 -0.3836  0.2119
 2356TIP3    H128627   4.296   2.499   2.190 -0.1000 -0.7885  0.6523
 2356TIP3    H228628   4.235   2.632   2.229 -1.5426 -1.0836 -0.5176
 2357TIP3   OH228629   2.470   6.288   1.227 -0.0959 -0.4129 -0.2135
 2357TIP3    H128630   2.452   6.358   1.290 -0.0765 -0.2547 -0.3830
 2357TIP3    H228631   2.528   6.228   1.274 -0.3805 -0.4885  0.0471
 2358TIP3   OH228632   3.166   5.816   3.129  0.0903 -0.5651  0.0077
 2358TIP3    H128633   3.235   5.879   3.151  0.7448 -0.6646 -1.5880
 2358TIP3    H228634   3.094   5.837   3.189  1.4497 -0.3989  1.6721
 2359TIP3   OH228635   5.216   2.108   3.000  0.7933 -0.6130 -0.3256
 2359TIP3    H128636   5.185   2.083   2.913  2.5342 -0.3122 -1.0762
 2359TIP3    H228637   5.182   2.196   3.014  0.2523 -0.7791 -0.5556
 2360TIP3   OH228638   3.768   5.630   1.386  0.3823  0.0566  0.6222
 2360TIP3    H128639   3.689   5.622   1.439  0.4726 -2.9594  0.4370
 2360TIP3    H228640   3.793   5.540   1.365  3.0383  0.9607 -0.5814
 2361TIP3   OH228641   3.613   2.496   2.338 -0.3492  0.2249 -0.6310
 2361TIP3    H128642   3.585   2.523   2.425 -2.8810 -0.7901 -1.0529
 2361TIP3    H228643   3.684   2.433   2.354 -1.1736 -0.3922  0.7201
 2362TIP3   OH228644   2.000   5.795   1.733 -0.2087 -0.2985  0.2918
 2362TIP3    H128645   1.971   5.773   1.645  1.7976 -2.1846  0.0427
 2362TIP3    H228646   2.000   5.891   1.735 -0.6366 -0.2298 -1.6187
 2363TIP3   OH228647   4.655   1.091   1.982 -0.1642 -0.3090  0.0837
 2363TIP3    H128648   4.589   1.159   1.993  0.0886 -0.0104 -0.2055
 2363TIP3    H228649   4.699   1.113   1.900  0.9746  0.0833  0.7685
 2364TIP3   OH228650   5.455   0.829   1.458  0.7701  0.4940 -0.1215
 2364TIP3    H128651   5.363   0.850   1.472 -0.2486 -1.3627 -3.2123
 2364TIP3    H228652   5.502   0.907   1.487 -1.9410  2.5267 -0.8256
 2365TIP3   OH228653   1.192   1.907   1.887  0.4664 -0.1893  0.1908
 2365TIP3    H128654   1.124   1.898   1.955 -2.5840  2.6774 -2.1428
 2365TIP3    H228655   1.230   1.819   1.880 -3.0887 -2.0644  1.6406
 2366TIP3   OH228656   6.433   4.782   1.862  0.1510  0.2315 -0.1068
 2366TIP3    H128657   6.493   4.713   1.834  1.4908  1.2026  0.2836
 2366TIP3    H228658   6.472   4.818   1.942 -1.7637 -0.1258  1.0582
 2367TIP3   OH228659   1.267   3.081   4.823  0.4682 -0.0758  0.1738
 2367TIP3    H128660   1.182   3.122   4.837  0.2754  0.5190 -2.3027
 2367TIP3    H228661   1.247   2.999   4.777  1.1795 -0.5886  0.7433
 2368TIP3   OH228662   3.566   2.889   2.794  0.3614 -0.2272 -0.4987
 2368TIP3    H128663   3.567   2.874   2.888  0.5336  0.6829 -0.3510
 2368TIP3    H228664   3.525   2.810   2.758  3.2665 -2.0990  0.0364
 2369TIP3   OH228665   2.910   4.890   2.137  0.0942  0.1524  0.4953
 2369TIP3    H128666   2.892   4.831   2.210 -0.5822 -0.6572 -0.3117
 2369TIP3    H228667   2.896   4.978   2.173  2.0736 -0.0752  1.9930
 2370TIP3   OH228668   0.350   6.437   0.162  0.3552 -0.3512  0.0920
 2370TIP3    H128669   0.429   6.486   0.141  1.8573 -2.9409 -0.7301
 2370TIP3    H228670   0.289   6.456   0.091  0.1773  1.6396  0.7196
 2371TIP3   OH228671   1.896   3.845   1.509  0.3392  0.6561  0.1798
 2371TIP3    H128672   1.891   3.821   1.416  0.1149  1.6983 -0.0903
 2371TIP3    H228673   1.892   3.762   1.555 -1.1924  0.1949 -0.6842
 2372TIP3   OH228674   3.930   2.145   3.918  0.0150 -0.2080  0.1854
 2372TIP3    H128675   3.865   2.186   3.974 -0.8515  2.4728 -2.4836
 2372TIP3    H228676   3.897   2.057   3.902 -2.1873  0.5635  0.1373
 2373TIP3   OH228677   0.797   4.374   2.350  0.5216  0.0130 -0.4940
 2373TIP3    H128678   0.867   4.406   2.407 -1.6719  0.0591  2.4308
 2373TIP3    H228679   0.830   4.291   2.317  2.0052  0.0617  0.7078
 2374TIP3   OH228680   0.765   0.486   2.960  0.1568  0.2093  1.2828
 2374TIP3    H128681   0.676   0.489   2.995 -0.0792  0.5167  0.6557
 2374TIP3    H228682   0.818   0.453   3.033 -0.6743 -1.3549  1.2233
 2375TIP3   OH228683   4.714   0.260   2.594 -0.0247 -0.2865  0.2587
 2375TIP3    H128684   4.666   0.331   2.553  0.6764 -0.8248 -1.6309
 2375TIP3    H228685   4.690   0.182   2.543  0.5601 -1.0730  1.1479
 2376TIP3   OH228686   2.880   4.708   3.956  0.1534  0.0566 -0.1300
 2376TIP3    H128687   2.905   4.623   3.919  0.7894  1.0585 -2.1529
 2376TIP3    H228688   2.963   4.748   3.983  0.1968  1.0907 -1.6741
 2377TIP3   OH228689   1.245   2.651   3.305  0.1737 -0.0041  0.2199
 2377TIP3    H128690   1.178   2.628   3.241 -0.0302 -0.0834  0.4572
 2377TIP3    H228691   1.217   2.608   3.385 -0.1519  0.9721  0.6493
 2378TIP3   OH228692   2.520   3.016   1.913  0.4177 -0.1074  0.1193
 2378TIP3    H128693   2.595   3.072   1.893 -0.5733  0.5651 -2.0353
 2378TIP3    H228694   2.454   3.076   1.947 -0.6639  0.1812 -2.2378
 2379TIP3   OH228695   3.924   1.315   2.333 -0.6033 -0.5125  0.4644
 2379TIP3    H128696   4.003   1.290   2.381 -0.7782  0.2710  1.1799
 2379TIP3    H228697   3.914   1.247   2.266  0.8651 -0.4290  0.1374
 2380TIP3   OH228698   4.058   4.961   1.879 -0.2257 -0.3296  0.3051
 2380TIP3    H128699   4.065   5.022   1.806 -0.9414 -0.1627  0.3708
 2380TIP3    H228700   4.027   4.880   1.839  0.3721 -0.5509  0.2747
 2381TIP3   OH228701   5.902   4.948   4.756  0.2332  0.4631  0.2382
 2381TIP3    H128702   5.831   4.947   4.821  0.8595  0.3276  0.9343
 2381TIP3    H228703   5.980   4.970   4.807  1.0081 -1.1659 -0.1982
 2382TIP3   OH228704   5.849   3.249   4.207  0.0154  0.1161 -0.1128
 2382TIP3    H128705   5.928   3.198   4.189  0.4909  0.9460 -0.4240
 2382TIP3    H228706   5.880   3.338   4.224 -0.7274  0.1509  1.2666
 2383TIP3   OH228707   3.348   2.181   2.433 -0.2715 -0.6870  0.1282
 2383TIP3    H128708   3.269   2.209   2.387  0.0649  0.2195  0.0819
 2383TIP3    H228709   3.328   2.092   2.463 -0.9468 -0.8247 -0.7027
 2384TIP3   OH228710   4.604   0.076   3.041 -0.0352  0.0340 -0.3441
 2384TIP3    H128711   4.517   0.115   3.047  0.1202  0.4568 -0.8480
 2384TIP3    H228712   4.648   0.126   2.973  0.6988  0.0055  0.1034
 2385TIP3   OH228713   3.773   6.189   0.935 -0.4218  0.7804 -0.1791
 2385TIP3    H128714   3.782   6.161   0.844  0.1237  1.1522 -0.2471
 2385TIP3    H228715   3.754   6.109   0.984  1.0281  0.2751 -0.3711
 2386TIP3   OH228716   4.325   6.481   0.952 -0.3067  0.0595 -0.2122
 2386TIP3    H128717   4.234   6.458   0.929 -0.3736  0.5830 -0.4876
 2386TIP3    H228718   4.317   6.560   1.005 -0.0253 -0.0356 -0.0310
 2387TIP3   OH228719   0.473   4.238   2.203 -0.3092 -0.3043  0.0973
 2387TIP3    H128720   0.455   4.308   2.140 -1.1520  0.7359  1.4280
 2387TIP3    H228721   0.447   4.158   2.157 -1.0592  0.4337 -0.8297
 2388TIP3   OH228722   3.292   3.705   0.732  0.1144 -0.2532 -0.4543
 2388TIP3    H128723   3.372   3.746   0.763  0.3070 -0.3017 -0.8709
 2388TIP3    H228724   3.226   3.774   0.736  0.1088 -0.2895  0.1506
 2389TIP3   OH228725   0.134   3.081   1.511  0.1653  0.0856  0.6749
 2389TIP3    H128726   0.182   3.073   1.593 -0.1279  0.6141  0.8995
 2389TIP3    H228727   0.180   3.022   1.451  0.3447 -0.3534  1.2310
 2390TIP3   OH228728   5.069   2.857   2.550  0.3247 -0.2299 -0.4496
 2390TIP3    H128729   4.992   2.801   2.558  0.7233 -0.8436 -0.8516
 2390TIP3    H228730   5.104   2.862   2.639 -0.4422  0.4484 -0.1740
 2391TIP3   OH228731   1.932   1.775   2.066 -0.6583 -0.5174  0.2792
 2391TIP3    H128732   1.874   1.813   2.132 -0.4330  0.5650 -0.1222
 2391TIP3    H228733   2.014   1.823   2.077 -0.4319 -0.7526 -0.3805
 2392TIP3   OH228734   1.479   4.171   4.966  0.2560  0.1671  0.3538
 2392TIP3    H128735   1.561   4.122   4.980  0.9628  0.9315 -0.9671
 2392TIP3    H228736   1.481   4.195   4.874 -0.4213  2.0627  0.7939
 2393TIP3   OH228737   1.577   2.775   2.847  0.2421  0.2451 -0.0360
 2393TIP3    H128738   1.647   2.801   2.907  0.1815  0.6996 -0.1591
 2393TIP3    H228739   1.516   2.848   2.848  0.1631  0.1885 -0.5372
 2394TIP3   OH228740   3.208   2.702   3.738 -0.1844  0.0296 -0.4204
 2394TIP3    H128741   3.287   2.654   3.716  0.0159 -0.2976  0.9367
 2394TIP3    H228742   3.238   2.789   3.764 -0.3564  0.1767 -0.6949
 2395TIP3   OH228743   5.154   5.434   2.431  0.2064 -0.0633  0.0787
 2395TIP3    H128744   5.206   5.389   2.498  0.7913  0.5564  0.0483
 2395TIP3    H228745   5.218   5.478   2.376 -0.3639  1.2164  0.3973
 2396TIP3   OH228746   1.193   0.717   1.580  0.0856 -0.3309  0.1356
 2396TIP3    H128747   1.151   0.708   1.494  1.0229  1.8347 -0.6028
 2396TIP3    H228748   1.199   0.811   1.594  0.7658 -0.6420  2.1994
 2397TIP3   OH228749   4.053   0.046   0.757 -0.0561  0.2376 -0.5537
 2397TIP3    H128750   3.969   0.016   0.724 -0.6460  0.7708  0.4310
 2397TIP3    H228751   4.098   0.081   0.680 -0.2865 -1.0251 -1.2858
 2398TIP3   OH228752   0.066   0.917   0.281 -0.1026  0.3450  0.2793
 2398TIP3    H128753   0.131   0.987   0.285 -0.4007  0.5669  2.9639
 2398TIP3    H228754   0.027   0.915   0.368 -0.1828 -3.1246  0.2905
 2399TIP3   OH228755   2.683   6.047   3.380  0.3996  0.4792 -0.1254
 2399TIP3    H128756   2.614   6.022   3.319 -1.0362  0.5385  1.4033
 2399TIP3    H228757   2.677   5.982   3.450  0.3396  1.8225  1.1661
 2400TIP3   OH228758   5.166   5.390   4.048 -0.0287 -0.1391  0.1723
 2400TIP3    H128759   5.136   5.324   3.985 -3.1146  0.7695  0.5085
 2400TIP3    H228760   5.211   5.455   3.994 -0.8599 -0.3682 -0.8489
 2401TIP3   OH228761   4.792   0.332   1.447  0.7879  0.4306 -0.3591
 2401TIP3    H128762   4.802   0.244   1.484 -0.8776  0.5977  0.5556
 2401TIP3    H228763   4.833   0.389   1.512 -0.7264  0.5699  0.5277
 2402TIP3   OH228764   4.181   1.521   0.187  0.3651  0.1927  0.0221
 2402TIP3    H128765   4.122   1.552   0.256  0.9998 -0.2690  0.7914
 2402TIP3    H228766   4.218   1.600   0.149  0.5256  0.4325  0.6734
 2403TIP3   OH228767   4.745   1.159   1.726  0.1785  0.1709 -0.1658
 2403TIP3    H128768   4.671   1.102   1.707 -1.7644  2.1257  1.1496
 2403TIP3    H228769   4.808   1.140   1.655 -1.2310 -2.0199 -0.9476
 2404TIP3   OH228770   5.107   0.340   3.283 -0.0679  0.5681 -0.4610
 2404TIP3    H128771   5.153   0.260   3.259  0.2342  0.5277  0.2312
 2404TIP3    H228772   5.026   0.337   3.232  0.0169 -0.0886 -0.5690
 2405TIP3   OH228773   3.652   3.683   3.319  0.1711  0.1777  0.1569
 2405TIP3    H128774   3.667   3.759   3.262 -1.2289  0.2474 -0.1650
 2405TIP3    H228775   3.605   3.719   3.394  0.6475 -0.1767  0.6351
 2406TIP3   OH228776   0.998   4.309   4.185 -0.2357  0.0497  0.1666
 2406TIP3    H128777   1.005   4.281   4.094 -0.5372  0.0148  0.1515
 2406TIP3    H228778   1.001   4.404   4.182  1.1802  0.0222  0.2514
 2407TIP3   OH228779   4.482   3.498   4.238  0.4189  0.9462  0.4304
 2407TIP3    H128780   4.568   3.472   4.206 -0.1978  0.5959 -1.0303
 2407TIP3    H228781   4.449   3.421   4.283  0.6717  0.9126  0.5594
 2408TIP3   OH228782   5.891   1.087   1.826 -0.9506 -0.0196 -0.5575
 2408TIP3    H128783   5.965   1.071   1.767  1.3086  1.0543  1.8169
 2408TIP3    H228784   5.856   0.999   1.843 -1.1227 -0.4425 -2.6818
 2409TIP3   OH228785   2.598   3.301   3.836  0.0966 -0.3537  0.0215
 2409TIP3    H128786   2.576   3.387   3.873 -0.9807 -0.3487 -0.5910
 2409TIP3    H228787   2.562   3.238   3.899  1.0037 -0.3778  0.5392
 2410TIP3   OH228788   1.642   0.582   2.760 -0.1615 -0.4351 -0.2467
 2410TIP3    H128789   1.597   0.662   2.734  1.6006  0.9455  0.7180
 2410TIP3    H228790   1.666   0.540   2.678 -0.4849  0.3931 -0.7757
 2411TIP3   OH228791   0.936   6.228   1.971 -0.0941  0.4529 -0.0969
 2411TIP3    H128792   0.886   6.305   1.943 -1.3294 -0.4671 -0.5014
 2411TIP3    H228793   0.897   6.204   2.055  0.3654  0.3240  0.0834
 2412TIP3   OH228794   5.196   1.355   1.215 -0.2088 -0.4149 -0.0547
 2412TIP3    H128795   5.209   1.411   1.291 -2.4593 -0.8563  0.7179
 2412TIP3    H228796   5.285   1.333   1.186  0.7435 -0.9911  2.9884
 2413TIP3   OH228797   4.649   3.388   2.299 -0.3772  0.1458  0.3390
 2413TIP3    H128798   4.638   3.457   2.232  0.4224 -0.0886 -0.0462
 2413TIP3    H228799   4.680   3.435   2.376  0.6530  0.1772 -0.0719
 2414TIP3   OH228800   0.665   0.406   3.392 -0.1382 -0.3047  0.2002
 2414TIP3    H128801   0.632   0.353   3.465  1.0747  0.8839  1.6677
 2414TIP3    H228802   0.627   0.493   3.406  1.7001  0.4614  0.5845
 2415TIP3   OH228803   5.980   3.592   2.803  0.1065 -0.2711  0.2619
 2415TIP3    H128804   6.061   3.556   2.768 -0.3884 -1.1447 -0.0172
 2415TIP3    H228805   5.911   3.557   2.746 -0.4422  0.7319  0.2785
 2416TIP3   OH228806   5.913   5.198   0.533  0.4733  0.4966  0.1510
 2416TIP3    H128807   5.964   5.186   0.454  1.0368  1.9128  0.2680
 2416TIP3    H228808   5.944   5.130   0.593  2.5326  1.5278  0.3525
 2417TIP3   OH228809   5.688   5.938   2.305  0.4233  0.2306 -0.1420
 2417TIP3    H128810   5.666   5.881   2.379  0.1892  0.7033  0.1575
 2417TIP3    H228811   5.675   5.884   2.228  2.6929 -0.9582  0.2148
 2418TIP3   OH228812   4.538   3.066   3.544  0.3679  0.0867 -0.3197
 2418TIP3    H128813   4.595   3.004   3.499  1.7018  1.0214  0.0362
 2418TIP3    H228814   4.502   3.121   3.475 -0.0468 -0.4401 -0.5343
 2419TIP3   OH228815   5.245   1.051   2.396  0.0682 -0.0819  0.1259
 2419TIP3    H128816   5.175   1.081   2.339  2.0233  0.3713 -2.2153
 2419TIP3    H228817   5.233   1.100   2.477 -0.9695  1.7310 -1.0622
 2420TIP3   OH228818   4.205   4.509   2.500 -0.1445 -0.0796  0.5008
 2420TIP3    H128819   4.175   4.448   2.434 -0.2363 -0.0197  0.4865
 2420TIP3    H228820   4.189   4.596   2.462 -0.3457 -0.0426  0.6644
 2421TIP3   OH228821   0.768   6.737   3.385 -0.3876  0.4436  0.5896
 2421TIP3    H128822   0.786   6.816   3.436  0.9077  0.5538  0.0069
 2421TIP3    H228823   0.811   6.666   3.435  0.3988  0.4696 -0.0267
 2422TIP3   OH228824   2.890   1.704   1.433  0.3795 -0.2160  0.3394
 2422TIP3    H128825   2.796   1.720   1.421  0.3721  0.1400  0.8743
 2422TIP3    H228826   2.896   1.645   1.508  0.6818  1.3329  1.5642
 2423TIP3   OH228827   5.221   1.720   2.462 -0.1620  0.5222  0.2980
 2423TIP3    H128828   5.146   1.729   2.403  0.4291  0.5731 -0.4629
 2423TIP3    H228829   5.263   1.806   2.459 -1.0623  1.0690  2.1196
 2424TIP3   OH228830   1.523   5.062   3.747 -0.5298  0.1608  0.4826
 2424TIP3    H128831   1.477   5.093   3.825 -0.0069  1.0367  0.4541
 2424TIP3    H228832   1.575   4.988   3.778 -1.5443 -0.5173  0.6187
 2425TIP3   OH228833   1.692   3.078   2.910  0.4738 -0.8660  0.5212
 2425TIP3    H128834   1.697   3.092   3.004 -0.7399  0.0592  0.4724
 2425TIP3    H228835   1.599   3.083   2.889  0.7495 -0.6933 -0.7772
 2426TIP3   OH228836   3.581   6.275   3.514 -0.0776 -0.2048  0.1416
 2426TIP3    H128837   3.618   6.354   3.553  0.3797 -0.6005  0.5211
 2426TIP3    H228838   3.591   6.208   3.581  0.3897 -0.8094 -0.5069
 2427TIP3   OH228839   5.373   2.959   3.043  0.6344 -0.2216  0.2030
 2427TIP3    H128840   5.336   3.027   3.099  1.1735  1.2067 -1.0945
 2427TIP3    H228841   5.466   2.981   3.037  0.3735  0.6141 -2.3868
 2428TIP3   OH228842   6.843   4.369   3.283  1.1887 -0.1739 -1.0929
 2428TIP3    H128843   6.903   4.428   3.238  1.3268  1.5405  1.1528
 2428TIP3    H228844   6.876   4.366   3.373 -1.1543 -0.4987 -0.1931
 2429TIP3   OH228845   4.926   5.157   1.440  0.3205 -0.3454 -0.1594
 2429TIP3    H128846   5.013   5.118   1.436  0.2872 -0.3543 -1.1479
 2429TIP3    H228847   4.876   5.110   1.373  0.5439  1.9892 -2.0705
 2430TIP3   OH228848   4.944   0.855   4.037 -0.2583 -0.0810  0.4694
 2430TIP3    H128849   4.997   0.781   4.066  0.4520  1.2187  2.6630
 2430TIP3    H228850   4.863   0.815   4.005  0.2339 -1.8333  1.2986
 2431TIP3   OH228851   3.271   5.461   4.075  0.2141 -0.1122 -0.4081
 2431TIP3    H128852   3.205   5.508   4.125  0.9630 -0.2547  0.7450
 2431TIP3    H228853   3.346   5.453   4.134  1.0663 -0.4451 -1.4886
 2432TIP3   OH228854   5.170   6.343   1.880  0.3901 -0.2062 -0.6384
 2432TIP3    H128855   5.092   6.385   1.844 -0.5100 -0.8245  0.5086
 2432TIP3    H228856   5.242   6.373   1.824 -0.7852 -0.3206 -2.2747
 2433TIP3   OH228857   2.195   5.403   1.873 -0.4171 -0.1813  0.4762
 2433TIP3    H128858   2.169   5.381   1.784  1.2006 -1.3830  0.2468
 2433TIP3    H228859   2.142   5.344   1.928 -1.4744  0.6177  0.3468
 2434TIP3   OH228860   1.052   6.534   1.886  0.2056 -0.3446 -0.6168
 2434TIP3    H128861   1.068   6.600   1.954  1.5515 -2.1299  0.9007
 2434TIP3    H228862   0.961   6.507   1.901 -0.3543  1.0883 -1.2411
 2435TIP3   OH228863   6.665   1.295   3.435  0.0636 -0.3723 -0.4763
 2435TIP3    H128864   6.644   1.324   3.347 -0.4267 -0.4460 -0.3856
 2435TIP3    H228865   6.580   1.278   3.476  0.2657  0.0941  0.1542
 2436TIP3   OH228866   0.862   0.027   4.035  0.1735  0.0781  0.5542
 2436TIP3    H128867   0.931  -0.005   4.093 -0.3154 -1.9821  0.0513
 2436TIP3    H228868   0.859  -0.036   3.964 -0.6854  1.4097 -0.6453
 2437TIP3   OH228869   2.803   0.386   3.044 -0.7252 -0.5754 -0.2492
 2437TIP3    H128870   2.795   0.381   3.139 -0.1724  0.5509 -0.1175
 2437TIP3    H228871   2.823   0.297   3.016 -2.4579 -1.2402  0.5085
 2438TIP3   OH228872   2.227   6.065   3.516 -0.3719  0.5189  0.2312
 2438TIP3    H128873   2.163   6.009   3.560 -1.0198  1.8335  1.0248
 2438TIP3    H228874   2.284   6.096   3.586 -1.2243  2.3904  0.1314
 2439TIP3   OH228875   4.923   6.404   3.411 -0.1588  0.2188 -0.2848
 2439TIP3    H128876   4.970   6.330   3.371 -0.6098 -0.3703  0.2542
 2439TIP3    H228877   4.908   6.464   3.338  0.0106 -0.3232 -0.7823
 2440TIP3   OH228878   2.339   4.241   2.521  0.0009  0.1797 -0.2124
 2440TIP3    H128879   2.279   4.290   2.578 -0.9591 -2.0496  0.8014
 2440TIP3    H228880   2.286   4.171   2.484  1.5382 -0.7134 -0.8337
 2441TIP3   OH228881   0.838   4.539   1.142 -0.4333 -0.4339 -0.4428
 2441TIP3    H128882   0.862   4.484   1.217  0.2533 -0.4196 -0.6410
 2441TIP3    H228883   0.895   4.508   1.072 -1.9862 -1.3414 -1.3508
 2442TIP3   OH228884   5.887   3.493   1.901 -0.3901 -0.3017 -0.2240
 2442TIP3    H128885   5.850   3.405   1.889 -2.1782  0.4188 -0.2784
 2442TIP3    H228886   5.904   3.524   1.812 -0.9151 -0.1252 -0.2635
 2443TIP3   OH228887   4.369   2.655   4.246  0.4212  0.0343 -0.4980
 2443TIP3    H128888   4.290   2.605   4.224  1.6997 -1.1568 -2.7807
 2443TIP3    H228889   4.393   2.624   4.333 -0.9064 -0.5771 -0.3247
 2444TIP3   OH228890   3.805   2.959   2.693  0.5980  0.5166  0.0339
 2444TIP3    H128891   3.856   2.878   2.699  0.2579  0.0196 -2.6186
 2444TIP3    H228892   3.725   2.940   2.741  0.4138 -0.8393 -0.7629
 2445TIP3   OH228893   1.331   4.831   0.213  0.2155 -0.6185  0.4925
 2445TIP3    H128894   1.295   4.919   0.222  0.1340 -0.7355  1.3637
 2445TIP3    H228895   1.258   4.780   0.177 -0.0664 -0.5592  0.9745
 2446TIP3   OH228896   5.730   2.918   4.670  0.3020 -0.0278  0.2408
 2446TIP3    H128897   5.681   2.997   4.647 -2.6069 -2.3759 -2.6572
 2446TIP3    H228898   5.766   2.936   4.757 -1.3520  3.8830  0.3127
 2447TIP3   OH228899   1.825   6.013   2.510 -0.5713  0.1054  0.0470
 2447TIP3    H128900   1.794   6.086   2.456 -1.0122  0.0952  0.2865
 2447TIP3    H228901   1.840   5.942   2.447 -4.1936 -1.0090  0.1914
 2448TIP3   OH228902   0.085   3.349   1.886  0.3273 -0.0045  0.2431
 2448TIP3    H128903   0.115   3.343   1.976 -2.5237 -1.3700  1.2481
 2448TIP3    H228904   0.046   3.263   1.869 -1.4133  1.0408 -1.3847
 2449TIP3   OH228905   4.885   2.136   3.936  0.4086 -0.7414  0.3626
 2449TIP3    H128906   4.968   2.112   3.894  0.2406 -1.1489  0.2575
 2449TIP3    H228907   4.821   2.134   3.866  0.7435  2.3227 -0.1788
 2450TIP3   OH228908   3.113   6.118   0.200  0.5524  0.2448  0.0342
 2450TIP3    H128909   3.051   6.092   0.268  0.7728  1.0681  0.5730
 2450TIP3    H228910   3.076   6.199   0.164  1.4112  0.8730  0.5263
 2451TIP3   OH228911   4.711   0.746   3.433 -0.0035 -0.2712  0.1959
 2451TIP3    H128912   4.683   0.799   3.508  0.7384 -0.3906  0.5643
 2451TIP3    H228913   4.740   0.663   3.471 -0.7015 -0.7715 -0.3354
 2452TIP3   OH228914   1.332   1.338   1.199  0.6821  0.2002  0.0892
 2452TIP3    H128915   1.336   1.421   1.152 -2.5127  1.0120  0.9785
 2452TIP3    H228916   1.283   1.280   1.141 -0.7418  0.3038  1.1341
 2453TIP3   OH228917   6.692   6.679   3.696  0.2861  0.4846 -0.3251
 2453TIP3    H128918   6.785   6.658   3.685  0.0539 -1.4973  0.9280
 2453TIP3    H228919   6.692   6.760   3.747  1.2436  2.4680 -3.1980
 2454TIP3   OH228920   4.513   3.850   1.693 -0.5110  0.2964 -0.2037
 2454TIP3    H128921   4.475   3.807   1.617 -2.0437  1.3749 -0.0770
 2454TIP3    H228922   4.578   3.911   1.656  0.0091 -0.4403 -0.5204
 2455TIP3   OH228923   3.403   1.197   4.185  0.1344  0.2778 -0.3819
 2455TIP3    H128924   3.469   1.134   4.215 -0.3537 -0.8534 -1.6092
 2455TIP3    H228925   3.343   1.204   4.259  1.3199  0.9383  0.5616
 2456TIP3   OH228926   3.473   0.753   1.004 -0.1616  0.2586  0.1688
 2456TIP3    H128927   3.526   0.702   0.943  1.1213  0.6254  0.9350
 2456TIP3    H228928   3.414   0.690   1.044 -0.7162 -0.0618 -1.1177
 2457TIP3   OH228929   2.080   5.880   3.021  0.0287  0.0866  0.3662
 2457TIP3    H128930   2.059   5.794   2.983  1.1210  0.3336 -0.8557
 2457TIP3    H228931   2.110   5.860   3.109 -0.3656 -0.7236  0.3326
 2458TIP3   OH228932   6.767   1.537   2.103  0.4692 -0.2823  0.2588
 2458TIP3    H128933   6.758   1.442   2.102  1.2998 -0.3919  1.0565
 2458TIP3    H228934   6.779   1.559   2.196 -0.5184  0.6902  0.1754
 2459TIP3   OH228935   3.596   3.253   4.398  0.2785  0.3076  0.5126
 2459TIP3    H128936   3.648   3.204   4.336 -1.2485  0.9927 -1.4075
 2459TIP3    H228937   3.520   3.197   4.416 -0.5005  1.1016 -0.1839
 2460TIP3   OH228938   6.497   5.175   1.463  0.1716  0.1043  0.1823
 2460TIP3    H128939   6.409   5.169   1.499  0.1206 -0.4037 -0.0104
 2460TIP3    H228940   6.549   5.218   1.531 -0.7872  2.9196 -0.7440
 2461TIP3   OH228941   6.155   0.478   3.675 -0.2651  0.3498 -0.3326
 2461TIP3    H128942   6.082   0.426   3.641  0.2204  0.2487 -1.2577
 2461TIP3    H228943   6.231   0.420   3.666 -0.3746 -0.5118  2.8841
 2462TIP3   OH228944   3.274   1.828   1.132 -0.0170  0.2994 -0.1479
 2462TIP3    H128945   3.198   1.812   1.189 -1.2658 -0.1636 -1.8668
 2462TIP3    H228946   3.340   1.866   1.190 -0.7548 -1.3596  1.8795
 2463TIP3   OH228947   5.433   2.580   3.874 -0.5784  0.4360 -0.2103
 2463TIP3    H128948   5.382   2.527   3.936 -0.7591  1.4253  0.5030
 2463TIP3    H228949   5.374   2.597   3.801 -0.8010  0.3868 -0.0408
 2464TIP3   OH228950   1.541   4.764   4.076 -0.1584  0.3856 -0.2652
 2464TIP3    H128951   1.503   4.695   4.130  2.3385 -1.1447 -0.2872
 2464TIP3    H228952   1.501   4.753   3.990 -1.8219  0.7950  0.4240
 2465TIP3   OH228953   3.995   1.505   4.109 -0.1788 -0.4248  0.3420
 2465TIP3    H128954   4.008   1.591   4.149 -2.4566  0.3006 -0.3301
 2465TIP3    H228955   3.932   1.462   4.166  0.8389 -1.6290  0.5881
 2466TIP3   OH228956   6.060   6.810   3.584  0.0058  0.3711  0.4549
 2466TIP3    H128957   6.051   6.894   3.540  0.5188  0.5072  0.6000
 2466TIP3    H228958   6.057   6.832   3.678 -1.1390  0.0792  0.5002
 2467TIP3   OH228959   1.169   4.932   3.871 -0.7622  0.0688  0.3576
 2467TIP3    H128960   1.261   4.908   3.865 -0.4309  1.4761 -0.8785
 2467TIP3    H228961   1.123   4.858   3.832 -0.1466 -0.4990  0.6795
 2468TIP3   OH228962   0.769   6.478   1.437  0.1687 -0.2901 -0.4841
 2468TIP3    H128963   0.775   6.410   1.370 -1.7323 -1.6412  0.6147
 2468TIP3    H228964   0.681   6.469   1.472 -0.5018  3.3840 -0.8608
 2469TIP3   OH228965   5.961   0.948   3.593 -0.7363 -0.7261 -0.8541
 2469TIP3    H128966   6.016   1.019   3.562 -0.5078 -0.8540 -0.7429
 2469TIP3    H228967   5.890   0.943   3.529 -0.7572 -0.3967 -0.8619
 2470TIP3   OH228968   4.869   1.750   2.070  0.0898 -0.1893 -0.1963
 2470TIP3    H128969   4.784   1.794   2.068  0.2232  0.1423  0.8708
 2470TIP3    H228970   4.933   1.820   2.056  0.3337  0.1132  2.0875
 2471TIP3   OH228971   3.894   2.159   4.417 -0.2734  0.2030  0.0176
 2471TIP3    H128972   3.832   2.178   4.487  0.5551  0.9542  0.5595
 2471TIP3    H228973   3.932   2.243   4.393  0.5936 -0.2480 -0.2595
 2472TIP3   OH228974   3.593   6.217   2.406  0.2977 -0.3745 -0.4332
 2472TIP3    H128975   3.643   6.298   2.395 -0.8476  0.4268  0.0865
 2472TIP3    H228976   3.507   6.246   2.436  0.6352 -1.8821  2.3019
 2473TIP3   OH228977   3.496   6.829   3.201  0.3701  0.0252  0.2703
 2473TIP3    H128978   3.447   6.896   3.249  0.6023  0.5595 -0.2271
 2473TIP3    H228979   3.585   6.863   3.198  0.1470  0.5509 -1.5057
 2474TIP3   OH228980   6.084   3.407   4.292 -0.3196  0.2846  0.2364
 2474TIP3    H128981   6.149   3.474   4.275 -0.2904 -0.0637 -1.1216
 2474TIP3    H228982   6.050   3.428   4.379  0.4201  1.4332  0.2667
 2475TIP3   OH228983   2.568   1.498   3.253 -0.1841  0.3362 -0.0270
 2475TIP3    H128984   2.505   1.460   3.314 -1.4356 -0.0759 -1.4962
 2475TIP3    H228985   2.546   1.459   3.168  1.2715  1.1265 -0.8235
 2476TIP3   OH228986   3.169   5.592   0.476 -0.3472 -0.0692  0.0919
 2476TIP3    H128987   3.087   5.547   0.495  0.1442 -1.6612 -1.3731
 2476TIP3    H228988   3.145   5.685   0.473 -2.3351 -0.5617 -1.2907
 2477TIP3   OH228989   0.794   6.525   2.947 -0.2319 -0.2547 -0.3026
 2477TIP3    H128990   0.846   6.577   3.008 -0.5487 -0.9873  0.6157
 2477TIP3    H228991   0.845   6.524   2.866  1.0169 -0.6747  0.4697
 2478TIP3   OH228992   6.848   5.775   3.089 -0.2659 -0.1349  0.1938
 2478TIP3    H128993   6.834   5.683   3.112 -0.9368 -0.1620 -0.2769
 2478TIP3    H228994   6.906   5.809   3.158 -0.5885 -0.7305  0.7724
 2479TIP3   OH228995   5.899   1.926   4.876 -0.0227 -0.0412  0.0752
 2479TIP3    H128996   5.931   1.956   4.791  0.7005 -0.9852 -0.0061
 2479TIP3    H228997   5.974   1.933   4.935  0.0859 -1.3209  0.1294
 2480TIP3   OH228998   5.334   0.269   4.048  0.1093  0.3160 -0.0066
 2480TIP3    H128999   5.409   0.238   4.099 -0.3422 -0.1149  0.4139
 2480TIP3    H229000   5.263   0.276   4.112  0.3310  2.8814  0.0544
 2481TIP3   OH229001   5.855   5.428   2.648  0.3745 -0.4116  0.2144
 2481TIP3    H129002   5.908   5.442   2.570  1.1021 -0.5329  0.6843
 2481TIP3    H229003   5.771   5.469   2.627  0.8559  0.3411 -0.2921
 2482TIP3   OH229004   4.116   6.678   2.697 -0.3702  0.1443 -0.3746
 2482TIP3    H129005   4.162   6.642   2.773 -1.2147 -0.9118 -0.3324
 2482TIP3    H229006   4.168   6.650   2.622 -0.2757  0.0034 -0.2581
 2483TIP3   OH229007   0.884   5.875   1.593  0.2925  0.2025  0.3986
 2483TIP3    H129008   0.905   5.823   1.515  0.7802  0.1327  0.5750
 2483TIP3    H229009   0.881   5.811   1.664  0.1273  0.3074  0.4873
 2484TIP3   OH229010   0.998   3.765   2.781 -0.1025 -0.2835 -0.1694
 2484TIP3    H129011   1.036   3.795   2.698 -0.3867  0.7157  0.0527
 2484TIP3    H229012   0.994   3.670   2.772 -1.6286 -0.1120 -1.9966
 2485TIP3   OH229013   2.120   1.833   1.205 -0.4746 -0.1775  0.5685
 2485TIP3    H129014   2.052   1.867   1.146 -0.7636 -0.5350  0.6901
 2485TIP3    H229015   2.142   1.906   1.262 -1.1159 -0.1993  0.8504
 2486TIP3   OH229016   5.995   0.104   4.235 -0.3316  0.6559 -0.0110
 2486TIP3    H129017   6.062   0.045   4.200 -0.4537  0.3370  0.2882
 2486TIP3    H229018   6.038   0.189   4.238  0.0103  0.4839  0.0289
 2487TIP3   OH229019   4.621   6.364   4.628  0.2390 -0.7260 -0.4848
 2487TIP3    H129020   4.658   6.316   4.554 -0.8023 -1.4220 -0.5776
 2487TIP3    H229021   4.528   6.372   4.607  0.1227  0.0048  0.2566
 2488TIP3   OH229022   4.249   6.748   1.410  0.2306 -0.6034 -0.5325
 2488TIP3    H129023   4.295   6.780   1.333 -0.9777  0.0421 -1.0204
 2488TIP3    H229024   4.200   6.823   1.442  1.0735 -0.7462  1.1586
 2489TIP3   OH229025   4.337   6.543   3.090 -0.4611  0.5725 -0.4797
 2489TIP3    H129026   4.258   6.562   3.040 -0.2235  2.1986 -0.2804
 2489TIP3    H229027   4.399   6.610   3.064  0.5081 -0.0554  0.1521
 2490TIP3   OH229028   2.949   2.099   2.523 -0.4202  0.3157 -0.1397
 2490TIP3    H129029   3.014   2.110   2.592 -0.1726  0.5377 -0.4051
 2490TIP3    H229030   2.865   2.107   2.568 -0.2775 -0.6572  0.3152
 2491TIP3   OH229031   0.720   1.646   1.070  0.1449  0.0008 -0.6947
 2491TIP3    H129032   0.740   1.717   1.009 -0.7560  0.6336 -0.2771
 2491TIP3    H229033   0.773   1.664   1.147  1.1769 -0.7201 -1.2218
 2492TIP3   OH229034   1.107   1.970   3.106 -0.1075 -0.4637  0.5315
 2492TIP3    H129035   1.176   2.034   3.088  0.5241 -1.2350  0.1609
 2492TIP3    H229036   1.146   1.910   3.169  0.3255 -2.1021 -1.2074
 2493TIP3   OH229037   6.152   2.408   0.331 -0.1727  0.2637  0.6389
 2493TIP3    H129038   6.151   2.367   0.245 -0.9481  1.7268 -0.0870
 2493TIP3    H229039   6.232   2.460   0.332 -0.0102  0.0119  0.9280
 2494TIP3   OH229040   2.337   3.331   0.921  0.1210  0.4063  0.2879
 2494TIP3    H129041   2.281   3.386   0.975 -0.9611  1.2708 -1.6315
 2494TIP3    H229042   2.279   3.294   0.854  1.6125  0.3865 -1.0539
 2495TIP3   OH229043   1.892   6.682   1.366  0.2091  0.5216  0.3896
 2495TIP3    H129044   1.901   6.674   1.271  0.1926  0.0312  0.4281
 2495TIP3    H229045   1.842   6.762   1.379 -1.6319 -0.5050 -0.1035
 2496TIP3   OH229046   1.255   3.853   2.878 -0.1379  0.0907  0.1243
 2496TIP3    H129047   1.206   3.931   2.855 -0.3371 -0.1522 -0.2944
 2496TIP3    H229048   1.195   3.802   2.933 -0.4427 -0.3121 -0.5757
 2497TIP3   OH229049   2.623   2.047   2.524 -0.1810 -0.0011 -0.4631
 2497TIP3    H129050   2.606   2.135   2.558  0.3996  0.2243 -0.7479
 2497TIP3    H229051   2.656   1.998   2.600 -0.5073  0.0224 -0.3046
 2498TIP3   OH229052   1.931   0.216   2.314 -0.0595 -0.1275  0.6008
 2498TIP3    H129053   1.873   0.292   2.308  0.5134  0.2330 -0.8408
 2498TIP3    H229054   1.878   0.143   2.284  0.3525  0.3118 -1.3771
 2499TIP3   OH229055   4.533   6.122   1.168  0.2449 -0.1944 -0.0506
 2499TIP3    H129056   4.599   6.054   1.154  0.2306 -0.4404  0.9807
 2499TIP3    H229057   4.474   6.085   1.234  0.6870  1.1130  1.1295
 2500TIP3   OH229058   0.027   3.289   3.067 -0.1457 -0.4332 -0.0052
 2500TIP3    H129059  -0.010   3.376   3.052  0.2976 -0.0439  0.9973
 2500TIP3    H229060   0.093   3.279   2.999  0.2872  0.3198  0.2914
 2501TIP3   OH229061   5.311   6.815   1.227 -0.2857  0.1346 -0.3388
 2501TIP3    H129062   5.359   6.765   1.293 -1.8903  0.3078  1.0258
 2501TIP3    H229063   5.234   6.762   1.208 -1.3492  1.4463  0.1682
 2502TIP3   OH229064   1.151   4.679   3.765  0.3914 -1.0858  0.1510
 2502TIP3    H129065   1.094   4.621   3.715 -1.9858 -0.0595  1.5068
 2502TIP3    H229066   1.177   4.627   3.841  0.3569 -1.2164  0.0743
 2503TIP3   OH229067   5.035   1.624   1.679 -0.5832 -0.1343 -0.2293
 2503TIP3    H129068   5.016   1.642   1.587  0.6007  0.2053 -0.4176
 2503TIP3    H229069   5.124   1.655   1.693 -0.5797 -0.5801  0.9274
 2504TIP3   OH229070   4.791   1.845   2.356 -0.1820  0.1147  0.4329
 2504TIP3    H129071   4.886   1.840   2.343 -0.2518 -1.0563  0.2164
 2504TIP3    H229072   4.762   1.916   2.299  0.4770 -0.0067 -0.0572
 2505TIP3   OH229073   0.142   1.470   3.413 -0.4638 -0.4336 -0.5100
 2505TIP3    H129074   0.169   1.398   3.470  0.5075 -1.9854 -2.7613
 2505TIP3    H229075   0.224   1.514   3.391 -0.8768  0.4274 -0.3427
 2506TIP3   OH229076   3.133   3.353   3.649  0.3077  0.1280 -0.3869
 2506TIP3    H129077   3.047   3.316   3.627  0.4751 -0.3414 -0.2527
 2506TIP3    H229078   3.195   3.284   3.628  0.5525  0.0077  0.6691
 2507TIP3   OH229079   1.161   2.094   2.398 -0.2125  1.0454  0.0829
 2507TIP3    H129080   1.170   2.050   2.482  0.9511  0.1365 -0.4944
 2507TIP3    H229081   1.232   2.159   2.398 -1.4525  2.4467  0.6159
 2508TIP3   OH229082   4.453   2.675   3.156  0.2935 -0.3203 -0.3276
 2508TIP3    H129083   4.460   2.763   3.119 -1.0383  0.2239  0.6298
 2508TIP3    H229084   4.399   2.627   3.093 -0.6447  0.1459  0.0971
 2509TIP3   OH229085   5.364   4.963   3.755 -0.5558  0.1410 -0.0960
 2509TIP3    H129086   5.305   4.941   3.827 -2.0681 -0.1910 -1.3796
 2509TIP3    H229087   5.320   5.035   3.710  0.0693 -0.0502 -1.0286
 2510TIP3   OH229088   5.499   4.895   4.088  0.1223  0.2099 -0.4337
 2510TIP3    H129089   5.413   4.929   4.065 -0.9315 -1.8062  0.3232
 2510TIP3    H229090   5.507   4.910   4.182  0.0181 -0.8205 -0.2574
 2511TIP3   OH229091   3.901   2.359   0.164  0.3601  0.1626  0.5609
 2511TIP3    H129092   3.808   2.375   0.147  0.2822  0.7148  1.4342
 2511TIP3    H229093   3.904   2.332   0.256  0.8645 -1.7727  0.0165
 2512TIP3   OH229094   1.343   2.834   3.560 -0.1907  0.7176  0.0860
 2512TIP3    H129095   1.308   2.916   3.525 -0.5694  1.1089  1.3289
 2512TIP3    H229096   1.429   2.857   3.594 -0.1675  0.5276  0.1577
 2513TIP3   OH229097   6.817   3.072   2.753  0.3523  0.1044  0.1809
 2513TIP3    H129098   6.819   2.985   2.715 -1.5481  1.2414 -2.8396
 2513TIP3    H229099   6.725   3.092   2.766  0.6811  1.9565  0.0363
 2514TIP3   OH229100   1.057   2.859   0.265  0.2682 -0.7885  0.0021
 2514TIP3    H129101   1.127   2.804   0.300  1.6636  0.3039 -0.9496
 2514TIP3    H229102   1.101   2.940   0.239 -2.1111  2.4598  4.6128
 2515TIP3   OH229103   1.188   1.447   2.737 -0.6596 -0.5264  0.2568
 2515TIP3    H129104   1.271   1.407   2.712 -1.1873 -1.1022 -0.6605
 2515TIP3    H229105   1.131   1.434   2.660 -1.8235 -0.8111  1.1366
 2516TIP3   OH229106   6.730   1.283   2.142  0.2792 -0.0270  0.0782
 2516TIP3    H129107   6.715   1.237   2.224  0.0401  0.5223  0.3484
 2516TIP3    H229108   6.720   1.216   2.074 -0.6417 -0.2537  0.4215
 2517TIP3   OH229109   4.928   6.894   2.649  0.2543 -0.4146  0.0557
 2517TIP3    H129110   4.843   6.894   2.606  0.1682 -1.8346  0.2084
 2517TIP3    H229111   4.970   6.813   2.622  1.2477 -0.1039  0.5965
 2518TIP3   OH229112   5.917   0.093   2.720  0.3306  0.0015 -0.2227
 2518TIP3    H129113   5.864   0.035   2.666 -0.6190  1.4123 -0.8342
 2518TIP3    H229114   5.869   0.175   2.723  1.9012  0.9579  0.1686
 2519TIP3   OH229115   4.501   0.218   4.536  0.3508  0.0633  1.1137
 2519TIP3    H129116   4.594   0.242   4.529  0.3474 -0.1178  0.3411
 2519TIP3    H229117   4.464   0.283   4.596  0.9768  0.1255  1.4487
 2520TIP3   OH229118   6.359   4.437   2.045 -0.7854 -0.8392 -0.3049
 2520TIP3    H129119   6.315   4.500   1.989 -1.7359 -2.2797 -1.2611
 2520TIP3    H229120   6.316   4.446   2.130 -0.7618 -0.0724 -0.3680
 2521TIP3   OH229121   2.983   4.938   2.589 -0.5405 -0.1951 -0.5540
 2521TIP3    H129122   2.958   4.985   2.510  0.8010  0.0518 -0.8522
 2521TIP3    H229123   3.032   5.002   2.641 -1.9048 -0.1677  0.7738
 2522TIP3   OH229124   4.032   5.793   0.746 -0.2756 -0.2144 -0.2504
 2522TIP3    H129125   4.120   5.817   0.717 -0.2194  0.7994  0.6774
 2522TIP3    H229126   3.974   5.834   0.683 -0.0878 -0.3062 -0.4826
 2523TIP3   OH229127   3.945   2.389   4.655 -0.0449 -0.4578  0.4391
 2523TIP3    H129128   4.038   2.377   4.671  0.2496 -0.9343 -1.4181
 2523TIP3    H229129   3.930   2.483   4.667  0.3450 -0.5826  2.1486
 2524TIP3   OH229130   5.653   5.291   0.483  0.5103  0.3899  0.4306
 2524TIP3    H129131   5.747   5.278   0.499  1.0656  1.2442 -1.6654
 2524TIP3    H229132   5.648   5.380   0.447 -0.9728  0.0024 -0.3781
 2525TIP3   OH229133   4.346   0.537   1.980 -0.8578  0.5605 -0.2308
 2525TIP3    H129134   4.265   0.585   1.998 -0.6767  0.7754  0.0060
 2525TIP3    H229135   4.319   0.445   1.979 -0.7673  0.4679  1.7586
 2526TIP3   OH229136   3.367   4.527   0.373  0.0284  0.2867  0.1790
 2526TIP3    H129137   3.362   4.603   0.431 -1.5087  1.1288 -0.9698
 2526TIP3    H229138   3.278   4.492   0.372  0.0846  0.1185 -1.4089
 2527TIP3   OH229139   2.250   1.663   3.645 -0.0719  0.2110  0.4463
 2527TIP3    H129140   2.247   1.690   3.737 -0.9885  1.5976  0.0302
 2527TIP3    H229141   2.256   1.567   3.649  0.1427  0.2570  1.9391
 2528TIP3   OH229142   4.151   2.320   3.882 -0.3710 -0.9493  0.0524
 2528TIP3    H129143   4.085   2.252   3.890 -1.8145  0.0818 -2.1682
 2528TIP3    H229144   4.102   2.402   3.880  0.8676 -0.1662 -2.0637
 2529TIP3   OH229145   3.312   5.008   4.518 -0.0804 -0.0162 -0.2738
 2529TIP3    H129146   3.248   4.937   4.511 -0.4907  0.4947 -2.5926
 2529TIP3    H229147   3.390   4.966   4.556 -0.1763 -1.8417 -1.9431
 2530TIP3   OH229148   4.587   0.363   0.469  0.0902  0.4674  0.1865
 2530TIP3    H129149   4.637   0.303   0.413  1.1718  0.3760  1.2265
 2530TIP3    H229150   4.497   0.331   0.463  0.4801 -0.6247 -0.0938
 2531TIP3   OH229151   3.763   5.206   2.619 -0.3630  0.1575 -0.1807
 2531TIP3    H129152   3.815   5.189   2.697  1.4037 -1.1995 -1.5516
 2531TIP3    H229153   3.785   5.297   2.595 -1.3191  0.7586  1.1387
 2532TIP3   OH229154   2.696   3.925   4.069  0.1391 -0.6829 -0.6211
 2532TIP3    H129155   2.605   3.897   4.082  0.1252 -0.2793  0.1924
 2532TIP3    H229156   2.712   3.989   4.138  0.9610 -0.5427 -0.9270
 2533TIP3   OH229157   3.799   4.547   1.887 -0.1762  0.0240 -0.0195
 2533TIP3    H129158   3.710   4.569   1.915  0.8054  1.3063  2.3899
 2533TIP3    H229159   3.835   4.495   1.959  1.3405  0.3170 -0.5304
 2534TIP3   OH229160   1.533   3.972   1.209 -0.0595  0.1824  0.1672
 2534TIP3    H129161   1.620   3.992   1.172  0.1867  0.1568  0.7189
 2534TIP3    H229162   1.487   4.056   1.206 -0.2672  0.0553 -0.7516
 2535TIP3   OH229163   6.532   5.461   2.215 -0.1754  0.0300 -0.5816
 2535TIP3    H129164   6.579   5.395   2.266 -1.6283 -0.5139  0.0824
 2535TIP3    H229165   6.588   5.539   2.220  0.2076 -0.3091  1.0143
 2536TIP3   OH229166   1.286   6.393   3.221  0.5640  0.2439 -0.0965
 2536TIP3    H129167   1.286   6.454   3.294 -0.1776  0.4720 -0.2757
 2536TIP3    H229168   1.269   6.307   3.261  0.8309  0.2657  0.0672
 2537TIP3   OH229169   5.139   0.899   1.745  0.5585  0.0850 -0.3616
 2537TIP3    H129170   5.179   0.877   1.828 -1.0634  0.9025  0.6930
 2537TIP3    H229171   5.172   0.986   1.724  0.8768 -0.0723 -0.5086
 2538TIP3   OH229172   1.890   2.497   0.209 -0.1852 -0.0201 -0.1515
 2538TIP3    H129173   1.917   2.425   0.266 -0.5432 -2.0294 -2.4034
 2538TIP3    H229174   1.829   2.548   0.263 -1.2873 -2.3928  0.9597
 2539TIP3   OH229175   3.031   0.889   4.076 -0.2642  0.2244  0.1823
 2539TIP3    H129176   2.999   0.805   4.042  0.9091  0.2787 -1.1712
 2539TIP3    H229177   3.106   0.866   4.130  0.8444  0.4455 -1.2087
 2540TIP3   OH229178   4.832   3.163   2.521 -0.1025 -0.8043 -0.3174
 2540TIP3    H129179   4.910   3.212   2.494 -1.0765  1.4061  0.6567
 2540TIP3    H229180   4.863   3.073   2.534  2.0830 -0.1651 -0.7669
 2541TIP3   OH229181   3.666   3.253   3.436 -0.8371  0.2120 -0.0520
 2541TIP3    H129182   3.723   3.330   3.434 -1.2934  0.5453 -0.2972
 2541TIP3    H229183   3.577   3.288   3.425 -1.3620 -0.0351  2.7010
 2542TIP3   OH229184   1.386   0.786   0.219 -0.4787  0.1264  0.5303
 2542TIP3    H129185   1.399   0.731   0.141 -3.6854 -1.0114  0.6618
 2542TIP3    H229186   1.342   0.864   0.185 -0.9186  0.1104  1.0661
 2543TIP3   OH229187   0.984   5.175   1.893 -0.1558  0.3372 -0.2967
 2543TIP3    H129188   0.994   5.215   1.980  0.8471  0.6917 -0.5616
 2543TIP3    H229189   0.962   5.249   1.836  0.9404  0.4129 -0.6499
 2544TIP3   OH229190   5.001   5.176   3.864  0.2315  0.1797  0.3761
 2544TIP3    H129191   4.945   5.102   3.837  0.3830 -0.0617  0.7158
 2544TIP3    H229192   5.067   5.182   3.796  0.9315 -0.7704  0.9416
 2545TIP3   OH229193   4.506   3.093   1.534 -0.1450  0.0948  0.0859
 2545TIP3    H129194   4.592   3.136   1.542 -0.1568  0.1578 -0.1143
 2545TIP3    H229195   4.511   3.020   1.595  0.7085 -0.9535 -1.1769
 2546TIP3   OH229196   0.684   0.490   4.713 -0.1794  0.2393 -0.3287
 2546TIP3    H129197   0.735   0.541   4.650 -0.2360  0.4924 -0.1727
 2546TIP3    H229198   0.745   0.425   4.747  0.0325  0.5243 -0.1608
 2547TIP3   OH229199   6.393   1.619   4.370 -0.3226 -0.2549  0.1870
 2547TIP3    H129200   6.310   1.581   4.344 -0.0427 -0.4317 -0.4625
 2547TIP3    H229201   6.420   1.673   4.295  1.5482 -2.4827 -0.8678
 2548TIP3   OH229202   5.675   2.920   0.959  0.2593 -0.2148  0.3889
 2548TIP3    H129203   5.715   2.930   1.046  1.6077 -0.7414 -0.1356
 2548TIP3    H229204   5.589   2.880   0.977  0.6457 -0.6151  1.4649
 2549TIP3   OH229205   6.748   6.055   1.719 -0.0971 -0.1071 -0.5706
 2549TIP3    H129206   6.683   6.121   1.744  0.0262 -0.2096  0.0311
 2549TIP3    H229207   6.703   6.000   1.655 -0.8033 -0.5396  0.2815
 2550TIP3   OH229208   0.504   3.210   3.343  0.2787 -0.0617  0.4497
 2550TIP3    H129209   0.500   3.115   3.357 -0.7097 -0.1695 -0.4217
 2550TIP3    H229210   0.564   3.219   3.268 -0.0302 -0.0452  0.2022
 2551TIP3   OH229211   1.556   2.671   0.959  0.5996  0.4904  0.9692
 2551TIP3    H129212   1.610   2.608   0.912 -1.3298 -1.1281  0.7535
 2551TIP3    H229213   1.524   2.732   0.893 -0.5449 -0.6193  0.4558
 2552TIP3   OH229214   1.851   5.755   2.364 -0.3762 -0.0756 -0.1411
 2552TIP3    H129215   1.827   5.669   2.399  2.3845 -0.5660  0.8216
 2552TIP3    H229216   1.857   5.741   2.269 -1.3910 -0.5346 -0.1498
 2553TIP3   OH229217   5.918   5.217   1.678  0.1040 -0.0254  0.6530
 2553TIP3    H129218   6.011   5.204   1.660 -0.1058  1.5161 -1.9121
 2553TIP3    H229219   5.877   5.134   1.652  0.5506  0.0303 -0.2758
 2554TIP3   OH229220   2.120   6.899   2.800 -0.2226 -0.7643  0.5106
 2554TIP3    H129221   2.200   6.948   2.777 -0.1214 -0.5111  1.3395
 2554TIP3    H229222   2.150   6.835   2.865 -0.4484 -1.6135 -0.2162
 2555TIP3   OH229223   0.819   3.333   4.302  0.0875 -0.0573  0.0212
 2555TIP3    H129224   0.865   3.410   4.270 -0.3377 -0.2703 -1.1648
 2555TIP3    H229225   0.759   3.366   4.369  0.5406  0.5068  0.1506
 2556TIP3   OH229226   3.605   4.728   3.768  0.0173  0.6976 -0.0337
 2556TIP3    H129227   3.558   4.811   3.761 -3.0212 -0.9912 -1.9081
 2556TIP3    H229228   3.582   4.696   3.855 -0.4243  0.9452 -0.0536
 2557TIP3   OH229229   6.282   4.945   3.452 -0.3424 -0.0588 -0.1132
 2557TIP3    H129230   6.310   4.938   3.361  0.3293  0.5623  0.0357
 2557TIP3    H229231   6.196   4.902   3.455  0.6494 -2.1585 -0.5496
 2558TIP3   OH229232   2.318   5.133   2.294  0.1462 -0.0977  0.7307
 2558TIP3    H129233   2.345   5.135   2.203  0.1832 -1.0478  0.7142
 2558TIP3    H229234   2.400   5.139   2.344  0.1814 -0.2707  0.6944
 2559TIP3   OH229235   0.967   2.461   1.414 -0.3450  0.2726 -0.0042
 2559TIP3    H129236   0.950   2.545   1.371 -0.2776 -0.5194 -1.6783
 2559TIP3    H229237   1.059   2.466   1.441 -0.2893  0.6670 -0.2593
 2560TIP3   OH229238   1.786   2.198   4.573  0.3447 -0.0741  0.1178
 2560TIP3    H129239   1.772   2.280   4.620 -0.8140 -0.3332  0.2699
 2560TIP3    H229240   1.707   2.188   4.519  0.2645 -1.3093  0.4409
 2561TIP3   OH229241   4.069   5.245   0.412  0.3471 -0.1092 -0.2951
 2561TIP3    H129242   4.117   5.171   0.448  0.9292  0.8016  0.8758
 2561TIP3    H229243   4.105   5.322   0.458  0.0778  0.9496 -1.7704
 2562TIP3   OH229244   3.180   6.518   0.974 -0.2860  0.6573 -0.0562
 2562TIP3    H129245   3.085   6.518   0.978 -0.2520  0.0713  1.4880
 2562TIP3    H229246   3.205   6.427   0.986  0.4616  0.4887 -2.3488
 2563TIP3   OH229247   1.866   6.185   2.255  0.3166  0.2060 -0.5131
 2563TIP3    H129248   1.832   6.261   2.208 -1.4132 -0.1762  0.0174
 2563TIP3    H229249   1.881   6.119   2.188 -1.1396  0.0139 -0.6902
 2564TIP3   OH229250   5.334   3.504   4.040 -0.1042  0.2245  0.2663
 2564TIP3    H129251   5.411   3.524   3.987 -1.2311 -0.7568 -1.8237
 2564TIP3    H229252   5.268   3.476   3.978 -1.1400 -2.2069  2.2930
 2565TIP3   OH229253   5.487   3.375   1.595  0.5193  0.2290 -0.5641
 2565TIP3    H129254   5.417   3.365   1.659  0.1249  1.5784 -0.7362
 2565TIP3    H229255   5.455   3.330   1.517 -0.8982  2.0844 -1.1421
 2566TIP3   OH229256   3.788   3.235   2.771 -0.0488  0.7793 -0.1706
 2566TIP3    H129257   3.827   3.153   2.740  0.7253  1.1482 -0.1887
 2566TIP3    H229258   3.756   3.214   2.859 -3.4082 -0.6463 -1.5590
 2567TIP3   OH229259   4.523   1.716   0.887  0.0656 -0.1135  0.2043
 2567TIP3    H129260   4.594   1.655   0.908 -0.0098 -0.0941  0.5161
 2567TIP3    H229261   4.527   1.725   0.792  0.4011 -0.2118  0.2068
 2568TIP3   OH229262   3.036   1.541   1.718  0.1613  0.0048 -0.0612
 2568TIP3    H129263   2.974   1.471   1.696 -0.4533  0.5454 -0.0900
 2568TIP3    H229264   2.983   1.621   1.714  0.8641  0.4719 -0.0646
 2569TIP3   OH229265   2.659   4.770   0.810 -0.8354  0.0649  0.3022
 2569TIP3    H129266   2.726   4.822   0.854 -0.1968 -0.8114  0.3932
 2569TIP3    H229267   2.706   4.694   0.776 -1.3595  0.5683 -1.6686
 2570TIP3   OH229268   2.079   3.117   1.837 -0.0227 -0.0903  0.1225
 2570TIP3    H129269   2.056   3.024   1.828 -2.0267  0.3221  0.3623
 2570TIP3    H229270   2.170   3.117   1.864  0.3495 -1.9509 -0.9552
 2571TIP3   OH229271   2.095   5.817   4.064  0.2582  0.1285 -0.0713
 2571TIP3    H129272   2.081   5.880   4.135  0.0079  0.0463 -0.0475
 2571TIP3    H229273   2.118   5.735   4.108 -0.8096 -0.1688 -0.0420
 2572TIP3   OH229274   4.847   0.656   3.762 -0.3401  0.2632 -0.1434
 2572TIP3    H129275   4.902   0.633   3.687 -1.3638 -1.0155 -0.5487
 2572TIP3    H229276   4.892   0.618   3.837  0.6355  1.4542 -0.0883
 2573TIP3   OH229277   3.240   5.141   1.832 -0.0021 -0.2607 -0.4004
 2573TIP3    H129278   3.177   5.068   1.834 -0.5422  0.1006 -2.1269
 2573TIP3    H229279   3.321   5.102   1.802  0.1015 -0.3932  0.0425
 2574TIP3   OH229280   3.072   2.313   2.370 -0.3953 -0.0716 -0.3673
 2574TIP3    H129281   3.000   2.265   2.412  0.1993  0.3619  1.1941
 2574TIP3    H229282   3.112   2.364   2.440  0.5771  0.7820 -1.4894
 2575TIP3   OH229283   2.255   1.721   0.726 -0.0810  0.1068  0.9255
 2575TIP3    H129284   2.311   1.698   0.800 -1.2358  0.5068  1.9639
 2575TIP3    H229285   2.198   1.645   0.714  0.9591 -0.5021 -0.4434
 2576TIP3   OH229286   2.047   4.099   0.093  0.1591 -0.3229  0.9080
 2576TIP3    H129287   2.014   4.010   0.102 -0.2199 -0.1101  1.6758
 2576TIP3    H229288   1.970   4.152   0.070  0.5257 -0.3160 -0.3625
 2577TIP3   OH229289   3.885   5.292   0.200 -0.3484  0.3222  0.0958
 2577TIP3    H129290   3.863   5.204   0.170  2.1620  0.5784 -2.9890
 2577TIP3    H229291   3.960   5.280   0.258  0.7453  0.4529 -1.2550
 2578TIP3   OH229292   4.412   4.292   1.060 -0.8888  0.0906  0.0990
 2578TIP3    H129293   4.497   4.336   1.064 -0.5829 -0.4268 -0.4912
 2578TIP3    H229294   4.433   4.199   1.068 -1.2163 -0.1838 -1.7708
 2579TIP3   OH229295   3.366   6.589   3.336 -0.0558 -0.2691 -0.3592
 2579TIP3    H129296   3.457   6.562   3.328  0.3226  0.6315  0.6146
 2579TIP3    H229297   3.361   6.671   3.287 -0.2134 -0.0498  0.0191
 2580TIP3   OH229298   6.896   1.094   1.739 -0.3687 -0.0759 -0.2072
 2580TIP3    H129299   6.861   1.179   1.710  1.1347  1.3355  1.8438
 2580TIP3    H229300   6.849   1.030   1.686 -0.3408  2.0787 -3.1210
 2581TIP3   OH229301   3.864   5.885   4.696 -0.6756 -0.6240  0.7494
 2581TIP3    H129302   3.890   5.874   4.604  1.0006 -0.8910  1.2276
 2581TIP3    H229303   3.846   5.795   4.726  2.1017 -1.0169  1.5616
 2582TIP3   OH229304   5.252   2.564   0.863 -0.8651 -0.1021  0.1618
 2582TIP3    H129305   5.219   2.644   0.821 -0.6496  0.3260  0.7822
 2582TIP3    H229306   5.243   2.496   0.797  2.1223  1.0875 -1.6538
 2583TIP3   OH229307   4.443   1.631   1.256 -0.4544  0.0481  0.0002
 2583TIP3    H129308   4.413   1.619   1.166 -0.1202  1.2961 -0.2924
 2583TIP3    H229309   4.538   1.642   1.249 -0.7231  3.7704  0.0223
 2584TIP3   OH229310   0.993   1.271   1.200 -0.4570 -0.1249  0.5428
 2584TIP3    H129311   1.060   1.221   1.153 -0.0295  0.4749  0.5030
 2584TIP3    H229312   0.965   1.338   1.137 -2.0864 -1.2008  0.0566
 2585TIP3   OH229313   2.607   5.436   4.236  0.5029 -0.2871  0.4097
 2585TIP3    H129314   2.567   5.470   4.316  0.3143  1.1440 -0.2616
 2585TIP3    H229315   2.583   5.343   4.234 -2.0964  0.3106  0.4684
 2586TIP3   OH229316   0.637   4.786   2.758  0.1523  0.0127  0.1163
 2586TIP3    H129317   0.682   4.724   2.701 -1.4397 -1.5487  0.4814
 2586TIP3    H229318   0.546   4.757   2.759 -0.8540  2.8320 -0.2873
 2587TIP3   OH229319   5.259   1.671   4.510 -0.1559  0.7250 -0.2987
 2587TIP3    H129320   5.313   1.662   4.431  0.6919  0.3014  0.3086
 2587TIP3    H229321   5.305   1.737   4.563 -0.1332  0.2225  0.3113
 2588TIP3   OH229322   1.085   4.170   0.790 -0.1055  0.1452  0.0704
 2588TIP3    H129323   1.008   4.226   0.791  0.1025  0.4387  0.8788
 2588TIP3    H229324   1.058   4.090   0.835 -0.5625 -0.6519 -1.5631
 2589TIP3   OH229325   4.758   0.907   0.310  0.2356 -0.4932  0.7725
 2589TIP3    H129326   4.677   0.936   0.268 -0.1585  0.2205  1.9767
 2589TIP3    H229327   4.814   0.879   0.237  0.2860  2.3606 -0.3950
 2590TIP3   OH229328   0.902   4.766   2.116 -0.0562 -0.0183 -0.5012
 2590TIP3    H129329   0.986   4.768   2.071 -0.0951  1.5179 -0.5643
 2590TIP3    H229330   0.877   4.674   2.116  1.4953 -0.4725 -0.7058
 2591TIP3   OH229331   6.696   0.679   2.295  0.1236  0.6416  0.0565
 2591TIP3    H129332   6.772   0.621   2.292  0.9591  1.5314  2.3528
 2591TIP3    H229333   6.722   0.755   2.244 -0.0666  0.0635 -0.9344
 2592TIP3   OH229334   5.979   1.699   4.128 -0.3872 -0.1599  0.1767
 2592TIP3    H129335   6.058   1.754   4.122 -0.0689 -0.4294  1.5108
 2592TIP3    H229336   5.908   1.755   4.098  0.1353  0.5067  0.1638
 2593TIP3   OH229337   4.340   3.573   1.029 -0.1742 -0.3511 -0.0249
 2593TIP3    H129338   4.328   3.609   1.117  0.8905 -1.6276  0.6584
 2593TIP3    H229339   4.291   3.491   1.030 -0.6550 -0.0824 -0.8335
 2594TIP3   OH229340   6.228   2.124   2.476  0.0407 -0.4775 -0.4161
 2594TIP3    H129341   6.244   2.146   2.568  0.9805 -0.9634 -0.4510
 2594TIP3    H229342   6.142   2.081   2.477  0.0413 -0.4848  0.2347
 2595TIP3   OH229343   6.859   4.088   2.024  0.6819 -0.3468 -0.4231
 2595TIP3    H129344   6.884   4.169   2.070  1.3428 -0.4696 -0.5464
 2595TIP3    H229345   6.920   4.084   1.950 -2.0271  1.2436 -2.9413
 2596TIP3   OH229346   1.529   6.153   2.508 -0.0043  0.3838  0.3609
 2596TIP3    H129347   1.517   6.109   2.423  2.3947  0.3008 -0.0203
 2596TIP3    H229348   1.462   6.221   2.509 -0.5311 -0.0441 -1.3116
 2597TIP3   OH229349   3.328   1.427   1.088  0.6598  0.2235 -0.2740
 2597TIP3    H129350   3.234   1.412   1.085  0.5132  1.2202 -2.3255
 2597TIP3    H229351   3.361   1.363   1.151 -1.3938 -0.0175  0.6135
 2598TIP3   OH229352   4.797   5.494   0.822  0.3027 -0.0059 -0.3414
 2598TIP3    H129353   4.726   5.519   0.763 -0.1950  0.2445  0.3507
 2598TIP3    H229354   4.877   5.521   0.776 -0.0597  0.0393 -0.9646
 2599TIP3   OH229355   2.826   3.320   0.775  0.2160 -0.4984  0.2127
 2599TIP3    H129356   2.803   3.240   0.824  0.6153 -0.3539  0.6364
 2599TIP3    H229357   2.773   3.314   0.695 -2.1887  0.3533  1.6269
 2600TIP3   OH229358   1.824   2.818   2.401  0.1585 -0.9946 -0.0574
 2600TIP3    H129359   1.732   2.810   2.428 -0.9892 -1.3426 -3.5225
 2600TIP3    H229360   1.826   2.896   2.346  1.4662 -2.0809 -1.6310
 2601TIP3   OH229361   1.039   6.619   1.579  0.1198  0.2331 -0.4684
 2601TIP3    H129362   1.000   6.690   1.629  2.8063  2.0743 -0.7598
 2601TIP3    H229363   1.014   6.636   1.489 -1.0975 -0.5490 -0.2982
 2602TIP3   OH229364   5.197   1.420   3.463 -0.8805 -0.1320  0.1223
 2602TIP3    H129365   5.275   1.406   3.516 -0.2317 -1.4299 -1.1079
 2602TIP3    H229366   5.169   1.331   3.437  0.5473  0.4067 -4.0619
 2603TIP3   OH229367   6.896   5.578   4.874 -0.3869  0.0715 -0.1887
 2603TIP3    H129368   6.850   5.533   4.945 -1.7941  2.4407  0.5101
 2603TIP3    H229369   6.827   5.609   4.816  0.7237 -1.5294 -2.5056
 2604TIP3   OH229370   6.252   5.208   3.358  0.1206 -0.2052  0.9376
 2604TIP3    H129371   6.224   5.131   3.407  0.1765 -1.8695 -1.4482
 2604TIP3    H229372   6.347   5.206   3.363  0.1727 -0.9467  0.0464
 2605TIP3   OH229373   6.820   0.239   2.090  0.5229 -0.4892 -0.4175
 2605TIP3    H129374   6.828   0.323   2.135 -2.9341 -0.8505  1.2437
 2605TIP3    H229375   6.788   0.262   2.002  0.0052 -0.0015 -0.1123
 2606TIP3   OH229376   6.829   6.161   3.878 -0.1537 -0.5087  0.0000
 2606TIP3    H129377   6.756   6.201   3.926 -0.4908 -0.0164 -0.9006
 2606TIP3    H229378   6.800   6.070   3.863 -1.3252  0.0959 -1.7471
 2607TIP3   OH229379   3.894   1.634   0.083  0.2493 -0.2103  0.0781
 2607TIP3    H129380   3.971   1.615   0.029 -0.3743 -1.2401 -0.4566
 2607TIP3    H229381   3.923   1.615   0.173  1.0296  0.7300  0.0529
 2608TIP3   OH229382   5.866   1.936   1.772 -0.0615  0.2886 -0.2853
 2608TIP3    H129383   5.848   2.015   1.824 -1.1001 -0.2909  0.2868
 2608TIP3    H229384   5.783   1.918   1.727  0.4880  0.1236 -1.2509
 2609TIP3   OH229385   4.749   0.181   3.453 -0.3227 -0.1214 -0.6034
 2609TIP3    H129386   4.772   0.089   3.441  1.1155  0.3861 -1.9461
 2609TIP3    H229387   4.661   0.188   3.415 -1.5707 -1.4138  1.7799
 2610TIP3   OH229388   5.516   3.734   2.820 -0.3178  0.3920  0.5339
 2610TIP3    H129389   5.509   3.799   2.750 -2.0751  0.4185  0.6953
 2610TIP3    H229390   5.432   3.738   2.865  0.3886 -0.3840  1.9962
 2611TIP3   OH229391   2.368   2.963   2.746 -0.4558 -0.0119 -0.1313
 2611TIP3    H129392   2.463   2.952   2.748 -0.1342  2.3274  0.9778
 2611TIP3    H229393   2.337   2.916   2.824 -0.3621 -1.5097 -0.9530
 2612TIP3   OH229394   2.011   4.489   1.226  0.2100 -0.4813  0.5148
 2612TIP3    H129395   2.091   4.514   1.179 -0.9203 -1.0961 -1.8450
 2612TIP3    H229396   2.027   4.400   1.255  0.5923 -0.3971  0.5712
 2613TIP3   OH229397   3.598   5.263   1.773 -0.3889 -0.1926  0.1593
 2613TIP3    H129398   3.684   5.280   1.812 -0.6123  0.7659  0.2794
 2613TIP3    H229399   3.546   5.340   1.798 -0.8412 -0.0560 -1.1623
 2614TIP3   OH229400   1.883   0.865   1.905  0.2728 -0.1648  0.3506
 2614TIP3    H129401   1.806   0.854   1.961  1.2446 -0.5177  1.6748
 2614TIP3    H229402   1.947   0.911   1.960  0.6203  1.1675 -1.1018
 2615TIP3   OH229403   2.479   1.227   2.336  0.4200  0.0670  0.4767
 2615TIP3    H129404   2.395   1.272   2.342  0.3370 -0.1072  0.6417
 2615TIP3    H229405   2.524   1.249   2.417  0.1826 -0.5343  0.7789
 2616TIP3   OH229406   5.762   1.118   1.256 -0.2713  0.0924  0.6345
 2616TIP3    H129407   5.683   1.066   1.250 -0.9957  1.0617  1.4296
 2616TIP3    H229408   5.776   1.151   1.167 -0.9301  0.1547  0.5495
 2617TIP3   OH229409   4.543   0.217   0.832  0.1627  0.2881 -0.0326
 2617TIP3    H129410   4.466   0.267   0.804  0.4515  0.0733 -1.2415
 2617TIP3    H229411   4.581   0.270   0.903  0.6186  1.9815 -1.4573
 2618TIP3   OH229412   3.647   6.437   2.882  0.6775  0.3631 -0.2903
 2618TIP3    H129413   3.624   6.352   2.843  0.8715  1.0965 -2.0562
 2618TIP3    H229414   3.708   6.415   2.953 -1.0574 -1.1485  0.8331
 2619TIP3   OH229415   1.698   3.534   2.601  0.0716  0.2053  0.5622
 2619TIP3    H129416   1.672   3.626   2.607  2.0467  0.8164  0.3930
 2619TIP3    H229417   1.721   3.510   2.691 -1.1610 -0.3745  0.7384
 2620TIP3   OH229418   3.134   2.755   2.851 -0.1065  0.3463  0.1976
 2620TIP3    H129419   3.075   2.771   2.777  1.4154  0.6801 -0.9690
 2620TIP3    H229420   3.213   2.718   2.812  0.3152 -0.5076  1.7836
 2621TIP3   OH229421   6.374   6.044   4.412 -0.0826  0.0978 -0.8169
 2621TIP3    H129422   6.326   5.961   4.414 -0.0983  0.0883  1.5896
 2621TIP3    H229423   6.462   6.021   4.443  0.1457  0.8621 -0.8817
 2622TIP3   OH229424   0.161   6.511   8.550  0.6960  0.3054  0.5085
 2622TIP3    H129425   0.090   6.561   8.592 -0.3026 -1.1039  0.5691
 2622TIP3    H229426   0.154   6.535   8.457  0.9882  1.1603  0.6987
 2623TIP3   OH229427   5.628   2.576   2.853  0.0062 -0.2026  0.2642
 2623TIP3    H129428   5.648   2.640   2.921 -0.5381 -0.8371  1.0471
 2623TIP3    H229429   5.538   2.596   2.826  0.0215 -0.3047  0.1351
 2624TIP3   OH229430   2.916   6.389   0.352  0.1836  0.0883 -0.2940
 2624TIP3    H129431   2.822   6.370   0.352  0.4908 -1.6268  0.8539
 2624TIP3    H229432   2.939   6.399   0.259 -1.0483  0.1127 -0.6111
 2625TIP3   OH229433   2.655   5.455   1.011 -0.3056  0.3967 -0.1433
 2625TIP3    H129434   2.748   5.469   0.994 -0.3293 -0.5858 -1.2142
 2625TIP3    H229435   2.613   5.470   0.926 -0.6592 -2.8476 -0.6899
 2626TIP3   OH229436   4.648   6.736   3.786 -0.1563 -0.2546  0.0133
 2626TIP3    H129437   4.705   6.683   3.731 -1.2612 -0.5176 -0.9293
 2626TIP3    H229438   4.675   6.716   3.876  0.5799 -1.0919 -0.3839
 2627TIP3   OH229439   6.443   2.809   3.685  0.1492 -0.1179 -0.1675
 2627TIP3    H129440   6.419   2.897   3.716 -0.5236  0.2438 -1.6231
 2627TIP3    H229441   6.525   2.789   3.731 -0.9324  0.2136  2.0672
 2628TIP3   OH229442   1.863   4.042   2.479  0.0759 -0.1253  0.4977
 2628TIP3    H129443   1.918   4.080   2.547  1.8144 -0.4649 -0.6316
 2628TIP3    H229444   1.885   4.092   2.400  0.6725 -1.8805 -0.5119
 2629TIP3   OH229445   1.582   0.346   2.973  0.6939 -0.5069  0.7244
 2629TIP3    H129446   1.500   0.372   2.930 -0.2341 -1.9592  1.5289
 2629TIP3    H229447   1.629   0.429   2.987 -0.1095  0.2384 -0.7760
 2630TIP3   OH229448   2.637   0.221   2.712 -0.0296  0.3565  0.2737
 2630TIP3    H129449   2.698   0.212   2.786  1.1973 -1.0403 -0.8457
 2630TIP3    H229450   2.685   0.185   2.637 -1.5150  1.0608 -1.0685
 2631TIP3   OH229451   0.855   3.428   0.388 -0.1199 -0.3296 -0.4417
 2631TIP3    H129452   0.785   3.392   0.333 -0.6031  0.1450 -0.1571
 2631TIP3    H229453   0.834   3.521   0.394 -1.1674 -0.6332  2.0372
 2632TIP3   OH229454   5.295   1.548   1.441 -0.2104  0.0548 -0.3003
 2632TIP3    H129455   5.356   1.599   1.389 -0.2517  1.8448  1.3062
 2632TIP3    H229456   5.212   1.595   1.434 -0.8124 -0.9950 -0.4872
 2633TIP3   OH229457   2.441   0.528   3.502 -0.0008  0.0116 -0.3151
 2633TIP3    H129458   2.513   0.591   3.511 -1.1650  1.5366 -1.1962
 2633TIP3    H229459   2.364   0.583   3.488 -0.7107 -1.6432 -3.6563
 2634TIP3   OH229460   6.704   0.018   3.357 -0.2901  0.0047 -0.3477
 2634TIP3    H129461   6.782   0.009   3.302 -0.5476  0.9145 -0.8685
 2634TIP3    H229462   6.633   0.038   3.296 -1.0141 -1.1413  0.0815
 2635TIP3   OH229463   0.002   5.502   0.620 -0.9403 -0.0070  0.0069
 2635TIP3    H129464   0.038   5.582   0.657  1.3523 -0.9530 -0.0157
 2635TIP3    H229465   0.049   5.490   0.537 -1.3691 -1.2935 -0.0710
 2636TIP3   OH229466   4.856   3.018   1.184 -0.4573 -0.0737  0.7968
 2636TIP3    H129467   4.924   3.083   1.203  0.3569 -0.1910 -1.4043
 2636TIP3    H229468   4.904   2.947   1.140 -1.4098 -1.9450  2.6049
 2637TIP3   OH229469   1.813   4.246   4.099 -0.1273  0.0811 -0.6824
 2637TIP3    H129470   1.847   4.306   4.165  0.9740 -1.7389  0.5149
 2637TIP3    H229471   1.857   4.271   4.018  1.6116 -0.1143  0.1472
 2638TIP3   OH229472   1.781   2.798   2.016 -0.3656  0.0155  0.3573
 2638TIP3    H129473   1.709   2.735   2.017 -0.8008  0.5041  0.3536
 2638TIP3    H229474   1.810   2.799   1.925  1.0809 -1.7659  0.7416
 2639TIP3   OH229475   4.567   3.757   2.933  0.2288  0.4097 -0.0196
 2639TIP3    H129476   4.489   3.726   2.887 -0.6859  2.7594 -0.2002
 2639TIP3    H229477   4.558   3.723   3.022  0.2862 -1.3471 -0.6460
 2640TIP3   OH229478   1.052   6.234   0.169  0.1745  0.3385  0.5103
 2640TIP3    H129479   1.138   6.272   0.183  0.4487  0.0930 -0.4440
 2640TIP3    H229480   0.991   6.308   0.173  0.4997  0.6061  0.5106
 2641TIP3   OH229481   1.395   6.065   1.638  0.3767 -0.0200  0.3155
 2641TIP3    H129482   1.447   6.038   1.713 -2.2183  0.0298  2.2904
 2641TIP3    H229483   1.456   6.112   1.581  2.7990 -1.4813  1.5628
 2642TIP3   OH229484   5.662   4.284   2.281  0.6011 -0.0802 -0.0054
 2642TIP3    H129485   5.663   4.362   2.337 -2.6268  0.9699 -1.1413
 2642TIP3    H229486   5.598   4.226   2.323  1.3377 -1.1866 -0.3687
 2643TIP3   OH229487   3.028   5.336   2.741 -0.0501 -0.4780 -0.3718
 2643TIP3    H129488   3.059   5.351   2.831 -0.9150  1.3186 -0.3277
 2643TIP3    H229489   3.096   5.282   2.701  1.3100  0.2905  0.8052
 2644TIP3   OH229490   2.281   0.257   3.364 -0.2214  0.2714  0.1905
 2644TIP3    H129491   2.334   0.325   3.405  0.7171 -0.8795  0.9083
 2644TIP3    H229492   2.281   0.281   3.271  1.2576  0.4939  0.2226
 2645TIP3   OH229493   2.211   1.902   4.489 -0.1245  0.5364 -0.0319
 2645TIP3    H129494   2.249   1.910   4.402  0.7385  0.8430  0.3619
 2645TIP3    H229495   2.145   1.972   4.493  0.1455  0.8069 -0.2809
 2646TIP3   OH229496   1.255   0.959   2.296  0.2374  0.1772 -0.3526
 2646TIP3    H129497   1.281   1.042   2.337  2.4690  0.0046 -1.2849
 2646TIP3    H229498   1.246   0.898   2.369 -1.1507  1.1294  0.3195
 2647TIP3   OH229499   4.791   6.420   1.139 -0.0157  0.3419 -0.3136
 2647TIP3    H129500   4.806   6.364   1.063  0.0718  2.7217 -2.1798
 2647TIP3    H229501   4.697   6.438   1.136  0.1101  1.0309 -0.3392
 2648TIP3   OH229502   1.247   5.402   0.072  0.6106 -0.2990 -0.3689
 2648TIP3    H129503   1.268   5.491   0.043  0.1677  0.4818  1.5889
 2648TIP3    H229504   1.183   5.371   0.008 -0.1291  1.2358 -0.4042
 2649TIP3   OH229505   1.587   2.180   4.391  0.5496  0.0485  0.7009
 2649TIP3    H129506   1.494   2.166   4.403  0.3568 -1.1636 -1.6349
 2649TIP3    H229507   1.595   2.274   4.374 -0.2286  0.1550  0.9018
 2650TIP3   OH229508   5.445   2.511   5.075 -0.1627 -0.0686 -0.1727
 2650TIP3    H129509   5.406   2.424   5.088  1.1868 -0.4471  1.8783
 2650TIP3    H229510   5.536   2.500   5.102  0.1291  1.9113 -0.2138
 2651TIP3   OH229511   1.899   1.810   1.043 -0.4893 -0.2571  0.3126
 2651TIP3    H129512   1.903   1.848   0.955  2.4885  1.3822  1.0161
 2651TIP3    H229513   1.829   1.859   1.087 -1.0415 -0.1076 -0.6958
 2652TIP3   OH229514   6.535   4.662   1.136  0.0589  0.0398  0.6190
 2652TIP3    H129515   6.520   4.618   1.220 -0.6469 -1.1020 -0.0874
 2652TIP3    H229516   6.474   4.736   1.137 -0.5201 -0.4330  0.7745
 2653TIP3   OH229517   0.511   3.069   1.551  0.5156  0.2515  0.0408
 2653TIP3    H129518   0.446   3.023   1.604 -0.0592 -1.7724 -2.2024
 2653TIP3    H229519   0.594   3.028   1.573  0.1883 -1.0500 -0.9922
 2654TIP3   OH229520   1.026   4.529   3.097  0.2702  0.3376 -0.6401
 2654TIP3    H129521   1.032   4.568   3.184  0.7402 -3.4552  1.2676
 2654TIP3    H229522   0.942   4.560   3.063 -0.6421  0.8432  1.8107
 2655TIP3   OH229523   4.328   1.985   1.570 -0.0989 -0.6842  0.1448
 2655TIP3    H129524   4.372   1.901   1.582 -0.8358 -1.2047 -0.6950
 2655TIP3    H229525   4.263   1.969   1.502 -0.5432  0.4619  0.2714
 2656TIP3   OH229526   0.086   5.759   3.949  0.1987  0.3037 -0.0423
 2656TIP3    H129527   0.039   5.821   4.006  1.0560  1.7458 -0.8494
 2656TIP3    H229528   0.147   5.715   4.008 -0.0615  0.5847  0.4503
 2657TIP3   OH229529   4.887   3.920   0.502 -0.2368  0.4992  0.9451
 2657TIP3    H129530   4.952   3.899   0.434 -0.5269 -1.1781  1.1548
 2657TIP3    H229531   4.937   3.971   0.567  0.0550  2.0893 -0.4459
 2658TIP3   OH229532   2.685   2.948   3.764 -0.3274 -0.6821  0.4171
 2658TIP3    H129533   2.681   3.009   3.690  1.2088  0.8540  1.5305
 2658TIP3    H229534   2.593   2.926   3.782 -0.8094 -0.0221 -1.0613
 2659TIP3   OH229535   5.070   0.431   2.557 -0.4665  0.0443  0.2107
 2659TIP3    H129536   5.117   0.427   2.474 -1.0973  1.1720 -0.2346
 2659TIP3    H229537   5.134   0.466   2.619  0.9118 -3.4162  0.9701
 2660TIP3   OH229538   5.410   0.665   2.277 -0.1008 -0.1836  0.0730
 2660TIP3    H129539   5.451   0.621   2.352 -0.6717 -1.0561 -0.1091
 2660TIP3    H229540   5.464   0.639   2.202  0.3067  0.4646  0.1334
 2661TIP3   OH229541   4.854   1.412   3.136  0.2770  0.0456  0.3823
 2661TIP3    H129542   4.943   1.442   3.153 -0.0673  0.6360  1.1900
 2661TIP3    H229543   4.861   1.360   3.056  1.7600 -1.8114  1.6284
 2662TIP3   OH229544   0.094   5.568   2.725 -0.1345 -0.3564 -0.1115
 2662TIP3    H129545   0.177   5.587   2.681  1.2445 -1.9640  1.5933
 2662TIP3    H229546   0.081   5.642   2.784  0.5399 -0.4718  0.1912
 2663TIP3   OH229547   4.081   5.148   4.470  0.0172 -0.2683 -1.0436
 2663TIP3    H129548   4.079   5.057   4.441  0.6237  0.0033 -2.0097
 2663TIP3    H229549   3.990   5.176   4.468 -0.7398 -1.8927  2.9107
 2664TIP3   OH229550   2.425   6.067   0.553 -0.1312 -0.1733  0.5854
 2664TIP3    H129551   2.419   6.001   0.484  0.6950  0.3555 -0.0174
 2664TIP3    H229552   2.373   6.140   0.520  3.8489  1.9309 -1.7339
 2665TIP3   OH229553   0.954   4.893   0.646 -0.0673  0.5597 -0.8294
 2665TIP3    H129554   0.986   4.867   0.560 -1.1897 -1.9114 -0.5855
 2665TIP3    H229555   0.925   4.984   0.635  2.1802  1.1617 -2.3270
 2666TIP3   OH229556   6.870   4.658   3.725  0.0841 -0.3175  0.0873
 2666TIP3    H129557   6.832   4.572   3.742  0.0221  0.1722  2.8855
 2666TIP3    H229558   6.797   4.711   3.693 -0.5656 -0.5449  1.1725
 2667TIP3   OH229559   4.680   1.711   2.888  0.2784  0.0972 -0.4338
 2667TIP3    H129560   4.684   1.673   2.975  0.6988 -0.7740 -0.8293
 2667TIP3    H229561   4.683   1.806   2.903  1.8498 -0.0590  0.4239
 2668TIP3   OH229562   1.207   3.215   3.213 -0.0087 -1.0509  0.1930
 2668TIP3    H129563   1.232   3.132   3.255  0.6526 -0.7593  0.3934
 2668TIP3    H229564   1.253   3.213   3.129  0.8466 -0.4369  0.6315
 2669TIP3   OH229565   6.167   5.878   1.026  0.0106  0.3303  0.1205
 2669TIP3    H129566   6.148   5.860   0.934 -0.7106 -1.2893  0.5429
 2669TIP3    H229567   6.093   5.931   1.056  0.1051  0.6218 -0.1560
 2670TIP3   OH229568   5.522   5.150   3.414 -0.1277  0.3995  0.2500
 2670TIP3    H129569   5.562   5.116   3.494  0.0935  1.0305  0.4073
 2670TIP3    H229570   5.596   5.176   3.359 -0.1549 -2.0633 -1.1045
 2671TIP3   OH229571   2.005   0.536   1.214 -0.1759 -0.1113  0.3078
 2671TIP3    H129572   2.033   0.627   1.204  0.1720 -0.2407  0.0798
 2671TIP3    H229573   2.078   0.485   1.179 -1.2155 -0.4117 -1.5358
 2672TIP3   OH229574   4.952   0.958   1.358 -0.4065  0.1062  0.1095
 2672TIP3    H129575   4.878   1.015   1.381 -0.5142 -0.6267  1.7268
 2672TIP3    H229576   4.987   0.996   1.278 -2.0916  0.8948 -0.3031
 2673TIP3   OH229577   2.238   3.668   0.065  0.3173 -0.1467 -0.5270
 2673TIP3    H129578   2.172   3.603   0.042  1.8160 -0.9374 -3.0848
 2673TIP3    H229579   2.312   3.616   0.098  1.5756  0.1053 -2.7148
 2674TIP3   OH229580   3.397   4.101   3.381 -0.0237 -0.2848 -0.2473
 2674TIP3    H129581   3.363   4.187   3.409  0.6543 -0.0450 -0.1385
 2674TIP3    H229582   3.319   4.049   3.365 -0.4468  0.2701 -0.0439
 2675TIP3   OH229583   6.524   3.650   1.881 -0.6401 -0.2881  0.1286
 2675TIP3    H129584   6.475   3.670   1.802 -1.3197 -1.1950  0.3088
 2675TIP3    H229585   6.555   3.736   1.912 -0.6405  0.1087 -0.9226
 2676TIP3   OH229586   2.305   2.464   3.606  0.3286 -0.0263 -0.5000
 2676TIP3    H129587   2.321   2.468   3.512  1.7687  2.1634 -0.2508
 2676TIP3    H229588   2.326   2.374   3.631 -0.3624 -0.7112 -2.3016
 2677TIP3   OH229589   4.482   1.130   0.279 -0.3368  0.3326  0.1874
 2677TIP3    H129590   4.404   1.120   0.335 -0.9524 -0.5635 -0.7865
 2677TIP3    H229591   4.512   1.220   0.295 -1.1735  0.4699  1.0855
 2678TIP3   OH229592   2.641   4.774   1.967  0.0417 -0.8195  0.2005
 2678TIP3    H129593   2.692   4.713   1.913  1.2613 -0.1205  0.5073
 2678TIP3    H229594   2.678   4.860   1.946 -0.5660 -0.3688  0.9465
 2679TIP3   OH229595   3.935   1.673   2.134 -0.1830 -0.3426 -0.5930
 2679TIP3    H129596   3.892   1.588   2.144 -0.6108 -0.0445  0.1956
 2679TIP3    H229597   3.912   1.702   2.046 -0.2158 -0.9405 -0.7846
 2680TIP3   OH229598   6.445   0.895   2.296  0.5438  0.6386 -0.1879
 2680TIP3    H129599   6.415   0.811   2.329 -1.7952  2.0336  1.5394
 2680TIP3    H229600   6.468   0.945   2.374 -0.5044  2.4318 -0.9693
 2681TIP3   OH229601   4.079   0.153   1.447 -0.9963  0.1304  0.2550
 2681TIP3    H129602   4.021   0.134   1.521 -1.6159  2.0681  0.3347
 2681TIP3    H229603   4.133   0.226   1.478  2.5391 -2.4477  0.6674
 2682TIP3   OH229604   1.813   4.962   2.651 -0.4087 -0.6696 -0.0443
 2682TIP3    H129605   1.869   4.954   2.573 -1.9554  2.3257 -1.6356
 2682TIP3    H229606   1.867   5.009   2.714 -0.2753  0.0262 -0.6574
 2683TIP3   OH229607   0.579   5.489   2.350 -0.1609  0.0718 -0.3509
 2683TIP3    H129608   0.559   5.460   2.261  0.2746 -0.0464 -0.4094
 2683TIP3    H229609   0.526   5.433   2.406  1.2896 -1.4317 -0.4075
 2684TIP3   OH229610   5.997   4.801   3.338 -0.2395  0.6769 -0.0540
 2684TIP3    H129611   5.930   4.822   3.403 -0.2300 -1.0671  0.5744
 2684TIP3    H229612   5.987   4.707   3.322  2.7444  0.0628  0.9461
 2685TIP3   OH229613   3.375   0.158   2.275  0.2346  0.1639 -0.1723
 2685TIP3    H129614   3.346   0.067   2.272 -1.4827  0.7126 -1.9724
 2685TIP3    H229615   3.451   0.161   2.216  0.9225 -0.2611  0.6608
 2686TIP3   OH229616   4.493   5.527   3.786  0.1136 -0.1035 -0.1952
 2686TIP3    H129617   4.499   5.460   3.719  1.0270  1.4629 -1.7812
 2686TIP3    H229618   4.445   5.599   3.745  1.5185  1.2710  0.4514
 2687TIP3   OH229619   2.540   2.080   4.439 -0.1155  0.6063 -0.5173
 2687TIP3    H129620   2.482   2.081   4.363  1.2110  0.4311 -1.5723
 2687TIP3    H229621   2.620   2.123   4.409 -0.3425  2.6234  1.4722
 2688TIP3   OH229622   4.368   1.113   1.940  0.0767 -0.6205 -0.4882
 2688TIP3    H129623   4.306   1.186   1.929 -0.9297 -1.5340 -0.9855
 2688TIP3    H229624   4.353   1.083   2.029 -0.0419 -0.6891 -0.5301
 2689TIP3   OH229625   6.084   5.940   1.360 -0.1886  0.0008  0.4180
 2689TIP3    H129626   6.101   5.846   1.356 -0.8478 -0.0847 -0.9089
 2689TIP3    H229627   6.048   5.962   1.274 -0.6857  1.3433  0.9368
 2690TIP3   OH229628   2.737   3.126   1.020 -0.7092  0.4699  0.1973
 2690TIP3    H129629   2.729   3.060   1.089  1.5827  0.4067  0.4805
 2690TIP3    H229630   2.729   3.077   0.938  1.8951 -0.4017  0.3816
 2691TIP3   OH229631   5.578   1.699   3.930 -0.1107 -0.1037 -0.3300
 2691TIP3    H129632   5.504   1.758   3.923 -1.4583 -1.8029 -1.1528
 2691TIP3    H229633   5.595   1.691   4.024  0.3320  1.7873 -0.2119
 2692TIP3   OH229634   5.899   0.552   3.337  0.6496 -0.1331 -0.1898
 2692TIP3    H129635   5.924   0.500   3.414 -1.3770  0.6198  1.0649
 2692TIP3    H229636   5.910   0.492   3.263  0.4043 -1.6773  0.9711
 2693TIP3   OH229637   1.862   0.398   3.344 -0.0675  0.2546 -0.4495
 2693TIP3    H129638   1.774   0.421   3.375  0.9148  0.6048  2.3062
 2693TIP3    H229639   1.875   0.307   3.371  0.2528  0.0461 -1.2745
 2694TIP3   OH229640   5.237   4.971   2.412  0.3641  0.7022 -0.7493
 2694TIP3    H129641   5.271   4.898   2.361 -2.1303 -0.2956 -1.1281
 2694TIP3    H229642   5.297   4.979   2.486  2.0636 -0.0980 -1.9839
 2695TIP3   OH229643   5.764   0.818   2.198  0.1306 -0.0266  0.3263
 2695TIP3    H129644   5.842   0.860   2.163  0.2393  0.0591  0.6658
 2695TIP3    H229645   5.704   0.891   2.217 -1.2318 -0.2103 -2.6839
 2696TIP3   OH229646   0.519   2.450   2.980 -0.3366  0.0567  0.2880
 2696TIP3    H129647   0.575   2.417   3.051 -0.4853  1.2873  1.0112
 2696TIP3    H229648   0.527   2.385   2.911 -0.6008 -1.4706  1.6347
 2697TIP3   OH229649   4.606   1.387   3.941  0.8315 -0.4611 -0.4578
 2697TIP3    H129650   4.546   1.332   3.990  0.2143  0.1535 -0.5110
 2697TIP3    H229651   4.684   1.333   3.929  0.8698 -0.7295  0.9227
 2698TIP3   OH229652   3.769   5.436   2.923  0.1873 -0.0917  0.2175
 2698TIP3    H129653   3.710   5.384   2.978 -1.9077  1.9838  0.1081
 2698TIP3    H229654   3.711   5.481   2.861  1.8417  2.1446  0.1540
 2699TIP3   OH229655   0.172   5.780   2.906 -0.2129  0.5199  0.9107
 2699TIP3    H129656   0.254   5.736   2.928  0.3552  1.5289  0.8850
 2699TIP3    H229657   0.127   5.791   2.989  0.4757  1.4977  1.1655
 2700TIP3   OH229658   4.664   0.417   3.053 -0.2852  0.1695 -0.1491
 2700TIP3    H129659   4.602   0.381   2.990 -0.8387 -0.0529  0.5063
 2700TIP3    H229660   4.612   0.431   3.132  0.3134  0.7949  0.1400
 2701TIP3   OH229661   1.432   1.673   0.720 -0.0377 -0.3478 -0.3072
 2701TIP3    H129662   1.488   1.749   0.732 -0.7801  0.0252  0.9676
 2701TIP3    H229663   1.448   1.645   0.630  1.5751  0.2246 -0.2205
 2702TIP3   OH229664   2.379   0.543   2.689 -0.0211 -0.0263 -0.2368
 2702TIP3    H129665   2.452   0.516   2.745 -0.7910  0.0841  0.8595
 2702TIP3    H229666   2.389   0.490   2.610  0.4265 -1.0783  0.4957
 2703TIP3   OH229667   3.186   4.901   1.072  0.6331 -0.5985  0.1115
 2703TIP3    H129668   3.190   4.991   1.041  2.0003 -0.2440  1.2276
 2703TIP3    H229669   3.115   4.901   1.137 -0.0238 -0.5785 -0.5899
 2704TIP3   OH229670   6.325   6.828   2.256 -0.0318  0.9438  0.5092
 2704TIP3    H129671   6.416   6.856   2.267  0.6305 -1.0156  0.4126
 2704TIP3    H229672   6.294   6.813   2.345  0.0507  0.7341  0.5043
 2705TIP3   OH229673   1.767   5.112   0.756  0.2927  0.2164  0.0080
 2705TIP3    H129674   1.859   5.086   0.766  1.2554  2.8826 -0.8803
 2705TIP3    H229675   1.735   5.118   0.846  1.3173  0.1935  0.3942
 2706TIP3   OH229676   1.985   4.778   1.071  0.1511  0.1559  0.0718
 2706TIP3    H129677   2.037   4.856   1.052 -0.2208  0.7894  1.4651
 2706TIP3    H229678   2.049   4.707   1.077  0.2549 -0.3354 -4.0660
 2707TIP3   OH229679   5.477   6.864   4.079  0.2851 -0.2093 -0.0038
 2707TIP3    H129680   5.499   6.777   4.111 -1.9891 -1.1270 -0.7170
 2707TIP3    H229681   5.440   6.909   4.155  1.0735 -0.0013  0.2617
 2708TIP3   OH229682   5.417   3.748   1.947  0.1062  0.0841 -0.1732
 2708TIP3    H129683   5.506   3.719   1.928  0.6966  1.2556  0.6396
 2708TIP3    H229684   5.418   3.767   2.041 -0.5488  1.5381 -0.4375
 2709TIP3   OH229685   1.611   6.835   1.867  0.1019  0.2693 -0.5598
 2709TIP3    H129686   1.664   6.862   1.792  0.6990  2.2019  0.4908
 2709TIP3    H229687   1.531   6.887   1.861 -0.2523 -0.2315 -0.3363
 2710TIP3   OH229688   0.460   0.159   4.039 -0.1499  0.2300  0.7556
 2710TIP3    H129689   0.442   0.221   4.110 -0.1055  1.7527 -0.5113
 2710TIP3    H229690   0.396   0.089   4.052 -0.1221  0.4605  2.3050
 2711TIP3   OH229691   5.824   1.861   2.104  0.3186 -0.1837 -0.0465
 2711TIP3    H129692   5.895   1.921   2.129 -0.4039  0.4067  0.6223
 2711TIP3    H229693   5.754   1.919   2.073  0.7399 -0.8173 -2.4273
 2712TIP3   OH229694   3.133   4.175   4.273 -0.5029 -0.3930  0.8244
 2712TIP3    H129695   3.056   4.227   4.296  0.6175  2.0660 -0.4754
 2712TIP3    H229696   3.107   4.085   4.287 -3.2022  0.4140  1.5819
 2713TIP3   OH229697   6.119   1.888   0.792  0.6160 -0.4096 -0.6545
 2713TIP3    H129698   6.098   1.931   0.710 -3.0620 -0.8949 -0.1339
 2713TIP3    H229699   6.197   1.933   0.824 -0.4667  2.8537 -2.2198
 2714TIP3   OH229700   1.070   0.192   3.303 -0.7572 -0.1650  0.4627
 2714TIP3    H129701   1.088   0.230   3.389 -1.3851 -1.6805  1.3053
 2714TIP3    H229702   1.150   0.206   3.253 -0.7091  1.5562  0.9618
 2715TIP3   OH229703   3.883   4.238   3.315 -0.3380  0.3280  0.1910
 2715TIP3    H129704   3.838   4.276   3.391 -0.6975 -0.2689  0.2851
 2715TIP3    H229705   3.815   4.191   3.268  0.1210 -0.3408  0.1711
 2716TIP3   OH229706   4.035   3.456   2.158 -0.8296  0.0741  0.1736
 2716TIP3    H129707   4.003   3.457   2.067 -0.9393 -2.2334  0.1257
 2716TIP3    H229708   4.130   3.445   2.150 -0.6483  1.3399  0.3630
 2717TIP3   OH229709   6.452   2.224   2.190  0.0827 -0.3346  0.2752
 2717TIP3    H129710   6.371   2.174   2.195 -1.3323  1.7619 -0.0342
 2717TIP3    H229711   6.502   2.183   2.120 -1.5522 -0.5987 -0.7905
 2718TIP3   OH229712   4.545   2.434   2.836  0.4127  0.5658  0.2033
 2718TIP3    H129713   4.502   2.363   2.788  0.5616 -0.2654  1.2646
 2718TIP3    H229714   4.476   2.499   2.851  0.2322  0.5683 -0.6162
 2719TIP3   OH229715   2.263   0.855   1.611  0.0399 -0.1542 -0.0579
 2719TIP3    H129716   2.240   0.854   1.518 -1.6679  0.8016  0.3128
 2719TIP3    H229717   2.263   0.762   1.636 -1.0679 -0.3519 -0.6819
 2720TIP3   OH229718   3.988   0.387   2.016 -1.0184  0.2309  0.0679
 2720TIP3    H129719   4.011   0.342   2.097  2.4073  2.6056  0.6408
 2720TIP3    H229720   3.972   0.478   2.042 -1.0344  0.8015 -1.7480
 2721TIP3   OH229721   1.596   2.051   3.959 -0.0872  0.7076  0.0802
 2721TIP3    H129722   1.687   2.069   3.982  1.1393 -2.4824 -1.6920
 2721TIP3    H229723   1.557   2.017   4.040  1.6634 -2.0940 -0.1215
 2722TIP3   OH229724   1.618   0.338   3.673  0.1880  0.1520 -0.0380
 2722TIP3    H129725   1.694   0.312   3.620 -0.5550 -1.3027 -0.4642
 2722TIP3    H229726   1.595   0.258   3.721 -0.1596  0.9985  1.2410
 2723TIP3   OH229727   2.546   2.369   1.848  0.2558 -0.3773 -0.3847
 2723TIP3    H129728   2.539   2.314   1.926 -1.6960 -0.7896 -0.7767
 2723TIP3    H229729   2.576   2.310   1.779 -1.8878 -1.0684 -0.8181
 2724TIP3   OH229730   6.063   0.486   1.451  0.4846 -0.0774 -0.4179
 2724TIP3    H129731   6.130   0.455   1.389  2.3438  2.0009  0.4011
 2724TIP3    H229732   5.993   0.521   1.395  1.9796  1.4731 -1.4541
 2725TIP3   OH229733   5.782   0.318   1.992  0.7199 -0.2637  0.1483
 2725TIP3    H129734   5.691   0.336   2.015 -0.2263 -0.9269 -2.6406
 2725TIP3    H229735   5.821   0.283   2.071 -1.3413  0.3825  1.5273
 2726TIP3   OH229736   6.183   3.727   1.804 -0.1735  0.3454 -0.4784
 2726TIP3    H129737   6.191   3.679   1.887  0.0492  0.3088 -0.5193
 2726TIP3    H229738   6.109   3.686   1.759 -0.2372  0.3059 -0.3372
 2727TIP3   OH229739   5.454   2.943   4.528  0.4220  0.3231  0.5476
 2727TIP3    H129740   5.487   3.031   4.543  0.7060  0.5086 -1.0268
 2727TIP3    H229741   5.505   2.910   4.454 -0.3926 -0.7827  0.4484
 2728TIP3   OH229742   1.192   6.144   2.038  0.1293  0.1654 -0.2592
 2728TIP3    H129743   1.244   6.141   2.119 -1.7012 -0.3077  0.9651
 2728TIP3    H229744   1.127   6.212   2.054 -0.2814  0.0462 -1.3438
 2729TIP3   OH229745   3.340   0.831   1.968  0.4837  0.0137 -0.4967
 2729TIP3    H129746   3.412   0.853   1.908  0.3864  2.2788  0.1141
 2729TIP3    H229747   3.364   0.873   2.050 -0.9951 -0.1996  0.0686
 2730TIP3   OH229748   0.386   4.073   4.317  0.3172 -0.5585 -0.1195
 2730TIP3    H129749   0.306   4.104   4.275  1.2324 -0.7847 -2.1347
 2730TIP3    H229750   0.424   4.151   4.358  0.7808  0.3214 -2.1009
 2731TIP3   OH229751   1.822   1.066   0.916 -0.1548  0.1399  0.0930
 2731TIP3    H129752   1.757   0.998   0.897  0.2034 -1.1448  2.9259
 2731TIP3    H229753   1.781   1.120   0.984  0.7944  0.8325  0.1348
 2732TIP3   OH229754   2.885   6.562   1.049 -0.1403 -0.1018  0.2606
 2732TIP3    H129755   2.867   6.504   1.123 -1.4609  1.4548  1.2434
 2732TIP3    H229756   2.901   6.647   1.089  2.6381  0.0981 -1.0797
 2733TIP3   OH229757   0.923   6.617   3.174 -0.0947  0.2735 -0.6919
 2733TIP3    H129758   0.890   6.672   3.245  1.4233  1.4762 -0.8558
 2733TIP3    H229759   0.916   6.528   3.207  1.3315  0.8515  1.3452
 2734TIP3   OH229760   4.428   1.285   1.563  0.5310 -0.3974  0.0349
 2734TIP3    H129761   4.458   1.213   1.617  1.2779 -0.9627 -1.0975
 2734TIP3    H229762   4.391   1.244   1.485  1.7279  0.4422 -1.0131
 2735TIP3   OH229763   5.265   1.827   0.117 -0.4978 -0.6731  0.0873
 2735TIP3    H129764   5.314   1.879   0.180  1.7342 -0.5209 -1.6256
 2735TIP3    H229765   5.329   1.807   0.048 -3.0261  0.1535 -2.7014
 2736TIP3   OH229766   3.199   6.735   2.796  0.3615  0.1844  0.0239
 2736TIP3    H129767   3.291   6.743   2.822  0.3005  1.6819 -0.1744
 2736TIP3    H229768   3.157   6.692   2.871  0.9907  0.6054  0.6251
 2737TIP3   OH229769   5.713   6.590   2.986 -0.2880 -0.0154  0.0414
 2737TIP3    H129770   5.640   6.645   2.960  0.6521  1.3799  0.2333
 2737TIP3    H229771   5.789   6.629   2.943  0.0875 -2.7348 -1.9596
 2738TIP3   OH229772   0.469   0.528   4.079 -0.3972 -0.2689  0.3969
 2738TIP3    H129773   0.447   0.603   4.135  0.9187  0.1130  0.4304
 2738TIP3    H229774   0.460   0.452   4.137  0.0778  0.0408  0.8831
 2739TIP3   OH229775   6.052   2.632   4.618 -0.8614  0.2525 -0.0070
 2739TIP3    H129776   6.096   2.548   4.607  1.6026  1.3963  0.6473
 2739TIP3    H229777   5.995   2.620   4.694  1.4800 -0.0913  1.7804
 2740TIP3   OH229778   5.450   4.243   1.430  0.4302 -0.1190  0.7118
 2740TIP3    H129779   5.451   4.254   1.525  2.6341 -0.7978  0.8254
 2740TIP3    H229780   5.458   4.332   1.396  0.0509  0.0910  1.1619
 2741TIP3   OH229781   2.024   1.182   2.151  0.0373 -0.3959 -0.3941
 2741TIP3    H129782   2.071   1.101   2.132 -0.1661 -0.4527 -0.6648
 2741TIP3    H229783   1.957   1.155   2.215  2.1617  0.2268  2.2471
 2742TIP3   OH229784   1.604   0.220   1.847  0.6782 -0.1676 -0.1257
 2742TIP3    H129785   1.647   0.193   1.928 -0.5065 -1.5699  0.0702
 2742TIP3    H229786   1.645   0.167   1.779  2.4622  1.7856 -0.6994
 2743TIP3   OH229787   2.770   4.201   4.758 -0.3981  0.0302  0.5684
 2743TIP3    H129788   2.779   4.158   4.843  1.4320  0.7206  0.7717
 2743TIP3    H229789   2.860   4.214   4.728 -0.9671  1.3662 -0.6870
 2744TIP3   OH229790   2.429   4.773   0.967 -0.0900  0.2099  0.6279
 2744TIP3    H129791   2.496   4.767   0.898 -1.1818 -0.5247 -0.3975
 2744TIP3    H229792   2.474   4.819   1.038  1.0121  1.2343 -0.6453
 2745TIP3   OH229793   4.126   1.431   0.622 -0.1629 -0.0757 -0.1229
 2745TIP3    H129794   4.132   1.336   0.608  0.4394  0.1843 -1.8529
 2745TIP3    H229795   4.179   1.469   0.552  0.7050  1.5169  1.3375
 2746TIP3   OH229796   3.026   1.247   0.908  0.5012 -0.2661  0.0283
 2746TIP3    H129797   3.066   1.223   0.991  0.3388 -2.1940 -0.3948
 2746TIP3    H229798   3.081   1.206   0.841 -0.7503 -0.8961 -0.6717
 2747TIP3   OH229799   4.322   0.946   2.172 -0.1351 -0.0557 -0.6019
 2747TIP3    H129800   4.345   0.888   2.244 -1.0294  0.5530  0.2085
 2747TIP3    H229801   4.226   0.947   2.172 -0.1592  2.0801 -0.0234
 2748TIP3   OH229802   4.619   0.593   4.312 -0.0114  0.3681  0.1806
 2748TIP3    H129803   4.533   0.564   4.342 -0.5856  1.4628 -0.3687
 2748TIP3    H229804   4.628   0.683   4.344  0.6823  0.4676 -0.2632
 2749TIP3   OH229805   0.433   6.321   2.859  0.3178 -0.4728  0.2507
 2749TIP3    H129806   0.509   6.358   2.903 -0.1848  1.5275 -0.4485
 2749TIP3    H229807   0.394   6.395   2.812 -0.9090 -1.8692 -1.0452
 2750TIP3   OH229808   2.825   2.011   1.801  0.0874 -0.4485 -0.7604
 2750TIP3    H129809   2.782   2.001   1.885 -0.3252 -2.1932 -1.1296
 2750TIP3    H229810   2.765   2.065   1.749 -1.6245 -2.6013 -1.1745
 2751TIP3   OH229811   3.486   3.487   4.780  0.4780 -0.2535  0.7491
 2751TIP3    H129812   3.520   3.452   4.698  1.2591  0.7604  0.6169
 2751TIP3    H229813   3.528   3.436   4.848  0.1415 -0.8253  0.5364
 2752TIP3   OH229814   1.062   1.481   1.800  0.3601  0.1899  0.3267
 2752TIP3    H129815   1.105   1.411   1.750 -1.8025 -0.8374 -0.2069
 2752TIP3    H229816   0.973   1.450   1.813  0.2155  1.4141  2.9779
 2753TIP3   OH229817   1.121   6.545   0.112  0.3147 -0.1784 -0.0643
 2753TIP3    H129818   1.180   6.476   0.142  1.0613  0.5239  0.1374
 2753TIP3    H229819   1.033   6.513   0.134  0.6576 -0.9676  0.2049
 2754TIP3   OH229820   1.330   0.945   1.990  1.0548 -0.1743 -0.0870
 2754TIP3    H129821   1.277   0.904   1.922  2.9320 -0.4436 -1.4691
 2754TIP3    H229822   1.267   0.987   2.048 -0.6440 -0.5198 -1.6156
 2755TIP3   OH229823   1.942   1.588   0.648 -0.1589  0.1909 -0.4206
 2755TIP3    H129824   2.020   1.545   0.615 -1.1817 -0.6197 -1.8835
 2755TIP3    H229825   1.959   1.601   0.741  2.6319  2.1188 -1.0940
 2756TIP3   OH229826   1.986   4.653   3.709  0.3192  0.1601  0.2867
 2756TIP3    H129827   1.976   4.749   3.708  0.4287  0.1632 -0.4303
 2756TIP3    H229828   2.069   4.638   3.755  0.0359  0.3809  0.8862
 2757TIP3   OH229829   3.808   6.726   3.438 -0.0600  0.6249 -0.3511
 2757TIP3    H129830   3.852   6.696   3.358 -0.0055  0.0210 -0.0939
 2757TIP3    H229831   3.877   6.730   3.504 -0.0411  1.4360 -0.4078
 2758TIP3   OH229832   2.783   1.477   2.897 -0.1747 -0.0597 -0.0175
 2758TIP3    H129833   2.833   1.450   2.974  0.4148  1.3990  0.1575
 2758TIP3    H229834   2.848   1.517   2.839 -0.9256  0.7507 -0.3339
 2759TIP3   OH229835   4.298   1.914   2.141  0.7705 -0.3523  0.3882
 2759TIP3    H129836   4.341   1.997   2.164  2.5567 -0.7696 -1.2483
 2759TIP3    H229837   4.231   1.939   2.077  0.4124 -0.0321  0.8801
 2760TIP3   OH229838   2.495   4.147   1.688  0.2798 -0.3540 -0.1739
 2760TIP3    H129839   2.461   4.086   1.623  0.3079  0.3818 -0.9075
 2760TIP3    H229840   2.555   4.203   1.638  0.6756 -0.0934  0.5934
 2761TIP3   OH229841   2.332   1.240   1.821  0.2676 -0.3982 -0.0118
 2761TIP3    H129842   2.415   1.277   1.851  0.5372 -0.1784 -0.9639
 2761TIP3    H229843   2.295   1.307   1.764 -1.0072 -0.1277  1.0769
 2762TIP3   OH229844   6.642   2.246   2.600 -0.6284  0.4781  0.3463
 2762TIP3    H129845   6.659   2.332   2.637 -1.0339  0.8053 -0.2131
 2762TIP3    H229846   6.574   2.261   2.535  0.8667  0.1403 -1.3892
 2763TIP3   OH229847   4.784   6.856   0.643 -0.1231 -0.4540  0.4997
 2763TIP3    H129848   4.832   6.876   0.563 -1.2905 -0.8004 -0.3119
 2763TIP3    H229849   4.823   6.776   0.676 -0.9337 -1.4279 -0.8349
 2764TIP3   OH229850   2.932   5.914   3.795 -0.6029  0.2117 -0.3106
 2764TIP3    H129851   2.846   5.956   3.794  0.3734  2.3787 -0.9385
 2764TIP3    H229852   2.979   5.955   3.722  0.9499 -0.9829 -0.0446
 2765TIP3   OH229853   5.929   0.803   3.225  0.5842  0.6267  0.1171
 2765TIP3    H129854   6.024   0.805   3.214  0.5355 -1.1435 -1.0955
 2765TIP3    H229855   5.911   0.715   3.259 -0.6324  0.8599  0.1297
 2766TIP3   OH229856   2.789   1.767   3.673 -0.6975 -0.0036  0.5059
 2766TIP3    H129857   2.717   1.770   3.609 -0.7434 -0.4854  0.5334
 2766TIP3    H229858   2.804   1.859   3.695  0.4648  0.3395 -1.4729
 2767TIP3   OH229859   3.363   5.347   2.828 -0.3347  0.1493  0.2765
 2767TIP3    H129860   3.456   5.360   2.847 -0.6087  0.9100  1.2001
 2767TIP3    H229861   3.330   5.435   2.812 -0.8049 -0.1670 -0.5009
 2768TIP3   OH229862   3.124   0.899   0.908  0.2181 -0.2002  0.0194
 2768TIP3    H129863   3.136   0.806   0.892 -1.1862 -0.3338 -0.3178
 2768TIP3    H229864   3.213   0.932   0.923  0.7156 -1.6027  0.2703
 2769TIP3   OH229865   0.753   0.373   1.847  0.3483  0.5509 -0.1107
 2769TIP3    H129866   0.806   0.453   1.841  0.4796  0.6787  2.2048
 2769TIP3    H229867   0.663   0.403   1.837  0.5134  0.4049 -3.4415
 2770TIP3   OH229868   4.544   4.373   2.411 -0.4353 -0.0261  0.2420
 2770TIP3    H129869   4.570   4.290   2.371  0.3754 -0.5422  1.7494
 2770TIP3    H229870   4.477   4.349   2.475 -1.3445  0.7110 -0.4008
 2771TIP3   OH229871   5.972   0.467   2.652  0.6273 -1.2216  0.7800
 2771TIP3    H129872   5.948   0.536   2.590  2.5886 -2.0560 -1.0651
 2771TIP3    H229873   6.059   0.492   2.683  1.4984 -2.9021 -0.1256
 2772TIP3   OH229874   3.291   3.291   4.288 -0.0851 -0.0096 -0.2391
 2772TIP3    H129875   3.217   3.342   4.253 -0.9498 -0.4879  0.8301
 2772TIP3    H229876   3.306   3.327   4.375  0.5369 -0.3332 -0.2075
 2773TIP3   OH229877   5.055   5.496   1.161 -1.2042  0.1228  0.4270
 2773TIP3    H129878   5.016   5.419   1.121  0.6367 -0.4232 -0.4139
 2773TIP3    H229879   5.065   5.558   1.089  1.3876 -0.5658  0.0891
 2774TIP3   OH229880   2.989   2.526   8.469  0.3097  0.1731 -0.3386
 2774TIP3    H129881   3.060   2.557   8.526 -0.0172 -0.3263  0.3546
 2774TIP3    H229882   2.962   2.442   8.507 -1.3525  0.8285  0.0482
 2775TIP3   OH229883   6.406   3.908   2.207 -0.6554 -0.3463 -0.2975
 2775TIP3    H129884   6.331   3.960   2.234 -0.9556 -0.7303 -0.3856
 2775TIP3    H229885   6.414   3.840   2.274 -0.5671 -0.4856 -0.4478
 2776TIP3   OH229886   4.658   6.234   4.399  0.3326 -0.5301 -0.7000
 2776TIP3    H129887   4.614   6.290   4.335 -1.0782 -0.8381 -0.0381
 2776TIP3    H229888   4.684   6.156   4.350  1.6771  0.3732 -1.4692
 2777TIP3   OH229889   4.663   0.813   3.680  0.4190 -0.5408  0.4308
 2777TIP3    H129890   4.742   0.771   3.714  0.5985 -0.1845  0.4635
 2777TIP3    H229891   4.591   0.759   3.713  0.6831 -1.4067 -0.3825
 2778TIP3   OH229892   4.792   6.358   2.031  0.2147  0.1217 -0.0368
 2778TIP3    H129893   4.777   6.427   1.967  1.4887  2.7458  2.3182
 2778TIP3    H229894   4.868   6.310   1.997 -0.6558 -0.1616 -1.6793
 2779TIP3   OH229895   3.458   2.143   1.541  0.2965  0.2072  0.0703
 2779TIP3    H129896   3.433   2.185   1.623 -1.6045 -1.0489  0.1835
 2779TIP3    H229897   3.451   2.049   1.559  1.3751 -0.1276 -1.0985
 2780TIP3   OH229898   5.560   0.629   2.522  0.5158 -0.4684 -0.2270
 2780TIP3    H129899   5.601   0.630   2.609 -0.3427  0.0729  0.1776
 2780TIP3    H229900   5.564   0.720   2.493 -0.4418 -0.3978 -0.1561
 2781TIP3   OH229901   0.132   6.116   4.039  0.3001  0.8644  0.1716
 2781TIP3    H129902   0.073   6.124   3.965 -1.1260  0.5965  1.2448
 2781TIP3    H229903   0.112   6.031   4.078  0.0075  1.5798  1.6804
 2782TIP3   OH229904   5.909   5.470   1.489  0.3493  0.2618 -0.1698
 2782TIP3    H129905   5.920   5.396   1.429  1.5986 -0.2421  0.6414
 2782TIP3    H229906   5.888   5.429   1.573  2.1100  0.7294  0.5390
 2783TIP3   OH229907   2.683   3.167   0.595 -0.2081 -0.0096 -0.1359
 2783TIP3    H129908   2.597   3.174   0.552 -1.2060  1.1691  1.8755
 2783TIP3    H229909   2.684   3.079   0.632 -0.4902 -0.0846 -0.2985
 2784TIP3   OH229910   0.944   0.056   1.100 -0.4918 -0.1565 -0.4226
 2784TIP3    H129911   1.011  -0.013   1.105  0.6995  1.0467  0.8418
 2784TIP3    H229912   0.886   0.027   1.030  1.4375 -1.1701 -1.6979
 2785TIP3   OH229913   3.887   4.435   2.112 -0.3226  0.1526  0.2190
 2785TIP3    H129914   3.944   4.381   2.168  1.4981  0.6021 -1.1014
 2785TIP3    H229915   3.879   4.518   2.160 -1.5069 -0.5714  1.3252
 2786TIP3   OH229916   2.315   3.561   2.707  0.2048  0.6469  0.2341
 2786TIP3    H129917   2.368   3.530   2.633  0.4149 -1.5523  1.2221
 2786TIP3    H229918   2.370   3.624   2.752  1.8544 -1.1894  0.9223
 2787TIP3   OH229919   3.532   1.166   2.790  0.2557  0.0741 -0.1725
 2787TIP3    H129920   3.511   1.164   2.884 -0.5934  0.0133 -0.3570
 2787TIP3    H229921   3.461   1.217   2.751 -0.5622 -1.6925 -1.0656
 2788TIP3   OH229922   2.028   5.684   3.751  0.4929  0.4363  0.1719
 2788TIP3    H129923   1.971   5.755   3.722 -1.6569 -0.9608  0.7250
 2788TIP3    H229924   2.106   5.727   3.783 -0.4112  2.4961 -0.2520
 2789TIP3   OH229925   1.278   0.151   3.764  0.4666  0.2419  0.0741
 2789TIP3    H129926   1.297   0.057   3.773  0.6119  0.3446  0.8260
 2789TIP3    H229927   1.359   0.195   3.787 -0.1890  0.6213  1.8368
 2790TIP3   OH229928   2.783   6.173   1.194  0.1479  0.3549 -0.1603
 2790TIP3    H129929   2.754   6.110   1.129 -1.2752 -1.1233  1.7807
 2790TIP3    H229930   2.796   6.122   1.274 -0.6269  2.4163  1.3955
 2791TIP3   OH229931   2.468   0.791   2.536 -0.6201  0.5908  0.1865
 2791TIP3    H129932   2.393   0.761   2.484  0.1773  0.2452 -0.7984
 2791TIP3    H229933   2.542   0.789   2.475  0.8772 -2.0616  1.8678
 2792TIP3   OH229934   4.118   1.220   1.271  0.4722 -0.9235  0.4106
 2792TIP3    H129935   4.151   1.309   1.280 -0.4993 -0.7073  2.0453
 2792TIP3    H229936   4.055   1.225   1.199  1.6528 -0.6898 -0.6483
 2793TIP3   OH229937   0.106   2.134   3.304  0.1096  1.1408 -0.5591
 2793TIP3    H129938   0.163   2.057   3.301 -1.7541 -0.3631  0.3720
 2793TIP3    H229939   0.072   2.143   3.215 -0.2121  0.4100 -0.5173
 2794TIP3   OH229940   0.764   2.999   3.332  0.0622 -0.3116  0.1544
 2794TIP3    H129941   0.832   3.064   3.314  0.0802 -0.3654  0.0283
 2794TIP3    H229942   0.806   2.936   3.391  0.5768 -1.1264 -1.0386
 2795TIP3   OH229943   4.950   6.477   2.315  0.4121  0.2603  0.3419
 2795TIP3    H129944   4.880   6.502   2.255 -1.3964 -3.2363  0.7404
 2795TIP3    H229945   5.027   6.467   2.260 -0.7401 -1.0277 -1.1156
 2796TIP3   OH229946   3.612   5.546   2.475 -0.2802 -0.5138  0.5959
 2796TIP3    H129947   3.607   5.540   2.571 -0.7841  3.1327  0.9409
 2796TIP3    H229948   3.521   5.536   2.446 -0.2509 -0.7407  0.5831
 2797TIP3   OH229949   1.578   2.157   1.291  0.1143 -0.2080  0.2412
 2797TIP3    H129950   1.593   2.119   1.377 -0.0980 -1.4194 -0.2359
 2797TIP3    H229951   1.534   2.088   1.241 -2.7291  1.5142  0.0994
 2798TIP3   OH229952   4.817   2.476   1.366  0.1990 -0.7093  0.2178
 2798TIP3    H129953   4.861   2.543   1.417 -0.4129  1.2469 -1.6936
 2798TIP3    H229954   4.727   2.508   1.356 -0.5951 -2.6245  0.6040
 2799TIP3   OH229955   4.187   3.341   0.997  0.3563 -0.1994  0.7268
 2799TIP3    H129956   4.197   3.276   0.928  0.5931 -0.1058  0.6718
 2799TIP3    H229957   4.101   3.380   0.983  0.7393  0.3975 -0.0061
 2800TIP3   OH229958   6.334   0.322   2.842  0.0968  0.0650 -0.2834
 2800TIP3    H129959   6.282   0.249   2.875  0.2679  0.3079  0.5656
 2800TIP3    H229960   6.425   0.292   2.850  0.1241 -0.0633 -1.0270
 2801TIP3   OH229961   6.558   6.576   2.148 -0.7391 -0.1733 -0.2090
 2801TIP3    H129962   6.626   6.624   2.194 -1.8805  1.0864  0.2243
 2801TIP3    H229963   6.547   6.495   2.198 -0.3566  0.1373  0.3802
 2802TIP3   OH229964   5.676   1.291   3.647 -0.2381  0.0340  0.0781
 2802TIP3    H129965   5.685   1.300   3.742  2.0051 -0.9482  0.0367
 2802TIP3    H229966   5.715   1.205   3.628 -0.8806  0.0974 -1.7116
 2803TIP3   OH229967   2.706   6.088   8.549 -0.4874  0.4961 -0.2165
 2803TIP3    H129968   2.735   5.999   8.572  0.7889  0.7791 -0.6309
 2803TIP3    H229969   2.662   6.120   8.628  0.6262  0.1352  0.5770
 2804TIP3   OH229970   2.184   6.503   1.288 -0.2771  0.1556  0.1156
 2804TIP3    H129971   2.171   6.580   1.344 -2.4947 -0.6280  0.7894
 2804TIP3    H229972   2.222   6.538   1.207 -0.8206  1.9042  0.5746
 2805TIP3   OH229973   1.278   0.468   1.651 -0.0526 -0.3580  0.1229
 2805TIP3    H129974   1.256   0.556   1.621 -0.4524 -0.0597  1.2457
 2805TIP3    H229975   1.326   0.429   1.578 -1.3736  0.1720 -1.0764
 2806TIP3   OH229976   6.234   1.391   3.003  0.4524 -0.1216 -0.5661
 2806TIP3    H129977   6.228   1.303   3.040 -1.5268 -0.4764 -1.5425
 2806TIP3    H229978   6.301   1.435   3.055  1.0306 -1.9913  0.3719
 2807TIP3   OH229979   3.379   1.079   4.588  0.0545 -0.2203  0.3689
 2807TIP3    H129980   3.350   1.109   4.674 -0.8337 -1.3922  0.5033
 2807TIP3    H229981   3.372   0.984   4.592 -0.9444 -0.2607 -1.3044
 2808TIP3   OH229982   1.312   1.981   3.810 -0.2471 -0.6189  0.0732
 2808TIP3    H129983   1.341   1.905   3.861  0.1883  0.9465  2.3273
 2808TIP3    H229984   1.387   2.003   3.754  0.2958 -0.8101  0.7136
 2809TIP3   OH229985   0.522   3.181   0.960  0.3476 -0.1101  0.2393
 2809TIP3    H129986   0.589   3.135   1.010  0.1914 -0.3327  0.2477
 2809TIP3    H229987   0.527   3.142   0.873 -0.8281 -1.2453  0.6537
 2810TIP3   OH229988   0.619   5.041   2.661  0.1820  0.5763  0.2491
 2810TIP3    H129989   0.539   5.093   2.668 -0.1250  0.3134 -1.0846
 2810TIP3    H229990   0.600   4.961   2.710 -1.3862 -0.6286 -2.1120
 2811TIP3   OH229991   2.089   4.522   2.405  0.4569 -0.3710 -0.3967
 2811TIP3    H129992   2.175   4.556   2.430  0.0352  0.9602 -0.6535
 2811TIP3    H229993   2.074   4.449   2.465 -0.0441  1.9793  2.6165
 2812TIP3   OH229994   4.190   1.269   3.886 -0.0072  0.2686 -0.5168
 2812TIP3    H129995   4.131   1.204   3.847  1.2827 -1.6230  0.5051
 2812TIP3    H229996   4.216   1.230   3.969  3.4201  0.5121 -1.3325
 2813TIP3   OH229997   5.316   1.321   0.899  0.4783  0.4933 -0.1934
 2813TIP3    H129998   5.388   1.292   0.955 -0.1636 -1.1613 -0.1620
 2813TIP3    H229999   5.320   1.417   0.901  2.0547  0.4285  0.5872
 2814TIP3   OH230000   6.721   0.684   3.802  0.1685 -0.0918 -0.1594
 2814TIP3    H130001   6.750   0.676   3.711  0.3073 -1.5539 -0.0090
 2814TIP3    H230002   6.719   0.594   3.834 -0.8242  0.3279  0.9979
 2815TIP3   OH230003   0.055   0.247   0.968  0.0623  0.3391  0.0267
 2815TIP3    H130004  -0.030   0.276   0.999  0.5903  0.4358  1.4446
 2815TIP3    H230005   0.115   0.264   1.040  1.0141 -1.1363 -0.3528
 2816TIP3   OH230006   5.651   5.026   0.336 -0.4696  0.1331 -0.2613
 2816TIP3    H130007   5.638   5.082   0.259 -2.9287 -0.0434 -0.0608
 2816TIP3    H230008   5.691   5.084   0.401  1.8578  0.2197 -1.6851
 2817TIP3   OH230009   0.145   0.316   1.822  0.2044  0.2203  0.8130
 2817TIP3    H130010   0.190   0.389   1.779  1.8716 -0.8958  0.5389
 2817TIP3    H230011   0.208   0.284   1.886 -0.9572 -0.2570  1.7481
 2818TIP3   OH230012   4.001   6.188   3.436  0.0344  0.1452 -0.2873
 2818TIP3    H130013   4.000   6.221   3.526 -0.6907  1.0078 -0.5952
 2818TIP3    H230014   3.977   6.096   3.444 -2.8459  0.8306  0.2143
 2819TIP3   OH230015   6.432   6.169   2.956 -0.4246  0.2961 -0.3547
 2819TIP3    H130016   6.350   6.121   2.965 -0.2908  0.0693 -0.3264
 2819TIP3    H230017   6.446   6.211   3.041  0.2240 -0.8500  0.1242
 2820TIP3   OH230018   2.634   3.170   1.620  0.0822  0.1669 -0.2573
 2820TIP3    H130019   2.549   3.135   1.646  0.4128 -0.8073 -0.4503
 2820TIP3    H230020   2.653   3.238   1.684 -0.3055 -0.4227  0.4904
 2821TIP3   OH230021   1.161   5.506   2.545 -0.7001  0.0773 -0.3295
 2821TIP3    H130022   1.163   5.479   2.453  0.0868  0.2717 -0.3766
 2821TIP3    H230023   1.240   5.558   2.557  0.8993 -2.4618  1.2128
 2822TIP3   OH230024   2.320   5.077   3.662  0.1935  0.1290 -0.1449
 2822TIP3    H130025   2.397   5.131   3.644 -0.4094  0.6753 -1.1876
 2822TIP3    H230026   2.339   5.035   3.746  2.0082 -0.4369 -0.7866
 2823TIP3   OH230027   2.524   5.934   2.325  0.2928 -0.0259 -0.5419
 2823TIP3    H130028   2.486   5.984   2.397  0.2762  1.2464 -1.3880
 2823TIP3    H230029   2.571   5.862   2.367 -2.4231 -1.2738  0.5716
 2824TIP3   OH230030   0.392   6.644   2.254 -0.2108 -0.4316  0.1646
 2824TIP3    H130031   0.403   6.717   2.315  0.0477  0.1049 -0.5185
 2824TIP3    H230032   0.329   6.586   2.298 -1.6221  0.9372  0.0453
 2825TIP3   OH230033   3.136   6.434   8.453  0.0316 -0.8732 -0.5999
 2825TIP3    H130034   3.081   6.477   8.518 -1.4339 -1.0879 -1.6548
 2825TIP3    H230035   3.080   6.423   8.377  2.1560  0.8596 -2.5401
 2826TIP3   OH230036   1.867   0.507   0.640  0.2612  0.5441  0.2294
 2826TIP3    H130037   1.942   0.458   0.673 -1.0584 -1.0692  0.9652
 2826TIP3    H230038   1.800   0.440   0.624 -0.3247  1.6734 -2.4754
 2827TIP3   OH230039   6.815   0.015   1.408 -0.0565  0.4899  0.1517
 2827TIP3    H130040   6.881   0.011   1.477 -0.0593 -0.1073  0.1238
 2827TIP3    H230041   6.859  -0.020   1.330  0.1482  1.7375 -0.3243
 2828TIP3   OH230042   2.843   1.560   0.680 -0.1554 -0.2938  0.1086
 2828TIP3    H130043   2.927   1.565   0.726  0.0699  0.5025 -0.3696
 2828TIP3    H230044   2.859   1.500   0.607  0.0613  0.0027 -0.0924
 2829TIP3   OH230045   1.556   5.283   2.629 -0.2088  0.2090 -0.2571
 2829TIP3    H130046   1.633   5.332   2.656  0.4984 -0.7217 -0.5449
 2829TIP3    H230047   1.500   5.281   2.707  0.1774  0.6498  0.0345
 2830TIP3   OH230048   2.611   2.559   2.571 -0.0711  0.2943 -0.2346
 2830TIP3    H130049   2.585   2.475   2.531 -1.0974  0.5238 -0.0743
 2830TIP3    H230050   2.555   2.624   2.528  1.9066  1.1674 -1.6253
 2831TIP3   OH230051   3.096   3.273   3.008  0.0115  0.0792 -0.3755
 2831TIP3    H130052   3.050   3.189   2.998  2.9603 -1.7621  0.1646
 2831TIP3    H230053   3.029   3.333   3.041 -2.1180 -2.1921 -0.2227
 2832TIP3   OH230054   6.190   1.708   3.170  0.3708 -0.0328  0.1109
 2832TIP3    H130055   6.281   1.688   3.188  0.0695  0.1700  2.0204
 2832TIP3    H230056   6.143   1.627   3.190 -0.1300  0.6117  1.6890
 2833TIP3   OH230057   2.674   5.747   2.437  0.4754 -0.1045 -0.3082
 2833TIP3    H130058   2.735   5.713   2.372  0.5483  1.3750 -1.0379
 2833TIP3    H230059   2.725   5.749   2.518  1.6393  1.7112 -1.0333
 2834TIP3   OH230060   2.416   3.087   2.512  0.3734 -0.3985 -0.0247
 2834TIP3    H130061   2.457   3.165   2.549 -1.0608 -0.2153  1.2648
 2834TIP3    H230062   2.421   3.022   2.582  0.3502 -1.0372 -0.6101
 2835TIP3   OH230063   2.248   5.135   0.027 -0.3520  0.0963 -0.0518
 2835TIP3    H130064   2.291   5.131   0.113  0.7810  0.5197 -0.5729
 2835TIP3    H230065   2.163   5.175   0.045  0.3070  1.2055  0.7340
 2836TIP3   OH230066   5.392   4.353   4.204  0.1968  0.4422 -0.4483
 2836TIP3    H130067   5.385   4.337   4.298  3.2729  1.3050  0.0496
 2836TIP3    H230068   5.391   4.448   4.196  0.4204  0.3852 -1.2129
 2837TIP3   OH230069   2.453   6.573   2.074  0.0403 -0.1837 -0.6877
 2837TIP3    H130070   2.410   6.488   2.077 -0.1658 -0.0625  0.8893
 2837TIP3    H230071   2.385   6.635   2.103 -0.0033  0.6223 -2.4157
 2838TIP3   OH230072   5.669   6.284   0.826 -0.4306 -0.1486  0.2728
 2838TIP3    H130073   5.604   6.254   0.762 -1.0566 -0.9467  1.2590
 2838TIP3    H230074   5.720   6.350   0.779 -2.5043  1.1555 -0.2741
 2839TIP3   OH230075   2.619   1.889   2.802 -0.0586 -0.0680  0.3492
 2839TIP3    H130076   2.549   1.825   2.813  1.1533 -1.3527  0.8787
 2839TIP3    H230077   2.694   1.838   2.774  0.1479  1.5376 -2.4684
 2840TIP3   OH230078   4.999   1.552   3.614 -0.0678  0.3889 -0.5914
 2840TIP3    H130079   5.067   1.498   3.575 -0.0912 -0.1219  0.0640
 2840TIP3    H230080   4.996   1.631   3.559  1.6287  0.8088 -0.1286
 2841TIP3   OH230081   3.112   3.923   0.160  0.4143 -1.0078 -0.0156
 2841TIP3    H130082   3.201   3.958   0.155  0.5514 -1.0768  1.6042
 2841TIP3    H230083   3.119   3.837   0.117  1.0544 -0.8751 -0.1982
 2842TIP3   OH230084   3.358   3.302   3.912 -0.3382  0.1144 -0.3736
 2842TIP3    H130085   3.296   3.375   3.903 -0.8071 -0.2373 -0.0204
 2842TIP3    H230086   3.332   3.240   3.845 -0.8861 -0.4022  0.3114
 2843TIP3   OH230087   6.399   5.092   1.947  0.2756  0.4262  0.7038
 2843TIP3    H130088   6.494   5.092   1.956  0.6825 -0.3977 -2.2514
 2843TIP3    H230089   6.369   5.168   1.996  2.0643 -0.9109  4.1881
 2844TIP3   OH230090   1.554   2.415   0.417 -0.3068  0.8276  0.3803
 2844TIP3    H130091   1.569   2.478   0.347 -3.1344 -0.3223 -1.4913
 2844TIP3    H230092   1.484   2.453   0.469  0.8698  1.0699  1.8319
 2845TIP3   OH230093   3.019   3.988   1.564 -0.1024  0.5469  0.1748
 2845TIP3    H130094   2.996   4.067   1.516  0.4680  0.4628 -0.2567
 2845TIP3    H230095   2.992   3.916   1.507  1.1513  0.4473 -0.3307
 2846TIP3   OH230096   5.709   1.797   4.192 -0.6779 -0.6869 -1.1393
 2846TIP3    H130097   5.631   1.848   4.212 -0.3211 -0.1756 -1.0386
 2846TIP3    H230098   5.781   1.859   4.200 -0.0846 -1.5365  0.4402
 2847TIP3   OH230099   0.249   3.018   0.899  0.1838  0.0522 -0.1676
 2847TIP3    H130100   0.264   3.060   0.815 -0.0141  0.8396  0.1836
 2847TIP3    H230101   0.198   2.939   0.878  2.0021 -0.9661 -1.0194
 2848TIP3   OH230102   4.298   5.164   4.636 -0.1405 -0.2610  0.5867
 2848TIP3    H130103   4.225   5.152   4.575  1.4958 -1.7606 -1.1976
 2848TIP3    H230104   4.328   5.254   4.620 -0.1950 -0.3976 -0.3328
 2849TIP3   OH230105   2.732   4.456   2.567 -0.3734  0.3764  0.0471
 2849TIP3    H130106   2.773   4.418   2.644 -1.1588 -0.6196 -0.0049
 2849TIP3    H230107   2.647   4.487   2.597 -0.4231  0.5691 -0.2816
 2850TIP3   OH230108   5.897   0.830   2.920 -0.2918  0.6198  0.2329
 2850TIP3    H130109   5.983   0.826   2.879 -0.2009  0.9554  0.3944
 2850TIP3    H230110   5.890   0.747   2.968 -0.9958 -0.4735 -1.6400
 2851TIP3   OH230111   4.532   2.376   1.919 -0.1174  0.0196  0.1347
 2851TIP3    H130112   4.598   2.316   1.953 -0.7289 -0.9675 -0.3943
 2851TIP3    H230113   4.548   2.379   1.825 -1.7983 -1.5134 -0.2643
 2852TIP3   OH230114   1.498   5.766   3.110  0.3169 -0.1730 -0.3058
 2852TIP3    H130115   1.414   5.811   3.112  0.2267 -0.3229  1.5575
 2852TIP3    H230116   1.484   5.690   3.053  0.6022  2.2282 -3.8622
 2853TIP3   OH230117   4.035   6.877   4.449 -0.1104  0.2286  0.3313
 2853TIP3    H130118   4.006   6.852   4.361 -2.7112  3.8226 -0.0310
 2853TIP3    H230119   4.103   6.942   4.434  1.5358 -1.2551  1.1034
 2854TIP3   OH230120   4.559   5.153   4.418  0.0772  0.2317 -0.0379
 2854TIP3    H130121   4.486   5.140   4.479 -0.0931 -0.4491 -0.3671
 2854TIP3    H230122   4.630   5.100   4.454 -0.6162 -1.7663 -1.3899
 2855TIP3   OH230123   1.751   0.453   1.727  0.2876 -0.0308 -0.0508
 2855TIP3    H130124   1.709   0.446   1.812  0.4119 -1.9010 -0.0974
 2855TIP3    H230125   1.842   0.473   1.746  0.2966 -0.3584  0.2519
 2856TIP3   OH230126   4.840   2.270   1.163  0.1016  0.1854  0.0367
 2856TIP3    H130127   4.816   2.336   1.229 -1.9008 -0.2169 -0.2323
 2856TIP3    H230128   4.929   2.244   1.187  0.5376  2.1573  0.8156
 2857TIP3   OH230129   5.166   6.255   1.089  0.3025 -0.0252 -0.6815
 2857TIP3    H130130   5.228   6.196   1.046  1.6422  0.1970  0.8568
 2857TIP3    H230131   5.090   6.200   1.108  0.8091 -0.8108 -0.8860
 2858TIP3   OH230132   1.400   2.071   1.969 -0.0368 -0.5285  0.1461
 2858TIP3    H130133   1.335   2.014   1.928 -0.1647 -0.3637  0.1209
 2858TIP3    H230134   1.354   2.153   1.984  0.5076  0.0191 -1.0154
 2859TIP3   OH230135   4.112   0.317   1.779  0.2251 -0.4988  0.1223
 2859TIP3    H130136   4.051   0.333   1.851  1.1793 -0.0719  0.8774
 2859TIP3    H230137   4.062   0.270   1.713 -0.2757 -2.3322  1.7351
 2860TIP3   OH230138   0.842   6.421   1.707  0.6394 -0.2260 -0.4751
 2860TIP3    H130139   0.813   6.406   1.617 -1.4046 -1.6562  0.3154
 2860TIP3    H230140   0.799   6.502   1.733  2.0674  0.7578 -1.0578
 2861TIP3   OH230141   4.952   2.563   1.012 -0.2559  0.5680 -0.2371
 2861TIP3    H130142   4.869   2.605   0.989 -0.9656 -0.4762  0.3703
 2861TIP3    H230143   4.929   2.472   1.029  0.7246  0.6320  1.6308
 2862TIP3   OH230144   6.424   1.651   1.751  0.1047  0.2472  0.4265
 2862TIP3    H130145   6.468   1.591   1.812  0.3348  1.1219  1.1507
 2862TIP3    H230146   6.336   1.662   1.788 -0.2038 -0.2767 -0.1522
 2863TIP3   OH230147   4.236   2.756   1.349 -0.2454  0.5878  0.4156
 2863TIP3    H130148   4.177   2.702   1.297  0.9583 -2.1616  1.6994
 2863TIP3    H230149   4.314   2.766   1.294 -0.0091 -0.0377  0.6280
 2864TIP3   OH230150   0.456   1.906   0.449  0.2744 -0.0716 -0.8415
 2864TIP3    H130151   0.444   1.924   0.356 -0.1074  1.0001 -0.5979
 2864TIP3    H230152   0.486   1.815   0.452  2.0234  0.4081 -2.1282
 2865TIP3   OH230153   4.483   0.333   2.894 -0.6057  0.1030 -0.2232
 2865TIP3    H130154   4.443   0.268   2.836 -0.9315 -0.0608  0.1889
 2865TIP3    H230155   4.480   0.414   2.843 -3.4432  0.6138  0.5809
 2866TIP3   OH230156   1.291   1.026   0.425  0.1191  0.4061  0.0797
 2866TIP3    H130157   1.202   0.991   0.431 -0.0903  1.0650  1.0911
 2866TIP3    H230158   1.345   0.963   0.474  0.4071 -0.5209 -1.3514
 2867TIP3   OH230159   3.151   1.567   4.378  0.1424  0.7405  0.0775
 2867TIP3    H130160   3.241   1.537   4.361 -0.3254 -1.0084  0.5377
 2867TIP3    H230161   3.099   1.526   4.310 -0.5092  0.6293  0.6403
 2868TIP3   OH230162   1.893   5.265   4.168  0.0365  0.0231  0.4012
 2868TIP3    H130163   1.901   5.273   4.263  0.7108 -3.5366  0.7828
 2868TIP3    H230164   1.803   5.238   4.153 -0.0712  0.5804  0.0073
 2869TIP3   OH230165   0.272   3.665   4.699 -0.3587 -0.1115 -0.3248
 2869TIP3    H130166   0.310   3.748   4.669 -1.7931 -0.5910 -4.0003
 2869TIP3    H230167   0.346   3.604   4.701  0.0717  0.3205 -1.7337
 2870TIP3   OH230168   1.590   2.442   2.519  0.0908  0.1916  0.3722
 2870TIP3    H130169   1.685   2.448   2.505  0.2169 -1.0555  0.5978
 2870TIP3    H230170   1.578   2.458   2.612  0.0395  0.6662  0.2874
 2871TIP3   OH230171   2.400   0.785   2.808 -0.8511 -0.7831  0.6164
 2871TIP3    H130172   2.340   0.852   2.774  1.8212  1.1318 -0.8029
 2871TIP3    H230173   2.424   0.733   2.731 -0.3865 -1.2379  1.0570
 2872TIP3   OH230174   4.499   4.444   3.915  0.6737 -0.3713 -0.0129
 2872TIP3    H130175   4.483   4.452   4.008 -0.5293 -0.9448 -0.1576
 2872TIP3    H230176   4.460   4.522   3.876  0.7314 -0.3809 -0.0917
 2873TIP3   OH230177   4.262   0.662   3.378 -1.2929 -0.1123  0.2722
 2873TIP3    H130178   4.189   0.602   3.363 -1.6455 -0.2411  2.2211
 2873TIP3    H230179   4.339   0.606   3.384 -1.1090 -0.0375 -1.1129
 2874TIP3   OH230180   5.710   5.779   2.100 -0.4537  0.0759 -0.4821
 2874TIP3    H130181   5.774   5.819   2.041 -1.3058  0.8096 -0.9329
 2874TIP3    H230182   5.667   5.712   2.046 -1.1839  0.6987 -0.6847
 2875TIP3   OH230183   5.918   6.154   4.363  0.3266  0.2560  0.0568
 2875TIP3    H130184   5.831   6.163   4.401  0.6230 -0.2559  0.8811
 2875TIP3    H230185   5.975   6.206   4.419  1.1210 -2.1623  1.6477
 2876TIP3   OH230186   2.090   5.361   4.389  0.1887 -0.4349 -0.4442
 2876TIP3    H130187   1.997   5.347   4.405  0.6661 -1.4531  1.8869
 2876TIP3    H230188   2.128   5.370   4.476  2.1884  0.7567 -1.3608
 2877TIP3   OH230189   0.807   4.655   2.601  0.3387 -0.3361  0.2992
 2877TIP3    H130190   0.855   4.584   2.560  1.0587  0.1656  0.2726
 2877TIP3    H230191   0.799   4.722   2.533  1.3246  0.3943  0.8878
 2878TIP3   OH230192   5.900   6.728   2.861 -0.3977 -0.2501 -0.0028
 2878TIP3    H130193   5.992   6.731   2.833 -0.4949 -1.6460 -0.5955
 2878TIP3    H230194   5.856   6.794   2.808 -0.2135 -1.5017 -1.8175
 2879TIP3   OH230195   5.231   3.148   3.523  0.4244  0.1248  0.0291
 2879TIP3    H130196   5.241   3.243   3.531 -1.4178  0.3638 -0.0181
 2879TIP3    H230197   5.137   3.133   3.532  0.8681 -1.9419  2.5617
 2880TIP3   OH230198   1.292   3.621   2.386 -0.0423  0.6471 -0.2071
 2880TIP3    H130199   1.340   3.538   2.392  1.1693  0.9672 -3.1815
 2880TIP3    H230200   1.354   3.686   2.420 -0.9620  0.4252  2.0492
 2881TIP3   OH230201   1.614   4.711   1.705 -0.6155 -0.2736 -0.2049
 2881TIP3    H130202   1.639   4.637   1.650 -0.7260 -0.7208  0.3355
 2881TIP3    H230203   1.545   4.676   1.761 -0.2773  0.0841  0.4368
 2882TIP3   OH230204   6.719   6.191   4.297 -0.1026 -0.3508  0.1300
 2882TIP3    H130205   6.658   6.248   4.343  0.8182  1.2204 -0.5254
 2882TIP3    H230206   6.704   6.104   4.334 -2.9849 -0.1026 -0.2845
 2883TIP3   OH230207   1.628   1.923   0.673  0.4548  0.2757  0.3410
 2883TIP3    H130208   1.597   2.010   0.649  0.5633  0.1446 -0.2768
 2883TIP3    H230209   1.680   1.894   0.598 -0.6923 -0.8593 -0.0514
 2884TIP3   OH230210   1.841   2.500   4.618  0.5540 -0.0446  0.5668
 2884TIP3    H130211   1.925   2.505   4.663  1.0420  0.3331 -0.3534
 2884TIP3    H230212   1.831   2.586   4.577  0.1951 -0.4259 -0.1591
 2885TIP3   OH230213   2.904   3.685   2.642 -0.8245 -0.4647 -0.2022
 2885TIP3    H130214   2.916   3.606   2.589  1.4380 -0.3493  0.0430
 2885TIP3    H230215   2.982   3.738   2.624 -1.6535  1.1141  0.6565
 2886TIP3   OH230216   4.532   2.027   2.370  0.0958  0.6115  0.4141
 2886TIP3    H130217   4.590   2.051   2.442 -0.3402  1.1978  0.5794
 2886TIP3    H230218   4.539   2.099   2.308  0.0158  0.3906  0.1452
 2887TIP3   OH230219   2.934   3.709   3.638  0.2862 -0.3512 -0.1839
 2887TIP3    H130220   2.939   3.804   3.652  0.6854 -0.2788 -0.7819
 2887TIP3    H230221   2.884   3.677   3.713 -0.6053  0.4321 -0.4307
 2888TIP3   OH230222   6.322   0.461   1.276 -0.3493 -0.4207 -0.2363
 2888TIP3    H130223   6.312   0.374   1.239  1.3788  0.1489 -2.2669
 2888TIP3    H230224   6.359   0.447   1.363  1.2177 -1.7081 -1.0694
 2889TIP3   OH230225   4.398   5.240   3.547  0.0637  0.6697  0.6451
 2889TIP3    H130226   4.344   5.306   3.503  0.1489 -1.5998 -3.3110
 2889TIP3    H230227   4.488   5.265   3.526  0.1095 -0.3234 -0.5073
 2890TIP3   OH230228   0.775   2.175   4.919  0.2656  0.0642  0.5599
 2890TIP3    H130229   0.832   2.206   4.989  0.7147  0.4905  0.0175
 2890TIP3    H230230   0.691   2.158   4.961  0.3204  1.0088  1.0634
 2891TIP3   OH230231   2.672   3.788   2.741  0.3100 -0.2823 -0.6568
 2891TIP3    H130232   2.687   3.881   2.722 -1.0889  0.2564  0.6325
 2891TIP3    H230233   2.747   3.743   2.703  3.1041  1.7305  1.9999
 2892TIP3   OH230234   1.734   5.141   1.035  0.3664  0.1560  0.4013
 2892TIP3    H130235   1.733   5.079   1.109  0.0486  1.2135  1.3221
 2892TIP3    H230236   1.826   5.161   1.022  0.5453 -1.1612 -0.4852
 2893TIP3   OH230237   1.646   0.554   1.186 -0.2587 -0.2101 -0.1731
 2893TIP3    H130238   1.694   0.625   1.228 -1.1153 -0.0487  0.5619
 2893TIP3    H230239   1.561   0.593   1.164 -0.7280 -1.0034  0.2251
 2894TIP3   OH230240   1.646   3.565   2.095 -0.2149  0.5915  0.0908
 2894TIP3    H130241   1.671   3.553   2.004 -1.0877  0.6995 -0.1634
 2894TIP3    H230242   1.729   3.582   2.140  0.3060 -0.2091 -0.5533
 2895TIP3   OH230243   3.112   5.210   0.122  0.1644 -0.3726 -0.5191
 2895TIP3    H130244   3.170   5.192   0.049 -1.6806  0.8605 -2.3884
 2895TIP3    H230245   3.137   5.298   0.152 -0.6030  0.1158 -1.2586
 2896TIP3   OH230246   0.812   3.648   4.245 -0.0490  0.6193  0.4869
 2896TIP3    H130247   0.797   3.645   4.339  0.2296  0.3740  0.5229
 2896TIP3    H230248   0.825   3.741   4.226  1.1605  0.5434  0.8916
 2897TIP3   OH230249   6.377   3.765   4.038 -0.2110  0.4507 -0.2667
 2897TIP3    H130250   6.351   3.673   4.040  2.9325 -0.6477 -2.2882
 2897TIP3    H230251   6.341   3.798   3.955  0.8282  0.2404 -0.8192
 2898TIP3   OH230252   5.460   6.636   1.366 -0.2585  0.5604  0.1386
 2898TIP3    H130253   5.416   6.552   1.359  1.8779 -0.5126 -1.8330
 2898TIP3    H230254   5.530   6.622   1.430  0.2921  0.7323 -0.4157
 2899TIP3   OH230255   4.775   1.828   1.449 -0.0829  0.3778 -0.4683
 2899TIP3    H130256   4.735   1.797   1.531 -0.6291 -0.7016 -1.1156
 2899TIP3    H230257   4.793   1.748   1.400  0.8967  0.9775 -1.1125
 2900TIP3   OH230258   2.105   2.532   2.339 -0.6510 -0.2002 -0.3600
 2900TIP3    H130259   2.090   2.622   2.310 -4.7150 -0.3222  0.7861
 2900TIP3    H230260   2.191   2.535   2.382 -0.2145  2.8416 -1.2174
 2901TIP3   OH230261   4.788   0.214   0.698  0.4956 -0.2924  0.0852
 2901TIP3    H130262   4.708   0.253   0.732  0.4123 -0.8684  0.5847
 2901TIP3    H230263   4.770   0.119   0.700  1.6623 -0.5176  1.4885
 2902TIP3   OH230264   5.615   5.712   1.281  0.3350  0.4547  0.7304
 2902TIP3    H130265   5.519   5.707   1.283  0.2157  0.9196 -1.7258
 2902TIP3    H230266   5.636   5.785   1.339 -0.7046 -0.2303  2.0304
 2903TIP3   OH230267   3.917   2.364   1.478  0.1046  0.3719 -0.4129
 2903TIP3    H130268   3.842   2.306   1.491  0.1184  0.2471 -0.8591
 2903TIP3    H230269   3.893   2.420   1.404  1.6556 -1.8044 -2.7542
 2904TIP3   OH230270   4.290   6.374   4.016  0.7466  0.4969 -0.0241
 2904TIP3    H130271   4.337   6.391   4.097  0.8661  0.5800 -0.1109
 2904TIP3    H230272   4.237   6.297   4.034  0.0369  1.0808  0.4441
 2905TIP3   OH230273   3.963   5.901   3.348  0.0908  0.6822  0.3046
 2905TIP3    H130274   4.050   5.861   3.348 -0.6634 -1.0540 -0.1771
 2905TIP3    H230275   3.923   5.870   3.429 -0.8758 -0.4551 -0.5737
 2906TIP3   OH230276   2.365   6.717   3.695  0.2265 -0.6308  0.1849
 2906TIP3    H130277   2.418   6.719   3.775  0.3201 -0.2392  0.1167
 2906TIP3    H230278   2.280   6.683   3.723 -0.0386  0.3654  0.6393
 2907TIP3   OH230279   5.720   4.929   0.680  0.6915  0.0941  0.0293
 2907TIP3    H130280   5.757   5.010   0.644  0.6810 -0.5716 -1.5554
 2907TIP3    H230281   5.778   4.907   0.753  0.3555  1.8290  0.8910
 2908TIP3   OH230282   5.751   0.044   1.118 -0.7315  0.5884 -0.1744
 2908TIP3    H130283   5.666   0.003   1.130 -0.1706 -0.6805 -0.4104
 2908TIP3    H230284   5.791   0.041   1.206  0.4997 -2.1775 -0.7188
 2909TIP3   OH230285   5.712   5.937   2.634 -0.2767 -0.5612 -0.8777
 2909TIP3    H130286   5.694   5.953   2.727 -1.6238  1.3345 -1.3922
 2909TIP3    H230287   5.806   5.922   2.630  0.2715  1.9163  0.5413
 2910TIP3   OH230288   1.749   4.211   3.247 -0.4672 -0.5436  0.4167
 2910TIP3    H130289   1.657   4.190   3.236 -0.0385 -3.0153  1.0276
 2910TIP3    H230290   1.782   4.223   3.158 -1.3558  0.5247  0.2036
 2911TIP3   OH230291   0.930   5.678   1.788 -0.5116  0.3995 -0.0493
 2911TIP3    H130292   0.913   5.666   1.882 -1.8375 -2.0393 -0.4979
 2911TIP3    H230293   0.949   5.590   1.756 -0.3981  1.1336 -2.1385
 2912TIP3   OH230294   5.649   4.057   0.961  0.0010  0.1480 -0.0539
 2912TIP3    H130295   5.575   4.006   0.994 -0.0932  0.0329 -0.4387
 2912TIP3    H230296   5.726   4.016   1.000 -0.1582  0.4849  0.6278
 2913TIP3   OH230297   5.241   6.651   4.510  0.0114 -0.4194 -0.3795
 2913TIP3    H130298   5.176   6.668   4.578  0.4789  0.7575 -0.2039
 2913TIP3    H230299   5.296   6.730   4.509  0.2022 -0.5390 -1.8992
 2914TIP3   OH230300   6.287   3.518   3.933  0.0102  1.0021  0.0985
 2914TIP3    H130301   6.292   3.493   3.841  0.8069  1.0390  0.1199
 2914TIP3    H230302   6.194   3.520   3.953 -0.1422 -1.3944 -0.0589
 2915TIP3   OH230303   4.931   3.229   4.754  0.5037  0.1788  0.2253
 2915TIP3    H130304   4.995   3.158   4.752  0.0668 -0.2484  0.8897
 2915TIP3    H230305   4.847   3.186   4.735  0.5969  0.9934 -2.3310
 2916TIP3   OH230306   1.183   3.840   0.244  0.4197 -0.3440  0.7164
 2916TIP3    H130307   1.200   3.766   0.185  2.5183 -0.0591  0.8859
 2916TIP3    H230308   1.161   3.912   0.186  1.0047 -0.4476  0.3513
 2917TIP3   OH230309   0.168   5.524   4.668 -0.4434 -0.4745 -0.1525
 2917TIP3    H130310   0.259   5.552   4.657 -0.7968  0.7772 -0.0292
 2917TIP3    H230311   0.147   5.543   4.759 -1.2204  0.5075 -0.5105
 2918TIP3   OH230312   1.808   0.534   4.244  0.0886  1.1622 -0.3874
 2918TIP3    H130313   1.832   0.616   4.287  3.1922 -0.1252  0.6861
 2918TIP3    H230314   1.766   0.482   4.312 -1.2520  1.5449 -0.8834
 2919TIP3   OH230315   0.873   3.459   4.899 -0.0987  0.1320  0.3352
 2919TIP3    H130316   0.802   3.396   4.890 -0.2575  0.5716 -2.0366
 2919TIP3    H230317   0.868   3.513   4.820  2.7475  0.2869  0.1492
 2920TIP3   OH230318   1.814   2.780   3.297  0.0492  0.2012 -0.0508
 2920TIP3    H130319   1.781   2.854   3.349  1.7735  0.2814  1.0418
 2920TIP3    H230320   1.767   2.704   3.331  0.5456  0.3787  1.1043
 2921TIP3   OH230321   2.147   6.781   8.407  0.2569  0.4535 -0.1820
 2921TIP3    H130322   2.056   6.810   8.395  0.1627  0.7061  0.9990
 2921TIP3    H230323   2.157   6.709   8.345 -1.0325 -0.1562  0.2686
 2922TIP3   OH230324   1.080   1.392   2.505  0.2255 -0.1254  1.1403
 2922TIP3    H130325   1.054   1.463   2.446  0.9420 -1.0803 -0.3941
 2922TIP3    H230326   1.162   1.359   2.468 -0.4419 -2.1885  1.3954
 2923TIP3   OH230327   5.287   1.468   8.243 -0.2556 -0.4591 -0.6217
 2923TIP3    H130328   5.314   1.487   8.332 -0.6489 -0.7507 -0.4376
 2923TIP3    H230329   5.324   1.539   8.190 -0.3876 -0.0552 -0.1699
 2924TIP3   OH230330   6.776   6.835   2.910  0.1651 -0.3201  0.2749
 2924TIP3    H130331   6.720   6.910   2.888 -1.2449 -0.8426  1.8252
 2924TIP3    H230332   6.863   6.873   2.921 -0.5955  1.2222  1.5188
 2925TIP3   OH230333   2.623   4.229   4.485 -0.3150  0.1664  0.2989
 2925TIP3    H130334   2.676   4.153   4.460 -0.4973  0.2834 -0.4820
 2925TIP3    H230335   2.584   4.205   4.569  0.9276  0.0587  0.8617
 2926TIP3   OH230336   2.023   3.883   4.463 -0.3005 -0.2712 -0.2314
 2926TIP3    H130337   2.073   3.937   4.523  0.9733 -0.6221 -0.9507
 2926TIP3    H230338   1.952   3.847   4.517 -1.0265  1.8529  0.3124
 2927TIP3   OH230339   4.382   6.189   4.321  0.0973  0.7233  0.3225
 2927TIP3    H130340   4.380   6.198   4.226 -0.5323 -2.0853 -0.0229
 2927TIP3    H230341   4.459   6.134   4.339 -0.2371  0.5585  1.3316
 2928TIP3   OH230342   6.346   1.085   0.534  0.0584  0.1505 -0.3263
 2928TIP3    H130343   6.318   1.151   0.470  1.3796  1.4693  0.3847
 2928TIP3    H230344   6.421   1.043   0.492 -0.3695 -0.4567 -0.4969
 2929TIP3   OH230345   3.369   0.990   1.034  0.5730 -0.1733 -0.1769
 2929TIP3    H130346   3.434   1.012   0.967 -0.2042 -0.0519 -0.9048
 2929TIP3    H230347   3.391   0.900   1.060  1.5652  0.1652  0.2351
 2930TIP3   OH230348   5.249   1.972   4.411  0.3441  0.4574  0.7391
 2930TIP3    H130349   5.323   1.938   4.461  1.4009 -1.4476 -1.8584
 2930TIP3    H230350   5.171   1.937   4.455  1.2157 -0.9500  1.2233
 2931TIP3   OH230351   3.758   0.245   2.873  0.2078 -0.7391  0.3978
 2931TIP3    H130352   3.761   0.257   2.968  2.6505  4.3453  0.0290
 2931TIP3    H230353   3.851   0.239   2.848 -0.0802  2.0952 -1.8084
 2932TIP3   OH230354   2.268   5.338   4.181  0.2185 -0.5704 -0.3569
 2932TIP3    H130355   2.211   5.357   4.255 -0.5259 -2.3592 -0.4263
 2932TIP3    H230356   2.320   5.263   4.210  1.5756  0.1601 -0.8119
 2933TIP3   OH230357   0.220   0.959   3.739 -0.1109 -0.0082  0.4640
 2933TIP3    H130358   0.259   0.873   3.756 -3.3651 -1.8670 -0.5317
 2933TIP3    H230359   0.208   0.998   3.825  0.2378 -1.1531  1.0490
 2934TIP3   OH230360   6.640   1.409   2.421 -0.3208 -1.0090 -0.5641
 2934TIP3    H130361   6.688   1.342   2.469 -1.0369 -1.1187  0.0121
 2934TIP3    H230362   6.559   1.367   2.395 -0.9134 -0.2834  0.0682
 2935TIP3   OH230363   2.007   0.517   3.166  0.4302  0.4064 -0.0683
 2935TIP3    H130364   1.996   0.452   3.097  0.7177 -0.6361  0.8235
 2935TIP3    H230365   1.970   0.476   3.244  2.3078  0.4953  0.9493
 2936TIP3   OH230366   3.561   1.369   2.343 -0.0347  0.3734 -0.3962
 2936TIP3    H130367   3.594   1.440   2.288  1.0736  0.0820 -0.1226
 2936TIP3    H230368   3.610   1.377   2.425 -1.5763  0.7278  0.5292
 2937TIP3   OH230369   1.435   0.438   3.523  0.9245 -0.2245  0.2989
 2937TIP3    H130370   1.362   0.379   3.545  0.5988  0.1086  0.1345
 2937TIP3    H230371   1.510   0.400   3.568  0.6455 -0.5657  0.4916
 2938TIP3   OH230372   2.388   2.503   8.469  0.5092 -0.0378 -0.1107
 2938TIP3    H130373   2.394   2.584   8.521  0.1883  0.2348 -0.4924
 2938TIP3    H230374   2.478   2.469   8.468  0.9696  1.1372 -1.2516
 2939TIP3   OH230375   1.469   2.399   1.356 -0.0968  0.2605 -0.5784
 2939TIP3    H130376   1.474   2.304   1.353 -1.7667  0.1332 -0.4414
 2939TIP3    H230377   1.547   2.430   1.309  1.2414 -1.1402  0.6221
 2940TIP3   OH230378   0.102   3.486   1.156  0.1425  0.7314 -0.1813
 2940TIP3    H130379   0.166   3.415   1.163 -1.8909 -1.2283 -0.5458
 2940TIP3    H230380   0.109   3.533   1.239  0.7068 -0.6410  0.5750
 2941TIP3   OH230381   2.410   3.912   0.679  0.2107  0.4661 -0.2725
 2941TIP3    H130382   2.389   4.005   0.677 -0.4959  0.3131  0.0144
 2941TIP3    H230383   2.391   3.881   0.590 -2.3247  0.0057  0.3629
 2942TIP3   OH230384   0.377   3.675   1.027  0.3222 -0.1734 -0.0313
 2942TIP3    H130385   0.404   3.682   1.119 -0.3270  0.3710  0.1191
 2942TIP3    H230386   0.449   3.627   0.986  0.4392 -0.7754  0.8374
 2943TIP3   OH230387   4.791   5.104   2.184  0.7545  0.1901  0.3530
 2943TIP3    H130388   4.725   5.172   2.190  0.8131  0.2318  0.5407
 2943TIP3    H230389   4.852   5.122   2.256  1.5891  0.8028 -0.4804
 2944TIP3   OH230390   5.276   5.410   2.688  0.5171  0.4300  0.1517
 2944TIP3    H130391   5.180   5.409   2.692  0.4725  2.4818  1.7429
 2944TIP3    H230392   5.304   5.393   2.778  1.7489 -1.8472 -0.6039
 2945TIP3   OH230393   0.113   6.034   0.977 -0.6028  0.0420 -0.0794
 2945TIP3    H130394   0.060   6.076   1.045  1.4753  0.4477  1.3806
 2945TIP3    H230395   0.191   6.003   1.023  0.2892 -0.8305 -2.0740
 2946TIP3   OH230396   3.314   5.292   3.254  0.1504 -0.0664  0.1633
 2946TIP3    H130397   3.331   5.383   3.231 -1.6800  0.1965 -0.3037
 2946TIP3    H230398   3.325   5.288   3.349 -2.5515  1.3616  0.6157
 2947TIP3   OH230399   3.629   6.760   0.691 -0.0099  0.0861 -0.1449
 2947TIP3    H130400   3.583   6.693   0.742  0.3801  1.2234  1.8002
 2947TIP3    H230401   3.615   6.734   0.600  1.0004 -3.2363  0.4783
 2948TIP3   OH230402   6.736   6.483   1.065  0.3057 -0.5244 -0.3403
 2948TIP3    H130403   6.816   6.492   1.116 -0.6619 -0.9459  1.3374
 2948TIP3    H230404   6.695   6.403   1.098 -1.1561  0.0650 -0.6316
 2949TIP3   OH230405   2.213   5.871   2.743 -0.4248  0.0044  0.0787
 2949TIP3    H130406   2.296   5.857   2.698 -1.0302  2.2863 -1.9742
 2949TIP3    H230407   2.237   5.876   2.836  1.3570 -1.6664 -0.2309
 2950TIP3   OH230408   0.975   5.722   4.422  0.2336  0.0327  0.5295
 2950TIP3    H130409   0.901   5.672   4.456  0.8272 -0.6860  0.8228
 2950TIP3    H230410   0.950   5.813   4.431 -1.3991 -0.1985 -1.1610
 2951TIP3   OH230411   0.707   1.062   0.924 -0.5254 -0.2364  0.0955
 2951TIP3    H130412   0.709   1.057   0.828 -3.2655 -0.6443 -0.0320
 2951TIP3    H230413   0.703   1.156   0.942 -2.4985 -0.1796 -0.3868
 2952TIP3   OH230414   0.784   1.925   1.194  0.7186  0.3530 -0.8340
 2952TIP3    H130415   0.826   1.863   1.253 -0.9597 -1.6091 -1.6064
 2952TIP3    H230416   0.847   1.940   1.124  0.6066 -1.7178 -1.4285
 2953TIP3   OH230417   4.495   0.560   2.744 -0.2148  0.5527  0.0885
 2953TIP3    H130418   4.425   0.599   2.692  0.3712 -1.7574 -2.7140
 2953TIP3    H230419   4.574   0.574   2.693  0.8837  0.4223  1.6765
 2954TIP3   OH230420   1.076   4.136   2.533  0.0428 -0.2526  0.6481
 2954TIP3    H130421   1.038   4.084   2.603  1.4224  0.7479  2.2171
 2954TIP3    H230422   1.137   4.076   2.489 -2.1184 -1.4153 -0.9406
 2955TIP3   OH230423   4.258   1.840   2.995  0.4545  0.2064  0.4573
 2955TIP3    H130424   4.325   1.865   2.931 -0.4010  0.9354 -0.1744
 2955TIP3    H230425   4.307   1.828   3.076  1.4484  0.0699 -0.1400
 2956TIP3   OH230426   3.495   2.544   2.111 -0.3449 -0.2798  0.1265
 2956TIP3    H130427   3.446   2.463   2.100 -0.7244 -0.1753  0.9776
 2956TIP3    H230428   3.532   2.537   2.199 -2.6692  1.6814  1.3500
 2957TIP3   OH230429   6.329   4.486   3.240 -0.2943 -0.2701  0.7652
 2957TIP3    H130430   6.306   4.524   3.155  0.4764 -2.8072 -0.7042
 2957TIP3    H230431   6.414   4.445   3.225 -0.2718 -1.0311  2.7130
 2958TIP3   OH230432   2.064   3.807   2.267 -0.1314 -0.3610 -0.7213
 2958TIP3    H130433   2.080   3.899   2.247  0.1452 -0.0603  0.7891
 2958TIP3    H230434   1.990   3.783   2.212 -2.2513  1.6453  1.0546
 2959TIP3   OH230435   1.246   1.902   4.792  0.5037 -0.0955 -0.3149
 2959TIP3    H130436   1.311   1.879   4.726  0.0203 -1.4250 -0.3601
 2959TIP3    H230437   1.240   1.825   4.848 -0.4624  0.2934  0.1478
 2960TIP3   OH230438   4.823   4.312   3.336  0.4279  0.5023  0.4544
 2960TIP3    H130439   4.899   4.257   3.359  0.6666  1.1084  1.1602
 2960TIP3    H230440   4.806   4.362   3.416  0.7013  2.0265 -0.4130
 2961TIP3   OH230441   6.740   6.589   2.786  0.7052  0.5153  0.5406
 2961TIP3    H130442   6.753   6.679   2.816  1.7065  0.4533  0.3150
 2961TIP3    H230443   6.647   6.572   2.801  0.9344  0.8606  2.5704
 2962TIP3   OH230444   1.345   1.668   2.849 -0.7705 -0.0648  0.3492
 2962TIP3    H130445   1.325   1.700   2.937 -0.2970 -0.1290  0.4798
 2962TIP3    H230446   1.282   1.597   2.835  0.6850 -1.6871  1.5884
 2963TIP3   OH230447   0.175   3.314   3.733  0.7909  0.2345  0.3584
 2963TIP3    H130448   0.212   3.286   3.649 -1.4806  1.7774 -1.2950
 2963TIP3    H230449   0.202   3.406   3.740  1.2834  0.0113  1.5619
 2964TIP3   OH230450   5.340   1.508   8.534 -0.4187 -0.0653 -0.2562
 2964TIP3    H130451   5.278   1.509   8.606 -0.9103 -0.5375 -0.6625
 2964TIP3    H230452   5.417   1.554   8.567 -0.9419  0.4310  0.2846
 2965TIP3   OH230453   6.809   5.235   3.220 -0.3248 -0.0818 -0.4292
 2965TIP3    H130454   6.779   5.252   3.309  2.4330 -0.4097  0.6366
 2965TIP3    H230455   6.728   5.237   3.168 -2.0885 -0.3068  2.0873
 2966TIP3   OH230456   2.629   1.154   3.171  0.3211  0.4018  0.4790
 2966TIP3    H130457   2.716   1.126   3.143 -0.1330  0.6507 -1.3209
 2966TIP3    H230458   2.642   1.192   3.258  1.6206 -1.5970  1.2202
 2967TIP3   OH230459   3.587   2.507   3.841 -0.2285  0.3240 -0.3433
 2967TIP3    H130460   3.576   2.474   3.752  0.4358  1.3224 -0.8206
 2967TIP3    H230461   3.546   2.441   3.897  0.9486 -1.2361 -1.2415
 2968TIP3   OH230462   4.551   4.164   2.770  0.0473 -0.3635  0.1984
 2968TIP3    H130463   4.505   4.151   2.853  0.6481 -0.8856  0.4623
 2968TIP3    H230464   4.494   4.222   2.720 -1.0977 -1.3283  0.3410
 2969TIP3   OH230465   0.123   0.045   2.505  0.4074  0.5723  0.3703
 2969TIP3    H130466   0.126   0.089   2.421  0.0380 -0.6654 -0.3214
 2969TIP3    H230467   0.156   0.109   2.568  0.3291  1.6379 -0.6580
 2970TIP3   OH230468   5.175   6.577   0.787  0.0329 -0.0312 -0.3785
 2970TIP3    H130469   5.214   6.490   0.793 -0.4458 -0.3375 -1.4549
 2970TIP3    H230470   5.242   6.635   0.823  0.6749 -0.7595 -0.3551
 2971TIP3   OH230471   6.252   1.348   3.741  0.7069 -0.0121  0.1568
 2971TIP3    H130472   6.186   1.301   3.791  0.5778 -0.0431 -0.0412
 2971TIP3    H230473   6.222   1.438   3.739 -0.7111 -0.4527 -2.1247
 2972TIP3   OH230474   2.562   2.420   0.382 -0.6265  0.2368 -0.5196
 2972TIP3    H130475   2.473   2.415   0.347 -0.2954 -1.1249 -1.2575
 2972TIP3    H230476   2.559   2.491   0.446 -3.0399 -1.7234  1.7793
 2973TIP3   OH230477   0.877   0.502   0.526 -0.6033  0.7476  0.4648
 2973TIP3    H130478   0.790   0.487   0.487  0.1408 -1.4254 -0.5252
 2973TIP3    H230479   0.919   0.565   0.467 -1.0748  0.8821  0.2660
 2974TIP3   OH230480   4.326   2.550   1.077  0.3173  0.2073 -0.4705
 2974TIP3    H130481   4.289   2.478   1.127 -0.2214  0.4883 -0.4524
 2974TIP3    H230482   4.374   2.508   1.005  2.3912 -0.2657  1.0816
 2975TIP3   OH230483   6.616   4.130   0.482  0.3506 -0.1883 -0.1137
 2975TIP3    H130484   6.547   4.131   0.416 -1.4383  0.2601  1.6286
 2975TIP3    H230485   6.583   4.070   0.550  2.0801 -0.6108  0.4088
 2976TIP3   OH230486   5.966   2.679   2.140  0.6413 -0.4229  0.1472
 2976TIP3    H130487   5.965   2.765   2.183  1.7622 -0.9121  1.2021
 2976TIP3    H230488   5.965   2.616   2.212  1.1439 -1.2851 -0.5742
 2977TIP3   OH230489   1.462   0.210   0.335  1.0446 -0.1595 -0.6305
 2977TIP3    H130490   1.507   0.143   0.386  1.7996  0.0231 -1.0327
 2977TIP3    H230491   1.396   0.162   0.285 -0.6920 -0.1647  1.5476
 2978TIP3   OH230492   0.962   2.952   3.067 -0.1972 -0.1841 -0.2248
 2978TIP3    H130493   1.053   2.982   3.063  0.0283 -0.3654  2.1213
 2978TIP3    H230494   0.967   2.863   3.103 -1.2211 -0.9301 -1.8070
 2979TIP3   OH230495   5.558   5.394   2.594 -0.1701 -0.5446 -0.4155
 2979TIP3    H130496   5.578   5.413   2.503 -1.9333 -2.3252 -1.2357
 2979TIP3    H230497   5.463   5.398   2.600 -0.0293  1.5848  1.8870
 2980TIP3   OH230498   2.896   4.568   2.804  0.3053  0.2345  0.1885
 2980TIP3    H130499   2.938   4.580   2.719  1.3153  2.0932  0.8913
 2980TIP3    H230500   2.954   4.509   2.851  0.6936  0.6115  0.1901
 2981TIP3   OH230501   0.919   6.046   0.656 -0.0143 -1.2020 -0.0618
 2981TIP3    H130502   0.878   6.095   0.728 -0.4445 -1.2127 -0.2955
 2981TIP3    H230503   0.969   6.111   0.608 -0.0363 -1.1193  0.0278
 2982TIP3   OH230504   0.939   0.407   3.156  0.5857  0.5116  0.0448
 2982TIP3    H130505   0.957   0.482   3.212  0.5233  1.4328 -1.1240
 2982TIP3    H230506   0.941   0.332   3.215  1.5872  1.3165  1.0859
 2983TIP3   OH230507   4.029   4.244   1.911  0.4941 -0.7577  0.1872
 2983TIP3    H130508   4.051   4.316   1.971 -1.9398 -0.6519  1.0856
 2983TIP3    H230509   4.098   4.179   1.926  1.5928  0.5062  0.8968
 2984TIP3   OH230510   1.726   2.285   1.076 -0.5888 -0.2294  0.2507
 2984TIP3    H130511   1.706   2.376   1.057  0.4386  0.0516  0.4380
 2984TIP3    H230512   1.663   2.260   1.145 -0.5405  0.4940  0.5655
 2985TIP3   OH230513   4.065   6.461   0.907  0.0487 -0.4841 -0.0824
 2985TIP3    H130514   4.001   6.532   0.908 -0.1756 -0.6854  0.1784
 2985TIP3    H230515   4.019   6.387   0.947  0.5426 -0.5473  0.3947
 2986TIP3   OH230516   2.052   1.541   1.438 -0.7669 -0.1216 -0.5602
 2986TIP3    H130517   2.018   1.629   1.451 -1.8200 -0.4261 -1.1747
 2986TIP3    H230518   2.087   1.542   1.349  0.0588 -0.0698 -0.2462
 2987TIP3   OH230519   2.490   0.201   0.727  0.5037  0.4497  0.0724
 2987TIP3    H130520   2.474   0.250   0.807  0.9904 -2.0882  1.8294
 2987TIP3    H230521   2.434   0.124   0.734  1.7344 -0.6247 -1.2433
 2988TIP3   OH230522   1.385   2.286   4.222  0.0510  0.1022  0.5547
 2988TIP3    H130523   1.305   2.318   4.264 -0.3815 -2.1766  1.5973
 2988TIP3    H230524   1.447   2.358   4.232 -1.0226  0.8561  2.2798
 2989TIP3   OH230525   5.340   3.726   3.246  0.4845 -0.1807 -0.2459
 2989TIP3    H130526   5.311   3.816   3.262 -1.3786 -0.5094 -1.4320
 2989TIP3    H230527   5.436   3.732   3.244  0.4747  1.4531  1.3556
 2990TIP3   OH230528   0.340   0.949   2.960  0.1404  0.3638 -0.3866
 2990TIP3    H130529   0.323   0.871   3.013  1.1890 -0.4761 -1.2284
 2990TIP3    H230530   0.380   1.011   3.020 -0.8718  0.3330  0.3362
 2991TIP3   OH230531   3.215   1.795   4.063 -0.1309 -1.0066 -0.4678
 2991TIP3    H130532   3.219   1.778   4.157  1.7940 -0.3710 -0.3766
 2991TIP3    H230533   3.124   1.819   4.046 -0.1365  0.7416  1.5879
 2992TIP3   OH230534   1.336   1.525   4.289  0.3282 -0.2748 -0.0701
 2992TIP3    H130535   1.290   1.608   4.279 -0.5184 -0.6556  0.5732
 2992TIP3    H230536   1.379   1.511   4.204  1.5441  1.4207  0.2097
 2993TIP3   OH230537   1.928   3.688   2.053  0.1561  0.5541 -0.1587
 2993TIP3    H130538   2.021   3.710   2.040 -0.2822  1.9256 -1.1593
 2993TIP3    H230539   1.913   3.613   1.997  0.8457 -0.1929  0.6280
 2994TIP3   OH230540   5.902   2.760   4.949 -0.5694 -0.0551  0.0775
 2994TIP3    H130541   5.868   2.693   4.890 -0.0906 -0.7102  0.5403
 2994TIP3    H230542   5.994   2.737   4.962 -0.2604  0.9710 -0.1495
 2995TIP3   OH230543   5.633   1.395   1.296 -0.4021 -0.2549 -0.0977
 2995TIP3    H130544   5.725   1.408   1.319 -0.1628  0.3075 -1.3125
 2995TIP3    H230545   5.587   1.467   1.338 -0.2533 -0.3897  0.2975
 2996TIP3   OH230546   6.675   6.737   2.372 -0.0305 -0.0699 -0.5076
 2996TIP3    H130547   6.763   6.700   2.382  0.1757  0.3115 -0.8362
 2996TIP3    H230548   6.691   6.827   2.342 -0.5170  0.3243  0.3827
 2997TIP3   OH230549   2.638   1.617   0.463  0.0227  0.6704  0.0896
 2997TIP3    H130550   2.667   1.597   0.374 -0.9935  0.6961 -0.2624
 2997TIP3    H230551   2.718   1.645   0.508  0.7111 -0.1904 -0.5617
 2998TIP3   OH230552   0.388   5.491   1.592 -0.5710  0.1446 -0.8626
 2998TIP3    H130553   0.366   5.418   1.533 -0.0914 -0.3126 -0.4872
 2998TIP3    H230554   0.483   5.500   1.584 -0.4931  0.0473 -0.1239
 2999TIP3   OH230555   5.067   2.813   1.097 -0.1145 -0.0571 -0.0564
 2999TIP3    H130556   5.038   2.735   1.050 -1.3211 -0.4503  1.2820
 2999TIP3    H230557   5.086   2.877   1.028  0.3225 -1.3107 -1.1487
 3000TIP3   OH230558   1.915   1.810   3.286  0.0780  0.1928  0.0452
 3000TIP3    H130559   1.960   1.880   3.239 -0.1510  0.7283  0.6064
 3000TIP3    H230560   1.982   1.743   3.301  0.5445  0.7191  0.3453
 3001TIP3   OH230561   0.600   1.455   8.481 -0.0230  0.3414 -0.3438
 3001TIP3    H130562   0.615   1.364   8.506  2.1284  0.6264 -0.4240
 3001TIP3    H230563   0.504   1.463   8.476 -0.2613 -2.1262 -1.2015
 3002TIP3   OH230564   4.491   4.801   2.805  0.1973  0.1683  0.4345
 3002TIP3    H130565   4.480   4.859   2.729 -1.8806 -0.3528  0.2807
 3002TIP3    H230566   4.514   4.717   2.767  0.0342  0.1248  0.4301
 3003TIP3   OH230567   2.140   0.226   0.932  0.4665 -0.1162  0.4632
 3003TIP3    H130568   2.136   0.137   0.896 -0.0895  0.2957 -0.5451
 3003TIP3    H230569   2.123   0.282   0.856 -1.0998  0.7786  1.4402
 3004TIP3   OH230570   1.201   2.606   3.580  0.7228 -0.4481  0.1768
 3004TIP3    H130571   1.240   2.691   3.562 -0.6712 -0.1644 -1.7289
 3004TIP3    H230572   1.274   2.554   3.615  2.3707  0.6081 -1.4845
 3005TIP3   OH230573   6.251   6.365   1.588 -0.2748  0.9550 -0.3212
 3005TIP3    H130574   6.188   6.412   1.643  0.5994  1.4640  0.2600
 3005TIP3    H230575   6.331   6.418   1.592  0.2855  0.1657 -0.8090
 3006TIP3   OH230576   6.636   2.589   4.088 -0.0514 -0.3204  0.3168
 3006TIP3    H130577   6.658   2.681   4.095 -0.8162 -0.2108  1.6382
 3006TIP3    H230578   6.716   2.547   4.057  0.3495  0.7584 -0.1428
 3007TIP3   OH230579   3.623   0.233   3.649  0.4860  0.4779  0.6893
 3007TIP3    H130580   3.545   0.235   3.594  0.6195 -4.0590 -0.0758
 3007TIP3    H230581   3.692   0.199   3.592  2.0863  0.9266  2.2787
 3008TIP3   OH230582   0.394   1.077   3.541 -0.0675 -0.1431  0.2180
 3008TIP3    H130583   0.329   1.007   3.549 -1.3173  0.7293 -1.7106
 3008TIP3    H230584   0.355   1.151   3.588 -0.4832  0.3794 -0.9327
 3009TIP3   OH230585   1.477   0.552   2.037 -0.0518 -0.1449  0.2911
 3009TIP3    H130586   1.416   0.625   2.024  0.8444  0.5066 -0.3656
 3009TIP3    H230587   1.437   0.480   1.988  0.5350  0.7673 -1.6290
 3010TIP3   OH230588   1.813   1.618   3.081  0.0427 -0.3148 -0.1300
 3010TIP3    H130589   1.890   1.664   3.114  0.1630 -0.5582 -0.0700
 3010TIP3    H230590   1.847   1.561   3.011  0.2049 -1.6883  1.0157
 3011TIP3   OH230591   4.851   2.580   1.997  0.0064  0.4103  0.2159
 3011TIP3    H130592   4.945   2.597   2.003 -0.1590  1.5566 -0.1949
 3011TIP3    H230593   4.836   2.557   1.906 -0.2094  0.9326  0.1151
 3012TIP3   OH230594   2.559   4.824   3.107 -0.3383 -0.2700  0.2318
 3012TIP3    H130595   2.591   4.817   3.017 -0.6805  0.4721  0.0471
 3012TIP3    H230596   2.526   4.736   3.127  2.0647 -1.1660  0.5553
 3013TIP3   OH230597   6.182   6.904   3.077  0.2107 -0.2439  0.2923
 3013TIP3    H130598   6.243   6.849   3.126 -0.1061 -0.1317  0.8217
 3013TIP3    H230599   6.096   6.877   3.108 -0.1008 -1.2884 -1.3426
 3014TIP3   OH230600   4.345   3.745   2.518 -0.5045 -0.9955 -0.2395
 3014TIP3    H130601   4.420   3.760   2.576 -0.9038 -1.1897  0.3465
 3014TIP3    H230602   4.376   3.680   2.455 -0.4709 -1.8498  0.6201
 3015TIP3   OH230603   1.590   2.473   1.718 -0.0494  0.1357  0.6508
 3015TIP3    H130604   1.582   2.558   1.676  0.3796  1.0512  2.3060
 3015TIP3    H230605   1.559   2.488   1.808  0.8586 -1.2187  1.2237
 3016TIP3   OH230606   0.425   3.739   1.336  0.0387 -0.0657  0.0614
 3016TIP3    H130607   0.330   3.746   1.348 -0.3071  0.5185 -2.4253
 3016TIP3    H230608   0.459   3.720   1.424 -2.0209  3.0640  1.7356
 3017TIP3   OH230609   2.952   6.881   1.207 -0.1732  0.0874  0.3355
 3017TIP3    H130610   3.046   6.878   1.185  0.3911 -2.0508  2.6355
 3017TIP3    H230611   2.920   6.959   1.162  2.3797  0.1051 -1.6984
 3018TIP3   OH230612   1.164   3.300   0.453 -0.0081  0.4495  0.0383
 3018TIP3    H130613   1.231   3.361   0.423 -0.6331  0.0646 -2.3311
 3018TIP3    H230614   1.116   3.348   0.520  1.3476  1.4624  0.3260
 3019TIP3   OH230615   5.574   1.662   0.093 -0.2048 -0.0256 -0.1919
 3019TIP3    H130616   5.547   1.739   0.044  0.2672 -0.7934 -1.7206
 3019TIP3    H230617   5.602   1.696   0.178 -0.1936  1.4651 -0.7703
 3020TIP3   OH230618   3.681   5.010   1.893 -0.9761 -0.5680  0.1113
 3020TIP3    H130619   3.623   5.015   1.970 -0.2879 -0.6011  0.6455
 3020TIP3    H230620   3.665   5.091   1.846 -2.1629 -0.9975 -0.2782
 3021TIP3   OH230621   5.752   2.275   0.463  0.2144  0.3066 -0.1895
 3021TIP3    H130622   5.831   2.273   0.519  0.2673 -0.4993 -0.2789
 3021TIP3    H230623   5.782   2.242   0.379 -0.1765  0.1710 -0.2780
 3022TIP3   OH230624   6.389   1.104   1.587  1.0041  0.7120 -0.0846
 3022TIP3    H130625   6.334   1.035   1.550  0.4561  1.2833 -0.3505
 3022TIP3    H230626   6.414   1.070   1.673 -2.3273  1.6612  1.4331
 3023TIP3   OH230627   1.816   4.259   0.077 -0.7017  0.3260  0.0472
 3023TIP3    H130628   1.770   4.343   0.070  1.4893  1.6295  0.4556
 3023TIP3    H230629   1.749   4.198   0.107 -2.2469  2.0372  0.2742
 3024TIP3   OH230630   4.447   0.536   4.058 -0.0013 -0.2023  0.2358
 3024TIP3    H130631   4.513   0.593   4.097 -1.6841  2.0090  0.0045
 3024TIP3    H230632   4.425   0.578   3.975 -2.8324  0.0530  1.0246
 3025TIP3   OH230633   5.327   1.238   8.522  0.1962 -0.2744 -0.5502
 3025TIP3    H130634   5.361   1.320   8.558 -0.8374 -0.3296  0.5824
 3025TIP3    H230635   5.368   1.170   8.575 -1.4315 -0.3499  0.6786
 3026TIP3   OH230636   4.897   5.428   3.698 -0.5664  0.3377 -0.6396
 3026TIP3    H130637   4.972   5.424   3.757 -0.5861  1.2644 -0.5358
 3026TIP3    H230638   4.832   5.369   3.738 -0.5782  0.9438  0.2650
 3027TIP3   OH230639   5.150   3.902   4.875 -0.2418  0.6051 -0.5686
 3027TIP3    H130640   5.061   3.905   4.838 -0.0848  1.7803 -0.9038
 3027TIP3    H230641   5.138   3.924   4.967 -0.2757  1.0453 -0.6751
 3028TIP3   OH230642   0.869   0.935   3.093 -0.1333  0.3571 -0.2978
 3028TIP3    H130643   0.843   0.975   3.010 -1.8545  0.3502  0.2086
 3028TIP3    H230644   0.854   1.003   3.159  0.5067  0.1197  0.1031
 3029TIP3   OH230645   1.963   0.922   4.285 -0.0156  0.2702  0.7019
 3029TIP3    H130646   1.914   0.855   4.333  2.5391 -0.5422  2.3429
 3029TIP3    H230647   1.924   0.922   4.198 -2.4070 -0.8188  1.6790
 3030TIP3   OH230648   6.424   5.729   1.742  0.4650  0.4162  0.1790
 3030TIP3    H130649   6.472   5.715   1.823 -0.8143  1.2025  1.1186
 3030TIP3    H230650   6.371   5.808   1.759  0.9610  1.2280 -1.7972
 3031TIP3   OH230651   4.404   6.213   3.084 -0.0413 -0.0589  0.5226
 3031TIP3    H130652   4.399   6.219   3.179  0.3820 -0.0795  0.5490
 3031TIP3    H230653   4.425   6.122   3.066 -1.3165 -0.3350  0.3483
 3032TIP3   OH230654   4.418   0.864   1.257 -0.0903 -0.2729  0.3674
 3032TIP3    H130655   4.361   0.926   1.304 -0.6558 -0.9167  0.5494
 3032TIP3    H230656   4.444   0.801   1.324  0.1533 -0.4681  0.0909
 3033TIP3   OH230657   5.211   0.006   1.590 -0.2008  0.3241  0.1443
 3033TIP3    H130658   5.305  -0.011   1.589 -0.2143 -0.2592  2.4975
 3033TIP3    H230659   5.204   0.101   1.581  0.5902  0.3384 -0.4003
 3034TIP3   OH230660   3.710   4.476   1.603 -0.2810  0.1251 -0.5677
 3034TIP3    H130661   3.731   4.526   1.682 -0.7067 -1.1219  0.3550
 3034TIP3    H230662   3.615   4.473   1.601 -0.2705 -1.5906  0.0226
 3035TIP3   OH230663   5.578   4.497   2.672  0.5970 -0.1692  0.3902
 3035TIP3    H130664   5.489   4.467   2.690  0.3122  0.7210  0.5457
 3035TIP3    H230665   5.619   4.504   2.758  0.2035  1.2017  0.4936
 3036TIP3   OH230666   3.238   2.887   1.187 -0.1651  0.0357  0.6502
 3036TIP3    H130667   3.233   2.983   1.193  1.5868  0.1246  1.4467
 3036TIP3    H230668   3.223   2.869   1.094  0.1895  1.1523  0.3500
 3037TIP3   OH230669   5.789   4.137   3.824 -0.1874 -0.2368  0.1981
 3037TIP3    H130670   5.734   4.075   3.776 -2.0004  0.7827  0.8317
 3037TIP3    H230671   5.755   4.134   3.913  0.8655  0.3901  0.6371
 3038TIP3   OH230672   0.267   6.131   3.344 -0.0159  0.0485 -0.0099
 3038TIP3    H130673   0.361   6.123   3.364 -0.1163 -0.6427  0.1945
 3038TIP3    H230674   0.260   6.215   3.298  0.3311  1.3276  2.1560
 3039TIP3   OH230675   5.402   2.701   1.592 -0.1737 -0.2033  0.1545
 3039TIP3    H130676   5.435   2.643   1.523 -0.9419  0.2863 -0.6436
 3039TIP3    H230677   5.456   2.779   1.586 -1.6312  0.7598 -1.4106
 3040TIP3   OH230678   4.876   5.500   2.228 -0.4008 -0.1927 -0.6743
 3040TIP3    H130679   4.862   5.591   2.253 -0.0393  0.0861 -1.4524
 3040TIP3    H230680   4.870   5.451   2.310  0.4176  0.6566 -0.0835
 3041TIP3   OH230681   2.897   0.567   3.580 -0.1280  0.0999 -0.0966
 3041TIP3    H130682   2.830   0.498   3.585 -1.0487  0.9329 -0.5730
 3041TIP3    H230683   2.850   0.643   3.547  0.7467  1.1392  0.9931
 3042TIP3   OH230684   3.835   6.635   0.902  0.4324  0.1265 -0.1591
 3042TIP3    H130685   3.845   6.729   0.918  0.7647 -0.1436  1.4683
 3042TIP3    H230686   3.789   6.629   0.819  1.2281  1.7083 -0.7476
 3043TIP3   OH230687   1.467   0.805   2.739  0.4217  0.5415  0.0724
 3043TIP3    H130688   1.385   0.803   2.691  0.2786 -0.9823  0.3337
 3043TIP3    H230689   1.447   0.852   2.820 -0.4520 -0.5982  0.5440
 3044TIP3   OH230690   2.528   6.142   0.180  0.3587  0.3179  0.2434
 3044TIP3    H130691   2.470   6.192   0.122  0.2213 -0.8990 -0.6945
 3044TIP3    H230692   2.471   6.076   0.220  0.9360 -0.4197 -0.1247
 3045TIP3   OH230693   2.601   3.464   1.485 -0.5318 -0.6436  0.2989
 3045TIP3    H130694   2.535   3.455   1.417  0.8197  0.1427 -1.1638
 3045TIP3    H230695   2.645   3.379   1.487  0.8409 -0.0367 -1.3882
 3046TIP3   OH230696   3.745   0.443   2.318  0.4406 -0.7601 -0.5337
 3046TIP3    H130697   3.666   0.411   2.275 -0.4214  1.0436 -0.3508
 3046TIP3    H230698   3.717   0.462   2.408  0.4658  1.9207 -1.0125
 3047TIP3   OH230699   1.419   1.341   3.033 -0.7361  0.4282 -0.0527
 3047TIP3    H130700   1.372   1.286   3.095  0.3689 -0.2305  0.2239
 3047TIP3    H230701   1.462   1.408   3.087 -0.0303  0.0416 -0.1166
 3048TIP3   OH230702   1.245   2.834   4.619 -0.3098  0.3282 -0.0547
 3048TIP3    H130703   1.289   2.763   4.665  0.9822  1.4075  0.4512
 3048TIP3    H230704   1.153   2.826   4.644 -0.0421 -0.6373  0.6719
 3049TIP3   OH230705   6.229   0.853   3.662 -0.6832 -0.0340  0.4035
 3049TIP3    H130706   6.137   0.878   3.658 -0.8834 -0.9412 -1.9752
 3049TIP3    H230707   6.268   0.892   3.584  0.0284 -2.9295 -0.8280
 3050TIP3   OH230708   6.014   6.291   3.065  0.7022  0.5103 -0.4008
 3050TIP3    H130709   6.041   6.337   2.986  0.5776  1.3604  0.0401
 3050TIP3    H230710   6.073   6.216   3.071  0.0252 -0.1695 -1.8666
 3051TIP3   OH230711   3.926   0.673   2.270  0.3525  0.0213  0.5054
 3051TIP3    H130712   3.956   0.703   2.356 -0.0547  1.4497  0.1699
 3051TIP3    H230713   3.883   0.589   2.288 -0.1896  0.5417  1.7912
 3052TIP3   OH230714   1.434   4.056   0.717 -0.3794 -0.0970 -0.4896
 3052TIP3    H130715   1.447   3.985   0.780  0.1519  1.2329  0.9728
 3052TIP3    H230716   1.475   4.026   0.637  2.3027 -0.3681  0.8892
 3053TIP3   OH230717   1.848   3.541   2.366 -0.0323 -0.0098  0.4852
 3053TIP3    H130718   1.831   3.532   2.460  0.3162 -1.1866  0.4543
 3053TIP3    H230719   1.859   3.451   2.336  1.3640  0.4403 -0.3994
 3054TIP3   OH230720   1.055   0.797   2.876  0.9994  0.0048 -0.4726
 3054TIP3    H130721   0.961   0.777   2.882  0.8619  0.7438  0.0093
 3054TIP3    H230722   1.058   0.888   2.849  1.5585  0.3298  0.6132
 3055TIP3   OH230723   4.173   4.773   2.378 -0.1610  0.0370 -0.2430
 3055TIP3    H130724   4.186   4.848   2.437 -0.6295 -1.9214  2.5398
 3055TIP3    H230725   4.177   4.811   2.290  1.8062  2.9491  0.9536
 3056TIP3   OH230726   6.244   0.229   1.714 -0.7301 -0.1246  0.1385
 3056TIP3    H130727   6.275   0.201   1.801 -0.1156  2.8231  0.9724
 3056TIP3    H230728   6.324   0.249   1.666 -1.0968  1.8290  0.2481
 3057TIP3   OH230729   5.106   0.264   3.681  0.1116 -0.3369  0.2240
 3057TIP3    H130730   5.172   0.206   3.643  1.1820  0.6039  0.5911
 3057TIP3    H230731   5.073   0.314   3.606 -0.4704 -1.0757 -0.0202
 3058TIP3   OH230732   6.684   5.970   4.075 -0.5149 -0.3096  0.6477
 3058TIP3    H130733   6.652   6.060   4.082  0.6759  0.4515 -2.0498
 3058TIP3    H230734   6.765   5.969   4.125 -0.1397  0.3800  0.0761
 3059TIP3   OH230735   1.848   6.011   3.487  0.0398 -0.5044 -0.5006
 3059TIP3    H130736   1.767   5.970   3.457  0.4154  0.7242 -3.5841
 3059TIP3    H230737   1.863   6.083   3.426  1.2902  2.0412  2.5223
 3060TIP3   OH230738   1.571   4.457   1.975 -0.4018 -0.1058 -0.7201
 3060TIP3    H130739   1.505   4.431   2.038 -0.6376 -0.7293 -1.2163
 3060TIP3    H230740   1.548   4.410   1.895  0.3293  0.0909 -1.0545
 3061TIP3   OH230741   5.936   5.898   2.988 -0.0819 -0.0520  0.1233
 3061TIP3    H130742   5.900   5.874   3.073 -1.9631  0.0200 -0.6012
 3061TIP3    H230743   5.947   5.815   2.942  1.8264 -0.1703  0.7402
 3062TIP3   OH230744   5.773   3.995   3.380  0.1483 -0.0781  0.5094
 3062TIP3    H130745   5.796   4.003   3.288  1.2349 -0.1138  0.7589
 3062TIP3    H230746   5.778   4.084   3.414 -0.7653  0.0151  0.4361
 3063TIP3   OH230747   1.798   1.949   2.247 -0.4147  0.0411  0.8591
 3063TIP3    H130748   1.705   1.968   2.255 -0.4333  0.4016 -0.1138
 3063TIP3    H230749   1.831   2.015   2.186 -0.0792 -1.7843 -1.0187
 3064TIP3   OH230750   4.362   2.676   2.717 -0.5086 -0.3255  0.3947
 3064TIP3    H130751   4.339   2.624   2.794 -1.3601  0.8690  0.9714
 3064TIP3    H230752   4.292   2.658   2.654 -0.0792 -0.9079  0.0662
 3065TIP3   OH230753   5.732   6.056   2.895 -0.2956 -0.4115  0.3112
 3065TIP3    H130754   5.814   6.024   2.931 -0.8012 -1.3149  0.7005
 3065TIP3    H230755   5.713   6.135   2.945  1.2723  0.9138 -1.0627
 3066TIP3   OH230756   2.943   3.247   0.474 -0.5742 -0.8310  0.0052
 3066TIP3    H130757   2.867   3.240   0.532 -0.3090 -0.2450  0.4408
 3066TIP3    H230758   2.927   3.183   0.405 -2.5843  0.7805 -1.1675
 3067TIP3   OH230759   6.610   0.133   0.033 -0.2520  0.1956 -0.0591
 3067TIP3    H130760   6.527   0.085   0.037 -1.8233  2.3605 -2.8848
 3067TIP3    H230761   6.620   0.170   0.121 -0.7363 -2.3401  1.1628
 3068TIP3   OH230762   3.693   2.935   3.772 -0.0958 -0.0278  0.4416
 3068TIP3    H130763   3.765   2.892   3.818 -0.5046  0.8898  2.0320
 3068TIP3    H230764   3.615   2.887   3.802 -0.3635  0.5535  0.6812
 3069TIP3   OH230765   0.256   1.139   1.766 -0.0838  0.5289  0.2721
 3069TIP3    H130766   0.251   1.234   1.777  1.1383  0.3847  2.9345
 3069TIP3    H230767   0.167   1.108   1.781 -0.5007  1.2240 -0.6662
 3070TIP3   OH230768   0.077   1.323   3.190  0.0696  0.1108 -0.0874
 3070TIP3    H130769   0.117   1.355   3.110  1.4659 -0.9790  0.1350
 3070TIP3    H230770   0.116   1.376   3.260  0.6902 -0.5373  0.0724
 3071TIP3   OH230771   6.160   5.324   1.168 -0.2249 -0.1154  0.2623
 3071TIP3    H130772   6.222   5.380   1.121 -0.7817  0.7085  0.4946
 3071TIP3    H230773   6.075   5.345   1.129 -0.3999 -1.1118  0.0625
 3072TIP3   OH230774   4.101   1.460   3.505 -0.3217 -0.0030  0.1638
 3072TIP3    H130775   4.113   1.504   3.589  0.4430  2.3262 -1.0554
 3072TIP3    H230776   4.189   1.437   3.477 -0.5827 -0.9076  0.0610
 3073TIP3   OH230777   4.695   2.838   0.143 -0.5069 -0.1136  0.2702
 3073TIP3    H130778   4.749   2.814   0.069  1.1742  1.0776  1.0519
 3073TIP3    H230779   4.641   2.911   0.111 -1.6813 -1.2769 -0.4947
 3074TIP3   OH230780   6.441   2.011   3.141  0.8053  0.3015  0.3382
 3074TIP3    H130781   6.503   2.049   3.078  0.1009  0.5173 -0.2386
 3074TIP3    H230782   6.406   1.934   3.097  1.5981 -0.5672  1.1731
 3075TIP3   OH230783   0.725   0.262   2.115 -0.3067  0.4428 -0.2039
 3075TIP3    H130784   0.803   0.308   2.145 -0.1097  0.5140 -0.8167
 3075TIP3    H230785   0.733   0.260   2.020 -0.5784 -0.3879 -0.2159
 3076TIP3   OH230786   5.747   0.915   3.411 -0.2711 -0.7538  0.0321
 3076TIP3    H130787   5.694   0.836   3.422 -1.9314  0.1583 -0.9653
 3076TIP3    H230788   5.806   0.895   3.338 -1.7703 -0.5942 -1.2854
 3077TIP3   OH230789   0.620   0.758   3.186  0.0927 -0.0283  0.2278
 3077TIP3    H130790   0.585   0.755   3.275 -0.9210  1.2972 -0.1019
 3077TIP3    H230791   0.702   0.806   3.195  2.3336 -3.6590  1.1007
 3078TIP3   OH230792   0.660   2.667   1.909 -0.0494  0.0514  0.1811
 3078TIP3    H130793   0.686   2.586   1.952 -1.0560 -0.1223  0.5008
 3078TIP3    H230794   0.705   2.665   1.825 -0.8317 -1.3505 -0.2471
 3079TIP3   OH230795   2.972   5.467   0.836 -0.3013 -0.5470  0.0745
 3079TIP3    H130796   2.959   5.381   0.876 -0.7651 -0.0523  1.0155
 3079TIP3    H230797   2.961   5.451   0.742 -0.8499 -1.4252  0.2754
 3080TIP3   OH230798   1.232   1.202   8.405  0.4368 -0.6024 -0.2188
 3080TIP3    H130799   1.324   1.221   8.425  0.3013 -0.5165  0.3390
 3080TIP3    H230800   1.227   1.209   8.310  1.1370 -1.1703 -0.3140
 3081TIP3   OH230801   5.537   1.571   0.468  0.6707 -0.2929  0.1162
 3081TIP3    H130802   5.607   1.616   0.421  0.5614 -0.7382 -0.4906
 3081TIP3    H230803   5.494   1.640   0.519  1.0157  0.1364 -0.1627
 3082TIP3   OH230804   5.479   5.611   3.749 -0.1331 -0.4116  0.1767
 3082TIP3    H130805   5.500   5.549   3.679 -2.3051 -0.6682 -0.3418
 3082TIP3    H230806   5.553   5.607   3.809  1.2265 -1.1223 -1.4610
 3083TIP3   OH230807   6.622   3.319   1.183 -0.2481 -0.0635 -0.3093
 3083TIP3    H130808   6.589   3.312   1.273 -0.4996 -2.1888 -0.5056
 3083TIP3    H230809   6.674   3.399   1.183  2.3599 -1.5081  2.6345
 3084TIP3   OH230810   3.933   0.716   4.561 -0.3316 -0.0411 -0.4907
 3084TIP3    H130811   3.992   0.642   4.576  0.2194  0.0726 -1.9672
 3084TIP3    H230812   3.991   0.790   4.543 -0.8877  0.6850  0.5592
 3085TIP3   OH230813   1.529   0.307   0.683  0.0235 -0.0287  0.3943
 3085TIP3    H130814   1.589   0.232   0.693 -0.1873 -0.0871  1.3239
 3085TIP3    H230815   1.442   0.270   0.697 -0.4494 -0.2607 -2.4773
 3086TIP3   OH230816   0.707   1.224   3.796 -0.7532  0.0409  0.1292
 3086TIP3    H130817   0.656   1.253   3.871 -1.6800 -0.0313 -0.4577
 3086TIP3    H230818   0.642   1.190   3.734  0.0796 -0.8794 -0.2754
 3087TIP3   OH230819   3.261   3.684   4.756  0.1335  0.0995  0.5736
 3087TIP3    H130820   3.167   3.679   4.735  0.0668 -0.2219  0.9390
 3087TIP3    H230821   3.280   3.778   4.757 -0.5130  0.2326  1.9050
 3088TIP3   OH230822   0.694   3.077   1.817 -0.0025  0.0315  0.5107
 3088TIP3    H130823   0.781   3.037   1.810  0.5612  1.2137  0.5359
 3088TIP3    H230824   0.692   3.143   1.748 -1.6296 -1.2486 -0.7767
 3089TIP3   OH230825   2.825   5.683   0.765  0.3650 -0.2778 -0.5794
 3089TIP3    H130826   2.791   5.652   0.681 -2.1085 -0.7630  0.5061
 3089TIP3    H230827   2.876   5.610   0.799 -0.4033 -0.8929 -0.7233
 3090TIP3   OH230828   2.846   6.089   2.254 -0.7863 -0.8615  0.3097
 3090TIP3    H130829   2.832   6.004   2.213 -2.5897 -0.0950 -0.8107
 3090TIP3    H230830   2.759   6.131   2.252  0.3187  1.5510 -0.4432
 3091TIP3   OH230831   4.449   3.353   1.628  0.3434 -0.2625 -0.0048
 3091TIP3    H130832   4.542   3.331   1.623  0.9292  1.8194  0.8833
 3091TIP3    H230833   4.424   3.371   1.537  1.1810  0.4930 -0.1016
 3092TIP3   OH230834   4.098   4.296   3.158 -0.4099  0.1284 -0.3377
 3092TIP3    H130835   4.039   4.265   3.227 -0.1776  2.4530  1.0198
 3092TIP3    H230836   4.046   4.291   3.078 -1.6117 -0.1635  0.4357
 3093TIP3   OH230837   0.652   6.014   2.064 -0.0627  0.3294  0.5767
 3093TIP3    H130838   0.699   6.077   2.118 -0.3496  0.0184  1.2089
 3093TIP3    H230839   0.689   6.023   1.977  1.0897  0.1685  1.0379
 3094TIP3   OH230840   2.888   3.057   2.936 -0.3440 -0.0364 -0.0881
 3094TIP3    H130841   2.868   3.112   2.860 -0.1689  0.3356  0.1339
 3094TIP3    H230842   2.806   3.051   2.984 -0.5995 -0.7206 -0.5837
 3095TIP3   OH230843   0.382   4.386   0.986 -0.3280  0.1420  0.0158
 3095TIP3    H130844   0.467   4.424   0.967 -0.9733  2.7416  1.7166
 3095TIP3    H230845   0.399   4.320   1.052  0.4502  0.0757 -0.2415
 3096TIP3   OH230846   0.295   6.380   3.227  0.3912 -0.4876  0.5336
 3096TIP3    H130847   0.216   6.431   3.242 -0.3350 -1.2754 -0.5270
 3096TIP3    H230848   0.348   6.434   3.168  0.9895  0.3539  1.7951
 3097TIP3   OH230849   0.328   6.854   3.770 -0.1734  0.3182  0.3978
 3097TIP3    H130850   0.308   6.858   3.864 -1.4532 -0.2653  0.1689
 3097TIP3    H230851   0.423   6.839   3.767 -0.2797 -0.8323  1.6404
 3098TIP3   OH230852   5.741   4.725   4.162 -0.0680  0.0274  0.2160
 3098TIP3    H130853   5.741   4.782   4.239 -1.4237  0.3735 -0.0245
 3098TIP3    H230854   5.773   4.641   4.195 -0.2740  0.2725  1.0726
 3099TIP3   OH230855   1.499   2.585   0.131  0.4195  0.1705  0.8887
 3099TIP3    H130856   1.427   2.617   0.076  0.5648 -1.9526 -0.6843
 3099TIP3    H230857   1.553   2.662   0.146 -0.8582  1.3029 -0.0203
 3100TIP3   OH230858   1.802   4.272   0.702 -0.0846 -0.2429  0.3274
 3100TIP3    H130859   1.711   4.300   0.696 -0.3050 -1.1901 -0.9430
 3100TIP3    H230860   1.798   4.182   0.733  0.3055 -0.8811 -1.3729
 3101TIP3   OH230861   2.715   3.095   4.291 -0.1225  0.2588 -0.4789
 3101TIP3    H130862   2.723   3.038   4.367 -0.4553 -0.5735 -1.0586
 3101TIP3    H230863   2.741   3.041   4.217 -2.0147  0.3025 -1.2545
 3102TIP3   OH230864   5.717   4.890   3.420 -0.2461 -0.0620  0.0804
 3102TIP3    H130865   5.649   4.825   3.439  0.2164 -0.5702  0.0340
 3102TIP3    H230866   5.708   4.955   3.489 -1.7096  0.6380 -0.7155
 3103TIP3   OH230867   5.467   3.785   3.535  0.1842 -1.0214  0.9442
 3103TIP3    H130868   5.528   3.757   3.468 -0.6846 -1.0301  0.1383
 3103TIP3    H230869   5.404   3.840   3.489  0.5134  0.3587  2.0538
 3104TIP3   OH230870   1.668   4.911   1.932 -0.3089  0.5473 -0.0887
 3104TIP3    H130871   1.666   4.839   1.995 -0.4878  1.3665  0.8741
 3104TIP3    H230872   1.634   4.987   1.981 -0.9607  1.0902 -1.3282
 3105TIP3   OH230873   2.693   0.919   2.352 -0.1985 -0.2475 -0.3690
 3105TIP3    H130874   2.741   0.982   2.299 -0.5659  0.5539  0.2282
 3105TIP3    H230875   2.611   0.963   2.375 -0.3625 -0.8467  0.2556
 3106TIP3   OH230876   6.587   0.188   2.828  0.2618  0.1817  0.2105
 3106TIP3    H130877   6.662   0.236   2.864  1.1498 -1.3930  0.5398
 3106TIP3    H230878   6.620   0.149   2.747 -0.3501 -0.1173  0.0963
 3107TIP3   OH230879   5.908   4.500   3.145 -0.3235  0.5687 -0.0663
 3107TIP3    H130880   5.824   4.537   3.171  0.5130  0.6115  2.9018
 3107TIP3    H230881   5.896   4.405   3.151 -0.3277  0.5516 -0.3089
 3108TIP3   OH230882   4.557   0.563   1.156  0.1419 -0.1095  0.4024
 3108TIP3    H130883   4.471   0.589   1.122  0.6574  0.8621 -0.1932
 3108TIP3    H230884   4.614   0.637   1.138  1.3624 -1.1404 -0.1698
 3109TIP3   OH230885   5.539   2.696   3.258  1.1966  0.0200 -0.2645
 3109TIP3    H130886   5.499   2.750   3.325  0.3666 -0.8712 -0.0216
 3109TIP3    H230887   5.572   2.619   3.305  0.1060 -0.8809 -0.9182
 3110TIP3   OH230888   4.462   0.291   3.896  0.0130  0.0431 -0.5282
 3110TIP3    H130889   4.455   0.204   3.934 -1.2294 -0.1178 -1.0701
 3110TIP3    H230890   4.457   0.350   3.971  2.8232 -0.3478  0.0573
 3111TIP3   OH230891   2.675   0.048   0.623  0.1880 -0.0555 -0.2953
 3111TIP3    H130892   2.605   0.109   0.649  0.0644  0.2513 -1.2896
 3111TIP3    H230893   2.631  -0.014   0.565  0.0682 -1.7799  1.5206
 3112TIP3   OH230894   0.895   5.819   2.921  0.1403 -0.0656  0.3687
 3112TIP3    H130895   0.856   5.781   2.842  0.7904  1.3897 -0.6915
 3112TIP3    H230896   0.931   5.744   2.967 -0.8791 -1.0337 -0.3431
 3113TIP3   OH230897   0.643   5.015   4.050 -0.2168 -0.6806  0.7798
 3113TIP3    H130898   0.556   5.052   4.035  0.0189 -0.6178 -0.5116
 3113TIP3    H230899   0.640   4.983   4.140 -0.2910  2.9678  2.2646
 3114TIP3   OH230900   5.456   0.664   1.780 -0.5806  0.3882  0.4371
 3114TIP3    H130901   5.451   0.611   1.700 -1.6758 -0.8058  1.2600
 3114TIP3    H230902   5.401   0.617   1.843  0.6056  1.0672  2.0346
 3115TIP3   OH230903   3.752   3.964   1.759 -0.2025  0.1158  0.1348
 3115TIP3    H130904   3.737   4.029   1.690  2.8152  0.7397 -0.1028
 3115TIP3    H230905   3.786   4.016   1.832 -0.7236 -0.8722  1.0987
 3116TIP3   OH230906   5.123   2.315   1.081 -0.4772  0.0823 -0.1000
 3116TIP3    H130907   5.139   2.407   1.058  0.9151 -0.5996 -2.0920
 3116TIP3    H230908   5.202   2.289   1.130 -0.5295 -0.2587 -0.2000
 3117TIP3   OH230909   4.755   2.211   1.880 -0.2053 -0.2986  0.3949
 3117TIP3    H130910   4.801   2.159   1.814 -2.8801 -0.3761 -1.5856
 3117TIP3    H230911   4.817   2.280   1.904  1.4111 -1.1613 -1.1009
 3118TIP3   OH230912   3.064   4.809   0.496  0.5749  0.5140 -0.0250
 3118TIP3    H130913   2.992   4.771   0.447 -0.4388  2.5278 -0.1957
 3118TIP3    H230914   3.081   4.892   0.453  0.4850  1.7956  2.2457
 3119TIP3   OH230915   2.395   3.169   3.985 -0.2510 -0.3530  0.2698
 3119TIP3    H130916   2.420   3.114   3.910  0.7627  0.2820  0.1202
 3119TIP3    H230917   2.332   3.231   3.950 -0.9262 -1.0089  0.2971
 3120TIP3   OH230918   1.946   0.677   1.484  0.3511 -0.3744 -0.4618
 3120TIP3    H130919   1.967   0.591   1.450 -0.1359 -0.1915 -1.2431
 3120TIP3    H230920   1.936   0.664   1.579 -0.6187 -1.3561 -0.6834
 3121TIP3   OH230921   5.016   1.834   5.173 -0.1212  0.0265 -0.2245
 3121TIP3    H130922   5.109   1.854   5.166 -0.4188  0.8634 -4.0443
 3121TIP3    H230923   4.975   1.884   5.102 -3.7190  0.6990  2.0794
 3122TIP3   OH230924   4.789   6.144   3.391 -0.1983  0.0202 -0.5562
 3122TIP3    H130925   4.816   6.161   3.482  0.7722 -0.0812 -0.8138
 3122TIP3    H230926   4.834   6.210   3.340 -0.1164 -0.4125 -1.0529
 3123TIP3   OH230927   2.504   1.780   3.757 -0.6382  0.1310 -0.0060
 3123TIP3    H130928   2.562   1.775   3.680 -0.3032  1.7183  0.1222
 3123TIP3    H230929   2.494   1.688   3.784  3.8372 -0.1954  1.4573
 3124TIP3   OH230930   6.825   4.736   2.404 -0.1351 -0.0131  0.5200
 3124TIP3    H130931   6.758   4.674   2.375  0.4529 -0.7444  0.6909
 3124TIP3    H230932   6.799   4.760   2.493 -1.2653  1.2754 -0.1287
 3125TIP3   OH230933   2.178   2.482   0.120 -0.3286  0.1531 -0.2080
 3125TIP3    H130934   2.219   2.560   0.158 -0.0268  0.4359 -1.0852
 3125TIP3    H230935   2.089   2.511   0.098  0.1709  0.6509 -1.6945
 3126TIP3   OH230936   3.640   0.753   1.216 -0.4081  0.4650 -0.1305
 3126TIP3    H130937   3.573   0.741   1.149 -0.1198 -1.8985 -0.0740
 3126TIP3    H230938   3.625   0.681   1.278 -0.0787  2.0353  1.8587
 3127TIP3   OH230939   0.596   6.391   1.901 -0.3079  0.7579 -0.4082
 3127TIP3    H130940   0.555   6.419   1.983 -0.0112  1.5601 -0.5287
 3127TIP3    H230941   0.671   6.449   1.891  0.0132  0.2587 -0.9401
 3128TIP3   OH230942   0.605   2.417   3.961  0.0634  0.4403  0.3965
 3128TIP3    H130943   0.664   2.399   3.887 -2.9828  0.2242 -2.1887
 3128TIP3    H230944   0.605   2.513   3.969  1.4986  0.4059  1.1645
 3129TIP3   OH230945   0.280   5.266   1.445 -0.6847  0.0700 -0.7262
 3129TIP3    H130946   0.255   5.192   1.390  0.3668 -0.8861  0.0275
 3129TIP3    H230947   0.214   5.268   1.514  0.8173 -2.0540  0.9086
 3130TIP3   OH230948   0.487   4.091   2.622  0.1911 -0.3023  0.3117
 3130TIP3    H130949   0.439   4.070   2.702 -0.7518 -0.4665 -0.2793
 3130TIP3    H230950   0.548   4.160   2.648  0.3644 -0.8175  1.3146
 3131TIP3   OH230951   0.889   4.114   2.290  0.0291  0.1465  0.3766
 3131TIP3    H130952   0.865   4.065   2.368  0.6060 -0.2415  0.3185
 3131TIP3    H230953   0.828   4.082   2.223 -1.6563  1.7509  1.0510
 3132TIP3   OH230954   5.469   0.731   4.431  0.1182 -0.4788 -0.2771
 3132TIP3    H130955   5.399   0.673   4.461  0.6094 -0.2550  1.4512
 3132TIP3    H230956   5.532   0.731   4.503  1.5851 -0.1527 -1.5138
 3133TIP3   OH230957   2.797   4.516   3.778 -0.7636 -0.0354 -0.2295
 3133TIP3    H130958   2.854   4.539   3.705  0.4400 -0.0392  0.6760
 3133TIP3    H230959   2.800   4.420   3.782 -0.4591 -0.0172  0.0891
 3134TIP3   OH230960   6.758   3.027   1.228  0.0728  0.1897  0.2459
 3134TIP3    H130961   6.680   2.971   1.223  1.4740 -1.8442  0.0127
 3134TIP3    H230962   6.739   3.099   1.167 -1.4325 -0.4903 -0.1360
 3135TIP3   OH230963   2.801   3.750   1.940 -0.2667 -0.3417 -0.8152
 3135TIP3    H130964   2.824   3.785   1.854  1.1014 -0.5533 -0.5677
 3135TIP3    H230965   2.848   3.807   2.001 -1.6617  0.1491 -0.1557
 3136TIP3   OH230966   4.044   1.653   2.610  0.3245  0.0932  0.0085
 3136TIP3    H130967   4.046   1.558   2.620  0.7081  0.2407  1.6453
 3136TIP3    H230968   4.069   1.668   2.519 -3.7845 -1.5038 -1.6117
 3137TIP3   OH230969   1.835   5.367   1.308 -0.0403  0.0292  0.5083
 3137TIP3    H130970   1.752   5.366   1.355 -0.0191  0.6090  0.5685
 3137TIP3    H230971   1.812   5.399   1.220  0.0334 -0.3372  0.3559
 3138TIP3   OH230972   4.997   6.876   2.062  0.0878  0.4338  0.0304
 3138TIP3    H130973   4.976   6.964   2.033  1.6306  0.6860 -0.4223
 3138TIP3    H230974   5.058   6.843   1.996 -1.0276 -1.2696 -0.2128
 3139TIP3   OH230975   0.136   1.311   2.586 -0.1012  0.4003 -0.1572
 3139TIP3    H130976   0.083   1.352   2.655 -0.2717  2.0457 -1.2031
 3139TIP3    H230977   0.204   1.376   2.567  0.2216 -0.2256 -1.2124
 3140TIP3   OH230978   0.291   4.097   3.989 -0.1620 -0.2701 -0.3713
 3140TIP3    H130979   0.247   4.162   3.933 -0.0534 -0.6051 -0.8582
 3140TIP3    H230980   0.273   4.126   4.078  1.4401  1.4847 -0.5669
 3141TIP3   OH230981   5.149   0.596   1.429 -0.0071 -0.4132 -0.0068
 3141TIP3    H130982   5.065   0.629   1.397  1.0948 -0.2259 -3.0049
 3141TIP3    H230983   5.197   0.674   1.456  0.2076 -0.2057 -0.9574
 3142TIP3   OH230984   0.054   0.487   8.567 -0.5101  0.5582  0.0784
 3142TIP3    H130985   0.082   0.573   8.598  0.6498 -0.1179  0.9842
 3142TIP3    H230986   0.120   0.463   8.502  1.8212 -1.4522  2.8914
 3143TIP3   OH230987   0.035   6.426   2.236 -0.0697  0.2171 -0.1301
 3143TIP3    H130988  -0.039   6.431   2.296 -0.9903 -0.7527 -1.1437
 3143TIP3    H230989   0.112   6.418   2.293 -0.8863 -0.3279  0.9282
 3144TIP3   OH230990   6.589   3.446   4.801 -0.5595 -0.0310 -0.7073
 3144TIP3    H130991   6.529   3.476   4.869  0.0499  3.1512 -1.3920
 3144TIP3    H230992   6.560   3.357   4.781 -0.6665 -1.2464  3.7314
 3145TIP3   OH230993   2.679   4.458   3.114  0.7447  0.1154  0.0212
 3145TIP3    H130994   2.687   4.528   3.179  0.5231  0.1949 -0.0328
 3145TIP3    H230995   2.738   4.389   3.144  0.3679 -0.0011  0.5085
 3146TIP3   OH230996   0.491   1.302   1.676  0.2071 -0.1714 -0.3731
 3146TIP3    H130997   0.418   1.364   1.675 -0.8957 -1.4149 -0.2855
 3146TIP3    H230998   0.561   1.346   1.629  0.0173  1.7770  1.0701
 3147TIP3   OH230999   0.895   3.975   0.943  0.1795 -0.3703  0.3893
 3147TIP3    H131000   0.849   4.024   0.876 -0.0844 -1.0624  0.0534
 3147TIP3    H231001   0.841   3.898   0.958  0.8698 -0.8519  0.4897
 3148TIP3   OH231002   0.597   5.279   3.527  0.4459  0.1597 -0.3400
 3148TIP3    H131003   0.641   5.225   3.593  0.7997 -0.3589 -0.9964
 3148TIP3    H231004   0.524   5.318   3.574  0.8354 -0.0135  0.4283
 3149TIP3   OH231005   0.829   1.813   2.598 -0.3596  0.2840 -0.2047
 3149TIP3    H131006   0.862   1.816   2.688  0.1224 -1.2302 -0.3064
 3149TIP3    H231007   0.864   1.892   2.557  1.1508 -0.0498  0.3809
 3150TIP3   OH231008   6.865   3.548   1.994 -0.0146 -0.2207 -0.6673
 3150TIP3    H131009   6.905   3.475   1.947  1.7573  0.9725 -1.1040
 3150TIP3    H231010   6.924   3.564   2.068 -1.4261 -0.4378  0.5670
 3151TIP3   OH231011   6.318   2.196   1.096 -0.2122  0.1443  0.2577
 3151TIP3    H131012   6.365   2.189   1.013  0.7569  0.5018  0.7498
 3151TIP3    H231013   6.303   2.105   1.123  1.5225 -0.0336  0.7794
 3152TIP3   OH231014   2.667   6.241   0.419 -0.0315 -0.1457 -0.0875
 3152TIP3    H131015   2.735   6.192   0.466  0.6445  0.5417 -0.3233
 3152TIP3    H231016   2.648   6.187   0.342  0.2777 -0.3343 -0.0364
 3153TIP3   OH231017   4.308   2.383   1.297 -0.0921 -0.1184  0.2876
 3153TIP3    H131018   4.265   2.445   1.355  0.0315 -0.9421  1.2874
 3153TIP3    H231019   4.281   2.297   1.328  0.6125 -0.6033 -0.3715
 3154TIP3   OH231020   1.524   3.160   1.871 -0.2688  0.3534 -0.2136
 3154TIP3    H131021   1.614   3.153   1.903 -1.0307 -0.7229  1.8556
 3154TIP3    H231022   1.508   3.076   1.827 -0.0312  0.8655 -1.3138
 3155TIP3   OH231023   5.686   5.520   1.074 -0.0167 -0.4281 -0.4318
 3155TIP3    H131024   5.676   5.592   1.137  3.7469 -0.2870  0.2709
 3155TIP3    H231025   5.638   5.447   1.113 -0.5799  0.6001  0.8858
 3156TIP3   OH231026   5.864   0.123   3.006 -0.0015 -0.1190 -0.4416
 3156TIP3    H131027   5.771   0.105   3.019  0.3823 -0.9894  1.3618
 3156TIP3    H231028   5.897   0.046   2.960 -0.0843  0.0359 -0.7683
 3157TIP3   OH231029   2.231   2.050   4.046  0.1184  0.1780 -0.0450
 3157TIP3    H131030   2.143   2.085   4.064 -0.0295 -0.2563  0.0780
 3157TIP3    H231031   2.287   2.090   4.113 -0.4479 -1.5510  1.5277
 3158TIP3   OH231032   0.008   0.841   2.119 -0.4458 -0.2914  0.1445
 3158TIP3    H131033   0.003   0.933   2.147  0.5382 -0.7148  1.9020
 3158TIP3    H231034   0.089   0.808   2.160 -1.2096 -2.1539  0.2585
 3159TIP3   OH231035   1.768   6.281   4.466 -0.0993 -0.0580 -0.0317
 3159TIP3    H131036   1.720   6.202   4.492  0.7754 -0.3448  0.7381
 3159TIP3    H231037   1.766   6.337   4.543 -2.1910  1.4627 -1.0731
 3160TIP3   OH231038   3.212   5.148   0.954  0.2247 -0.3582 -0.0322
 3160TIP3    H131039   3.124   5.178   0.934  0.3927  0.5844  0.5904
 3160TIP3    H231040   3.261   5.228   0.975  0.9175 -0.9777  0.7867
 3161TIP3   OH231041   6.680   6.390   2.410 -0.2012 -0.1323  0.1814
 3161TIP3    H131042   6.706   6.337   2.486  1.9788  1.3703  0.5767
 3161TIP3    H231043   6.616   6.452   2.446 -2.1149 -1.8577 -0.1033
 3162TIP3   OH231044   2.740   0.120   1.481 -0.2650  0.2696 -0.2243
 3162TIP3    H131045   2.650   0.099   1.505 -0.6719 -0.7496 -2.3505
 3162TIP3    H231046   2.731   0.192   1.419  0.8384  4.0952  3.5799
 3163TIP3   OH231047   1.616   1.050   4.023 -0.0805 -0.1113  0.1324
 3163TIP3    H131048   1.668   1.105   3.964  0.7090  0.2472  1.1195
 3163TIP3    H231049   1.663   1.055   4.106 -1.2174 -0.5206  0.8139
 3164TIP3   OH231050   2.779   0.540   2.671 -0.4948 -0.5469  0.1897
 3164TIP3    H131051   2.741   0.493   2.596 -1.1985  0.9476 -0.4217
 3164TIP3    H231052   2.732   0.506   2.747 -4.2475  2.1839 -0.6434
 3165TIP3   OH231053   4.820   5.683   3.590  0.1269  0.3743  0.0487
 3165TIP3    H131054   4.828   5.608   3.649 -3.1616  0.9080  1.3691
 3165TIP3    H231055   4.900   5.734   3.604  1.1673 -1.4771  1.1491
 3166TIP3   OH231056   4.200   4.259   3.738  0.0047  0.7770  0.4386
 3166TIP3    H131057   4.170   4.201   3.668  2.6105 -1.0072  0.6618
 3166TIP3    H231058   4.200   4.346   3.699 -0.4331  0.1004 -1.1474
 3167TIP3   OH231059   6.713   4.166   2.635 -0.0101  0.2754 -0.4945
 3167TIP3    H131060   6.801   4.201   2.624 -0.0210  0.0206 -1.4318
 3167TIP3    H231061   6.656   4.242   2.629  0.0626  0.2829 -1.1335
 3168TIP3   OH231062   0.758   0.400   1.016  0.0733  0.6391  0.3457
 3168TIP3    H131063   0.731   0.442   0.935 -0.5109  0.2311  0.3240
 3168TIP3    H231064   0.850   0.379   1.002 -0.3368 -0.5525 -0.7043
 3169TIP3   OH231065   3.781   1.996   1.313 -0.1379  0.2719 -0.1121
 3169TIP3    H131066   3.782   2.081   1.358 -0.9903 -0.2667  0.9716
 3169TIP3    H231067   3.854   2.001   1.251  1.4980  0.8145  1.7613
 3170TIP3   OH231068   5.434   1.230   1.166  0.1497  0.7651 -0.1626
 3170TIP3    H131069   5.501   1.290   1.200 -0.5520  0.2961  2.2775
 3170TIP3    H231070   5.476   1.143   1.170  0.0845  0.7106 -0.6135
 3171TIP3   OH231071   5.106   5.700   3.034 -0.2248 -0.4425 -0.2124
 3171TIP3    H131072   5.129   5.786   3.069 -1.9684 -0.1591  0.3560
 3171TIP3    H231073   5.187   5.667   2.994  0.4107  1.5664 -0.6936
 3172TIP3   OH231074   1.519   3.773   2.532  0.1338 -0.5445 -0.7703
 3172TIP3    H131075   1.580   3.826   2.481 -0.1764  0.6089  0.0022
 3172TIP3    H231076   1.520   3.813   2.619  1.4420 -3.0746  0.4885
 3173TIP3   OH231077   6.823   3.294   3.933 -0.1066 -0.0567 -0.3715
 3173TIP3    H131078   6.810   3.388   3.935  0.6816  0.0648  0.9849
 3173TIP3    H231079   6.781   3.264   3.853 -1.0868  1.3341 -0.3998
 3174TIP3   OH231080   1.795   2.081   4.243 -0.9674  0.6497 -0.1041
 3174TIP3    H131081   1.719   2.121   4.286 -2.0525 -0.2139 -1.1402
 3174TIP3    H231082   1.803   1.995   4.285  0.7500  1.4855  1.4298
 3175TIP3   OH231083   2.630   3.678   3.154 -0.1262  0.1220  0.4890
 3175TIP3    H131084   2.623   3.610   3.221  1.4344  0.4252  1.0040
 3175TIP3    H231085   2.591   3.639   3.076 -0.8293 -0.7097  1.2279
 3176TIP3   OH231086   5.727   0.329   4.638  0.2892  0.4498  0.0011
 3176TIP3    H131087   5.690   0.243   4.655 -1.9347  0.9116 -2.0040
 3176TIP3    H231088   5.665   0.390   4.677  0.1996  1.1971 -1.2682
 3177TIP3   OH231089   5.114   4.907   3.490 -0.3110 -0.3949 -0.2760
 3177TIP3    H131090   5.050   4.929   3.422 -0.8392  0.4092  0.4588
 3177TIP3    H231091   5.199   4.928   3.451 -0.7343  3.0813  0.3080
 3178TIP3   OH231092   4.507   0.105   4.238 -0.2076  0.2799 -0.3640
 3178TIP3    H131093   4.476   0.162   4.308  0.5238 -1.1740  1.1892
 3178TIP3    H231094   4.531   0.024   4.281  0.8529 -0.4595 -2.2276
 3179TIP3   OH231095   4.312   5.635   2.628  0.5138  0.2234 -0.0857
 3179TIP3    H131096   4.376   5.623   2.558 -0.0106 -0.6616 -0.4237
 3179TIP3    H231097   4.327   5.724   2.659  0.9096  0.5396 -1.1555
 3180TIP3   OH231098   5.025   3.996   5.139  0.5433 -0.0504 -0.3119
 3180TIP3    H131099   5.023   4.084   5.179  1.1059 -0.1194 -0.1336
 3180TIP3    H231100   4.946   3.953   5.173  0.1267  0.4684 -0.5976
 3181TIP3   OH231101   6.849   4.382   1.996  0.3036 -0.4471 -0.1912
 3181TIP3    H131102   6.762   4.387   1.957 -0.4264 -1.8491  1.1367
 3181TIP3    H231103   6.905   4.433   1.937 -2.0619  3.9729  0.9824
 3182TIP3   OH231104   0.579   0.753   3.593  0.4727  0.7563 -0.2019
 3182TIP3    H131105   0.630   0.803   3.529  0.2457  0.8557 -0.3095
 3182TIP3    H231106   0.643   0.718   3.654  0.8338 -0.5129 -1.2787
 3183TIP3   OH231107   3.367   1.970   3.051 -1.0165 -0.0083  0.1025
 3183TIP3    H131108   3.347   1.943   3.141  1.5114  0.7107  0.9508
 3183TIP3    H231109   3.303   2.039   3.033 -0.2588  1.3626  2.2088
 3184TIP3   OH231110   6.828   5.842   2.676  0.7199  0.2499  0.0914
 3184TIP3    H131111   6.790   5.845   2.764  1.6929 -1.1976  0.6112
 3184TIP3    H231112   6.753   5.828   2.618  0.3051 -1.5425  0.9905
 3185TIP3   OH231113   0.603   4.943   0.636  0.7075 -0.3224 -0.3247
 3185TIP3    H131114   0.540   4.929   0.707 -2.2112 -0.0524 -2.7145
 3185TIP3    H231115   0.598   5.036   0.617 -0.7195 -0.7969 -2.6549
 3186TIP3   OH231116   4.028   6.550   2.008  0.0614 -0.3340 -0.4220
 3186TIP3    H131117   3.994   6.463   2.026  1.7073 -0.5954  1.9507
 3186TIP3    H231118   4.080   6.540   1.928  1.0850 -1.8297  0.3853
 3187TIP3   OH231119   5.836   2.704   3.735 -0.5212  0.9280  0.2139
 3187TIP3    H131120   5.891   2.625   3.737 -1.0259  0.5830  2.6426
 3187TIP3    H231121   5.776   2.694   3.809 -2.3822  2.3653 -1.0081
 3188TIP3   OH231122   3.442   6.356   3.791 -0.0059 -0.1098 -0.2496
 3188TIP3    H131123   3.427   6.426   3.854  1.3665 -0.9395  1.0791
 3188TIP3    H231124   3.509   6.390   3.731  0.7843 -0.3216  0.4973
 3189TIP3   OH231125   2.868   5.162   3.033  0.4676  0.9434 -0.1081
 3189TIP3    H131126   2.951   5.134   3.072 -0.9935 -0.4233  2.2372
 3189TIP3    H231127   2.840   5.087   2.980  0.1443  0.8828  0.1413
 3190TIP3   OH231128   5.209   2.144   4.163  0.5707 -0.2120  0.2508
 3190TIP3    H131129   5.120   2.176   4.149  0.7719 -0.0723 -0.8493
 3190TIP3    H231130   5.203   2.085   4.238 -0.2023  0.7787  0.9954
 3191TIP3   OH231131   3.016   2.624   2.501  0.2509  0.0620 -0.2693
 3191TIP3    H131132   2.961   2.628   2.579 -0.8739 -0.2789 -1.0181
 3191TIP3    H231133   3.005   2.709   2.459  3.8210  1.7735  1.8106
 3192TIP3   OH231134   0.079   5.259   1.028  0.0057 -0.1853  0.0305
 3192TIP3    H131135   0.021   5.281   0.955  0.2252  1.2249  0.2401
 3192TIP3    H231136   0.082   5.340   1.081  2.5591 -0.0132 -0.2572
 3193TIP3   OH231137   5.548   2.897   2.388  0.2076 -0.3526 -0.1205
 3193TIP3    H131138   5.473   2.860   2.435  0.0279 -0.2234 -0.3061
 3193TIP3    H231139   5.510   2.940   2.312  0.5101 -0.6532 -0.4425
 3194TIP3   OH231140   5.167   4.031   1.137 -0.0353 -0.4746 -0.2262
 3194TIP3    H131141   5.218   4.085   1.078  1.2016 -0.1441  1.0892
 3194TIP3    H231142   5.143   4.090   1.209 -0.7221 -1.0796  0.0531
 3195TIP3   OH231143   3.095   0.441   2.650 -0.2544  0.6021  0.1991
 3195TIP3    H131144   3.136   0.397   2.575  0.7278 -0.1831  1.1540
 3195TIP3    H231145   3.019   0.486   2.613  0.8042  1.1339 -1.4443
 3196TIP3   OH231146   4.460   6.891   1.234  0.1093 -0.7226  0.1985
 3196TIP3    H131147   4.491   6.973   1.195 -0.3685 -0.3890  0.4986
 3196TIP3    H231148   4.519   6.875   1.307  0.6498 -1.0364 -0.3039
 3197TIP3   OH231149   1.983   6.053   0.300 -0.3622  0.4674  0.2152
 3197TIP3    H131150   1.970   5.972   0.250 -0.3559  0.2286  0.5934
 3197TIP3    H231151   2.053   6.031   0.362 -1.9650 -0.0026  1.9414
 3198TIP3   OH231152   3.844   2.972   1.824 -0.3562  0.0342 -0.2953
 3198TIP3    H131153   3.810   3.017   1.901 -1.6557 -1.4866  0.0874
 3198TIP3    H231154   3.933   2.946   1.848 -0.5668  0.0253  0.5092
 3199TIP3   OH231155   5.749   0.923   2.716  0.3308 -0.1785 -0.5477
 3199TIP3    H131156   5.814   0.898   2.781  0.4004 -0.1678 -0.6118
 3199TIP3    H231157   5.699   0.843   2.699 -0.3453  0.0557  0.2543
 3200TIP3   OH231158   1.459   1.897   4.405 -0.2782  0.1627 -0.3099
 3200TIP3    H131159   1.426   1.835   4.470  0.3467 -0.4306 -0.5545
 3200TIP3    H231160   1.437   1.983   4.442 -1.1742 -0.1887  0.0142
 3201TIP3   OH231161   2.542   3.694   1.097  0.0718  0.0309 -0.2859
 3201TIP3    H131162   2.487   3.681   1.019  0.6905 -0.5219 -0.6401
 3201TIP3    H231163   2.509   3.631   1.161 -2.1251  2.1797  0.8737
 3202TIP3   OH231164   3.235   4.279   0.191 -0.5869  0.4953  0.7485
 3202TIP3    H131165   3.311   4.327   0.158  0.4151 -1.9570 -0.9039
 3202TIP3    H231166   3.252   4.188   0.166 -3.3599 -0.4107  1.7251
 3203TIP3   OH231167   2.676   3.575   2.108 -0.3091  0.2858  0.1679
 3203TIP3    H131168   2.741   3.556   2.176  0.6563 -1.5083 -1.1831
 3203TIP3    H231169   2.726   3.619   2.039 -0.5276 -0.9392 -0.8005
 3204TIP3   OH231170   3.480   6.425   4.368  0.4475 -0.5234  0.3545
 3204TIP3    H131171   3.425   6.369   4.424 -0.1374  0.0526  0.3646
 3204TIP3    H231172   3.423   6.497   4.343  0.7198 -0.7251 -0.9321
 3205TIP3   OH231173   4.631   4.901   4.739  0.2796  0.0916  0.3044
 3205TIP3    H131174   4.685   4.952   4.679 -1.5254  1.3021 -0.3885
 3205TIP3    H231175   4.622   4.957   4.816  0.0482 -0.1141  0.4272
 3206TIP3   OH231176   1.197   6.544   0.904 -0.0485  0.1190  0.2559
 3206TIP3    H131177   1.118   6.598   0.903 -0.1504  0.0138 -1.4832
 3206TIP3    H231178   1.164   6.454   0.908  0.1012  0.1043  2.3543
 3207TIP3   OH231179   3.279   5.969   2.103 -0.0876  0.3857  0.1255
 3207TIP3    H131180   3.235   5.911   2.164 -1.3542  1.9372  0.7509
 3207TIP3    H231181   3.338   6.021   2.158 -0.9006  1.4765  0.0015
 3208TIP3   OH231182   1.015   3.480   3.945  0.5071 -0.9939 -0.1879
 3208TIP3    H131183   0.961   3.558   3.961  1.6057 -0.2911  0.2234
 3208TIP3    H231184   1.025   3.477   3.850  0.9090 -0.2942 -0.1778
 3209TIP3   OH231185   3.998   3.403   2.744 -0.0606 -0.2133 -0.4417
 3209TIP3    H131186   4.011   3.420   2.837  1.0360  1.6046 -0.8875
 3209TIP3    H231187   3.931   3.334   2.742 -0.4550  0.0305  1.6618
 3210TIP3   OH231188   3.571   3.256   1.415  0.4445 -0.3120 -0.4159
 3210TIP3    H131189   3.525   3.182   1.455  0.2124  1.0650  2.0913
 3210TIP3    H231190   3.659   3.221   1.396  0.7103 -0.9974  1.7512
 3211TIP3   OH231191   6.132   0.772   1.110 -0.7221  0.0040 -0.0010
 3211TIP3    H131192   6.105   0.696   1.058 -0.3944  0.9351 -1.6087
 3211TIP3    H231193   6.050   0.811   1.140 -0.9038 -0.7761  0.5715
 3212TIP3   OH231194   2.154   2.113   3.342 -0.2084 -0.1248  0.4748
 3212TIP3    H131195   2.139   2.170   3.417  3.2421  0.0347  1.2135
 3212TIP3    H231196   2.207   2.041   3.376 -0.1144 -1.0407 -1.4631
 3213TIP3   OH231197   5.723   0.603   0.950 -0.5344  0.0867  0.4723
 3213TIP3    H131198   5.664   0.528   0.950  0.0465 -0.3857  0.9397
 3213TIP3    H231199   5.807   0.567   0.918  0.2539  0.1024  2.4224
 3214TIP3   OH231200   2.526   1.856   0.731 -0.2525  0.0879 -0.0336
 3214TIP3    H131201   2.461   1.926   0.728 -1.0938 -0.4725  2.7753
 3214TIP3    H231202   2.609   1.901   0.746  0.1763  0.7983 -3.5454
 3215TIP3   OH231203   3.585   6.158   4.243 -0.1138 -0.2627  0.0870
 3215TIP3    H131204   3.541   6.240   4.266  0.3316 -0.3474  1.3246
 3215TIP3    H231205   3.678   6.178   4.251  0.0087 -0.7666 -0.0282
 3216TIP3   OH231206   0.608   0.005   2.136 -0.5554  0.4046  0.1492
 3216TIP3    H131207   0.631   0.097   2.147 -1.7189  1.0944 -2.3881
 3216TIP3    H231208   0.692  -0.041   2.129  0.0271  1.3220  0.9939
 3217TIP3   OH231209   2.055   3.463   2.768 -0.5567 -0.0582 -0.2630
 3217TIP3    H131210   2.019   3.541   2.726 -0.7378 -0.0607 -0.1151
 3217TIP3    H231211   2.150   3.471   2.757 -0.5958 -0.0274 -0.6154
 3218TIP3   OH231212   1.268   5.637   2.133  0.2565 -0.1575 -0.6841
 3218TIP3    H131213   1.323   5.713   2.114  0.7024 -0.4962 -0.7658
 3218TIP3    H231214   1.186   5.674   2.165  0.1016  0.3812 -1.6731
 3219TIP3   OH231215   2.479   5.013   0.197  0.6582 -0.0061 -0.2435
 3219TIP3    H131216   2.472   4.925   0.161 -0.3467  0.1655 -0.5060
 3219TIP3    H231217   2.531   5.061   0.132  0.8942 -0.3045 -0.2792
 3220TIP3   OH231218   5.022   2.480   3.995  0.1568  0.4385  0.3169
 3220TIP3    H131219   4.940   2.491   4.043 -0.0045 -0.4237  0.2517
 3220TIP3    H231220   4.998   2.427   3.919  0.7042  0.4865  0.1096
 3221TIP3   OH231221   6.383   5.085   3.029  0.1931  0.1409 -1.0204
 3221TIP3    H131222   6.421   5.133   2.956 -1.1061 -0.8805 -2.4294
 3221TIP3    H231223   6.366   4.997   2.994 -1.4755 -0.0632  0.1486
 3222TIP3   OH231224   3.111   3.847   1.795 -0.7885  0.1515 -0.2429
 3222TIP3    H131225   3.095   3.884   1.708  0.7347  0.3230 -0.4689
 3222TIP3    H231226   3.189   3.892   1.826 -0.8594 -0.4823  0.8908
 3223TIP3   OH231227   5.017   1.261   1.519  0.1644  0.1871  0.5448
 3223TIP3    H131228   5.084   1.245   1.585 -1.2376 -0.9826  1.7541
 3223TIP3    H231229   5.046   1.211   1.442  0.8305 -0.0026  0.9124
 3224TIP3   OH231230   1.051   0.053   2.947  0.3068 -0.6787  0.1632
 3224TIP3    H131231   1.093  -0.032   2.932 -1.2000 -1.2627 -1.0767
 3224TIP3    H231232   1.029   0.085   2.860  0.7330  0.9474  0.6291
 3225TIP3   OH231233   2.022   2.188   4.158 -0.4275 -0.0524  0.2548
 3225TIP3    H131234   1.939   2.147   4.183 -0.7757  1.1828  1.2587
 3225TIP3    H231235   2.027   2.267   4.212  1.7514 -0.4398  0.7219
 3226TIP3   OH231236   1.668   4.605   3.524 -0.4039  0.0257  0.2744
 3226TIP3    H131237   1.622   4.645   3.450 -1.8453 -2.6397 -0.3815
 3226TIP3    H231238   1.636   4.653   3.601 -1.4990  0.6011 -0.5249
 3227TIP3   OH231239   4.112   1.673   1.389  0.3082 -0.1385 -0.0111
 3227TIP3    H131240   4.137   1.759   1.354  2.5879 -0.2944  1.0609
 3227TIP3    H231241   4.189   1.618   1.376 -0.7545 -1.7611  0.2385
 3228TIP3   OH231242   0.693   2.492   1.207 -0.0587 -0.0025 -0.3932
 3228TIP3    H131243   0.607   2.500   1.248 -0.5698 -0.7082 -1.2972
 3228TIP3    H231244   0.686   2.415   1.151  1.7523 -1.2182  0.9348
 3229TIP3   OH231245   1.070   5.609   0.157 -0.5389  0.3167  0.1067
 3229TIP3    H131246   1.012   5.683   0.135 -0.0892  0.4393 -0.7187
 3229TIP3    H231247   1.134   5.607   0.085 -0.4746 -0.8043  0.1775
 3230TIP3   OH231248   0.644   4.919   1.039 -0.5941 -1.1203 -0.0975
 3230TIP3    H131249   0.632   4.858   1.111 -0.4392 -3.1771 -1.7281
 3230TIP3    H231250   0.725   4.892   0.997  0.3823  1.2956  0.0762
 3231TIP3   OH231251   2.753   1.002   4.030  0.1884  0.0980 -0.1694
 3231TIP3    H131252   2.826   0.941   4.033 -1.0016 -1.4351 -0.5159
 3231TIP3    H231253   2.793   1.089   4.023  1.9412 -0.6526  0.1097
 3232TIP3   OH231254   6.208   2.443   0.706 -0.2427  0.4455  0.7908
 3232TIP3    H131255   6.181   2.531   0.680  1.7058  1.2158  1.2239
 3232TIP3    H231256   6.244   2.454   0.794 -1.3458 -1.0822  1.4855
 3233TIP3   OH231257   3.878   4.620   4.280 -0.2645 -0.1215  0.0742
 3233TIP3    H131258   3.887   4.657   4.192  0.6596  0.3734  0.3632
 3233TIP3    H231259   3.830   4.688   4.329 -1.4196 -0.7019 -0.2169
 3234TIP3   OH231260   2.828   5.481   2.226 -0.0108  0.3243 -0.4118
 3234TIP3    H131261   2.752   5.450   2.275 -0.1434 -0.5234 -1.1280
 3234TIP3    H231262   2.858   5.405   2.176  1.7404  0.4355  0.3783
 3235TIP3   OH231263   2.244   6.679   3.454  0.3639 -0.0998  0.2557
 3235TIP3    H131264   2.149   6.692   3.450  0.3984 -0.1694 -1.4954
 3235TIP3    H231265   2.266   6.688   3.547 -1.2195  0.8831  0.5617
 3236TIP3   OH231266   6.192   3.150   3.351 -0.0974  0.3502  0.0626
 3236TIP3    H131267   6.145   3.226   3.386 -0.8507  0.8731 -1.9639
 3236TIP3    H231268   6.280   3.182   3.333  0.2083  0.1561  1.1279
 3237TIP3   OH231269   3.245   2.778   8.353  0.4046 -0.2646 -0.4061
 3237TIP3    H131270   3.299   2.760   8.430 -2.0377 -2.8443  0.8923
 3237TIP3    H231271   3.238   2.694   8.308 -0.0649  0.6937 -2.2163
 3238TIP3   OH231272   0.446   0.253   2.451  0.2669 -0.2580 -0.0432
 3238TIP3    H131273   0.533   0.219   2.473  1.0415 -0.4793 -2.9588
 3238TIP3    H231274   0.462   0.343   2.421 -1.1775  1.3042  3.3245
 3239TIP3   OH231275   3.393   4.103   2.969 -0.3033 -0.1508  0.2464
 3239TIP3    H131276   3.347   4.107   2.884  1.5347 -2.8696 -1.0046
 3239TIP3    H231277   3.439   4.187   2.974 -0.5869  0.1505 -1.3905
 3240TIP3   OH231278   1.640   3.401   3.274  0.3606  0.6193 -0.0269
 3240TIP3    H131279   1.630   3.449   3.356  1.1206  0.9376 -0.1134
 3240TIP3    H231280   1.695   3.458   3.220  1.1950 -0.2956 -0.1646
 3241TIP3   OH231281   4.997   6.426   0.498 -0.6994 -0.3858  0.0395
 3241TIP3    H131282   5.091   6.428   0.511 -0.6508  0.7928 -0.3527
 3241TIP3    H231283   4.985   6.429   0.403 -1.1255 -2.8116 -0.0434
 3242TIP3   OH231284   0.003   3.656   4.744  0.4697  0.2153  0.4496
 3242TIP3    H131285  -0.003   3.750   4.759  1.6396  0.3969 -0.1309
 3242TIP3    H231286   0.094   3.641   4.719  0.5952 -1.2269  1.5836
 3243TIP3   OH231287   1.952   3.778   2.713 -0.2410  0.1816 -0.2441
 3243TIP3    H131288   2.032   3.762   2.663  1.0039  1.5763  1.2079
 3243TIP3    H231289   1.941   3.873   2.713  0.6075  0.4174  3.1734
 3244TIP3   OH231290   0.179   2.850   2.232  0.0968  0.0771  0.4537
 3244TIP3    H131291   0.233   2.905   2.288 -0.3820 -0.0638  1.0537
 3244TIP3    H231292   0.207   2.760   2.251  0.4733  0.0681 -0.1036
 3245TIP3   OH231293   0.298   3.748   4.332 -0.1772  0.6689  0.0389
 3245TIP3    H131294   0.346   3.788   4.260 -1.0710  1.9188  0.1076
 3245TIP3    H231295   0.358   3.683   4.368  0.7611  0.9329 -1.0066
 3246TIP3   OH231296   4.629   2.348   0.824  0.6856  0.1733 -0.2361
 3246TIP3    H131297   4.694   2.366   0.756  1.2837 -0.5506  0.1291
 3246TIP3    H231298   4.557   2.408   0.805  0.6670 -0.3010 -1.7428
 3247TIP3   OH231299   1.962   6.298   0.430 -0.1424 -0.6184  0.1693
 3247TIP3    H131300   1.929   6.237   0.363 -2.1214 -0.1853  0.6848
 3247TIP3    H231301   1.887   6.352   0.452  0.9333  0.3911  1.5221
 3248TIP3   OH231302   6.364   1.740   0.571 -0.3723  0.4527 -0.3619
 3248TIP3    H131303   6.325   1.671   0.624 -1.4832 -1.0504 -2.9276
 3248TIP3    H231304   6.458   1.731   0.584 -0.4707 -1.8787 -0.9473
 3249TIP3   OH231305   5.577   2.626   4.285 -0.1913  0.2627  0.1771
 3249TIP3    H131306   5.610   2.713   4.308  1.8064  0.0702 -1.5916
 3249TIP3    H231307   5.484   2.639   4.266 -0.6613  1.3841  2.8607
 3250TIP3   OH231308   5.904   3.302   3.156 -0.0885  0.7793 -0.1760
 3250TIP3    H131309   5.851   3.248   3.215  0.1887 -1.8845 -2.1695
 3250TIP3    H231310   5.840   3.338   3.094 -0.0117  0.7384 -0.2789
 3251TIP3   OH231311   6.133   5.651   1.384  0.8438  0.3184 -0.2453
 3251TIP3    H131312   6.193   5.620   1.451 -0.3586  1.5851  1.5286
 3251TIP3    H231313   6.064   5.585   1.381  1.6452 -0.5111 -1.3971
 3252TIP3   OH231314   5.501   2.006   3.358  0.2424  0.1140  0.3345
 3252TIP3    H131315   5.470   2.070   3.293 -0.3451 -0.7232 -0.2217
 3252TIP3    H231316   5.499   1.922   3.312 -2.1109 -0.8415  1.9799
 3253TIP3   OH231317   6.405   1.083   1.865  0.3645 -0.1153  0.3064
 3253TIP3    H131318   6.494   1.081   1.898 -0.7148  0.4371  3.6854
 3253TIP3    H231319   6.351   1.059   1.941 -2.3581 -0.7193 -1.6575
 3254TIP3   OH231320   5.863   5.782   3.255 -0.1880 -0.3153 -0.2791
 3254TIP3    H131321   5.865   5.839   3.331  0.4000 -0.4513 -0.1929
 3254TIP3    H231322   5.790   5.722   3.271 -1.2029  0.7752 -0.6424
 3255TIP3   OH231323   4.778   1.984   2.865 -0.2144 -0.5962  0.0825
 3255TIP3    H131324   4.787   2.079   2.857  0.6399 -0.4706  1.9353
 3255TIP3    H231325   4.753   1.970   2.956 -5.0822 -1.9337 -1.1776
 3256TIP3   OH231326   4.426   5.049   4.205 -0.0077  0.6571 -0.1642
 3256TIP3    H131327   4.363   5.117   4.227 -0.9731 -0.2147 -0.1361
 3256TIP3    H231328   4.501   5.066   4.262  0.0636  2.0954 -0.6611
 3257TIP3   OH231329   5.021   2.779   2.248 -0.0220  0.2812 -0.2212
 3257TIP3    H131330   4.937   2.815   2.278 -0.0029  0.3583 -0.2607
 3257TIP3    H231331   5.028   2.695   2.292 -0.5089 -0.1005 -0.8624
 3258TIP3   OH231332   3.739   0.676   2.765  0.0978  0.5866 -0.0480
 3258TIP3    H131333   3.710   0.765   2.782 -0.5071  0.0919  1.7396
 3258TIP3    H231334   3.663   0.632   2.728  0.8194  1.1406 -2.3134
 3259TIP3   OH231335   5.908   2.108   3.659 -1.1497 -0.6088  0.0844
 3259TIP3    H131336   5.890   2.178   3.721  0.0500 -1.3431  1.3183
 3259TIP3    H231337   5.865   2.135   3.578 -0.9016  1.4406  0.5972
 3260TIP3   OH231338   1.190   1.736   1.229 -0.1092  0.0536  0.8358
 3260TIP3    H131339   1.186   1.653   1.182 -0.5259  0.3652  0.3096
 3260TIP3    H231340   1.149   1.799   1.170  1.0113  0.8092  0.8316
 3261TIP3   OH231341   1.004   4.744   3.297 -0.1856 -0.0992 -0.3410
 3261TIP3    H131342   1.042   4.751   3.384 -0.2052 -0.8970 -0.2639
 3261TIP3    H231343   0.913   4.773   3.307 -0.3492 -0.7271  0.0204
 3262TIP3   OH231344   2.800   2.313   0.295 -0.1724  0.0081  0.1668
 3262TIP3    H131345   2.708   2.337   0.304 -0.0640  0.3774  0.2860
 3262TIP3    H231346   2.822   2.271   0.379 -0.0479  0.5357  0.4030
 3263TIP3   OH231347   3.396   2.251   1.773  0.1017 -0.4385 -0.2631
 3263TIP3    H131348   3.445   2.332   1.781 -1.5723  0.5255  0.9997
 3263TIP3    H231349   3.365   2.232   1.862 -1.6236 -1.0604 -0.9377
 3264TIP3   OH231350   0.558   2.660   3.223  0.0683  0.0130  0.2556
 3264TIP3    H131351   0.555   2.676   3.318  3.2734  0.1504  0.4318
 3264TIP3    H231352   0.605   2.577   3.215  0.1605  0.1868 -1.2345
 3265TIP3   OH231353   2.467   1.629   2.761 -0.1257 -0.6958 -0.5761
 3265TIP3    H131354   2.507   1.649   2.845  1.3951 -2.9031 -0.6728
 3265TIP3    H231355   2.443   1.536   2.767  1.2279 -1.3060 -2.9313
 3266TIP3   OH231356   0.795   3.914   1.691  0.3541  0.1079 -0.3063
 3266TIP3    H131357   0.753   3.916   1.605  0.3584 -0.8032 -0.3376
 3266TIP3    H231358   0.827   3.825   1.700  0.5092  0.2439  0.5773
 3267TIP3   OH231359   6.791   1.807   3.459  0.1018  0.4024  0.3037
 3267TIP3    H131360   6.778   1.724   3.503  2.4946 -1.0884 -1.5479
 3267TIP3    H231361   6.752   1.795   3.372 -1.2873  1.9565  0.6719
 3268TIP3   OH231362   1.382   5.949   3.955 -0.0268 -0.4924 -0.2207
 3268TIP3    H131363   1.449   5.881   3.945 -0.4240 -0.9227  0.0063
 3268TIP3    H231364   1.356   5.944   4.047  0.4674  0.4719 -0.0194
 3269TIP3   OH231365   3.133   0.448   4.090  0.0898 -0.7859  0.5011
 3269TIP3    H131366   3.061   0.387   4.106 -0.2406 -0.2777  1.0099
 3269TIP3    H231367   3.192   0.402   4.030 -0.4389 -1.3761  0.4337
 3270TIP3   OH231368   4.012   4.903   4.362 -0.1559 -0.0136  0.4166
 3270TIP3    H131369   3.926   4.870   4.386 -0.8986  1.5080 -0.0329
 3270TIP3    H231370   4.040   4.846   4.290 -2.1904  1.3091 -1.5471
 3271TIP3   OH231371   0.006   2.359   2.101  0.5112 -0.3940  0.1342
 3271TIP3    H131372   0.045   2.397   2.180 -0.7488  0.7568  0.2324
 3271TIP3    H231373  -0.030   2.276   2.130  1.7082 -0.8757  0.3250
 3272TIP3   OH231374   2.765   3.621   1.656 -0.7563 -0.1149  0.1669
 3272TIP3    H131375   2.731   3.603   1.744 -2.8073 -0.6762 -0.6667
 3272TIP3    H231376   2.766   3.535   1.613 -1.0566  0.3252 -0.7429
 3273TIP3   OH231377   6.460   6.053   2.502 -0.3843  0.4568 -0.1833
 3273TIP3    H131378   6.427   6.010   2.581  1.6946 -2.2374 -0.6266
 3273TIP3    H231379   6.528   6.112   2.534 -1.2425  1.2559  0.2057
 3274TIP3   OH231380   6.886   0.289   0.170 -0.7308  0.3788  0.1103
 3274TIP3    H131381   6.929   0.361   0.125 -0.4546  0.3689  0.3584
 3274TIP3    H231382   6.819   0.331   0.224 -0.7127  0.4297  0.0935
 3275TIP3   OH231383   2.137   5.997   1.128  0.0794 -0.4106  0.0981
 3275TIP3    H131384   2.055   5.951   1.142  0.9056 -2.8053 -2.1278
 3275TIP3    H231385   2.124   6.083   1.169 -2.4693 -1.6732  2.2419
 3276TIP3   OH231386   2.262   0.669   1.135 -0.0357 -0.9401  0.0149
 3276TIP3    H131387   2.234   0.725   1.208  1.4478  1.4611 -1.1185
 3276TIP3    H231388   2.255   0.580   1.170 -1.9104 -0.0770  2.1539
 3277TIP3   OH231389   3.190   6.216   3.003 -0.1110 -0.0466 -0.4501
 3277TIP3    H131390   3.096   6.201   3.008 -0.1419  0.1674 -0.3773
 3277TIP3    H231391   3.207   6.284   3.069 -0.1518  1.1069 -1.5795
 3278TIP3   OH231392   5.891   1.760   0.860 -0.0707  0.4055 -0.0893
 3278TIP3    H131393   5.845   1.816   0.922 -0.0800  0.5704 -0.2473
 3278TIP3    H231394   5.977   1.801   0.848  0.8553 -0.8589  1.6220
 3279TIP3   OH231395   6.055   3.770   3.972 -0.2900 -0.1909 -0.2765
 3279TIP3    H131396   6.076   3.776   4.065  1.6442 -2.1170 -0.5060
 3279TIP3    H231397   5.960   3.759   3.970 -0.2379 -1.5099  1.5771
 3280TIP3   OH231398   3.654   0.561   0.901  0.2062 -0.2816  0.7458
 3280TIP3    H131399   3.734   0.525   0.863 -0.1967 -0.7457  0.3182
 3280TIP3    H231400   3.592   0.488   0.902 -1.0318  0.6401 -1.3272
 3281TIP3   OH231401   5.653   1.934   4.750 -0.1432 -0.0046 -0.3652
 3281TIP3    H131402   5.724   1.929   4.815 -0.0025  4.0097  0.0760
 3281TIP3    H231403   5.699   1.948   4.666 -0.3785 -0.3509 -0.5519
 3282TIP3   OH231404   0.247   4.644   4.542 -0.6626 -0.6038 -0.0090
 3282TIP3    H131405   0.168   4.640   4.488 -0.7739  1.6363 -0.0844
 3282TIP3    H231406   0.287   4.558   4.531 -2.1416 -1.1715 -1.4029
 3283TIP3   OH231407   4.283   4.116   2.133  0.6630  0.3241  0.2266
 3283TIP3    H131408   4.232   4.186   2.174 -0.0550  0.1456 -0.3472
 3283TIP3    H231409   4.273   4.041   2.192 -1.7587 -0.4427 -1.0702
 3284TIP3   OH231410   2.252   0.608   3.257 -0.3000  0.3706  0.5015
 3284TIP3    H131411   2.171   0.568   3.225  0.7020 -1.3098 -0.0350
 3284TIP3    H231412   2.305   0.619   3.178  0.2961  0.7802  0.9565
 3285TIP3   OH231413   6.011   2.737   1.731 -0.3680  0.5788 -0.4071
 3285TIP3    H131414   6.088   2.795   1.730  0.1311 -0.0749 -0.9855
 3285TIP3    H231415   5.983   2.733   1.639  1.5960 -2.6454 -1.0063
 3286TIP3   OH231416   4.503   2.892   2.991  0.0785 -0.1713 -0.5906
 3286TIP3    H131417   4.459   2.959   3.043  0.3286 -1.1693  0.9596
 3286TIP3    H231418   4.492   2.921   2.900  0.1192  1.9201  0.0227
 3287TIP3   OH231419   2.999   5.612   2.664 -0.1629 -0.6191 -0.5476
 3287TIP3    H131420   2.919   5.664   2.663  0.4269  0.3121 -1.1578
 3287TIP3    H231421   3.009   5.581   2.574  0.1975 -0.6711 -0.4938
 3288TIP3   OH231422   4.445   4.779   2.255  0.0939 -0.4933 -0.2293
 3288TIP3    H131423   4.510   4.808   2.191 -0.2367 -1.2091 -0.9070
 3288TIP3    H231424   4.361   4.806   2.218 -0.0112  0.6553  0.7611
 3289TIP3   OH231425   3.980   4.232   2.922 -0.3568  0.6139  0.0996
 3289TIP3    H131426   3.923   4.308   2.934 -1.3715 -0.2366  0.9667
 3289TIP3    H231427   3.941   4.165   2.979  0.6611 -0.4633 -0.4443
 3290TIP3   OH231428   5.875   5.119   2.574 -0.1145  0.0268 -0.1049
 3290TIP3    H131429   5.862   5.067   2.653 -0.3775 -0.0936 -0.2260
 3290TIP3    H231430   5.946   5.178   2.596  1.9900 -2.0983 -0.7983
 3291TIP3   OH231431   4.987   1.884   2.705 -0.0298  0.0017  0.0566
 3291TIP3    H131432   5.038   1.965   2.708  0.1109 -0.0870  0.0829
 3291TIP3    H231433   4.906   1.905   2.752 -0.6772  0.5879 -1.2911
 3292TIP3   OH231434   2.035   2.170   2.857 -0.0558 -0.1441 -0.1437
 3292TIP3    H131435   2.091   2.227   2.805 -1.2787  0.2631 -1.0467
 3292TIP3    H231436   2.043   2.084   2.816 -0.4791  0.0251 -0.5850
 3293TIP3   OH231437   0.963   3.450   3.452  0.5709 -0.9074  0.3424
 3293TIP3    H131438   0.954   3.515   3.383  1.1887 -0.6097  0.5322
 3293TIP3    H231439   0.875   3.415   3.464 -0.0247  0.7186  1.0460
 3294TIP3   OH231440   1.945   0.751   2.471 -0.1002  0.0422 -0.0344
 3294TIP3    H131441   1.980   0.835   2.498 -0.7001  0.1142  0.5328
 3294TIP3    H231442   1.946   0.755   2.375 -2.1478  1.5891 -0.0767
 3295TIP3   OH231443   0.234   6.471   4.488 -0.0004  0.3083 -0.1388
 3295TIP3    H131444   0.207   6.385   4.521  1.0317 -0.3636 -0.9622
 3295TIP3    H231445   0.319   6.486   4.530 -0.2754  1.0485  0.1728
 3296TIP3   OH231446   0.978   0.145   3.717  0.4401  0.2328  0.2544
 3296TIP3    H131447   1.065   0.140   3.757  0.1196  0.1485  0.9649
 3296TIP3    H231448   0.924   0.187   3.784 -0.2220 -0.3348  0.0853
 3297TIP3   OH231449   6.057   0.126   1.564 -0.7913 -0.6485  0.1507
 3297TIP3    H131450   6.063   0.038   1.601 -0.3423 -1.0129 -0.7523
 3297TIP3    H231451   6.114   0.179   1.619  0.0499 -1.2269 -0.1413
 3298TIP3   OH231452   3.909   0.084   1.235  0.7211  0.0817  0.0074
 3298TIP3    H131453   3.979   0.091   1.300  0.1256  0.1340  0.6445
 3298TIP3    H231454   3.955   0.086   1.151  1.3915  1.2667  0.3861
 3299TIP3   OH231455   2.107   4.088   1.545  0.2142 -0.0534  0.3004
 3299TIP3    H131456   2.086   4.062   1.635 -2.4765 -0.7769 -0.4503
 3299TIP3    H231457   2.126   4.005   1.500 -0.3536  0.0943 -0.2270
 3300TIP3   OH231458   4.513   2.692   1.897  0.0861  0.1581 -0.1496
 3300TIP3    H131459   4.524   2.602   1.928  1.0886  0.6350  0.9265
 3300TIP3    H231460   4.570   2.744   1.953  0.3560  1.3324 -1.4766
 3301TIP3   OH231461   5.272   0.555   0.160  0.3088  0.3191 -0.0523
 3301TIP3    H131462   5.223   0.560   0.242  1.9148 -1.4177  1.1050
 3301TIP3    H231463   5.250   0.468   0.125  0.0266  0.8471 -1.2389
 3302TIP3   OH231464   4.712   2.721   3.032 -0.7836 -0.3845 -0.4749
 3302TIP3    H131465   4.627   2.679   3.039 -1.0540  0.3136  0.7484
 3302TIP3    H231466   4.692   2.814   3.018 -0.2968  0.0515  1.3529
 3303TIP3   OH231467   6.608   4.434   0.990 -0.1298 -0.6138  0.4428
 3303TIP3    H131468   6.622   4.475   0.905 -0.8449 -2.5566 -0.6855
 3303TIP3    H231469   6.576   4.505   1.046  1.1554  0.8846 -0.6424
 3304TIP3   OH231470   6.449   0.372   4.120 -0.4447  0.6393  0.2731
 3304TIP3    H131471   6.524   0.362   4.179  0.0951  0.5115 -0.4238
 3304TIP3    H231472   6.400   0.445   4.156  1.3383  2.3654 -0.6272
 3305TIP3   OH231473   4.428   1.746   1.518  0.0308 -0.2162  0.2048
 3305TIP3    H131474   4.413   1.745   1.423  0.1995  2.4494  0.0868
 3305TIP3    H231475   4.396   1.660   1.548  0.7333 -1.4631 -2.3395
 3306TIP3   OH231476   3.962   6.326   1.708  0.1134 -0.6803  0.0355
 3306TIP3    H131477   3.880   6.367   1.681  1.6579  1.3574 -1.9312
 3306TIP3    H231478   4.001   6.387   1.769  0.9360 -0.7837 -0.3668
 3307TIP3   OH231479   0.906   2.847   2.475  0.2596 -0.4024  0.4358
 3307TIP3    H131480   0.895   2.927   2.525  0.3263  1.1084 -1.8445
 3307TIP3    H231481   0.828   2.795   2.494  0.8532 -0.4772  3.0005
 3308TIP3   OH231482   0.701   2.417   3.182 -0.3170 -0.2252  0.2819
 3308TIP3    H131483   0.744   2.410   3.267 -0.7536  2.0580  0.7515
 3308TIP3    H231484   0.770   2.396   3.119  0.5569 -0.0321  1.1448
 3309TIP3   OH231485   5.968   6.563   3.628  0.3255 -0.2197  0.0857
 3309TIP3    H131486   6.001   6.554   3.718 -0.0145  0.8999  0.3432
 3309TIP3    H231487   5.984   6.655   3.606 -1.0720 -0.0673 -0.3939
 3310TIP3   OH231488   1.205   3.343   2.703  0.1727 -0.3033  0.0640
 3310TIP3    H131489   1.236   3.430   2.727  0.8880 -0.8146  1.0945
 3310TIP3    H231490   1.224   3.335   2.610  0.1900  0.6013 -0.0168
 3311TIP3   OH231491   1.945   4.572   3.466  0.2082  0.4392  0.1827
 3311TIP3    H131492   1.850   4.585   3.468  0.1964  0.8382 -1.5147
 3311TIP3    H231493   1.974   4.595   3.555 -1.4154 -1.0665  1.1785
 3312TIP3   OH231494   4.255   0.113   3.534 -0.4154 -0.1875  0.2338
 3312TIP3    H131495   4.271   0.202   3.565  0.7468 -0.2876 -0.0470
 3312TIP3    H231496   4.294   0.056   3.601  2.9773 -0.4019 -1.6841
 3313TIP3   OH231497   2.910   1.591   1.980  0.4328  0.3308 -0.3073
 3313TIP3    H131498   2.971   1.580   1.908  0.0516  1.3000 -0.8007
 3313TIP3    H231499   2.844   1.652   1.946 -1.7375 -1.9151 -0.3887
 3314TIP3   OH231500   5.220   6.873   2.772  0.0494 -0.2651 -0.2113
 3314TIP3    H131501   5.190   6.961   2.750  0.8456 -0.5108 -2.5170
 3314TIP3    H231502   5.203   6.865   2.866 -1.9179  1.5791 -0.3291
 3315TIP3   OH231503   4.983   0.613   1.992 -0.2403  0.0435  0.1527
 3315TIP3    H131504   4.946   0.652   1.914  1.8089  0.0816 -0.8780
 3315TIP3    H231505   4.991   0.685   2.054 -0.7760  0.2734 -0.0482
 3316TIP3   OH231506   6.449   0.935   0.795 -0.3496 -0.4763 -0.7439
 3316TIP3    H131507   6.530   0.959   0.750  0.0414  1.6569  0.9501
 3316TIP3    H231508   6.380   0.976   0.744  0.0976  1.9756  0.4782
 3317TIP3   OH231509   0.886   3.731   3.940  0.0501  0.4268  0.0904
 3317TIP3    H131510   0.946   3.775   3.880  0.1443 -0.6063 -0.5931
 3317TIP3    H231511   0.879   3.791   4.014  1.7020  0.7129  0.0663
 3318TIP3   OH231512   2.110   4.142   1.044 -0.4567 -0.1093 -0.0132
 3318TIP3    H131513   2.123   4.176   1.132  0.2572  0.6137 -0.3762
 3318TIP3    H231514   2.085   4.051   1.056  3.1112 -1.1427  0.8796
 3319TIP3   OH231515   6.739   6.423   3.107 -0.1872 -0.0006 -0.5563
 3319TIP3    H131516   6.714   6.340   3.068 -0.8957 -0.0662  0.0182
 3319TIP3    H231517   6.814   6.453   3.055 -0.1840 -0.7956 -1.0155
 3320TIP3   OH231518   5.320   4.716   3.622  0.1878  0.4000  0.0994
 3320TIP3    H131519   5.338   4.796   3.671 -0.8798  0.1062  1.0040
 3320TIP3    H231520   5.246   4.739   3.565  1.5850  0.8213 -1.6283
 3321TIP3   OH231521   6.353   5.718   2.416  0.1706 -0.1610  0.0601
 3321TIP3    H131522   6.342   5.757   2.329 -2.6168 -0.2150  0.2967
 3321TIP3    H231523   6.430   5.762   2.452  1.2969 -0.0032 -2.3201
 3322TIP3   OH231524   5.152   2.634   0.085  0.5967  0.5622 -0.3681
 3322TIP3    H131525   5.090   2.650   0.014  0.3802  2.1195  0.1384
 3322TIP3    H231526   5.196   2.552   0.061 -1.3519 -0.3688 -0.9354
 3323TIP3   OH231527   3.245   1.260   0.404 -0.3154 -0.1569  0.2233
 3323TIP3    H131528   3.310   1.247   0.335 -0.9128 -0.2546 -0.3214
 3323TIP3    H231529   3.172   1.204   0.380 -0.9789  0.6297  0.3603
 3324TIP3   OH231530   3.514   6.827   1.771  0.6502  0.1063 -0.0430
 3324TIP3    H131531   3.604   6.802   1.790  0.2196 -0.7030  1.0688
 3324TIP3    H231532   3.461   6.760   1.815 -0.5004  0.7200 -0.4454
 3325TIP3   OH231533   4.659   2.588   4.758 -1.0053 -0.2369 -0.1762
 3325TIP3    H131534   4.656   2.577   4.663 -0.0016  0.5433 -0.3154
 3325TIP3    H231535   4.645   2.682   4.771  1.4157  0.1263  0.2556
 3326TIP3   OH231536   1.277   2.046   0.609 -0.3820 -0.2369 -0.8470
 3326TIP3    H131537   1.243   1.984   0.673  1.1641 -1.6159 -1.2982
 3326TIP3    H231538   1.206   2.109   0.597 -1.5934 -1.2884  0.4378
 3327TIP3   OH231539   2.507   1.035   1.270 -0.2313  0.0856  0.1606
 3327TIP3    H131540   2.450   0.971   1.311 -2.1484  1.3484 -0.4216
 3327TIP3    H231541   2.499   1.113   1.324  0.1194  0.6149 -0.5255
 3328TIP3   OH231542   3.907   0.243   3.212 -0.2415  0.1229  0.5902
 3328TIP3    H131543   3.971   0.173   3.222 -0.2194  0.1125  0.3814
 3328TIP3    H231544   3.955   0.323   3.235  0.1475  0.2398 -0.5766
 3329TIP3   OH231545   5.471   0.382   2.660 -0.3729 -0.1469  0.0363
 3329TIP3    H131546   5.518   0.454   2.618 -1.0401  0.1940 -0.1355
 3329TIP3    H231547   5.381   0.413   2.667  0.0646  0.6814  3.6456
 3330TIP3   OH231548   1.737   0.046   1.616  0.3249 -0.4070 -0.2671
 3330TIP3    H131549   1.794   0.117   1.645 -1.4598  0.5867  1.0582
 3330TIP3    H231550   1.736   0.054   1.521 -1.5497  2.9176 -0.1298
 3331TIP3   OH231551   4.017   4.459   3.536 -0.1949  0.5082  0.2301
 3331TIP3    H131552   3.924   4.481   3.539  0.5304  4.6295 -1.0782
 3331TIP3    H231553   4.057   4.514   3.603  1.5506  0.8144 -0.9874
 3332TIP3   OH231554   5.178   2.822   3.904 -0.2972  0.5928  0.1606
 3332TIP3    H131555   5.237   2.865   3.842  1.9311  0.4729  2.0322
 3332TIP3    H231556   5.184   2.729   3.881 -0.2797  0.6455 -0.0531
 3333TIP3   OH231557   0.763   3.200   4.029  0.3737 -0.0458 -0.1676
 3333TIP3    H131558   0.851   3.162   4.027  1.0009  1.2085  1.2764
 3333TIP3    H231559   0.761   3.249   4.111 -0.8873  1.7939 -1.2384
 3334TIP3   OH231560   2.973   2.436   3.782  0.5028  0.0423 -0.4506
 3334TIP3    H131561   2.929   2.519   3.761 -0.5270 -0.5040 -0.5056
 3334TIP3    H231562   2.907   2.386   3.830  1.9472  0.2787  1.9621
 3335TIP3   OH231563   3.782   1.714   2.833 -0.4798 -0.6617 -0.4930
 3335TIP3    H131564   3.721   1.739   2.902  0.2122  0.1590 -0.1615
 3335TIP3    H231565   3.759   1.771   2.759 -0.4328 -0.7005 -0.5377
 3336TIP3   OH231566   4.333   1.391   0.791 -0.3024  0.1120  0.1718
 3336TIP3    H131567   4.242   1.420   0.781 -0.3440 -0.4991 -1.6389
 3336TIP3    H231568   4.380   1.436   0.720  0.3403 -1.3344 -0.3700
 3337TIP3   OH231569   0.641   5.159   2.419 -0.6967 -0.5243  0.5370
 3337TIP3    H131570   0.691   5.212   2.482  2.0290 -0.7448 -1.2593
 3337TIP3    H231571   0.614   5.082   2.469  1.9884 -1.0310  1.3567
 3338TIP3   OH231572   3.091   4.395   2.926  0.2387 -0.3400  0.1126
 3338TIP3    H131573   3.115   4.336   2.854 -1.0964 -0.5165 -0.2107
 3338TIP3    H231574   3.078   4.338   3.001 -0.6303 -0.4202 -0.0924
 3339TIP3   OH231575   4.376   2.478   3.847 -0.5312  0.3672 -0.0729
 3339TIP3    H131576   4.302   2.419   3.831 -0.1931 -0.0853  0.0168
 3339TIP3    H231577   4.360   2.553   3.789 -1.0408  0.2571 -0.0763
 3340TIP3   OH231578   4.734   2.096   0.840  0.4283 -0.5403 -0.7923
 3340TIP3    H131579   4.674   2.169   0.857 -0.1374 -1.4055  1.2654
 3340TIP3    H231580   4.692   2.046   0.770 -0.5490 -0.3678 -0.3497
 3341TIP3   OH231581   5.732   6.676   4.220  0.7103 -0.1891  0.8088
 3341TIP3    H131582   5.821   6.700   4.194 -0.4687  1.6827 -2.0304
 3341TIP3    H231583   5.699   6.623   4.146 -0.9152  0.2056  1.2189
 3342TIP3   OH231584   5.064   2.830   4.907  0.1262  0.1473  0.3925
 3342TIP3    H131585   5.135   2.765   4.907  0.6837  0.7231  1.6064
 3342TIP3    H231586   5.002   2.798   4.841  1.6374 -0.2198 -0.9352
 3343TIP3   OH231587   5.678   2.433   4.106  0.1282  0.4838 -0.2260
 3343TIP3    H131588   5.616   2.474   4.167 -0.3301 -0.8079  0.2244
 3343TIP3    H231589   5.693   2.499   4.039 -1.0923  1.1368  0.1078
 3344TIP3   OH231590   3.589   5.572   2.754  0.2000 -0.1020  0.3740
 3344TIP3    H131591   3.523   5.577   2.824  0.2742  0.4758  0.4090
 3344TIP3    H231592   3.598   5.663   2.724  0.6758 -0.2452  0.0841
 3345TIP3   OH231593   2.442   0.937   4.253  0.2108  0.1881 -0.0243
 3345TIP3    H131594   2.369   0.877   4.238  0.5431 -0.4660  0.8846
 3345TIP3    H231595   2.418   1.017   4.206 -1.5909  0.3701  1.1124
 3346TIP3   OH231596   0.539   6.475   3.077 -0.1694  0.2403 -0.1294
 3346TIP3    H131597   0.603   6.478   3.005  1.4203 -1.2675  1.1122
 3346TIP3    H231598   0.564   6.548   3.134  0.5578 -0.3892  0.3902
 3347TIP3   OH231599   4.611   5.770   1.089 -0.2551  0.4326  0.0474
 3347TIP3    H131600   4.649   5.683   1.102  0.5380  0.8759  0.8604
 3347TIP3    H231601   4.554   5.782   1.165 -3.2472 -0.7840 -1.8303
 3348TIP3   OH231602   0.655   2.153   1.997 -0.9527  0.2609 -0.1839
 3348TIP3    H131603   0.609   2.206   1.931 -1.1383  1.2772  0.7326
 3348TIP3    H231604   0.588   2.092   2.029 -0.5982 -0.9751 -1.6334
 3349TIP3   OH231605   2.142   3.716   2.539  0.2205 -0.6014  0.0395
 3349TIP3    H131606   2.137   3.719   2.444  1.7285  0.2446 -0.0476
 3349TIP3    H231607   2.174   3.628   2.559  1.7709 -0.1639 -0.3808
 3350TIP3   OH231608   0.631   0.252   8.002  0.1351 -0.4029 -0.2028
 3350TIP3    H131609   0.724   0.272   8.013  0.1457 -1.3914  2.1242
 3350TIP3    H231610   0.626   0.156   8.009 -0.8497 -0.6233 -2.6912
 3351TIP3   OH231611   2.445   2.287   3.876 -0.1020  0.4216  0.3470
 3351TIP3    H131612   2.486   2.314   3.958  1.0400 -0.0922 -0.0412
 3351TIP3    H231613   2.437   2.192   3.883  0.5491  0.3023 -0.3654
 3352TIP3   OH231614   3.885   3.111   3.974  0.1696  0.5168 -0.6703
 3352TIP3    H131615   3.797   3.140   3.950  0.5244  0.8719 -1.5919
 3352TIP3    H231616   3.876   3.079   4.064 -0.8828  0.6026 -0.7307
 3353TIP3   OH231617   0.160   6.857   0.508 -0.2946  0.0988  0.1928
 3353TIP3    H131618   0.086   6.900   0.466 -2.7061 -2.1272  1.8183
 3353TIP3    H231619   0.141   6.863   0.602  1.5296 -0.6727  0.6537
 3354TIP3   OH231620   1.037   5.735   2.263  0.6300  0.2300 -0.4236
 3354TIP3    H131621   1.001   5.669   2.203  1.3120 -0.6052  0.0597
 3354TIP3    H231622   1.018   5.819   2.221 -2.3599 -0.1005  0.0465
 3355TIP3   OH231623   2.836   1.517   3.311  0.0495 -0.6824  0.4301
 3355TIP3    H131624   2.853   1.610   3.301  1.7928 -1.1627 -2.0878
 3355TIP3    H231625   2.742   1.508   3.292 -0.0185  0.4960  0.1262
 3356TIP3   OH231626   0.539   1.870   1.851 -0.5064 -0.6389 -0.5050
 3356TIP3    H131627   0.606   1.818   1.896  0.2412 -0.2088 -1.0898
 3356TIP3    H231628   0.456   1.836   1.883 -0.0037 -1.0889  0.3483
 3357TIP3   OH231629   3.792   1.970   0.117 -0.3157 -0.2584  0.6937
 3357TIP3    H131630   3.841   1.890   0.096  0.2906  0.3777 -0.4233
 3357TIP3    H231631   3.799   2.024   0.038 -3.2840 -0.3498  0.2457
 3358TIP3   OH231632   2.193   2.338   1.392 -0.0097  0.0115 -0.0285
 3358TIP3    H131633   2.101   2.329   1.368 -1.2179  3.6365  2.4242
 3358TIP3    H231634   2.198   2.423   1.436  3.9048 -1.3424  2.6882
 3359TIP3   OH231635   4.158   4.087   2.542 -0.6040  0.7688  0.1713
 3359TIP3    H131636   4.071   4.086   2.583 -1.2835 -1.4025 -1.1810
 3359TIP3    H231637   4.148   4.145   2.467 -1.2943 -0.4999 -0.7398
 3360TIP3   OH231638   5.242   3.494   2.532 -0.3240  0.4122 -0.3113
 3360TIP3    H131639   5.333   3.523   2.530  0.6732 -2.3680  0.8070
 3360TIP3    H231640   5.210   3.509   2.443  1.2208  1.3769 -0.7425
 3361TIP3   OH231641   5.877   6.699   0.934 -0.2493  0.0974  0.2632
 3361TIP3    H131642   5.956   6.691   0.988 -0.3131  1.6593  0.6461
 3361TIP3    H231643   5.816   6.748   0.990 -1.0126  0.0505 -0.5174
 3362TIP3   OH231644   2.719   0.316   1.241  0.0677  0.4238 -0.0066
 3362TIP3    H131645   2.779   0.343   1.311 -0.2814 -0.9118  0.8607
 3362TIP3    H231646   2.761   0.344   1.160  1.0621  0.9572  0.6787
 3363TIP3   OH231647   0.336   1.029   0.300  0.9578  0.0480  0.7772
 3363TIP3    H131648   0.401   0.991   0.241  1.2339  0.3679  0.8686
 3363TIP3    H231649   0.332   1.122   0.275 -1.6333 -0.4809 -1.2371
 3364TIP3   OH231650   2.076   2.487   4.075 -0.3124 -0.2533  0.0425
 3364TIP3    H131651   2.126   2.436   4.012 -1.6858 -1.8805  0.2088
 3364TIP3    H231652   2.112   2.576   4.068 -0.7263 -0.2214 -3.3804
 3365TIP3   OH231653   4.513   0.589   1.743 -0.2955  0.0004 -0.4273
 3365TIP3    H131654   4.534   0.651   1.813 -0.6633  1.1869 -1.3319
 3365TIP3    H231655   4.428   0.552   1.769 -1.1191  1.4732 -0.8957
 3366TIP3   OH231656   1.010   0.343   1.642  0.8661 -0.6381 -0.4123
 3366TIP3    H131657   1.070   0.418   1.647  1.4944 -1.1947  0.6227
 3366TIP3    H231658   0.923   0.383   1.634  1.3581  0.1792 -2.0387
 3367TIP3   OH231659   3.711   2.569   4.095 -0.3924 -0.1793  0.4053
 3367TIP3    H131660   3.616   2.570   4.081 -0.3360 -1.6696 -0.2632
 3367TIP3    H231661   3.721   2.574   4.190 -1.1382 -0.1235  0.4887
 3368TIP3   OH231662   5.636   1.233   3.043 -0.0546  0.0185 -0.0396
 3368TIP3    H131663   5.678   1.245   2.958  0.1324 -1.2538 -0.1511
 3368TIP3    H231664   5.616   1.139   3.046 -1.0455  0.2434  0.8632
 3369TIP3   OH231665   1.737   2.842   0.726 -0.2966  0.5888 -0.1928
 3369TIP3    H131666   1.766   2.884   0.807 -2.6958  0.7282  0.6874
 3369TIP3    H231667   1.810   2.787   0.699  2.1136  3.4588 -0.1080
 3370TIP3   OH231668   4.376   5.170   3.171  0.1419  0.1076 -0.3399
 3370TIP3    H131669   4.284   5.194   3.164  0.5141  1.4561 -0.8819
 3370TIP3    H231670   4.375   5.082   3.208 -1.3791 -0.2591 -1.1911
 3371TIP3   OH231671   1.074   4.013   2.049  0.1952  0.0134 -0.4148
 3371TIP3    H131672   1.141   3.950   2.077 -0.0040 -0.0761 -0.1380
 3371TIP3    H231673   0.994   3.961   2.039  0.4232 -0.1021 -1.8897
 3372TIP3   OH231674   0.595   1.916   3.738 -0.3377  0.0957 -0.5403
 3372TIP3    H131675   0.512   1.940   3.780 -0.0758  1.6509 -0.8501
 3372TIP3    H231676   0.644   1.871   3.807  0.0657  2.5526  0.8723
 3373TIP3   OH231677   2.299   0.595   2.062  0.3134 -0.7758 -0.5375
 3373TIP3    H131678   2.308   0.613   1.968 -1.5635  1.7021 -0.3600
 3373TIP3    H231679   2.204   0.588   2.075  0.5703 -1.4617  1.1198
 3374TIP3   OH231680   4.665   6.449   0.210  0.0306  0.4899 -0.6329
 3374TIP3    H131681   4.723   6.520   0.236 -0.3421 -0.2371  2.7611
 3374TIP3    H231682   4.594   6.453   0.274  0.4730 -3.4474  0.3381
 3375TIP3   OH231683   1.471   2.961   1.367  0.4057 -0.2706  0.2095
 3375TIP3    H131684   1.556   2.947   1.327  0.2409  2.1086 -1.1489
 3375TIP3    H231685   1.415   2.893   1.330  1.4049 -1.1065  0.1910
 3376TIP3   OH231686   3.746   2.739   2.138 -0.0759  0.1108  0.6094
 3376TIP3    H131687   3.712   2.750   2.049 -2.2549  2.1502  1.5638
 3376TIP3    H231688   3.732   2.647   2.158  0.6932 -0.4563 -1.1942
 3377TIP3   OH231689   4.304   2.961   3.195 -0.0601 -0.2285  0.2282
 3377TIP3    H131690   4.238   2.972   3.126  0.1145 -1.3345 -0.1328
 3377TIP3    H231691   4.262   2.904   3.259 -0.0105  0.3355  0.7742
 3378TIP3   OH231692   1.430   4.260   2.129 -0.0336  0.0852  0.3878
 3378TIP3    H131693   1.471   4.182   2.168 -0.6854 -0.3905  0.1297
 3378TIP3    H231694   1.341   4.260   2.164 -0.9962 -0.9446 -1.8798
 3379TIP3   OH231695   4.878   3.591   2.062 -0.1372 -0.0234  0.2736
 3379TIP3    H131696   4.881   3.676   2.107 -1.0158  0.5052 -0.6025
 3379TIP3    H231697   4.810   3.603   1.996  0.2455 -1.1848 -0.3439
 3380TIP3   OH231698   4.060   3.635   0.435 -0.8665  0.1824  0.6361
 3380TIP3    H131699   4.140   3.596   0.400 -2.5015 -2.4368 -0.4775
 3380TIP3    H231700   4.056   3.604   0.525 -1.4820 -1.2100  0.1542
 3381TIP3   OH231701   3.084   1.048   0.377  0.2881  0.3649 -0.0631
 3381TIP3    H131702   3.043   1.049   0.463  0.3493  2.0766 -0.0047
 3381TIP3    H231703   3.014   1.077   0.318  0.2988 -0.6142 -0.5716
 3382TIP3   OH231704   2.896   5.963   0.929  0.1156  0.5834 -0.0937
 3382TIP3    H131705   2.909   6.047   0.886 -0.8015  0.6606 -0.2522
 3382TIP3    H231706   2.801   5.956   0.940  0.3218  0.8125  2.4380
 3383TIP3   OH231707   6.365   2.031   0.834  0.4946 -0.0380 -0.2058
 3383TIP3    H131708   6.370   2.031   0.738  1.4202 -0.4513 -0.1615
 3383TIP3    H231709   6.409   1.950   0.861  1.1700  0.5841  0.6107
 3384TIP3   OH231710   2.385   1.842   1.985 -0.5279 -0.1254  0.3812
 3384TIP3    H131711   2.319   1.838   2.053 -0.9336  3.8497  0.4396
 3384TIP3    H231712   2.336   1.832   1.903 -0.4387 -1.9549  0.5083
 3385TIP3   OH231713   1.877   2.022   1.394 -0.5192  0.1903 -0.6457
 3385TIP3    H131714   1.805   2.063   1.345 -2.1713 -0.7188  0.8855
 3385TIP3    H231715   1.919   2.094   1.440  0.5444  0.9427 -2.6867
 3386TIP3   OH231716   1.399   1.833   0.075 -0.0891  0.1664 -0.2230
 3386TIP3    H131717   1.472   1.877   0.118  0.2185  0.9029 -1.4560
 3386TIP3    H231718   1.338   1.903   0.053 -0.3122 -0.2196 -0.8482
 3387TIP3   OH231719   6.887   3.556   1.409 -0.6146  0.1325  0.1066
 3387TIP3    H131720   6.892   3.462   1.425  2.3931  0.0190 -0.9140
 3387TIP3    H231721   6.810   3.566   1.352 -0.0946 -1.9455 -1.0647
 3388TIP3   OH231722   2.315   3.961   2.518  0.3366  0.2116 -0.3160
 3388TIP3    H131723   2.283   4.002   2.599  0.7240 -1.4503  0.7054
 3388TIP3    H231724   2.274   3.875   2.517  0.5558  0.1063 -1.7692
 3389TIP3   OH231725   5.275   4.001   3.336 -0.1872  0.4456 -0.1026
 3389TIP3    H131726   5.234   4.087   3.326 -0.2561  0.5342  0.8614
 3389TIP3    H231727   5.221   3.956   3.400  1.0116  0.4327  0.9296
 3390TIP3   OH231728   0.008   1.393   1.508 -0.0269  0.2661 -0.4540
 3390TIP3    H131729  -0.049   1.470   1.499 -1.1899 -0.3458  1.1735
 3390TIP3    H231730  -0.036   1.325   1.457  0.7878  0.5325 -1.5539
 3391TIP3   OH231731   6.828   0.087   0.374 -0.2978  0.2162  0.0275
 3391TIP3    H131732   6.775   0.007   0.376  1.5743 -1.1007  0.5867
 3391TIP3    H231733   6.783   0.148   0.433 -2.1110 -0.1659 -0.9175
 3392TIP3   OH231734   0.293   5.172   4.791  0.1807  0.6192 -0.0757
 3392TIP3    H131735   0.245   5.224   4.855  0.7875  1.1540 -0.0489
 3392TIP3    H231736   0.271   5.081   4.812 -0.0214  0.8167  0.5670
 3393TIP3   OH231737   5.683   1.390   3.901 -0.0662 -0.0237  0.1212
 3393TIP3    H131738   5.767   1.430   3.926 -0.8697  0.9951  1.3880
 3393TIP3    H231739   5.629   1.400   3.980 -1.0836 -1.4949 -0.3656
 3394TIP3   OH231740   5.520   2.376   2.254  0.2968  0.1826 -0.0303
 3394TIP3    H131741   5.558   2.338   2.175 -2.9356 -0.9573 -1.2362
 3394TIP3    H231742   5.528   2.470   2.242  1.0544 -0.0014 -1.0722
 3395TIP3   OH231743   2.642   0.786   2.022 -0.4966 -0.6662  0.2769
 3395TIP3    H131744   2.707   0.857   2.016 -1.7590  0.7891  2.6167
 3395TIP3    H231745   2.558   0.830   2.033 -1.6399 -2.5394 -0.4226
 3396TIP3   OH231746   5.744   3.510   2.662 -0.0884 -0.0312 -0.4944
 3396TIP3    H131747   5.729   3.581   2.601  1.0686 -0.3474 -1.1645
 3396TIP3    H231748   5.680   3.443   2.638 -1.5016  0.9273  0.4399
 3397TIP3   OH231749   0.118   0.046   0.775 -0.2677 -0.2601 -0.7451
 3397TIP3    H131750   0.085   0.115   0.832 -0.3847  0.2877 -1.4556
 3397TIP3    H231751   0.208   0.031   0.806  0.3022  1.2883 -1.5064
 3398TIP3   OH231752   3.323   3.114   3.704  0.3548  0.1217  0.1600
 3398TIP3    H131753   3.278   3.052   3.761 -1.0305  0.3649 -0.6267
 3398TIP3    H231754   3.385   3.061   3.655  0.5984 -0.3032  0.9054
 3399TIP3   OH231755   1.373   1.727   3.643 -0.1262  0.2558  0.3151
 3399TIP3    H131756   1.365   1.732   3.738  1.3109  1.9466  0.4023
 3399TIP3    H231757   1.296   1.772   3.609 -1.7127 -2.0750  0.5536
 3400TIP3   OH231758   1.277   6.733   3.663  0.1804 -0.6932  0.5835
 3400TIP3    H131759   1.282   6.739   3.758  1.1124  0.6758  0.4910
 3400TIP3    H231760   1.201   6.677   3.645  0.0778 -1.0746  2.1176
 3401TIP3   OH231761   3.356   0.813   4.638  0.0249 -0.1355 -0.1825
 3401TIP3    H131762   3.277   0.794   4.588 -1.0296  0.7504  1.0766
 3401TIP3    H231763   3.337   0.781   4.726  0.1639  2.0379  0.6925
 3402TIP3   OH231764   5.792   5.769   3.756 -0.2980  0.3881 -0.3902
 3402TIP3    H131765   5.885   5.756   3.773 -0.6738  0.2530  1.8640
 3402TIP3    H231766   5.749   5.709   3.816 -1.8648  0.9035 -0.9557
 3403TIP3   OH231767   4.530   5.803   2.148 -0.1117  0.0269  0.4595
 3403TIP3    H131768   4.536   5.814   2.053  0.5650 -0.2718  0.4666
 3403TIP3    H231769   4.476   5.877   2.177 -2.3124 -1.1259 -0.4175
 3404TIP3   OH231770   1.015   2.311   1.897 -0.1007  0.3109 -0.9417
 3404TIP3    H131771   0.998   2.247   1.828 -0.8040  0.1362 -0.6172
 3404TIP3    H231772   1.086   2.365   1.863 -2.2351  2.0190 -3.0267
 3405TIP3   OH231773   6.234   4.278   2.605  0.4151  0.6528  0.0267
 3405TIP3    H131774   6.162   4.327   2.565  0.7914  2.4195  1.3945
 3405TIP3    H231775   6.200   4.189   2.614 -1.2552  1.2324 -0.1887
 3406TIP3   OH231776   0.395   4.369   3.659 -0.4943 -0.1672 -0.2470
 3406TIP3    H131777   0.480   4.410   3.678  0.6835 -0.9663 -3.1641
 3406TIP3    H231778   0.417   4.283   3.626 -2.6130 -1.0910  0.5663
 3407TIP3   OH231779   1.160   4.317   1.587 -0.1898 -0.6376  0.6508
 3407TIP3    H131780   1.232   4.364   1.629 -0.2835 -1.8883  2.3121
 3407TIP3    H231781   1.180   4.224   1.602 -2.3751 -1.0174  1.6556
 3408TIP3   OH231782   4.257   5.441   1.343  0.2096 -0.6231  0.2548
 3408TIP3    H131783   4.334   5.422   1.397  1.0044  1.5824  0.0427
 3408TIP3    H231784   4.194   5.480   1.405  0.6516  0.7731 -0.1306
 3409TIP3   OH231785   1.316   5.759   0.717 -0.4920 -0.0672 -0.0434
 3409TIP3    H131786   1.345   5.808   0.640 -0.5473 -0.3394 -0.2393
 3409TIP3    H231787   1.239   5.806   0.748 -0.9197 -0.3844 -0.6012
 3410TIP3   OH231788   5.243   0.904   1.181  0.3362 -0.5020  0.0303
 3410TIP3    H131789   5.209   0.874   1.266 -0.3534 -0.2659 -0.1563
 3410TIP3    H231790   5.184   0.974   1.155  1.0680  0.0304 -0.2336
 3411TIP3   OH231791   3.486   1.670   1.127  0.2983 -0.5721  0.7881
 3411TIP3    H131792   3.397   1.706   1.125  0.5411  0.0288  0.4308
 3411TIP3    H231793   3.473   1.575   1.121 -0.2822 -0.4228 -1.1751
 3412TIP3   OH231794   2.547   0.461   3.792  0.1629  0.6545 -0.0691
 3412TIP3    H131795   2.501   0.538   3.827  0.7892  0.8059  0.4452
 3412TIP3    H231796   2.588   0.421   3.869  0.3198  0.1333 -0.4215
 3413TIP3   OH231797   5.662   5.591   3.302  0.1545  0.5248  0.4406
 3413TIP3    H131798   5.573   5.624   3.317 -0.3503 -0.2956 -0.6400
 3413TIP3    H231799   5.698   5.578   3.390 -1.3669 -0.6421  0.9273
 3414TIP3   OH231800   1.956   5.048   2.913  0.3924  0.3567  0.2471
 3414TIP3    H131801   1.921   4.961   2.932  1.0606  0.3611  1.6799
 3414TIP3    H231802   2.044   5.046   2.950  0.2690  1.7802  0.6629
 3415TIP3   OH231803   3.110   0.553   3.760 -0.5356  0.0468  0.1424
 3415TIP3    H131804   3.073   0.493   3.824 -0.1454 -0.2127  0.1274
 3415TIP3    H231805   3.036   0.582   3.707 -1.0032  0.9127  1.2354
 3416TIP3   OH231806   6.552   3.390   1.955 -0.5053 -0.2705  0.3328
 3416TIP3    H131807   6.618   3.363   2.020  0.5654  0.6906 -0.3164
 3416TIP3    H231808   6.570   3.482   1.939 -1.4987 -0.2014 -0.4833
 3417TIP3   OH231809   1.051   0.340   0.306  1.1511  0.5559 -0.2954
 3417TIP3    H131810   0.957   0.326   0.312  0.5679  0.2206 -5.3922
 3417TIP3    H231811   1.065   0.429   0.337 -0.5093  0.0665  2.0291
 3418TIP3   OH231812   5.428   0.398   1.598 -0.2207  0.2849 -0.1180
 3418TIP3    H131813   5.493   0.372   1.663 -0.9405  0.1140  0.5550
 3418TIP3    H231814   5.479   0.428   1.523  0.6301  0.7877  0.6438
 3419TIP3   OH231815   3.739   4.374   0.835  0.4991 -0.3325 -0.1109
 3419TIP3    H131816   3.793   4.374   0.914  0.2148 -0.7219  0.0880
 3419TIP3    H231817   3.777   4.305   0.780  0.0146 -0.8360  0.1699
 3420TIP3   OH231818   1.498   5.360   3.339 -0.2364  0.2018 -0.3165
 3420TIP3    H131819   1.472   5.400   3.256 -1.3324 -0.0871 -0.1343
 3420TIP3    H231820   1.416   5.355   3.389  0.7342  2.4019  1.6661
 3421TIP3   OH231821   3.328   2.728   0.659 -0.3546 -0.6404  0.4393
 3421TIP3    H131822   3.386   2.756   0.588 -0.4313  1.7448  1.2327
 3421TIP3    H231823   3.380   2.664   0.709  1.4656  1.0907  0.8694
 3422TIP3   OH231824   2.773   5.044   3.523  0.0920  0.3589 -0.1640
 3422TIP3    H131825   2.863   5.052   3.491  0.9934 -1.1897  1.7098
 3422TIP3    H231826   2.738   4.967   3.479  0.2592  0.0380  0.2527
 3423TIP3   OH231827   1.163   5.409   4.130  0.1746 -0.3326 -0.5747
 3423TIP3    H131828   1.161   5.452   4.045  0.8229  1.9304  0.4869
 3423TIP3    H231829   1.249   5.368   4.134  0.4357  0.2062 -0.6981
 3424TIP3   OH231830   1.574   6.089   3.263  0.0462 -0.4430  0.4264
 3424TIP3    H131831   1.540   6.017   3.317  0.1551  0.8156  2.2595
 3424TIP3    H231832   1.660   6.058   3.234 -0.2562 -1.3808  0.4881
 3425TIP3   OH231833   0.863   3.615   3.255  0.1088  0.2341 -0.3721
 3425TIP3    H131834   0.792   3.671   3.287 -0.1758 -0.5889  0.4643
 3425TIP3    H231835   0.829   3.578   3.174  0.5028  1.6500 -1.2353
 3426TIP3   OH231836   1.487   0.271   3.905  0.3196  0.3599 -0.4046
 3426TIP3    H131837   1.450   0.271   3.993  1.2352 -1.6347  0.0268
 3426TIP3    H231838   1.575   0.308   3.916  0.8558 -0.9048 -0.2413
 3427TIP3   OH231839   1.471   6.668   4.708 -0.7368  0.7593 -0.2284
 3427TIP3    H131840   1.525   6.718   4.769 -0.2393 -0.5740  0.4725
 3427TIP3    H231841   1.446   6.590   4.757 -1.7093  0.4401 -1.1963
 3428TIP3   OH231842   3.426   4.991   3.768  0.2373 -0.0060  0.6834
 3428TIP3    H131843   3.359   4.956   3.827  1.9259 -1.9578  1.5844
 3428TIP3    H231844   3.427   5.085   3.785 -0.8766 -0.2204  2.1011
 3429TIP3   OH231845   3.729   5.503   0.198 -0.1431  0.8767 -0.1765
 3429TIP3    H131846   3.794   5.432   0.194  0.4909  1.4877 -1.5249
 3429TIP3    H231847   3.645   5.458   0.198  0.2527  0.1059 -0.5973
 3430TIP3   OH231848   5.491   5.537   8.477  0.0084 -0.0891  0.1229
 3430TIP3    H131849   5.421   5.497   8.425  0.8828 -1.5253 -0.0055
 3430TIP3    H231850   5.472   5.508   8.567  1.0199 -1.4100 -0.0630
 3431TIP3   OH231851   2.812   2.861   3.460 -0.2572 -0.2298 -0.0344
 3431TIP3    H131852   2.719   2.871   3.481 -0.1545  1.4435 -0.2721
 3431TIP3    H231853   2.826   2.766   3.460 -1.6413 -0.4814  1.3764
 3432TIP3   OH231854   5.152   2.900   1.823 -0.2830  0.3688 -0.2158
 3432TIP3    H131855   5.190   2.834   1.765 -0.5022 -0.8796  0.9855
 3432TIP3    H231856   5.202   2.980   1.805 -0.2474 -0.0211 -1.9630
 3433TIP3   OH231857   5.416   2.806   2.108  0.2806 -0.0286  0.2958
 3433TIP3    H131858   5.356   2.791   2.181  0.1797  0.7350  0.3829
 3433TIP3    H231859   5.400   2.734   2.048 -1.4065  0.6706 -0.1361
 3434TIP3   OH231860   3.502   6.308   1.187  0.0187  0.4545 -0.6489
 3434TIP3    H131861   3.493   6.213   1.191  1.1441  0.2737 -1.7026
 3434TIP3    H231862   3.594   6.323   1.209 -0.0280  1.2601 -0.9979
 3435TIP3   OH231863   5.871   1.549   1.650  0.3891  0.4452 -0.1078
 3435TIP3    H131864   5.893   1.569   1.741 -1.7730 -1.3259  0.9195
 3435TIP3    H231865   5.900   1.459   1.637 -1.7965 -0.3027 -0.1896
 3436TIP3   OH231866   5.709   3.331   3.503 -0.1581 -0.2129  0.2137
 3436TIP3    H131867   5.752   3.277   3.437 -1.6703 -1.1729 -0.0371
 3436TIP3    H231868   5.645   3.382   3.454  0.0230  0.4902  0.6953
 3437TIP3   OH231869   4.677   6.872   2.558 -0.5446  0.7592  0.5237
 3437TIP3    H131870   4.594   6.878   2.605 -0.4032 -0.6967  0.9995
 3437TIP3    H231871   4.651   6.859   2.466 -0.9242 -1.6769  0.9077
 3438TIP3   OH231872   2.290   6.148   3.249  0.0163  0.0378  0.3116
 3438TIP3    H131873   2.251   6.129   3.334  0.0804  1.8140  0.7787
 3438TIP3    H231874   2.266   6.239   3.231  1.7030  0.3522 -0.6245
 3439TIP3   OH231875   4.306   3.933   4.237  0.1576 -0.4967  0.0428
 3439TIP3    H131876   4.359   3.866   4.280 -1.3275 -0.2360  2.4268
 3439TIP3    H231877   4.222   3.890   4.221  0.4903 -0.4188 -2.2694
 3440TIP3   OH231878   6.069   0.215   2.451 -0.0197 -0.2009  0.0200
 3440TIP3    H131879   6.130   0.152   2.489 -2.0237 -0.8084  2.5025
 3440TIP3    H231880   6.005   0.231   2.520 -0.8121  2.9718 -1.2808
 3441TIP3   OH231881   4.838   4.316   2.130 -0.1509 -0.4386 -0.7821
 3441TIP3    H131882   4.876   4.258   2.196 -1.8452  0.0582  0.7306
 3441TIP3    H231883   4.906   4.324   2.063  0.1862 -4.1249 -1.1035
 3442TIP3   OH231884   6.059   2.262   4.209 -0.5295  0.3628 -0.0697
 3442TIP3    H131885   6.080   2.205   4.283 -2.1540  0.0152  0.1561
 3442TIP3    H231886   5.981   2.309   4.237 -1.5778 -0.2679 -1.8148
 3443TIP3   OH231887   1.417   5.639   1.551 -0.2913  0.2423 -0.2010
 3443TIP3    H131888   1.417   5.650   1.646  0.6012  0.0853 -0.1707
 3443TIP3    H231889   1.327   5.615   1.529 -0.4802  0.1815  0.6165
 3444TIP3   OH231890   1.148   3.775   3.324 -0.2981 -0.5383 -0.2934
 3444TIP3    H131891   1.194   3.699   3.361 -0.1562 -0.2229  0.1887
 3444TIP3    H231892   1.058   3.746   3.314 -0.4874 -0.4276  0.9309
 3445TIP3   OH231893   6.506   0.114   1.164  0.2564 -0.2062 -0.5138
 3445TIP3    H131894   6.450   0.042   1.193 -2.4024  0.6069 -3.1500
 3445TIP3    H231895   6.551   0.079   1.087  1.4413  0.0110  0.0510
 3446TIP3   OH231896   1.412   4.825   2.515  0.4073 -0.2654 -0.0672
 3446TIP3    H131897   1.464   4.869   2.582 -0.9921  1.1310  0.1738
 3446TIP3    H231898   1.323   4.822   2.552 -0.3256  0.2563 -1.7131
 3447TIP3   OH231899   2.575   5.212   2.613  0.1166  0.5740 -0.2143
 3447TIP3    H131900   2.517   5.276   2.572 -0.3266  0.5255  0.3263
 3447TIP3    H231901   2.656   5.261   2.629 -0.0088  0.8313 -0.3536
 3448TIP3   OH231902   0.837   6.817   2.009 -0.2040  0.1656 -0.0236
 3448TIP3    H131903   0.870   6.886   1.952 -0.0448  0.5935  0.5755
 3448TIP3    H231904   0.912   6.794   2.065 -1.6090  3.3759  3.5732
 3449TIP3   OH231905   6.142   2.973   2.577  0.4534 -0.1275 -0.4849
 3449TIP3    H131906   6.151   2.887   2.537  0.6903  0.1041 -0.9327
 3449TIP3    H231907   6.171   3.034   2.510  1.9506  0.2027  0.4082
 3450TIP3   OH231908   1.850   0.369   2.873  0.0718  0.1458  0.3726
 3450TIP3    H131909   1.756   0.363   2.886  0.3390 -2.6141  1.5730
 3450TIP3    H231910   1.859   0.410   2.787 -2.1472  1.8655  0.8804
 3451TIP3   OH231911   0.728   6.761   0.424  0.1959  0.2122 -0.3267
 3451TIP3    H131912   0.749   6.707   0.501 -3.6657  0.8348  1.3733
 3451TIP3    H231913   0.742   6.702   0.350  1.9107 -1.1386  0.9714
 3452TIP3   OH231914   1.453   2.068   2.573  0.0898 -0.0968  0.0291
 3452TIP3    H131915   1.415   1.987   2.607  0.9914 -0.6226 -0.2008
 3452TIP3    H231916   1.545   2.047   2.555 -0.0728  0.4807 -1.6750
 3453TIP3   OH231917   1.477   4.095   2.762  0.4119 -0.0414  0.0413
 3453TIP3    H131918   1.407   4.149   2.799  0.9610  1.6565 -1.2638
 3453TIP3    H231919   1.474   4.014   2.812 -1.7994  0.3934  0.7036
 3454TIP3   OH231920   5.062   5.063   4.132  0.0539  0.9361  0.4677
 3454TIP3    H131921   5.078   5.134   4.194  0.1529  1.1891  0.1538
 3454TIP3    H231922   4.997   5.099   4.071 -1.6669 -0.0160  1.6426
 3455TIP3   OH231923   3.608   3.500   4.525 -0.5929  0.5498 -0.3751
 3455TIP3    H131924   3.677   3.521   4.461  1.3291 -0.0418  1.3768
 3455TIP3    H231925   3.559   3.429   4.484  0.2601  0.5361 -1.4252
 3456TIP3   OH231926   0.532   1.680   0.745  0.3305  0.2030  0.0681
 3456TIP3    H131927   0.514   1.616   0.814 -0.3012 -0.0888 -0.3591
 3456TIP3    H231928   0.627   1.694   0.749  0.3526 -0.1119  0.7273
 3457TIP3   OH231929   5.297   2.046   1.317 -0.3777  0.0871 -0.1273
 3457TIP3    H131930   5.232   1.994   1.364 -1.5922  1.4863 -0.1709
 3457TIP3    H231931   5.311   2.123   1.372 -0.3545  0.8087 -1.0977
 3458TIP3   OH231932   0.713   4.310   0.500 -0.4518 -0.1721 -0.1007
 3458TIP3    H131933   0.723   4.255   0.422  0.1465 -0.5611  0.2469
 3458TIP3    H231934   0.665   4.387   0.468  0.7596  0.2021 -1.1148
 3459TIP3   OH231935   1.662   0.941   2.573  0.0944 -0.0418 -0.5497
 3459TIP3    H131936   1.604   1.007   2.535 -0.9015 -0.4950  0.1249
 3459TIP3    H231937   1.619   0.915   2.654  1.8665  0.4758  0.6123
 3460TIP3   OH231938   0.294   2.545   1.596 -0.3516  0.0095  0.0183
 3460TIP3    H131939   0.341   2.471   1.558 -1.2203 -0.7807  0.4330
 3460TIP3    H231940   0.223   2.564   1.535 -1.0358 -0.4992  0.6229
 3461TIP3   OH231941   1.969   0.169   1.161 -0.3536  0.8580  0.1174
 3461TIP3    H131942   2.021   0.219   1.098 -0.9012  1.4863  0.1428
 3461TIP3    H231943   1.903   0.232   1.192 -0.7083  0.2714  0.5750
 3462TIP3   OH231944   1.678   2.161   0.350 -0.1944  0.3400 -0.0953
 3462TIP3    H131945   1.658   2.255   0.356 -2.1262  0.2775 -3.2895
 3462TIP3    H231946   1.691   2.145   0.257 -0.3713 -2.6795  0.2987
 3463TIP3   OH231947   2.557   6.764   2.915  0.0050  0.3410 -0.0997
 3463TIP3    H131948   2.474   6.721   2.894  0.2905  0.2537 -1.1076
 3463TIP3    H231949   2.531   6.847   2.956 -0.5544 -0.2737  0.8291
 3464TIP3   OH231950   1.268   5.274   0.507  0.3923  0.2518  0.9564
 3464TIP3    H131951   1.255   5.180   0.521  0.3977  0.2324  0.8337
 3464TIP3    H231952   1.362   5.286   0.514  0.5330  0.0357 -0.2900
 3465TIP3   OH231953   5.596   3.190   4.088 -0.5490 -0.4105 -0.3492
 3465TIP3    H131954   5.589   3.270   4.036  0.7065  0.5636  0.8725
 3465TIP3    H231955   5.677   3.202   4.139 -1.5290 -1.4333  1.5592
 3466TIP3   OH231956   0.806   6.064   0.939 -0.1705  0.4975 -0.6419
 3466TIP3    H131957   0.760   6.013   0.872 -2.6160 -0.8035  1.8256
 3466TIP3    H231958   0.737   6.091   1.000  2.1104 -0.6290  2.7385
 3467TIP3   OH231959   1.755   1.271   0.701 -0.3940 -0.4747  0.1519
 3467TIP3    H131960   1.844   1.266   0.736  0.0231  0.0902 -0.7955
 3467TIP3    H231961   1.728   1.179   0.692  0.4997 -0.6840 -0.5317
 3468TIP3   OH231962   3.320   3.079   2.796 -0.1749  0.3374  0.2539
 3468TIP3    H131963   3.381   3.020   2.840  2.4069  2.3510 -0.3899
 3468TIP3    H231964   3.270   3.023   2.737  0.4339 -1.5325  1.4505
 3469TIP3   OH231965   5.536   2.913   4.054 -0.3645 -0.1921  0.3086
 3469TIP3    H131966   5.443   2.912   4.078 -0.3182 -0.2569  0.4857
 3469TIP3    H231967   5.555   3.005   4.037 -0.2090 -0.0415  1.2573
 3470TIP3   OH231968   4.013   1.111   3.788 -0.2512 -0.3357  0.3168
 3470TIP3    H131969   3.945   1.063   3.834 -0.1700 -1.0924 -0.3324
 3470TIP3    H231970   3.966   1.167   3.726 -0.3196 -0.0597  0.6155
 3471TIP3   OH231971   5.471   6.319   2.932 -0.3076  0.0793 -0.2186
 3471TIP3    H131972   5.462   6.390   2.995  0.8911 -0.3088  0.4280
 3471TIP3    H231973   5.508   6.361   2.854  2.5219 -0.0899  0.8951
 3472TIP3   OH231974   3.928   1.348   1.776  0.1725  0.1294  0.2593
 3472TIP3    H131975   3.861   1.373   1.713 -0.7713 -1.0159  0.7562
 3472TIP3    H231976   4.003   1.322   1.722 -0.5701 -0.7048 -0.4006
 3473TIP3   OH231977   5.982   5.737   2.223  0.1222  0.4326 -0.3282
 3473TIP3    H131978   6.028   5.816   2.252  2.1039 -0.5254 -0.7470
 3473TIP3    H231979   5.889   5.762   2.225  0.5429  2.1163  1.5265
 3474TIP3   OH231980   3.313   1.172   3.920  0.4572 -0.1427  0.6810
 3474TIP3    H131981   3.367   1.098   3.895  0.6622 -0.5422  2.1668
 3474TIP3    H231982   3.342   1.194   4.009 -1.3596  0.0519  1.2768
 3475TIP3   OH231983   6.699   0.365   0.367  0.3744  0.0794  0.1304
 3475TIP3    H131984   6.629   0.430   0.367  0.3458  0.0828 -1.5168
 3475TIP3    H231985   6.756   0.392   0.439  0.0558  1.5786 -0.1456
 3476TIP3   OH231986   0.775   0.894   3.458  0.0352  0.0674  0.5605
 3476TIP3    H131987   0.812   0.806   3.456 -0.6112 -0.1955 -0.9529
 3476TIP3    H231988   0.850   0.952   3.474  0.3310 -0.7994  2.5288
 3477TIP3   OH231989   2.651   1.557   2.129 -0.3827  0.3503  0.1254
 3477TIP3    H131990   2.638   1.486   2.193 -0.9727  1.3398  1.1427
 3477TIP3    H231991   2.741   1.584   2.142  0.0513 -0.6099 -0.7157
 3478TIP3   OH231992   3.855   3.121   3.589  0.0566 -0.7714 -0.1199
 3478TIP3    H131993   3.788   3.176   3.549  0.3966  0.2632  0.6575
 3478TIP3    H231994   3.807   3.058   3.641 -0.3478  0.4008  0.9921
 3479TIP3   OH231995   1.406   3.079   2.771 -0.3850 -0.1718 -0.4618
 3479TIP3    H131996   1.313   3.079   2.749  0.1380  0.6716 -2.9296
 3479TIP3    H231997   1.446   3.141   2.710  1.7273 -0.0421  0.9453
 3480TIP3   OH231998   1.158   4.080   0.503  0.8182 -0.4228 -0.6549
 3480TIP3    H131999   1.223   4.127   0.555 -0.4426 -0.1429  0.7285
 3480TIP3    H232000   1.153   3.993   0.542 -1.2904  0.2807  0.8347
 3481TIP3   OH232001   4.617   6.717   2.286 -0.0369 -0.5820 -0.4217
 3481TIP3    H132002   4.663   6.724   2.202  0.9757 -1.5194  0.0340
 3481TIP3    H232003   4.560   6.794   2.288 -0.6776 -0.9467 -2.3120
 3482TIP3   OH232004   3.293   6.616   4.276 -0.2297 -0.0530  0.0223
 3482TIP3    H132005   3.215   6.624   4.221 -0.6759  0.4840  0.7282
 3482TIP3    H232006   3.283   6.683   4.343  1.7070  1.2293 -0.8943
 3483TIP3   OH232007   0.428   0.853   1.233 -0.2985  0.4295 -0.8350
 3483TIP3    H132008   0.424   0.790   1.305 -0.2112  1.5447  0.1670
 3483TIP3    H232009   0.379   0.811   1.162  0.3666 -1.0727 -0.4473
 3484TIP3   OH232010   4.135   0.591   1.741  0.6363 -0.3566  0.3006
 3484TIP3    H132011   4.172   0.508   1.771  1.2444  0.2546  1.2973
 3484TIP3    H232012   4.042   0.586   1.763  0.8557 -0.3939  1.2340
 3485TIP3   OH232013   4.359   3.885   4.787 -0.6559  0.0835  0.3850
 3485TIP3    H132014   4.308   3.804   4.789  1.0217 -1.0331  0.0957
 3485TIP3    H232015   4.376   3.900   4.694 -0.5363  0.4944  0.4721
 3486TIP3   OH232016   1.323   6.143   3.392  0.3151 -0.6380 -0.2733
 3486TIP3    H132017   1.406   6.171   3.354  1.1694 -1.6310  0.7680
 3486TIP3    H232018   1.342   6.055   3.426 -1.4141 -1.2440 -0.8111
 3487TIP3   OH232019   4.913   5.921   3.298 -0.1638 -0.1364  0.6611
 3487TIP3    H132020   4.852   5.852   3.273 -0.4466 -0.6519  2.6657
 3487TIP3    H232021   4.857   5.994   3.326  0.1238 -0.1394  1.2648
 3488TIP3   OH232022   1.958   6.149   0.022 -0.1294  0.1025 -0.0194
 3488TIP3    H132023   1.980   6.128   0.113  0.7913  2.1185  0.2663
 3488TIP3    H232024   1.867   6.180   0.026  0.0678  0.6442  0.2879
 3489TIP3   OH232025   6.853   4.911   1.265 -0.1619  0.4985 -0.5619
 3489TIP3    H132026   6.852   4.840   1.201  0.5509  0.4657 -0.5483
 3489TIP3    H232027   6.761   4.923   1.289 -0.1671 -1.6295  0.7683
 3490TIP3   OH232028   0.503   5.227   0.401  0.2716 -0.5245 -0.5786
 3490TIP3    H132029   0.507   5.132   0.390 -1.5074 -0.7535  0.4606
 3490TIP3    H232030   0.595   5.253   0.411  0.7225 -2.3026  0.4024
 3491TIP3   OH232031   2.320   5.038   1.856  0.8156  0.7493  0.7763
 3491TIP3    H132032   2.358   5.076   1.777  0.7940  1.2827  1.0126
 3491TIP3    H232033   2.226   5.038   1.841  0.8417  0.4127  0.6136
 3492TIP3   OH232034   4.859   2.796   5.073 -0.2990 -0.0778 -0.0470
 3492TIP3    H132035   4.945   2.805   5.031  0.5072  0.2863  1.5611
 3492TIP3    H232036   4.809   2.871   5.042  0.2993  0.2208 -0.3151
 3493TIP3   OH232037   5.686   3.671   1.994  0.1783 -0.3954  0.0461
 3493TIP3    H132038   5.737   3.750   1.973  0.4368 -0.3881  0.6956
 3493TIP3    H232039   5.747   3.599   1.981 -0.1851 -0.5381 -0.9861
 3494TIP3   OH232040   2.386   5.017   2.712  1.0269 -0.1204 -0.1701
 3494TIP3    H132041   2.402   4.958   2.639  2.7544 -0.6170  0.5414
 3494TIP3    H232042   2.455   5.083   2.705 -0.2533  1.2499 -0.3617
 3495TIP3   OH232043   0.177   4.303   3.859  0.3259  0.5544  0.2162
 3495TIP3    H132044   0.129   4.294   3.777  0.2048  1.9481  0.1106
 3495TIP3    H232045   0.258   4.349   3.835 -1.0967  3.9150  1.2555
 3496TIP3   OH232046   3.213   2.412   3.609 -0.2867  0.1715 -0.1198
 3496TIP3    H132047   3.132   2.423   3.658  0.6066  2.5504  0.9907
 3496TIP3    H232048   3.253   2.333   3.646 -1.0262  0.2801  0.9551
 3497TIP3   OH232049   1.123   5.073   2.887  0.0110 -0.1946 -1.2945
 3497TIP3    H132050   1.114   5.033   2.801  0.6681 -2.1562 -0.5114
 3497TIP3    H232051   1.035   5.098   2.913 -0.5717 -1.9048 -1.5156
 3498TIP3   OH232052   4.870   2.683   1.569  0.1132 -0.6022 -0.4202
 3498TIP3    H132053   4.965   2.672   1.574  0.1865 -0.8131 -1.8708
 3498TIP3    H232054   4.857   2.777   1.561  0.3732 -0.7058 -2.5842
 3499TIP3   OH232055   4.850   2.573   3.216 -0.8304 -0.2166  0.7069
 3499TIP3    H132056   4.862   2.639   3.147 -0.7622 -0.9384  0.0099
 3499TIP3    H232057   4.791   2.508   3.177 -0.1647 -1.0375  1.0389
 3500TIP3   OH232058   1.467   6.617   3.266 -0.6521  0.0602 -0.2829
 3500TIP3    H132059   1.488   6.531   3.230  2.2079  0.8328 -0.7100
 3500TIP3    H232060   1.518   6.678   3.213 -1.9534  1.9610  0.5517
 3501TIP3   OH232061   4.237   2.143   2.768 -0.5453 -0.0430  0.0125
 3501TIP3    H132062   4.240   2.225   2.817  1.6662 -1.0626  1.7590
 3501TIP3    H232063   4.289   2.159   2.690  1.6173 -0.2616  1.3196
 3502TIP3   OH232064   0.090   1.033   3.239 -0.2966  0.2173 -0.1568
 3502TIP3    H132065   0.101   1.128   3.235 -3.7148  0.6864 -1.1923
 3502TIP3    H232066   0.122   1.008   3.326 -1.5852  2.7027  1.1130
 3503TIP3   OH232067   1.195   0.737   2.615  0.3204  0.0154  0.2806
 3503TIP3    H132068   1.166   0.773   2.699  0.9991 -0.8988  0.9312
 3503TIP3    H232069   1.114   0.714   2.570 -0.0442 -0.0174  0.9346
 3504TIP3   OH232070   0.953   4.846   4.338 -0.1610 -0.1235 -0.4383
 3504TIP3    H132071   0.876   4.900   4.352 -0.1351 -0.4114  0.9894
 3504TIP3    H232072   0.932   4.763   4.381  0.9946 -0.1547  0.0984
 3505TIP3   OH232073   2.373   6.074   2.527  0.0634 -0.5799  0.3519
 3505TIP3    H132074   2.332   6.140   2.471 -0.3148  0.4495  1.7797
 3505TIP3    H232075   2.351   6.102   2.616  1.6592 -1.4891  1.0616
 3506TIP3   OH232076   3.403   5.668   4.347 -0.2281 -0.0484 -0.2331
 3506TIP3    H132077   3.498   5.654   4.343  0.2585  2.5251  0.1299
 3506TIP3    H232078   3.383   5.711   4.263 -1.4812 -2.2747 -1.1470
 3507TIP3   OH232079   1.819   5.268   2.471 -0.5961  0.7313 -0.1870
 3507TIP3    H132080   1.755   5.200   2.489  0.1692  0.6417  2.7646
 3507TIP3    H232081   1.900   5.221   2.451 -0.0063  0.6759  2.0895
 3508TIP3   OH232082   0.387   2.555   0.975  0.2530 -0.3704  0.1363
 3508TIP3    H132083   0.393   2.518   0.887 -0.6477  1.3779 -0.7067
 3508TIP3    H232084   0.443   2.633   0.973 -0.2962  0.0663  0.8857
 3509TIP3   OH232085   5.695   2.180   3.122 -0.0916 -0.5009  0.4266
 3509TIP3    H132086   5.611   2.142   3.146  0.1845 -1.9255 -0.6684
 3509TIP3    H232087   5.679   2.224   3.038  0.0712 -0.0446  0.6310
 3510TIP3   OH232088   0.547   1.230   2.624  0.4175  0.0776  0.4627
 3510TIP3    H132089   0.602   1.303   2.653 -0.3369  0.6398  0.5160
 3510TIP3    H232090   0.517   1.255   2.536 -0.5939  0.2683  0.8515
 3511TIP3   OH232091   1.302   6.480   1.643  0.2276  0.6250 -0.0977
 3511TIP3    H132092   1.382   6.445   1.683 -0.3400  0.2571  0.7354
 3511TIP3    H232093   1.327   6.496   1.552  0.7918 -1.0829 -0.2930
 3512TIP3   OH232094   4.050   1.049   1.777 -0.0593 -0.2183 -0.1019
 3512TIP3    H132095   3.971   1.086   1.737  1.2046  1.5466 -1.1236
 3512TIP3    H232096   4.112   1.041   1.704  1.3114  0.1798  0.9842
 3513TIP3   OH232097   3.486   6.523   0.798 -0.3965 -0.0243 -0.2120
 3513TIP3    H132098   3.436   6.460   0.848 -1.8633 -0.6654 -2.3505
 3513TIP3    H232099   3.510   6.477   0.718  1.9762  0.9082 -0.1235
 3514TIP3   OH232100   1.055   5.570   3.495  0.1145 -0.3033 -0.1480
 3514TIP3    H132101   1.052   5.665   3.500 -0.8151 -0.3606  0.7745
 3514TIP3    H232102   0.969   5.541   3.526  0.3637 -1.4404 -0.4470
 3515TIP3   OH232103   0.316   5.213   3.428  0.6050  0.1458  0.2216
 3515TIP3    H132104   0.406   5.184   3.440  1.4288  1.5788 -1.8712
 3515TIP3    H232105   0.301   5.275   3.499  1.9520  1.2479 -0.3980
 3516TIP3   OH232106   4.389   5.463   1.690  0.3132  0.2217 -0.4146
 3516TIP3    H132107   4.394   5.539   1.633  0.0814  1.8231  1.5817
 3516TIP3    H232108   4.367   5.499   1.776 -0.1528 -2.1436  0.5382
 3517TIP3   OH232109   6.597   3.942   1.170 -0.4629 -0.0469 -0.6731
 3517TIP3    H132110   6.543   3.958   1.247  1.2656 -0.0619  0.6053
 3517TIP3    H232111   6.608   4.028   1.129  0.6065  0.4254  0.5270
 3518TIP3   OH232112   5.703   0.179   2.419 -0.0324 -0.0888 -0.7370
 3518TIP3    H132113   5.705   0.084   2.410 -2.1240 -0.1712 -0.6448
 3518TIP3    H232114   5.720   0.194   2.512  0.1764 -0.3593 -0.7292
 3519TIP3   OH232115   0.818   6.049   1.805  0.5141 -0.4464 -0.4501
 3519TIP3    H132116   0.855   5.986   1.743  1.3553  0.2164 -0.6400
 3519TIP3    H232117   0.894   6.096   1.839 -0.1338  0.8529 -0.7506
 3520TIP3   OH232118   4.214   5.204   2.243  0.1216 -0.4787  0.1822
 3520TIP3    H132119   4.291   5.148   2.258  0.6270 -0.1879 -1.1781
 3520TIP3    H232120   4.188   5.232   2.331  1.9077 -0.1396  0.6502
 3521TIP3   OH232121   2.657   3.212   2.975 -0.3671 -0.2770 -0.6575
 3521TIP3    H132122   2.610   3.263   2.908  0.9163  1.1962 -0.4957
 3521TIP3    H232123   2.642   3.261   3.056  0.8603 -0.1360 -0.4934
 3522TIP3   OH232124   3.365   5.305   3.548 -0.3842  0.7759  0.3286
 3522TIP3    H132125   3.337   5.351   3.627 -0.5834 -0.6966  1.1603
 3522TIP3    H232126   3.460   5.294   3.559 -0.7145 -1.5048  1.5899
 3523TIP3   OH232127   0.921   1.496   3.497 -0.1424  0.2843 -0.2527
 3523TIP3    H132128   0.863   1.562   3.535  0.3732  1.7790 -1.9301
 3523TIP3    H232129   0.991   1.486   3.561 -0.7408  0.6033  0.4705
 3524TIP3   OH232130   3.924   4.127   0.432  0.1279  0.2850 -0.2222
 3524TIP3    H132131   3.970   4.046   0.454  0.0480 -0.1653 -1.6203
 3524TIP3    H232132   3.911   4.122   0.338 -1.1807  1.2571 -0.1154
 3525TIP3   OH232133   1.705   1.650   0.845  0.1320  0.2885 -0.3478
 3525TIP3    H132134   1.766   1.650   0.772 -0.3023  3.0330 -0.7932
 3525TIP3    H232135   1.704   1.740   0.877 -1.4805 -0.3085  1.5374
 3526TIP3   OH232136   5.371   4.965   0.349 -0.2036 -0.1842  0.3276
 3526TIP3    H132137   5.447   4.975   0.291  0.0222 -0.2857  0.6090
 3526TIP3    H232138   5.407   4.964   0.437 -0.4678 -0.9246  0.4300
 3527TIP3   OH232139   0.355   1.305   3.323 -0.3728 -0.7753 -0.3751
 3527TIP3    H132140   0.439   1.292   3.278  1.5294  0.6186  2.4276
 3527TIP3    H232141   0.369   1.269   3.410 -2.7572 -0.5683  0.1585
 3528TIP3   OH232142   5.345   2.687   3.041 -0.2988 -0.7386  0.0528
 3528TIP3    H132143   5.343   2.783   3.043 -2.4416 -0.7166  2.6186
 3528TIP3    H232144   5.424   2.664   3.090  0.6608 -0.3474 -1.2525
 3529TIP3   OH232145   2.409   3.405   1.860  0.0510 -0.3650  0.1262
 3529TIP3    H132146   2.381   3.452   1.781 -2.8143 -1.4214  0.3921
 3529TIP3    H232147   2.419   3.473   1.926  0.0604  0.2817 -0.5239
 3530TIP3   OH232148   2.261   6.694   4.598 -0.0710  0.2965  0.2300
 3530TIP3    H132149   2.230   6.662   4.683  0.6183 -0.6158  0.1653
 3530TIP3    H232150   2.196   6.663   4.536 -0.8543  1.4186  0.4740
 3531TIP3   OH232151   5.681   6.257   1.594  0.3382 -0.8624 -0.0873
 3531TIP3    H132152   5.669   6.256   1.688 -2.1559 -1.1800 -0.3371
 3531TIP3    H232153   5.731   6.178   1.575  0.3700 -1.0921  0.9240
 3532TIP3   OH232154   1.197   2.436   4.354 -0.5522  0.0412 -0.4784
 3532TIP3    H132155   1.209   2.501   4.423  0.7612 -1.0166  0.3345
 3532TIP3    H232156   1.152   2.363   4.398  1.2208 -1.0763 -0.4131
 3533TIP3   OH232157   2.366   4.191   3.911  0.6852 -0.0699  0.2938
 3533TIP3    H132158   2.273   4.170   3.907  0.8441 -1.1843  1.6443
 3533TIP3    H232159   2.393   4.199   3.820 -0.7877  0.6121 -0.1128
 3534TIP3   OH232160   4.932   2.034   2.043 -0.4363  0.2571 -0.2146
 3534TIP3    H132161   4.899   2.098   2.105  0.4087  1.3646 -0.8647
 3534TIP3    H232162   5.016   2.006   2.079 -0.0316  0.7623 -0.7560
 3535TIP3   OH232163   6.896   5.795   1.351  0.0917 -0.1912 -0.1047
 3535TIP3    H132164   6.889   5.887   1.375  0.9547  0.2137 -1.3248
 3535TIP3    H232165   6.956   5.758   1.416  0.5116  0.3379 -0.1871
 3536TIP3   OH232166   6.427   5.513   3.557  0.3862 -0.1450  0.2732
 3536TIP3    H132167   6.446   5.568   3.632 -0.1571  0.6012 -0.1244
 3536TIP3    H232168   6.429   5.423   3.591  1.5211  0.1022  0.8676
 3537TIP3   OH232169   6.359   1.433   2.155 -0.3894 -0.2952 -0.5247
 3537TIP3    H132170   6.397   1.410   2.070 -1.1891  0.1985 -1.0291
 3537TIP3    H232171   6.287   1.492   2.134  2.0632  3.5019  0.7070
 3538TIP3   OH232172   6.690   1.035   1.154 -0.2055  0.1934 -0.1098
 3538TIP3    H132173   6.761   0.994   1.104 -1.1946 -1.2716 -0.3498
 3538TIP3    H232174   6.676   0.977   1.228 -1.3940  0.2810 -0.2575
 3539TIP3   OH232175   1.768   0.046   1.349  0.0220 -0.2119 -0.2122
 3539TIP3    H132176   1.693   0.029   1.292  1.3254 -0.4543 -1.9021
 3539TIP3    H232177   1.830   0.094   1.295  1.2858 -0.3738  1.0269
 3540TIP3   OH232178   0.326   3.057   3.122 -0.0978  0.1136 -0.3539
 3540TIP3    H132179   0.347   3.145   3.090  0.3925  1.1100  2.4530
 3540TIP3    H232180   0.237   3.064   3.156 -0.2570 -0.6522 -0.5862
 3541TIP3   OH232181   4.427   5.117   1.964 -0.5276  0.1283 -0.2903
 3541TIP3    H132182   4.433   5.025   1.938  0.7885 -0.0690  0.6237
 3541TIP3    H232183   4.363   5.155   1.903 -1.7201 -1.5645 -0.1590
 3542TIP3   OH232184   5.474   3.615   3.735 -0.0377 -0.3743 -0.3226
 3542TIP3    H132185   5.460   3.654   3.649 -1.4790 -0.5399 -0.1833
 3542TIP3    H232186   5.452   3.685   3.797 -0.0018 -0.5681 -0.0899
 3543TIP3   OH232187   5.724   3.793   2.237  0.7110 -0.1282  0.2671
 3543TIP3    H132188   5.716   3.730   2.166 -0.0743  1.2439 -0.9275
 3543TIP3    H232189   5.714   3.878   2.195  0.1493  0.7364  2.0296
 3544TIP3   OH232190   6.796   0.270   1.762 -0.5199  0.5952  0.1128
 3544TIP3    H132191   6.784   0.176   1.773  0.4232  0.3789 -0.5787
 3544TIP3    H232192   6.887   0.286   1.790 -0.3966  1.1518 -0.5907
 3545TIP3   OH232193   0.220   5.821   3.705 -0.0811 -0.1995  0.2694
 3545TIP3    H132194   0.160   5.862   3.642  0.2352  2.0476  1.3372
 3545TIP3    H232195   0.164   5.782   3.771 -0.3946 -1.6905 -0.8317
 3546TIP3   OH232196   5.026   6.044   2.911 -0.2294  0.0297 -0.6475
 3546TIP3    H132197   5.047   6.002   2.827  1.2308 -0.3391 -0.1384
 3546TIP3    H232198   5.025   6.137   2.891  2.8334  0.1830 -0.6373
 3547TIP3   OH232199   1.323   5.018   1.939  0.0002  0.1961 -0.1799
 3547TIP3    H132200   1.374   5.089   1.977  0.7861  0.7448 -2.1468
 3547TIP3    H232201   1.242   5.060   1.910 -0.2336 -0.0455  0.1208
 3548TIP3   OH232202   3.645   1.045   1.295 -0.2946 -0.0713 -0.1046
 3548TIP3    H132203   3.679   1.075   1.211 -2.7279  0.0558 -1.1243
 3548TIP3    H232204   3.638   0.950   1.286 -0.6400 -0.0495 -0.0848
 3549TIP3   OH232205   5.056   0.588   0.366  0.3857  0.3565  0.5511
 3549TIP3    H132206   5.045   0.526   0.438  0.6028  0.4414  0.6582
 3549TIP3    H232207   4.999   0.554   0.296 -0.4138  0.6887  1.0291
 3550TIP3   OH232208   2.697   5.066   2.002 -0.2103  0.1300 -0.0290
 3550TIP3    H132209   2.776   5.120   2.002 -0.5497  0.6576 -1.2345
 3550TIP3    H232210   2.629   5.123   1.966 -1.1896 -0.2666  1.1284
 3551TIP3   OH232211   2.080   4.098   0.625  0.3971 -0.1504 -0.2764
 3551TIP3    H132212   2.075   4.192   0.640 -2.3038 -0.0373 -1.3726
 3551TIP3    H232213   2.174   4.081   0.612  0.8481  2.5919 -1.3416
 3552TIP3   OH232214   3.111   4.330   1.658  0.0285  0.2354  0.4520
 3552TIP3    H132215   3.082   4.283   1.735 -2.0678  0.5014 -0.1195
 3552TIP3    H232216   3.172   4.270   1.614  0.5621 -0.2537  1.8324
 3553TIP3   OH232217   0.833   6.201   2.233 -0.4698 -0.7995 -0.1535
 3553TIP3    H132218   0.809   6.145   2.307  0.7945 -1.8683 -0.5205
 3553TIP3    H232219   0.895   6.263   2.270 -1.7551  0.3143  0.2184
 3554TIP3   OH232220   2.425   5.507   2.129  0.4646 -0.4252  0.1470
 3554TIP3    H132221   2.424   5.430   2.185 -0.1029  0.0505  0.8152
 3554TIP3    H232222   2.333   5.520   2.105  0.1622  1.4166  2.0123
 3555TIP3   OH232223   4.175   3.920   0.848 -0.2650 -0.4659  0.3059
 3555TIP3    H132224   4.175   4.015   0.844  0.2626 -0.4685  0.2331
 3555TIP3    H232225   4.247   3.893   0.791 -2.0597 -1.0113 -1.8746
 3556TIP3   OH232226   3.923   2.292   0.430 -0.1981  0.1515  0.1318
 3556TIP3    H132227   3.889   2.207   0.459  0.5334  0.6550  2.6955
 3556TIP3    H232228   3.918   2.348   0.508 -0.1970  2.3471 -1.3449
 3557TIP3   OH232229   3.506   2.241   3.319 -0.2539 -0.8830  0.0822
 3557TIP3    H132230   3.487   2.297   3.244  1.6441  1.4195  1.1817
 3557TIP3    H232231   3.421   2.207   3.346 -1.3801  0.6620 -1.2823
 3558TIP3   OH232232   4.528   0.314   1.712 -0.6505  0.1309 -0.0681
 3558TIP3    H132233   4.510   0.398   1.671 -0.8535  0.0065 -0.2335
 3558TIP3    H232234   4.454   0.259   1.688 -0.8638  0.1115  0.6280
 3559TIP3   OH232235   1.835   3.470   1.889  0.1712 -0.1341 -0.9384
 3559TIP3    H132236   1.879   3.503   1.811 -1.6141  1.1986 -1.4478
 3559TIP3    H232237   1.747   3.447   1.860 -0.2615 -0.4439  0.5004
 3560TIP3   OH232238   6.008   3.434   2.474 -0.5564  0.2968  0.0175
 3560TIP3    H132239   6.099   3.440   2.501 -0.4723  0.6573 -0.3321
 3560TIP3    H232240   5.971   3.366   2.529  0.4361 -1.3156 -1.2044
 3561TIP3   OH232241   2.792   2.133   2.755  0.5819 -0.1832 -0.1528
 3561TIP3    H132242   2.734   2.193   2.803 -0.3741  0.1599 -1.6516
 3561TIP3    H232243   2.746   2.049   2.757  0.6999 -0.2477 -0.1662
 3562TIP3   OH232244   0.844   4.307   0.792  0.1859 -0.5100  0.7158
 3562TIP3    H132245   0.797   4.242   0.740 -0.7085 -0.2540  1.1967
 3562TIP3    H232246   0.817   4.391   0.757 -0.1844 -0.3431  1.3794
 3563TIP3   OH232247   5.355   1.480   3.823 -0.4279 -0.1689 -0.2304
 3563TIP3    H132248   5.312   1.397   3.802  0.0789  0.1693 -2.9365
 3563TIP3    H232249   5.447   1.456   3.837 -0.6280 -0.2907  0.9476
 3564TIP3   OH232250   5.274   6.015   1.581 -0.3744 -0.3118 -0.1427
 3564TIP3    H132251   5.297   6.040   1.670 -1.1937 -0.6069  0.1561
 3564TIP3    H232252   5.307   6.086   1.526 -1.0339  0.5095  0.5168
 3565TIP3   OH232253   3.490   1.493   3.762 -0.4703 -0.4530 -0.5215
 3565TIP3    H132254   3.467   1.566   3.704 -1.9443 -0.3746  0.1080
 3565TIP3    H232255   3.419   1.491   3.826  0.7363 -1.0087  0.8461
 3566TIP3   OH232256   5.920   1.259   4.556 -0.0390  0.1691  0.6757
 3566TIP3    H132257   5.865   1.223   4.487  0.5404  0.4801  0.0375
 3566TIP3    H232258   5.873   1.336   4.587 -1.6163 -1.4294  2.5093
 3567TIP3   OH232259   0.884   3.906   4.171 -0.4168 -0.1180  0.2178
 3567TIP3    H132260   0.853   3.960   4.243 -0.3649  0.6655 -0.3303
 3567TIP3    H232261   0.880   3.963   4.095  2.3698  0.0635  0.0943
 3568TIP3   OH232262   2.120   0.362   0.694 -0.4731 -0.9954  0.1382
 3568TIP3    H132263   2.116   0.412   0.613 -2.5358 -0.0335  0.7783
 3568TIP3    H232264   2.201   0.392   0.736  0.0217 -0.6652 -1.0192
 3569TIP3   OH232265   5.746   4.801   2.385  0.4972  0.2509  0.3412
 3569TIP3    H132266   5.775   4.826   2.297  0.8041  0.8319  0.6032
 3569TIP3    H232267   5.659   4.841   2.394 -0.2872 -1.2563 -0.3386
 3570TIP3   OH232268   1.575   1.701   1.218 -0.8272 -0.1523  0.3168
 3570TIP3    H132269   1.524   1.658   1.149 -0.5235 -0.6182  0.3732
 3570TIP3    H232270   1.588   1.790   1.186 -1.8061  0.0269  0.3758
 3571TIP3   OH232271   2.726   1.195   2.779  0.3487  0.0731 -0.3383
 3571TIP3    H132272   2.724   1.284   2.814  0.2218  0.2501 -0.7935
 3571TIP3    H232273   2.635   1.165   2.786  0.0508  0.5805 -1.7042
 3572TIP3   OH232274   6.271   1.088   2.479  0.5180  0.7334  0.0099
 3572TIP3    H132275   6.231   1.175   2.490 -1.5887 -0.1549 -0.0908
 3572TIP3    H232276   6.358   1.106   2.443  0.8446  2.8747  1.6394
 3573TIP3   OH232277   2.422   3.989   1.473 -0.2208  0.2627  0.5899
 3573TIP3    H132278   2.367   3.933   1.419  1.6389 -0.5293 -0.5899
 3573TIP3    H232279   2.511   3.959   1.455  0.8512  3.2947  0.2222
 3574TIP3   OH232280   3.681   3.792   1.189  0.5173  0.0861  0.1504
 3574TIP3    H132281   3.756   3.850   1.175  0.3107  0.7741  1.6660
 3574TIP3    H232282   3.624   3.841   1.247 -1.2391 -0.3368 -1.1570
 3575TIP3   OH232283   5.243   6.793   1.940  0.0783 -0.0436 -0.5416
 3575TIP3    H132284   5.238   6.888   1.952 -0.7205  0.0799 -1.6684
 3575TIP3    H232285   5.204   6.778   1.854 -0.8105 -1.4984  0.0804
 3576TIP3   OH232286   6.613   3.733   2.476  0.1098  0.5300  0.3803
 3576TIP3    H132287   6.576   3.821   2.473 -0.2098  0.4482  1.2940
 3576TIP3    H232288   6.636   3.713   2.386 -2.2457  0.5445 -0.3028
 3577TIP3   OH232289   0.422   4.058   1.614 -0.7306  0.7198 -0.1005
 3577TIP3    H132290   0.461   4.012   1.688 -0.5901  3.6529  1.8209
 3577TIP3    H232291   0.480   4.038   1.540  1.1915  0.4561  1.3860
 3578TIP3   OH232292   2.088   2.771   1.233 -0.1604  0.0001  0.1479
 3578TIP3    H132293   2.068   2.815   1.151  0.2851 -0.5163 -0.2448
 3578TIP3    H232294   2.182   2.756   1.231 -0.3302 -1.2354  0.1204
 3579TIP3   OH232295   4.907   4.496   1.222 -0.1293  0.5454  0.0305
 3579TIP3    H132296   4.947   4.474   1.137  0.0493 -0.9128  0.4584
 3579TIP3    H232297   4.980   4.527   1.275  0.1469 -0.4393  0.2549
 3580TIP3   OH232298   1.470   0.730   3.669 -0.2170  0.1896 -0.0128
 3580TIP3    H132299   1.460   0.825   3.674 -2.0184  0.1175 -1.2220
 3580TIP3    H232300   1.453   0.709   3.578 -0.6450 -1.3726  0.3966
 3581TIP3   OH232301   4.763   6.734   2.077  0.0260  0.0259  0.1089
 3581TIP3    H132302   4.713   6.779   2.009 -1.3669 -0.3181  0.8714
 3581TIP3    H232303   4.851   6.770   2.070 -0.3606  0.7887 -1.1494
 3582TIP3   OH232304   2.064   5.140   3.547 -0.1245 -0.2452  0.1803
 3582TIP3    H132305   2.158   5.122   3.553  0.1598  1.1351  0.1676
 3582TIP3    H232306   2.039   5.105   3.461  0.7207  0.7473 -0.4939
 3583TIP3   OH232307   1.174   4.036   1.589 -0.5245  0.0670  0.2053
 3583TIP3    H132308   1.232   3.969   1.626  0.5613  1.9186  2.1038
 3583TIP3    H232309   1.150   4.002   1.503  1.0396 -2.1206  0.5385
 3584TIP3   OH232310   2.548   5.486   0.763 -0.1969  0.4226  0.1791
 3584TIP3    H132311   2.478   5.550   0.752 -0.3699  0.0064 -1.3470
 3584TIP3    H232312   2.602   5.495   0.685  1.1050  0.2854  1.0264
 3585TIP3   OH232313   5.567   2.074   3.973  0.1638 -0.3800  0.3369
 3585TIP3    H132314   5.555   2.163   3.942  1.0750 -0.4127 -0.1451
 3585TIP3    H232315   5.490   2.026   3.941 -0.7768  0.4108  1.3539
 3586TIP3   OH232316   1.286   0.734   3.023  0.9261 -0.2663  0.4676
 3586TIP3    H132317   1.209   0.748   2.968  1.3983 -0.1822 -0.1838
 3586TIP3    H232318   1.263   0.772   3.107 -0.6310 -2.2772  1.0407
 3587TIP3   OH232319   1.211   1.260   3.562  0.2769  0.0674 -0.1959
 3587TIP3    H132320   1.229   1.214   3.645  1.7512 -1.0871 -1.1064
 3587TIP3    H232321   1.178   1.345   3.589 -0.2004 -0.6319  1.5815
 3588TIP3   OH232322   1.283   6.345   0.225 -0.3873  0.2647  0.3936
 3588TIP3    H132323   1.301   6.328   0.318 -0.8394 -0.2073  0.3994
 3588TIP3    H232324   1.323   6.271   0.179 -2.0336 -0.6763  0.3877
 3589TIP3   OH232325   2.008   6.057   1.763 -0.8380  0.5623 -0.6049
 3589TIP3    H132326   2.002   6.141   1.808  4.3389 -0.0117  1.8930
 3589TIP3    H232327   2.079   6.068   1.700 -0.6777 -1.6724 -0.9107
 3590TIP3   OH232328   0.561   4.072   0.229  0.2589 -0.0421  0.0446
 3590TIP3    H132329   0.521   4.129   0.163  0.4841 -0.0314 -0.0844
 3590TIP3    H232330   0.491   4.055   0.291  1.0335  3.2229  2.0633
 3591TIP3   OH232331   2.096   4.386   0.537  0.2554  0.5958  0.0757
 3591TIP3    H132332   2.142   4.466   0.561 -0.3220  0.4824  1.7150
 3591TIP3    H232333   2.004   4.404   0.556 -0.2528  0.3951 -1.9857
 3592TIP3   OH232334   6.453   0.914   4.822  0.0425  0.0529 -0.6154
 3592TIP3    H132335   6.516   0.904   4.751 -0.7972  0.6319 -1.4524
 3592TIP3    H232336   6.437   1.008   4.827 -1.9912 -0.1995 -1.5392
 3593TIP3   OH232337   1.273   3.438   1.037 -0.1475 -0.1450  0.3072
 3593TIP3    H132338   1.204   3.378   1.008  1.5705 -1.4402 -1.3226
 3593TIP3    H232339   1.284   3.419   1.130 -0.6873 -1.2738  0.1512
 3594TIP3   OH232340   1.286   5.806   1.183 -0.0458 -0.5761 -0.4282
 3594TIP3    H132341   1.295   5.717   1.149  0.1706 -0.5007 -0.5784
 3594TIP3    H232342   1.345   5.809   1.258  3.0722  0.5550 -2.6967
 3595TIP3   OH232343   5.967   4.147   4.876  0.4264 -0.0480  0.5195
 3595TIP3    H132344   5.873   4.148   4.897  0.1783  0.5054 -0.5760
 3595TIP3    H232345   6.006   4.203   4.943 -0.2032  0.7510  0.2453
 3596TIP3   OH232346   4.666   3.432   1.237  0.0723  0.4054  0.4235
 3596TIP3    H132347   4.739   3.452   1.178 -0.4620  0.5390 -0.2034
 3596TIP3    H232348   4.601   3.390   1.181  0.0459 -0.5790  1.1741
 3597TIP3   OH232349   3.665   6.000   2.267 -0.4745  0.1169 -0.0501
 3597TIP3    H132350   3.640   6.084   2.304  0.5435 -0.1622  1.3390
 3597TIP3    H232351   3.694   6.020   2.178 -0.6664  1.1551  0.1176
 3598TIP3   OH232352   2.758   3.626   1.333 -0.7567 -0.3248 -0.3178
 3598TIP3    H132353   2.783   3.572   1.258  0.3452  0.2879 -0.4071
 3598TIP3    H232354   2.711   3.566   1.391  3.9639 -2.7259  1.6459
 3599TIP3   OH232355   4.690   2.068   2.612  0.2508 -0.2007 -0.1305
 3599TIP3    H132356   4.606   2.044   2.651 -0.7476 -4.2124 -3.9592
 3599TIP3    H232357   4.755   2.024   2.667 -0.5543 -0.8780  0.3039
 3600TIP3   OH232358   5.907   1.397   2.451 -0.1770  0.1135  0.3319
 3600TIP3    H132359   5.824   1.401   2.499 -1.0274 -1.2365 -0.9313
 3600TIP3    H232360   5.904   1.313   2.405  1.7276  0.2195 -0.0665
 3601TIP3   OH232361   2.371   3.788   5.025  0.1198  0.3345  0.3166
 3601TIP3    H132362   2.302   3.808   4.961 -0.5873 -1.9380  0.2456
 3601TIP3    H232363   2.326   3.791   5.110  0.3778  0.6071  0.4448
 3602TIP3   OH232364   3.108   6.849   0.622  0.2099 -0.3455 -0.1071
 3602TIP3    H132365   3.189   6.877   0.665  0.2584 -0.1143 -0.3433
 3602TIP3    H232366   3.136   6.778   0.564 -0.0293 -1.4064  1.0203
 3603TIP3   OH232367   1.560   3.311   1.313  0.1027  0.1837 -0.6813
 3603TIP3    H132368   1.650   3.344   1.304 -0.1489  1.0877 -0.0538
 3603TIP3    H232369   1.531   3.298   1.223  1.8008 -2.8788 -0.9033
 3604TIP3   OH232370   2.205   3.427   2.462 -0.7756 -0.7085 -0.3637
 3604TIP3    H132371   2.150   3.378   2.523 -2.1342  1.2839  0.1361
 3604TIP3    H232372   2.187   3.388   2.376 -0.9047 -1.7986  0.1407
 3605TIP3   OH232373   3.641   5.153   3.706 -0.2224 -0.3614 -0.3988
 3605TIP3    H132374   3.608   5.063   3.706  0.6459 -0.6916  0.4234
 3605TIP3    H232375   3.597   5.195   3.779  1.3524 -0.8992  0.9203
 3606TIP3   OH232376   2.859   0.855   4.489 -0.3757 -0.1322  0.9688
 3606TIP3    H132377   2.848   0.935   4.438  3.4341  0.2235  0.4184
 3606TIP3    H232378   2.823   0.786   4.433 -1.3487  0.8544  0.3262
 3607TIP3   OH232379   1.191   5.228   2.563  0.0493  0.4095 -0.0073
 3607TIP3    H132380   1.275   5.231   2.518  0.1333 -0.6496  0.0648
 3607TIP3    H232381   1.153   5.315   2.548  0.2580  0.2336 -1.7264
 3608TIP3   OH232382   4.909   3.291   0.660 -0.2447 -0.3966  0.4236
 3608TIP3    H132383   4.983   3.348   0.683  0.7716 -1.0129 -1.1639
 3608TIP3    H232384   4.839   3.352   0.635  0.4637  0.1953 -0.1759
 3609TIP3   OH232385   4.573   5.326   2.219 -0.3149  0.1414 -0.1853
 3609TIP3    H132386   4.501   5.387   2.209 -0.3655 -0.0926 -1.4499
 3609TIP3    H232387   4.533   5.240   2.207  0.0957 -0.0143 -0.4546
 3610TIP3   OH232388   1.070   0.441   2.884 -0.3135  0.6364 -0.2357
 3610TIP3    H132389   1.014   0.517   2.868  0.0339  0.7063 -1.1721
 3610TIP3    H232390   1.036   0.403   2.965 -2.0019  0.4279 -0.9934
 3611TIP3   OH232391   0.041   5.013   4.731 -0.4341  0.2273 -0.0037
 3611TIP3    H132392  -0.043   4.978   4.762 -0.4197  0.8374  0.7682
 3611TIP3    H232393   0.098   4.937   4.726 -0.6603 -0.0073  0.7593
 3612TIP3   OH232394   4.154   6.249   1.153 -0.3920  0.0591 -0.1991
 3612TIP3    H132395   4.133   6.213   1.239  0.1933 -0.8956 -0.4397
 3612TIP3    H232396   4.166   6.343   1.169 -0.6424 -0.0510  0.6902
 3613TIP3   OH232397   3.705   0.310   0.390  0.3794 -0.2496 -0.1267
 3613TIP3    H132398   3.741   0.222   0.398  2.3392  0.3436 -1.4986
 3613TIP3    H232399   3.689   0.339   0.480  1.5951 -1.2827  0.4382
 3614TIP3   OH232400   1.952   6.851   3.633 -0.4598  0.0984 -0.0607
 3614TIP3    H132401   1.974   6.763   3.662 -0.7242 -0.0334 -0.2607
 3614TIP3    H232402   2.030   6.903   3.653 -0.8462  0.1427  1.4543
 3615TIP3   OH232403   1.047   3.194   4.055  0.0056  0.5934 -0.2732
 3615TIP3    H132404   1.127   3.168   4.010  0.1836 -0.0212  0.3761
 3615TIP3    H232405   1.028   3.282   4.022  0.3074  0.2936 -1.2890
 3616TIP3   OH232406   4.160   4.298   4.003  0.2139 -0.0806  0.3081
 3616TIP3    H132407   4.236   4.258   4.045 -0.6944 -1.0566  1.0723
 3616TIP3    H232408   4.183   4.302   3.910  1.1792 -0.3898  0.5217
 3617TIP3   OH232409   2.216   1.214   3.310 -0.2364  0.2883 -0.1024
 3617TIP3    H132410   2.192   1.123   3.330  0.2221  0.1581 -0.1175
 3617TIP3    H232411   2.289   1.233   3.370 -1.0698  1.0346  0.7045
 3618TIP3   OH232412   5.182   4.940   1.602  0.3864  0.6419  0.0485
 3618TIP3    H132413   5.104   4.889   1.623  1.4802 -0.9644  0.4670
 3618TIP3    H232414   5.159   5.030   1.621 -2.2405  0.6107 -2.3466
 3619TIP3   OH232415   3.770   4.514   1.320 -0.1473 -0.0857  0.4797
 3619TIP3    H132416   3.692   4.475   1.282 -0.1560  0.2274  0.1745
 3619TIP3    H232417   3.759   4.503   1.415 -0.8585  0.5142  0.4768
 3620TIP3   OH232418   4.773   0.533   2.188 -0.2877  0.2409  0.3222
 3620TIP3    H132419   4.829   0.547   2.111 -0.1782  0.1309  0.3816
 3620TIP3    H232420   4.685   0.559   2.159  0.0679  2.0029  0.7316
 3621TIP3   OH232421   6.660   0.796   3.011 -0.0472  0.2934 -0.1067
 3621TIP3    H132422   6.677   0.853   3.086  0.6362 -0.3245  0.2200
 3621TIP3    H232423   6.726   0.821   2.947  0.1539 -0.0218 -0.0232
 3622TIP3   OH232424   6.535   5.172   2.818  0.3769 -0.5278 -0.6137
 3622TIP3    H132425   6.587   5.131   2.749  0.3687 -1.9982  0.1963
 3622TIP3    H232426   6.571   5.260   2.828  0.7681 -0.5001 -2.0524
 3623TIP3   OH232427   0.719   3.269   3.129 -0.3417 -0.4943  0.2861
 3623TIP3    H132428   0.790   3.262   3.192  0.3444 -0.5176 -0.4755
 3623TIP3    H232429   0.750   3.333   3.064 -1.2389 -0.0874  0.2387
 3624TIP3   OH232430   6.139   2.905   3.487 -0.0413  0.2469 -0.5928
 3624TIP3    H132431   6.175   2.967   3.424  0.6903  0.9323  0.4553
 3624TIP3    H232432   6.201   2.832   3.488  1.6423  1.5940  1.4848
 3625TIP3   OH232433   6.702   1.090   1.935 -0.1399  0.3612  0.2145
 3625TIP3    H132434   6.723   1.163   1.877 -1.4168 -0.4544 -1.3517
 3625TIP3    H232435   6.771   1.025   1.917  0.1043  0.5560  0.4448
 3626TIP3   OH232436   6.448   4.692   2.661 -0.4972  0.3846  0.7862
 3626TIP3    H132437   6.400   4.618   2.625 -1.5461  0.0359  2.7693
 3626TIP3    H232438   6.420   4.767   2.609 -1.1819 -0.2387  0.2412
 3627TIP3   OH232439   2.010   2.450   1.767  0.1801 -0.2474 -0.2982
 3627TIP3    H132440   1.963   2.429   1.686  0.6461 -2.0478 -0.1521
 3627TIP3    H232441   2.103   2.439   1.744  0.4278  1.1059 -0.0072
 3628TIP3   OH232442   2.458   1.063   2.929 -0.1654  0.1122 -0.2315
 3628TIP3    H132443   2.512   1.066   3.007  0.8034 -2.8235 -0.6510
 3628TIP3    H232444   2.378   1.018   2.957 -0.1792 -0.1747 -0.7172
 3629TIP3   OH232445   0.445   2.962   1.904 -0.7284 -0.3095 -0.6787
 3629TIP3    H132446   0.458   2.874   1.869  1.3640 -0.8823  1.2674
 3629TIP3    H232447   0.527   3.008   1.885  0.0290 -0.2750  2.1832
 3630TIP3   OH232448   4.510   5.615   2.409 -0.1717 -0.3056  0.3407
 3630TIP3    H132449   4.513   5.647   2.319 -1.8337 -1.1507 -0.0622
 3630TIP3    H232450   4.601   5.594   2.430  0.1760 -0.6570 -1.3615
 3631TIP3   OH232451   3.195   3.610   3.560  0.3326 -0.1517  0.2642
 3631TIP3    H132452   3.188   3.530   3.611  0.3997  0.0269  0.5575
 3631TIP3    H232453   3.115   3.658   3.578  0.4291 -0.0139  0.3310
 3632TIP3   OH232454   0.895   0.328   3.918  0.2520  0.5418  0.2985
 3632TIP3    H132455   0.978   0.323   3.966 -0.0744 -2.3649  0.7682
 3632TIP3    H232456   0.829   0.331   3.986 -0.1146 -1.1975  0.0845
 3633TIP3   OH232457   1.645   0.738   4.628 -0.1585  0.8239  0.1923
 3633TIP3    H132458   1.695   0.686   4.691 -1.1814 -1.3526 -0.6973
 3633TIP3    H232459   1.615   0.814   4.679 -0.1313 -0.3451  2.0492
 3634TIP3   OH232460   4.116   6.544   2.955 -0.1588  0.2413  0.0667
 3634TIP3    H132461   4.099   6.465   3.007 -1.9353 -0.4204 -1.3984
 3634TIP3    H232462   4.080   6.523   2.868  0.0406  2.3757 -0.5795
 3635TIP3   OH232463   6.455   5.604   0.971 -0.4086  0.6232  0.6671
 3635TIP3    H132464   6.443   5.689   0.929 -0.9001  0.1801 -0.1353
 3635TIP3    H232465   6.441   5.620   1.064 -0.7407  1.3721  0.4912
 3636TIP3   OH232466   2.093   1.484   3.931  0.3789 -0.2630 -0.4949
 3636TIP3    H132467   2.124   1.574   3.946 -0.3654  0.0281 -0.6542
 3636TIP3    H232468   2.157   1.429   3.976 -0.0659  0.4237  1.0233
 3637TIP3   OH232469   1.750   5.900   3.164  0.1783 -0.5208  0.0222
 3637TIP3    H132470   1.808   5.829   3.192 -0.4116 -1.7292 -1.6377
 3637TIP3    H232471   1.674   5.855   3.126  0.5459  0.9266 -2.6822
 3638TIP3   OH232472   2.655   1.174   0.648 -0.0005  0.8176 -0.0675
 3638TIP3    H132473   2.666   1.084   0.620  1.7873  0.8726  0.3708
 3638TIP3    H232474   2.663   1.226   0.567 -0.3399  0.6438 -0.2158
 3639TIP3   OH232475   0.097   5.389   1.894 -0.1206 -0.1224  0.6436
 3639TIP3    H132476   0.181   5.353   1.865 -0.2132 -0.7852  1.1530
 3639TIP3    H232477   0.058   5.427   1.816 -1.4049 -3.8130 -0.7563
 3640TIP3   OH232478   0.449   4.990   0.286  0.7773  0.2445 -0.5575
 3640TIP3    H132479   0.438   5.015   0.194 -0.2499 -1.0875 -0.8299
 3640TIP3    H232480   0.484   4.901   0.283  2.6630  0.8955  0.3722
 3641TIP3   OH232481   5.810   1.467   4.678 -0.1084 -0.5392  0.2544
 3641TIP3    H132482   5.750   1.517   4.624  1.0613  0.3837 -0.2350
 3641TIP3    H232483   5.857   1.532   4.729  1.1930 -1.1293 -0.1342
 3642TIP3   OH232484   6.721   0.651   1.028 -0.5587 -0.1228 -0.7010
 3642TIP3    H132485   6.669   0.664   1.107  1.0033  1.5275  0.1347
 3642TIP3    H232486   6.747   0.739   1.002  2.3617 -0.8680 -0.6653
 3643TIP3   OH232487   6.801   5.476   2.540  0.2340 -0.1984  0.0730
 3643TIP3    H132488   6.787   5.560   2.495 -0.7149 -0.9392 -1.1033
 3643TIP3    H232489   6.855   5.498   2.616 -2.2666  1.9263  1.3808
 3644TIP3   OH232490   6.499   3.041   2.710  0.9071  0.3074 -0.1433
 3644TIP3    H132491   6.446   3.117   2.730 -0.5585 -0.4996 -0.8255
 3644TIP3    H232492   6.449   2.967   2.745  0.8439 -0.6144 -2.0824
 3645TIP3   OH232493   4.645   2.427   3.081  0.2995  0.0637 -0.4883
 3645TIP3    H132494   4.566   2.427   3.028 -0.0006 -3.6392 -0.2974
 3645TIP3    H232495   4.614   2.445   3.170 -0.3437 -1.2497 -0.4337
 3646TIP3   OH232496   4.048   3.028   1.391 -0.1827  0.1145 -0.2029
 3646TIP3    H132497   4.093   2.991   1.468  0.8988 -0.7113 -1.1932
 3646TIP3    H232498   4.099   2.996   1.316 -1.9094 -0.0795 -1.3422
 3647TIP3   OH232499   3.679   0.991   0.362 -0.2301 -0.1543 -0.0272
 3647TIP3    H132500   3.631   1.011   0.442 -2.2677  0.1649 -1.2636
 3647TIP3    H232501   3.645   1.053   0.297  1.6441 -0.1365 -1.0667
 3648TIP3   OH232502   3.473   5.204   1.410  1.1283 -0.3448  0.6114
 3648TIP3    H132503   3.450   5.295   1.389  0.1554 -0.6870  0.1120
 3648TIP3    H232504   3.389   5.161   1.423  1.6191 -0.7742  2.6831
 3649TIP3   OH232505   0.309   5.586   3.082 -0.3891 -0.2537 -0.7217
 3649TIP3    H132506   0.272   5.593   3.170  2.0982  2.8014  0.2899
 3649TIP3    H232507   0.333   5.494   3.073 -0.9431 -0.7193  1.6946
 3650TIP3   OH232508   3.162   5.117   2.667  0.1798  0.4108 -0.0883
 3650TIP3    H132509   3.241   5.117   2.613  0.8803  2.2474  0.8761
 3650TIP3    H232510   3.194   5.110   2.757 -0.8424 -0.0138  0.2644
 3651TIP3   OH232511   6.700   5.695   4.764  0.4715  0.0099  0.3992
 3651TIP3    H132512   6.721   5.787   4.751  1.3963 -0.3348 -0.7302
 3651TIP3    H232513   6.612   5.695   4.800  0.9674  1.3868  1.7482
 3652TIP3   OH232514   2.687   4.729   4.346 -0.0321  0.0204 -0.0063
 3652TIP3    H132515   2.625   4.797   4.318 -0.6708 -0.3088  0.5788
 3652TIP3    H232516   2.773   4.766   4.329 -0.3622  1.1354  0.6585
 3653TIP3   OH232517   6.599   1.936   4.326 -0.8782 -0.1703 -0.1193
 3653TIP3    H132518   6.671   1.973   4.275 -1.9709  1.6452 -0.4533
 3653TIP3    H232519   6.533   1.913   4.260 -0.0018 -3.5166  0.0073
 3654TIP3   OH232520   0.731   5.347   2.067  0.2626  0.2450 -0.1305
 3654TIP3    H132521   0.640   5.371   2.083  0.9885  1.6045  2.3875
 3654TIP3    H232522   0.725   5.271   2.009 -2.4036  0.9747 -0.9823
 3655TIP3   OH232523   1.679   3.122   3.911 -0.1744 -0.1216  0.3675
 3655TIP3    H132524   1.644   3.192   3.856  1.0627  1.3330  1.3449
 3655TIP3    H232525   1.762   3.097   3.868  0.6744  0.8527  1.4021
 3656TIP3   OH232526   1.055   5.844   0.789 -0.4492 -0.6480  0.1125
 3656TIP3    H132527   1.069   5.883   0.876 -1.4248 -4.1121  2.0143
 3656TIP3    H232528   1.002   5.909   0.742  0.6775  1.6422  1.7949
 3657TIP3   OH232529   3.215   2.204   4.086  1.1981  0.2778  0.6039
 3657TIP3    H132530   3.149   2.164   4.143  1.0387  0.8087  0.7974
 3657TIP3    H232531   3.278   2.242   4.146  0.5624  1.6267  0.4581
 3658TIP3   OH232532   3.454   2.551   2.572  0.0428  0.2715  0.8511
 3658TIP3    H132533   3.419   2.638   2.551 -1.8548 -0.3306  1.3503
 3658TIP3    H232534   3.526   2.569   2.634  2.1549  1.6713 -1.7742
 3659TIP3   OH232535   3.222   3.326   0.379  0.1792  0.4189  0.7237
 3659TIP3    H132536   3.174   3.405   0.356 -0.1454  0.6018  1.9544
 3659TIP3    H232537   3.175   3.290   0.454  2.3391  0.9863  2.4292
 3660TIP3   OH232538   1.909   0.957   2.713 -0.4437  0.4039 -0.5068
 3660TIP3    H132539   1.839   0.970   2.649  0.9364 -1.4966 -2.5489
 3660TIP3    H232540   1.893   0.871   2.750  0.7283 -0.0376 -0.9584
 3661TIP3   OH232541   6.694   1.568   3.777  0.2746  0.2744 -0.1663
 3661TIP3    H132542   6.712   1.614   3.696  0.0120 -0.6488 -0.7636
 3661TIP3    H232543   6.734   1.482   3.766  0.9924  0.4251  1.0291
 3662TIP3   OH232544   2.620   6.246   4.560 -0.2137 -0.4094 -0.1191
 3662TIP3    H132545   2.538   6.241   4.609 -0.5613  1.3560 -0.4609
 3662TIP3    H232546   2.688   6.261   4.627  0.0298 -2.8834  0.2755
 3663TIP3   OH232547   4.569   3.574   2.058  0.5093  0.2283 -0.8110
 3663TIP3    H132548   4.573   3.657   2.009 -1.0463  0.6655 -0.2524
 3663TIP3    H232549   4.503   3.522   2.012 -2.5671  1.4408  1.8287
 3664TIP3   OH232550   1.498   4.144   3.182 -0.1417 -0.4646  0.0598
 3664TIP3    H132551   1.424   4.205   3.175 -0.6640 -0.9578  1.1010
 3664TIP3    H232552   1.477   4.075   3.119  1.2679  1.1730 -2.3928
 3665TIP3   OH232553   4.979   3.386   4.516  0.2982  0.1244  0.0022
 3665TIP3    H132554   5.054   3.398   4.574  0.8907  0.8754 -0.9003
 3665TIP3    H232555   4.924   3.322   4.561  1.0592  0.2070  1.0801
 3666TIP3   OH232556   1.247   1.675   1.514  1.3259  0.4132  0.6623
 3666TIP3    H132557   1.337   1.646   1.503  1.3695  0.9697 -0.7127
 3666TIP3    H232558   1.228   1.724   1.434 -0.6977 -1.0035  0.1839
 3667TIP3   OH232559   2.817   0.096   2.518 -0.4945 -0.5432 -0.3558
 3667TIP3    H132560   2.830   0.121   2.427  1.0447  1.2042  0.2717
 3667TIP3    H232561   2.901   0.057   2.544 -0.3637  0.4157  0.7241
 3668TIP3   OH232562   6.428   0.366   1.505  0.7591  0.1504  0.2432
 3668TIP3    H132563   6.497   0.306   1.477 -0.4331 -0.8306 -0.7309
 3668TIP3    H232564   6.458   0.401   1.589  2.6473  0.1454 -0.3957
 3669TIP3   OH232565   0.588   5.924   1.191  0.4508  0.4512 -0.5391
 3669TIP3    H132566   0.591   5.907   1.285 -0.1362  1.2243 -0.3682
 3669TIP3    H232567   0.654   5.866   1.153 -0.0739 -0.6678  0.2239
 3670TIP3   OH232568   5.661   0.344   0.275 -0.9899 -0.0463 -0.2467
 3670TIP3    H132569   5.604   0.421   0.276 -0.7565  0.1225  0.0597
 3670TIP3    H232570   5.726   0.364   0.207 -1.3272 -0.2637 -0.6364
 3671TIP3   OH232571   4.836   4.130   0.267 -0.3713 -0.4082  0.5399
 3671TIP3    H132572   4.746   4.146   0.238 -0.7153 -1.8887  0.6586
 3671TIP3    H232573   4.854   4.040   0.238  1.3344  0.1153 -0.0941
 3672TIP3   OH232574   6.130   0.152   4.523 -0.4158 -0.0450 -0.2457
 3672TIP3    H132575   6.187   0.192   4.590 -0.6823  1.7278 -1.0056
 3672TIP3    H232576   6.154   0.198   4.442  0.1660 -2.3978 -1.4860
 3673TIP3   OH232577   3.418   1.359   3.017 -0.1734 -0.5271  0.3719
 3673TIP3    H132578   3.399   1.450   3.040 -2.9715 -1.7099  3.8231
 3673TIP3    H232579   3.513   1.351   3.023  0.1345  2.1058  0.0111
 3674TIP3   OH232580   6.093   6.729   1.842 -0.3239 -0.0913 -0.4134
 3674TIP3    H132581   6.171   6.717   1.896  0.3793 -1.1109 -1.6013
 3674TIP3    H232582   6.047   6.802   1.882  1.3775  0.7045  0.1791
 3675TIP3   OH232583   5.323   3.819   1.697  0.3521 -0.0191  0.9587
 3675TIP3    H132584   5.275   3.751   1.743  0.8221 -1.3388 -0.4175
 3675TIP3    H232585   5.256   3.881   1.668 -0.4312 -1.2203  0.0846
 3676TIP3   OH232586   2.555   3.760   1.592 -0.3783 -0.0624  0.1881
 3676TIP3    H132587   2.504   3.702   1.535 -1.0315  0.6156  0.0682
 3676TIP3    H232588   2.641   3.719   1.597 -1.0848 -1.5274  0.8472
 3677TIP3   OH232589   6.133   1.822   5.011 -0.1176  0.3865  0.6795
 3677TIP3    H132590   6.125   1.916   5.028 -2.3858  0.7708 -1.9550
 3677TIP3    H232591   6.225   1.810   4.989 -0.2997  2.6258 -1.7942
 3678TIP3   OH232592   0.607   6.282   3.314  0.2864 -0.4410 -0.0451
 3678TIP3    H132593   0.561   6.335   3.248 -1.0464  0.4215  1.4878
 3678TIP3    H232594   0.663   6.344   3.360  0.1113 -0.7293  0.5678
 3679TIP3   OH232595   3.450   5.007   1.662 -0.1311  0.2810 -0.1090
 3679TIP3    H132596   3.401   5.038   1.585  1.8193 -1.8991 -2.3951
 3679TIP3    H232597   3.530   5.060   1.662  0.8520 -1.1606 -0.9205
 3680TIP3   OH232598   1.335   6.505   1.365  0.0611 -0.3810  0.1218
 3680TIP3    H132599   1.336   6.421   1.319  0.4500  0.1845 -0.9246
 3680TIP3    H232600   1.335   6.571   1.296  1.7474  0.5182  0.9023
 3681TIP3   OH232601   4.767   3.635   3.956  0.3849 -0.4068  0.1313
 3681TIP3    H132602   4.819   3.691   3.898  0.2337  1.3317  1.5834
 3681TIP3    H232603   4.715   3.697   4.008 -0.4876 -1.9598  1.1751
 3682TIP3   OH232604   4.707   1.120   4.222  0.4018  0.6371 -0.1836
 3682TIP3    H132605   4.760   1.150   4.295  0.7299  2.1912 -1.0210
 3682TIP3    H232606   4.667   1.199   4.186 -2.4524 -0.4441  0.3288
 3683TIP3   OH232607   3.135   1.497   3.679 -0.7768  0.4520 -0.0368
 3683TIP3    H132608   3.184   1.558   3.734 -0.5006 -0.2696  0.5348
 3683TIP3    H232609   3.182   1.496   3.595 -1.3171  1.7110 -0.3701
 3684TIP3   OH232610   2.681   0.401   1.647  0.2398 -0.1791  0.0727
 3684TIP3    H132611   2.671   0.441   1.733 -1.6336  0.5412 -0.4358
 3684TIP3    H232612   2.606   0.343   1.638  0.9423 -1.0006 -0.7036
 3685TIP3   OH232613   6.401   4.212   3.555  0.5706  0.5275  0.6194
 3685TIP3    H132614   6.308   4.192   3.551  0.6365 -0.1088  1.8123
 3685TIP3    H232615   6.442   4.153   3.491  0.3921 -0.8379  1.7251
 3686TIP3   OH232616   5.172   3.087   2.442 -0.2292 -0.1403  0.1764
 3686TIP3    H132617   5.149   3.004   2.485  0.3538 -0.2897  0.2053
 3686TIP3    H232618   5.125   3.084   2.359 -0.8010 -0.1682  0.4934
 3687TIP3   OH232619   2.672   4.795   4.853 -0.1889  0.1250 -0.0812
 3687TIP3    H132620   2.697   4.888   4.854 -1.3634  0.4493  0.8121
 3687TIP3    H232621   2.749   4.750   4.888  1.0911  0.5312 -2.1503
 3688TIP3   OH232622   5.492   2.492   1.427 -0.0716  0.3080  0.5115
 3688TIP3    H132623   5.469   2.543   1.350  0.0175 -0.5227 -0.0757
 3688TIP3    H232624   5.588   2.493   1.430 -0.0770  0.4450  0.6890
 3689TIP3   OH232625   6.393   3.772   1.638 -0.4969  0.0400  0.0581
 3689TIP3    H132626   6.426   3.860   1.621 -0.9158  0.0800 -0.5820
 3689TIP3    H232627   6.299   3.784   1.654 -0.6398 -0.3342 -0.4813
 3690TIP3   OH232628   2.892   5.572   3.388 -0.7050  0.1981 -0.1682
 3690TIP3    H132629   2.910   5.547   3.479 -0.9467 -0.6810 -0.3514
 3690TIP3    H232630   2.976   5.560   3.343 -1.2731 -2.3257 -0.6804
 3691TIP3   OH232631   2.782   1.437   2.348  0.2986 -0.0965 -0.2746
 3691TIP3    H132632   2.727   1.367   2.384 -0.6447  0.2016 -1.1072
 3691TIP3    H232633   2.865   1.394   2.329 -0.4808 -1.1870 -1.4078
 3692TIP3   OH232634   1.423   1.630   1.003  0.4568 -0.5814  0.5119
 3692TIP3    H132635   1.330   1.619   0.982  0.7011  0.8576 -1.5377
 3692TIP3    H232636   1.468   1.625   0.919  1.9840  1.1825  1.1479
 3693TIP3   OH232637   0.863   3.855   0.556 -0.1883 -0.4651  0.3987
 3693TIP3    H132638   0.950   3.815   0.563 -0.7516 -2.0514 -1.0094
 3693TIP3    H232639   0.805   3.784   0.530 -1.8824  0.6292  0.9717
 3694TIP3   OH232640   6.112   2.203   1.355 -0.2828 -0.3704 -0.0387
 3694TIP3    H132641   6.067   2.197   1.439 -2.3097  0.2243 -1.0016
 3694TIP3    H232642   6.180   2.268   1.369 -1.4753  0.7500  0.8048
 3695TIP3   OH232643   4.247   5.241   1.764  0.2895 -0.5718  0.5986
 3695TIP3    H132644   4.292   5.316   1.726  0.5776 -1.0443  0.0011
 3695TIP3    H232645   4.207   5.275   1.844  1.1096  0.0172  0.7654
 3696TIP3   OH232646   4.905   1.145   3.710  0.0627  0.0179 -0.0350
 3696TIP3    H132647   4.860   1.198   3.644  0.6830 -1.9560 -2.1985
 3696TIP3    H232648   4.849   1.068   3.721  1.3965 -1.0871 -0.5745
 3697TIP3   OH232649   3.558   1.601   3.210 -0.0085 -0.4731  0.3140
 3697TIP3    H132650   3.562   1.679   3.266 -1.8331  0.6367 -1.0064
 3697TIP3    H232651   3.588   1.529   3.267  1.5696  1.1154  1.6230
 3698TIP3   OH232652   3.836   2.984   1.539  0.3585  0.0118  0.1241
 3698TIP3    H132653   3.926   2.985   1.508  0.2381  2.9695 -0.4369
 3698TIP3    H232654   3.841   2.952   1.628  2.0063  0.2852  0.1499
 3699TIP3   OH232655   3.445   1.738   1.437 -0.1829 -0.4805 -0.3728
 3699TIP3    H132656   3.403   1.789   1.507  1.3577  0.1529  0.1367
 3699TIP3    H232657   3.465   1.803   1.370 -0.6150 -0.8985 -0.9164
 3700TIP3   OH232658   0.648   0.818   1.007  0.4163  0.0976 -0.3367
 3700TIP3    H132659   0.553   0.811   1.004  0.3579  0.7080 -0.1366
 3700TIP3    H232660   0.665   0.911   0.995  0.9770  0.0217 -0.1508
 3701TIP3   OH232661   5.265   2.675   4.219  0.0607 -0.9034  0.8190
 3701TIP3    H132662   5.192   2.625   4.183  0.2387 -0.2980 -0.4318
 3701TIP3    H232663   5.240   2.767   4.209  0.4106 -0.7096  1.6384
 3702TIP3   OH232664   0.314   2.394   2.555 -0.3403  0.1472  0.3560
 3702TIP3    H132665   0.310   2.489   2.548 -0.9602  0.4020  2.9255
 3702TIP3    H232666   0.246   2.372   2.619 -0.4614 -2.0757 -0.4488
 3703TIP3   OH232667   5.925   6.775   2.170  0.0659  0.1836 -0.2637
 3703TIP3    H132668   5.897   6.684   2.159 -0.3757  0.2734  0.0701
 3703TIP3    H232669   5.905   6.816   2.086  0.9987 -0.2074 -0.6865
 3704TIP3   OH232670   1.887   2.678   3.008  0.3090 -1.1784 -0.2026
 3704TIP3    H132671   1.840   2.673   3.091 -0.3440  0.6006 -0.4094
 3704TIP3    H232672   1.863   2.598   2.962 -1.7643 -0.8152  0.1231
 3705TIP3   OH232673   5.574   4.027   3.022 -0.1505  0.3662 -1.2162
 3705TIP3    H132674   5.634   4.060   3.089 -1.7438  1.0642 -0.0578
 3705TIP3    H232675   5.599   3.935   3.011  0.0589  0.1655  0.5236
 3706TIP3   OH232676   6.195   5.419   3.050  0.1380 -0.1250 -0.1299
 3706TIP3    H132677   6.196   5.497   3.106 -1.3295 -0.1875  0.0197
 3706TIP3    H232678   6.200   5.454   2.961 -0.1704  0.1154 -0.0529
 3707TIP3   OH232679   4.500   4.179   3.383  0.1679  0.4097  0.3872
 3707TIP3    H132680   4.466   4.259   3.423 -1.4620 -0.4602  0.8290
 3707TIP3    H232681   4.493   4.113   3.452  0.7507 -0.3106 -0.2181
 3708TIP3   OH232682   1.969   1.810   1.533 -0.2101  0.4683  0.2258
 3708TIP3    H132683   2.007   1.893   1.562 -0.4684  0.9160 -0.6855
 3708TIP3    H232684   1.905   1.834   1.467 -0.1991 -0.4667 -0.1464
 3709TIP3   OH232685   6.528   3.708   1.413  0.1823 -0.0322 -0.0269
 3709TIP3    H132686   6.610   3.740   1.450 -0.3943  1.6494 -0.1096
 3709TIP3    H232687   6.463   3.723   1.483 -0.1427 -0.8866 -0.1369
 3710TIP3   OH232688   0.258   3.482   1.716 -0.2051 -0.4974  0.2466
 3710TIP3    H132689   0.199   3.420   1.760  3.1951 -3.6268  0.9251
 3710TIP3    H232690   0.272   3.443   1.629 -1.4795  1.9267 -1.1442
 3711TIP3   OH232691   4.470   4.519   2.181  0.0814 -0.3830 -0.4003
 3711TIP3    H132692   4.491   4.460   2.253  1.0168  0.1003 -0.2547
 3711TIP3    H232693   4.442   4.600   2.224  3.8245  1.0961 -0.4079
 3712TIP3   OH232694   5.572   4.679   3.508 -0.0083 -0.1876  0.2327
 3712TIP3    H132695   5.533   4.608   3.457 -2.5309  1.3479 -0.1439
 3712TIP3    H232696   5.500   4.713   3.562  0.9218  2.4350 -0.0066
 3713TIP3   OH232697   1.913   6.683   2.925  0.3945 -0.0006  0.3622
 3713TIP3    H132698   1.953   6.628   2.857  1.1528  0.5055  0.3759
 3713TIP3    H232699   1.974   6.678   2.999  0.9244  1.4821  0.0701
 3714TIP3   OH232700   6.748   2.475   1.155 -0.0351  0.0347 -0.1487
 3714TIP3    H132701   6.669   2.442   1.113  0.4377 -0.5654 -0.5840
 3714TIP3    H232702   6.793   2.525   1.087 -0.6000  1.3848  0.4216
 3715TIP3   OH232703   0.825   5.618   3.667  0.7008 -0.6173 -0.0923
 3715TIP3    H132704   0.877   5.698   3.678  0.6518 -0.4219 -1.2056
 3715TIP3    H232705   0.756   5.626   3.732  0.1201  0.7302 -0.8415
 3716TIP3   OH232706   5.881   2.260   1.100 -0.5923  0.0072 -0.2670
 3716TIP3    H132707   5.936   2.338   1.100 -0.8759  0.2271  0.9566
 3716TIP3    H232708   5.941   2.187   1.086 -0.3986  0.4597 -2.1047
 3717TIP3   OH232709   0.997   1.757   1.629 -0.3749  0.1257 -1.0296
 3717TIP3    H132710   1.078   1.756   1.578 -0.5631 -1.6558 -1.3722
 3717TIP3    H232711   0.995   1.670   1.670 -0.3540  1.3578  1.8263
 3718TIP3   OH232712   2.625   0.399   0.549 -0.7011 -0.5130  0.0451
 3718TIP3    H132713   2.651   0.391   0.457 -1.7649  0.8797 -0.4165
 3718TIP3    H232714   2.570   0.323   0.565  2.1872 -2.6257  0.5729
 3719TIP3   OH232715   3.935   6.471   2.540 -0.5832 -0.3195  0.0397
 3719TIP3    H132716   4.024   6.498   2.518 -0.6756  0.9679  1.1306
 3719TIP3    H232717   3.939   6.447   2.632 -1.0526 -1.7303 -0.2927
 3720TIP3   OH232718   5.252   5.977   4.169  0.3867 -0.7647  0.0656
 3720TIP3    H132719   5.340   6.004   4.196  0.4381  1.7586 -2.1417
 3720TIP3    H232720   5.193   6.038   4.214 -0.0841 -1.3289  0.2191
 3721TIP3   OH232721   3.440   2.321   4.217 -0.0711  0.0411 -0.0292
 3721TIP3    H132722   3.424   2.414   4.201 -1.9657 -0.3017 -0.4101
 3721TIP3    H232723   3.524   2.319   4.262 -1.6261  2.3294  3.5462
 3722TIP3   OH232724   5.940   1.667   3.473  0.6642  0.3103 -0.2523
 3722TIP3    H132725   6.014   1.726   3.482 -0.4812  1.4439  3.6661
 3722TIP3    H232726   5.864   1.724   3.465 -0.1467 -0.6953 -0.0344
 3723TIP3   OH232727   0.190   2.331   3.501  0.1191 -0.3138  0.5330
 3723TIP3    H132728   0.138   2.281   3.439 -0.3656  0.7317  0.0771
 3723TIP3    H232729   0.273   2.348   3.456 -0.0389  0.0109  0.3636
 3724TIP3   OH232730   1.863   3.355   3.764  0.5409  0.2141 -0.2020
 3724TIP3    H132731   1.805   3.355   3.687 -0.1308 -0.6573  0.2863
 3724TIP3    H232732   1.838   3.276   3.812  1.7612  0.1322  0.3145
 3725TIP3   OH232733   2.277   3.592   0.484  0.0394  0.4725  0.3942
 3725TIP3    H132734   2.201   3.535   0.482 -0.0224  0.3153  2.9722
 3725TIP3    H232735   2.349   3.536   0.515  0.9636  0.8693 -0.9442
 3726TIP3   OH232736   2.872   0.015   0.809  0.4939  0.0381  0.1229
 3726TIP3    H132737   2.804   0.040   0.746  1.0109 -0.3887 -0.6256
 3726TIP3    H232738   2.944  -0.016   0.755  0.6102 -1.2181  0.9673
 3727TIP3   OH232739   1.574   1.276   2.550 -0.9384  0.3453  0.0299
 3727TIP3    H132740   1.664   1.303   2.533  0.2627 -1.0669  3.2171
 3727TIP3    H232741   1.542   1.340   2.613 -1.4631 -0.2274  0.3594
 3728TIP3   OH232742   5.535   1.996   2.815  0.8610  0.2098  0.4464
 3728TIP3    H132743   5.569   2.082   2.789  0.5616 -0.4247 -2.4098
 3728TIP3    H232744   5.614   1.944   2.833  1.2345  0.2125 -1.0312
 3729TIP3   OH232745   1.011   4.861   3.042 -0.2923 -0.2408  0.4325
 3729TIP3    H132746   1.062   4.819   2.973 -1.0945  0.6682 -0.7362
 3729TIP3    H232747   1.015   4.798   3.115  0.5004 -1.2531 -0.4424
 3730TIP3   OH232748   4.935   6.416   1.746 -0.0452  0.1890  0.2814
 3730TIP3    H132749   4.918   6.362   1.669 -1.7608  0.9909  0.0673
 3730TIP3    H232750   4.973   6.497   1.711 -2.3363  1.2355  0.0502
 3731TIP3   OH232751   5.685   5.263   1.783 -0.4455 -0.4377  0.2316
 3731TIP3    H132752   5.661   5.225   1.698  0.2995 -1.4630  0.4564
 3731TIP3    H232753   5.779   5.247   1.791 -0.6215 -0.9750  1.5321
 3732TIP3   OH232754   3.851   3.018   1.120  0.5734 -0.4806  0.3652
 3732TIP3    H132755   3.943   3.041   1.133  0.7659 -0.1924 -1.3254
 3732TIP3    H232756   3.853   2.938   1.068 -0.1497 -1.0645  1.2037
 3733TIP3   OH232757   1.553   6.011   4.725  0.1923 -0.0815  0.2895
 3733TIP3    H132758   1.629   6.040   4.777 -0.3037  1.2932  0.2863
 3733TIP3    H232759   1.586   6.008   4.635  0.7388 -1.3457  0.5070
 3734TIP3   OH232760   3.258   4.564   2.656  0.7006 -0.0650 -0.4246
 3734TIP3    H132761   3.196   4.602   2.593 -0.2995  0.2232  0.7035
 3734TIP3    H232762   3.267   4.630   2.725  0.5441 -1.0135  0.5341
 3735TIP3   OH232763   6.409   1.600   1.263  0.6490 -0.0274  0.0211
 3735TIP3    H132764   6.502   1.582   1.256  0.6733  0.3943 -0.9689
 3735TIP3    H232765   6.404   1.679   1.317  0.8803  0.0792 -0.1132
 3736TIP3   OH232766   5.040   0.060   3.239 -0.0027  0.3803 -0.4476
 3736TIP3    H132767   4.976   0.002   3.281  0.5249 -0.7279 -1.1471
 3736TIP3    H232768   4.988   0.133   3.206 -0.7852 -0.0655 -0.2186
 3737TIP3   OH232769   4.623   6.509   3.452  0.0430  0.0442 -0.1249
 3737TIP3    H132770   4.635   6.443   3.385 -0.7632 -0.1458 -0.0932
 3737TIP3    H232771   4.635   6.462   3.535  1.8646  0.4449 -0.1174
 3738TIP3   OH232772   3.498   1.247   0.268  0.2607 -0.0702 -0.0039
 3738TIP3    H132773   3.508   1.325   0.323 -0.2763 -0.2862  0.4096
 3738TIP3    H232774   3.516   1.278   0.179 -0.5810  0.6864  0.0709
 3739TIP3   OH232775   6.878   2.625   2.514 -0.3497 -0.1457 -0.0431
 3739TIP3    H132776   6.926   2.596   2.591 -0.6848  0.0613  0.2480
 3739TIP3    H232777   6.818   2.692   2.547 -0.0621  0.3831 -0.5915
 3740TIP3   OH232778   2.876   4.914   3.781  0.5959 -0.7135 -0.2926
 3740TIP3    H132779   2.789   4.911   3.741 -0.5856  1.0352  1.8841
 3740TIP3    H232780   2.876   4.843   3.845  2.1500 -2.9457 -2.6328
 3741TIP3   OH232781   3.941   4.364   0.573  0.0168 -0.4498  0.1147
 3741TIP3    H132782   4.029   4.386   0.603 -0.1499  0.6258 -0.1201
 3741TIP3    H232783   3.955   4.302   0.501  0.6698  0.6809 -0.7691
 3742TIP3   OH232784   1.370   3.323   0.782  0.4570 -0.1192 -0.2680
 3742TIP3    H132785   1.357   3.374   0.861  2.5893  0.3520 -0.1743
 3742TIP3    H232786   1.387   3.387   0.713  0.5568 -0.6004 -0.7043
 3743TIP3   OH232787   6.095   0.484   0.553 -0.0338 -0.5214  0.2946
 3743TIP3    H132788   6.169   0.505   0.497 -0.2862  0.0446  0.1652
 3743TIP3    H232789   6.019   0.519   0.506 -0.0893  1.4315  1.7177
 3744TIP3   OH232790   4.606   2.078   3.893  0.7502  0.0172 -0.6357
 3744TIP3    H132791   4.632   2.131   3.970  1.2260  0.0775 -0.8347
 3744TIP3    H232792   4.516   2.052   3.912  1.6187 -2.0681  1.1303
 3745TIP3   OH232793   4.357   6.039   2.586  0.0683 -0.3739 -0.0113
 3745TIP3    H132794   4.408   5.966   2.620  1.1395  0.5809  0.4809
 3745TIP3    H232795   4.332   6.011   2.498  0.9807 -1.0883 -0.0574
 3746TIP3   OH232796   5.508   4.199   2.804 -0.4154 -0.0676  0.1825
 3746TIP3    H132797   5.532   4.139   2.874  0.6919  1.9805  1.6667
 3746TIP3    H232798   5.590   4.215   2.757 -0.8205 -0.1304 -0.5648
 3747TIP3   OH232799   0.912   3.336   1.199  0.3232  0.6507  0.7408
 3747TIP3    H132800   0.887   3.274   1.130 -0.7383  1.9853 -0.1276
 3747TIP3    H232801   0.837   3.395   1.206  1.4937  2.1674  1.1513
 3748TIP3   OH232802   1.760   6.860   3.449 -0.1101  0.2406 -0.4547
 3748TIP3    H132803   1.809   6.856   3.531  1.8327  0.1852 -1.5787
 3748TIP3    H232804   1.677   6.816   3.469  0.9823 -1.2806  1.0120
 3749TIP3   OH232805   3.616   2.374   0.172 -0.2156  0.0453  0.1119
 3749TIP3    H132806   3.606   2.296   0.117 -0.8160 -0.1405  0.4698
 3749TIP3    H232807   3.536   2.425   0.156  0.9429  1.4777 -1.4623
 3750TIP3   OH232808   4.738   3.973   1.567  0.0425  0.0104 -0.3892
 3750TIP3    H132809   4.818   3.989   1.517 -0.2396  2.5997 -0.1780
 3750TIP3    H232810   4.669   4.015   1.516 -0.2776  2.6758  1.9788
 3751TIP3   OH232811   6.439   6.111   3.428  0.1163 -0.0197  0.7784
 3751TIP3    H132812   6.356   6.085   3.388 -0.4794  0.2363  1.8126
 3751TIP3    H232813   6.473   6.179   3.370  0.3003 -1.0867 -0.4048
 3752TIP3   OH232814   3.145   3.895   3.364  0.0036  0.4613  0.7639
 3752TIP3    H132815   3.068   3.899   3.308  0.7675  1.5407 -0.2540
 3752TIP3    H232816   3.183   3.809   3.346 -0.8503 -0.0201  1.1631
 3753TIP3   OH232817   5.661   3.185   1.190 -0.2747 -0.3477  0.0232
 3753TIP3    H132818   5.717   3.256   1.221  1.0308 -1.5261  0.4540
 3753TIP3    H232819   5.706   3.105   1.217 -1.8953 -1.3525 -0.1136
 3754TIP3   OH232820   4.067   3.366   1.249 -0.0180  0.6038  0.2433
 3754TIP3    H132821   4.001   3.330   1.189  1.1344  0.8490 -1.2165
 3754TIP3    H232822   4.132   3.296   1.256  1.2572  1.6062 -1.0621
 3755TIP3   OH232823   6.522   4.602   4.889 -0.7325  0.1379  0.0079
 3755TIP3    H132824   6.478   4.682   4.860 -0.9023 -0.1170 -0.4556
 3755TIP3    H232825   6.579   4.578   4.817  0.4338  0.6387  0.7355
 3756TIP3   OH232826   1.442   5.105   0.917  0.3550  0.2132  0.2174
 3756TIP3    H132827   1.464   5.027   0.867  0.3962  0.9814 -0.9828
 3756TIP3    H232828   1.526   5.138   0.949  0.3988  0.1207  0.1981
 3757TIP3   OH232829   0.077   0.977   3.508  0.1781 -0.2149  0.1066
 3757TIP3    H132830   0.112   0.942   3.590 -1.4682 -0.6519  0.6758
 3757TIP3    H232831  -0.003   1.023   3.535 -0.4502 -0.4632 -1.2712
 3758TIP3   OH232832   1.409   1.277   3.357 -0.1802 -0.3330  0.1835
 3758TIP3    H132833   1.327   1.257   3.402 -2.0267  0.8629 -2.3562
 3758TIP3    H232834   1.440   1.358   3.397 -0.1118 -0.9003  1.2959
 3759TIP3   OH232835   6.179   1.691   2.158  0.2815  0.2018 -0.0277
 3759TIP3    H132836   6.179   1.724   2.248  3.1600 -1.1871  0.5850
 3759TIP3    H232837   6.131   1.609   2.163 -0.4628  0.6314  0.0006
 3760TIP3   OH232838   2.438   4.239   3.599 -0.1119 -0.0307  0.0937
 3760TIP3    H132839   2.425   4.334   3.605  1.3704  0.1825  0.2270
 3760TIP3    H232840   2.464   4.224   3.509  0.6459 -0.1709  0.3296
 3761TIP3   OH232841   2.442   1.960   2.316 -0.9733  1.0156  0.6021
 3761TIP3    H132842   2.515   1.958   2.377 -0.0576  0.5597 -0.4778
 3761TIP3    H232843   2.465   1.898   2.247 -1.7779  1.7910 -0.4230
 3762TIP3   OH232844   3.081   6.470   1.830 -0.1947 -0.3278  0.2534
 3762TIP3    H132845   2.995   6.469   1.872 -0.0824  1.0308  0.5644
 3762TIP3    H232846   3.082   6.392   1.775 -1.2419 -0.8958  0.9966
 3763TIP3   OH232847   5.538   2.287   2.774  0.4847  0.0680 -0.5097
 3763TIP3    H132848   5.453   2.330   2.781 -0.0766 -0.9741 -0.6753
 3763TIP3    H232849   5.600   2.348   2.815 -0.3970  0.6853 -0.0729
 3764TIP3   OH232850   2.155   4.295   3.056 -0.4345  0.2391  0.1652
 3764TIP3    H132851   2.214   4.228   3.092 -0.6510 -1.2294 -1.9796
 3764TIP3    H232852   2.213   4.363   3.023 -0.1379  0.5066  1.2097
 3765TIP3   OH232853   4.786   1.367   4.830 -0.2231 -0.0793  0.2545
 3765TIP3    H132854   4.821   1.366   4.741 -1.2574  1.8849 -0.2167
 3765TIP3    H232855   4.702   1.321   4.824 -0.1572 -0.2060  0.2910
 3766TIP3   OH232856   3.880   4.339   2.636 -0.2889 -0.4286  0.8400
 3766TIP3    H132857   3.918   4.354   2.550 -1.4480  0.3612  0.4463
 3766TIP3    H232858   3.805   4.398   2.640  1.5939  2.0373  3.6689
 3767TIP3   OH232859   2.119   4.042   3.935  0.1146  0.1099  0.2104
 3767TIP3    H132860   2.080   4.001   4.012  0.7609 -0.3725  0.2907
 3767TIP3    H232861   2.148   3.969   3.881  1.7477  0.4117  0.5950
 3768TIP3   OH232862   4.055   3.579   4.067 -0.0078 -0.6917 -0.1884
 3768TIP3    H132863   4.087   3.498   4.107 -0.0409 -1.8987 -2.4639
 3768TIP3    H232864   3.966   3.559   4.040 -0.8398  0.8850  1.2111
 3769TIP3   OH232865   6.092   4.757   1.186 -0.8287 -0.5858  0.0100
 3769TIP3    H132866   6.079   4.663   1.199 -0.6524 -0.8039 -1.2745
 3769TIP3    H232867   6.048   4.776   1.103  0.9820  0.0138 -0.8668
 3770TIP3   OH232868   1.698   0.311   4.419  0.4615  0.1781 -0.6334
 3770TIP3    H132869   1.626   0.263   4.461 -0.5161 -0.6227 -3.0517
 3770TIP3    H232870   1.777   0.263   4.446 -0.0719 -0.0410  0.5946
 3771TIP3   OH232871   4.594   1.965   8.501 -0.1822 -0.5668  0.5979
 3771TIP3    H132872   4.567   1.927   8.418 -1.6258  0.9560  0.3225
 3771TIP3    H232873   4.529   1.934   8.564 -0.5736  0.3263  0.6423
 3772TIP3   OH232874   5.775   2.491   1.453 -0.8347  0.1983  0.1790
 3772TIP3    H132875   5.838   2.560   1.432 -0.4209 -0.4464 -0.7839
 3772TIP3    H232876   5.806   2.455   1.537  0.6148 -0.6714 -0.6858
 3773TIP3   OH232877   1.169   6.318   3.577 -0.1329  0.1432  0.0306
 3773TIP3    H132878   1.252   6.351   3.544  0.3294 -1.2481 -0.2645
 3773TIP3    H232879   1.193   6.246   3.634 -1.1638 -0.8543 -0.7528
 3774TIP3   OH232880   1.548   1.528   4.084  0.0974 -0.4584 -0.2228
 3774TIP3    H132881   1.582   1.582   4.155  1.3107 -2.0607  0.4570
 3774TIP3    H232882   1.624   1.505   4.031 -0.8118  0.9412 -2.2767
 3775TIP3   OH232883   4.126   1.245   0.139 -0.5139  0.5334 -0.4974
 3775TIP3    H132884   4.122   1.340   0.144 -2.5656  0.5159 -0.9066
 3775TIP3    H232885   4.056   1.221   0.078 -1.2878 -1.3506  1.0320
 3776TIP3   OH232886   0.886   4.395   1.596 -0.5925  0.8282 -0.1363
 3776TIP3    H132887   0.872   4.456   1.668  0.4157 -1.2365  1.9034
 3776TIP3    H232888   0.980   4.377   1.597 -1.0963 -2.2657  0.6810
 3777TIP3   OH232889   4.973   5.257   1.024  0.8220 -0.0545 -0.4728
 3777TIP3    H132890   4.957   5.170   0.988 -1.7877 -0.3052  1.0647
 3777TIP3    H232891   4.913   5.314   0.976  0.3526  0.3425  0.5706
 3778TIP3   OH232892   3.406   0.791   0.584  0.1572 -0.0467  0.0458
 3778TIP3    H132893   3.356   0.723   0.629 -2.3345 -0.6557 -3.2449
 3778TIP3    H232894   3.386   0.871   0.632  1.0211 -1.1273  2.3922
 3779TIP3   OH232895   4.654   5.282   1.897 -0.3061  0.1879 -0.3174
 3779TIP3    H132896   4.650   5.354   1.960  1.7999  0.0019  0.0821
 3779TIP3    H232897   4.575   5.231   1.915 -1.7807  2.2604 -0.5147
 3780TIP3   OH232898   4.773   6.078   0.408  0.3396  0.6133 -0.1307
 3780TIP3    H132899   4.726   6.155   0.440  1.6376  1.7431 -0.8485
 3780TIP3    H232900   4.842   6.063   0.472  0.0470 -0.0033  0.0450
 3781TIP3   OH232901   4.627   6.262   1.754 -0.3072  0.1107 -0.7683
 3781TIP3    H132902   4.681   6.334   1.720  0.0198 -0.8693 -2.4251
 3781TIP3    H232903   4.565   6.244   1.684 -1.6116 -0.0263  0.3735
 3782TIP3   OH232904   3.396   2.653   2.869  0.2763  0.2565  0.7342
 3782TIP3    H132905   3.414   2.603   2.789  1.2757  0.1633  0.9965
 3782TIP3    H232906   3.430   2.598   2.939 -1.0151  0.1266  1.2877
 3783TIP3   OH232907   4.458   2.363   2.331  0.1051  0.1428 -0.0538
 3783TIP3    H132908   4.385   2.423   2.347  0.4552  0.8994 -1.1589
 3783TIP3    H232909   4.533   2.405   2.373  0.0445 -0.3305  0.5464
 3784TIP3   OH232910   0.477   2.309   1.843  0.0330 -0.2283  0.5339
 3784TIP3    H132911   0.385   2.290   1.827  0.5471 -3.0277  0.3349
 3784TIP3    H232912   0.503   2.363   1.769 -0.2582 -3.9739 -2.6629
 3785TIP3   OH232913   3.269   5.375   1.640 -0.2465 -0.6631 -0.7266
 3785TIP3    H132914   3.346   5.348   1.690  0.1045 -3.0162 -2.3357
 3785TIP3    H232915   3.195   5.358   1.698  0.3080 -0.4921  0.0456
 3786TIP3   OH232916   1.661   2.194   0.078 -0.3134  0.5201  0.3338
 3786TIP3    H132917   1.595   2.152   0.023 -0.7664 -1.0710  2.0261
 3786TIP3    H232918   1.661   2.285   0.049 -0.5715 -0.2251 -2.2309
 3787TIP3   OH232919   0.780   6.102   1.465  0.2346  0.4895 -0.3000
 3787TIP3    H132920   0.685   6.093   1.469  0.2754  0.3500  0.7269
 3787TIP3    H232921   0.814   6.026   1.512  0.8115  1.0880  0.2878
 3788TIP3   OH232922   0.751   1.448   3.973 -0.3057 -0.1737  0.2160
 3788TIP3    H132923   0.824   1.503   3.945 -0.9363  0.4658 -0.1921
 3788TIP3    H232924   0.674   1.488   3.933 -0.8742 -0.8831  0.5830
 3789TIP3   OH232925   6.633   5.341   1.151  0.2839 -0.1519 -0.3194
 3789TIP3    H132926   6.595   5.399   1.218  0.8366 -0.2805  0.1109
 3789TIP3    H232927   6.670   5.400   1.086  3.1064  0.0918  1.3475
 3790TIP3   OH232928   3.890   4.333   4.187  0.0101 -0.0217 -0.4021
 3790TIP3    H132929   3.887   4.428   4.177 -0.0463  0.0745  0.4316
 3790TIP3    H232930   3.912   4.300   4.100 -3.3399  0.5220 -1.6020
 3791TIP3   OH232931   1.332   0.493   0.436  0.0967 -0.0372 -0.2039
 3791TIP3    H132932   1.353   0.410   0.394  0.4473  0.8380 -1.8583
 3791TIP3    H232933   1.249   0.520   0.397  0.6374  0.9982 -0.6911
 3792TIP3   OH232934   0.889   5.599   2.064 -0.1283  0.2272 -0.5191
 3792TIP3    H132935   0.818   5.664   2.060  0.0342  0.4161 -0.3309
 3792TIP3    H232936   0.846   5.516   2.043 -0.3194  0.4077 -0.8598
 3793TIP3   OH232937   2.806   0.804   3.434 -0.7745  0.4902  0.1419
 3793TIP3    H132938   2.779   0.787   3.344  0.4709  0.2137 -0.1892
 3793TIP3    H232939   2.885   0.857   3.427  0.6943 -1.4577  0.9969
 3794TIP3   OH232940   6.480   2.367   4.182  0.2759  0.0997  0.3483
 3794TIP3    H132941   6.423   2.371   4.259  0.7276 -1.8984  0.8371
 3794TIP3    H232942   6.509   2.458   4.169 -0.2297  0.5639  2.2096
 3795TIP3   OH232943   2.538   4.067   2.647 -0.0612 -0.0015  0.0455
 3795TIP3    H132944   2.507   4.140   2.594 -2.8514 -1.3045 -0.2834
 3795TIP3    H232945   2.474   3.997   2.632  1.2909 -1.7955  2.0050
 3796TIP3   OH232946   3.017   2.038   0.357  0.0120  0.7388 -0.5115
 3796TIP3    H132947   3.113   2.048   0.357  0.0215  0.7095 -1.4515
 3796TIP3    H232948   2.994   2.029   0.265 -0.9505  1.1670 -0.3185
 3797TIP3   OH232949   0.961   6.007   3.300 -0.0247  0.2413 -0.6549
 3797TIP3    H132950   1.028   6.005   3.368 -1.1781  2.2831  0.6125
 3797TIP3    H232951   0.879   5.992   3.346 -0.5202 -2.6371 -2.2377
 3798TIP3   OH232952   5.112   2.085   3.786 -0.2376 -0.1527 -0.1687
 3798TIP3    H132953   5.089   1.997   3.758  0.2531  0.0572 -1.3104
 3798TIP3    H232954   5.188   2.074   3.842 -0.1496 -0.4589 -0.3477
 3799TIP3   OH232955   2.633   2.642   1.274  0.2546  0.5347  0.2634
 3799TIP3    H132956   2.658   2.658   1.183 -1.5285  1.9427 -0.0268
 3799TIP3    H232957   2.706   2.677   1.326  0.7026  0.8909 -0.5881
 3800TIP3   OH232958   2.446   4.481   4.142  0.0090 -0.0567 -0.1218
 3800TIP3    H132959   2.530   4.526   4.135 -0.9809  1.8083 -0.4735
 3800TIP3    H232960   2.422   4.487   4.234  0.1223 -0.3339 -0.0734
 3801TIP3   OH232961   4.851   1.300   2.551  0.0891 -0.3240 -0.1389
 3801TIP3    H132962   4.929   1.354   2.538  0.3339 -0.2338  1.5325
 3801TIP3    H232963   4.779   1.356   2.522  0.4163  0.6365  0.8117
 3802TIP3   OH232964   1.561   0.124   4.580 -0.3052  0.0888 -0.1953
 3802TIP3    H132965   1.496   0.112   4.650  0.7428  0.9628  0.9598
 3802TIP3    H232966   1.635   0.070   4.606  0.0019  0.2179 -0.7826
 3803TIP3   OH232967   1.857   5.755   3.982  0.1696  0.4399 -0.0386
 3803TIP3    H132968   1.941   5.796   4.002 -0.0958 -0.4881  3.8176
 3803TIP3    H232969   1.879   5.675   3.936  1.1306  1.5050 -1.5169
 3804TIP3   OH232970   5.180   0.279   1.029 -0.4939 -0.3233 -0.3304
 3804TIP3    H132971   5.165   0.366   1.066 -1.7043 -1.8655  3.2704
 3804TIP3    H232972   5.098   0.258   0.983 -0.1934  0.3837 -1.2185
 3805TIP3   OH232973   0.312   5.656   4.054 -0.1270  0.0380  0.1142
 3805TIP3    H132974   0.361   5.594   4.108  1.2221  1.2926  0.3963
 3805TIP3    H232975   0.374   5.683   3.987 -0.9672  0.4568 -0.5079
 3806TIP3   OH232976   0.871   1.230   1.795  0.0319  0.2561 -0.1059
 3806TIP3    H132977   0.940   1.224   1.728  0.0996  0.6146 -0.0681
 3806TIP3    H232978   0.822   1.308   1.771 -0.2840  0.0728 -0.0562
 3807TIP3   OH232979   4.978   5.884   4.347 -0.0668  0.1084 -0.2503
 3807TIP3    H132980   4.955   5.970   4.313  1.1398  0.7887  0.6112
 3807TIP3    H232981   4.896   5.834   4.343 -0.5980  1.0374 -1.4717
 3808TIP3   OH232982   2.083   0.837   0.346 -0.3051 -0.1123 -0.1747
 3808TIP3    H132983   2.010   0.776   0.336 -0.3765  0.0362 -0.5726
 3808TIP3    H232984   2.096   0.843   0.441 -0.2411 -0.8130 -0.1348
 3809TIP3   OH232985   1.827   2.965   0.954  0.3728  0.2773  0.9535
 3809TIP3    H132986   1.828   3.043   0.899 -2.4105  1.2655  2.0857
 3809TIP3    H232987   1.873   2.991   1.034  0.7927  0.2265  0.7307
 3810TIP3   OH232988   1.057   6.875   4.282  0.0972 -0.5142 -0.2814
 3810TIP3    H132989   1.147   6.902   4.266  0.1033  0.5264  1.3110
 3810TIP3    H232990   1.017   6.948   4.329 -1.0222 -1.7019  0.7233
 3811TIP3   OH232991   5.498   4.554   2.184 -0.0188  0.8062  0.2162
 3811TIP3    H132992   5.410   4.555   2.224 -0.2972  2.3106 -0.3839
 3811TIP3    H232993   5.556   4.532   2.256 -0.8172  0.4969  0.7865
 3812TIP3   OH232994   0.354   2.935   2.477 -0.1213  0.0480  0.0095
 3812TIP3    H132995   0.388   2.963   2.562  0.6412  0.4701 -0.4240
 3812TIP3    H232996   0.402   2.988   2.414 -0.9213 -0.0302 -0.6703
 3813TIP3   OH232997   5.343   5.613   3.987 -0.5119  0.4297 -0.1328
 3813TIP3    H132998   5.312   5.698   4.019 -0.7720  0.1723  0.3099
 3813TIP3    H232999   5.410   5.635   3.923 -1.0339  0.9891 -0.5040
 3814TIP3   OH233000   4.753   1.375   1.544  0.4159  0.5127  0.1321
 3814TIP3    H133001   4.743   1.446   1.607 -4.6500 -1.0302  1.5316
 3814TIP3    H233002   4.842   1.342   1.559  1.2392  3.4394  2.8121
 3815TIP3   OH233003   3.639   5.867   1.714  0.5449 -0.3136 -0.3063
 3815TIP3    H133004   3.649   5.913   1.797 -0.0576 -0.6799 -0.0272
 3815TIP3    H233005   3.652   5.775   1.736  1.3912 -0.3210 -0.7980
 3816TIP3   OH233006   5.290   1.866   0.865 -0.0568 -0.4258 -0.5804
 3816TIP3    H133007   5.195   1.879   0.871 -0.0460 -0.7156  0.5366
 3816TIP3    H233008   5.327   1.928   0.928  0.4344 -0.9259 -0.3620
 3817TIP3   OH233009   0.937   4.021   2.723  0.5725  0.3035 -0.7470
 3817TIP3    H133010   0.925   4.077   2.799  0.6761  0.0022 -0.5057
 3817TIP3    H233011   0.944   3.933   2.759 -0.0163  0.0850 -1.1538
 3818TIP3   OH233012   3.158   2.395   1.362  0.1800 -0.2676  0.1739
 3818TIP3    H133013   3.248   2.428   1.362  0.3534 -0.7006 -0.7880
 3818TIP3    H233014   3.142   2.370   1.453  0.9520  0.0200  0.4017
 3819TIP3   OH233015   2.358   3.013   1.184 -0.0314  0.9280  0.4410
 3819TIP3    H133016   2.392   2.927   1.159  0.3556  1.3044 -0.3710
 3819TIP3    H233017   2.428   3.054   1.234 -0.1784  0.8117  0.7443
 3820TIP3   OH233018   4.723   0.827   1.449 -0.2496  0.2190 -0.5708
 3820TIP3    H133019   4.638   0.797   1.481 -0.1858 -0.0627 -0.6543
 3820TIP3    H233020   4.719   0.922   1.452 -1.2810  0.2739 -2.4205
 3821TIP3   OH233021   5.909   4.207   1.359 -0.7142  0.0021  0.0227
 3821TIP3    H133022   5.879   4.294   1.385 -0.8208 -0.1972  0.5942
 3821TIP3    H233023   5.839   4.173   1.304 -1.1123 -0.0887  0.5755
 3822TIP3   OH233024   4.364   4.597   1.888 -0.1045  0.0829 -0.2917
 3822TIP3    H133025   4.428   4.526   1.885  0.3767  0.5087 -0.2290
 3822TIP3    H233026   4.286   4.558   1.929  0.8594  0.1479  1.6825
 3823TIP3   OH233027   4.512   3.654   0.462  0.1187 -0.0581  0.3909
 3823TIP3    H133028   4.580   3.597   0.425 -0.4207 -0.4399 -0.0233
 3823TIP3    H233029   4.437   3.642   0.404 -0.8004 -0.7712  1.6843
 3824TIP3   OH233030   5.941   6.749   1.608 -0.5259  0.4035  0.0032
 3824TIP3    H133031   5.923   6.669   1.559 -0.6680  0.9787 -0.9107
 3824TIP3    H233032   5.944   6.721   1.700  0.6818 -0.8712 -0.3897
 3825TIP3   OH233033   2.685   0.744   3.863  0.7383 -0.3585 -1.1992
 3825TIP3    H133034   2.625   0.729   3.936  1.1119  3.4725  0.1722
 3825TIP3    H233035   2.767   0.705   3.891  0.1665 -1.3675 -0.8774
 3826TIP3   OH233036   5.086   1.229   8.430  0.0422  0.0797 -0.0928
 3826TIP3    H133037   5.174   1.257   8.453 -0.0823  1.7167 -1.4488
 3826TIP3    H233038   5.092   1.202   8.339 -0.2776 -2.6868  0.5975
 3827TIP3   OH233039   1.156   0.139   8.262 -0.3595  0.1741  0.7161
 3827TIP3    H133040   1.252   0.132   8.267 -0.3431  0.8254  1.4055
 3827TIP3    H233041   1.138   0.232   8.268 -0.9893  0.1514 -0.5829
 3828TIP3   OH233042   5.481   3.885   2.545 -0.0048  0.0352  0.2247
 3828TIP3    H133043   5.400   3.839   2.523  0.2839  0.3372 -1.6895
 3828TIP3    H233044   5.456   3.977   2.546  0.2523  0.1095 -0.0922
 3829TIP3   OH233045   3.362   6.017   3.097  0.7454  0.0330 -0.1066
 3829TIP3    H133046   3.433   6.073   3.129  1.0346  0.0992 -0.8315
 3829TIP3    H233047   3.309   6.075   3.042  0.7206 -0.2612 -0.4005
 3830TIP3   OH233048   4.309   4.149   1.297  0.0894  0.0135 -0.1814
 3830TIP3    H133049   4.308   4.073   1.239 -0.9404  0.6763 -1.0701
 3830TIP3    H233050   4.346   4.220   1.245  0.1114  0.3774  0.3155
 3831TIP3   OH233051   1.483   0.390   2.303  0.2422 -0.1084  0.4431
 3831TIP3    H133052   1.470   0.421   2.213  0.8684 -1.8369 -0.2742
 3831TIP3    H233053   1.487   0.471   2.355  0.5984  0.9674 -1.1717
 3832TIP3   OH233054   2.194   1.461   0.627 -0.4421  0.2685  0.1761
 3832TIP3    H133055   2.254   1.419   0.687 -0.2790 -0.0031 -0.1757
 3832TIP3    H233056   2.229   1.443   0.540 -1.3124 -0.3472 -0.0665
 3833TIP3   OH233057   2.464   6.271   3.508  0.1079 -0.2697 -0.2554
 3833TIP3    H133058   2.396   6.250   3.572 -1.1757 -0.8385 -1.7682
 3833TIP3    H233059   2.519   6.193   3.505  0.8545  0.1635  0.9096
 3834TIP3   OH233060   5.046   1.446   2.493  0.0204 -0.2244 -0.1416
 3834TIP3    H133061   5.061   1.386   2.420 -0.6666 -0.9330  0.2827
 3834TIP3    H233062   5.115   1.512   2.485 -0.0503 -0.2906 -1.4240
 3835TIP3   OH233063   3.668   4.805   1.379 -0.4820 -0.0040  0.1046
 3835TIP3    H133064   3.575   4.804   1.355 -0.7272  1.0713  0.9449
 3835TIP3    H233065   3.669   4.834   1.470  0.5433 -2.1954  0.8415
 3836TIP3   OH233066   3.374   0.499   2.638 -0.4973  0.2090 -0.4112
 3836TIP3    H133067   3.427   0.435   2.684  1.0537  0.8416 -1.2443
 3836TIP3    H233068   3.288   0.458   2.630  0.1657 -1.3136  0.0051
 3837TIP3   OH233069   1.407   5.024   3.260  0.3198  0.2288 -0.6424
 3837TIP3    H133070   1.331   5.052   3.209 -1.5982 -3.4891 -0.2003
 3837TIP3    H233071   1.376   5.027   3.351 -0.0283 -2.8275 -0.5573
 3838TIP3   OH233072   3.733   1.709   1.462  0.1027 -0.2119  0.1092
 3838TIP3    H133073   3.757   1.618   1.443 -0.2320  0.3279 -3.8546
 3838TIP3    H233074   3.638   1.711   1.452  0.0551  0.5139  0.6347
 3839TIP3   OH233075   3.145   5.437   1.074  0.8813  0.2863  0.2453
 3839TIP3    H133076   3.122   5.506   1.136 -1.9355 -0.8838  0.6729
 3839TIP3    H233077   3.077   5.442   1.007  2.4974 -0.0230 -1.4670
 3840TIP3   OH233078   6.209   5.176   1.587  0.0343 -0.3962  0.0943
 3840TIP3    H133079   6.220   5.093   1.633 -0.2882  0.0045  0.9271
 3840TIP3    H233080   6.255   5.240   1.642 -0.1845  0.0627 -0.2492
 3841TIP3   OH233081   6.013   2.483   3.790 -0.2274 -0.1689  0.5333
 3841TIP3    H133082   5.948   2.414   3.801 -1.4063  0.8087  0.0047
 3841TIP3    H233083   6.087   2.455   3.843  0.5903 -3.3071 -1.9126
 3842TIP3   OH233084   1.612   5.665   3.951  0.1797 -0.6440  0.1043
 3842TIP3    H133085   1.685   5.717   3.985  0.8315 -1.7864  0.5300
 3842TIP3    H233086   1.653   5.583   3.923 -0.6889 -0.6163 -1.3448
 3843TIP3   OH233087   5.364   1.004   3.681  0.5369 -0.2550 -0.5318
 3843TIP3    H133088   5.293   0.940   3.672 -0.8161  1.2252 -0.9324
 3843TIP3    H233089   5.389   1.025   3.591  0.4955  0.2485 -0.4323
 3844TIP3   OH233090   0.034   5.273   1.586  0.0085  0.1490 -0.0510
 3844TIP3    H133091  -0.037   5.261   1.649 -1.4487 -0.9041 -1.8285
 3844TIP3    H233092   0.005   5.229   1.507  1.7571  1.4900 -1.5330
 3845TIP3   OH233093   5.360   3.262   2.756 -0.2367 -0.6994 -0.0076
 3845TIP3    H133094   5.397   3.267   2.844  0.3598  1.6246 -0.3158
 3845TIP3    H233095   5.276   3.307   2.764 -0.4317 -0.9804 -0.4999
 3846TIP3   OH233096   2.702   1.237   0.399 -0.2839  0.2659  0.1547
 3846TIP3    H133097   2.750   1.183   0.336  0.5426 -1.4288  2.1106
 3846TIP3    H233098   2.613   1.242   0.364 -0.4395 -2.5768 -0.0456
 3847TIP3   OH233099   2.421   2.612   4.082 -0.1866  0.4151 -0.8383
 3847TIP3    H133100   2.509   2.648   4.072  0.7567 -1.6781 -0.6521
 3847TIP3    H233101   2.404   2.566   4.000 -0.9711  0.5050 -0.7373
 3848TIP3   OH233102   2.958   2.267   3.357 -0.1961  0.1694  0.3727
 3848TIP3    H133103   2.940   2.253   3.264 -0.9005  0.9692  0.3741
 3848TIP3    H233104   2.968   2.362   3.365  2.1562 -0.0366  0.7268
 3849TIP3   OH233105   4.306   3.477   1.344  0.1087 -1.0286  0.3970
 3849TIP3    H133106   4.223   3.467   1.297  2.3938 -1.6553 -4.0369
 3849TIP3    H233107   4.335   3.387   1.361  0.8440 -0.8636  0.0285
 3850TIP3   OH233108   1.505   1.408   1.599 -0.3003  0.0013 -0.1470
 3850TIP3    H133109   1.524   1.491   1.556 -1.1590 -0.1115 -0.7659
 3850TIP3    H233110   1.514   1.426   1.693 -0.1779  0.7137 -0.2955
 3851TIP3   OH233111   2.051   2.750   2.130 -1.4990  0.2652  0.1430
 3851TIP3    H133112   1.960   2.778   2.142 -1.2102  1.1561  0.3517
 3851TIP3    H233113   2.076   2.788   2.045 -0.4614  2.4727  1.3556
 3852TIP3   OH233114   6.859   5.184   3.580  0.1299 -0.3725  0.3282
 3852TIP3    H133115   6.933   5.132   3.547  0.5761  0.9255 -0.7851
 3852TIP3    H233116   6.871   5.270   3.541  0.3473  1.1360  3.4376
 3853TIP3   OH233117   5.295   0.313   0.426 -0.2183 -0.2479 -0.6250
 3853TIP3    H133118   5.243   0.233   0.429  0.2925 -0.5609  0.5179
 3853TIP3    H233119   5.266   0.363   0.502 -0.0709  0.3599 -0.9614
 3854TIP3   OH233120   5.472   5.252   1.103  0.0032 -0.3561  0.4313
 3854TIP3    H133121   5.394   5.298   1.071  0.3212  0.9808  1.4517
 3854TIP3    H233122   5.455   5.238   1.196  1.2483  0.5876  0.8282
 3855TIP3   OH233123   1.621   0.071   2.630 -0.4128  0.3697 -0.5656
 3855TIP3    H133124   1.581   0.157   2.619  0.0142  0.5522 -0.6934
 3855TIP3    H233125   1.703   0.088   2.676 -0.2341  0.0560 -0.7625
 3856TIP3   OH233126   2.683   1.540   0.179 -0.4641 -0.1228  0.0083
 3856TIP3    H133127   2.590   1.524   0.195 -0.8837  0.2580 -1.7770
 3856TIP3    H233128   2.718   1.455   0.154 -0.4894 -0.1282 -0.0089
 3857TIP3   OH233129   0.724   0.459   1.296 -0.5202 -0.3682  0.2072
 3857TIP3    H133130   0.736   0.379   1.346 -0.9412 -1.1731 -0.9470
 3857TIP3    H233131   0.721   0.431   1.205  0.2964  1.0607 -0.3063
 3858TIP3   OH233132   4.935   3.674   1.302 -0.1866  0.2435  0.5923
 3858TIP3    H133133   5.017   3.646   1.342  1.0145  1.3165 -0.9721
 3858TIP3    H233134   4.961   3.709   1.217 -2.2277  1.0603  0.2463
 3859TIP3   OH233135   4.379   3.612   2.265  0.5617 -0.0033 -0.0770
 3859TIP3    H133136   4.435   3.580   2.194  1.8609 -1.3546  1.4757
 3859TIP3    H233137   4.328   3.682   2.226  1.2147 -0.7185 -2.3468
 3860TIP3   OH233138   2.445   4.356   8.537  0.1525  0.5239  0.1153
 3860TIP3    H133139   2.374   4.353   8.473 -0.1259  1.8892  0.3365
 3860TIP3    H233140   2.436   4.274   8.586  0.3694 -0.5413 -1.5461
 3861TIP3   OH233141   4.688   6.510   2.972 -0.0463 -0.2976  0.3706
 3861TIP3    H133142   4.734   6.554   2.901 -1.4531 -2.0222 -1.6983
 3861TIP3    H233143   4.671   6.422   2.940 -2.7786 -0.4510  1.8931
 3862TIP3   OH233144   5.943   1.852   3.101  0.5155 -0.4190  0.5090
 3862TIP3    H133145   6.020   1.821   3.148  0.5220  0.0857  0.8400
 3862TIP3    H233146   5.949   1.948   3.105  0.1093 -0.3741  0.1502
 3863TIP3   OH233147   0.152   4.702   1.686  0.7437 -0.3034 -0.6182
 3863TIP3    H133148   0.120   4.724   1.599 -0.1657 -2.9424 -1.0343
 3863TIP3    H233149   0.124   4.612   1.700  1.8965 -0.3513  1.9443
 3864TIP3   OH233150   5.874   3.487   4.461 -0.5159 -0.3992  0.5278
 3864TIP3    H133151   5.790   3.451   4.488 -1.6476  1.2210 -0.6479
 3864TIP3    H233152   5.895   3.552   4.529 -0.8376  0.0618  0.1929
 3865TIP3   OH233153   0.934   2.816   3.482 -0.4229 -0.5667 -0.9706
 3865TIP3    H133154   0.851   2.790   3.523 -1.5431 -0.5917 -3.0886
 3865TIP3    H233155   0.978   2.733   3.463 -0.9620 -0.6697 -1.8261
 3866TIP3   OH233156   0.802   1.084   2.847  0.0093  0.0298  0.7114
 3866TIP3    H133157   0.821   1.056   2.758  1.6389  2.7672  0.1081
 3866TIP3    H233158   0.777   1.176   2.839 -0.9122  0.0434  2.9805
 3867TIP3   OH233159   3.156   0.861   3.340 -0.3233  0.4189 -0.1256
 3867TIP3    H133160   3.159   0.877   3.435 -2.2191  0.2948 -0.0091
 3867TIP3    H233161   3.102   0.932   3.305 -0.6247 -0.2001 -0.9454
 3868TIP3   OH233162   1.674   0.096   3.232  0.5343 -0.3503  0.3625
 3868TIP3    H133163   1.736   0.069   3.165 -2.0277 -5.0993 -0.5143
 3868TIP3    H233164   1.701   0.049   3.311 -0.9052 -1.1250  0.4245
 3869TIP3   OH233165   1.946   0.841   1.142  0.2938  0.0897 -0.2529
 3869TIP3    H133166   1.919   0.896   1.068  0.5957  0.7591  0.1177
 3869TIP3    H233167   1.865   0.827   1.192 -0.4810 -2.5316 -2.0208
 3870TIP3   OH233168   5.853   2.879   3.514 -0.0659 -0.4238 -0.2011
 3870TIP3    H133169   5.830   2.804   3.569  1.9630 -1.9294 -1.2506
 3870TIP3    H233170   5.944   2.862   3.488  0.2013  2.0523 -1.0912
 3871TIP3   OH233171   2.826   1.933   4.361  0.0980  0.0068  0.0733
 3871TIP3    H133172   2.834   1.999   4.292  2.7271 -1.3744 -1.0857
 3871TIP3    H233173   2.859   1.852   4.321 -0.4547 -1.3924  2.2717
 3872TIP3   OH233174   6.020   6.259   1.854 -0.4575 -0.6845 -0.0540
 3872TIP3    H133175   6.015   6.198   1.781 -0.8757 -0.1942 -0.4450
 3872TIP3    H233176   6.067   6.212   1.922  1.7382 -0.4401 -1.3328
 3873TIP3   OH233177   4.465   4.511   2.757 -0.2175 -0.7985 -0.5527
 3873TIP3    H133178   4.492   4.520   2.666  1.0396  1.3140 -0.0286
 3873TIP3    H233179   4.370   4.502   2.753 -0.7103  3.0570 -1.9901
 3874TIP3   OH233180   1.981   3.274   2.035  0.3360 -0.0053  0.1577
 3874TIP3    H133181   1.997   3.212   1.964 -1.2052 -1.3164  0.8674
 3874TIP3    H233182   1.929   3.343   1.995  0.5226 -0.1016 -0.2549
 3875TIP3   OH233183   2.961   5.474   3.662  0.2140  0.2564 -0.0500
 3875TIP3    H133184   2.933   5.398   3.713  3.1027 -1.0170 -0.1504
 3875TIP3    H233185   2.954   5.547   3.724 -0.1020 -0.5491  0.9011
 3876TIP3   OH233186   1.798   2.365   1.590 -0.4268 -0.2065 -0.3343
 3876TIP3    H133187   1.777   2.281   1.630 -1.1936  0.4860  0.7868
 3876TIP3    H233188   1.720   2.419   1.607 -0.5085  0.3338 -2.2053
 3877TIP3   OH233189   4.305   3.034   0.447 -0.4023  0.1483 -0.0117
 3877TIP3    H133190   4.357   2.960   0.417 -0.2872 -0.1329  0.8493
 3877TIP3    H233191   4.363   3.110   0.437 -0.8641  0.3094 -1.8529
 3878TIP3   OH233192   3.579   6.511   2.220  0.8820 -0.0204  0.0407
 3878TIP3    H133193   3.493   6.534   2.254  0.8763  0.5050 -0.3245
 3878TIP3    H233194   3.636   6.513   2.297  0.8049  0.8524  0.0822
 3879TIP3   OH233195   0.216   4.513   1.939  0.1021  0.0844  0.4261
 3879TIP3    H133196   0.214   4.600   1.980  0.1198 -0.0654  0.7527
 3879TIP3    H233197   0.167   4.524   1.858 -3.7945 -0.5938  2.4343
 3880TIP3   OH233198   3.856   3.562   4.362 -0.3359 -0.5614 -0.1400
 3880TIP3    H133199   3.841   3.521   4.277 -0.2215  0.4041 -0.6487
 3880TIP3    H233200   3.950   3.580   4.363 -0.1306 -1.5596  0.6722
 3881TIP3   OH233201   5.015   6.565   0.234  0.3927 -0.1128 -0.5513
 3881TIP3    H133202   5.049   6.546   0.147  1.7041  0.6663 -0.2272
 3881TIP3    H233203   5.069   6.637   0.266  1.1385 -1.5177  1.6045
 3882TIP3   OH233204   1.760   6.417   3.124  0.6267  0.2413 -1.1465
 3882TIP3    H133205   1.789   6.330   3.099  1.1673  0.0714 -0.0123
 3882TIP3    H233206   1.841   6.469   3.128  1.0458 -0.3938  2.6787
 3883TIP3   OH233207   3.126   5.881   0.423 -0.1116 -0.6272 -0.1531
 3883TIP3    H133208   3.069   5.881   0.346  1.2519 -1.7204 -1.2244
 3883TIP3    H233209   3.067   5.869   0.497 -1.3778 -0.4809 -1.1090
 3884TIP3   OH233210   0.997   6.253   1.537 -0.0306 -0.0823  0.4836
 3884TIP3    H133211   1.030   6.186   1.596 -0.5197 -0.7468  0.0192
 3884TIP3    H233212   0.917   6.215   1.499 -0.9338  1.1831  1.0282
 3885TIP3   OH233213   0.555   2.739   2.639  0.4541  0.1747 -0.2665
 3885TIP3    H133214   0.488   2.688   2.685  0.5734  1.7817  1.8292
 3885TIP3    H233215   0.616   2.673   2.606 -0.4720 -1.1515  0.5375
 3886TIP3   OH233216   2.136   2.980   0.991 -0.1536  0.8095 -0.5588
 3886TIP3    H133217   2.105   3.070   0.988 -0.9601  0.5738  0.2518
 3886TIP3    H233218   2.228   2.987   1.018 -0.7878  1.3129  1.7354
 3887TIP3   OH233219   3.050   0.746   2.071 -0.2441 -0.2628 -0.1301
 3887TIP3    H133220   3.004   0.787   2.145  0.1652  0.2026 -0.1282
 3887TIP3    H233221   2.999   0.667   2.052  0.9969 -1.7504  2.2285
 3888TIP3   OH233222   0.087   1.623   0.105 -0.1936 -0.2615  0.2423
 3888TIP3    H133223   0.125   1.576   0.180 -0.8564 -1.1326  0.0451
 3888TIP3    H233224  -0.002   1.588   0.097  0.4524 -1.5393 -2.0867
 3889TIP3   OH233225   4.986   4.094   3.552 -0.1574  0.2765 -0.3862
 3889TIP3    H133226   5.052   4.040   3.596 -1.8219  0.4763  2.6455
 3889TIP3    H233227   5.028   4.180   3.542  0.2104  0.3012  1.1582
 3890TIP3   OH233228   2.453   2.531   1.498 -0.4121  0.0729  0.3031
 3890TIP3    H133229   2.513   2.474   1.451 -1.1522  0.6088 -1.3661
 3890TIP3    H233230   2.509   2.580   1.558  0.7419  0.0802 -0.7389
 3891TIP3   OH233231   0.142   4.424   0.736 -0.0096  0.9656 -0.6466
 3891TIP3    H133232   0.072   4.436   0.672 -1.2183  0.7562  0.6087
 3891TIP3    H233233   0.207   4.369   0.690 -1.4102 -0.2182 -1.2826
 3892TIP3   OH233234   4.542   1.157   1.231 -0.5839 -0.1309 -0.0153
 3892TIP3    H133235   4.510   1.146   1.142  0.2377 -2.0184 -0.1205
 3892TIP3    H233236   4.462   1.162   1.285 -1.0949  1.6208 -0.8563
 3893TIP3   OH233237   4.326   5.274   4.331  0.4477  0.7257 -0.0989
 3893TIP3    H133238   4.357   5.337   4.396  0.9683 -1.1836  1.6282
 3893TIP3    H233239   4.236   5.254   4.358  0.8137 -0.4055  0.3305
 3894TIP3   OH233240   0.186   4.713   3.593  0.2146  0.0460 -0.0084
 3894TIP3    H133241   0.108   4.665   3.623 -0.4567  1.8343  1.2530
 3894TIP3    H233242   0.250   4.702   3.663 -0.0787  1.2780  0.4659
 3895TIP3   OH233243   6.308   1.228   4.148  0.1885  0.1026 -0.0331
 3895TIP3    H133244   6.279   1.316   4.126 -0.4937  0.3446  1.7016
 3895TIP3    H233245   6.284   1.216   4.240 -0.3192 -2.1319 -0.3904
 3896TIP3   OH233246   2.358   2.687   1.232  0.2058 -0.2877  0.6961
 3896TIP3    H133247   2.357   2.619   1.166  0.4079  0.8821 -0.5526
 3896TIP3    H233248   2.443   2.679   1.275  0.8673  0.1427 -0.5018
 3897TIP3   OH233249   2.966   5.562   1.555 -0.0505  0.1165  0.1256
 3897TIP3    H133250   2.873   5.541   1.544 -0.1088  0.4166  0.0426
 3897TIP3    H233251   2.970   5.607   1.640 -0.0121  0.2938  0.0299
 3898TIP3   OH233252   4.106   1.887   1.888  0.0327  0.0257  0.5806
 3898TIP3    H133253   4.041   1.818   1.875 -1.4806  1.6440 -1.0274
 3898TIP3    H233254   4.189   1.845   1.867 -0.7379 -1.5240  0.4704
 3899TIP3   OH233255   3.199   2.426   2.608 -0.1393 -0.3111  0.5630
 3899TIP3    H133256   3.288   2.449   2.581 -0.6267 -0.1557 -0.9806
 3899TIP3    H233257   3.149   2.507   2.597 -0.7139 -0.6910  0.3462
 3900TIP3   OH233258   2.592   5.930   1.445  0.0166  0.2438  0.6932
 3900TIP3    H133259   2.677   5.974   1.438  0.8580 -1.3297  0.4799
 3900TIP3    H233260   2.581   5.885   1.361  0.4424 -2.0184  1.7592
 3901TIP3   OH233261   1.196   4.438   1.329 -0.0750  0.1262 -0.1542
 3901TIP3    H133262   1.101   4.436   1.317  0.1013 -1.7403 -1.7946
 3901TIP3    H233263   1.208   4.425   1.423 -1.4339 -0.8670 -0.0852
 3902TIP3   OH233264   2.238   0.673   2.447  0.2936  0.0475 -0.3983
 3902TIP3    H133265   2.160   0.724   2.467  0.3549  0.7538 -1.8196
 3902TIP3    H233266   2.207   0.583   2.438 -0.1811  0.1693  0.0116
 3903TIP3   OH233267   1.936   6.708   1.099 -0.0927  0.4195  0.1122
 3903TIP3    H133268   1.962   6.640   1.036  1.8968 -0.0848  1.3733
 3903TIP3    H233269   1.847   6.732   1.074  0.0322 -0.9559 -1.8357
 3904TIP3   OH233270   1.502   6.857   1.217 -0.0900 -0.1084 -0.2542
 3904TIP3    H133271   1.462   6.778   1.182 -0.3338 -0.2521  0.3278
 3904TIP3    H233272   1.482   6.854   1.311 -1.4469  1.4279 -0.4601
 3905TIP3   OH233273   6.189   1.352   2.538  0.0934  0.1492  0.2202
 3905TIP3    H133274   6.097   1.376   2.548 -0.2620 -1.3978  0.8430
 3905TIP3    H233275   6.237   1.434   2.554 -1.1317  0.8659  0.3502
 3906TIP3   OH233276   3.674   6.858   4.348 -0.0436  0.5826 -0.0713
 3906TIP3    H133277   3.628   6.906   4.417 -0.2551 -1.1260  1.0454
 3906TIP3    H233278   3.614   6.861   4.274 -1.5658 -0.6574  1.0133
 3907TIP3   OH233279   6.086   6.326   0.644 -0.1182  0.2549  0.1985
 3907TIP3    H133280   5.995   6.321   0.672  0.6087 -1.5400  2.6080
 3907TIP3    H233281   6.095   6.257   0.578 -0.1617 -0.7664  1.2268
 3908TIP3   OH233282   0.124   4.543   2.511  0.1298 -0.0265 -0.2606
 3908TIP3    H133283   0.048   4.599   2.493  0.0785 -0.6989 -2.4174
 3908TIP3    H233284   0.103   4.460   2.468  0.5434 -1.5015  2.2196
 3909TIP3   OH233285   1.440   0.345   1.295 -0.0076 -0.2263  0.2030
 3909TIP3    H133286   1.497   0.366   1.369  1.8164 -1.2768 -0.8478
 3909TIP3    H233287   1.411   0.431   1.263  3.0221  0.5649 -0.7455
 3910TIP3   OH233288   3.894   2.854   0.399  0.5634  0.1970  0.1278
 3910TIP3    H133289   3.967   2.888   0.346  0.9332 -0.5919  0.1154
 3910TIP3    H233290   3.816   2.891   0.358  0.7964 -0.8269 -1.3559
 3911TIP3   OH233291   2.767   1.241   4.376 -0.4585 -0.4072 -0.0681
 3911TIP3    H133292   2.693   1.186   4.402 -0.0197 -0.0952  1.9792
 3911TIP3    H233293   2.842   1.206   4.425  0.0400  1.3634  0.5248
 3912TIP3   OH233294   0.711   2.905   3.980 -0.2431  0.2111 -0.0352
 3912TIP3    H133295   0.752   2.844   4.041 -2.3227 -1.7375 -0.4655
 3912TIP3    H233296   0.699   2.985   4.032  0.0775 -0.6371  1.4071
 3913TIP3   OH233297   5.115   3.024   4.709 -0.2271  0.0056  0.1466
 3913TIP3    H133298   5.137   2.957   4.774 -1.2615  0.0132  0.5185
 3913TIP3    H233299   5.114   2.977   4.625 -0.4802 -0.3461  0.3448
 3914TIP3   OH233300   5.957   0.036   1.935  0.2093  0.4261  0.4479
 3914TIP3    H133301   5.897   0.107   1.959  0.0979  0.5032 -0.0377
 3914TIP3    H233302   6.039   0.057   1.980  0.4656  1.3679 -0.4036
 3915TIP3   OH233303   1.768   5.569   2.001  0.6504 -0.2939  0.3095
 3915TIP3    H133304   1.740   5.646   2.051  1.5319  0.7709 -0.7570
 3915TIP3    H233305   1.687   5.523   1.980  0.1536  0.0573  1.4295
 3916TIP3   OH233306   5.500   0.126   0.385  0.4040  0.4145  0.0812
 3916TIP3    H133307   5.426   0.181   0.359 -0.3922  0.6121  2.5235
 3916TIP3    H233308   5.577   0.181   0.370  0.0851  0.2963 -2.2429
 3917TIP3   OH233309   3.051   1.975   1.619 -0.7420 -0.4533 -0.0129
 3917TIP3    H133310   2.979   1.930   1.576 -1.3249 -1.8491  2.2276
 3917TIP3    H233311   3.022   1.986   1.710  1.1930  0.4979  0.5599
 3918TIP3   OH233312   1.069   6.228   0.941  0.0978 -0.0856  0.2513
 3918TIP3    H133313   1.084   6.207   1.034 -2.2276 -1.9483  0.2916
 3918TIP3    H233314   0.979   6.200   0.924  0.1201  1.1463 -2.3434
 3919TIP3   OH233315   1.509   0.068   2.962 -0.9214 -0.2922  0.2468
 3919TIP3    H133316   1.561   0.147   2.976  0.1357 -1.0128  0.5045
 3919TIP3    H233317   1.528   0.013   3.037 -2.1465 -0.5481  0.3956
 3920TIP3   OH233318   5.330   3.739   5.057  0.4391  0.4674  0.3484
 3920TIP3    H133319   5.338   3.645   5.044  2.0018  0.1761  2.8890
 3920TIP3    H233320   5.252   3.763   5.007 -1.6238 -2.6221  1.7815
 3921TIP3   OH233321   1.401   5.448   3.086 -0.3942  0.5031  0.1447
 3921TIP3    H133322   1.309   5.440   3.111 -0.5317  2.1484  0.2565
 3921TIP3    H233323   1.399   5.448   2.990 -0.2909 -1.4660  0.1154
 3922TIP3   OH233324   0.464   2.256   1.492 -0.9096 -0.2934  0.2523
 3922TIP3    H133325   0.517   2.241   1.414 -0.3116 -0.2569  0.6454
 3922TIP3    H233326   0.389   2.198   1.482 -0.2906 -1.1020  0.1637
 3923TIP3   OH233327   3.456   2.030   2.771  0.1104 -0.4950 -0.6304
 3923TIP3    H133328   3.468   2.124   2.787  0.5759 -0.7090  0.3452
 3923TIP3    H233329   3.438   1.993   2.857 -0.7935 -1.2047 -1.1149
 3924TIP3   OH233330   1.482   6.848   1.489 -0.3529  0.6527  0.1482
 3924TIP3    H133331   1.563   6.853   1.540 -0.6336 -2.0489  1.0616
 3924TIP3    H233332   1.412   6.857   1.555 -0.8153  2.1335 -0.5126
 3925TIP3   OH233333   3.532   0.419   0.582  0.3118 -0.2279  0.2367
 3925TIP3    H133334   3.517   0.344   0.525  1.8478 -0.5415  0.2000
 3925TIP3    H233335   3.520   0.385   0.671  0.6485 -0.4171  0.2071
 3926TIP3   OH233336   4.869   0.577   3.013  0.1034  0.7044 -0.2546
 3926TIP3    H133337   4.915   0.568   2.929  1.5906  1.0510  0.4932
 3926TIP3    H233338   4.810   0.502   3.015 -2.2229  2.2724 -2.9337
 3927TIP3   OH233339   2.325   0.961   3.919 -0.0472 -0.0763 -0.7245
 3927TIP3    H133340   2.267   0.898   3.962 -0.0213  1.0705  1.1573
 3927TIP3    H233341   2.350   0.920   3.837  0.9344 -3.0436  0.9027
 3928TIP3   OH233342   1.893   4.983   1.393  0.6768  0.2734 -0.0451
 3928TIP3    H133343   1.911   5.032   1.313  0.8594 -0.6476 -0.5872
 3928TIP3    H233344   1.832   4.914   1.366  0.8903 -0.1699  0.5623
 3929TIP3   OH233345   4.566   1.618   3.379 -0.7067  0.1349  0.0048
 3929TIP3    H133346   4.548   1.599   3.471 -0.4761  0.1289  0.0490
 3929TIP3    H233347   4.589   1.534   3.340  2.7891  0.5932  0.7534
 3930TIP3   OH233348   4.251   2.739   1.805  0.1467  0.6732  0.5560
 3930TIP3    H133349   4.336   2.724   1.847  0.0017  1.9456  1.3852
 3930TIP3    H233350   4.222   2.653   1.777  0.8261 -0.0817  2.0368
 3931TIP3   OH233351   5.821   5.348   4.085  0.3409  0.1839  0.0670
 3931TIP3    H133352   5.796   5.258   4.063  0.8226 -0.0358  0.4061
 3931TIP3    H233353   5.815   5.352   4.180 -0.0840  0.6396  0.0270
 3932TIP3   OH233354   0.506   0.143   0.686  0.3019  0.0987 -0.3227
 3932TIP3    H133355   0.460   0.060   0.701 -2.7653  1.5149 -1.1679
 3932TIP3    H233356   0.500   0.189   0.769  1.7226 -0.3477  0.0504
 3933TIP3   OH233357   6.067   2.885   3.778  0.0702  0.2891  0.2908
 3933TIP3    H133358   5.975   2.860   3.773  0.0005  0.6561 -0.2970
 3933TIP3    H233359   6.100   2.875   3.689  1.4649 -3.0306  1.0220
 3934TIP3   OH233360   4.606   2.972   1.207  0.6294 -0.1589  0.0215
 3934TIP3    H133361   4.699   2.993   1.198  0.8086 -1.1519 -0.6426
 3934TIP3    H233362   4.561   3.055   1.196  1.4114  0.2216 -0.3416
 3935TIP3   OH233363   1.087   1.408   8.521  0.3461 -0.3282  0.8969
 3935TIP3    H133364   1.124   1.330   8.481  0.4620 -0.7757  1.8284
 3935TIP3    H233365   1.160   1.469   8.528  0.1412  0.0776 -0.3074
 3936TIP3   OH233366   5.371   5.583   2.989  0.2126  0.0548  0.5597
 3936TIP3    H133367   5.398   5.559   3.077  0.2176 -1.2699  0.2183
 3936TIP3    H233368   5.406   5.514   2.933 -4.4818 -2.4138  0.1576
 3937TIP3   OH233369   5.408   1.208   1.895  0.0135 -0.2503  0.1731
 3937TIP3    H133370   5.442   1.136   1.842  2.7349  0.1114  1.2228
 3937TIP3    H233371   5.466   1.282   1.874 -0.5417  0.6426  1.6076
 3938TIP3   OH233372   2.382   5.373   3.724 -0.0164  0.4122  0.1137
 3938TIP3    H133373   2.341   5.403   3.643 -1.7050 -0.9298  0.4221
 3938TIP3    H233374   2.440   5.301   3.696 -2.2840 -1.5864  0.2593
 3939TIP3   OH233375   1.114   5.968   1.411  0.0562 -0.5171  0.0656
 3939TIP3    H133376   1.195   5.919   1.399 -0.2352 -0.7148 -1.2053
 3939TIP3    H233377   1.044   5.905   1.394 -0.3451 -0.0843  0.0922
 3940TIP3   OH233378   0.377   2.611   2.799 -0.2328  0.0772  0.8504
 3940TIP3    H133379   0.440   2.562   2.852  0.6129  0.4533  0.2083
 3940TIP3    H233380   0.295   2.563   2.810  0.5506 -1.4607  0.2954
 3941TIP3   OH233381   1.148   3.003   3.482  0.0985  0.1037  0.2257
 3941TIP3    H133382   1.148   3.065   3.555 -1.3119 -0.0087  0.3533
 3941TIP3    H233383   1.073   2.946   3.499  0.8341 -1.0712 -0.3721
 3942TIP3   OH233384   6.104   1.168   4.734  0.2175  0.4208  0.2369
 3942TIP3    H133385   6.028   1.190   4.681 -0.1965  0.5154  0.8578
 3942TIP3    H233386   6.092   1.218   4.816  1.5080  1.3499 -0.0903
 3943TIP3   OH233387   6.777   6.405   0.781  0.6557  0.4198 -0.0372
 3943TIP3    H133388   6.767   6.423   0.874 -1.4315  0.2176 -0.1800
 3943TIP3    H233389   6.782   6.309   0.777  1.5568  0.4642 -0.0804
 3944TIP3   OH233390   1.896   3.074   3.738  0.2877  0.0357  0.3652
 3944TIP3    H133391   1.964   3.132   3.704  1.2664 -0.5382  1.2778
 3944TIP3    H233392   1.903   2.995   3.685  0.1215  0.0851  0.2666
 3945TIP3   OH233393   6.234   3.879   3.605  0.0876  0.1283 -0.5389
 3945TIP3    H133394   6.231   3.894   3.700  0.2941 -1.8957 -0.1745
 3945TIP3    H233395   6.189   3.955   3.568 -0.8962  0.4749  1.2409
 3946TIP3   OH233396   5.682   5.573   3.963  0.1222  0.4768  0.1208
 3946TIP3    H133397   5.674   5.629   4.041  1.5556  1.2915 -0.2808
 3946TIP3    H233398   5.704   5.487   3.998 -1.3887  0.3006  0.7107
 3947TIP3   OH233399   5.139   2.674   1.559  0.4643  0.3757 -0.3872
 3947TIP3    H133400   5.233   2.654   1.557  0.4142  0.1107 -0.1498
 3947TIP3    H233401   5.128   2.745   1.496  0.9731  1.0426  0.2620
 3948TIP3   OH233402   0.644   4.873   0.061 -0.1911  0.0494 -0.2143
 3948TIP3    H133403   0.641   4.831   0.147 -0.6506 -2.7776 -1.4932
 3948TIP3    H233404   0.736   4.898   0.049 -0.1212  0.4627  1.0379
 3949TIP3   OH233405   5.012   5.388   4.343  0.6410 -0.2812  0.4890
 3949TIP3    H133406   4.989   5.297   4.360  0.5699 -0.0587  1.6681
 3949TIP3    H233407   5.036   5.423   4.429  1.0447  0.7082 -0.0101
 3950TIP3   OH233408   3.904   6.236   2.371  0.2495  0.1344  0.6654
 3950TIP3    H133409   3.913   6.321   2.415  3.2218 -0.1564  0.8445
 3950TIP3    H233410   3.985   6.227   2.321 -0.8224 -1.8160 -0.8243
 3951TIP3   OH233411   3.506   3.350   2.744 -0.2198 -0.3600  0.5046
 3951TIP3    H133412   3.577   3.373   2.803  1.2842 -0.8344 -1.0303
 3951TIP3    H233413   3.541   3.278   2.691 -1.0931  0.6866 -1.6366
 3952TIP3   OH233414   1.664   0.610   3.393 -0.3176 -0.3188  0.0635
 3952TIP3    H133415   1.669   0.702   3.420  0.4402 -0.0963 -0.7736
 3952TIP3    H233416   1.745   0.595   3.345  0.2995 -1.8744  1.4868
 3953TIP3   OH233417   2.663   0.905   0.597 -0.5320 -0.2178 -0.1062
 3953TIP3    H133418   2.594   0.869   0.653  1.2021 -0.3291  2.1200
 3953TIP3    H233419   2.679   0.836   0.532 -1.0211 -1.1257  0.7039
 3954TIP3   OH233420   4.724   2.060   3.452  0.2582 -0.0176  0.8230
 3954TIP3    H133421   4.729   1.987   3.514  1.2904 -1.9511 -1.3353
 3954TIP3    H233422   4.795   2.118   3.477 -0.4295  0.1543  2.4528
 3955TIP3   OH233423   1.864   1.925   0.803  0.6458 -0.1358  0.2827
 3955TIP3    H133424   1.784   1.941   0.752 -0.1518  2.3791  2.0923
 3955TIP3    H233425   1.931   1.976   0.758  0.0860  1.5709  1.2809
 3956TIP3   OH233426   3.877   0.570   3.117 -0.2144  0.1825  0.3832
 3956TIP3    H133427   3.787   0.558   3.088 -0.1542  0.6434 -0.0029
 3956TIP3    H233428   3.925   0.595   3.038 -0.0733  1.6160  0.8905
 3957TIP3   OH233429   6.419   1.275   2.351 -0.8144 -0.0141 -0.1248
 3957TIP3    H133430   6.363   1.291   2.427  0.3999  0.6143  0.6748
 3957TIP3    H233431   6.398   1.347   2.291 -0.1576  0.8233  0.6138
 3958TIP3   OH233432   1.980   4.278   3.853  0.0922 -0.5008  0.2778
 3958TIP3    H133433   2.044   4.336   3.896  1.9617 -0.8674 -1.8374
 3958TIP3    H233434   2.005   4.190   3.882 -1.8896 -0.4823  2.3874
 3959TIP3   OH233435   5.482   5.330   2.872 -0.1075 -0.0061  0.7224
 3959TIP3    H133436   5.548   5.363   2.811 -0.0840  0.0124  0.7575
 3959TIP3    H233437   5.501   5.237   2.881 -0.9999 -0.3137 -0.4189
 3960TIP3   OH233438   0.665   6.629   1.720 -0.6678  0.6480 -0.3598
 3960TIP3    H133439   0.630   6.668   1.800 -0.2293 -0.4283  0.3808
 3960TIP3    H233440   0.706   6.702   1.673 -1.2711  1.3603  0.2077
 3961TIP3   OH233441   2.831   5.768   2.181  0.4970 -0.1617 -0.3111
 3961TIP3    H133442   2.836   5.673   2.187  1.4158 -0.1116 -0.1809
 3961TIP3    H233443   2.920   5.796   2.162 -0.0018  0.5955 -1.6378
 3962TIP3   OH233444   4.754   5.027   0.860 -0.0253  0.0722  0.3996
 3962TIP3    H133445   4.675   5.016   0.806  0.0085 -0.8350  0.5089
 3962TIP3    H233446   4.763   4.943   0.905  0.6066  0.4216  0.9318
 3963TIP3   OH233447   6.395   6.518   2.924 -0.3079 -0.2558 -0.5241
 3963TIP3    H133448   6.447   6.553   2.996 -0.3501 -0.4172 -0.4149
 3963TIP3    H233449   6.399   6.423   2.935 -2.1999 -0.2783  0.6543
 3964TIP3   OH233450   6.689   3.961   2.851  0.2814 -0.0856  0.6045
 3964TIP3    H133451   6.735   3.885   2.814 -2.4084 -1.8877  0.6910
 3964TIP3    H233452   6.714   4.034   2.795  0.3126 -1.7216 -1.6677
 3965TIP3   OH233453   5.740   1.239   4.301  0.3616 -0.4429  0.0806
 3965TIP3    H133454   5.653   1.273   4.279  0.7027  2.2703  2.3544
 3965TIP3    H233455   5.739   1.149   4.269 -3.5462 -0.7694  0.6475
 3966TIP3   OH233456   4.793   4.775   2.844 -0.1791  0.0461 -0.1391
 3966TIP3    H133457   4.729   4.704   2.858  0.2908 -0.6536 -1.3955
 3966TIP3    H233458   4.848   4.744   2.772  1.1071  0.9685  0.4018
 3967TIP3   OH233459   1.500   0.827   8.457  0.0131 -0.0198 -0.5739
 3967TIP3    H133460   1.535   0.740   8.438  1.2315  1.0491 -4.1057
 3967TIP3    H233461   1.413   0.826   8.417 -0.3517  0.1098  0.2066
 3968TIP3   OH233462   6.693   1.401   3.180  0.0372  0.2695  0.0389
 3968TIP3    H133463   6.783   1.382   3.206  0.1929  0.3716 -0.4105
 3968TIP3    H233464   6.665   1.323   3.132 -1.0214 -0.8882  2.3724
 3969TIP3   OH233465   5.858   0.569   0.437  0.0476 -0.3919  0.2883
 3969TIP3    H133466   5.831   0.533   0.521 -0.9712 -0.0284  0.1322
 3969TIP3    H233467   5.805   0.522   0.373 -0.9537  0.9808  0.0424
 3970TIP3   OH233468   2.541   2.566   4.498 -0.0627 -0.1001  0.4512
 3970TIP3    H133469   2.487   2.550   4.575 -2.1339 -1.1181 -1.1192
 3970TIP3    H233470   2.619   2.513   4.512 -0.3206 -0.1298  1.9092
 3971TIP3   OH233471   2.115   0.757   1.871  0.2869  0.1709  0.5530
 3971TIP3    H133472   2.023   0.781   1.861 -0.2969 -1.4392  1.5895
 3971TIP3    H233473   2.158   0.836   1.901 -0.9553  0.6871  1.0324
 3972TIP3   OH233474   5.346   5.860   3.818  0.3516  0.1454  0.5319
 3972TIP3    H133475   5.376   5.865   3.909  1.5905  2.1323  0.0639
 3972TIP3    H233476   5.398   5.789   3.780  0.7978  0.1942  1.0394
 3973TIP3   OH233477   2.828   0.697   2.431 -0.2510  0.1018 -0.3640
 3973TIP3    H133478   2.776   0.769   2.396  0.5518  0.3236 -1.1205
 3973TIP3    H233479   2.778   0.618   2.407  0.0241  0.2753 -1.6105
 3974TIP3   OH233480   4.750   1.561   1.324 -0.6788  0.5102  0.1266
 3974TIP3    H133481   4.738   1.492   1.390  0.7966 -0.1210 -0.2307
 3974TIP3    H233482   4.738   1.516   1.241 -1.7375  1.1386 -0.0785
 3975TIP3   OH233483   2.938   6.594   0.514 -0.3447  0.4406  0.5733
 3975TIP3    H133484   2.924   6.507   0.476 -2.3191  1.2372 -0.6911
 3975TIP3    H233485   2.988   6.642   0.448  0.0295  0.5428  0.9190
 3976TIP3   OH233486   1.239   4.180   2.886  0.1477 -0.1360 -0.6520
 3976TIP3    H133487   1.228   4.271   2.914  0.2152  0.2335 -1.7601
 3976TIP3    H233488   1.153   4.140   2.901 -0.2040  0.4078 -1.1499
 3977TIP3   OH233489   6.487   6.484   1.461 -0.6023 -0.2974  0.3016
 3977TIP3    H133490   6.457   6.402   1.423  2.4567 -0.9867 -0.9014
 3977TIP3    H233491   6.468   6.550   1.395  1.7027 -0.9799 -1.1817
 3978TIP3   OH233492   6.153   5.622   1.109 -0.3395 -0.6828  0.3172
 3978TIP3    H133493   6.142   5.628   1.204  2.3462  0.6426  0.6525
 3978TIP3    H233494   6.154   5.713   1.080  2.0356 -0.8962 -0.4733
 3979TIP3   OH233495   4.101   4.029   3.881  0.2954  0.2358  0.2526
 3979TIP3    H133496   4.087   4.023   3.976  1.2306 -0.4949  0.3572
 3979TIP3    H233497   4.091   4.122   3.862 -0.2018  0.3556  1.0135
 3980TIP3   OH233498   6.318   2.387   3.678 -0.3234 -0.4015  0.1382
 3980TIP3    H133499   6.342   2.438   3.756  1.8559 -1.3444  0.1523
 3980TIP3    H233500   6.272   2.310   3.712 -0.4230 -0.2299  0.3925
 3981TIP3   OH233501   5.749   4.245   1.637  0.1147 -0.9318 -0.8622
 3981TIP3    H133502   5.661   4.231   1.673  0.3446 -0.7781 -0.2306
 3981TIP3    H233503   5.799   4.169   1.666  0.4903 -0.4570 -0.2388
 3982TIP3   OH233504   6.102   1.475   2.790 -0.0716  0.0059  0.2268
 3982TIP3    H133505   6.014   1.480   2.828 -0.5122  0.0117 -0.7865
 3982TIP3    H233506   6.158   1.455   2.865 -1.0271 -0.7699  0.7576
 3983TIP3   OH233507   3.387   5.892   3.476  0.0077  0.0669  0.0553
 3983TIP3    H133508   3.475   5.916   3.447  0.3418 -0.1867  0.8252
 3983TIP3    H233509   3.330   5.913   3.402  0.4463  1.9681  0.2176
 3984TIP3   OH233510   1.575   4.350   2.338  0.0735 -0.3025 -0.1074
 3984TIP3    H133511   1.531   4.340   2.253 -1.2328  1.0109  0.3902
 3984TIP3    H233512   1.555   4.269   2.385  0.9740 -1.1333 -1.0812
 3985TIP3   OH233513   1.861   2.702   4.372 -0.2643  0.0468 -0.2552
 3985TIP3    H133514   1.832   2.635   4.309  0.5860  0.1902 -0.8229
 3985TIP3    H233515   1.854   2.784   4.324 -0.7170  0.2887  0.2322
 3986TIP3   OH233516   3.636   6.518   3.673 -0.0416 -0.1959  0.3237
 3986TIP3    H133517   3.721   6.531   3.714  0.6703 -1.3245 -0.7330
 3986TIP3    H233518   3.594   6.604   3.678  0.6723  0.0941  1.8961
 3987TIP3   OH233519   6.460   2.944   1.198  0.0535  0.4327 -0.0637
 3987TIP3    H133520   6.426   3.025   1.159 -0.9715  0.1739  0.2694
 3987TIP3    H233521   6.451   2.957   1.292 -0.8901 -0.3729 -0.0207
 3988TIP3   OH233522   2.012   5.602   2.975  0.0797 -0.3636 -0.6982
 3988TIP3    H133523   1.963   5.542   3.031 -0.3283 -0.9611 -1.6624
 3988TIP3    H233524   2.103   5.581   2.992 -0.0170 -0.1369  0.1588
 3989TIP3   OH233525   4.066   2.599   1.207  0.3897  0.0591  0.0836
 3989TIP3    H133526   3.995   2.647   1.248  0.5243 -0.4174  0.9016
 3989TIP3    H233527   4.026   2.516   1.178  0.4434  0.1168 -0.1628
 3990TIP3   OH233528   2.346   5.388   1.115 -0.1621  0.4951 -0.0026
 3990TIP3    H133529   2.310   5.462   1.066  0.9153  1.3398  0.4440
 3990TIP3    H233530   2.357   5.319   1.050  1.6958  1.7498 -1.0852
 3991TIP3   OH233531   5.190   5.717   4.248 -0.0068 -0.1844 -0.6242
 3991TIP3    H133532   5.115   5.749   4.300  0.2179  0.6618 -0.8029
 3991TIP3    H233533   5.233   5.797   4.217  2.1656 -0.5796  1.1400
 3992TIP3   OH233534   5.668   6.243   1.914  0.2905 -0.3928  0.0429
 3992TIP3    H133535   5.655   6.182   1.987  1.4390  0.2469  0.8250
 3992TIP3    H233536   5.665   6.330   1.955 -2.7556  0.2442 -1.2515
 3993TIP3   OH233537   2.469   3.014   3.029 -0.2539  1.0997 -0.3074
 3993TIP3    H133538   2.411   3.080   3.065 -1.0129  0.3623 -0.1503
 3993TIP3    H233539   2.548   3.062   3.005 -1.0259  2.1796 -0.7908
 3994TIP3   OH233540   6.553   0.118   3.144 -0.7453  0.3288  0.3702
 3994TIP3    H133541   6.501   0.090   3.068 -0.5779 -1.5834  0.9098
 3994TIP3    H233542   6.610   0.187   3.110 -1.1127 -0.0520 -1.0955
 3995TIP3   OH233543   5.810   4.309   3.393  0.4111  0.4591 -0.3386
 3995TIP3    H133544   5.896   4.268   3.389  0.3412  0.4365 -1.9786
 3995TIP3    H233545   5.828   4.403   3.390  0.4384  0.5249  1.0347
 3996TIP3   OH233546   6.856   1.032   4.426  0.3773 -0.0616  0.1054
 3996TIP3    H133547   6.853   1.077   4.510 -0.8352 -0.0518  0.0763
 3996TIP3    H233548   6.937   0.980   4.430 -0.1234 -0.7943  1.6652
 3997TIP3   OH233549   2.853   2.357   0.872  0.6416  0.1190 -0.3494
 3997TIP3    H133550   2.770   2.398   0.849 -0.9189 -1.1677  2.5235
 3997TIP3    H233551   2.900   2.426   0.920 -0.1489 -0.0803  0.7496
 3998TIP3   OH233552   1.232   2.041   3.542  0.7270 -0.5450  0.5076
 3998TIP3    H133553   1.239   2.013   3.633 -0.5433 -0.3712  0.6691
 3998TIP3    H233554   1.142   2.020   3.516  0.2805  1.6590  0.0652
 3999TIP3   OH233555   0.311   5.282   1.764  0.4852  0.4297  0.5121
 3999TIP3    H133556   0.363   5.203   1.760  2.0988  1.4723 -0.0469
 3999TIP3    H233557   0.371   5.352   1.738 -0.6274  1.9614  1.8397
 4000TIP3   OH233558   4.900   2.817   3.354  0.3971  0.5096  0.5161
 4000TIP3    H133559   4.996   2.818   3.352  0.4098 -0.1211  0.3451
 4000TIP3    H233560   4.878   2.725   3.335 -0.2732  1.0581 -1.6697
 4001TIP3   OH233561   0.884   2.332   3.012 -0.5285 -0.1419  0.2509
 4001TIP3    H133562   0.862   2.403   2.952 -0.2980 -0.7506 -0.5745
 4001TIP3    H233563   0.979   2.329   3.014 -0.4976  0.7227  1.6998
 4002TIP3   OH233564   2.398   5.703   3.188 -0.0840 -0.8138 -0.6093
 4002TIP3    H133565   2.430   5.793   3.185 -1.9643 -0.0192  0.8645
 4002TIP3    H233566   2.478   5.650   3.186  1.0493  0.8056 -2.2958
 4003TIP3   OH233567   2.382   5.573   4.005 -0.5599  0.2239 -0.2488
 4003TIP3    H133568   2.430   5.654   3.990 -0.8145  0.3235 -0.5278
 4003TIP3    H233569   2.339   5.585   4.090 -0.0519  0.1126  0.0307
 4004TIP3   OH233570   2.105   5.182   2.054 -0.0139  0.3580 -0.0026
 4004TIP3    H133571   2.037   5.248   2.063  1.9751  2.4902  0.2845
 4004TIP3    H233572   2.134   5.164   2.143 -0.6169 -1.0435 -0.0650
 4005TIP3   OH233573   6.739   0.484   1.326 -0.0293 -0.6486 -0.1148
 4005TIP3    H133574   6.739   0.395   1.359 -0.7536 -0.5889  0.0560
 4005TIP3    H233575   6.647   0.503   1.308 -0.0885  0.6181  1.3641
 4006TIP3   OH233576   2.584   3.939   3.186  0.2899  0.1071 -0.2604
 4006TIP3    H133577   2.535   3.960   3.107  1.7075 -0.3983 -1.3124
 4006TIP3    H233578   2.608   3.847   3.176  0.9050  0.1702  0.5344
 4007TIP3   OH233579   0.247   3.654   3.685 -0.1472 -0.7398  0.5487
 4007TIP3    H133580   0.193   3.645   3.763  0.1718  2.7120  1.3137
 4007TIP3    H233581   0.188   3.688   3.618  0.2545 -0.6193  0.2503
 4008TIP3   OH233582   1.592   5.855   2.700  0.1069 -0.6821 -0.5177
 4008TIP3    H133583   1.675   5.874   2.744 -0.4266  1.1031 -0.2193
 4008TIP3    H233584   1.526   5.901   2.752 -0.8790 -0.7356 -1.6794
 4009TIP3   OH233585   0.902   3.040   2.810 -0.0459  0.4596  0.0104
 4009TIP3    H133586   0.899   3.016   2.903 -1.2532 -0.3750 -0.2248
 4009TIP3    H233587   0.944   2.966   2.767 -0.1626  0.5139 -0.1995
 4010TIP3   OH233588   2.376   2.145   3.143 -0.8339  0.2303 -0.9475
 4010TIP3    H133589   2.347   2.189   3.063 -1.6919 -0.4190 -1.0081
 4010TIP3    H233590   2.301   2.151   3.202 -0.7612 -0.6567 -0.7584
 4011TIP3   OH233591   0.428   1.366   1.171 -0.1818  0.1766 -0.5118
 4011TIP3    H133592   0.510   1.319   1.156 -0.1558  0.6287 -1.9882
 4011TIP3    H233593   0.361   1.308   1.133 -0.5917 -0.2853  0.8681
 4012TIP3   OH233594   2.109   1.566   1.857  0.6228  0.4210 -0.4556
 4012TIP3    H133595   2.167   1.567   1.933  2.5000  0.9198 -1.8394
 4012TIP3    H233596   2.027   1.527   1.890  1.4616  0.3757  1.7271
 4013TIP3   OH233597   6.599   5.768   1.333 -0.2267 -0.3645  0.2224
 4013TIP3    H133598   6.676   5.806   1.291 -1.1880  3.0495  1.1918
 4013TIP3    H233599   6.525   5.809   1.288 -1.4943 -2.7030  0.0686
 4014TIP3   OH233600   0.091   2.363   1.826 -0.0638  0.3795 -0.1255
 4014TIP3    H133601   0.096   2.367   1.922 -0.7004 -0.2154 -0.0620
 4014TIP3    H233602   0.081   2.455   1.799 -0.7573  0.4774  0.4305
 4015TIP3   OH233603   3.447   4.857   2.635 -0.0993 -0.5991 -0.3302
 4015TIP3    H133604   3.403   4.838   2.718 -2.3352  0.5319 -1.1710
 4015TIP3    H233605   3.463   4.952   2.638  1.3710 -0.8182 -0.5144
 4016TIP3   OH233606   5.519   5.722   1.854 -0.1350  0.0212  0.4106
 4016TIP3    H133607   5.438   5.672   1.865 -1.3402  1.9687  0.7864
 4016TIP3    H233608   5.580   5.660   1.814 -1.3156 -1.9516  1.5254
 4017TIP3   OH233609   2.866   6.405   1.993  0.7048 -0.7213  0.3815
 4017TIP3    H133610   2.832   6.447   2.072 -0.1588  1.6630 -1.1427
 4017TIP3    H233611   2.824   6.319   1.992 -3.8449  1.2205 -0.2792
 4018TIP3   OH233612   4.252   3.669   1.784 -0.2162  0.5883  0.1796
 4018TIP3    H133613   4.306   3.597   1.816  1.4032  1.6608 -0.0434
 4018TIP3    H233614   4.183   3.626   1.734  0.9945 -0.8018 -0.3695
 4019TIP3   OH233615   1.096   3.938   3.901 -0.0890 -0.0267 -0.1728
 4019TIP3    H133616   1.096   4.006   3.968 -1.8482 -1.2832  1.1715
 4019TIP3    H233617   1.189   3.919   3.887  0.3291  0.0010  2.2091
 4020TIP3   OH233618   5.507   6.089   3.104  0.1945  0.3890 -0.5497
 4020TIP3    H133619   5.507   6.172   3.055 -0.7190 -0.1076 -1.4256
 4020TIP3    H233620   5.506   6.022   3.036 -1.3186 -0.3267  0.1428
 4021TIP3   OH233621   5.834   4.605   3.424  0.0419 -0.5989  0.0470
 4021TIP3    H133622   5.746   4.639   3.437 -0.6020 -1.9613 -0.5508
 4021TIP3    H233623   5.886   4.647   3.493 -0.6363  1.6646 -0.7217
 4022TIP3   OH233624   2.905   2.287   0.044 -0.5658  0.0692 -0.2674
 4022TIP3    H133625   2.857   2.279   0.126 -0.3001  1.2365  0.0186
 4022TIP3    H233626   2.953   2.205   0.036 -0.5429 -0.0322  0.7812
 4023TIP3   OH233627   4.911   5.553   4.147  0.2983 -0.2601  0.0565
 4023TIP3    H133628   4.866   5.494   4.086  0.2017  1.0469 -1.1812
 4023TIP3    H233629   4.953   5.494   4.210  0.1487 -1.6529 -1.0870
 4024TIP3   OH233630   2.047   2.534   3.478 -0.1266  0.0397  0.4534
 4024TIP3    H133631   2.095   2.616   3.471  1.4063 -0.9852 -2.5272
 4024TIP3    H233632   2.103   2.477   3.531  0.2558 -0.0125 -0.0022
 4025TIP3   OH233633   6.298   6.893   1.319 -0.2110  0.2430 -0.2568
 4025TIP3    H133634   6.288   6.988   1.310 -0.2933  0.4243  1.3864
 4025TIP3    H233635   6.282   6.876   1.412  0.9200 -1.2438 -0.2957
 4026TIP3   OH233636   1.022   6.297   0.615 -0.6712 -0.1482  0.5421
 4026TIP3    H133637   1.022   6.384   0.576 -1.0509  0.6218  2.1786
 4026TIP3    H233638   1.084   6.247   0.562  1.8661  1.9417  1.2963
 4027TIP3   OH233639   5.504   3.626   2.491  0.3356 -1.1365 -0.0707
 4027TIP3    H133640   5.499   3.695   2.558  0.3094 -2.2177  1.0924
 4027TIP3    H233641   5.553   3.666   2.419 -0.0240  0.2192  0.3966
 4028TIP3   OH233642   1.168   2.871   4.083  0.2473  0.4358  0.3005
 4028TIP3    H133643   1.221   2.839   4.155  1.0899  0.4182 -0.3099
 4028TIP3    H233644   1.219   2.943   4.045  0.4234 -0.3757 -1.0575
 4029TIP3   OH233645   0.639   2.887   0.986  0.1026 -0.1721  0.4688
 4029TIP3    H133646   0.727   2.872   0.951 -0.4351  0.5396 -1.3287
 4029TIP3    H233647   0.581   2.844   0.923 -0.9053  0.8664  0.6626
 4030TIP3   OH233648   5.805   2.990   2.987  0.4928  0.5520  0.0339
 4030TIP3    H133649   5.871   3.019   3.050  1.7592 -1.4187 -0.3061
 4030TIP3    H233650   5.854   2.946   2.918 -0.9969  1.2958 -1.5679
 4031TIP3   OH233651   4.046   3.897   0.510 -0.0866 -0.2163  0.0901
 4031TIP3    H133652   4.055   3.811   0.468 -1.1696 -0.4147  0.2585
 4031TIP3    H233653   4.045   3.878   0.604  1.7704  0.1824  0.2461
 4032TIP3   OH233654   5.947   0.905   1.252  0.0146 -0.1360 -0.5712
 4032TIP3    H133655   5.944   0.890   1.347 -3.3539 -0.4805 -0.6151
 4032TIP3    H233656   5.902   0.989   1.240 -1.5555 -1.1202 -1.9674
 4033TIP3   OH233657   1.266   3.835   2.166  0.7485 -0.1145  0.0468
 4033TIP3    H133658   1.342   3.788   2.132  1.2443  0.8341 -0.1831
 4033TIP3    H233659   1.285   3.850   2.258  0.0444 -1.4090  0.4330
 4034TIP3   OH233660   5.613   4.345   1.988  0.4515  0.5482 -0.2223
 4034TIP3    H133661   5.674   4.334   2.061  2.1676  1.7209 -1.4162
 4034TIP3    H233662   5.542   4.399   2.024  1.0739  0.7833  0.6875
 4035TIP3   OH233663   3.266   6.258   3.999 -0.8978 -0.7408  0.4408
 4035TIP3    H133664   3.350   6.220   4.023 -0.3192  1.7392  2.8498
 4035TIP3    H233665   3.273   6.274   3.905  0.5262 -2.3461  0.2235
 4036TIP3   OH233666   5.044   3.766   3.257 -0.1406  0.0666  0.2106
 4036TIP3    H133667   4.988   3.837   3.288  0.1661 -0.5262  2.3017
 4036TIP3    H233668   5.133   3.799   3.271  0.0241 -0.0234 -0.5896
 4037TIP3   OH233669   1.081   5.113   1.383  0.2482  0.0606  0.2349
 4037TIP3    H133670   1.056   5.035   1.333  0.0379  0.2188  0.0923
 4037TIP3    H233671   1.143   5.159   1.326 -1.5486  1.3194 -0.8055
 4038TIP3   OH233672   5.466   0.052   3.242  0.0931 -0.4813 -0.2439
 4038TIP3    H133673   5.535   0.113   3.270 -0.0027 -0.1687 -0.6682
 4038TIP3    H233674   5.408   0.106   3.189  0.1417 -1.0067 -0.8377
 4039TIP3   OH233675   5.546   4.360   3.759  0.5984  0.3876  0.0500
 4039TIP3    H133676   5.467   4.311   3.779  0.7437  0.3477  0.5452
 4039TIP3    H233677   5.587   4.312   3.687  0.1862  0.3967 -0.1928
 4040TIP3   OH233678   4.432   6.354   2.015  0.2340  0.4544  0.1610
 4040TIP3    H133679   4.461   6.368   1.924  0.8802 -1.2213  0.0737
 4040TIP3    H233680   4.484   6.279   2.045 -2.3963 -1.2698  0.7721
 4041TIP3   OH233681   3.645   1.121   0.599 -0.2045  0.2234 -0.0184
 4041TIP3    H133682   3.720   1.126   0.658  0.8196  0.6146 -1.3261
 4041TIP3    H233683   3.608   1.209   0.600 -1.1315 -0.1509  1.2004
 4042TIP3   OH233684   3.859   1.189   2.109 -0.0462 -0.0604 -0.1516
 4042TIP3    H133685   3.948   1.212   2.083 -0.4564  2.4827  0.4587
 4042TIP3    H233686   3.815   1.167   2.027  0.5444  0.9725 -0.7670
 4043TIP3   OH233687   4.627   1.173   3.003  0.5197  0.0669 -0.6190
 4043TIP3    H133688   4.719   1.149   3.013  0.3386 -0.3862 -0.0217
 4043TIP3    H233689   4.580   1.120   3.067  0.0717  1.8444  0.6163
 4044TIP3   OH233690   4.308   2.779   0.759 -0.3091 -0.3891 -0.0564
 4044TIP3    H133691   4.270   2.816   0.679  0.7486  2.1528  0.5163
 4044TIP3    H233692   4.233   2.762   0.815 -0.9065  0.0321 -0.7046
 4045TIP3   OH233693   2.813   1.254   3.942 -0.3070  0.4060  0.0269
 4045TIP3    H133694   2.765   1.337   3.945  0.7827  1.0300  1.7971
 4045TIP3    H233695   2.879   1.266   3.874  0.0400  1.1449  0.4778
 4046TIP3   OH233696   3.840   4.392   4.446 -0.4198  0.2937 -0.6118
 4046TIP3    H133697   3.818   4.482   4.424 -1.3056 -0.1288 -1.5794
 4046TIP3    H233698   3.904   4.365   4.380  0.6964  0.5594  0.3541
 4047TIP3   OH233699   0.537   3.005   2.703 -0.2785 -0.4525 -0.4863
 4047TIP3    H133700   0.548   2.913   2.680  0.7999  0.1115 -2.5226
 4047TIP3    H233701   0.622   3.031   2.739 -0.3538 -0.1056 -0.5551
 4048TIP3   OH233702   2.441   4.655   1.417 -0.5722  0.1408 -0.2162
 4048TIP3    H133703   2.452   4.625   1.327 -0.0399 -0.8779  0.1791
 4048TIP3    H233704   2.421   4.749   1.409  1.4915  0.5415 -1.3244
 4049TIP3   OH233705   5.098   4.328   3.465  0.1386 -0.6004 -0.3792
 4049TIP3    H133706   5.088   4.396   3.399 -1.2750  0.0645  0.4604
 4049TIP3    H233707   5.149   4.370   3.535  3.0185 -1.7885 -1.6419
 4050TIP3   OH233708   1.029   1.380   0.469 -0.3742 -0.3822 -0.1932
 4050TIP3    H133709   1.093   1.416   0.530 -2.3648 -0.6310  2.2244
 4050TIP3    H233710   0.962   1.448   0.461 -0.6602 -0.7736 -1.2756
 4051TIP3   OH233711   3.718   2.264   4.591 -0.5805 -0.3835 -0.2164
 4051TIP3    H133712   3.666   2.284   4.669  1.1155  0.4772  0.7641
 4051TIP3    H233713   3.803   2.304   4.609  0.7888 -2.6337 -1.2781
 4052TIP3   OH233714   1.756   4.622   3.197  0.2331  0.2937 -0.0545
 4052TIP3    H133715   1.778   4.715   3.189 -1.3447  0.6903  0.0190
 4052TIP3    H233716   1.841   4.578   3.200  1.0187  1.5617 -1.9224
 4053TIP3   OH233717   4.094   2.860   3.579  0.1687  0.1156  0.1276
 4053TIP3    H133718   4.119   2.951   3.593 -0.5492  0.3425 -0.0085
 4053TIP3    H233719   4.009   2.865   3.534  0.5555 -0.6214 -0.7088
 4054TIP3   OH233720   5.543   3.742   0.801  0.7951  0.0616 -0.5715
 4054TIP3    H133721   5.630   3.782   0.796  0.7519  0.0366 -2.4501
 4054TIP3    H233722   5.534   3.694   0.718 -0.9645 -0.0196 -0.3758
 4055TIP3   OH233723   5.274   1.802   2.714 -0.8137 -0.1297  0.0813
 4055TIP3    H133724   5.238   1.741   2.649 -3.0037  1.9351 -0.7738
 4055TIP3    H233725   5.265   1.888   2.674  1.4803  0.9054  1.5687
 4056TIP3   OH233726   0.232   6.391   0.412 -0.1979  0.0604 -0.1799
 4056TIP3    H133727   0.278   6.406   0.330 -0.7604  2.2388 -0.1480
 4056TIP3    H233728   0.141   6.413   0.394 -0.8820 -2.0994  0.3395
 4057TIP3   OH233729   1.585   5.433   1.423 -0.4213  0.1560 -0.2114
 4057TIP3    H133730   1.542   5.515   1.447  1.2197  0.8296  0.6267
 4057TIP3    H233731   1.599   5.388   1.507  0.5801  0.0352 -0.4245
 4058TIP3   OH233732   4.290   0.356   4.169 -0.0884  1.0119 -0.3371
 4058TIP3    H133733   4.339   0.432   4.137 -1.4211  1.1790 -2.1106
 4058TIP3    H233734   4.201   0.388   4.183 -0.5127 -0.0674 -0.4301
 4059TIP3   OH233735   5.846   1.960   4.556  0.1193  0.4891  0.0549
 4059TIP3    H133736   5.874   1.880   4.510 -0.4726  1.2234 -1.6536
 4059TIP3    H233737   5.902   2.029   4.520 -0.8349  1.2107 -0.0664
 4060TIP3   OH233738   6.859   3.133   0.739  0.4736 -0.8611 -0.0968
 4060TIP3    H133739   6.802   3.063   0.706  1.3456 -1.0955 -1.1806
 4060TIP3    H233740   6.943   3.117   0.695  0.1802  1.9948 -1.9044
 4061TIP3   OH233741   2.937   6.075   1.961  0.0245 -0.5731  0.2217
 4061TIP3    H133742   2.974   6.128   2.032 -1.6886 -0.6936  1.2517
 4061TIP3    H233743   2.851   6.112   1.945  0.0916 -1.0232 -1.3053
 4062TIP3   OH233744   6.259   5.783   2.963 -0.3763 -0.0002  0.0269
 4062TIP3    H133745   6.292   5.727   3.033  0.4918  0.7321  0.2205
 4062TIP3    H233746   6.180   5.739   2.932  0.6713 -1.7054 -0.3189
 4063TIP3   OH233747   2.712   5.794   1.722  0.2535  0.0420  0.4785
 4063TIP3    H133748   2.694   5.803   1.629  1.0964 -1.4859  0.1393
 4063TIP3    H233749   2.635   5.752   1.758  0.8997 -1.6267 -0.0058
 4064TIP3   OH233750   1.048   6.524   0.439  0.0759 -0.0964  0.3185
 4064TIP3    H133751   1.104   6.591   0.400  0.5029  0.3718  1.7070
 4064TIP3    H233752   0.988   6.500   0.368  0.1666  1.4592 -0.3404
 4065TIP3   OH233753   6.805   4.236   3.067  0.3277 -0.0048 -0.4917
 4065TIP3    H133754   6.871   4.259   3.001  2.2083  1.4801  1.7490
 4065TIP3    H233755   6.839   4.272   3.149 -1.9190 -1.6915  1.3317
 4066TIP3   OH233756   0.672   0.305   0.563 -0.1696  0.5874 -0.0598
 4066TIP3    H133757   0.705   0.343   0.644 -0.7267 -1.6888  1.3252
 4066TIP3    H233758   0.592   0.260   0.589 -0.9153  0.6619 -2.0957
 4067TIP3   OH233759   2.291   3.049   4.791 -0.8145  0.2850 -0.2988
 4067TIP3    H133760   2.213   2.995   4.779 -1.7748  1.1140  1.7770
 4067TIP3    H233761   2.354   3.015   4.727 -1.3753 -3.2109  0.8051
 4068TIP3   OH233762   3.708   2.159   3.516 -0.6795 -0.3828  0.3214
 4068TIP3    H133763   3.743   2.242   3.547 -1.4414  0.3069 -0.6029
 4068TIP3    H233764   3.658   2.182   3.437 -2.7140 -1.3762  1.2378
 4069TIP3   OH233765   0.465   2.795   0.801  0.1361 -0.3627  0.0266
 4069TIP3    H133766   0.483   2.854   0.728 -0.7566 -2.7356 -2.3167
 4069TIP3    H233767   0.369   2.793   0.806  0.1486 -1.4181  0.1553
 4070TIP3   OH233768   1.195   3.312   1.656  0.4949 -1.0506  0.0162
 4070TIP3    H133769   1.271   3.292   1.602  0.3401 -0.0678 -0.6037
 4070TIP3    H233770   1.134   3.356   1.597 -0.2204 -1.1014  0.6935
 4071TIP3   OH233771   0.818   2.297   0.977 -0.5234  0.0386  0.1053
 4071TIP3    H133772   0.747   2.280   0.915 -1.1637  0.3338  0.7384
 4071TIP3    H233773   0.850   2.211   1.002 -0.7280 -0.1008 -0.1157
 4072TIP3   OH233774   0.826   1.548   2.374  0.4235 -0.3005 -0.5041
 4072TIP3    H133775   0.734   1.547   2.400  0.8038 -1.6729  0.9437
 4072TIP3    H233776   0.862   1.625   2.419  0.0653  0.0604 -0.8259
 4073TIP3   OH233777   3.274   4.769   2.839 -0.2873  0.3173 -0.0889
 4073TIP3    H133778   3.222   4.837   2.883  3.0633  2.1447  1.4398
 4073TIP3    H233779   3.280   4.699   2.904 -0.6489  0.1960 -0.1841
 4074TIP3   OH233780   1.108   3.055   0.562 -0.5143  0.3405  0.1773
 4074TIP3    H133781   1.136   3.140   0.527  0.2154 -0.0627 -0.2248
 4074TIP3    H233782   1.033   3.031   0.507 -1.3245  1.1424  0.8840
 4075TIP3   OH233783   4.749   5.732   4.256 -0.6589  0.2559  0.4795
 4075TIP3    H133784   4.754   5.810   4.200  1.6754  1.0637  1.6650
 4075TIP3    H233785   4.823   5.678   4.227 -0.4599 -0.1095  1.6343
 4076TIP3   OH233786   2.290   4.371   4.572 -0.1890  0.2165 -0.0306
 4076TIP3    H133787   2.310   4.279   4.590  1.6756  0.1684 -2.0294
 4076TIP3    H233788   2.256   4.371   4.483 -1.0339  1.3967  0.2740
 4077TIP3   OH233789   0.795   6.821   0.920  0.2351  0.2302  0.0574
 4077TIP3    H133790   0.705   6.787   0.916  0.1676 -0.4984  4.0534
 4077TIP3    H233791   0.838   6.783   0.843 -1.7771 -3.1475  0.3894
 4078TIP3   OH233792   2.920   0.771   0.719 -0.0523  0.0743 -0.4386
 4078TIP3    H133793   2.875   0.722   0.788 -0.8583  0.6864 -0.5206
 4078TIP3    H233794   2.859   0.771   0.645  0.0053  1.0634 -0.4967
 4079TIP3   OH233795   4.356   6.373   4.578  0.5952  0.1879  0.2850
 4079TIP3    H133796   4.317   6.300   4.529 -1.8296  0.1675  2.0246
 4079TIP3    H233797   4.294   6.445   4.567 -0.1557  0.1433  3.2445
 4080TIP3   OH233798   2.731   6.601   4.666 -0.1642 -0.0257 -0.1517
 4080TIP3    H133799   2.721   6.690   4.697 -1.5233 -0.2797  0.2008
 4080TIP3    H233800   2.817   6.599   4.625 -0.2885  1.5479 -0.5272
 4081TIP3   OH233801   3.008   2.133   0.814  0.1675  0.0611 -0.4217
 4081TIP3    H133802   2.950   2.191   0.862 -1.0810  0.8078 -2.6705
 4081TIP3    H233803   3.018   2.056   0.871 -1.0825  0.9351  1.0507
 4082TIP3   OH233804   5.834   2.324   2.906  0.2828  0.2075  0.0295
 4082TIP3    H133805   5.821   2.405   2.855 -1.7097 -0.2429 -0.2546
 4082TIP3    H233806   5.916   2.289   2.873  0.4593  1.3846 -0.8780
 4083TIP3   OH233807   2.295   2.911   4.222  0.3430 -0.2689  0.4899
 4083TIP3    H133808   2.382   2.873   4.236 -0.5457 -2.7323 -0.2131
 4083TIP3    H233809   2.255   2.856   4.154 -1.3643  1.5125 -0.0454
 4084TIP3   OH233810   6.246   6.041   0.546 -0.0187 -0.1979  0.6539
 4084TIP3    H133811   6.171   6.052   0.489  1.0630 -0.6640 -0.9317
 4084TIP3    H233812   6.320   6.074   0.496  0.9812 -0.6213  1.7814
 4085TIP3   OH233813   1.291   6.328   2.731 -0.1614  0.0857  0.4637
 4085TIP3    H133814   1.297   6.234   2.743  0.3115 -0.0704 -0.8677
 4085TIP3    H233815   1.317   6.365   2.816  0.1324 -0.9673  0.8376
 4086TIP3   OH233816   3.657   4.679   2.236 -0.1403  0.5662  0.4299
 4086TIP3    H133817   3.747   4.679   2.269 -0.0923 -0.1765  0.3177
 4086TIP3    H233818   3.604   4.664   2.314 -0.2184  1.6249  0.5954
 4087TIP3   OH233819   4.106   3.024   0.893 -0.2315  0.8364  0.6211
 4087TIP3    H133820   4.166   3.075   0.839  2.0128 -0.7400  1.5041
 4087TIP3    H233821   4.074   2.955   0.834 -0.6973  1.3055  0.3196
 4088TIP3   OH233822   6.738   0.322   1.101 -0.5808 -0.0538 -0.2134
 4088TIP3    H133823   6.756   0.370   1.182  1.5326 -2.3140  0.8007
 4088TIP3    H233824   6.669   0.261   1.124  1.6068 -2.3320  0.7231
 4089TIP3   OH233825   0.220   1.301   3.657 -0.0238 -0.0318  0.1857
 4089TIP3    H133826   0.287   1.265   3.714  0.8940 -4.8577 -3.3005
 4089TIP3    H233827   0.139   1.296   3.709  1.2149 -0.9839  2.1475
 4090TIP3   OH233828   1.476   4.794   3.438 -0.4998 -0.3873 -0.2902
 4090TIP3    H133829   1.481   4.859   3.369  1.3187 -0.2811 -0.1083
 4090TIP3    H233830   1.402   4.738   3.414 -0.4926  0.2153 -1.7834
 4091TIP3   OH233831   0.805   3.568   4.634 -0.2126  0.5626  0.2584
 4091TIP3    H133832   0.739   3.637   4.643 -2.2208 -0.7330 -2.8835
 4091TIP3    H233833   0.759   3.497   4.588  2.5827 -1.6729  0.6542
 4092TIP3   OH233834   1.136   1.282   2.951 -0.3777 -0.0551  0.1928
 4092TIP3    H133835   1.066   1.321   3.003 -0.3674 -0.0278  0.1864
 4092TIP3    H233836   1.178   1.357   2.908 -1.1031 -0.1766 -0.7505
 4093TIP3   OH233837   4.973   1.698   0.286 -0.2354  0.1212 -0.6269
 4093TIP3    H133838   5.027   1.623   0.262  1.6116  1.2381 -0.1527
 4093TIP3    H233839   4.894   1.659   0.324 -0.6714 -1.5876 -3.0614
 4094TIP3   OH233840   2.827   4.028   2.646  0.6397  0.3014  0.6841
 4094TIP3    H133841   2.866   4.060   2.564  0.4713  0.2267  0.5740
 4094TIP3    H233842   2.738   4.062   2.645  0.4999 -0.0609  0.6276
 4095TIP3   OH233843   0.050   6.529   2.966  0.2655  0.1862  0.0214
 4095TIP3    H133844   0.027   6.599   2.905  1.6641  0.3848 -0.3038
 4095TIP3    H233845   0.123   6.563   3.016 -0.3726 -0.2706  1.3186
 4096TIP3   OH233846   0.602   1.644   2.601 -0.3949  0.0123 -0.2224
 4096TIP3    H133847   0.676   1.704   2.594 -1.1854  1.0596  0.0207
 4096TIP3    H233848   0.530   1.691   2.557 -1.3381 -0.2342  1.0085
 4097TIP3   OH233849   1.383   0.621   0.665 -1.2514  0.0262 -0.5679
 4097TIP3    H133850   1.432   0.550   0.707 -0.5701  0.1905 -1.0652
 4097TIP3    H233851   1.337   0.580   0.592  1.1541  0.4725 -2.4528
 4098TIP3   OH233852   0.839   1.256   8.561 -0.1578  0.2668  0.1022
 4098TIP3    H133853   0.926   1.272   8.598  0.4959  2.7049 -2.1341
 4098TIP3    H233854   0.855   1.249   8.467 -2.3502  0.3128 -0.3150
 4099TIP3   OH233855   3.160   0.211   0.402 -0.3556  0.0885 -0.0908
 4099TIP3    H133856   3.174   0.149   0.330 -2.2652 -2.3874  1.5073
 4099TIP3    H233857   3.169   0.158   0.481 -3.0355  1.5990  1.3661
 4100TIP3   OH233858   5.664   1.066   2.100 -0.2038  0.4771  0.8419
 4100TIP3    H133859   5.615   1.028   2.027  0.1819  0.5025  0.5704
 4100TIP3    H233860   5.706   1.143   2.062  1.4951 -0.5286  0.6223
 4101TIP3   OH233861   0.523   6.682   1.969 -0.0080 -0.0872 -0.3274
 4101TIP3    H133862   0.566   6.766   1.988  0.7786 -0.3335 -0.9808
 4101TIP3    H233863   0.470   6.664   2.047 -0.5815  1.2604 -0.3773
 4102TIP3   OH233864   2.513   1.512   3.846  0.0700  0.2842 -0.2486
 4102TIP3    H133865   2.444   1.482   3.905 -0.0907  1.8063  0.3693
 4102TIP3    H233866   2.520   1.442   3.781 -0.1581 -1.1678  1.2154
 4103TIP3   OH233867   5.378   4.712   2.670  0.4596  0.6825 -0.0636
 4103TIP3    H133868   5.287   4.740   2.668  0.0462 -0.5866  0.0145
 4103TIP3    H233869   5.375   4.621   2.700  1.7005  0.4395 -0.5799
 4104TIP3   OH233870   2.795   6.286   2.609  0.8437 -0.2896 -0.0063
 4104TIP3    H133871   2.770   6.208   2.659  0.5832 -1.5472 -1.9460
 4104TIP3    H233872   2.878   6.262   2.568  1.9854  1.3891  1.1992
 4105TIP3   OH233873   0.860   1.261   2.599 -0.6356  0.5147 -0.2749
 4105TIP3    H133874   0.802   1.317   2.652  0.0543  2.3643 -1.3805
 4105TIP3    H233875   0.936   1.316   2.581  0.5541 -1.1722 -0.5739
 4106TIP3   OH233876   1.303   0.652   4.131 -0.0044 -0.5390 -0.5759
 4106TIP3    H133877   1.356   0.715   4.082  0.0514 -0.5731 -0.5600
 4106TIP3    H233878   1.335   0.567   4.101  1.1639 -0.5850  0.7117
 4107TIP3   OH233879   3.182   4.209   3.968  0.1106  0.2167  0.2601
 4107TIP3    H133880   3.224   4.123   3.965  0.5663  0.4399  0.0056
 4107TIP3    H233881   3.101   4.195   4.016 -0.6007 -0.6939 -1.1235
 4108TIP3   OH233882   5.390   0.304   3.078  0.6936  0.2530  0.4872
 4108TIP3    H133883   5.376   0.392   3.112  1.2934  0.1752  0.9509
 4108TIP3    H233884   5.308   0.282   3.033 -0.1223  0.3519  1.8715
 4109TIP3   OH233885   1.413   2.876   0.836 -0.0130  0.2353 -0.2892
 4109TIP3    H133886   1.341   2.861   0.775  0.4859  2.8241 -1.6644
 4109TIP3    H233887   1.387   2.952   0.887  1.3293  0.6350 -0.1611
 4110TIP3   OH233888   0.941   1.637   3.252  0.6011 -0.0523  0.0572
 4110TIP3    H133889   0.937   1.623   3.347 -0.0468 -2.4686 -0.2848
 4110TIP3    H233890   0.903   1.724   3.240  0.5193  0.2313  1.9916
 4111TIP3   OH233891   5.853   2.338   1.704  0.0212  0.3696  0.3204
 4111TIP3    H133892   5.909   2.270   1.667 -1.9772 -1.3359  0.2343
 4111TIP3    H233893   5.910   2.386   1.765  1.7337 -0.7804 -0.3057
 4112TIP3   OH233894   4.900   1.109   4.504 -0.6391  0.6144  0.1464
 4112TIP3    H133895   4.806   1.125   4.508 -0.6055  1.4643 -1.4932
 4112TIP3    H233896   4.940   1.192   4.531 -0.3373  0.0918  1.3542
 4113TIP3   OH233897   1.080   3.276   0.878  0.8326  0.2296 -0.0107
 4113TIP3    H133898   0.994   3.243   0.903  1.2671 -1.3868 -0.5188
 4113TIP3    H233899   1.066   3.324   0.796  0.8777 -3.2745 -2.2783
 4114TIP3   OH233900   4.232   6.210   4.896  0.0714  0.5645  0.2417
 4114TIP3    H133901   4.314   6.173   4.862 -0.3284 -0.1120 -0.0157
 4114TIP3    H233902   4.244   6.305   4.890  0.5595  0.4705 -0.4766
 4115TIP3   OH233903   5.179   6.339   2.155 -0.6776  0.3703  0.4410
 4115TIP3    H133904   5.192   6.324   2.061  1.4183 -0.6159  0.8383
 4115TIP3    H233905   5.246   6.286   2.197 -0.3102  2.2791  2.4300
 4116TIP3   OH233906   3.707   2.716   2.500 -0.4403  0.0564  0.1709
 4116TIP3    H133907   3.766   2.693   2.428  0.9746 -0.6039  1.4839
 4116TIP3    H233908   3.753   2.686   2.579 -1.0692  2.4094  1.5260
 4117TIP3   OH233909   4.464   1.207   2.668 -0.2399 -0.2348 -0.1258
 4117TIP3    H133910   4.532   1.274   2.679  0.7308 -0.7713 -2.3619
 4117TIP3    H233911   4.502   1.127   2.705 -0.7115  0.0077  0.9397
 4118TIP3   OH233912   0.855   1.585   8.493  0.5104  0.2606 -0.0277
 4118TIP3    H133913   0.929   1.525   8.483  0.6944  0.3706  0.6287
 4118TIP3    H233914   0.777   1.530   8.487  0.6929 -0.1790  1.4490
 4119TIP3   OH233915   2.811   6.847   3.127 -0.3896 -0.1462  0.1504
 4119TIP3    H133916   2.761   6.902   3.188  0.6363  0.7389  0.2174
 4119TIP3    H233917   2.871   6.799   3.183  0.1290  0.2098 -0.0973
 4120TIP3   OH233918   5.184   4.996   0.796  0.1668 -0.4664 -0.8422
 4120TIP3    H133919   5.140   4.941   0.731  1.4892  0.7290 -2.8566
 4120TIP3    H233920   5.277   4.978   0.782  0.5900  1.7431 -1.1032
 4121TIP3   OH233921   5.255   1.124   1.659 -0.2507  0.2908 -0.7624
 4121TIP3    H133922   5.275   1.186   1.730 -0.3945 -0.5649  0.0517
 4121TIP3    H233923   5.325   1.138   1.595  0.4973  0.3587  0.0413
 4122TIP3   OH233924   0.071   0.353   3.099  0.0420  0.0767 -0.5875
 4122TIP3    H133925   0.106   0.354   3.188 -1.0407 -0.9139 -0.1287
 4122TIP3    H233926   0.130   0.410   3.049  0.4619  0.9058  0.8271
 4123TIP3   OH233927   2.821   3.571   3.849  0.3482 -0.3670  0.4920
 4123TIP3    H133928   2.851   3.489   3.887  0.3766  0.1051  1.5178
 4123TIP3    H233929   2.725   3.567   3.854  0.3100 -0.7343 -0.3391
 4124TIP3   OH233930   5.548   5.112   1.573  0.6339 -0.0260 -0.5364
 4124TIP3    H133931   5.590   5.091   1.489  0.7708 -0.1658 -0.4335
 4124TIP3    H233932   5.572   5.039   1.630  3.0205  1.4424  0.5042
 4125TIP3   OH233933   0.714   4.155   2.030 -0.2278 -0.2571  0.0571
 4125TIP3    H133934   0.731   4.190   1.943 -0.3880  0.7789  0.4184
 4125TIP3    H233935   0.653   4.218   2.069 -1.9154 -1.8451  0.1402
 4126TIP3   OH233936   3.170   5.600   3.302 -0.7317 -0.2889  0.3373
 4126TIP3    H133937   3.249   5.601   3.356 -0.5907 -1.4749  0.1742
 4126TIP3    H233938   3.181   5.675   3.243  0.6349 -0.8372 -0.1676
 4127TIP3   OH233939   0.348   0.315   3.807  0.5241 -0.0143 -0.1772
 4127TIP3    H133940   0.368   0.350   3.894 -0.2112  0.2205 -0.0944
 4127TIP3    H233941   0.299   0.235   3.824 -0.2069  0.3858 -0.3706
 4128TIP3   OH233942   4.049   0.495   3.330  0.1407  0.0029  0.1823
 4128TIP3    H133943   3.975   0.525   3.276 -1.1024 -2.9686  0.0224
 4128TIP3    H233944   4.014   0.493   3.419  0.9204  1.1447  0.5215
 4129TIP3   OH233945   3.391   6.062   0.829 -0.1568 -0.5492  0.1241
 4129TIP3    H133946   3.385   5.996   0.898 -2.2373 -0.6395 -0.0766
 4129TIP3    H233947   3.471   6.038   0.780 -0.1188 -2.0913  0.8783
 4130TIP3   OH233948   3.133   0.533   4.351  1.1061 -0.6771  0.0580
 4130TIP3    H133949   3.116   0.505   4.261 -0.8735  0.4637  0.0048
 4130TIP3    H233950   3.098   0.462   4.405  1.8218 -1.1271 -0.0622
 4131TIP3   OH233951   3.718   2.275   4.052 -0.4413 -0.2956  0.3864
 4131TIP3    H133952   3.729   2.308   4.141 -0.7870  0.3979  0.1749
 4131TIP3    H233953   3.705   2.353   3.999  0.3325 -0.6618 -0.3630
 4132TIP3   OH233954   4.588   1.542   3.643  0.1301 -0.2522  0.2577
 4132TIP3    H133955   4.645   1.481   3.596 -1.4315 -1.1717 -0.5014
 4132TIP3    H233956   4.601   1.521   3.735  0.8213 -0.6176  0.0835
 4133TIP3   OH233957   3.920   5.633   1.123  0.3269 -0.3495  0.0967
 4133TIP3    H133958   3.839   5.589   1.149  0.8803 -0.7866  1.1040
 4133TIP3    H233959   3.902   5.726   1.140  0.7142 -0.6215  2.2672
 4134TIP3   OH233960   5.307   0.571   3.714 -0.2214 -0.1416  0.1973
 4134TIP3    H133961   5.383   0.565   3.771  0.5167 -0.4171 -0.7965
 4134TIP3    H233962   5.336   0.533   3.631 -0.4908  2.4616 -1.1684
 4135TIP3   OH233963   0.249   2.458   3.074  0.1267  0.0876 -0.0620
 4135TIP3    H133964   0.339   2.461   3.040  0.5453 -2.0086  0.7406
 4135TIP3    H233965   0.194   2.465   2.996  1.0027 -0.2584 -0.7338
 4136TIP3   OH233966   0.825   6.785   3.805  0.4122  0.6095 -0.2685
 4136TIP3    H133967   0.886   6.843   3.760  3.0995 -1.7718 -0.0535
 4136TIP3    H233968   0.801   6.720   3.739  1.3628 -0.7479  0.6683
 4137TIP3   OH233969   1.599   2.451   4.344 -0.2101  0.2650  0.0799
 4137TIP3    H133970   1.651   2.496   4.277 -1.2627 -0.6501 -1.3987
 4137TIP3    H233971   1.598   2.513   4.417 -0.2353  1.9589 -1.2706
 4138TIP3   OH233972   2.954   3.956   3.146 -0.4286 -0.3443 -0.1202
 4138TIP3    H133973   2.940   3.864   3.124 -0.8288 -0.1855 -0.5469
 4138TIP3    H233974   2.949   4.002   3.062 -1.6567  0.2289  0.2393
 4139TIP3   OH233975   0.457   5.380   2.135  0.1965 -0.2706  0.1059
 4139TIP3    H133976   0.427   5.305   2.185  2.2725 -1.2172  0.0226
 4139TIP3    H233977   0.377   5.417   2.097 -1.0875 -1.2326  1.7378
 4140TIP3   OH233978   2.433   4.074   4.323  0.0427 -0.2878 -0.3571
 4140TIP3    H133979   2.414   4.101   4.413  0.6992  0.0157 -0.3016
 4140TIP3    H233980   2.519   4.112   4.304  0.1204 -0.7392 -0.9522
 4141TIP3   OH233981   4.508   2.050   3.304 -0.1658  0.6717  0.7258
 4141TIP3    H133982   4.587   2.070   3.354 -0.4803  1.6667  0.8439
 4141TIP3    H233983   4.441   2.033   3.370  0.6646 -3.8244  0.7809
 4142TIP3   OH233984   4.650   4.445   1.060 -0.3007  0.1630 -0.0158
 4142TIP3    H133985   4.717   4.455   1.128  0.7790 -0.6318 -0.9138
 4142TIP3    H233986   4.649   4.530   1.016  0.5699 -0.0030 -0.3749
 4143TIP3   OH233987   5.414   3.294   1.336  0.1022 -0.4853 -0.0520
 4143TIP3    H133988   5.390   3.377   1.294  0.2771  0.6604  1.9864
 4143TIP3    H233989   5.496   3.269   1.294 -0.5504 -0.2824 -1.5214
 4144TIP3   OH233990   2.026   0.539   1.737 -0.2420  0.0189 -0.3056
 4144TIP3    H133991   2.074   0.472   1.689  0.1510  0.7069 -0.8954
 4144TIP3    H233992   2.092   0.604   1.761  0.0298 -1.3648  3.1766
 4145TIP3   OH233993   5.355   5.814   1.364 -0.3878 -0.3762 -0.1982
 4145TIP3    H133994   5.312   5.817   1.449 -1.4940  0.6240 -0.7591
 4145TIP3    H233995   5.284   5.803   1.301  0.2651  0.3237 -1.0891
 4146TIP3   OH233996   2.714   4.241   3.725  0.6726 -0.1038 -0.4511
 4146TIP3    H133997   2.718   4.148   3.699 -0.6464  0.1456 -1.6538
 4146TIP3    H233998   2.664   4.283   3.655  0.0594  1.2777  0.7789
 4147TIP3   OH233999   1.683   2.132   3.376  0.4459  0.3032  0.0082
 4147TIP3    H134000   1.737   2.209   3.356  0.5244  0.7047  1.6677
 4147TIP3    H234001   1.720   2.096   3.456 -1.4563  0.3131  0.9429
 4148TIP3   OH234002   5.243   3.664   0.533  0.5896 -0.0999  0.0070
 4148TIP3    H134003   5.293   3.735   0.493  0.4706 -0.1153 -0.1697
 4148TIP3    H234004   5.179   3.708   0.589 -0.6513  0.0057 -1.4410
 4149TIP3   OH234005   1.184   2.288   3.827  0.4678  0.2226 -0.1244
 4149TIP3    H134006   1.171   2.332   3.911 -0.7842 -2.0907  0.9883
 4149TIP3    H234007   1.266   2.239   3.837  0.4043  0.0760 -0.2980
 4150TIP3   OH234008   1.166   4.953   2.647  0.1018 -0.1931  0.0565
 4150TIP3    H134009   1.175   4.896   2.571 -2.2609 -1.8292  0.8528
 4150TIP3    H234010   1.143   5.038   2.611 -0.9367 -0.9314 -1.1300
 4151TIP3   OH234011   5.288   1.717   3.717  0.1656  0.2359  0.0317
 4151TIP3    H134012   5.315   1.635   3.760  2.9922  1.6337  1.2128
 4151TIP3    H234013   5.193   1.713   3.715  0.1339 -2.2246  1.8218
 4152TIP3   OH234014   5.304   6.518   1.641  0.3601 -0.1068  0.5388
 4152TIP3    H134015   5.250   6.587   1.603 -0.1419 -0.7386  0.0786
 4152TIP3    H234016   5.309   6.451   1.572  0.0225 -0.9615  1.3233
 4153TIP3   OH234017   4.292   6.071   4.602 -0.2026 -0.1385 -0.0802
 4153TIP3    H134018   4.345   6.127   4.658  0.7802  1.3788 -2.3837
 4153TIP3    H234019   4.330   5.983   4.613  0.9135  0.4014  0.5082
 4154TIP3   OH234020   6.463   0.726   4.233 -0.0059  0.9212 -0.1470
 4154TIP3    H134021   6.407   0.648   4.228 -1.1696  1.7090  0.1378
 4154TIP3    H234022   6.418   0.783   4.295  1.4741  1.3256  0.5922
 4155TIP3   OH234023   4.635   5.642   3.385  0.1454 -0.0989  0.2178
 4155TIP3    H134024   4.699   5.691   3.436 -1.3036  2.0268  0.1116
 4155TIP3    H234025   4.649   5.669   3.295 -0.9256  0.4856  0.2024
 4156TIP3   OH234026   3.523   6.808   1.489  0.2333  0.0704 -0.1178
 4156TIP3    H134027   3.437   6.824   1.449  0.1115 -2.6506 -1.1195
 4156TIP3    H234028   3.506   6.809   1.583 -0.7857  0.1237 -0.2864
 4157TIP3   OH234029   2.031   6.860   0.874 -0.4316 -0.8015 -0.3275
 4157TIP3    H134030   1.980   6.859   0.954 -0.6088 -1.5457 -0.4426
 4157TIP3    H234031   1.972   6.898   0.808 -1.5762 -3.3319 -0.9029
 4158TIP3   OH234032   4.820   1.034   3.435  0.0606  0.5144 -0.1834
 4158TIP3    H134033   4.734   1.075   3.432 -0.9180 -1.4149 -0.0314
 4158TIP3    H234034   4.802   0.940   3.425  2.2548  0.1699 -1.6504
 4159TIP3   OH234035   6.619   4.606   1.693 -0.5832 -0.2703  0.2633
 4159TIP3    H134036   6.605   4.515   1.719 -1.3238  0.1821  1.5495
 4159TIP3    H234037   6.606   4.606   1.599  2.6986 -2.0890 -0.3402
 4160TIP3   OH234038   2.181   5.845   0.919  0.3152 -0.1267  0.5751
 4160TIP3    H134039   2.167   5.884   1.005  2.1018  1.1092  0.3546
 4160TIP3    H234040   2.267   5.877   0.891  2.2691 -4.5794  0.5341
 4161TIP3   OH234041   0.604   2.213   0.453  0.0629  0.3780 -0.1890
 4161TIP3    H134042   0.516   2.250   0.465  0.2929  0.4118  1.6535
 4161TIP3    H234043   0.588   2.121   0.432 -0.4135  0.5982 -0.8525
 4162TIP3   OH234044   2.608   5.307   3.440  0.6402  0.7044  0.7877
 4162TIP3    H134045   2.656   5.248   3.498  0.3674 -1.4153 -1.0136
 4162TIP3    H234046   2.662   5.314   3.362 -0.6099  0.5933 -0.1177
 4163TIP3   OH234047   0.803   5.773   1.085 -0.4393  0.4414 -0.4392
 4163TIP3    H134048   0.813   5.699   1.026 -0.8025 -0.2262  0.3171
 4163TIP3    H234049   0.871   5.834   1.058 -0.1525 -0.1536 -1.0957
 4164TIP3   OH234050   3.009   6.241   2.437 -0.2250 -0.3147  0.5815
 4164TIP3    H134051   2.956   6.320   2.423  2.5706  1.7419  0.7011
 4164TIP3    H234052   2.966   6.174   2.385 -0.4609  2.3460 -3.0489
 4165TIP3   OH234053   2.624   4.416   2.245  0.5231 -0.0200  0.5843
 4165TIP3    H134054   2.674   4.444   2.169 -0.4484 -2.2257 -0.9540
 4165TIP3    H234055   2.689   4.399   2.313  1.5911 -0.0459 -0.4294
 4166TIP3   OH234056   2.332   6.051   8.503  0.0396 -0.3239 -1.0450
 4166TIP3    H134057   2.419   6.084   8.523 -1.4783  3.6192 -0.1797
 4166TIP3    H234058   2.316   5.983   8.569  0.5729  2.5060  2.2425
 4167TIP3   OH234059   6.583   4.939   1.342 -0.0750  0.0858 -0.3914
 4167TIP3    H134060   6.559   5.017   1.392  1.5357 -0.2563  1.0227
 4167TIP3    H234061   6.511   4.877   1.359 -0.7101  0.7927 -0.4453
 4168TIP3   OH234062   2.971   3.761   2.342 -0.5767  0.2514  0.4878
 4168TIP3    H134063   3.003   3.754   2.252  1.0061  0.0346  1.0446
 4168TIP3    H234064   2.974   3.672   2.376  0.2265  0.5454  1.2117
 4169TIP3   OH234065   0.778   6.589   2.527  0.2284 -0.3579  0.2142
 4169TIP3    H134066   0.698   6.572   2.478  0.6057 -2.6345  0.2648
 4169TIP3    H234067   0.749   6.638   2.604 -1.2577 -1.7182  0.5812
 4170TIP3   OH234068   0.035   2.552   3.488  0.5640  0.0140 -0.8401
 4170TIP3    H134069   0.067   2.461   3.486 -2.6452 -1.2660 -2.6312
 4170TIP3    H234070   0.024   2.574   3.395 -0.7826  1.3905 -0.3803
 4171TIP3   OH234071   3.244   4.772   3.841 -0.0782  0.7425 -0.0892
 4171TIP3    H134072   3.300   4.742   3.912  1.3343  0.7039 -1.1611
 4171TIP3    H234073   3.170   4.814   3.884 -0.5655 -1.4954  1.4111
 4172TIP3   OH234074   4.611   0.846   1.041  0.2969 -0.2583 -0.5377
 4172TIP3    H134075   4.561   0.875   1.117  0.9826  1.6498 -0.7560
 4172TIP3    H234076   4.559   0.774   1.004 -1.6659  0.8518 -0.0880
 4173TIP3   OH234077   3.930   0.937   4.122 -0.4748  0.0417  0.2281
 4173TIP3    H134078   3.897   0.895   4.201  0.8491 -1.0474  0.2535
 4173TIP3    H234079   3.863   1.000   4.097 -1.4777 -0.4906  1.5095
 4174TIP3   OH234080   0.842   1.502   4.468 -0.6602 -0.5434  0.1255
 4174TIP3    H134081   0.901   1.460   4.531 -0.2365  1.4428  1.1565
 4174TIP3    H234082   0.762   1.449   4.471 -0.1767 -1.2647  1.3675
 4175TIP3   OH234083   0.739   1.900   0.303  0.0456 -0.1108 -0.0567
 4175TIP3    H134084   0.646   1.907   0.282  0.4481  0.5856 -1.7244
 4175TIP3    H234085   0.782   1.888   0.218  1.2491 -3.6189  0.8519
 4176TIP3   OH234086   0.895   4.349   3.779  0.0463  0.4241 -0.0599
 4176TIP3    H134087   0.813   4.348   3.830 -0.4670  0.5176 -0.8574
 4176TIP3    H234088   0.941   4.269   3.805 -1.5849 -1.1167 -1.6108
 4177TIP3   OH234089   2.054   2.804   0.792  0.0676  0.1114  0.0503
 4177TIP3    H134090   2.124   2.739   0.781 -0.1827 -0.0024 -0.9022
 4177TIP3    H234091   2.097   2.879   0.832  1.1807  0.8060 -2.2951
 4178TIP3   OH234092   2.065   0.772   3.063  0.0905  0.1434  0.0935
 4178TIP3    H134093   2.030   0.767   2.974 -0.8594  0.9168  0.4085
 4178TIP3    H234094   2.059   0.682   3.095 -0.7484  0.0824 -0.1963
 4179TIP3   OH234095   6.066   0.850   1.989  0.4502 -0.2527  0.2017
 4179TIP3    H134096   6.080   0.890   1.903 -0.6458  0.5405  0.3566
 4179TIP3    H234097   6.119   0.902   2.049 -0.6305  0.7592  0.3348
 4180TIP3   OH234098   2.892   1.705   4.196 -0.2302  0.3168  0.4975
 4180TIP3    H134099   2.915   1.728   4.107  2.0034 -0.6710  0.7569
 4180TIP3    H234100   2.903   1.610   4.200  2.2794  0.5897  2.4513
 4181TIP3   OH234101   2.009   4.126   3.346  0.1156  0.6180  0.5350
 4181TIP3    H134102   1.925   4.160   3.315 -0.6808 -0.6861  1.2011
 4181TIP3    H234103   1.991   4.092   3.433  1.3022  0.1802  0.6290
 4182TIP3   OH234104   4.320   3.654   2.812  0.4741 -0.4675  0.0185
 4182TIP3    H134105   4.369   3.584   2.768  1.9746  0.2889  0.4200
 4182TIP3    H234106   4.266   3.692   2.743  0.6737 -1.1358 -0.5218
 4183TIP3   OH234107   6.565   2.822   2.329  0.1684  0.3234 -0.1796
 4183TIP3    H134108   6.516   2.753   2.375  0.1868  0.1049 -0.4857
 4183TIP3    H234109   6.657   2.798   2.343  0.1802  0.4937  0.0310
 4184TIP3   OH234110   6.029   6.487   1.693  0.2594  0.1739  0.2275
 4184TIP3    H134111   6.043   6.559   1.755  0.4393 -0.4458  0.9230
 4184TIP3    H234112   6.013   6.410   1.748 -2.0524  0.0574 -0.4904
 4185TIP3   OH234113   1.379   2.305   3.221  0.0467 -0.4149 -0.8118
 4185TIP3    H134114   1.400   2.213   3.205 -0.3090 -0.4545 -1.0545
 4185TIP3    H234115   1.461   2.343   3.252  0.0760 -0.9204 -0.2466
 4186TIP3   OH234116   5.609   1.105   0.370  0.1391  0.1644  0.2061
 4186TIP3    H134117   5.573   1.110   0.282 -1.9464  1.5059  1.0584
 4186TIP3    H234118   5.535   1.126   0.427  2.2732  3.4203  2.0982
 4187TIP3   OH234119   2.576   3.529   4.001 -0.7519 -0.1042 -0.7767
 4187TIP3    H134120   2.514   3.591   3.963 -0.1637  0.7041 -0.4698
 4187TIP3    H234121   2.603   3.571   4.083  0.7561 -0.0761 -1.2604
 4188TIP3   OH234122   0.374   1.980   3.408 -0.1558 -0.5879 -0.0248
 4188TIP3    H134123   0.375   2.047   3.476  0.9845 -1.8709  1.3080
 4188TIP3    H234124   0.406   2.024   3.330 -0.4535  0.6710  0.5355
 4189TIP3   OH234125   3.050   3.398   1.492 -0.2829  0.2445  0.6051
 4189TIP3    H134126   3.122   3.335   1.493 -0.2622  0.2694  0.7308
 4189TIP3    H234127   3.062   3.449   1.573 -1.2524 -0.6753  1.3480
 4190TIP3   OH234128   3.130   1.664   0.547 -0.3251  0.2794 -0.0442
 4190TIP3    H134129   3.219   1.684   0.519 -0.5345  0.9460 -0.2642
 4190TIP3    H234130   3.136   1.650   0.641 -0.0761  0.8786  0.0308
 4191TIP3   OH234131   2.314   4.331   1.268 -0.5986  0.1377  0.0862
 4191TIP3    H134132   2.386   4.276   1.238 -2.0936 -1.9211  0.0290
 4191TIP3    H234133   2.348   4.420   1.265  1.6681 -0.6937 -0.6452
 4192TIP3   OH234134   6.658   5.411   2.770 -0.1176  0.1776  0.2730
 4192TIP3    H134135   6.702   5.413   2.685 -0.1228  1.8590  0.2786
 4192TIP3    H234136   6.596   5.484   2.767  0.4624  0.7895  2.0245
 4193TIP3   OH234137   5.966   6.109   3.405 -0.2996 -0.3469  0.6906
 4193TIP3    H134138   5.896   6.139   3.347 -0.1817  0.0777  0.7595
 4193TIP3    H234139   5.950   6.016   3.417 -1.1024 -0.1734  1.0378
 4194TIP3   OH234140   3.280   0.372   8.570 -0.3059 -0.3219 -0.0446
 4194TIP3    H134141   3.355   0.347   8.623  1.2215  0.4589 -1.7179
 4194TIP3    H234142   3.206   0.322   8.606  0.8093 -0.4306  2.2116
 4195TIP3   OH234143   1.644   1.856   3.057  0.0241 -0.2570  0.1980
 4195TIP3    H134144   1.688   1.772   3.069 -0.2305 -0.6286 -1.3445
 4195TIP3    H234145   1.640   1.893   3.146  3.6703 -0.0644  0.4430
 4196TIP3   OH234146   6.494   1.049   3.699  0.9110  0.4946  0.4254
 4196TIP3    H134147   6.469   1.141   3.691  1.5200  0.5790 -0.7864
 4196TIP3    H234148   6.454   1.020   3.781 -1.6249  1.0756 -0.5199
 4197TIP3   OH234149   4.518   6.398   1.139  0.2567  0.1039  0.1574
 4197TIP3    H134150   4.505   6.307   1.166 -1.0357 -0.0865 -1.0108
 4197TIP3    H234151   4.452   6.413   1.071  2.6695  0.8676 -2.1870
 4198TIP3   OH234152   1.556   6.378   2.297  0.3577 -0.6785 -0.5891
 4198TIP3    H134153   1.622   6.443   2.272  1.3447 -1.5872 -0.4191
 4198TIP3    H234154   1.493   6.427   2.350  1.9150 -0.1452  0.8462
 4199TIP3   OH234155   1.426   5.866   2.137 -0.1548 -0.1152  0.8266
 4199TIP3    H134156   1.498   5.827   2.187 -0.0226 -1.7204 -0.4979
 4199TIP3    H234157   1.406   5.947   2.183  0.9414 -0.7666  2.5770
 4200TIP3   OH234158   1.748   3.837   3.355 -0.5407  0.2074  0.1421
 4200TIP3    H134159   1.697   3.914   3.379  0.3839  1.2294 -1.0519
 4200TIP3    H234160   1.732   3.774   3.426  0.6585  2.3819  2.4731
 4201TIP3   OH234161   4.276   0.841   1.767  0.4568 -0.5194  0.0922
 4201TIP3    H134162   4.262   0.751   1.739 -0.1133 -0.5396  0.4362
 4201TIP3    H234163   4.189   0.874   1.788  0.5721  0.3558 -0.7321
 4202TIP3   OH234164   1.825   1.389   4.070 -0.1867  0.2395 -0.5441
 4202TIP3    H134165   1.779   1.327   4.127  1.3810 -3.0503 -2.6144
 4202TIP3    H234166   1.866   1.451   4.131 -1.0791 -1.2484  1.7212
 4203TIP3   OH234167   5.019   3.029   3.135 -0.4593 -0.4273 -0.0964
 4203TIP3    H134168   5.066   2.973   3.198  0.0908  1.5955  1.3875
 4203TIP3    H234169   4.967   2.967   3.083 -0.9998 -2.2318  2.3807
 4204TIP3   OH234170   2.919   0.988   1.035  0.3484  0.2207 -0.5214
 4204TIP3    H134171   2.982   1.012   1.103 -1.1846 -1.6228  1.7083
 4204TIP3    H234172   2.972   0.979   0.956  2.4171  1.3096  0.6492
 4205TIP3   OH234173   3.809   3.547   2.260 -0.0277  0.0540 -0.0161
 4205TIP3    H134174   3.899   3.533   2.230 -0.2813  0.3692 -0.9669
 4205TIP3    H234175   3.813   3.629   2.310 -0.0440  0.8928 -1.3352
 4206TIP3   OH234176   5.639   6.271   0.552  1.2805 -0.4050 -0.0992
 4206TIP3    H134177   5.724   6.229   0.551  1.3662 -0.3270  1.4736
 4206TIP3    H234178   5.616   6.282   0.460  2.2272 -1.8976 -0.5400
 4207TIP3   OH234179   2.644   3.292   2.577 -0.3900 -0.4858  0.1244
 4207TIP3    H134180   2.615   3.313   2.666 -0.7638  1.5209 -0.4210
 4207TIP3    H234181   2.597   3.355   2.522 -1.6070 -2.8715 -1.7208
 4208TIP3   OH234182   1.393   3.223   5.029  0.6518  0.4479  1.0935
 4208TIP3    H134183   1.373   3.148   4.975  2.5520  0.0710  0.8443
 4208TIP3    H234184   1.319   3.283   5.016 -0.5941 -1.0962  0.8406
 4209TIP3   OH234185   1.835   5.509   1.716 -0.2704 -0.0577  0.2823
 4209TIP3    H134186   1.853   5.603   1.719 -0.0390 -0.1156  0.7086
 4209TIP3    H234187   1.817   5.485   1.807  1.3928 -0.7692  0.4532
 4210TIP3   OH234188   6.231   2.821   4.542  0.1635 -0.0002  0.4531
 4210TIP3    H134189   6.265   2.848   4.628  1.4926 -1.4987  0.4388
 4210TIP3    H234190   6.171   2.749   4.562 -0.3124  0.3131  0.1786
 4211TIP3   OH234191   0.079   2.974   3.838  0.0125 -0.1896  0.8638
 4211TIP3    H134192   0.017   2.936   3.900 -0.1832 -1.4305 -0.0571
 4211TIP3    H234193   0.034   2.970   3.754  0.7858  0.2569  0.4159
 4212TIP3   OH234194   2.614   4.896   3.367  0.8327  1.0289 -0.3054
 4212TIP3    H134195   2.565   4.972   3.334 -1.0125 -0.5809 -1.5024
 4212TIP3    H234196   2.620   4.837   3.291  0.3491 -0.9191  1.0945
 4213TIP3   OH234197   3.824   3.456   3.348 -0.1427 -0.0708  0.4528
 4213TIP3    H134198   3.870   3.435   3.266  1.4226 -1.3776  1.5990
 4213TIP3    H234199   3.804   3.549   3.341 -1.0582 -0.3723 -1.8719
 4214TIP3   OH234200   4.300   3.149   1.751  0.5553  0.1043 -0.0417
 4214TIP3    H134201   4.348   3.224   1.716 -0.4219  1.0271  0.5477
 4214TIP3    H234202   4.293   3.089   1.678  2.3478  0.0670 -0.2229
 4215TIP3   OH234203   0.679   0.646   0.336  0.0557 -0.2026  0.3210
 4215TIP3    H134204   0.717   0.692   0.262 -0.8737 -1.8740 -1.2733
 4215TIP3    H234205   0.729   0.677   0.412  3.2038 -0.7810 -1.3520
 4216TIP3   OH234206   6.489   4.458   3.649 -0.4763 -0.1213 -0.0544
 4216TIP3    H134207   6.459   4.380   3.603  0.5999 -0.6483  0.1162
 4216TIP3    H234208   6.584   4.458   3.637 -0.1992 -0.0702  1.8499
 4217TIP3   OH234209   2.650   6.505   2.961 -0.0120  0.4264  0.0718
 4217TIP3    H134210   2.566   6.476   2.996  0.1006 -0.5625 -0.4271
 4217TIP3    H234211   2.632   6.590   2.921 -0.8393  0.0985 -0.2702
 4218TIP3   OH234212   6.073   6.567   1.388 -0.0902 -0.2700 -0.0374
 4218TIP3    H134213   6.039   6.524   1.466  0.6700  0.0790  0.5067
 4218TIP3    H234214   6.111   6.496   1.336 -1.5304 -0.6492 -0.6134
 4219TIP3   OH234215   1.659   0.220   1.048  0.3646  0.4485 -0.1379
 4219TIP3    H134216   1.723   0.196   0.981  1.7704  0.2090  1.2415
 4219TIP3    H234217   1.662   0.316   1.051 -0.7928  0.5635 -1.3928
 4220TIP3   OH234218   5.446   6.729   2.283 -0.0424  0.5820 -0.3432
 4220TIP3    H134219   5.356   6.698   2.293  0.3702 -0.8699 -0.8328
 4220TIP3    H234220   5.437   6.815   2.242 -1.2041  0.2970 -0.7514
 4221TIP3   OH234221   4.514   5.835   2.669 -0.1179  0.3162  0.0885
 4221TIP3    H134222   4.597   5.826   2.716 -0.0001  3.6052  0.7489
 4221TIP3    H234223   4.531   5.798   2.582  1.3678 -0.8708  0.8373
 4222TIP3   OH234224   5.212   3.570   1.916 -0.4668 -0.1657  0.1172
 4222TIP3    H134225   5.291   3.625   1.918  0.4451 -1.4564  0.5695
 4222TIP3    H234226   5.140   3.632   1.907  0.3840  1.2589  2.3042
 4223TIP3   OH234227   6.436   0.762   1.565 -0.8904 -0.8625 -0.7203
 4223TIP3    H134228   6.380   0.751   1.641 -0.4158  0.7776 -0.1017
 4223TIP3    H234229   6.379   0.742   1.490 -1.1765 -3.1908  0.0257
 4224TIP3   OH234230   4.577   5.996   4.259 -0.0587  0.1370 -0.5981
 4224TIP3    H134231   4.650   5.983   4.198  0.4861  1.3100 -0.2407
 4224TIP3    H234232   4.529   5.914   4.258  2.2418 -1.3229  0.4534
 4225TIP3   OH234233   1.893   0.227   8.420  0.2373 -0.2011  0.2531
 4225TIP3    H134234   1.907   0.137   8.451  1.0987 -0.1581  0.0215
 4225TIP3    H234235   1.845   0.216   8.338 -0.7451 -0.3849  0.8419
 4226TIP3   OH234236   4.956   3.096   4.435  0.2561 -0.9355 -0.7193
 4226TIP3    H134237   5.012   3.153   4.487 -1.9119  1.0388 -0.3945
 4226TIP3    H234238   4.959   3.011   4.480  0.8175 -0.1184  0.8376
 4227TIP3   OH234239   4.411   0.663   0.951 -0.0421 -0.2035 -0.4605
 4227TIP3    H134240   4.391   0.657   0.858  0.8134  1.5270 -0.7975
 4227TIP3    H234241   4.325   0.672   0.994 -0.4212 -0.7623 -1.0820
 4228TIP3   OH234242   6.362   1.094   3.165 -0.2469  0.1380 -0.7968
 4228TIP3    H134243   6.286   1.100   3.108 -0.1233 -2.2562 -1.3467
 4228TIP3    H234244   6.399   1.008   3.146  0.5644 -0.2385  1.9685
 4229TIP3   OH234245   0.004   6.155   0.722  0.1302 -0.3702 -0.4258
 4229TIP3    H134246  -0.016   6.174   0.630  0.9682 -1.2803 -0.8107
 4229TIP3    H234247   0.100   6.160   0.727  0.0344  1.0788  0.7327
 4230TIP3   OH234248   6.762   4.796   0.870  0.0247  0.8387  0.2446
 4230TIP3    H134249   6.781   4.863   0.804 -1.0188  1.2899  0.3869
 4230TIP3    H234250   6.691   4.745   0.832  1.8264 -1.2395 -0.5684
 4231TIP3   OH234251   4.975   0.800   0.947 -0.1816  0.0643  0.8975
 4231TIP3    H134252   5.064   0.812   0.978  0.1533  0.5671 -0.1822
 4231TIP3    H234253   4.947   0.888   0.919 -0.7045 -0.2270  0.4703
 4232TIP3   OH234254   2.161   4.454   1.862 -0.0539 -0.4650 -0.1052
 4232TIP3    H134255   2.230   4.426   1.802  0.4626 -0.4176  0.4498
 4232TIP3    H234256   2.083   4.408   1.833 -1.1051  3.0915 -3.8884
 4233TIP3   OH234257   1.765   3.172   0.235  0.1441 -0.1247 -0.2818
 4233TIP3    H134258   1.807   3.238   0.290  0.8201 -0.4502 -0.3997
 4233TIP3    H234259   1.778   3.090   0.281 -0.2539 -0.2501 -0.3889
 4234TIP3   OH234260   6.391   3.763   0.185 -0.0282 -0.2242 -0.1834
 4234TIP3    H134261   6.353   3.784   0.270 -0.7984 -2.0201 -0.0348
 4234TIP3    H234262   6.480   3.798   0.188 -0.1656  0.0403  1.2203
 4235TIP3   OH234263   0.442   2.062   2.169 -0.5026  0.8365  0.0387
 4235TIP3    H134264   0.352   2.064   2.136 -0.4990  1.0647  0.0374
 4235TIP3    H234265   0.450   2.143   2.220 -1.1563 -0.4598  2.3335
 4236TIP3   OH234266   3.448   4.194   2.455 -0.0388 -0.1989 -0.2430
 4236TIP3    H134267   3.537   4.167   2.432 -0.9412 -2.9878 -0.8352
 4236TIP3    H234268   3.456   4.229   2.544  2.0781  2.5894 -1.3743
 4237TIP3   OH234269   0.083   4.814   3.236 -0.1321  0.1831  0.8337
 4237TIP3    H134270   0.092   4.906   3.213  1.1375  0.4435  2.1927
 4237TIP3    H234271  -0.000   4.809   3.284 -1.0928  0.2557 -0.7834
 4238TIP3   OH234272   0.424   3.638   2.946  0.0365 -0.0505  0.2575
 4238TIP3    H134273   0.363   3.572   2.977 -0.0484 -0.3456 -0.5198
 4238TIP3    H234274   0.385   3.671   2.865  0.0567  0.9839  0.6544
 4239TIP3   OH234275   1.874   2.941   1.435  0.0055 -0.4498 -0.0659
 4239TIP3    H134276   1.968   2.960   1.439 -0.0427 -0.2021 -0.0662
 4239TIP3    H234277   1.832   3.020   1.471 -0.2900  0.2917 -1.9152
 4240TIP3   OH234278   0.336   1.504   2.526  0.1672  0.0497  0.3477
 4240TIP3    H134279   0.308   1.537   2.611 -0.5994 -0.8761  0.4711
 4240TIP3    H234280   0.288   1.558   2.463 -1.3722 -0.9973  0.5496
 4241TIP3   OH234281   5.093   4.080   2.641  0.5229  0.4519 -0.7066
 4241TIP3    H134282   5.018   4.029   2.611  0.3164 -0.5922  1.4232
 4241TIP3    H234283   5.054   4.156   2.686  0.7791  0.6712 -0.8482
 4242TIP3   OH234284   6.247   1.700   3.539  0.1513 -0.4008 -0.5388
 4242TIP3    H134285   6.201   1.773   3.496  0.3559 -0.1717 -0.3674
 4242TIP3    H234286   6.210   1.621   3.498  1.1972 -0.1633 -2.0149
 4243TIP3   OH234287   6.588   4.233   1.176 -0.7672 -1.0833  0.2038
 4243TIP3    H134288   6.607   4.265   1.264 -3.8861 -0.1584  0.6500
 4243TIP3    H234289   6.606   4.308   1.119 -2.0436 -0.4950  0.5249
 4244TIP3   OH234290   0.125   5.106   2.899 -0.5397 -0.2225  0.6443
 4244TIP3    H134291   0.177   5.122   2.977  1.1584 -0.3461 -0.4009
 4244TIP3    H234292   0.052   5.167   2.905  0.3023  0.7149  1.6626
 4245TIP3   OH234293   5.331   2.091   0.503 -0.2542 -0.7808  0.6981
 4245TIP3    H134294   5.283   2.009   0.488 -1.8236  0.3457 -0.7784
 4245TIP3    H234295   5.264   2.159   0.500  1.2265  0.7199  0.3251
 4246TIP3   OH234296   1.630   5.321   3.607 -0.0002  0.1869 -0.1124
 4246TIP3    H134297   1.581   5.271   3.672 -0.6091  0.2960 -0.4822
 4246TIP3    H234298   1.563   5.360   3.551  0.4432  1.5312  0.2499
 4247TIP3   OH234299   1.226   2.267   2.067  0.2979 -0.4155 -0.0152
 4247TIP3    H134300   1.239   2.353   2.109 -0.4638 -1.0239  1.5333
 4247TIP3    H234301   1.134   2.266   2.043  0.2601 -0.8885  0.1460
 4248TIP3   OH234302   5.069   2.595   4.539 -0.7053  0.2557  0.2741
 4248TIP3    H134303   5.007   2.611   4.610 -1.3696 -0.5861 -0.0909
 4248TIP3    H234304   5.129   2.669   4.542 -1.8211  1.1714  0.5357
 4249TIP3   OH234305   0.491   2.477   3.521 -0.3080  0.0565 -0.0866
 4249TIP3    H134306   0.469   2.446   3.433  0.2049  1.1006 -0.5976
 4249TIP3    H234307   0.533   2.401   3.563  1.8925  0.2808 -1.6677
 4250TIP3   OH234308   6.684   2.358   0.511  0.3375 -0.6951  0.1675
 4250TIP3    H134309   6.601   2.339   0.555  0.4535 -0.5151  0.4705
 4250TIP3    H234310   6.730   2.274   0.510  1.8140 -0.1046  3.5472
 4251TIP3   OH234311   3.779   2.604   1.347 -0.0356  0.4408 -0.3834
 4251TIP3    H134312   3.755   2.616   1.439  1.9065  0.8007  0.1285
 4251TIP3    H234313   3.707   2.643   1.298 -0.2160  2.0155  1.0419
 4252TIP3   OH234314   1.271   2.240   2.719 -0.4933 -0.2780  0.2931
 4252TIP3    H134315   1.313   2.187   2.651 -0.3540 -0.5686  0.6051
 4252TIP3    H234316   1.318   2.323   2.717  0.5582 -0.8327  1.1015
 4253TIP3   OH234317   6.811   2.120   0.384  0.0224 -0.0435  0.1693
 4253TIP3    H134318   6.785   2.036   0.346 -0.8263  0.6120 -0.7358
 4253TIP3    H234319   6.905   2.127   0.365 -0.3750  0.2953 -1.9323
 4254TIP3   OH234320   6.309   5.007   0.536  0.2632  0.7405  0.1573
 4254TIP3    H134321   6.305   5.086   0.482  0.3503  1.4620  1.1928
 4254TIP3    H234322   6.400   4.977   0.527  0.1301  0.5363 -0.5402
 4255TIP3   OH234323   4.023   2.364   2.402  0.1240 -0.1134 -0.2867
 4255TIP3    H134324   3.967   2.288   2.419  0.7229 -0.2686  1.1140
 4255TIP3    H234325   4.055   2.351   2.313 -1.1318 -0.6244 -0.6783
 4256TIP3   OH234326   2.253   2.344   2.579 -0.2272 -0.3838 -0.2176
 4256TIP3    H134327   2.308   2.414   2.545  1.2598 -2.6206 -2.7954
 4256TIP3    H234328   2.295   2.319   2.662  1.1074 -0.3054 -0.8481
 4257TIP3   OH234329   1.384   6.055   1.061  0.3247  0.4961 -0.2000
 4257TIP3    H134330   1.347   5.976   1.100  1.7722 -0.1999 -0.1853
 4257TIP3    H234331   1.348   6.057   0.972  0.2635 -0.1575 -0.1938
 4258TIP3   OH234332   0.581   6.671   3.876 -0.0184 -0.1532 -0.0286
 4258TIP3    H134333   0.593   6.607   3.946 -0.6430  0.0817  0.2985
 4258TIP3    H234334   0.670   6.696   3.851  0.2095 -0.1892  0.7287
 4259TIP3   OH234335   3.762   3.041   3.273 -0.0399  0.4407  0.2921
 4259TIP3    H134336   3.755   3.119   3.329 -2.8008 -0.0451  0.7275
 4259TIP3    H234337   3.801   2.975   3.330 -1.2364  0.4446  1.1493
 4260TIP3   OH234338   4.278   4.948   1.067 -0.6700  0.0348 -0.0400
 4260TIP3    H134339   4.343   4.878   1.063  0.5044  1.1260 -0.9237
 4260TIP3    H234340   4.245   4.955   0.977 -0.1246  1.1889 -0.1629
 4261TIP3   OH234341   5.078   4.428   4.404  0.1434 -0.0252 -0.0461
 4261TIP3    H134342   5.160   4.395   4.439  0.9338  2.4825  0.6757
 4261TIP3    H234343   5.103   4.478   4.326 -0.6165  1.1069  0.4064
 4262TIP3   OH234344   3.091   2.072   1.323  0.4466 -0.4904  0.4416
 4262TIP3    H134345   3.136   2.098   1.403  1.7194 -1.6058  0.1237
 4262TIP3    H234346   3.066   1.980   1.338 -1.5134  0.0078  0.4948
 4263TIP3   OH234347   2.155   0.697   3.508  0.1320  0.5290 -0.1300
 4263TIP3    H134348   2.118   0.619   3.548  0.5891  1.1254  1.5462
 4263TIP3    H234349   2.151   0.681   3.414  0.4969 -1.6353  0.1826
 4264TIP3   OH234350   1.587   4.368   0.566  0.0239 -0.2505 -0.4780
 4264TIP3    H134351   1.585   4.323   0.481 -2.3605 -2.5431  0.6606
 4264TIP3    H234352   1.497   4.365   0.597  0.4376  2.3099  1.3253
 4265TIP3   OH234353   6.031   5.179   2.940  0.1328 -0.0575 -0.4358
 4265TIP3    H134354   6.081   5.210   2.865  1.4612 -0.2230  0.3607
 4265TIP3    H234355   5.952   5.140   2.901  1.0421 -0.6206 -1.7784
 4266TIP3   OH234356   1.367   0.761   8.217  0.5820 -0.4294 -0.4581
 4266TIP3    H134357   1.343   0.676   8.254 -0.2127 -1.1557 -2.4927
 4266TIP3    H234358   1.458   0.751   8.190  0.3973 -0.7678 -0.9773
 4267TIP3   OH234359   0.436   1.712   2.871  0.0614 -0.2620 -0.2599
 4267TIP3    H134360   0.503   1.781   2.871 -0.8709  0.7277 -1.9938
 4267TIP3    H234361   0.469   1.645   2.931  2.3683  0.4001 -0.7249
 4268TIP3   OH234362   2.480   2.376   4.887  0.0086  0.4811 -0.1872
 4268TIP3    H134363   2.393   2.383   4.846 -0.4680  0.7677  0.8277
 4268TIP3    H234364   2.510   2.467   4.893 -0.1107  0.4770  0.4708
 4269TIP3   OH234365   0.440   0.043   1.536  0.4530 -0.0840  0.5766
 4269TIP3    H134366   0.352   0.015   1.560 -0.0414  0.4841 -0.5088
 4269TIP3    H234367   0.434   0.138   1.526  0.6458 -0.2366 -1.4957
 4270TIP3   OH234368   6.816   3.767   1.858 -0.1545  0.1541 -0.3263
 4270TIP3    H134369   6.763   3.842   1.888 -1.3740 -0.4859 -0.7965
 4270TIP3    H234370   6.810   3.704   1.930  1.5598  0.7913  0.4323
 4271TIP3   OH234371   1.542   3.835   2.841  0.1090 -0.4755 -0.1752
 4271TIP3    H134372   1.603   3.806   2.908  1.1259 -1.1668 -1.3497
 4271TIP3    H234373   1.458   3.842   2.886  1.0619  0.6967  1.5271
 4272TIP3   OH234374   2.919   0.693   1.078  0.1872  0.2000 -0.2663
 4272TIP3    H134375   2.872   0.695   1.161  0.8742 -0.7370  0.1697
 4272TIP3    H234376   2.899   0.777   1.036 -1.6677 -0.0843 -0.0142
 4273TIP3   OH234377   3.157   5.445   2.981  0.1425 -0.2020  0.3647
 4273TIP3    H134378   3.235   5.401   2.946  1.4591  1.7537  0.6750
 4273TIP3    H234379   3.188   5.491   3.059 -1.0439  1.5005 -0.1048
 4274TIP3   OH234380   3.227   0.764   4.230  0.1385 -0.4908 -0.7252
 4274TIP3    H134381   3.206   0.810   4.312 -1.0476  0.2243 -1.4034
 4274TIP3    H234382   3.187   0.678   4.240  0.8340 -0.7628 -0.1746
 4275TIP3   OH234383   3.540   2.816   4.305 -0.2443 -0.1698 -0.2470
 4275TIP3    H134384   3.509   2.885   4.363 -3.4246 -2.4317  1.0467
 4275TIP3    H234385   3.634   2.813   4.318 -0.1523  3.0159  0.5704
 4276TIP3   OH234386   3.347   1.917   2.522 -0.1160 -0.3111 -0.0028
 4276TIP3    H134387   3.390   1.945   2.602  1.1988  1.6438 -1.3112
 4276TIP3    H234388   3.394   1.839   2.495  0.9080  0.2999 -0.0241
 4277TIP3   OH234389   1.702   6.464   0.144  0.2158 -0.4402 -0.5469
 4277TIP3    H134390   1.736   6.550   0.120 -0.7634 -0.1698 -1.0169
 4277TIP3    H234391   1.701   6.465   0.240 -3.0145  1.4439 -0.4681
 4278TIP3   OH234392   2.975   0.878   1.309 -0.4985  0.2573  0.4146
 4278TIP3    H134393   2.950   0.847   1.221 -0.7211 -0.1406  0.6136
 4278TIP3    H234394   3.070   0.875   1.309 -0.4921  0.3545  0.1543
 4279TIP3   OH234395   2.542   0.783   1.462  0.0558  0.7876  0.0252
 4279TIP3    H134396   2.498   0.785   1.547 -1.2943  0.7400 -0.6419
 4279TIP3    H234397   2.629   0.819   1.479 -0.1147  0.5775  1.4593
 4280TIP3   OH234398   2.382   6.343   0.047 -0.2337  0.2517 -0.4547
 4280TIP3    H134399   2.450   6.349  -0.020  0.5221 -0.4834  0.2277
 4280TIP3    H234400   2.385   6.428   0.091 -0.5636  0.6457 -1.1734
 4281TIP3   OH234401   3.665   2.933   1.304 -0.1442  0.3817 -0.2257
 4281TIP3    H134402   3.722   2.936   1.381  0.9864 -0.4877 -0.9825
 4281TIP3    H234403   3.721   2.963   1.232 -0.6988 -0.2887 -0.9500
 4282TIP3   OH234404   5.223   1.876   3.156 -0.2710  0.2565  0.4558
 4282TIP3    H134405   5.307   1.855   3.114 -1.0960 -0.2404 -1.0319
 4282TIP3    H234406   5.203   1.965   3.125 -1.1326 -0.3085 -0.6881
 4283TIP3   OH234407   3.802   6.544   3.900  0.2090  0.8116 -0.1769
 4283TIP3    H134408   3.844   6.536   3.985  1.1130  2.7639 -0.3871
 4283TIP3    H234409   3.773   6.635   3.895 -0.7347  0.4862 -1.5652
 4284TIP3   OH234410   0.908   2.963   1.274  0.0021  0.6996  0.1925
 4284TIP3    H134411   0.981   3.016   1.306  0.3856  1.0539 -1.2284
 4284TIP3    H234412   0.950   2.893   1.223 -0.6288  0.7834 -0.4508
 4285TIP3   OH234413   6.689   2.574   3.542  0.3785 -0.0669  0.1269
 4285TIP3    H134414   6.683   2.599   3.634  0.2297 -3.1788  1.1018
 4285TIP3    H234415   6.783   2.562   3.526  0.2977 -1.7471  0.6526
 4286TIP3   OH234416   2.361   1.961   2.877 -0.1475 -0.3035  0.0963
 4286TIP3    H134417   2.321   2.048   2.882 -0.9040 -0.4210 -2.5529
 4286TIP3    H234418   2.454   1.978   2.862  0.1116 -0.0045  1.8725
 4287TIP3   OH234419   2.605   5.587   3.426  0.8930 -0.2779  0.3219
 4287TIP3    H134420   2.697   5.609   3.414  0.5764  0.4178 -1.0272
 4287TIP3    H234421   2.605   5.494   3.450  1.8867 -0.6541 -1.0187
 4288TIP3   OH234422   1.535   5.900   3.501 -0.1959 -0.1446 -0.0219
 4288TIP3    H134423   1.567   5.924   3.589  1.4161  0.0140 -0.6136
 4288TIP3    H234424   1.562   5.808   3.490  3.5883  0.9660 -1.9191
 4289TIP3   OH234425   0.491   5.072   2.218 -0.5624  0.4740 -0.1445
 4289TIP3    H134426   0.547   5.114   2.283  0.4767  0.3740 -0.9353
 4289TIP3    H234427   0.518   4.980   2.218 -1.1569  0.2957 -0.1044
 4290TIP3   OH234428   6.375   0.103   1.919 -0.9085  0.2819 -0.2617
 4290TIP3    H134429   6.381   0.148   2.004  0.6614  1.3131 -0.8606
 4290TIP3    H234430   6.422   0.020   1.933  0.6119  1.0751 -0.4667
 4291TIP3   OH234431   2.839   4.639   4.979  0.6697  0.2655  0.1827
 4291TIP3    H134432   2.919   4.602   5.016  0.2483  0.0688  0.9240
 4291TIP3    H234433   2.768   4.592   5.023  0.1289 -0.9257 -1.8672
 4292TIP3   OH234434   5.529   6.717   2.839  0.3350 -0.3547 -0.0446
 4292TIP3    H134435   5.443   6.727   2.796  1.3699  0.6947 -2.0552
 4292TIP3    H234436   5.550   6.806   2.869  1.2044 -0.3382 -0.6531
 4293TIP3   OH234437   2.209   2.920   3.613  0.6525 -0.3134 -0.5114
 4293TIP3    H134438   2.162   2.995   3.650  2.8035  1.9898 -2.1336
 4293TIP3    H234439   2.169   2.907   3.527  1.2335 -0.0627 -0.8218
 4294TIP3   OH234440   1.527   2.920   1.720  0.1041  0.2864  0.5075
 4294TIP3    H134441   1.444   2.880   1.746  0.4046  0.6194  2.0424
 4294TIP3    H234442   1.571   2.852   1.668 -0.5124 -0.4090  0.8850
 4295TIP3   OH234443   6.135   3.834   2.246  0.0648 -0.1499  0.2085
 4295TIP3    H134444   6.113   3.904   2.184  1.2233  0.4993  0.4865
 4295TIP3    H234445   6.145   3.756   2.192  2.0204  0.6028 -0.6159
 4296TIP3   OH234446   3.310   0.979   2.220 -0.5085  0.0517 -0.1458
 4296TIP3    H134447   3.395   0.947   2.251 -1.9494 -1.6536  2.4044
 4296TIP3    H234448   3.297   1.060   2.268 -0.0535  0.7016 -1.0884
 4297TIP3   OH234449   0.283   0.055   3.140 -0.0670  0.0352  0.1229
 4297TIP3    H134450   0.332   0.004   3.204 -0.2687  0.8195  0.9368
 4297TIP3    H234451   0.303   0.146   3.162 -1.3189  0.3498  0.0201
 4298TIP3   OH234452   1.666   0.862   3.139 -0.1400 -0.4952 -0.2704
 4298TIP3    H134453   1.736   0.848   3.202 -0.5928 -0.7006  0.1966
 4298TIP3    H234454   1.598   0.910   3.188 -0.7122 -1.1033 -0.4497
 4299TIP3   OH234455   5.142   4.381   3.038  0.2380 -0.2511 -0.5651
 4299TIP3    H134456   5.188   4.298   3.050 -0.4822 -0.8924 -2.0254
 4299TIP3    H234457   5.205   4.437   2.994 -0.1616 -0.9846 -2.1600
 4300TIP3   OH234458   5.614   0.004   3.854 -0.1672 -0.1922 -0.8732
 4300TIP3    H134459   5.568  -0.027   3.932  0.3631  1.7516  0.2781
 4300TIP3    H234460   5.680  -0.064   3.836 -0.2271 -0.6192  0.4281
 4301TIP3   OH234461   3.685   1.358   3.895  0.5085  0.2015  0.4168
 4301TIP3    H134462   3.620   1.389   3.833 -0.6796 -2.1777  0.3472
 4301TIP3    H234463   3.752   1.316   3.841  0.2392 -0.5361  0.6423
 4302TIP3   OH234464   3.254   3.387   1.814  0.3954  0.0504  0.6632
 4302TIP3    H134465   3.303   3.464   1.784 -0.0878  0.2469  0.3681
 4302TIP3    H234466   3.221   3.413   1.900  1.6166 -0.4413  1.2999
 4303TIP3   OH234467   6.384   1.518   3.227  0.5167  0.1523  0.0126
 4303TIP3    H134468   6.462   1.558   3.266  1.2554  0.6704 -1.8552
 4303TIP3    H234469   6.358   1.451   3.289  2.2841  0.1694  0.8422
 4304TIP3   OH234470   0.318   5.417   3.624 -0.1804  0.1670  0.3358
 4304TIP3    H134471   0.282   5.470   3.553  0.5704  1.0070  0.5501
 4304TIP3    H234472   0.252   5.420   3.693 -1.0366 -0.8824 -0.4082
 4305TIP3   OH234473   2.208   4.627   1.048 -0.0472 -0.4324 -0.1685
 4305TIP3    H134474   2.214   4.578   0.966 -0.5852 -1.1744  0.2253
 4305TIP3    H234475   2.284   4.685   1.046 -0.4085  0.0438 -1.4996
 4306TIP3   OH234476   4.586   2.605   0.509  0.2992 -0.2473 -0.0022
 4306TIP3    H134477   4.523   2.564   0.569 -1.1709  1.0551 -0.5961
 4306TIP3    H234478   4.578   2.555   0.428 -0.2904  0.1854 -0.2123
 4307TIP3   OH234479   1.092   2.889   3.799  0.8978 -0.1513 -0.0176
 4307TIP3    H134480   1.158   2.896   3.731  0.3636  0.1197 -0.5151
 4307TIP3    H234481   1.142   2.880   3.880  1.5461  0.7389 -0.3094
 4308TIP3   OH234482   5.691   3.440   2.325  0.6183 -0.0030 -0.2450
 4308TIP3    H134483   5.676   3.490   2.406  0.3505  2.2507 -1.6085
 4308TIP3    H234484   5.611   3.389   2.314  0.8045 -0.6469  1.0677
 4309TIP3   OH234485   4.039   3.609   1.656  0.3895  0.1963 -0.7040
 4309TIP3    H134486   4.035   3.617   1.561 -1.0049 -1.9330 -0.8757
 4309TIP3    H234487   3.964   3.554   1.680  1.0534  0.1502  1.5667
 4310TIP3   OH234488   4.435   2.685   5.080 -0.3027 -0.0462 -0.2706
 4310TIP3    H134489   4.388   2.734   5.148 -1.7925  0.2667 -1.4808
 4310TIP3    H234490   4.515   2.655   5.123 -0.0332  2.2081  0.9276
 4311TIP3   OH234491   4.564   6.195   3.980  0.0626 -0.0099  0.3284
 4311TIP3    H134492   4.560   6.261   4.049 -0.9490  1.2725 -0.9007
 4311TIP3    H234493   4.656   6.169   3.975  0.2424  0.3214  1.7235
 4312TIP3   OH234494   2.523   4.390   0.921  0.1586 -0.4234 -0.8130
 4312TIP3    H134495   2.454   4.452   0.899  1.0732  0.9345  0.0271
 4312TIP3    H234496   2.477   4.307   0.934 -1.2754  0.3685 -0.6364
 4313TIP3   OH234497   1.133   2.534   3.966 -0.7247  0.5279  0.3842
 4313TIP3    H134498   1.084   2.517   4.046 -1.7474 -1.2341 -0.5618
 4313TIP3    H234499   1.068   2.574   3.906 -0.9388 -1.3282 -0.6934
 4314TIP3   OH234500   1.030   0.560   3.366 -0.1641  0.0729 -0.5037
 4314TIP3    H134501   1.098   0.508   3.408  0.7494  0.6262 -1.2439
 4314TIP3    H234502   0.963   0.572   3.433  0.0460 -1.2360 -0.0376
 4315TIP3   OH234503   0.152   3.876   2.886 -0.0409  0.3659 -0.1863
 4315TIP3    H134504   0.149   3.784   2.911 -0.1355  0.3659 -0.1955
 4315TIP3    H234505   0.152   3.876   2.790  0.5018  0.3597 -0.1894
 4316TIP3   OH234506   4.288   2.443   2.025 -1.1969  0.9816 -0.4268
 4316TIP3    H134507   4.228   2.417   1.955 -2.5635 -0.2032  1.0999
 4316TIP3    H234508   4.372   2.404   2.001 -1.5949  0.7488 -1.4873
 4317TIP3   OH234509   5.640   2.879   4.318  0.5073  0.2717  0.6073
 4317TIP3    H134510   5.725   2.904   4.354  0.6379 -0.8887  1.1364
 4317TIP3    H234511   5.639   2.919   4.231  1.0134  1.4352  1.1033
 4318TIP3   OH234512   4.241   6.541   2.486  0.3562 -0.7428  0.4133
 4318TIP3    H134513   4.271   6.452   2.500  1.7613 -0.7355 -2.0497
 4318TIP3    H234514   4.280   6.567   2.403 -1.5802  1.4950  0.0929
 4319TIP3   OH234515   1.520   5.121   1.618  0.3703  0.4263 -0.0776
 4319TIP3    H134516   1.562   5.201   1.647 -0.3159  0.9489 -0.4876
 4319TIP3    H234517   1.440   5.114   1.671 -0.7032  1.1962 -1.5191
 4320TIP3   OH234518   0.257   3.791   2.065 -0.0694 -0.2892 -0.4277
 4320TIP3    H134519   0.267   3.720   2.128 -1.7465 -0.1592  0.0444
 4320TIP3    H234520   0.292   3.757   1.983 -0.0233 -1.3172  0.0135
 4321TIP3   OH234521   3.127   0.019   2.436  0.4665 -0.3173 -0.3368
 4321TIP3    H134522   3.203   0.047   2.487 -0.2847  1.4276 -0.0964
 4321TIP3    H234523   3.159  -0.056   2.386  1.7753 -0.8670  1.2107
 4322TIP3   OH234524   6.708   1.601   1.520  0.1039 -0.1749 -0.0455
 4322TIP3    H134525   6.708   1.629   1.612 -0.4039 -1.7730  0.4782
 4322TIP3    H234526   6.632   1.544   1.513  1.5609 -2.1210 -0.7989
 4323TIP3   OH234527   5.823   3.569   4.108  0.0609 -0.0873 -0.2050
 4323TIP3    H134528   5.849   3.613   4.190 -1.3535 -1.5910  1.1246
 4323TIP3    H234529   5.901   3.519   4.083  0.6344  0.6677  0.0093
 4324TIP3   OH234530   1.708   1.738   2.567  0.1579 -0.7890  0.6302
 4324TIP3    H134531   1.767   1.715   2.495  0.1512 -0.6413  0.5769
 4324TIP3    H234532   1.766   1.754   2.641  0.2742  0.3883  0.3130
 4325TIP3   OH234533   3.228   2.628   2.311 -0.7088  0.9825 -0.5065
 4325TIP3    H134534   3.155   2.594   2.362  0.2250 -0.6708 -0.1769
 4325TIP3    H234535   3.304   2.616   2.368  0.0047  1.4709 -1.3313
 4326TIP3   OH234536   3.189   4.299   2.394 -0.1319  0.4397 -0.6470
 4326TIP3    H134537   3.204   4.319   2.301  2.5050  0.1091 -0.3630
 4326TIP3    H234538   3.263   4.243   2.419 -1.1793 -0.0995  1.4904
 4327TIP3   OH234539   2.990   3.995   4.071 -0.2167 -0.2490 -0.3508
 4327TIP3    H134540   3.006   3.968   4.161  0.6422 -0.9082 -0.6921
 4327TIP3    H234541   2.897   3.977   4.057 -0.2935 -0.3849  0.3238
 4328TIP3   OH234542   2.249   5.707   1.672  0.2932 -0.9093 -0.2486
 4328TIP3    H134543   2.171   5.734   1.720 -0.0504 -0.1973 -1.1907
 4328TIP3    H234544   2.321   5.727   1.732 -0.0663  0.7328 -0.3046
 4329TIP3   OH234545   4.983   2.235   1.458 -0.2376 -0.1200  0.3026
 4329TIP3    H134546   4.951   2.160   1.407  0.5784  0.1493 -0.6441
 4329TIP3    H234547   4.917   2.303   1.445  1.4922  1.1780 -3.4052
 4330TIP3   OH234548   3.228   5.730   2.251  0.0021 -0.1054 -0.4415
 4330TIP3    H134549   3.320   5.705   2.247 -0.1246 -0.4290 -1.7669
 4330TIP3    H234550   3.207   5.733   2.344  1.8978  2.0007  0.0089
 4331TIP3   OH234551   3.752   1.694   2.470 -0.2425 -0.2303  0.3738
 4331TIP3    H134552   3.739   1.771   2.525  1.9255 -0.5433  1.4152
 4331TIP3    H234553   3.819   1.643   2.515  3.1112  0.4006 -3.4192
 4332TIP3   OH234554   1.937   0.893   3.753  0.3149 -0.0914 -0.3153
 4332TIP3    H134555   1.916   0.881   3.660 -1.3301 -0.3202  0.0542
 4332TIP3    H234556   1.901   0.979   3.774  0.3474 -0.2031  0.1991
 4333TIP3   OH234557   4.345   3.175   2.632 -0.4586 -0.0177 -0.3953
 4333TIP3    H134558   4.278   3.241   2.618 -0.6392 -0.0827  0.1605
 4333TIP3    H234559   4.296   3.093   2.642 -0.3478  0.0420  0.7393
 4334TIP3   OH234560   5.580   0.603   2.046 -0.1534  0.0138  0.1842
 4334TIP3    H134561   5.541   0.641   1.967 -1.1186 -2.1721 -0.4688
 4334TIP3    H234562   5.664   0.648   2.055 -0.7584  1.5018 -1.1042
 4335TIP3   OH234563   4.744   3.552   3.446 -0.4359  0.2509 -0.3368
 4335TIP3    H134564   4.753   3.497   3.368  4.2545  2.0660 -1.4739
 4335TIP3    H234565   4.663   3.601   3.431 -2.2209 -2.7958 -1.5820
 4336TIP3   OH234566   4.287   2.055   3.955  0.8907  0.0979  0.6018
 4336TIP3    H134567   4.248   2.103   3.882 -0.6012 -0.1303  1.2104
 4336TIP3    H234568   4.255   2.101   4.033  2.0134  0.0057  1.1430
 4337TIP3   OH234569   3.340   5.007   3.288  0.3744  0.2224 -0.0931
 4337TIP3    H134570   3.367   5.062   3.362 -0.7336  0.9757 -0.2336
 4337TIP3    H234571   3.257   4.969   3.316  0.5063 -0.3815 -0.5121
 4338TIP3   OH234572   6.477   3.227   1.449 -0.8826 -0.0951  0.5387
 4338TIP3    H134573   6.509   3.139   1.466  1.4117  0.6646  0.5345
 4338TIP3    H234574   6.525   3.282   1.511 -2.5409  1.1357  0.8052
 4339TIP3   OH234575   2.492   4.855   2.406 -0.1106  0.4236  0.3853
 4339TIP3    H134576   2.566   4.916   2.402 -1.1176  1.6418 -1.1183
 4339TIP3    H234577   2.512   4.790   2.338  0.6170 -0.5659  1.5052
 4340TIP3   OH234578   5.760   0.385   0.639  0.2213  0.1183 -0.2539
 4340TIP3    H134579   5.677   0.418   0.605  0.5383  1.2671  0.0375
 4340TIP3    H234580   5.736   0.339   0.720 -0.3483 -1.2895 -1.1866
 4341TIP3   OH234581   0.630   1.077   1.229 -0.0207  0.5379 -0.2922
 4341TIP3    H134582   0.551   1.024   1.221 -0.7191  1.2823  1.1652
 4341TIP3    H234583   0.701   1.022   1.196 -1.0516 -0.3994 -0.9709
 4342TIP3   OH234584   4.220   0.703   4.716  0.4803  0.0328 -0.5551
 4342TIP3    H134585   4.158   0.631   4.722  1.4345 -0.8352 -0.7470
 4342TIP3    H234586   4.306   0.662   4.730  1.2450  0.7703 -2.6470
 4343TIP3   OH234587   3.387   3.604   1.705 -0.2274  0.0010  0.3435
 4343TIP3    H134588   3.435   3.686   1.723 -1.7856  1.2080 -0.7393
 4343TIP3    H234589   3.450   3.550   1.658  0.2410  1.3982 -0.7275
 4344TIP3   OH234590   1.447   4.544   3.701 -0.7045 -0.7001 -0.1170
 4344TIP3    H134591   1.396   4.547   3.621  0.9175 -1.4620 -1.2383
 4344TIP3    H234592   1.534   4.513   3.674  0.1153 -0.2909  1.8189
 4345TIP3   OH234593   3.096   1.254   2.136  0.1867 -0.6683 -0.0395
 4345TIP3    H134594   3.041   1.230   2.210  1.6554  1.0487  1.7173
 4345TIP3    H234595   3.112   1.172   2.089 -3.1318 -1.3612 -0.2085
 4346TIP3   OH234596   6.689   2.213   1.727  1.3148 -0.0568  0.3792
 4346TIP3    H134597   6.763   2.228   1.668  0.9285  0.9325  0.1466
 4346TIP3    H234598   6.668   2.299   1.763 -0.0622 -0.2460  0.0503
 4347TIP3   OH234599   3.551   5.705   1.206  0.2793 -0.1484  0.4416
 4347TIP3    H134600   3.621   5.642   1.188 -0.0751 -0.1696 -0.9964
 4347TIP3    H234601   3.481   5.681   1.144 -0.7476  0.2802  1.3929
 4348TIP3   OH234602   5.617   3.043   1.904 -0.1439  0.6460  0.1706
 4348TIP3    H134603   5.592   3.042   1.997  0.7610 -0.4942  0.4296
 4348TIP3    H234604   5.690   2.981   1.899 -1.1099 -0.4286 -1.5630
 4349TIP3   OH234605   6.679   2.585   4.368 -0.0317  0.0633 -0.4226
 4349TIP3    H134606   6.707   2.502   4.330  0.1359 -0.4482  0.7770
 4349TIP3    H234607   6.596   2.565   4.411  0.5717  0.2285  0.8511
 4350TIP3   OH234608   2.112   0.410   2.426 -0.2651  0.0966  0.3618
 4350TIP3    H134609   2.068   0.339   2.379  0.0450 -0.6453  1.1779
 4350TIP3    H234610   2.049   0.438   2.492  1.0452 -2.1399  2.6954
 4351TIP3   OH234611   5.267   5.534   2.170 -0.0066 -0.5066 -0.3259
 4351TIP3    H134612   5.312   5.531   2.086  0.5031 -1.7552 -0.0311
 4351TIP3    H234613   5.247   5.627   2.184  0.5700 -0.1985 -1.4570
 4352TIP3   OH234614   5.091   0.332   1.804  0.3429  0.4109  0.4748
 4352TIP3    H134615   5.023   0.399   1.799 -0.8247 -0.6836  1.1141
 4352TIP3    H234616   5.141   0.342   1.723 -0.9727  0.8533 -0.3103
 4353TIP3   OH234617   5.740   2.520   3.377  0.0990  0.2085 -0.3282
 4353TIP3    H134618   5.812   2.501   3.438 -1.1747 -0.0840  1.1381
 4353TIP3    H234619   5.779   2.510   3.290  1.7387 -0.2662  0.4259
 4354TIP3   OH234620   3.194   1.789   2.286  0.6376  0.3970  0.0133
 4354TIP3    H134621   3.172   1.699   2.263  0.3288  0.5659 -0.3526
 4354TIP3    H234622   3.110   1.835   2.285  0.9365  0.9362 -0.8967
 4355TIP3   OH234623   3.693   1.560   0.938  0.5251  0.5355 -0.2344
 4355TIP3    H134624   3.619   1.502   0.927 -0.3199  1.3337  1.0052
 4355TIP3    H234625   3.658   1.637   0.983  2.3304  0.3466  1.7001
 4356TIP3   OH234626   3.744   6.779   1.300 -0.2751  0.0747 -0.0011
 4356TIP3    H134627   3.671   6.768   1.361 -0.1604 -1.1713 -0.0554
 4356TIP3    H234628   3.819   6.741   1.346  0.1584  0.5870 -0.2808
 4357TIP3   OH234629   6.207   6.793   4.222 -0.3478  0.1874 -0.9170
 4357TIP3    H134630   6.302   6.799   4.223 -0.3230 -0.0486  0.6979
 4357TIP3    H234631   6.188   6.701   4.202 -0.2141  0.0724 -0.5214
 4358TIP3   OH234632   5.680   6.645   0.086 -0.7343  0.1023  0.0567
 4358TIP3    H134633   5.755   6.680   0.133 -0.8307  0.3891 -0.0051
 4358TIP3    H234634   5.692   6.550   0.089 -0.2093  0.1568 -0.2141
 4359TIP3   OH234635   3.350   6.294   0.973  0.3637 -0.5577  0.1327
 4359TIP3    H134636   3.414   6.288   1.044 -0.3707 -2.5102  0.7041
 4359TIP3    H234637   3.368   6.219   0.917 -0.4402 -0.2622 -0.5462
 4360TIP3   OH234638   0.187   0.114   3.591  0.4634  0.1820 -0.6571
 4360TIP3    H134639   0.091   0.116   3.586  0.4428 -0.2948 -0.5362
 4360TIP3    H234640   0.205   0.068   3.673  0.7891 -0.8805 -1.3058
 4361TIP3   OH234641   4.708   5.480   1.704 -0.2993 -0.3450  0.2971
 4361TIP3    H134642   4.653   5.408   1.734 -0.6493 -0.0216  0.4305
 4361TIP3    H234643   4.731   5.528   1.783 -0.3888 -0.0831  0.1664
 4362TIP3   OH234644   2.038   4.143   2.659 -0.0967 -0.2117 -0.1189
 4362TIP3    H134645   2.101   4.086   2.703  0.3455  0.1157 -0.3135
 4362TIP3    H234646   2.067   4.232   2.679  0.5591 -0.0439 -1.6493
 4363TIP3   OH234647   5.102   3.830   4.568  0.3541 -0.1287 -0.0639
 4363TIP3    H134648   5.077   3.759   4.508 -0.4185  0.5319 -0.5427
 4363TIP3    H234649   5.090   3.793   4.655  0.6101 -0.8031 -0.3019
 4364TIP3   OH234650   4.386   2.475   4.442 -0.0135  0.5080  0.0911
 4364TIP3    H134651   4.316   2.469   4.506  0.6971  1.0528  0.9427
 4364TIP3    H234652   4.394   2.386   4.407 -0.9220  0.3743  0.1869
 4365TIP3   OH234653   6.520   3.984   2.548 -0.3999  0.1866  0.1995
 4365TIP3    H134654   6.478   3.943   2.624 -1.8332  0.4758 -0.4058
 4365TIP3    H234655   6.576   4.052   2.585 -0.0206 -0.5684  1.0622
 4366TIP3   OH234656   3.633   1.795   3.401 -0.3681  0.0510 -0.5367
 4366TIP3    H134657   3.720   1.833   3.396  0.0509 -0.9309 -0.8121
 4366TIP3    H234658   3.574   1.867   3.378  0.2865  0.9711  0.5285
 4367TIP3   OH234659   2.035   5.252   0.988  0.5886 -0.0360  0.0345
 4367TIP3    H134660   2.042   5.222   1.079 -1.7112  0.1108  0.3224
 4367TIP3    H234661   2.051   5.347   0.993  0.2251  0.0132  0.3389
 4368TIP3   OH234662   2.722   1.542   1.016 -0.3769 -0.7903 -0.3744
 4368TIP3    H134663   2.743   1.456   0.980  3.1174 -0.1285 -0.2842
 4368TIP3    H234664   2.749   1.604   0.948  1.2349  0.2962  1.1729
 4369TIP3   OH234665   2.517   6.732   1.016 -0.0408 -0.1508 -0.0616
 4369TIP3    H134666   2.610   6.717   1.031 -0.1291 -1.0674 -0.4112
 4369TIP3    H234667   2.509   6.748   0.922 -0.1709  0.4971  0.0518
 4370TIP3   OH234668   6.454   2.841   2.986 -0.2273  0.5768 -0.0019
 4370TIP3    H134669   6.381   2.899   2.961 -0.8435 -0.4088 -0.5451
 4370TIP3    H234670   6.427   2.802   3.069 -0.5316 -0.1310 -0.4266
 4371TIP3   OH234671   1.170   0.953   0.804  0.0477  0.2399  0.0069
 4371TIP3    H134672   1.212   0.905   0.732  0.9773  0.8907  0.0932
 4371TIP3    H234673   1.140   1.035   0.764  1.7888  1.2287  0.5905
 4372TIP3   OH234674   0.664   4.967   1.629 -0.7395 -0.2942 -0.0026
 4372TIP3    H134675   0.732   5.022   1.590 -0.3141  0.6471  1.9254
 4372TIP3    H234676   0.709   4.921   1.700 -1.5664 -1.6089 -0.3123
 4373TIP3   OH234677   5.052   5.607   3.895 -0.1152  0.0654  0.1878
 4373TIP3    H134678   5.038   5.597   3.990  0.7889 -0.0767  0.3147
 4373TIP3    H234679   5.041   5.701   3.880 -0.7745  0.0190  0.3428
 4374TIP3   OH234680   5.154   3.278   1.048 -0.4316 -0.7984 -0.2823
 4374TIP3    H134681   5.213   3.337   1.095 -0.7056 -1.0366  0.3754
 4374TIP3    H234682   5.073   3.280   1.098  0.0753 -2.9808  0.7280
 4375TIP3   OH234683   2.956   1.084   3.301 -0.2710  0.1035  0.5241
 4375TIP3    H134684   2.883   1.137   3.334 -0.8480  0.5919 -1.4260
 4375TIP3    H234685   2.933   1.064   3.210  0.6882 -2.1998  0.7156
 4376TIP3   OH234686   6.701   2.999   2.125 -0.4320  0.0341 -0.0533
 4376TIP3    H134687   6.660   2.924   2.167  0.3679 -1.1782 -1.3477
 4376TIP3    H234688   6.721   3.059   2.198 -1.8026 -0.6154  0.9125
 4377TIP3   OH234689   6.145   0.170   3.610 -0.0163 -0.1460 -0.0914
 4377TIP3    H134690   6.207   0.130   3.670  0.8090 -1.0067 -1.4465
 4377TIP3    H234691   6.182   0.154   3.523 -1.6644  0.1367 -0.8936
 4378TIP3   OH234692   1.388   6.634   1.083 -0.5585  0.0695  0.0013
 4378TIP3    H134693   1.324   6.591   1.027 -0.3287 -0.0784 -0.1507
 4378TIP3    H234694   1.466   6.579   1.076  0.1935  1.2394 -1.2624
 4379TIP3   OH234695   6.667   1.754   1.298  0.2819  0.0241  0.6273
 4379TIP3    H134696   6.676   1.698   1.375  1.2782 -0.7505 -0.0192
 4379TIP3    H234697   6.757   1.777   1.274 -0.1005  2.5116  1.2750
 4380TIP3   OH234698   4.525   1.013   3.194  0.3943 -0.0414 -0.3868
 4380TIP3    H134699   4.460   1.044   3.257  0.9741  1.4993 -0.4873
 4380TIP3    H234700   4.541   0.922   3.218 -1.6104 -0.4035 -0.2249
 4381TIP3   OH234701   2.826   1.353   1.716 -0.2705  0.0895  0.2706
 4381TIP3    H134702   2.738   1.387   1.705  0.9776  3.4441 -0.5059
 4381TIP3    H234703   2.829   1.275   1.660 -2.6043  0.1142  0.0328
 4382TIP3   OH234704   6.052   5.611   4.123 -0.7073 -0.4312  0.1861
 4382TIP3    H134705   6.090   5.693   4.090 -0.2699 -0.6093  0.2477
 4382TIP3    H234706   5.996   5.639   4.196  0.6712 -0.3354  1.2401
 4383TIP3   OH234707   2.974   4.482   2.084  0.3586 -0.9830  0.9167
 4383TIP3    H134708   2.894   4.470   2.032  1.1897  0.3493 -0.7843
 4383TIP3    H234709   2.942   4.502   2.172 -1.2385 -0.0162  0.1780
 4384TIP3   OH234710   2.162   6.672   2.460  0.0156 -0.4400  0.2957
 4384TIP3    H134711   2.142   6.604   2.525 -0.8561 -1.9331 -1.4423
 4384TIP3    H234712   2.091   6.736   2.470 -0.9090 -1.3707 -0.0903
 4385TIP3   OH234713   5.314   4.271   0.957 -0.4304  0.6829 -0.2521
 4385TIP3    H134714   5.351   4.346   0.911 -0.3672  0.5278 -0.4571
 4385TIP3    H234715   5.384   4.206   0.957 -0.6884  0.4013 -0.6118
 4386TIP3   OH234716   2.550   0.545   1.071 -0.0736 -0.8084  0.3472
 4386TIP3    H134717   2.595   0.476   1.119 -1.1045 -1.1176  0.9168
 4386TIP3    H234718   2.479   0.572   1.129 -0.6330 -0.3582 -0.5197
 4387TIP3   OH234719   2.676   6.419   0.840 -0.9144 -0.1638 -0.1649
 4387TIP3    H134720   2.696   6.416   0.934 -0.5962  0.7358 -0.1918
 4387TIP3    H234721   2.723   6.496   0.809 -0.0444 -1.1270 -1.3085
 4388TIP3   OH234722   3.017   0.169   8.570 -0.6028 -0.3396 -0.2958
 4388TIP3    H134723   3.034   0.079   8.598  0.6242  0.1515  0.5977
 4388TIP3    H234724   2.978   0.210   8.646 -3.0459 -0.5882 -1.3125
 4389TIP3   OH234725   2.917   1.368   3.104 -0.3459 -0.4452 -0.4699
 4389TIP3    H134726   3.009   1.343   3.113 -0.2205  0.4508  1.0545
 4389TIP3    H234727   2.897   1.417   3.184 -1.3393  1.8705 -2.0485
 4390TIP3   OH234728   4.164   4.573   4.066  0.1694  0.1676  0.0972
 4390TIP3    H134729   4.152   4.480   4.088  0.9557  0.2656  1.0259
 4390TIP3    H234730   4.127   4.582   3.978 -0.5960 -0.8575  0.2964
 4391TIP3   OH234731   2.608   1.748   3.476 -0.4315 -0.2428  0.1735
 4391TIP3    H134732   2.644   1.800   3.404 -1.4828  0.3048  0.0119
 4391TIP3    H234733   2.536   1.699   3.436  0.4407 -1.7190  0.3647
 4392TIP3   OH234734   2.383   3.010   0.230 -0.7125 -0.5730 -0.2290
 4392TIP3    H134735   2.442   2.944   0.191  2.9879  1.9725  0.5361
 4392TIP3    H234736   2.342   3.052   0.155  2.1844  0.6565 -1.2868
 4393TIP3   OH234737   4.808   2.531   2.297 -0.3647 -0.0726  0.4595
 4393TIP3    H134738   4.836   2.439   2.297  0.8785  0.2607  2.0939
 4393TIP3    H234739   4.805   2.555   2.204  2.8775 -0.7598  0.0388
 4394TIP3   OH234740   3.480   3.713   4.329  0.3365 -0.5994  0.1638
 4394TIP3    H134741   3.508   3.622   4.341 -0.3502 -0.9054 -0.4254
 4394TIP3    H234742   3.550   3.766   4.366  0.4737 -1.3856  1.0455
 4395TIP3   OH234743   3.668   6.600   1.984 -0.2503 -0.1692  0.4928
 4395TIP3    H134744   3.653   6.598   2.079 -0.9980  2.2392  0.4961
 4395TIP3    H234745   3.584   6.576   1.946 -0.0294 -0.8597  0.4395
 4396TIP3   OH234746   1.977   4.667   2.653  0.1366  0.6218  0.2490
 4396TIP3    H134747   1.993   4.638   2.743  2.9209  0.1128 -0.3385
 4396TIP3    H234748   2.022   4.751   2.647  1.0724  0.0489 -1.0058
 4397TIP3   OH234749   1.472   2.454   2.782 -0.1871 -0.1552 -0.4921
 4397TIP3    H134750   1.521   2.519   2.832 -1.6351  0.7427 -0.1639
 4397TIP3    H234751   1.395   2.502   2.751 -0.4733 -1.3073 -1.6383
 4398TIP3   OH234752   0.710   4.241   3.559 -0.0632 -0.4300  0.0253
 4398TIP3    H134753   0.772   4.266   3.628 -0.9145  1.9958  0.0356
 4398TIP3    H234754   0.657   4.172   3.598  0.2161  0.1083  1.4179
 4399TIP3   OH234755   3.076   0.868   3.029  0.3279  0.4298  0.1818
 4399TIP3    H134756   3.155   0.814   3.026 -0.1537 -0.2407 -1.0909
 4399TIP3    H234757   3.009   0.814   2.987 -0.6645  1.2284  0.7170
 4400TIP3   OH234758   5.473   2.194   3.549  0.1656  0.0799  1.1325
 4400TIP3    H134759   5.476   2.105   3.514 -1.8986 -0.0207  1.0913
 4400TIP3    H234760   5.555   2.234   3.521  1.0737 -1.7651  1.0598
 4401TIP3   OH234761   6.697   6.047   3.566 -0.2729  0.1317 -0.3316
 4401TIP3    H134762   6.721   6.041   3.658 -1.3637 -0.6068 -0.0785
 4401TIP3    H234763   6.613   6.001   3.560  0.2447 -0.6677 -1.8716
 4402TIP3   OH234764   6.633   4.613   2.206 -0.2978  0.2714  0.4223
 4402TIP3    H134765   6.648   4.523   2.234 -3.8392 -0.8063 -0.6235
 4402TIP3    H234766   6.649   4.612   2.112  0.5157  0.9915  0.5413
 4403TIP3   OH234767   6.563   2.994   3.220  0.0044  0.3255  0.2835
 4403TIP3    H134768   6.625   2.941   3.171 -0.3146  1.3069 -1.2497
 4403TIP3    H234769   6.526   3.055   3.155  0.6311  2.6965  2.0051
 4404TIP3   OH234770   0.363   0.154   1.998  0.2808  0.4319 -0.1540
 4404TIP3    H134771   0.314   0.083   1.956 -0.0427  0.0672  0.8098
 4404TIP3    H234772   0.439   0.111   2.036  0.3946  0.7032 -0.0714
 4405TIP3   OH234773   2.429   0.536   0.081 -0.4310  0.0860  0.5062
 4405TIP3    H134774   2.393   0.460   0.127 -0.1540 -0.2437  0.1902
 4405TIP3    H234775   2.522   0.516   0.071 -0.0071  1.2320  1.9098
 4406TIP3   OH234776   2.423   4.048   2.971 -0.3241  0.5890 -0.1492
 4406TIP3    H134777   2.385   4.051   3.059  1.2769  0.4313  0.6001
 4406TIP3    H234778   2.452   4.138   2.955  1.5732  0.1620  0.5652
 4407TIP3   OH234779   4.335   6.786   1.029 -0.1526 -0.0154  0.4103
 4407TIP3    H134780   4.363   6.835   0.952 -1.1051  2.3266  1.4548
 4407TIP3    H234781   4.404   6.800   1.094  0.6984 -2.0643  0.0357
 4408TIP3   OH234782   5.728   0.280   2.663  0.0086 -0.0238  0.1594
 4408TIP3    H134783   5.637   0.308   2.671  0.2087  0.1720  2.6530
 4408TIP3    H234784   5.777   0.361   2.650 -0.0126  0.0994  0.8091
 4409TIP3   OH234785   1.474   2.088   8.502  0.6068  0.4427  0.0489
 4409TIP3    H134786   1.383   2.076   8.526  0.7272  0.2453  0.4210
 4409TIP3    H234787   1.495   2.013   8.446  0.5812  0.4065  0.0878
 4410TIP3   OH234788   2.928   3.559   0.898 -0.2912 -0.0765 -0.5909
 4410TIP3    H134789   2.919   3.482   0.842 -0.2068 -0.2012 -0.4329
 4410TIP3    H234790   2.926   3.633   0.837  0.4380 -0.2416 -0.8267
 4411TIP3   OH234791   4.199   2.492   3.302  0.2230 -0.0506  0.2438
 4411TIP3    H134792   4.197   2.463   3.393 -0.5451  0.2391  0.3302
 4411TIP3    H234793   4.237   2.418   3.254  0.1867 -0.3948  0.7371
 4412TIP3   OH234794   4.273   4.138   5.048  0.0262  0.0602 -0.3064
 4412TIP3    H134795   4.209   4.125   5.119 -0.8320 -3.9769 -1.5471
 4412TIP3    H234796   4.221   4.170   4.974  0.3559  1.2385 -0.0492
 4413TIP3   OH234797   3.422   1.440   4.053  0.3186  0.2723 -0.3698
 4413TIP3    H134798   3.511   1.407   4.043  0.6493  0.5916  1.2284
 4413TIP3    H234799   3.385   1.388   4.125 -1.1155 -0.4724 -1.5889
 4414TIP3   OH234800   3.565   2.208   8.547 -0.4843  0.4018 -0.4702
 4414TIP3    H134801   3.485   2.158   8.531 -1.2951  1.0717  1.3291
 4414TIP3    H234802   3.579   2.258   8.466 -0.0046 -2.1385 -2.0992
 4415TIP3   OH234803   0.962   5.211   1.006 -0.0372 -0.0174 -0.1960
 4415TIP3    H134804   0.920   5.207   0.919 -1.4159  0.2117  0.4341
 4415TIP3    H234805   0.903   5.160   1.062 -0.8814  2.4558  1.2791
 4416TIP3   OH234806   2.122   2.842   1.850 -0.3151  0.9015  0.0480
 4416TIP3    H134807   2.206   2.818   1.812 -0.6661 -0.7181  0.1981
 4416TIP3    H234808   2.057   2.801   1.793 -0.9146  0.4186  1.0483
 4417TIP3   OH234809   4.067   0.949   1.503  0.5953  0.7221 -0.0938
 4417TIP3    H134810   3.993   1.000   1.536  1.0180  0.1946  1.7955
 4417TIP3    H234811   4.028   0.884   1.445 -0.2552  1.2648 -0.1464
 4418TIP3   OH234812   3.319   6.846   3.973  0.1196  0.5408  0.5275
 4418TIP3    H134813   3.227   6.872   3.977 -0.3912 -1.1237  0.3439
 4418TIP3    H234814   3.351   6.883   3.891 -1.7004 -2.6377 -1.8359
 4419TIP3   OH234815   6.271   1.208   1.221 -0.1874  0.4018  0.2403
 4419TIP3    H134816   6.257   1.294   1.183 -1.4995 -0.8213 -2.3167
 4419TIP3    H234817   6.335   1.166   1.163  0.8704 -0.1991  1.7683
 4420TIP3   OH234818   0.184   5.740   1.158 -0.2740  0.0033 -0.1610
 4420TIP3    H134819   0.116   5.805   1.177 -1.0803 -1.2134  1.2748
 4420TIP3    H234820   0.136   5.665   1.123  0.7455  0.4710 -2.8221
 4421TIP3   OH234821   0.450   4.518   4.792  0.1870 -0.3670 -0.1031
 4421TIP3    H134822   0.452   4.458   4.718 -0.9593 -0.3475 -0.1705
 4421TIP3    H234823   0.521   4.580   4.776  0.7252 -1.0930 -0.5511
 4422TIP3   OH234824   1.474   0.921   1.134 -0.3888  0.0899  0.2797
 4422TIP3    H134825   1.478   0.939   1.228 -1.1518 -1.2276  0.5989
 4422TIP3    H234826   1.392   0.873   1.123 -1.2610  1.8632 -1.3782
 4423TIP3   OH234827   3.233   5.460   4.430 -0.0466 -0.4727  0.1203
 4423TIP3    H134828   3.278   5.542   4.411  1.0494 -1.3128 -1.0621
 4423TIP3    H234829   3.280   5.422   4.504  0.5568 -0.8586 -0.4550
 4424TIP3   OH234830   1.735   3.262   0.606 -0.1530 -0.2222 -0.0064
 4424TIP3    H134831   1.678   3.336   0.582  1.5498  1.0572 -0.3521
 4424TIP3    H234832   1.786   3.245   0.527 -0.3806 -1.6723  0.1352
 4425TIP3   OH234833   5.595   2.944   3.445  0.0374 -0.6835  0.1719
 4425TIP3    H134834   5.577   2.989   3.528  0.0008 -0.4835  0.0554
 4425TIP3    H234835   5.685   2.912   3.454  0.3681  0.1436 -0.0713
 4426TIP3   OH234836   4.762   5.555   8.485  1.1024  0.6183 -0.4721
 4426TIP3    H134837   4.855   5.576   8.490  1.4444 -0.7580  4.4883
 4426TIP3    H234838   4.718   5.637   8.505  1.3868  0.7642 -0.4312
 4427TIP3   OH234839   3.087   0.928   2.438 -0.1759  0.2174 -0.8858
 4427TIP3    H134840   3.177   0.907   2.414  0.7110  1.4163  1.0946
 4427TIP3    H234841   3.056   0.850   2.484  0.3975  0.3231 -0.2938
 4428TIP3   OH234842   6.422   1.390   1.891  0.4738  0.1942 -0.8822
 4428TIP3    H134843   6.331   1.381   1.863 -0.4576 -1.7148  2.1695
 4428TIP3    H234844   6.467   1.315   1.852  0.0127 -0.4632 -0.1968
 4429TIP3   OH234845   6.440   2.265   0.628 -0.2346 -0.1244  0.0783
 4429TIP3    H134846   6.375   2.335   0.625  0.7604  0.8874  1.0628
 4429TIP3    H234847   6.393   2.187   0.600 -1.5010  0.8362 -0.5670
 4430TIP3   OH234848   1.886   6.503   0.649 -0.1243  0.5618 -0.1869
 4430TIP3    H134849   1.954   6.536   0.590 -0.0405  0.7690  0.0248
 4430TIP3    H234850   1.811   6.560   0.635 -0.6404 -0.3215 -1.2167
 4431TIP3   OH234851   5.735   2.965   1.467  0.1746  0.0185  0.2118
 4431TIP3    H134852   5.663   2.972   1.529  1.1234 -1.3775  1.5554
 4431TIP3    H234853   5.781   3.049   1.472  0.3786 -0.1645  1.6036
 4432TIP3   OH234854   2.511   3.067   4.967  0.4219  0.1737  0.5407
 4432TIP3    H134855   2.454   3.042   4.895  1.7330 -0.7512 -0.2199
 4432TIP3    H234856   2.531   3.159   4.951 -2.7598  1.3088  2.1993
 4433TIP3   OH234857   3.652   3.230   3.930 -0.3753  0.2505 -0.5690
 4433TIP3    H134858   3.687   3.302   3.877 -0.3132  0.1457 -0.6705
 4433TIP3    H234859   3.558   3.231   3.912 -0.3770  0.3195 -0.5555
 4434TIP3   OH234860   2.273   0.286   3.067 -0.4807 -0.6295 -0.1962
 4434TIP3    H134861   2.232   0.342   3.000  0.2901  0.2800  0.0615
 4434TIP3    H234862   2.209   0.218   3.084 -1.9557  0.7910  0.2627
 4435TIP3   OH234863   6.042   3.259   2.096  0.0756 -0.0245 -0.0147
 4435TIP3    H134864   6.008   3.318   2.163 -0.1166 -1.7722  1.4995
 4435TIP3    H234865   5.991   3.281   2.018 -0.8060  1.0058  0.8085
 4436TIP3   OH234866   6.070   4.416   1.621  0.4186  0.2908 -0.1299
 4436TIP3    H134867   6.018   4.369   1.685 -0.1514  0.0122 -0.7824
 4436TIP3    H234868   6.088   4.501   1.661 -0.1629  0.2214  0.2804
 4437TIP3   OH234869   0.555   2.457   4.930  0.1701 -0.1728 -0.0231
 4437TIP3    H134870   0.502   2.521   4.977 -0.5855 -1.1960  0.5600
 4437TIP3    H234871   0.646   2.483   4.948 -0.1198  0.0602  1.1453
 4438TIP3   OH234872   2.770   3.394   4.532  0.4437 -0.2409  0.1063
 4438TIP3    H134873   2.687   3.376   4.576  0.4502 -1.7650 -0.4332
 4438TIP3    H234874   2.751   3.379   4.439  1.6508 -2.1666  0.1036
 4439TIP3   OH234875   4.857   3.923   3.342 -0.4278 -0.5735 -0.0195
 4439TIP3    H134876   4.778   3.879   3.374 -1.1861  0.9696  0.3594
 4439TIP3    H234877   4.888   3.973   3.417 -1.2455  1.7551 -1.1430
 4440TIP3   OH234878   2.068   5.404   1.613 -0.3583 -0.3193  0.1036
 4440TIP3    H134879   2.084   5.485   1.565 -0.8523 -0.3096 -0.0539
 4440TIP3    H234880   1.989   5.422   1.664 -0.9613 -0.9780 -0.5776
 4441TIP3   OH234881   5.631   3.435   3.971 -0.0459  0.3361 -0.6339
 4441TIP3    H134882   5.673   3.382   3.904 -1.8362  0.3053 -1.7805
 4441TIP3    H234883   5.702   3.490   4.006  0.8418  0.7051 -2.8694
 4442TIP3   OH234884   0.251   6.127   2.406  0.7960 -0.3856 -0.5430
 4442TIP3    H134885   0.296   6.069   2.345  0.4757  0.3996 -1.5554
 4442TIP3    H234886   0.267   6.088   2.492  2.6896 -0.5846 -0.9420
 4443TIP3   OH234887   4.414   2.508   0.723  0.0317 -0.0987  0.0493
 4443TIP3    H134888   4.368   2.435   0.682 -0.0800  0.7667 -1.4437
 4443TIP3    H234889   4.351   2.580   0.721  1.2456  0.9851 -1.6386
 4444TIP3   OH234890   0.009   5.496   3.140 -0.0136 -0.2690 -0.1426
 4444TIP3    H134891   0.027   5.469   3.050  1.9258  0.2353  0.0548
 4444TIP3    H234892  -0.039   5.423   3.179 -1.6108 -0.1665 -1.7835
 4445TIP3   OH234893   2.068   6.063   0.597  0.0484  0.3872  0.3679
 4445TIP3    H134894   2.022   6.144   0.573 -1.4888 -0.6274 -0.2805
 4445TIP3    H234895   2.117   6.086   0.675  0.0831  2.0929 -0.1101
 4446TIP3   OH234896   5.355   1.901   3.918  0.0621  1.2021  0.3060
 4446TIP3    H134897   5.329   1.839   3.849  0.8114  2.0132 -0.7434
 4446TIP3    H234898   5.298   1.879   3.992  0.3271 -0.7563 -0.0000
 4447TIP3   OH234899   2.405   5.871   1.162 -0.3164 -0.0898 -0.4702
 4447TIP3    H134900   2.405   5.776   1.178 -1.9682 -0.0406  0.0314
 4447TIP3    H234901   2.314   5.898   1.179  0.2418  1.6691 -0.1143
 4448TIP3   OH234902   4.166   4.451   2.788 -0.3531 -0.4310  0.1453
 4448TIP3    H134903   4.091   4.402   2.823 -0.8475 -3.5853 -4.4477
 4448TIP3    H234904   4.131   4.498   2.713  1.5557  1.4902  0.3697
 4449TIP3   OH234905   4.402   6.853   3.743  0.3982  0.6388 -0.0248
 4449TIP3    H134906   4.478   6.795   3.739  0.0891  0.2161  0.1482
 4449TIP3    H234907   4.405   6.891   3.831  0.8074  1.1738 -0.2657
 4450TIP3   OH234908   1.435   2.630   0.624 -0.6106 -0.5563 -0.0120
 4450TIP3    H134909   1.497   2.563   0.650  1.5023  0.5838 -1.7119
 4450TIP3    H234910   1.360   2.582   0.590 -0.5946 -1.9876  1.8392
 4451TIP3   OH234911   3.353   4.560   3.639  0.0859 -0.0434 -0.6235
 4451TIP3    H134912   3.333   4.598   3.725 -0.5901 -1.5227 -0.0752
 4451TIP3    H234913   3.406   4.483   3.660 -0.5910 -0.7632 -1.4619
 4452TIP3   OH234914   5.208   5.362   1.456  0.1452 -0.7098  0.4327
 4452TIP3    H134915   5.297   5.388   1.430 -0.2041 -0.7061 -0.7964
 4452TIP3    H234916   5.169   5.442   1.491  0.8537 -0.8803  1.6957
 4453TIP3   OH234917   1.213   4.152   3.566  0.2521  0.2872 -0.3025
 4453TIP3    H134918   1.191   4.229   3.514 -0.8932 -0.9402 -1.7292
 4453TIP3    H234919   1.137   4.139   3.623  0.3720  0.1493 -0.1741
 4454TIP3   OH234920   2.284   2.606   0.797 -0.1202  0.0224  0.1804
 4454TIP3    H134921   2.339   2.683   0.806  1.0841 -0.6236 -1.2462
 4454TIP3    H234922   2.309   2.550   0.871  1.4869 -0.4357 -0.6642
 4455TIP3   OH234923   6.133   0.868   2.804 -0.0330  0.1028  0.5339
 4455TIP3    H134924   6.132   0.962   2.818 -1.1717  0.4327 -1.3894
 4455TIP3    H234925   6.221   0.840   2.829  0.7279  1.8645 -0.0466
 4456TIP3   OH234926   3.692   1.317   3.053  0.3300  0.7022 -0.6380
 4456TIP3    H134927   3.755   1.247   3.072  0.7870  1.4553  0.7520
 4456TIP3    H234928   3.713   1.385   3.117 -1.2873  1.3599 -0.7802
 4457TIP3   OH234929   5.904   1.862   1.232 -0.6327  0.1225  0.2123
 4457TIP3    H134930   5.898   1.783   1.286  1.0543 -1.2509 -1.4767
 4457TIP3    H234931   5.990   1.898   1.251 -1.1795  1.2959  0.5706
 4458TIP3   OH234932   2.913   4.139   3.395 -0.3423  0.2376 -0.1571
 4458TIP3    H134933   2.870   4.085   3.461  1.3159 -0.2312  0.6003
 4458TIP3    H234934   2.958   4.076   3.339  1.9831  0.7648  0.9959
 4459TIP3   OH234935   4.843   5.067   3.590 -0.4782  0.2270 -0.1009
 4459TIP3    H134936   4.935   5.050   3.569 -0.6532 -2.4629  1.0000
 4459TIP3    H234937   4.802   5.085   3.506  0.8312  0.4737 -0.7190
 4460TIP3   OH234938   3.093   5.120   3.214  0.3362 -0.0770 -0.4535
 4460TIP3    H134939   3.056   5.164   3.290  0.9925 -0.7647  0.2759
 4460TIP3    H234940   3.187   5.139   3.218  0.5720 -1.2115 -0.3393
 4461TIP3   OH234941   1.956   2.111   0.385 -0.2896 -0.1441  0.3390
 4461TIP3    H134942   1.864   2.119   0.408 -0.1457 -0.2025  0.9569
 4461TIP3    H234943   1.956   2.087   0.292 -0.9019 -0.3378  0.3855
 4462TIP3   OH234944   2.632   6.469   2.483  0.7858 -0.3506 -0.5630
 4462TIP3    H134945   2.706   6.427   2.527  2.8310  1.5903 -1.9047
 4462TIP3    H234946   2.614   6.412   2.408  0.3460 -1.2652  0.2234
 4463TIP3   OH234947   0.224   4.608   3.335  0.1853 -0.3674 -0.1449
 4463TIP3    H134948   0.189   4.691   3.302 -1.7954 -1.7125 -1.6543
 4463TIP3    H234949   0.223   4.617   3.430  0.9448  1.6644 -0.2911
 4464TIP3   OH234950   2.230   1.796   1.769  0.7368 -0.0281  0.0569
 4464TIP3    H134951   2.145   1.835   1.748  0.9639  1.2402  1.3451
 4464TIP3    H234952   2.213   1.701   1.771 -0.4314  0.1489 -0.5729
 4465TIP3   OH234953   4.299   1.545   0.461 -0.0311 -0.1321  0.0801
 4465TIP3    H134954   4.330   1.479   0.398 -0.9614  0.7811 -1.3763
 4465TIP3    H234955   4.313   1.629   0.417 -0.6277  0.5439  1.1398
 4466TIP3   OH234956   1.153   4.985   2.176  0.1341 -0.6505 -0.4125
 4466TIP3    H134957   1.102   5.064   2.160  1.3569  0.4014  0.6787
 4466TIP3    H234958   1.194   4.965   2.091  0.2790  0.2288 -0.5547
 4467TIP3   OH234959   6.632   5.502   1.791  0.2559  0.2730  0.1675
 4467TIP3    H134960   6.644   5.580   1.846  1.0991  0.4903 -0.2947
 4467TIP3    H234961   6.646   5.534   1.702 -0.7512 -0.1452 -0.1518
 4468TIP3   OH234962   4.223   0.523   2.352  0.3028  0.2809  0.0069
 4468TIP3    H134963   4.168   0.446   2.340  2.3118 -1.3148  0.5563
 4468TIP3    H234964   4.185   0.589   2.294 -2.0691 -0.7607  0.2705
 4469TIP3   OH234965   0.617   5.749   2.477  0.1282 -0.3579 -0.3361
 4469TIP3    H134966   0.536   5.799   2.470  0.4732  0.0876 -1.2522
 4469TIP3    H234967   0.604   5.674   2.420 -0.0031 -0.7967  0.2639
 4470TIP3   OH234968   2.366   1.791   1.424  0.0488 -0.1439 -0.2231
 4470TIP3    H134969   2.362   1.774   1.330  1.1388 -0.5470 -0.2064
 4470TIP3    H234970   2.332   1.880   1.433 -1.6785 -0.7046 -0.7848
 4471TIP3   OH234971   4.189   6.100   0.911 -0.1601  0.2743  0.2026
 4471TIP3    H134972   4.121   6.035   0.930  0.9536 -0.6404  1.1464
 4471TIP3    H234973   4.184   6.162   0.984 -2.5185  2.4717 -1.6210
 4472TIP3   OH234974   3.450   5.505   3.114 -0.1983  0.0756 -0.7976
 4472TIP3    H134975   3.406   5.564   3.052 -0.5361 -1.1048 -1.7203
 4472TIP3    H234976   3.503   5.563   3.168 -1.0377  1.2977 -1.2294
 4473TIP3   OH234977   4.722   3.830   3.737 -0.4585  0.3477  0.1630
 4473TIP3    H134978   4.711   3.858   3.646 -0.6165 -1.0351 -0.2566
 4473TIP3    H234979   4.642   3.862   3.780 -0.3827  1.0159 -0.1684
 4474TIP3   OH234980   2.780   0.435   3.329  0.7874 -0.0246  0.0259
 4474TIP3    H134981   2.731   0.422   3.410  1.0427 -2.8263 -0.1745
 4474TIP3    H234982   2.735   0.506   3.285 -0.2189  0.6230  1.9587
 4475TIP3   OH234983   3.785   6.365   1.125  0.2072  0.7345 -0.1179
 4475TIP3    H134984   3.784   6.299   1.056  0.3101 -0.6706  1.1762
 4475TIP3    H234985   3.778   6.449   1.078  0.0781 -0.1720 -1.7987
 4476TIP3   OH234986   3.307   1.882   3.319  0.1566  0.2715  0.8202
 4476TIP3    H134987   3.317   1.963   3.369 -0.8928  0.6276  0.4936
 4476TIP3    H234988   3.213   1.862   3.326  0.2470 -0.4160  0.1374
 4477TIP3   OH234989   5.984   4.944   4.260 -0.2561 -0.2721 -0.7319
 4477TIP3    H134990   5.945   4.999   4.328  0.8494  0.5680 -0.7465
 4477TIP3    H234991   6.001   5.004   4.187 -0.3606 -0.9282 -1.3070
 4478TIP3   OH234992   5.200   4.904   3.956  0.1748 -0.3019  0.0631
 4478TIP3    H134993   5.153   4.951   4.024 -0.8292 -1.6744  0.3468
 4478TIP3    H234994   5.146   4.828   3.937  2.0546 -1.7250  0.0987
 4479TIP3   OH234995   6.188   2.142   3.790 -0.0448  0.7350 -0.2099
 4479TIP3    H134996   6.152   2.058   3.762  2.7269 -0.1266 -1.6065
 4479TIP3    H234997   6.137   2.166   3.867 -3.3906 -0.3183 -1.9082
 4480TIP3   OH234998   5.127   5.188   1.654 -0.1440  0.7095  0.0620
 4480TIP3    H134999   5.032   5.196   1.663  0.0859  3.5240  0.9449
 4480TIP3    H235000   5.150   5.246   1.582  0.9111  0.0034 -0.1930
 4481TIP3   OH235001   3.323   5.802   4.136  0.4170  0.1765  0.1850
 4481TIP3    H135002   3.292   5.793   4.046 -0.0471  1.5911  0.1762
 4481TIP3    H235003   3.276   5.878   4.170  0.0362 -0.7775  1.8736
 4482TIP3   OH235004   4.697   0.407   0.989  0.5184  0.7619  0.2047
 4482TIP3    H135005   4.679   0.465   0.915  0.8690 -0.8451 -1.2088
 4482TIP3    H235006   4.635   0.434   1.056 -0.1415  1.9676 -0.8449
 4483TIP3   OH235007   2.552   1.035   1.735  0.0577 -0.7172 -0.1387
 4483TIP3    H135008   2.637   1.039   1.779 -0.2362  1.1108  0.3599
 4483TIP3    H235009   2.492   1.003   1.801  0.2067 -1.2527 -0.2564
 4484TIP3   OH235010   3.164   0.607   0.986  0.1487 -0.1390  0.1636
 4484TIP3    H135011   3.195   0.637   1.072 -0.0045 -1.0082  0.5318
 4484TIP3    H235012   3.072   0.585   1.000 -0.3195  1.1652 -0.6123
 4485TIP3   OH235013   2.749   5.988   0.633  0.1542 -0.4710 -0.3838
 4485TIP3    H135014   2.656   5.982   0.655  0.2924  0.9415  0.6548
 4485TIP3    H235015   2.777   6.074   0.664  2.0422 -1.2273  0.2044
 4486TIP3   OH235016   5.816   2.833   1.937  0.0184 -0.3323  0.0068
 4486TIP3    H135017   5.857   2.827   2.024  0.7713 -0.1627 -0.3276
 4486TIP3    H235018   5.869   2.775   1.882  0.6561  0.9077 -0.7410
 4487TIP3   OH235019   0.189   4.561   2.848 -0.4057 -0.0340  0.5323
 4487TIP3    H135020   0.163   4.610   2.769 -2.7099  0.6192  1.5990
 4487TIP3    H235021   0.283   4.574   2.854 -0.2233  0.2286 -1.8823
 4488TIP3   OH235022   0.958   1.767   4.098 -0.2645  0.0192  0.7292
 4488TIP3    H135023   0.870   1.730   4.105 -1.2291  2.2615  1.4924
 4488TIP3    H235024   1.013   1.710   4.153 -0.8756 -2.2018 -0.8154
 4489TIP3   OH235025   3.399   3.601   3.227 -0.3672 -0.0863  0.2049
 4489TIP3    H135026   3.425   3.617   3.136 -0.7237 -0.8908 -0.0421
 4489TIP3    H235027   3.479   3.618   3.278  0.2483 -1.0506 -0.4063
 4490TIP3   OH235028   3.491   0.793   3.509 -0.1859  0.1396  0.1099
 4490TIP3    H135029   3.512   0.768   3.598  1.0240 -1.6361 -0.6148
 4490TIP3    H235030   3.402   0.762   3.495 -0.3635  0.3884  0.6769
 4491TIP3   OH235031   1.717   2.456   0.021  0.2372 -0.4397 -0.1271
 4491TIP3    H135032   1.652   2.496   0.078 -1.7829 -2.8978 -0.4993
 4491TIP3    H235033   1.802   2.483   0.057 -0.9471  1.8606  1.1323
 4492TIP3   OH235034   4.174   3.283   4.878  0.1853 -0.1424 -0.1797
 4492TIP3    H135035   4.136   3.357   4.832 -1.1301  0.1324  1.2670
 4492TIP3    H235036   4.161   3.303   4.971  1.9183 -1.0964  0.3150
 4493TIP3   OH235037   1.766   3.170   1.528  0.0353  0.1429  0.2916
 4493TIP3    H135038   1.677   3.196   1.505  0.0798 -0.6291 -0.8549
 4493TIP3    H235039   1.822   3.225   1.474  0.3620  1.9145  2.3135
 4494TIP3   OH235040   1.733   0.565   0.106  0.0849  0.6180 -0.0987
 4494TIP3    H135041   1.733   0.574   0.011  0.2056  2.2356  0.0193
 4494TIP3    H235042   1.670   0.495   0.123 -0.1021  0.4459 -1.3543
 4495TIP3   OH235043   1.205   5.236   3.074 -0.4226  0.1075  0.3691
 4495TIP3    H135044   1.170   5.193   3.152 -1.7057  1.4487  0.5816
 4495TIP3    H235045   1.175   5.182   3.002 -1.3745  0.1959  0.6757
 4496TIP3   OH235046   2.534   4.899   1.201 -0.2005 -0.0780  0.0181
 4496TIP3    H135047   2.470   4.904   1.272 -1.5539 -0.3983 -1.1397
 4496TIP3    H235048   2.559   4.990   1.186  0.6258 -0.0538  1.3215
 4497TIP3   OH235049   3.758   3.551   2.645  0.0408  0.3368  0.3836
 4497TIP3    H135050   3.832   3.490   2.648  0.8080  1.1573 -1.0677
 4497TIP3    H235051   3.725   3.544   2.556 -3.2580 -1.8035  1.5735
 4498TIP3   OH235052   3.608   0.833   1.568 -0.0613  0.2928  0.2818
 4498TIP3    H135053   3.652   0.750   1.548  0.2162  0.4776  0.1171
 4498TIP3    H235054   3.605   0.836   1.664 -0.7640 -0.2650  0.2928
 4499TIP3   OH235055   4.291   4.713   0.705  0.3633  0.0609 -0.5314
 4499TIP3    H135056   4.333   4.646   0.759  2.2789  1.9277  0.4405
 4499TIP3    H235057   4.319   4.692   0.616  3.4322  1.1321  0.0668
 4500TIP3   OH235058   0.872   0.641   3.613 -0.3755 -0.2087  0.8236
 4500TIP3    H135059   0.887   0.567   3.671 -0.5644 -0.2951  0.7633
 4500TIP3    H235060   0.950   0.696   3.623 -0.1133 -0.5501  0.6622
 4501TIP3   OH235061   2.144   6.801   0.420 -0.3616 -0.1528  0.4060
 4501TIP3    H135062   2.062   6.833   0.456 -0.6719  0.1281 -0.5283
 4501TIP3    H235063   2.125   6.712   0.390 -0.3383 -0.0664  0.1345
 4502TIP3   OH235064   5.746   5.639   8.541  0.3788 -0.7171  0.4978
 4502TIP3    H135065   5.654   5.649   8.516  0.6080  0.5193  0.0721
 4502TIP3    H235066   5.775   5.561   8.495 -0.6665 -1.5885  1.2718
 4503TIP3   OH235067   5.548   3.638   0.547  0.0074  0.2213 -0.1650
 4503TIP3    H135068   5.639   3.629   0.520 -0.2044  1.0359 -1.1859
 4503TIP3    H235069   5.503   3.563   0.507 -0.1821  1.0638 -1.5884
 4504TIP3   OH235070   6.406   5.418   0.780  0.1575 -0.7007  0.4946
 4504TIP3    H135071   6.478   5.405   0.718  0.2479 -0.3500  0.5221
 4504TIP3    H235072   6.447   5.460   0.856 -0.0430 -0.6563  0.5781
 4505TIP3   OH235073   1.071   2.982   0.862  0.3338 -0.5667  0.8159
 4505TIP3    H135074   1.139   3.032   0.907 -0.2911 -0.0514  1.2164
 4505TIP3    H235075   1.065   3.022   0.775  0.6291 -0.6987  0.7344
 4506TIP3   OH235076   0.025   2.495   0.646  0.5568 -0.4037  0.0283
 4506TIP3    H135077   0.115   2.511   0.619  1.2360  0.7721  2.6482
 4506TIP3    H235078  -0.016   2.581   0.648 -0.3214 -0.8056 -0.1273
 4507TIP3   OH235079   3.833   0.456   1.536 -0.1929 -0.0113 -0.3745
 4507TIP3    H135080   3.840   0.364   1.563 -1.3882 -0.8778 -2.7226
 4507TIP3    H235081   3.855   0.455   1.443  1.0995  2.3461 -0.1684
 4508TIP3   OH235082   0.861   0.184   2.363  0.0247  0.5769 -0.0737
 4508TIP3    H135083   0.822   0.180   2.276 -0.0580 -1.1278  0.0212
 4508TIP3    H235084   0.955   0.171   2.348  0.0117  0.2947  0.0857
 4509TIP3   OH235085   3.918   4.116   0.746 -0.4850 -0.8026  0.8049
 4509TIP3    H135086   4.008   4.126   0.776 -0.3540 -0.4272  0.3001
 4509TIP3    H235087   3.922   4.133   0.652 -1.0036 -1.2614  0.6912
 4510TIP3   OH235088   1.578   4.403   4.036  0.0155  0.6441  0.0771
 4510TIP3    H135089   1.654   4.374   4.086  1.2403  2.8204 -0.4021
 4510TIP3    H235090   1.614   4.432   3.952 -1.4167  1.2634 -0.3566
 4511TIP3   OH235091   1.375   2.925   3.233  0.2893 -0.1442 -0.2856
 4511TIP3    H135092   1.415   2.965   3.310 -1.0535  1.9245 -0.5784
 4511TIP3    H235093   1.326   2.850   3.268  0.0035  0.5387  0.8506
 4512TIP3   OH235094   5.852   3.840   2.749 -0.1861 -0.4291  0.0805
 4512TIP3    H135095   5.862   3.829   2.655 -2.2508 -2.6882  0.0146
 4512TIP3    H235096   5.870   3.753   2.786 -2.1258 -0.3402  1.4291
 4513TIP3   OH235097   5.336   4.649   1.018  0.7350 -0.0662 -0.4080
 4513TIP3    H135098   5.392   4.726   1.007  0.1667  0.4688  0.3619
 4513TIP3    H235099   5.308   4.627   0.929  1.3069  0.3005 -0.6906
 4514TIP3   OH235100   4.473   3.754   4.361 -0.0640 -0.0136  0.5634
 4514TIP3    H135101   4.524   3.717   4.433  0.4311  0.7690  0.6297
 4514TIP3    H235102   4.456   3.680   4.303 -0.5419 -0.6691  1.5178
 4515TIP3   OH235103   3.423   5.230   2.225  0.9032  0.3645  0.4268
 4515TIP3    H135104   3.489   5.292   2.195  0.7311  0.7685  0.8714
 4515TIP3    H235105   3.454   5.145   2.194  2.2015  0.3949  1.5399
 4516TIP3   OH235106   4.246   1.844   2.638  0.1285 -0.1390 -0.3858
 4516TIP3    H135107   4.229   1.929   2.598  1.6536  0.3169 -0.1307
 4516TIP3    H235108   4.169   1.792   2.617 -1.0633  1.4454 -0.1412
 4517TIP3   OH235109   2.568   4.557   1.170  0.0651  0.6165  0.0188
 4517TIP3    H135110   2.535   4.528   1.085 -1.0510  2.2085 -0.1414
 4517TIP3    H235111   2.661   4.536   1.168 -0.4858 -2.2609 -0.2983
 4518TIP3   OH235112   1.652   1.172   1.107 -0.0776  0.5324 -0.2344
 4518TIP3    H135113   1.595   1.100   1.132  0.2433  1.2147  2.8305
 4518TIP3    H235114   1.596   1.230   1.055 -1.2122 -0.3688 -0.0552
 4519TIP3   OH235115   2.340   4.803   1.978 -0.2022 -0.0814 -0.4386
 4519TIP3    H135116   2.429   4.787   2.010 -0.9485 -0.4466  1.5870
 4519TIP3    H235117   2.347   4.885   1.929  1.0815  0.4051  0.5019
 4520TIP3   OH235118   2.484   6.546   4.485 -0.4761  0.0414  0.1106
 4520TIP3    H135119   2.570   6.531   4.524 -0.6399 -1.2809  0.0382
 4520TIP3    H235120   2.431   6.582   4.556  0.3219  1.5985 -0.0514
 4521TIP3   OH235121   1.339   3.413   3.364 -0.0392 -0.1878 -0.3196
 4521TIP3    H135122   1.254   3.370   3.376 -0.5952  0.6561 -1.0511
 4521TIP3    H235123   1.364   3.390   3.274  1.1524 -1.4864  0.2961
 4522TIP3   OH235124   6.424   5.434   2.526  0.0489  0.6134 -0.3770
 4522TIP3    H135125   6.385   5.461   2.609 -1.1821 -0.5252 -0.5358
 4522TIP3    H235126   6.432   5.514   2.475 -1.0490  1.0446  0.1037
 4523TIP3   OH235127   3.663   1.933   3.651  0.6133 -0.0877  0.1663
 4523TIP3    H135128   3.736   1.946   3.711 -0.5352  0.7790  1.4294
 4523TIP3    H235129   3.657   2.015   3.602 -0.6266  0.5873  1.3742
 4524TIP3   OH235130   1.907   5.378   3.105  0.8451  0.3236 -0.4086
 4524TIP3    H135131   1.817   5.365   3.075  0.8291  2.0778 -1.2250
 4524TIP3    H235132   1.924   5.303   3.161 -1.3404  0.2741  0.2853
 4525TIP3   OH235133   6.739   3.764   0.685 -0.0820 -0.1743 -0.0437
 4525TIP3    H135134   6.710   3.774   0.594  0.3080  1.1210 -0.0505
 4525TIP3    H235135   6.812   3.824   0.694 -0.3361 -0.0145  1.2248
 4526TIP3   OH235136   5.958   2.866   4.455 -0.4472 -0.1058  0.3325
 4526TIP3    H135137   6.040   2.835   4.416 -1.3590 -0.9756 -0.9461
 4526TIP3    H235138   5.951   2.815   4.536  0.1697 -0.1712  0.3555
 4527TIP3   OH235139   4.298   3.428   0.568  0.5143  0.0526  0.3786
 4527TIP3    H135140   4.334   3.373   0.498  1.5180  0.4055  0.6038
 4527TIP3    H235141   4.343   3.512   0.559 -1.4566  1.1022 -0.3633
 4528TIP3   OH235142   6.499   4.322   2.556 -0.0139  0.3967  0.1713
 4528TIP3    H135143   6.406   4.310   2.575  0.3302 -1.0675  1.0805
 4528TIP3    H235144   6.506   4.305   2.461 -0.3959 -1.6437  0.4557
 4529TIP3   OH235145   3.731   6.477   1.673 -0.0912 -0.0793 -0.4795
 4529TIP3    H135146   3.742   6.534   1.750  0.6064 -0.4087 -0.3174
 4529TIP3    H235147   3.650   6.505   1.633  0.1133  0.8639 -0.2572
 4530TIP3   OH235148   6.702   2.468   2.783 -0.5223 -0.2099 -0.3008
 4530TIP3    H135149   6.680   2.558   2.803  1.9819  0.2116  0.8798
 4530TIP3    H235150   6.797   2.466   2.782 -0.4304 -3.2089  1.5996
 4531TIP3   OH235151   3.342   1.899   1.645 -0.4699  0.5650  0.0265
 4531TIP3    H135152   3.264   1.954   1.641 -0.7421  0.3802  2.1273
 4531TIP3    H235153   3.318   1.826   1.701  1.0545  0.2507  0.3157
 4532TIP3   OH235154   1.941   3.176   3.324 -0.3501 -0.1683  0.1018
 4532TIP3    H135155   1.934   3.171   3.228 -0.2502  0.6768  0.0367
 4532TIP3    H235156   1.925   3.087   3.354  1.1375 -0.7756 -0.7989
 4533TIP3   OH235157   0.544   1.271   4.044 -0.3971 -0.1841  0.1669
 4533TIP3    H135158   0.494   1.288   4.124  1.5048  0.4428  1.2813
 4533TIP3    H235159   0.625   1.320   4.056 -0.0753 -0.0604 -2.1868
 4534TIP3   OH235160   0.826   5.360   2.554  0.4422  0.4819  0.0945
 4534TIP3    H135161   0.783   5.442   2.527  0.1619  0.5273  0.6675
 4534TIP3    H235162   0.893   5.388   2.616  0.0908  0.2513  0.5889
 4535TIP3   OH235163   1.832   4.141   1.563  0.1360 -0.3295  0.0029
 4535TIP3    H135164   1.898   4.096   1.511 -0.6448  1.6762 -2.9927
 4535TIP3    H235165   1.751   4.093   1.547 -0.0501  0.1139 -0.4214
 4536TIP3   OH235166   0.778   6.552   3.618  0.1629  0.1298  0.4623
 4536TIP3    H135167   0.814   6.465   3.597 -1.4612 -0.4332 -0.0811
 4536TIP3    H235168   0.683   6.540   3.615 -0.0897  2.0372 -0.0540
 4537TIP3   OH235169   3.609   0.149   2.104  0.2448 -0.2722  0.7538
 4537TIP3    H135170   3.697   0.123   2.131  0.1108 -0.7223  0.7648
 4537TIP3    H235171   3.608   0.138   2.009  0.5193  0.7184  0.6201
 4538TIP3   OH235172   4.189   1.475   4.473  0.0309 -0.5659 -0.2711
 4538TIP3    H135173   4.107   1.447   4.513 -0.2113  0.3760 -0.0731
 4538TIP3    H235174   4.225   1.396   4.433 -0.1867 -1.3278  0.9923
 4539TIP3   OH235175   4.613   3.956   0.481 -0.0094  0.2005 -0.0297
 4539TIP3    H135176   4.619   3.972   0.386 -1.0520  0.8870  0.0010
 4539TIP3    H235177   4.702   3.937   0.508  0.1128 -1.3707 -1.3835
 4540TIP3   OH235178   2.447   5.600   1.244  0.3640  0.5969 -0.3847
 4540TIP3    H135179   2.435   5.527   1.184  1.3730  0.1066 -0.0036
 4540TIP3    H235180   2.374   5.592   1.306  3.0327 -3.2453  2.8038
 4541TIP3   OH235181   1.440   5.212   2.087 -0.2059 -0.1685  0.4508
 4541TIP3    H135182   1.532   5.234   2.074 -0.1764 -1.1430 -1.1317
 4541TIP3    H235183   1.428   5.215   2.182  0.9332  1.9500  0.5725
 4542TIP3   OH235184   2.592   6.811   2.261  0.3164 -0.0989 -0.7498
 4542TIP3    H135185   2.629   6.738   2.212  0.3876 -2.0027  1.9074
 4542TIP3    H235186   2.643   6.813   2.343 -1.8051  0.8109  0.6267
 4543TIP3   OH235187   3.629   3.278   4.898  0.0743 -0.2997  0.0175
 4543TIP3    H135188   3.696   3.211   4.886 -0.6440 -1.2481  1.0873
 4543TIP3    H235189   3.667   3.340   4.961  0.8209  0.4506 -1.1302
 4544TIP3   OH235190   0.512   5.219   0.711 -0.0031  0.6856  0.1770
 4544TIP3    H135191   0.557   5.177   0.784  1.8543  1.3243 -0.5399
 4544TIP3    H235192   0.579   5.273   0.669 -0.8940  0.0807 -2.2153
 4545TIP3   OH235193   3.580   3.951   1.404  0.4395  0.8766 -0.4945
 4545TIP3    H135194   3.514   3.900   1.451  0.7496 -2.7483 -3.6238
 4545TIP3    H235195   3.663   3.920   1.439  0.6035 -0.1928 -1.7662
 4546TIP3   OH235196   3.309   6.436   4.677 -0.2421  0.8184 -0.0617
 4546TIP3    H135197   3.238   6.424   4.615  0.0835  1.4647 -0.5721
 4546TIP3    H235198   3.314   6.531   4.690 -1.2330  0.6518  2.0382
 4547TIP3   OH235199   6.103   4.143   3.526  0.3163  0.3450 -0.2076
 4547TIP3    H135200   6.084   4.232   3.558 -0.0817  0.7035 -1.3940
 4547TIP3    H235201   6.144   4.157   3.440  1.8598 -0.5718  0.3294
 4548TIP3   OH235202   0.397   3.834   0.108 -0.2043  0.8684 -0.8543
 4548TIP3    H135203   0.410   3.929   0.102 -1.6766  1.1343 -0.1262
 4548TIP3    H235204   0.318   3.817   0.057  1.3798 -0.3563 -3.0756
 4549TIP3   OH235205   4.321   5.649   1.882 -0.4859 -0.2858 -0.4187
 4549TIP3    H135206   4.236   5.693   1.874  0.8511  2.2089 -2.1503
 4549TIP3    H235207   4.385   5.717   1.862  1.8603 -2.5560 -1.1149
 4550TIP3   OH235208   3.763   6.143   4.725 -0.2773  0.2980 -0.4494
 4550TIP3    H135209   3.800   6.058   4.698  1.5163  1.2765 -1.2461
 4550TIP3    H235210   3.815   6.168   4.801 -0.3040  1.0291 -0.6688
 4551TIP3   OH235211   5.650   3.901   4.628 -0.2544  0.1689 -0.1289
 4551TIP3    H135212   5.557   3.901   4.652 -0.0744  0.1401  0.5969
 4551TIP3    H235213   5.681   3.815   4.657  0.0637  0.2969 -0.0867
 4552TIP3   OH235214   4.136   3.572   4.411 -0.3204  0.5239 -0.4339
 4552TIP3    H135215   4.131   3.534   4.499 -0.0574  0.3776 -0.4798
 4552TIP3    H235216   4.202   3.519   4.366 -0.6614  0.4163 -0.8109
 4553TIP3   OH235217   5.824   4.946   1.711  0.0611 -0.0291 -0.2356
 4553TIP3    H135218   5.905   4.897   1.729 -1.7964 -3.1033  0.5312
 4553TIP3    H235219   5.784   4.957   1.797 -1.1893 -0.2273 -0.7764
 4554TIP3   OH235220   6.051   5.319   3.906  0.3835  0.8177 -0.0302
 4554TIP3    H135221   6.007   5.383   3.962  1.1745  2.9921 -1.7130
 4554TIP3    H235222   6.143   5.344   3.909  0.8417 -0.7495 -0.1683
 4555TIP3   OH235223   5.644   4.326   4.060  0.0118 -0.6295  0.1465
 4555TIP3    H135224   5.615   4.370   3.980  0.9425 -1.0737 -0.4463
 4555TIP3    H235225   5.563   4.302   4.105 -0.5155  0.7211 -0.0452
 4556TIP3   OH235226   0.984   4.701   4.604  0.3455  0.4462 -0.3410
 4556TIP3    H135227   0.989   4.659   4.690  4.2272 -0.7976 -0.9644
 4556TIP3    H235228   0.896   4.682   4.573 -0.0431 -2.0973  1.9470
 4557TIP3   OH235229   6.098   5.449   0.229 -0.0241 -0.3207  0.1820
 4557TIP3    H135230   6.140   5.473   0.311  2.4363  0.5478 -1.2188
 4557TIP3    H235231   6.060   5.363   0.245  0.8712 -0.4031  2.0650
 4558TIP3   OH235232   1.591   6.445   4.302 -0.1546 -0.4803  0.3840
 4558TIP3    H135233   1.504   6.424   4.336 -1.1027  3.4688  0.9400
 4558TIP3    H235234   1.652   6.413   4.369 -1.0019 -3.8158 -0.2851
 4559TIP3   OH235235   6.429   0.926   3.942 -0.3986  0.0548  0.0116
 4559TIP3    H135236   6.439   0.950   4.035 -0.2979 -0.0404  0.0251
 4559TIP3    H235237   6.492   0.855   3.929 -0.4680  0.0172 -0.1112
 4560TIP3   OH235238   3.360   3.519   2.232  0.6264  0.4722  0.1960
 4560TIP3    H135239   3.449   3.497   2.207  0.4491  0.6345 -0.5828
 4560TIP3    H235240   3.348   3.474   2.316  0.4415 -2.0897 -1.0824
 4561TIP3   OH235241   2.825   6.548   1.685 -0.3461  0.3046 -0.2922
 4561TIP3    H135242   2.884   6.608   1.640 -0.0504 -0.3200 -0.7499
 4561TIP3    H235243   2.776   6.604   1.746  1.3678  0.6970  0.7829
 4562TIP3   OH235244   2.273   3.838   1.280 -0.1848  0.2784 -0.0340
 4562TIP3    H135245   2.195   3.840   1.224 -1.1860  1.3416  1.3215
 4562TIP3    H235246   2.283   3.746   1.303 -0.1572 -0.0737 -1.4025
 4563TIP3   OH235247   0.624   1.252   1.432  0.0329  0.2558  0.3440
 4563TIP3    H135248   0.643   1.222   1.343  0.2538 -0.7553  0.7301
 4563TIP3    H235249   0.705   1.291   1.463 -0.2988  1.4432 -0.2139
 4564TIP3   OH235250   5.057   1.117   1.150 -0.2613  0.4594  0.4583
 4564TIP3    H135251   4.974   1.136   1.106 -0.5156  0.4219  0.9196
 4564TIP3    H235252   5.101   1.202   1.158 -1.1366  0.7927  1.9942
 4565TIP3   OH235253   1.248   0.896   3.904 -0.4315 -0.1126  0.2154
 4565TIP3    H135254   1.234   0.878   3.997 -0.4241 -2.4569 -0.1562
 4565TIP3    H235255   1.338   0.870   3.888 -0.2620  0.7950 -0.3579
 4566TIP3   OH235256   4.937   4.896   1.727 -0.5187 -0.0318  0.7745
 4566TIP3    H135257   4.842   4.885   1.735 -0.8547  0.6615 -1.4960
 4566TIP3    H235258   4.959   4.963   1.792 -1.9486  1.2664 -0.0271
 4567TIP3   OH235259   4.544   2.232   1.103  0.1622 -0.1438 -0.2162
 4567TIP3    H135260   4.553   2.195   1.191 -0.1127 -0.4944 -0.3339
 4567TIP3    H235261   4.634   2.251   1.076  0.3644 -1.2529 -0.3713
 4568TIP3   OH235262   3.736   1.456   2.088  0.1331  0.1650  0.0938
 4568TIP3    H135263   3.715   1.458   1.995  0.6695 -1.6075 -0.0967
 4568TIP3    H235264   3.768   1.367   2.104  0.7880  0.6611  1.8114
 4569TIP3   OH235265   1.577   4.174   4.212 -0.0496 -0.7390 -0.0423
 4569TIP3    H135266   1.591   4.094   4.263  1.1150  0.0171  0.8931
 4569TIP3    H235267   1.665   4.199   4.184 -0.2796  0.6840  0.4438
 4570TIP3   OH235268   4.550   3.677   3.214  0.0351  0.1558  0.4400
 4570TIP3    H135269   4.592   3.591   3.206 -0.3577 -0.0392  0.4076
 4570TIP3    H235270   4.459   3.656   3.235 -0.3843  0.5188 -0.9025
 4571TIP3   OH235271   5.282   3.484   1.158  0.4693 -0.1493  0.2176
 4571TIP3    H135272   5.219   3.545   1.197 -0.6305 -0.6241 -0.7594
 4571TIP3    H235273   5.301   3.521   1.072 -0.7028 -1.4859 -0.6509
 4572TIP3   OH235274   2.708   3.372   3.249 -0.0909  0.3317  0.8884
 4572TIP3    H135275   2.785   3.379   3.193 -0.2480 -3.9443 -0.1864
 4572TIP3    H235276   2.742   3.379   3.338  0.9142  2.2003  0.4015
 4573TIP3   OH235277   5.761   2.194   4.153 -0.4440 -0.2172 -0.2716
 4573TIP3    H135278   5.696   2.147   4.102 -0.6715  1.2258 -1.3835
 4573TIP3    H235279   5.738   2.286   4.142 -0.1823  0.1897  2.0459
 4574TIP3   OH235280   2.996   0.052   1.674 -0.6879 -0.2614  0.4268
 4574TIP3    H135281   2.993  -0.002   1.595  1.2098 -0.4973  0.4514
 4574TIP3    H235282   3.073   0.019   1.722  0.1101  1.9681  0.8048
 4575TIP3   OH235283   0.156   0.761   0.591 -0.0359  0.2349  0.3285
 4575TIP3    H135284   0.087   0.828   0.589 -0.4702 -0.1875  0.8252
 4575TIP3    H235285   0.144   0.717   0.676  0.8221  0.1327  0.4054
 4576TIP3   OH235286   1.383   1.128   2.708 -0.2848  0.0196  0.1716
 4576TIP3    H135287   1.425   1.144   2.793  1.4114  0.0971 -0.6430
 4576TIP3    H235288   1.411   1.200   2.653  0.3578 -1.1232 -1.0501
 4577TIP3   OH235289   2.778   1.264   3.419 -0.6954  0.0219  0.1211
 4577TIP3    H135290   2.827   1.340   3.386 -0.7080  0.2618  0.6472
 4577TIP3    H235291   2.748   1.291   3.506 -0.9633 -0.4742  0.1838
 4578TIP3   OH235292   3.852   3.113   4.964  0.3124  0.0201 -0.3258
 4578TIP3    H135293   3.898   3.196   4.978  0.4962  0.0378 -0.9879
 4578TIP3    H235294   3.904   3.049   5.011  1.7178 -0.1601 -2.0050
 4579TIP3   OH235295   3.295   3.386   4.550  0.1975  0.2641  0.3726
 4579TIP3    H135296   3.220   3.419   4.599 -0.2917  0.0367 -0.2122
 4579TIP3    H235297   3.346   3.335   4.614  0.6057  1.5693  1.1179
 4580TIP3   OH235298   3.291   6.517   2.262 -0.1625  0.1751 -0.3923
 4580TIP3    H135299   3.276   6.446   2.199 -1.3041  1.1460 -1.2362
 4580TIP3    H235300   3.324   6.472   2.340  0.8867 -1.1001 -1.5062
 4581TIP3   OH235301   6.098   2.089   4.452  0.2296  0.1038  0.3325
 4581TIP3    H135302   6.185   2.060   4.479  1.3089  0.3655 -2.5355
 4581TIP3    H235303   6.090   2.178   4.487  0.5298 -0.3694  1.6863
 4582TIP3   OH235304   1.053   1.985   4.269  0.1875 -0.2637 -0.1211
 4582TIP3    H135305   1.138   2.005   4.231  1.1110 -0.4856  1.7194
 4582TIP3    H235306   1.008   1.933   4.203  0.8095  1.2548 -1.8057
 4583TIP3   OH235307   4.204   0.661   1.459  0.2344 -0.2804  0.5437
 4583TIP3    H135308   4.134   0.684   1.521 -0.8263 -0.7959 -0.4232
 4583TIP3    H235309   4.161   0.662   1.373  1.4799 -0.3774 -0.0999
 4584TIP3   OH235310   3.710   5.765   0.279  0.5867  0.1701  0.1066
 4584TIP3    H135311   3.728   5.680   0.240  0.3340  0.5848 -0.9308
 4584TIP3    H235312   3.784   5.820   0.251 -0.6236  1.0368 -1.5782
 4585TIP3   OH235313   6.495   6.614   1.716  0.6484  0.1402  0.1667
 4585TIP3    H135314   6.495   6.521   1.738  1.4414  0.0079 -0.3517
 4585TIP3    H235315   6.517   6.617   1.623 -0.4622  0.7974 -0.0870
 4586TIP3   OH235316   5.394   6.382   1.255  0.5976  0.1743  0.1395
 4586TIP3    H135317   5.476   6.378   1.207 -0.1853  2.5887 -1.5970
 4586TIP3    H235318   5.338   6.317   1.211  0.7071  0.5221 -0.5314
 4587TIP3   OH235319   4.977   1.848   0.075 -0.1114 -0.2636  0.4017
 4587TIP3    H135320   5.072   1.837   0.076 -0.0193 -0.2194 -1.8259
 4587TIP3    H235321   4.947   1.806   0.155  1.9127  1.4677  2.2031
 4588TIP3   OH235322   1.770   4.912   3.217  0.1527 -0.3740  0.3940
 4588TIP3    H135323   1.730   4.918   3.130 -0.6249  0.7055  0.8091
 4588TIP3    H235324   1.728   4.981   3.268  0.0034 -1.4942  1.8687
 4589TIP3   OH235325   3.455   3.000   1.808 -0.2772  0.2474 -0.0227
 4589TIP3    H135326   3.389   2.931   1.818 -1.3185  0.8718 -2.1395
 4589TIP3    H235327   3.435   3.063   1.877 -1.6107  0.1973 -0.3402
 4590TIP3   OH235328   4.731   4.689   4.578  0.1251 -0.8397 -0.1920
 4590TIP3    H135329   4.688   4.759   4.628 -1.3004  0.6106 -3.2030
 4590TIP3    H235330   4.753   4.623   4.644 -0.4457  1.4483  2.4871
 4591TIP3   OH235331   6.572   3.848   0.479 -0.2743  0.1200 -0.0445
 4591TIP3    H135332   6.611   3.878   0.397 -0.5171  0.8969  0.1213
 4591TIP3    H235333   6.479   3.834   0.457 -0.5350  1.2133  0.3164
 4592TIP3   OH235334   0.812   0.908   1.428  0.0554  0.2620  0.1664
 4592TIP3    H135335   0.782   0.835   1.374  1.6555  0.2762 -0.8326
 4592TIP3    H235336   0.735   0.935   1.478 -1.4721  0.0721 -1.9212
 4593TIP3   OH235337   2.883   0.152   1.032  0.4087  0.2974  0.0852
 4593TIP3    H135338   2.850   0.232   0.991 -1.7520 -0.2649  0.5751
 4593TIP3    H235339   2.894   0.090   0.960 -1.2279  0.0065  0.0479
 4594TIP3   OH235340   4.260   3.233   0.760 -0.5495 -0.6671 -0.4077
 4594TIP3    H135341   4.297   3.297   0.700 -1.4809 -0.0561 -0.3449
 4594TIP3    H235342   4.334   3.176   0.783  0.0299 -0.3176 -1.3555
 4595TIP3   OH235343   6.287   6.125   0.964  0.3355 -0.2314  0.1361
 4595TIP3    H135344   6.357   6.089   0.909 -1.4037 -2.0164 -1.0616
 4595TIP3    H235345   6.233   6.049   0.986 -1.3934  1.1207  0.7683
 4596TIP3   OH235346   3.541   3.819   2.240  0.0503 -0.1525 -0.7165
 4596TIP3    H135347   3.624   3.809   2.193 -0.1623 -0.2944 -1.0637
 4596TIP3    H235348   3.544   3.751   2.308 -1.0610 -2.2384 -2.5951
 4597TIP3   OH235349   1.296   4.529   2.666  0.0160  0.3117  0.5175
 4597TIP3    H135350   1.384   4.523   2.703 -0.0211  0.5210  0.6437
 4597TIP3    H235351   1.241   4.480   2.726  0.3476 -1.5630 -0.6115
 4598TIP3   OH235352   3.621   4.430   4.859 -0.1119 -0.1789  0.2527
 4598TIP3    H135353   3.625   4.430   4.955  0.2360  1.0643  0.2535
 4598TIP3    H235354   3.541   4.477   4.839  0.9528  1.5952 -0.0600
 4599TIP3   OH235355   1.264   5.540   1.849 -0.2729 -0.3849  0.4015
 4599TIP3    H135356   1.184   5.490   1.835  0.1343 -0.3863 -2.5122
 4599TIP3    H235357   1.234   5.628   1.871 -1.0141 -0.8245  1.2004
 4600TIP3   OH235358   5.747   1.276   2.797  0.7691  0.1411 -0.6608
 4600TIP3    H135359   5.666   1.241   2.760 -0.7441 -0.8165  3.0861
 4600TIP3    H235360   5.811   1.206   2.784  0.4631  0.0747 -1.8897
 4601TIP3   OH235361   5.285   0.926   3.951  0.3491  0.0880 -0.1382
 4601TIP3    H135362   5.303   0.974   3.870 -2.1193  0.7547 -0.3629
 4601TIP3    H235363   5.195   0.895   3.941 -0.4965  1.2826  2.8572
 4602TIP3   OH235364   1.152   1.414   1.427  0.0010 -0.0608 -0.1887
 4602TIP3    H135365   1.170   1.378   1.340  0.3453 -0.7517  0.1644
 4602TIP3    H235366   1.226   1.472   1.445  1.3125 -1.9391  0.7350
 4603TIP3   OH235367   0.422   1.351   4.270 -0.1079  0.2637  0.1040
 4603TIP3    H135368   0.385   1.439   4.274 -0.8441  0.0913 -2.0042
 4603TIP3    H235369   0.346   1.293   4.281  0.0137 -0.0895 -0.8154
 4604TIP3   OH235370   5.932   4.774   3.669 -0.5542 -0.1825 -0.0862
 4604TIP3    H135371   5.990   4.720   3.723 -0.8466 -0.8488 -0.4186
 4604TIP3    H235372   5.845   4.737   3.683 -0.6411 -0.3202 -0.9533
 4605TIP3   OH235373   6.058   0.543   1.018  0.3060  0.2820 -0.4432
 4605TIP3    H135374   6.019   0.507   0.939 -0.6030 -1.0092  0.5468
 4605TIP3    H235375   6.131   0.483   1.039  1.1725  1.1748 -0.8214
 4606TIP3   OH235376   1.777   5.015   3.571 -0.2006  0.2995 -0.3600
 4606TIP3    H135377   1.790   5.106   3.599 -0.9353  0.0399  0.8991
 4606TIP3    H235378   1.716   5.021   3.498  1.8320  1.0018 -2.1290
 4607TIP3   OH235379   3.619   1.440   0.515 -0.4435  0.4731  0.1896
 4607TIP3    H135380   3.560   1.513   0.535 -0.5642  0.0715  1.3531
 4607TIP3    H235381   3.699   1.460   0.562 -0.0249  0.4640 -0.5033
 4608TIP3   OH235382   3.501   1.389   8.385  0.2907  0.1237 -0.4339
 4608TIP3    H135383   3.438   1.447   8.428  0.3008 -0.2507  0.0949
 4608TIP3    H235384   3.568   1.448   8.352  0.2028  0.4365 -0.0671
 4609TIP3   OH235385   4.501   4.314   4.378 -0.7924 -0.5418  0.7405
 4609TIP3    H135386   4.430   4.302   4.441 -0.3063  1.3493  1.7024
 4609TIP3    H235387   4.579   4.323   4.431 -0.2942  0.6137 -0.1414
 4610TIP3   OH235388   0.546   4.402   2.428  0.2550  0.1302 -0.2449
 4610TIP3    H135389   0.640   4.413   2.413  0.1407  0.9617 -0.3915
 4610TIP3    H235390   0.520   4.334   2.366  0.4725  0.9923 -1.3059
 4611TIP3   OH235391   3.980   1.375   4.636  0.4646 -0.5315  0.1279
 4611TIP3    H135392   3.894   1.408   4.663  0.6801 -0.6959  1.0371
 4611TIP3    H235393   3.968   1.280   4.628  1.1354 -0.8935  2.6374
 4612TIP3   OH235394   3.011   6.746   3.267  0.7480  0.2394 -0.2475
 4612TIP3    H135395   3.074   6.809   3.302  1.2878 -0.6857  0.4971
 4612TIP3    H235396   2.974   6.704   3.345 -0.9739  0.9184 -0.6624
 4613TIP3   OH235397   0.794   0.739   4.074 -0.3987 -0.0663 -0.4245
 4613TIP3    H135398   0.861   0.680   4.110  1.2198  0.4018 -2.4921
 4613TIP3    H235399   0.842   0.817   4.047 -1.8902  0.5700 -1.3732
 4614TIP3   OH235400   4.793   3.184   2.211 -0.2952  0.4296  0.2518
 4614TIP3    H135401   4.793   3.118   2.280 -0.6187  0.0194 -0.1361
 4614TIP3    H235402   4.729   3.249   2.241  1.3350  1.5406  1.5243
 4615TIP3   OH235403   5.132   1.394   0.661  0.8759  0.2420  0.7444
 4615TIP3    H135404   5.168   1.380   0.749  0.5486 -3.4331  0.4276
 4615TIP3    H235405   5.109   1.307   0.630 -1.9476  1.7139 -1.8109
 4616TIP3   OH235406   5.654   1.484   2.562  0.2481 -0.4378  0.4348
 4616TIP3    H135407   5.657   1.570   2.519  1.9047 -0.6546  0.0581
 4616TIP3    H235408   5.580   1.490   2.623 -0.9344  0.5590 -1.0121
 4617TIP3   OH235409   0.239   6.454   1.969  0.0754 -0.8697  0.1896
 4617TIP3    H135410   0.303   6.519   1.940 -0.9498 -0.4772 -1.2593
 4617TIP3    H235411   0.156   6.501   1.972 -0.6534 -2.0513 -0.7013
 4618TIP3   OH235412   1.173   6.568   2.686 -0.2137  0.2961  0.0472
 4618TIP3    H135413   1.215   6.482   2.689 -0.6198  0.0726 -0.5108
 4618TIP3    H235414   1.080   6.550   2.702 -0.1458  0.7570  0.9982
 4619TIP3   OH235415   4.176   1.893   3.379  0.0429 -0.3160  0.5882
 4619TIP3    H135416   4.116   1.845   3.436 -1.1114 -0.7785 -0.9156
 4619TIP3    H235417   4.129   1.973   3.358  1.1935  0.6672  1.6292
 4620TIP3   OH235418   0.522   5.819   3.101 -0.0508  0.2180  0.2864
 4620TIP3    H135419   0.559   5.907   3.102  0.7799  0.0865 -3.5609
 4620TIP3    H235420   0.440   5.829   3.051 -0.3321 -1.0723  0.4643
 4621TIP3   OH235421   0.708   1.040   0.651 -0.4565 -0.2807  0.5188
 4621TIP3    H135422   0.700   1.017   0.558 -1.7777  0.0790  0.5258
 4621TIP3    H235423   0.738   1.131   0.650 -0.1028 -0.3947  0.4582
 4622TIP3   OH235424   0.305   3.757   2.393 -0.2506 -0.3742 -0.1441
 4622TIP3    H135425   0.317   3.851   2.385 -2.6018  0.0295  0.2228
 4622TIP3    H235426   0.368   3.719   2.332  1.9101  1.3014  0.8816
 4623TIP3   OH235427   0.830   4.156   0.013 -0.2191  0.1746 -0.0938
 4623TIP3    H135428   0.813   4.223   0.078 -0.8919  0.5750 -0.6674
 4623TIP3    H235429   0.808   4.197  -0.071  1.2082 -0.1315 -0.6443
 4624TIP3   OH235430   3.517   0.388   2.213  0.6167  0.4770 -0.1256
 4624TIP3    H135431   3.566   0.342   2.145 -0.1260 -1.9612  0.8629
 4624TIP3    H235432   3.445   0.328   2.236 -0.0323  1.8623  1.7408
 4625TIP3   OH235433   1.170   1.837   0.745 -0.1516  0.0886 -0.2379
 4625TIP3    H135434   1.231   1.768   0.771 -0.4955 -1.2299 -2.6203
 4625TIP3    H235435   1.084   1.799   0.763 -0.3327  0.1518 -0.9741
 4626TIP3   OH235436   3.227   4.471   5.240 -0.6160  0.3478  0.5625
 4626TIP3    H135437   3.152   4.457   5.184 -1.3359  2.7907  0.8080
 4626TIP3    H235438   3.290   4.519   5.186  1.8155 -3.3807 -0.3312
 4627TIP3   OH235439   2.169   5.103   0.539  0.4505 -0.0164 -0.1392
 4627TIP3    H135440   2.133   5.124   0.452  3.0302 -1.2027 -1.6061
 4627TIP3    H235441   2.142   5.013   0.555  1.4824 -0.4096 -0.5674
 4628TIP3   OH235442   1.079   2.208   4.451 -0.0949 -0.1640  0.5275
 4628TIP3    H135443   1.081   2.166   4.365  1.1555 -0.3899  0.6429
 4628TIP3    H235444   1.027   2.149   4.506 -1.7866  0.4978 -0.3019
 4629TIP3   OH235445   2.978   0.776   2.655  0.0316  0.4063  0.2344
 4629TIP3    H135446   2.930   0.743   2.579 -0.0719  0.2148  0.3814
 4629TIP3    H235447   2.938   0.731   2.729  0.5940  0.0670  0.3403
 4630TIP3   OH235448   3.069   6.413   3.313 -0.6159  0.5997 -0.4564
 4630TIP3    H135449   3.129   6.405   3.239 -1.8630  1.1994 -1.5680
 4630TIP3    H235450   2.983   6.394   3.277 -1.1027 -0.4269  1.1514
 4631TIP3   OH235451   5.688   5.934   1.427  0.1075  0.2372  0.1214
 4631TIP3    H135452   5.776   5.967   1.411  0.5316 -0.8603  0.1134
 4631TIP3    H235453   5.684   5.918   1.521  0.3924 -0.9886 -0.0589
 4632TIP3   OH235454   1.232   1.469   0.636  0.1589 -0.0595  0.5634
 4632TIP3    H135455   1.256   1.459   0.728 -0.4906 -0.2288  0.7220
 4632TIP3    H235456   1.290   1.538   0.603 -1.6484  2.2317  1.8926
 4633TIP3   OH235457   1.494   0.812   1.404  0.1479 -0.4386  0.0696
 4633TIP3    H135458   1.481   0.864   1.483  0.4035  1.8516 -1.3123
 4633TIP3    H235459   1.408   0.808   1.363  0.7308  1.9182 -1.5434
 4634TIP3   OH235460   4.719   3.407   4.422  0.8155  0.9085  0.2330
 4634TIP3    H135461   4.690   3.337   4.365  1.4592 -0.2720  1.3016
 4634TIP3    H235462   4.815   3.405   4.416  0.8662  1.1992  0.8233
 4635TIP3   OH235463   3.433   3.814   2.855  0.6025 -0.6060  0.8555
 4635TIP3    H135464   3.503   3.829   2.792 -0.7525 -2.0404 -1.1330
 4635TIP3    H235465   3.378   3.892   2.848 -0.2637 -1.3113 -0.8410
 4636TIP3   OH235466   5.473   0.106   2.668  0.2657 -0.6204 -0.2097
 4636TIP3    H135467   5.453   0.195   2.640 -1.0967 -0.8499 -0.0484
 4636TIP3    H235468   5.470   0.109   2.763  1.1944 -0.6348 -0.1768
 4637TIP3   OH235469   0.640   2.173   1.300  0.0906 -0.2744 -0.6778
 4637TIP3    H135470   0.613   2.125   1.222 -0.8115 -1.0795  0.0861
 4637TIP3    H235471   0.735   2.165   1.302  0.0808 -0.6477 -1.4436
 4638TIP3   OH235472   0.922   2.536   1.053 -0.1488  0.2617 -0.0914
 4638TIP3    H135473   0.890   2.455   1.013  1.2122 -0.5958  0.4832
 4638TIP3    H235474   0.850   2.565   1.109 -1.1895  0.2308 -1.3664
 4639TIP3   OH235475   0.621   1.958   4.044 -0.4114 -0.2219  0.3654
 4639TIP3    H135476   0.628   1.868   4.075  0.6160  0.8803  3.7066
 4639TIP3    H235477   0.711   1.990   4.039 -0.6666  0.3332 -1.9977
 4640TIP3   OH235478   6.790   1.599   0.794  0.3712 -0.5541  0.4435
 4640TIP3    H135479   6.722   1.551   0.840 -0.5220  0.9240  0.7520
 4640TIP3    H235480   6.864   1.538   0.787 -0.4676 -1.7029  1.3884
 4641TIP3   OH235481   4.916   2.293   3.453  0.2701  0.4021  0.0825
 4641TIP3    H135482   4.994   2.302   3.507 -0.4953  0.3532  1.2240
 4641TIP3    H235483   4.855   2.359   3.487 -0.9059 -0.8571  0.5046
 4642TIP3   OH235484   4.628   3.836   3.430 -0.2568 -0.2421  0.8624
 4642TIP3    H135485   4.587   3.794   3.354 -0.0923  1.3376 -0.1595
 4642TIP3    H235486   4.554   3.877   3.476 -0.1127  0.8890  0.1420
 4643TIP3   OH235487   2.589   1.788   4.123 -0.0157  0.5471 -0.4051
 4643TIP3    H135488   2.653   1.801   4.193 -0.6343  3.9234 -0.2934
 4643TIP3    H235489   2.642   1.783   4.043  0.5399 -0.5214  0.0072
 4644TIP3   OH235490   3.828   2.352   3.656 -0.4529 -0.2191 -0.2315
 4644TIP3    H135491   3.884   2.428   3.674 -1.4854  0.7105 -0.8399
 4644TIP3    H235492   3.887   2.277   3.665  0.5452  0.6219  0.5903
 4645TIP3   OH235493   5.634   0.723   4.626  0.0626 -0.6696 -0.3849
 4645TIP3    H135494   5.724   0.731   4.659 -0.0428 -1.0979  0.0238
 4645TIP3    H235495   5.601   0.644   4.668 -0.2014 -1.0292 -1.2653
 4646TIP3   OH235496   1.737   5.630   0.062  0.0152  0.0377 -0.6268
 4646TIP3    H135497   1.766   5.545   0.028  1.3008  0.5716 -0.9207
 4646TIP3    H235498   1.724   5.684  -0.016  1.3096  0.7510 -0.3670
 4647TIP3   OH235499   5.158   4.921   1.280 -0.6553 -0.4897 -0.2654
 4647TIP3    H135500   5.246   4.910   1.317 -0.0603 -0.5513 -1.6546
 4647TIP3    H235501   5.146   5.016   1.277 -0.7229 -0.4838  0.1005
 4648TIP3   OH235502   1.140   1.618   3.019 -0.2678 -0.2988  0.0200
 4648TIP3    H135503   1.163   1.672   3.095  0.5992 -0.7423  0.0842
 4648TIP3    H235504   1.076   1.555   3.053 -0.0260 -0.3753  0.3359
 4649TIP3   OH235505   1.611   3.650   1.534 -0.0433 -0.0487  0.3592
 4649TIP3    H135506   1.678   3.596   1.576  0.5020  0.3832  0.0531
 4649TIP3    H235507   1.528   3.618   1.571  0.4079  0.2318  1.6696
 4650TIP3   OH235508   1.636   2.421   4.778 -0.2580  0.5757 -0.1488
 4650TIP3    H135509   1.707   2.464   4.731  0.1482  0.1446  0.0503
 4650TIP3    H235510   1.656   2.436   4.870 -0.0070 -0.1726 -0.0697
 4651TIP3   OH235511   4.412   4.222   3.032 -0.4134 -0.0621  0.8381
 4651TIP3    H135512   4.336   4.167   3.017 -0.3428 -0.4200  1.7413
 4651TIP3    H235513   4.378   4.312   3.032 -0.6014 -0.1217 -0.1707
 4652TIP3   OH235514   1.594   5.371   1.690 -0.6232 -0.1840 -0.0677
 4652TIP3    H135515   1.567   5.363   1.782  0.5923 -2.6190  0.1735
 4652TIP3    H235516   1.663   5.438   1.691  0.0906 -0.8951  1.0272
 4653TIP3   OH235517   1.318   0.261   4.143  0.3400  0.2383 -0.0917
 4653TIP3    H135518   1.227   0.287   4.132  0.3210 -0.2594 -1.2946
 4653TIP3    H235519   1.314   0.168   4.164  0.5945 -0.0814 -1.3759
 4654TIP3   OH235520   0.821   1.988   1.861  0.0206  0.3041  0.1624
 4654TIP3    H135521   0.756   2.048   1.898 -0.9625  0.1767 -1.2734
 4654TIP3    H235522   0.798   1.902   1.898 -1.2127  0.1055 -0.9802
 4655TIP3   OH235523   3.138   2.165   2.707  0.6214 -0.0333  0.5588
 4655TIP3    H135524   3.166   2.172   2.799  2.3717 -0.7291  0.1220
 4655TIP3    H235525   3.188   2.233   2.662  1.4203 -1.0828 -0.1987
 4656TIP3   OH235526   0.364   1.975   3.845 -0.0575  0.1694 -0.2825
 4656TIP3    H135527   0.347   2.067   3.829 -1.9216 -0.3671 -1.8297
 4656TIP3    H235528   0.278   1.938   3.868  0.7593 -1.0612  0.9163
 4657TIP3   OH235529   5.439   4.429   3.464  0.1887  1.0335  0.0429
 4657TIP3    H135530   5.444   4.337   3.440 -0.9032  1.1160 -0.5698
 4657TIP3    H235531   5.381   4.431   3.540 -0.5514  1.2960 -0.5167
 4658TIP3   OH235532   3.057   3.436   3.897  0.1821  0.0464  0.5476
 4658TIP3    H135533   3.081   3.528   3.892  0.4642  0.0687  1.9961
 4658TIP3    H235534   3.094   3.397   3.817  1.6734  0.8382  0.8174
 4659TIP3   OH235535   1.049   3.268   4.790 -0.5438  0.0520  0.5603
 4659TIP3    H135536   0.959   3.282   4.819 -1.2823  0.2699 -1.6202
 4659TIP3    H235537   1.102   3.326   4.845 -1.6237 -0.5264  2.2855
 4660TIP3   OH235538   0.385   6.843   0.845 -0.1601 -0.0255  0.2301
 4660TIP3    H135539   0.422   6.770   0.797  2.9577  0.3016  1.8298
 4660TIP3    H235540   0.347   6.804   0.924  1.5657 -0.0272  1.1177
 4661TIP3   OH235541   2.146   3.190   3.702 -1.4890 -0.5003 -0.6578
 4661TIP3    H135542   2.223   3.229   3.660 -0.8302 -2.5406 -1.4877
 4661TIP3    H235543   2.142   3.231   3.788  0.6035 -0.3857 -0.5562
 4662TIP3   OH235544   4.389   3.165   4.032 -0.1958 -0.5248  0.2557
 4662TIP3    H135545   4.375   3.256   4.005 -0.7218 -0.5631  0.3863
 4662TIP3    H235546   4.434   3.125   3.958  0.9152  0.0792  0.5760
 4663TIP3   OH235547   4.762   2.607   2.769  0.4695 -0.0397  0.2848
 4663TIP3    H135548   4.814   2.656   2.831  1.6206 -1.4193  0.4528
 4663TIP3    H235549   4.691   2.570   2.821  1.2072 -0.8662  0.7287
 4664TIP3   OH235550   6.860   2.539   3.198  0.0540 -1.1795  0.2840
 4664TIP3    H135551   6.767   2.542   3.220 -0.2412 -1.8561 -0.8096
 4664TIP3    H235552   6.867   2.473   3.129  1.1352 -0.1636 -0.6289
 4665TIP3   OH235553   6.421   5.935   1.170  0.0198  0.2812 -0.3335
 4665TIP3    H135554   6.488   5.944   1.102  0.7334 -0.6585  0.2160
 4665TIP3    H235555   6.342   5.910   1.123  0.7119 -1.2181 -0.7742
 4666TIP3   OH235556   1.687   2.917   1.186 -0.1240 -0.2568  0.2483
 4666TIP3    H135557   1.737   2.910   1.105 -0.1670  2.0504 -0.0432
 4666TIP3    H235558   1.750   2.949   1.251 -0.8071  1.2044  0.2420
 4667TIP3   OH235559   5.136   2.941   2.809  0.5344 -0.1516 -0.2604
 4667TIP3    H135560   5.195   2.960   2.883 -0.9497 -1.5122  1.3830
 4667TIP3    H235561   5.071   3.010   2.812 -0.7647 -1.3566  1.1658
 4668TIP3   OH235562   3.543   0.210   1.167  0.3470 -0.1290  0.4763
 4668TIP3    H135563   3.463   0.174   1.206 -0.0948  1.1135  0.7753
 4668TIP3    H235564   3.614   0.158   1.204 -0.3149 -1.2325  0.2244
 4669TIP3   OH235565   4.637   6.804   3.454  0.2577  0.4896 -0.3450
 4669TIP3    H135566   4.587   6.722   3.452  0.0917  0.5603  0.6421
 4669TIP3    H235567   4.691   6.798   3.532  0.6445  1.1014 -0.5571
 4670TIP3   OH235568   5.843   3.221   1.548  0.1204  0.5534 -0.4205
 4670TIP3    H135569   5.932   3.246   1.574  0.4829 -0.4193 -0.7018
 4670TIP3    H235570   5.788   3.246   1.623  0.8297 -0.0944  0.3331
 4671TIP3   OH235571   3.489   0.047   4.509 -0.9002  0.8076  0.0802
 4671TIP3    H135572   3.474   0.139   4.489 -0.4278  0.9388  0.3224
 4671TIP3    H235573   3.410   0.003   4.478 -0.9736  1.2456 -0.3647
 4672TIP3   OH235574   1.404   3.203   1.508  0.0056 -0.1238 -0.1165
 4672TIP3    H135575   1.425   3.116   1.473 -0.5258 -0.3439  0.1152
 4672TIP3    H235576   1.447   3.264   1.447 -0.7482 -0.5101 -1.0593
 4673TIP3   OH235577   2.516   3.192   3.266  0.1477 -0.0680 -0.3092
 4673TIP3    H135578   2.427   3.216   3.242 -0.6131  0.2711  2.4979
 4673TIP3    H235579   2.565   3.274   3.263  0.2929 -0.1796 -1.4209
 4674TIP3   OH235580   1.279   3.427   3.891  0.1871  0.1395  0.6144
 4674TIP3    H135581   1.216   3.450   3.959  1.1116  0.4584  1.3803
 4674TIP3    H235582   1.241   3.462   3.810 -0.2619  0.9764  1.1738
 4675TIP3   OH235583   0.265   0.815   2.199  0.0421  0.4044 -0.2482
 4675TIP3    H135584   0.314   0.893   2.176 -0.9553  1.0826 -0.1205
 4675TIP3    H235585   0.257   0.819   2.294  1.0379 -0.5119 -0.0966
 4676TIP3   OH235586   0.861   3.126   0.322 -0.3262  0.1987 -0.4412
 4676TIP3    H135587   0.924   3.081   0.266 -0.6531 -0.4023 -0.3412
 4676TIP3    H235588   0.911   3.195   0.365 -0.2788  1.3147 -2.1958
 4677TIP3   OH235589   5.947   2.494   1.902  0.5360  0.4268 -0.4257
 4677TIP3    H135590   5.946   2.538   1.987  0.1939 -0.1151 -0.1451
 4677TIP3    H235591   6.012   2.542   1.850  0.0049  1.3980 -0.2014
 4678TIP3   OH235592   3.895   3.345   4.622  0.3419  0.0421  0.3453
 4678TIP3    H135593   3.922   3.414   4.682  1.6643  0.7462 -0.9822
 4678TIP3    H235594   3.868   3.391   4.542 -0.3114 -0.9058  0.0037
 4679TIP3   OH235595   3.343   3.999   1.910  0.2120  0.0998  0.3587
 4679TIP3    H135596   3.397   4.076   1.893 -1.0386  1.0519  0.5952
 4679TIP3    H235597   3.330   3.998   2.005  1.1167 -1.0438  0.4960
 4680TIP3   OH235598   6.405   2.986   0.659  0.8589 -0.2738  0.1029
 4680TIP3    H135599   6.310   2.995   0.659  0.9112  0.3749  0.6689
 4680TIP3    H235600   6.433   3.017   0.573  0.5244 -0.9393 -0.2522
 4681TIP3   OH235601   0.666   1.357   1.018  1.2502  0.3949 -0.1939
 4681TIP3    H135602   0.601   1.347   0.949  0.1016 -0.6919  0.9711
 4681TIP3    H235603   0.669   1.451   1.036  2.9610  0.9498 -2.9315
 4682TIP3   OH235604   1.865   4.786   2.957 -0.4045 -0.3013 -0.2096
 4682TIP3    H135605   1.925   4.717   2.985 -0.6334  0.7444  3.2926
 4682TIP3    H235606   1.778   4.749   2.968 -0.5579  0.6065  2.3565
 4683TIP3   OH235607   0.808   4.480   3.432 -0.8867  0.3442 -0.1814
 4683TIP3    H135608   0.759   4.515   3.358 -0.4252 -0.1801 -0.7451
 4683TIP3    H235609   0.777   4.390   3.441 -0.5300  0.2272 -0.1023
 4684TIP3   OH235610   5.643   0.651   2.778  0.2564  0.7371  0.0510
 4684TIP3    H135611   5.706   0.586   2.808  0.7187  0.8778 -0.5958
 4684TIP3    H235612   5.572   0.647   2.842 -0.6835 -1.8195 -1.0573
 4685TIP3   OH235613   5.780   5.277   2.867  0.3077 -0.1809 -0.3274
 4685TIP3    H135614   5.790   5.330   2.788  0.4128 -0.6778 -0.6481
 4685TIP3    H235615   5.798   5.338   2.939  1.3297  0.0088 -0.7294
 4686TIP3   OH235616   0.354   1.226   2.847 -0.1238 -0.0370  0.3702
 4686TIP3    H135617   0.400   1.239   2.765 -1.2320  1.2537 -0.0906
 4686TIP3    H235618   0.423   1.215   2.913  0.8081  0.8750 -0.4292
 4687TIP3   OH235619   4.674   5.129   3.392 -0.4926 -0.8334  0.4462
 4687TIP3    H135620   4.700   5.199   3.333 -1.6741  0.1625  1.0622
 4687TIP3    H235621   4.603   5.084   3.347 -1.1090 -0.3364  0.8961
 4688TIP3   OH235622   4.664   4.974   2.974 -0.3301  0.3235 -0.0740
 4688TIP3    H135623   4.572   4.957   2.952 -0.6308  2.1902 -0.4671
 4688TIP3    H235624   4.713   4.910   2.924 -1.3333  0.6709 -1.5653
 4689TIP3   OH235625   2.881   3.407   2.188  0.2924 -0.2064  0.3435
 4689TIP3    H135626   2.827   3.328   2.179 -0.3529  0.2121  0.4936
 4689TIP3    H235627   2.918   3.421   2.101  0.8165 -0.9578  0.4347
 4690TIP3   OH235628   0.319   5.662   2.530  0.3908 -0.2420  0.0696
 4690TIP3    H135629   0.362   5.645   2.446  0.9674 -0.4800  0.4085
 4690TIP3    H235630   0.233   5.698   2.506  0.2797 -0.9350 -0.6338
 4691TIP3   OH235631   5.481   1.196   2.716 -0.1409  0.6207 -0.3157
 4691TIP3    H135632   5.388   1.215   2.718 -0.8350 -2.1630 -1.1775
 4691TIP3    H235633   5.502   1.185   2.623  1.0228  1.0283 -0.1289
 4692TIP3   OH235634   6.744   6.652   3.393  0.0007 -0.4396 -0.0196
 4692TIP3    H135635   6.684   6.623   3.462  0.0188 -0.3246  0.0455
 4692TIP3    H235636   6.733   6.747   3.390  1.2803 -0.2226  1.0450
 4693TIP3   OH235637   0.017   4.481   1.238 -0.1547 -0.2813 -0.2790
 4693TIP3    H135638   0.057   4.425   1.172  0.7341  0.3154 -0.2510
 4693TIP3    H235639  -0.025   4.551   1.189  0.1855 -0.0419 -0.2263
 4694TIP3   OH235640   4.498   3.823   1.955  0.4895 -0.4128  0.0206
 4694TIP3    H135641   4.417   3.845   2.001  1.2562  0.2486  1.1115
 4694TIP3    H235642   4.475   3.825   1.862 -0.8137 -0.5723  0.3264
 4695TIP3   OH235643   6.375   4.745   1.395 -0.5407  0.1352 -0.9933
 4695TIP3    H135644   6.398   4.652   1.394 -3.0695 -0.6552  1.5778
 4695TIP3    H235645   6.296   4.751   1.342 -0.4431  0.8197 -1.0761
 4696TIP3   OH235646   5.189   2.226   3.546 -0.3981 -0.3708 -0.7181
 4696TIP3    H135647   5.151   2.168   3.612  0.6066  0.7122  0.9242
 4696TIP3    H235648   5.283   2.207   3.550 -0.2795 -0.0056 -1.5872
 4697TIP3   OH235649   2.176   2.008   0.513  0.4563  0.3809  0.0270
 4697TIP3    H135650   2.128   1.971   0.439  0.9330 -1.7855  0.7511
 4697TIP3    H235651   2.119   2.078   0.546 -0.3759  0.4741 -1.5111
 4698TIP3   OH235652   1.138   0.265   2.038 -0.4981  0.1641  0.0764
 4698TIP3    H135653   1.204   0.284   1.972 -0.3581  0.0839  0.1925
 4698TIP3    H235654   1.186   0.222   2.109 -0.7244 -0.1723  0.0315
 4699TIP3   OH235655   1.177   5.272   0.803 -0.8015 -0.1923  0.4938
 4699TIP3    H135656   1.116   5.290   0.732 -0.5943 -2.7360 -0.4219
 4699TIP3    H235657   1.249   5.333   0.788 -1.8504  0.9492 -0.0394
 4700TIP3   OH235658   4.773   6.232   0.933 -0.3651 -0.1684  0.0518
 4700TIP3    H135659   4.833   6.235   0.858  0.2606 -0.3732  0.5324
 4700TIP3    H235660   4.777   6.141   0.963  0.1841  0.1474  0.9575
 4701TIP3   OH235661   2.925   2.435   1.686 -0.3230 -0.2548  0.0823
 4701TIP3    H135662   2.897   2.521   1.717 -0.1908 -0.2268  0.1269
 4701TIP3    H235663   3.006   2.418   1.734  1.1886  0.8194 -1.8853
 4702TIP3   OH235664   2.707   2.393   1.491  0.4654 -0.1999 -0.3406
 4702TIP3    H135665   2.690   2.304   1.520  1.4651 -0.1782  0.3358
 4702TIP3    H235666   2.782   2.422   1.542 -0.6087  1.4836  0.3669
 4703TIP3   OH235667   4.678   5.915   1.670  0.4122  0.3544 -0.0190
 4703TIP3    H135668   4.690   5.879   1.582  0.5770 -0.1166  0.1887
 4703TIP3    H235669   4.657   6.007   1.656 -2.2201 -0.2631 -0.6593
 4704TIP3   OH235670   6.163   5.209   4.206  0.0003 -0.1489 -0.0742
 4704TIP3    H135671   6.090   5.231   4.148 -1.1487  0.0982  1.4061
 4704TIP3    H235672   6.219   5.287   4.205  0.3451 -0.3962 -1.3394
 4705TIP3   OH235673   0.545   6.434   2.483 -0.7318 -0.2074 -0.1434
 4705TIP3    H135674   0.623   6.389   2.517 -0.8079 -0.3426 -0.1432
 4705TIP3    H235675   0.509   6.480   2.559 -1.3248 -1.1227  0.1478
 4706TIP3   OH235676   3.861   5.263   1.875  0.7196  0.0506  0.5974
 4706TIP3    H135677   3.889   5.204   1.944  1.8252 -0.2595 -0.0862
 4706TIP3    H235678   3.889   5.220   1.794  1.4932  1.4587  0.0778
 4707TIP3   OH235679   1.509   4.472   1.307 -0.6851  0.1090  0.1945
 4707TIP3    H135680   1.534   4.474   1.399 -0.0148  0.8734  0.0018
 4707TIP3    H235681   1.413   4.479   1.308 -0.9068 -2.1926  0.9101
 4708TIP3   OH235682   3.141   3.642   3.288  0.1434 -0.6116 -0.7500
 4708TIP3    H135683   3.144   3.616   3.380  1.6186  0.0382 -0.5883
 4708TIP3    H235684   3.220   3.605   3.250 -0.7723 -1.4434 -1.9520
 4709TIP3   OH235685   2.426   6.449   2.676  0.4397  0.4600 -0.0285
 4709TIP3    H135686   2.363   6.516   2.652  0.2934  0.4563  0.3311
 4709TIP3    H235687   2.502   6.465   2.620 -0.4494 -0.4841 -1.5559
 4710TIP3   OH235688   3.309   6.353   3.208 -0.2698 -0.1318  0.1354
 4710TIP3    H135689   3.400   6.323   3.217 -0.9528 -2.6429 -0.5708
 4710TIP3    H235690   3.310   6.442   3.242  2.8575  0.6797 -1.6900
 4711TIP3   OH235691   4.569   6.094   1.957  0.2446  0.4249  0.3700
 4711TIP3    H135692   4.568   6.021   1.894  0.6758  0.3967  0.3961
 4711TIP3    H235693   4.607   6.167   1.909 -0.3623  0.6911  0.2863
 4712TIP3   OH235694   4.094   0.075   3.310  0.0293 -0.1690  0.0789
 4712TIP3    H135695   4.122  -0.006   3.266  0.8515 -1.2026  2.3202
 4712TIP3    H235696   4.140   0.073   3.394 -0.9444  2.0158  0.7349
 4713TIP3   OH235697   2.220   2.440   3.096  0.0635  0.0031 -0.7388
 4713TIP3    H135698   2.251   2.387   3.023  2.5352 -0.4171  0.4983
 4713TIP3    H235699   2.138   2.397   3.124 -0.0010 -0.8487 -2.1421
 4714TIP3   OH235700   2.336   1.402   4.033  0.0408  0.2433  0.1935
 4714TIP3    H135701   2.348   1.464   4.105 -0.3380  0.2294  0.2721
 4714TIP3    H235702   2.381   1.322   4.062 -2.7710 -0.8716  1.8534
 4715TIP3   OH235703   1.844   1.933   1.863 -0.0441  0.3822 -0.1006
 4715TIP3    H135704   1.765   1.938   1.917  0.3664  0.8099  0.4761
 4715TIP3    H235705   1.907   1.886   1.918  0.8777  2.1501  0.4388
 4716TIP3   OH235706   1.992   2.387   4.374 -0.0129 -0.2316  0.3115
 4716TIP3    H135707   2.070   2.387   4.429  0.5441 -0.6431 -0.4662
 4716TIP3    H235708   1.924   2.427   4.429  0.2191 -1.6686  1.7174
 4717TIP3   OH235709   5.620   1.923   1.633  0.4043  0.4297 -0.3155
 4717TIP3    H135710   5.551   1.982   1.660  0.1618  1.2116 -2.4437
 4717TIP3    H235711   5.625   1.934   1.538 -0.8162 -4.1668 -1.1590
 4718TIP3   OH235712   4.649   5.263   1.232  0.1292  0.0017 -0.1985
 4718TIP3    H135713   4.641   5.169   1.247  4.7840 -0.7942 -1.2658
 4718TIP3    H235714   4.661   5.301   1.319 -1.4102 -0.3318  0.1996
 4719TIP3   OH235715   2.663   1.063   3.757 -0.4493 -0.0623  0.0781
 4719TIP3    H135716   2.669   0.973   3.789  0.1581 -0.2720 -0.6087
 4719TIP3    H235717   2.730   1.111   3.805  0.7852 -0.4784 -1.1817
 4720TIP3   OH235718   1.202   3.185   2.465  0.1404  0.0686 -0.0905
 4720TIP3    H135719   1.136   3.167   2.398  0.5823 -1.6372 -0.1125
 4720TIP3    H235720   1.283   3.151   2.428  0.4197 -0.7738  1.2404
 4721TIP3   OH235721   6.461   1.641   2.379  0.2500  0.6590 -0.5952
 4721TIP3    H135722   6.540   1.598   2.411  0.6416 -0.4107 -2.8197
 4721TIP3    H235723   6.453   1.612   2.288 -3.3428 -0.2175 -0.1335
 4722TIP3   OH235724   4.288   5.447   4.580 -0.2480 -0.3785 -0.5188
 4722TIP3    H135725   4.310   5.487   4.664  0.4855 -0.6088 -0.5960
 4722TIP3    H235726   4.272   5.522   4.522 -1.3971 -0.2177 -0.0262
 4723TIP3   OH235727   5.599   2.744   4.886 -0.0700 -0.2104 -0.1572
 4723TIP3    H135728   5.565   2.727   4.974 -0.7414  2.3112  0.1756
 4723TIP3    H235729   5.693   2.734   4.894  0.0711  1.7073  1.4042
 4724TIP3   OH235730   5.810   4.986   2.812  0.1007  0.0863  0.0283
 4724TIP3    H135731   5.732   4.933   2.828 -1.5430  1.8570 -1.6269
 4724TIP3    H235732   5.783   5.076   2.831  2.5454  0.5309  1.8794
 4725TIP3   OH235733   1.555   4.296   1.748  0.0430 -0.5968  0.0019
 4725TIP3    H135734   1.606   4.219   1.773  2.6013  1.0547  0.3205
 4725TIP3    H235735   1.530   4.280   1.657  2.2565 -1.0351 -0.5866
 4726TIP3   OH235736   0.553   5.179   1.359 -0.3815  0.6298 -0.2868
 4726TIP3    H135737   0.494   5.238   1.406  0.2235  0.7545  0.3340
 4726TIP3    H235738   0.629   5.171   1.416 -0.6270 -1.1144 -0.1458
 4727TIP3   OH235739   4.780   5.312   3.185  0.8497  0.2665  0.2421
 4727TIP3    H135740   4.820   5.392   3.151  0.8927  0.2539  0.2627
 4727TIP3    H235741   4.749   5.266   3.107  0.6514  0.3959  0.2453
 4728TIP3   OH235742   6.366   2.644   3.253 -0.0605 -0.3881 -0.4479
 4728TIP3    H135743   6.299   2.660   3.319  0.3532 -1.3192  0.2355
 4728TIP3    H235744   6.448   2.664   3.297  0.1797 -0.3847 -0.8922
 4729TIP3   OH235745   5.838   1.237   1.033  0.0176  0.2369  0.6527
 4729TIP3    H135746   5.861   1.325   1.003 -0.3346  0.6771  1.6247
 4729TIP3    H235747   5.920   1.189   1.033  0.2008  0.5423  0.0492
 4730TIP3   OH235748   2.926   2.759   4.290 -0.0365  0.9697 -0.3403
 4730TIP3    H135749   3.010   2.714   4.296 -0.8508 -0.7668 -1.2493
 4730TIP3    H235750   2.896   2.767   4.381 -0.0784 -0.7786 -0.1750
 4731TIP3   OH235751   1.121   5.974   1.713  0.4697  0.2322  0.6191
 4731TIP3    H135752   1.070   5.930   1.646 -1.1753  2.5228  0.2558
 4731TIP3    H235753   1.206   5.990   1.672 -0.7729  2.3335 -1.3246
 4732TIP3   OH235754   6.843   5.385   0.834 -0.3014  0.0225 -0.0477
 4732TIP3    H135755   6.787   5.457   0.863 -0.9961 -0.4186 -0.2713
 4732TIP3    H235756   6.882   5.417   0.752  0.5976  0.7335  0.6315
 4733TIP3   OH235757   3.043   4.848   3.143 -0.3179  0.1494 -0.3693
 4733TIP3    H135758   3.058   4.939   3.171 -1.8450  0.1940  0.3966
 4733TIP3    H235759   2.978   4.855   3.073  0.0120 -0.3101 -0.7196
 4734TIP3   OH235760   0.009   6.026   1.454 -0.0201  0.3360  0.3031
 4734TIP3    H135761  -0.003   6.056   1.544  0.6763  0.8907  0.2200
 4734TIP3    H235762  -0.002   6.105   1.401 -0.3920  0.0197 -0.1046
 4735TIP3   OH235763   6.013   5.663   2.907  0.1210  0.1771  0.3973
 4735TIP3    H135764   6.048   5.596   2.848 -1.1932  1.4230 -1.9284
 4735TIP3    H235765   5.943   5.618   2.954 -0.9315 -0.0899 -1.3250
 4736TIP3   OH235766   2.542   1.378   3.014 -0.0862  0.0598 -0.8794
 4736TIP3    H135767   2.619   1.427   2.985  0.2570  0.3819  0.5060
 4736TIP3    H235768   2.577   1.299   3.054 -0.1661  1.6348  2.6588
 4737TIP3   OH235769   4.161   5.511   3.546 -0.2948  0.3063  0.6202
 4737TIP3    H135770   4.194   5.489   3.459 -0.2198 -1.9682  1.1589
 4737TIP3    H235771   4.224   5.575   3.579 -1.4441  2.8152 -1.7016
 4738TIP3   OH235772   0.456   5.295   4.278 -0.1781 -0.2350 -0.6187
 4738TIP3    H135773   0.548   5.268   4.286 -0.5628 -1.5246 -0.3310
 4738TIP3    H235774   0.461   5.385   4.246  1.1844 -0.3299 -0.7621
 4739TIP3   OH235775   2.085   5.879   3.333  0.4258 -0.4165  0.4661
 4739TIP3    H135776   2.012   5.817   3.329 -0.3535  0.5040 -0.1950
 4739TIP3    H235777   2.045   5.960   3.363  1.5180 -0.3371  1.7688
 4740TIP3   OH235778   1.274   3.817   1.813  0.6627  0.0779 -0.0436
 4740TIP3    H135779   1.317   3.738   1.847 -1.2122 -0.8636  0.2705
 4740TIP3    H235780   1.332   3.888   1.839  0.0700 -0.6638  4.1036
 4741TIP3   OH235781   6.644   4.608   3.121  0.1625 -0.0094  0.0861
 4741TIP3    H135782   6.604   4.526   3.150  0.4627 -0.4543 -0.7254
 4741TIP3    H235783   6.733   4.584   3.096  0.5735  0.7597  0.7825
 4742TIP3   OH235784   6.592   2.160   3.727 -0.8304  1.0872 -0.0498
 4742TIP3    H135785   6.651   2.147   3.801 -0.5484  0.9327 -0.3030
 4742TIP3    H235786   6.557   2.248   3.740 -1.0372  0.9342  0.4486
 4743TIP3   OH235787   2.525   6.345   1.564  0.0941  0.1298  0.5407
 4743TIP3    H135788   2.489   6.295   1.637 -3.1066 -1.7565 -2.0499
 4743TIP3    H235789   2.481   6.430   1.568 -0.7036 -0.2663  0.4070
 4744TIP3   OH235790   6.674   5.204   4.058 -0.1453 -0.1403 -0.5323
 4744TIP3    H135791   6.650   5.256   3.981 -0.4248 -0.4641 -0.6660
 4744TIP3    H235792   6.652   5.259   4.132 -1.0260 -0.3046 -0.6589
 4745TIP3   OH235793   0.884   1.981   4.643 -0.1146 -1.0571  0.2803
 4745TIP3    H135794   0.817   1.941   4.699 -1.2742  0.6348  0.1882
 4745TIP3    H235795   0.847   1.976   4.555  0.0443 -0.4415  0.1741
 4746TIP3   OH235796   3.007   0.280   3.338  0.1382 -0.2923  0.4040
 4746TIP3    H135797   2.914   0.284   3.320 -0.2277  1.3924  2.3184
 4746TIP3    H235798   3.029   0.367   3.371  1.8178 -1.3847  2.3997
 4747TIP3   OH235799   2.948   3.838   1.357 -0.1416  0.2108 -0.1646
 4747TIP3    H135800   2.986   3.820   1.270  1.2928  0.5817  0.3475
 4747TIP3    H235801   2.895   3.761   1.377  0.4069 -0.3789 -0.9079
 4748TIP3   OH235802   1.110   2.107   1.732 -0.3517  0.2963  0.4192
 4748TIP3    H135803   1.150   2.038   1.785  0.1809 -0.2314 -0.6334
 4748TIP3    H235804   1.182   2.140   1.679 -0.9964  0.3904 -0.4049
 4749TIP3   OH235805   2.295   3.515   1.639 -0.2360  0.1365 -0.2654
 4749TIP3    H135806   2.251   3.430   1.638 -1.1042  0.5836 -0.3942
 4749TIP3    H235807   2.333   3.523   1.551 -1.5547  0.5970 -0.8074
 4750TIP3   OH235808   2.187   6.732   4.269  0.8550  0.1593  0.7358
 4750TIP3    H135809   2.251   6.799   4.243  0.1136  0.6085  0.0290
 4750TIP3    H235810   2.127   6.779   4.327  0.1569  0.1829 -0.0038
 4751TIP3   OH235811   6.739   0.001   1.777 -0.5938  0.4042 -0.2929
 4751TIP3    H135812   6.653  -0.025   1.811 -1.4938  1.1309 -1.9256
 4751TIP3    H235813   6.777  -0.080   1.742  0.0444 -0.2101  1.6456
 4752TIP3   OH235814   2.279   0.007   0.762  0.0056 -0.3760  0.0751
 4752TIP3    H135815   2.339  -0.065   0.742 -2.1914 -2.4689  0.4921
 4752TIP3    H235816   2.205  -0.036   0.804 -2.0554  1.9760 -0.9345
 4753TIP3   OH235817   4.607   6.464   1.425  0.1488 -0.2981  0.1003
 4753TIP3    H135818   4.599   6.554   1.458 -1.0600 -0.4725  0.3228
 4753TIP3    H235819   4.561   6.466   1.341 -3.1448 -1.5049  1.7026
 4754TIP3   OH235820   4.015   0.297   2.781 -0.4624 -0.3831 -0.8154
 4754TIP3    H135821   4.022   0.212   2.736  0.0616 -0.5845 -0.3645
 4754TIP3    H235822   4.101   0.337   2.770 -0.1902 -0.6296  0.3925
 4755TIP3   OH235823   4.094   6.809   2.112  0.2622 -0.1837  0.0634
 4755TIP3    H135824   4.072   6.725   2.072  2.8699 -0.2407 -1.5119
 4755TIP3    H235825   4.118   6.864   2.037  1.2142  1.0870  1.2693
 4756TIP3   OH235826   6.613   3.353   2.238 -0.0921 -0.2585 -0.1460
 4756TIP3    H135827   6.617   3.389   2.327  2.4252  1.9433 -1.0208
 4756TIP3    H235828   6.672   3.277   2.241 -0.8983 -0.8871  0.2909
 4757TIP3   OH235829   4.155   6.511   3.669  0.3555 -0.1051  0.5607
 4757TIP3    H135830   4.158   6.527   3.764  1.5299 -1.6921  0.8422
 4757TIP3    H235831   4.247   6.509   3.642  0.0127  1.2135 -0.8016
 4758TIP3   OH235832   5.482   3.305   3.767 -0.0478 -0.6691 -0.0202
 4758TIP3    H135833   5.509   3.387   3.808  1.1633 -0.5153 -1.0667
 4758TIP3    H235834   5.429   3.332   3.692 -0.0800 -0.8663 -0.0687
 4759TIP3   OH235835   4.117   3.279   3.830  1.0928  0.0035  0.6270
 4759TIP3    H135836   4.068   3.202   3.860 -0.3653 -0.3743 -2.2709
 4759TIP3    H235837   4.101   3.281   3.735 -0.2211  4.6884  0.6778
 4760TIP3   OH235838   1.656   6.470   2.862 -0.2717 -0.0189  0.4111
 4760TIP3    H135839   1.705   6.458   2.943  0.1617 -2.4091 -0.1133
 4760TIP3    H235840   1.566   6.447   2.885 -0.4945  0.9573  0.5677
 4761TIP3   OH235841   3.267   1.375   5.053  0.0558 -0.0103  0.2962
 4761TIP3    H135842   3.178   1.352   5.028 -0.4314  2.1372 -0.1231
 4761TIP3    H235843   3.288   1.452   4.999  2.5734 -1.1017 -0.4293
 4762TIP3   OH235844   5.854   5.068   4.459 -0.4855  0.3851  0.0403
 4762TIP3    H135845   5.910   5.132   4.503  0.0073 -0.9959  1.4999
 4762TIP3    H235846   5.769   5.111   4.452 -0.4828  0.7935  2.0716
 4763TIP3   OH235847   6.479   5.531   1.274  0.0019  0.0196 -0.1693
 4763TIP3    H135848   6.395   5.577   1.278 -0.1428 -0.2478 -0.1257
 4763TIP3    H235849   6.542   5.594   1.309 -0.1347  0.3288 -0.4781
 4764TIP3   OH235850   3.564   4.616   1.958 -0.1157  0.2647 -0.1521
 4764TIP3    H135851   3.613   4.645   2.035  0.4468 -0.3923 -0.2610
 4764TIP3    H235852   3.567   4.691   1.898  0.0287  0.5303  0.1866
 4765TIP3   OH235853   1.384   2.952   2.058  0.0292 -0.8768  0.2316
 4765TIP3    H135854   1.371   3.001   1.977  1.2706 -0.7741  0.0725
 4765TIP3    H235855   1.398   3.019   2.125 -1.2284 -0.9554  0.5904
 4766TIP3   OH235856   6.486   3.371   3.558 -0.1991  0.6388 -0.4684
 4766TIP3    H135857   6.490   3.364   3.463 -0.6472 -0.3462 -0.4310
 4766TIP3    H235858   6.393   3.388   3.577 -0.1633  0.5426 -0.1966
 4767TIP3   OH235859   2.445   5.794   4.366  0.0233  0.0837  0.0236
 4767TIP3    H135860   2.364   5.843   4.382  0.5617  1.7249 -1.8460
 4767TIP3    H235861   2.506   5.859   4.333  1.2681 -1.5847 -1.1618
 4768TIP3   OH235862   2.991   1.971   2.833  0.1371  0.1950 -0.1970
 4768TIP3    H135863   3.072   1.993   2.789 -0.1288 -0.9194 -1.2796
 4768TIP3    H235864   2.928   2.037   2.803  0.7891  1.5226  1.2319
 4769TIP3   OH235865   3.045   3.449   4.179 -1.3330  0.3874 -0.2072
 4769TIP3    H135866   3.042   3.433   4.085  0.3803  2.7757 -0.7665
 4769TIP3    H235867   2.979   3.517   4.194 -1.4583  0.1622  0.3131
 4770TIP3   OH235868   4.724   2.830   2.049 -0.4624  0.4771 -0.4021
 4770TIP3    H135869   4.790   2.892   2.019 -0.4927  0.2680 -0.9194
 4770TIP3    H235870   4.762   2.744   2.031 -0.2441  0.3337  0.6949
 4771TIP3   OH235871   4.708   1.912   3.706  0.0407  1.0390  0.3579
 4771TIP3    H135872   4.655   1.972   3.759 -0.6383  2.2007 -1.5672
 4771TIP3    H235873   4.648   1.842   3.681  0.9046 -0.7439  2.8578
 4772TIP3   OH235874   6.302   2.068   1.771  0.0079  0.7318  0.2907
 4772TIP3    H135875   6.313   1.985   1.819 -1.7690 -0.1261 -0.6625
 4772TIP3    H235876   6.365   2.063   1.699 -0.0588  0.2192  0.2642
 4773TIP3   OH235877   6.312   4.431   0.748 -0.2351 -0.0141 -0.2996
 4773TIP3    H135878   6.334   4.455   0.658 -1.1896 -2.0369 -1.1532
 4773TIP3    H235879   6.246   4.495   0.775  1.7959  2.1089 -0.0777
 4774TIP3   OH235880   2.003   3.809   3.279 -0.6487 -0.4396 -0.2981
 4774TIP3    H135881   1.987   3.716   3.293  0.5883 -0.3125  2.8782
 4774TIP3    H235882   1.919   3.851   3.297 -0.9360 -0.8709 -0.6211
 4775TIP3   OH235883   4.186   4.805   4.155  0.2917  0.0414 -0.4897
 4775TIP3    H135884   4.168   4.714   4.132 -0.4425 -0.4793  1.8209
 4775TIP3    H235885   4.281   4.811   4.158  0.3414 -0.8860  0.1274
 4776TIP3   OH235886   1.012   4.545   3.595 -0.0156 -0.3874 -0.1423
 4776TIP3    H135887   0.955   4.525   3.521  0.3834 -1.0833 -0.2703
 4776TIP3    H235888   0.970   4.501   3.670  0.5944 -1.3101 -0.3281
 4777TIP3   OH235889   4.400   1.269   4.081 -0.4502 -0.1529 -0.0671
 4777TIP3    H135890   4.409   1.241   4.172  0.3834 -0.5413 -0.2638
 4777TIP3    H235891   4.382   1.189   4.032  1.0987 -0.2643 -0.5093
 4778TIP3   OH235892   0.473   2.131   3.176  1.0819 -0.8470 -0.0266
 4778TIP3    H135893   0.395   2.143   3.121  0.0578  0.4440  1.5991
 4778TIP3    H235894   0.540   2.099   3.116 -0.5425 -1.4820 -1.5918
 4779TIP3   OH235895   0.784   3.232   0.802  0.2480  0.2142 -0.1933
 4779TIP3    H135896   0.806   3.140   0.811 -1.6491 -0.2238  0.4559
 4779TIP3    H235897   0.694   3.232   0.770  0.6584  1.8589 -1.4842
 4780TIP3   OH235898   0.675   2.965   4.373 -0.4492  0.1227  0.3907
 4780TIP3    H135899   0.639   2.880   4.396  0.7503 -0.3901  0.4271
 4780TIP3    H235900   0.685   3.011   4.457 -0.2319 -0.0574  0.4642
 4781TIP3   OH235901   1.097   3.403   4.311 -0.0974  0.5389 -0.3003
 4781TIP3    H135902   1.154   3.459   4.257 -1.5735 -0.2203 -2.8312
 4781TIP3    H235903   1.064   3.461   4.379 -0.9809  2.6673 -2.3734
 4782TIP3   OH235904   5.410   2.982   2.664  0.2109 -0.5920  0.1767
 4782TIP3    H135905   5.435   3.045   2.732  1.9155 -0.3742 -0.6083
 4782TIP3    H235906   5.340   3.026   2.615  0.9539  0.4429  0.0235
 4783TIP3   OH235907   6.645   2.482   1.794 -0.5572  0.5463  0.3672
 4783TIP3    H135908   6.679   2.528   1.718  1.9241 -0.1856  0.9426
 4783TIP3    H235909   6.708   2.502   1.864 -1.6198 -0.4802  1.6758
 4784TIP3   OH235910   2.373   3.703   0.861 -0.3662 -0.0435 -0.9235
 4784TIP3    H135911   2.397   3.757   0.786 -1.0124  1.5886 -0.0183
 4784TIP3    H235912   2.289   3.739   0.890  0.0441 -0.3620  0.7954
 4785TIP3   OH235913   1.490   0.296   2.631 -0.1595 -0.1298 -0.2986
 4785TIP3    H135914   1.414   0.319   2.577 -1.3254  0.6127  1.5724
 4785TIP3    H235915   1.473   0.337   2.715  3.2677  1.7173 -0.3318
 4786TIP3   OH235916   0.779   4.207   1.774  0.0008  0.0547  0.2772
 4786TIP3    H135917   0.782   4.117   1.741  0.9512  0.1150  0.1735
 4786TIP3    H235918   0.831   4.258   1.712 -0.6045  0.6921  0.2895
 4787TIP3   OH235919   4.845   3.857   4.346  1.0150  0.1595 -0.1740
 4787TIP3    H135920   4.798   3.876   4.427  2.1225 -0.1637  0.5761
 4787TIP3    H235921   4.895   3.777   4.366 -0.2072 -1.1046 -1.8195
 4788TIP3   OH235922   0.987   3.498   2.643 -0.3611 -0.1506  0.0984
 4788TIP3    H135923   1.067   3.454   2.673  0.5426  1.1973 -0.2597
 4788TIP3    H235924   0.938   3.430   2.597 -0.1345 -1.3721  1.5685
 4789TIP3   OH235925   3.250   3.185   1.503 -0.4828  0.1033 -0.0890
 4789TIP3    H135926   3.317   3.118   1.517 -1.7596 -1.3122 -0.3749
 4789TIP3    H235927   3.257   3.206   1.410 -1.9160 -1.8233 -0.7088
 4790TIP3   OH235928   1.620   6.458   1.069 -0.1437  0.2483  0.4032
 4790TIP3    H135929   1.632   6.380   1.124 -1.3242 -0.7919 -0.7209
 4790TIP3    H235930   1.704   6.502   1.071  1.0049 -1.7736  0.0349
 4791TIP3   OH235931   3.712   5.605   1.801 -0.4567 -0.3726 -0.1265
 4791TIP3    H135932   3.802   5.577   1.785 -0.9411 -2.2234  0.1581
 4791TIP3    H235933   3.707   5.621   1.895  0.0751  1.7874 -0.4143
 4792TIP3   OH235934   3.211   2.430   1.060 -0.1857 -0.2104  0.2910
 4792TIP3    H135935   3.182   2.435   0.969  0.5286 -0.0179  0.0670
 4792TIP3    H235936   3.282   2.494   1.066  0.5776 -1.0629  0.6686
 4793TIP3   OH235937   3.139   3.066   4.492 -0.3052  0.4883  0.1248
 4793TIP3    H135938   3.098   3.128   4.431  1.0389  0.9047 -0.3841
 4793TIP3    H235939   3.115   3.099   4.579 -1.0955  0.6744 -0.1517
 4794TIP3   OH235940   6.057   4.053   2.080 -0.4409  0.5298 -0.2943
 4794TIP3    H135941   6.142   4.066   2.038 -0.1217  1.0564  0.4809
 4794TIP3    H235942   6.028   4.141   2.103 -1.0299  0.3257 -0.2386
 4795TIP3   OH235943   3.676   3.643   1.942  0.0054  0.1800  0.4071
 4795TIP3    H135944   3.711   3.673   2.026 -0.2051 -2.0084  1.3423
 4795TIP3    H235945   3.625   3.718   1.910  3.6627  2.7575 -0.0385
 4796TIP3   OH235946   1.279   2.142   1.371 -0.2894 -0.0343 -0.0920
 4796TIP3    H135947   1.324   2.097   1.299 -0.5870 -0.5291  0.0256
 4796TIP3    H235948   1.215   2.198   1.328 -0.5569 -0.4287 -0.2123
 4797TIP3   OH235949   4.555   4.629   3.018  0.6482  0.4016 -0.9067
 4797TIP3    H135950   4.510   4.704   2.979 -0.2690 -0.1517 -0.9337
 4797TIP3    H235951   4.550   4.561   2.951 -0.0158 -0.2219 -0.2356
 4798TIP3   OH235952   3.318   2.217   8.346 -0.4767 -0.1893 -0.4037
 4798TIP3    H135953   3.313   2.190   8.438 -1.9503  0.3964 -0.2842
 4798TIP3    H235954   3.375   2.153   8.305  0.0776 -0.5541  0.8935
 4799TIP3   OH235955   2.109   0.704   2.770 -0.2079  0.5919 -0.1958
 4799TIP3    H135956   2.124   0.798   2.781  2.3249  0.1622  0.8850
 4799TIP3    H235957   2.197   0.667   2.761 -1.1811 -1.5965 -1.5517
 4800TIP3   OH235958   3.359   0.317   4.365 -0.3882 -0.1531  0.4573
 4800TIP3    H135959   3.315   0.394   4.401 -0.4310 -1.4360  3.3651
 4800TIP3    H235960   3.449   0.346   4.351 -0.5173  0.5482  1.0261
 4801TIP3   OH235961   2.919   4.057   0.291 -0.2431 -0.4921  0.1516
 4801TIP3    H135962   2.978   4.018   0.225 -0.1583  0.7928 -0.5544
 4801TIP3    H235963   2.891   3.982   0.344  0.4179 -1.4284 -0.7656
 4802TIP3   OH235964   0.834   2.967   0.561  0.1173  0.1125 -0.3140
 4802TIP3    H135965   0.750   2.948   0.602 -0.5129 -0.2765 -1.7297
 4802TIP3    H235966   0.813   3.028   0.490  1.6666  3.8744  2.1686
 4803TIP3   OH235967   3.835   6.037   3.599  0.2148 -0.1436 -0.4010
 4803TIP3    H135968   3.854   6.124   3.563 -0.3601 -0.9297 -2.7862
 4803TIP3    H235969   3.744   6.043   3.628  0.4619  0.2960  0.3119
 4804TIP3   OH235970   2.271   3.528   3.620 -0.3381  0.0547  0.2219
 4804TIP3    H135971   2.298   3.545   3.710  0.8584  0.2529 -0.1590
 4804TIP3    H235972   2.179   3.503   3.627 -0.5036  0.9303  1.4010
 4805TIP3   OH235973   1.122   2.136   0.924  0.0253  0.5384 -0.4020
 4805TIP3    H135974   1.071   2.116   0.845  1.6919  0.1245 -1.4148
 4805TIP3    H235975   1.168   2.218   0.903  0.6121  0.3358  0.0696
 4806TIP3   OH235976   2.178   2.322   3.890 -0.4885  0.3798 -0.3464
 4806TIP3    H135977   2.264   2.297   3.855 -0.4518  2.5055 -2.0222
 4806TIP3    H235978   2.132   2.239   3.902  0.9785 -0.6986 -1.6358
 4807TIP3   OH235979   2.793   2.503   8.283  0.0880  0.1791  0.1764
 4807TIP3    H135980   2.866   2.451   8.250  0.3335 -0.2130  1.2653
 4807TIP3    H235981   2.828   2.547   8.360 -0.2099  1.7410 -0.5430
 4808TIP3   OH235982   4.888   5.238   0.719 -0.6969 -0.2795  0.5823
 4808TIP3    H135983   4.814   5.271   0.669  0.7007  0.7433 -0.9288
 4808TIP3    H235984   4.851   5.172   0.778 -2.8652  0.6868  0.3648
 4809TIP3   OH235985   0.735   0.734   1.248  0.0893 -0.3982  0.2643
 4809TIP3    H135986   0.738   0.639   1.237 -2.6078 -0.6899  1.3470
 4809TIP3    H235987   0.704   0.767   1.163 -0.2893 -0.6363  0.3056
 4810TIP3   OH235988   0.432   0.307   1.555  0.6886  0.1143  0.0994
 4810TIP3    H135989   0.366   0.311   1.485  1.9490 -1.8359 -1.3151
 4810TIP3    H235990   0.444   0.398   1.582  0.3060  1.0034 -2.4378
 4811TIP3   OH235991   1.611   0.353   1.521  0.1523  0.4758 -0.3119
 4811TIP3    H135992   1.633   0.378   1.610  0.7928 -2.1485  0.3514
 4811TIP3    H235993   1.688   0.375   1.469 -0.1950  1.9385 -0.2609
 4812TIP3   OH235994   3.879   5.125   0.868  0.1088 -0.2847  0.2392
 4812TIP3    H135995   3.888   5.053   0.806  0.9553  0.2059 -0.2241
 4812TIP3    H235996   3.926   5.198   0.828 -0.3795  0.4137  0.8874
 4813TIP3   OH235997   3.223   0.263   1.055 -0.4758  0.5815  0.4463
 4813TIP3    H135998   3.214   0.169   1.073 -0.9527  0.8437  1.6543
 4813TIP3    H235999   3.177   0.306   1.127  0.6886  1.7655  0.5243
 4814TIP3   OH236000   2.791   2.598   3.429  0.5389 -0.1845 -0.1060
 4814TIP3    H136001   2.743   2.533   3.480  0.8361 -0.5226 -0.2552
 4814TIP3    H236002   2.883   2.576   3.443  0.6242 -0.3327 -0.8601
 4815TIP3   OH236003   6.427   6.464   1.934 -0.2849  0.2456 -0.3196
 4815TIP3    H136004   6.338   6.496   1.940  0.3258  2.0723 -0.3901
 4815TIP3    H236005   6.467   6.488   2.018  0.2896 -0.0379 -0.5063
 4816TIP3   OH236006   5.441   1.288   3.517 -0.4002  0.2589 -0.2325
 4816TIP3    H136007   5.528   1.296   3.556 -1.2142  1.3402  1.4662
 4816TIP3    H236008   5.455   1.235   3.438  1.8248  0.6515 -0.1659
 4817TIP3   OH236009   2.248   1.724   3.931  0.4874  0.0230 -0.2571
 4817TIP3    H136010   2.191   1.790   3.970  1.7276  0.5441  0.7360
 4817TIP3    H236011   2.336   1.746   3.962  1.0812 -1.4456 -0.7925
 4818TIP3   OH236012   6.334   6.089   3.838 -0.1879 -0.2331 -0.6129
 4818TIP3    H136013   6.276   6.107   3.912 -0.2976 -0.4125 -0.6552
 4818TIP3    H236014   6.378   6.007   3.861 -0.9263 -0.7964 -1.1698
 4819TIP3   OH236015   5.740   1.460   2.110  0.0438 -0.1061 -0.2282
 4819TIP3    H136016   5.646   1.468   2.091 -0.0750 -2.1590 -0.7433
 4819TIP3    H236017   5.777   1.419   2.032  0.7597 -2.4484  1.2366
 4820TIP3   OH236018   2.232   4.005   2.791 -0.3359 -0.1895  0.4540
 4820TIP3    H136019   2.187   3.942   2.848  0.0500  0.8918  2.0139
 4820TIP3    H236020   2.310   4.030   2.840 -1.1089  2.4408  0.4811
 4821TIP3   OH236021   5.263   0.358   2.342  0.1785  0.0750  0.6577
 4821TIP3    H136022   5.350   0.395   2.334  0.0316  0.2539 -0.3098
 4821TIP3    H236023   5.277   0.269   2.374  0.5331  0.9168  3.0187
 4822TIP3   OH236024   1.672   1.775   3.898  0.8407  0.0855  0.5293
 4822TIP3    H136025   1.767   1.783   3.886  0.8741 -0.2433  0.5798
 4822TIP3    H236026   1.655   1.820   3.981  0.7266  1.5793 -0.2646
 4823TIP3   OH236027   0.456   3.983   1.200 -0.0198 -0.2114  0.1433
 4823TIP3    H136028   0.460   3.901   1.250  0.1537 -0.2417  0.0800
 4823TIP3    H236029   0.490   3.960   1.114 -0.7535 -0.2698 -0.1370
 4824TIP3   OH236030   0.894   2.620   1.700  0.2145  0.0413 -1.0807
 4824TIP3    H136031   0.906   2.529   1.727  2.2161  0.8551  1.0862
 4824TIP3    H236032   0.949   2.671   1.759 -0.8597  2.7090 -2.1848
 4825TIP3   OH236033   1.233   5.610   4.308  0.5761 -0.0010  0.5983
 4825TIP3    H136034   1.174   5.546   4.266  2.2933 -2.0484  1.1307
 4825TIP3    H236035   1.176   5.661   4.366 -1.3923  1.1011 -2.1068
 4826TIP3   OH236036   0.520   2.712   4.425 -0.2513  0.2763 -0.4142
 4826TIP3    H136037   0.571   2.635   4.448  0.8511  0.8976 -0.6988
 4826TIP3    H236038   0.479   2.739   4.507  1.1947  0.7008  0.1878
 4827TIP3   OH236039   3.087   5.222   0.542 -0.3792 -0.0174  0.0920
 4827TIP3    H136040   3.030   5.297   0.522 -1.3226 -0.8361 -0.3512
 4827TIP3    H236041   3.149   5.257   0.606 -1.8015  0.7428  1.1271
 4828TIP3   OH236042   0.366   5.733   2.272 -0.0687 -0.3821 -0.2704
 4828TIP3    H136043   0.321   5.687   2.201 -0.6774  2.4361 -1.8451
 4828TIP3    H236044   0.376   5.823   2.240  1.1600  0.5995  2.5710
 4829TIP3   OH236045   0.942   0.775   0.926 -0.5059 -0.0580 -0.2346
 4829TIP3    H136046   0.847   0.782   0.935 -0.6555 -1.3418 -0.5342
 4829TIP3    H236047   0.969   0.860   0.892 -1.8286 -0.3162 -2.1052
 4830TIP3   OH236048   3.886   0.024   4.711  0.5099  0.4803  0.3292
 4830TIP3    H136049   3.900  -0.055   4.764  2.1666  0.1855 -0.4803
 4830TIP3    H236050   3.889  -0.008   4.621  0.6380  1.3923  0.0089
 4831TIP3   OH236051   0.255   5.578   2.056 -0.3248 -0.2121 -0.2556
 4831TIP3    H136052   0.172   5.534   2.038 -1.1062  0.6262  1.1516
 4831TIP3    H236053   0.263   5.642   1.985  0.0401 -1.5151 -1.4195
 4832TIP3   OH236054   2.232   0.410   1.138  0.3390  0.1526  0.3197
 4832TIP3    H136055   2.314   0.385   1.179  0.6594  0.6123 -0.0265
 4832TIP3    H236056   2.222   0.348   1.065  1.3368  1.2212 -0.7880
 4833TIP3   OH236057   4.848   2.986   0.885  0.3208  0.7978 -0.4749
 4833TIP3    H136058   4.764   2.940   0.886  0.1950  0.7979 -2.9592
 4833TIP3    H236059   4.825   3.078   0.895  0.1723  0.6703  0.3618
 4834TIP3   OH236060   4.307   1.116   3.013 -0.0781  0.2017  0.2493
 4834TIP3    H136061   4.289   1.139   3.104 -1.1241 -2.9134  0.9812
 4834TIP3    H236062   4.371   1.045   3.019  1.2709  1.1682 -1.6064
 4835TIP3   OH236063   0.677   0.152   2.567  0.0278 -0.3634  0.3147
 4835TIP3    H136064   0.750   0.165   2.507 -0.7885  0.5630 -0.5269
 4835TIP3    H236065   0.711   0.179   2.652  0.3279  1.3100 -0.2884
 4836TIP3   OH236066   4.919   1.074   0.872 -0.0467  0.0462 -0.0181
 4836TIP3    H136067   4.892   1.162   0.898 -0.0952  0.0661 -0.1345
 4836TIP3    H236068   4.929   1.079   0.777  2.0703  0.4981  0.1776
 4837TIP3   OH236069   4.462   4.699   2.518 -0.3551  0.0511  0.1832
 4837TIP3    H136070   4.480   4.711   2.424 -1.5182 -2.4201 -0.4521
 4837TIP3    H236071   4.366   4.701   2.524 -0.2763  0.9489  1.4679
 4838TIP3   OH236072   3.342   6.344   1.454  0.2126 -0.2946 -0.5890
 4838TIP3    H136073   3.386   6.269   1.494  2.2646  0.7813 -0.6929
 4838TIP3    H236074   3.377   6.346   1.365  0.1544  0.7459 -0.5917
 4839TIP3   OH236075   4.999   1.850   3.720 -0.1515  0.1345 -0.2297
 4839TIP3    H136076   4.996   1.851   3.625  2.3801  1.7958 -0.3768
 4839TIP3    H236077   4.911   1.875   3.747 -1.0609 -0.8810 -2.0757
 4840TIP3   OH236078   3.592   0.863   1.838  0.0641 -0.5271  0.1193
 4840TIP3    H136079   3.638   0.910   1.907 -0.1783 -0.4527  0.2312
 4840TIP3    H236080   3.637   0.779   1.832  1.4984  0.2649 -1.1159
 4841TIP3   OH236081   4.857   4.107   2.868 -0.0528 -0.3000 -0.3989
 4841TIP3    H136082   4.802   4.078   2.941  1.1058  1.0592  1.0995
 4841TIP3    H236083   4.797   4.153   2.809 -1.1439 -2.0617 -0.7477
 4842TIP3   OH236084   6.421   2.789   2.561 -0.1914  0.4263  0.7293
 4842TIP3    H136085   6.465   2.705   2.549 -0.4048 -0.0042  2.5463
 4842TIP3    H236086   6.340   2.783   2.511 -0.4180 -0.6526  1.1991
 4843TIP3   OH236087   2.351   5.208   0.333 -0.2399  0.2742  0.0942
 4843TIP3    H136088   2.402   5.130   0.309 -0.5198 -0.6182  2.2095
 4843TIP3    H236089   2.306   5.183   0.414 -0.3737  2.6379  0.8066
 4844TIP3   OH236090   6.279   3.452   1.935 -0.3329 -0.4232  0.5134
 4844TIP3    H136091   6.242   3.376   1.889  0.3561  0.8733 -2.4531
 4844TIP3    H236092   6.369   3.427   1.955 -0.0865 -0.4169 -0.5191
 4845TIP3   OH236093   3.602   1.068   4.310  0.4447  0.3295 -0.3332
 4845TIP3    H136094   3.665   1.104   4.373  1.0452 -0.4810 -0.4646
 4845TIP3    H236095   3.587   0.978   4.339  0.6355 -0.0161 -1.2743
 4846TIP3   OH236096   4.729   3.735   0.658  0.3504  0.1764  0.5405
 4846TIP3    H136097   4.793   3.786   0.609 -0.9162  2.9339  1.5004
 4846TIP3    H236098   4.660   3.716   0.594  0.4130  0.5357  0.3599
 4847TIP3   OH236099   6.178   6.676   2.818  0.2195 -0.0155  0.3792
 4847TIP3    H136100   6.226   6.708   2.741  0.4405 -1.0595  0.0657
 4847TIP3    H236101   6.244   6.629   2.869 -0.4673 -1.6308 -0.1509
 4848TIP3   OH236102   0.071   2.934   1.993  0.4101 -0.2942 -0.4119
 4848TIP3    H136103   0.117   2.870   2.047  0.8236 -0.3526 -0.8283
 4848TIP3    H236104  -0.019   2.935   2.027  0.4161 -1.0542 -0.3711
 4849TIP3   OH236105   6.503   0.795   2.040 -0.7027 -0.2721 -0.0357
 4849TIP3    H136106   6.487   0.827   2.129 -2.7001 -1.6431  0.1734
 4849TIP3    H236107   6.438   0.726   2.028  0.4451 -1.0735 -2.0812
 4850TIP3   OH236108   2.551   5.585   4.484  0.2628 -0.2642 -0.8457
 4850TIP3    H136109   2.524   5.650   4.420  0.0580  0.2600 -0.2452
 4850TIP3    H236110   2.624   5.626   4.531 -0.3727 -0.1304  0.0598
 4851TIP3   OH236111   0.725   3.202   2.444 -0.7570  0.2306 -0.0989
 4851TIP3    H136112   0.802   3.169   2.490 -1.1987 -1.1734 -0.3097
 4851TIP3    H236113   0.754   3.282   2.401  0.6747 -0.4496 -0.4445
 4852TIP3   OH236114   4.389   0.029   4.003  0.6559 -0.0157 -0.5394
 4852TIP3    H136115   4.382  -0.066   4.018 -1.2205  0.2573  0.6403
 4852TIP3    H236116   4.415   0.065   4.088  0.8560  0.5837 -0.8483
 4853TIP3   OH236117   3.511   3.459   4.243  0.0275  0.1852 -0.1986
 4853TIP3    H136118   3.517   3.381   4.299  1.7901  0.5911  0.2528
 4853TIP3    H236119   3.457   3.431   4.169 -0.2732 -1.1363  0.4860
 4854TIP3   OH236120   3.573   1.131   2.181 -0.1615 -0.2022 -0.4771
 4854TIP3    H136121   3.531   1.195   2.239 -0.8667 -1.3630  0.3248
 4854TIP3    H236122   3.664   1.130   2.210 -0.2028  0.2445 -0.3180
 4855TIP3   OH236123   6.244   0.308   0.996 -0.0468 -0.3119 -0.4469
 4855TIP3    H136124   6.189   0.243   1.040 -1.5713  0.7751 -0.6593
 4855TIP3    H236125   6.293   0.258   0.931 -1.5846 -1.2172 -0.9722
 4856TIP3   OH236126   1.087   3.510   3.678  0.3800 -0.1135  0.3417
 4856TIP3    H136127   1.147   3.562   3.624  0.4442 -0.3183  0.2137
 4856TIP3    H236128   1.021   3.478   3.617 -0.5110  1.0462  0.6717
 4857TIP3   OH236129   1.117   3.701   4.270 -0.0919  0.1928 -0.0832
 4857TIP3    H136130   1.045   3.704   4.333 -1.7445 -1.5628 -1.7423
 4857TIP3    H236131   1.108   3.782   4.219  0.8384  1.2883  1.4179
 4858TIP3   OH236132   3.334   2.800   2.590 -0.1754 -0.0218  0.3070
 4858TIP3    H136133   3.251   2.846   2.600 -0.3800 -0.6430  1.8617
 4858TIP3    H236134   3.367   2.827   2.505 -2.7461 -1.0422 -1.1149
 4859TIP3   OH236135   5.334   5.533   0.904  0.1131  0.3903 -0.2423
 4859TIP3    H136136   5.335   5.440   0.884  1.0266  0.3471 -0.0534
 4859TIP3    H236137   5.363   5.575   0.823  1.8981  0.3423  0.3168
 4860TIP3   OH236138   2.467   1.199   0.973  0.4105  0.0260  0.1422
 4860TIP3    H136139   2.521   1.122   0.991  0.5519 -0.1422 -0.9440
 4860TIP3    H236140   2.529   1.266   0.944  0.7776  1.7148  4.1634
 4861TIP3   OH236141   3.176   4.294   3.686  0.1175  0.0868 -0.3019
 4861TIP3    H136142   3.156   4.251   3.769  2.2525 -0.4221  0.0114
 4861TIP3    H236143   3.271   4.288   3.678 -0.0372 -0.0784 -2.9002
 4862TIP3   OH236144   4.044   5.560   0.881 -0.7077 -0.2116 -0.2151
 4862TIP3    H136145   3.995   5.573   0.962 -0.0943 -1.6221  0.4221
 4862TIP3    H236146   4.037   5.643   0.835 -2.9743 -0.1098  0.2292
 4863TIP3   OH236147   2.257   4.884   3.203 -0.1354  0.3637 -0.1354
 4863TIP3    H136148   2.352   4.877   3.211 -0.2027  1.1733  2.9742
 4863TIP3    H236149   2.224   4.802   3.241 -0.6723  0.5234 -0.2530
 4864TIP3   OH236150   0.880   1.339   1.439 -0.1512  0.4579 -0.1007
 4864TIP3    H136151   0.910   1.312   1.352  1.4525  0.1874  0.5070
 4864TIP3    H236152   0.960   1.350   1.490 -1.0631  0.6070  1.3611
 4865TIP3   OH236153   2.611   2.102   4.061  0.3556 -0.4921  0.3961
 4865TIP3    H136154   2.571   2.024   4.023  1.3048 -0.4697 -0.6871
 4865TIP3    H236155   2.543   2.137   4.119 -0.8153 -1.0446 -0.5781
 4866TIP3   OH236156   2.854   3.538   3.437 -0.5518  0.8347  0.7659
 4866TIP3    H136157   2.884   3.589   3.362  0.1668 -0.4911  0.1230
 4866TIP3    H236158   2.898   3.578   3.512  2.5639 -0.7077 -0.0723
 4867TIP3   OH236159   1.615   1.161   1.558 -0.2339 -0.1521 -0.6354
 4867TIP3    H136160   1.546   1.099   1.582 -1.6945  1.1869 -1.1702
 4867TIP3    H236161   1.575   1.247   1.574  0.9321  0.6742 -1.9962
 4868TIP3   OH236162   5.901   6.219   2.211 -0.3171 -0.5754 -0.3956
 4868TIP3    H136163   5.911   6.149   2.275 -0.0096  0.1554  0.3699
 4868TIP3    H236164   5.982   6.215   2.159  0.2894  0.0392  0.4841
 4869TIP3   OH236165   2.008   2.067   1.659  0.2042  0.3231 -0.1551
 4869TIP3    H136166   1.939   2.050   1.723 -0.3992 -0.4341 -0.9797
 4869TIP3    H236167   2.082   2.100   1.711 -0.7076  0.9875  0.7595
 4870TIP3   OH236168   6.254   0.724   1.354 -0.2709  0.6507  0.0967
 4870TIP3    H136169   6.230   0.747   1.264 -1.8203  0.0860  0.3382
 4870TIP3    H236170   6.242   0.629   1.358  1.3450  0.4306  0.4745
 4871TIP3   OH236171   1.561   4.696   0.159 -0.0247 -0.0741  0.1913
 4871TIP3    H136172   1.546   4.685   0.065 -0.7249 -0.1142  0.2998
 4871TIP3    H236173   1.497   4.762   0.186  0.1603 -0.0714  0.6459
 4872TIP3   OH236174   2.152   4.182   4.265 -0.3070  0.5250 -0.6210
 4872TIP3    H136175   2.151   4.269   4.307  0.2046 -0.3237  1.2657
 4872TIP3    H236176   2.245   4.162   4.254 -0.3510 -0.5285  0.6709
 4873TIP3   OH236177   6.558   0.286   3.348  0.2958 -0.2634  0.4070
 4873TIP3    H136178   6.559   0.224   3.275 -3.9565  0.4319 -0.5058
 4873TIP3    H236179   6.561   0.372   3.306 -2.2548  0.1480  0.8920
 4874TIP3   OH236180   4.384   1.223   3.707 -0.2919  0.3396 -0.7910
 4874TIP3    H136181   4.390   1.290   3.775 -0.2381  1.2738 -1.6910
 4874TIP3    H236182   4.350   1.146   3.752  1.3433  0.4097  0.6523
 4875TIP3   OH236183   1.910   3.424   1.060  0.2927  0.0700 -0.6428
 4875TIP3    H136184   2.002   3.445   1.040 -0.0104  1.3363 -0.7724
 4875TIP3    H236185   1.866   3.508   1.062 -1.1064 -0.5915 -1.7167
 4876TIP3   OH236186   2.795   4.267   2.831 -0.1664  0.4725 -0.2492
 4876TIP3    H136187   2.847   4.225   2.900 -0.0510  0.8924 -0.0792
 4876TIP3    H236188   2.850   4.261   2.753  0.0230  0.6712 -0.1322
 4877TIP3   OH236189   5.378   6.079   1.847 -0.2373  0.5315 -0.2347
 4877TIP3    H136190   5.391   6.021   1.922 -1.7136  0.7395  0.2108
 4877TIP3    H236191   5.434   6.155   1.864  1.6196 -0.6345 -0.7577
 4878TIP3   OH236192   4.634   0.271   2.273 -0.3409  0.0085  0.2801
 4878TIP3    H136193   4.722   0.240   2.296  0.4668  2.1540  0.3212
 4878TIP3    H236194   4.649   0.335   2.204 -2.0432 -0.6450 -0.7529
 4879TIP3   OH236195   4.227   5.730   3.270 -0.7016 -0.4210 -0.2481
 4879TIP3    H136196   4.236   5.637   3.293 -0.1825 -0.3954 -0.3361
 4879TIP3    H236197   4.231   5.731   3.174 -2.2634 -0.4650 -0.3400
 4880TIP3   OH236198   5.181   2.900   4.462  0.5532 -1.0089  0.2746
 4880TIP3    H136199   5.272   2.915   4.490  1.1413 -2.7588 -0.5412
 4880TIP3    H236200   5.186   2.899   4.366 -0.1081 -2.1314  0.2312
 4881TIP3   OH236201   1.237   6.303   2.426  0.6993 -0.5714 -0.5934
 4881TIP3    H136202   1.165   6.342   2.377  0.9529  1.3822  0.5225
 4881TIP3    H236203   1.195   6.250   2.494  0.3417 -0.6167 -0.8516
 4882TIP3   OH236204   6.607   1.442   2.821 -0.0509 -0.9571 -0.2417
 4882TIP3    H136205   6.549   1.517   2.834  0.1847 -0.8770  0.3619
 4882TIP3    H236206   6.549   1.369   2.801 -0.3532 -0.8627  0.2931
 4883TIP3   OH236207   1.987   5.310   0.626 -0.2199  0.4199 -0.3784
 4883TIP3    H136208   1.920   5.266   0.677 -0.1570  1.4516  0.6370
 4883TIP3    H236209   2.019   5.243   0.566 -0.2310 -0.8708  0.9903
 4884TIP3   OH236210   4.676   3.659   1.414  0.4741  0.6750  0.0785
 4884TIP3    H136211   4.640   3.598   1.350  1.0431  1.7956 -1.3653
 4884TIP3    H236212   4.770   3.659   1.397  0.8146  0.1057  1.7374
 4885TIP3   OH236213   2.445   3.104   0.912  0.2795 -0.1313 -0.2877
 4885TIP3    H136214   2.475   3.107   1.003 -1.8002  1.4180  0.4306
 4885TIP3    H236215   2.437   3.196   0.886 -2.1544 -0.4282 -0.9022
 4886TIP3   OH236216   4.914   1.547   0.648 -0.2658  0.3834  0.2136
 4886TIP3    H136217   4.995   1.496   0.645 -0.1109  0.6458 -0.1190
 4886TIP3    H236218   4.874   1.534   0.563 -0.9046 -0.2692  0.6020
 4887TIP3   OH236219   2.206   5.637   1.982 -0.2053 -0.6472  0.0093
 4887TIP3    H136220   2.126   5.681   1.955 -0.0219 -1.0938 -1.3200
 4887TIP3    H236221   2.205   5.554   1.934  0.6222 -1.0398  0.6528
 4888TIP3   OH236222   6.718   0.628   1.950 -0.3255 -0.0606  0.5331
 4888TIP3    H136223   6.790   0.684   1.923 -0.2611  0.4382  1.6794
 4888TIP3    H236224   6.644   0.688   1.962 -0.0557 -0.0719  2.5217
 4889TIP3   OH236225   6.589   5.788   2.507 -0.0997  0.4978 -0.1008
 4889TIP3    H136226   6.647   5.779   2.431 -0.3652  0.5830 -0.3172
 4889TIP3    H236227   6.548   5.874   2.495 -0.2071  0.4733  0.0937
 4890TIP3   OH236228   1.633   4.059   3.927  0.1617  0.5544  0.1462
 4890TIP3    H136229   1.638   4.154   3.913  0.9251  0.5347  0.2913
 4890TIP3    H236230   1.626   4.049   4.022  0.2965  0.4554  0.1459
 4891TIP3   OH236231   6.301   5.518   1.574  0.2481 -0.2173  0.0837
 4891TIP3    H136232   6.330   5.430   1.599  5.3064  1.3978  1.0865
 4891TIP3    H236233   6.327   5.574   1.647 -1.2975  2.3997 -1.2108
 4892TIP3   OH236234   2.777   2.933   1.642  0.3421  0.6437 -0.0299
 4892TIP3    H136235   2.858   2.979   1.620  0.0046  0.0822 -2.8012
 4892TIP3    H236236   2.713   3.004   1.656  0.6861  1.0731 -0.5763
 4893TIP3   OH236237   2.005   5.141   3.271  0.6120 -0.2728  0.1219
 4893TIP3    H136238   2.081   5.161   3.217  0.8018 -0.1547  0.4284
 4893TIP3    H236239   2.003   5.045   3.275  0.6362 -0.2799 -0.0420
 4894TIP3   OH236240   5.877   5.248   1.326 -0.0005 -0.1413 -0.0807
 4894TIP3    H136241   5.965   5.211   1.320  0.1965  0.1641  0.8114
 4894TIP3    H236242   5.820   5.181   1.289  0.7629  0.3527 -2.3206
 4895TIP3   OH236243   5.779   1.462   0.658  0.2136 -0.7733 -0.9004
 4895TIP3    H136244   5.783   1.507   0.574  0.9503  1.1698  0.1289
 4895TIP3    H236245   5.686   1.461   0.681  0.1512 -0.0909 -1.1168
 4896TIP3   OH236246   3.012   6.463   2.812  0.2915  0.3611  0.9841
 4896TIP3    H136247   2.944   6.437   2.750  1.1114 -0.3831  0.3728
 4896TIP3    H236248   3.093   6.427   2.775  0.6569 -1.2082  3.1393
 4897TIP3   OH236249   5.131   0.094   0.732  0.5376 -0.3019  0.6023
 4897TIP3    H136250   5.091   0.008   0.749  1.3793 -1.1041 -1.2265
 4897TIP3    H236251   5.121   0.107   0.638  3.6767 -0.1014  0.2012
 4898TIP3   OH236252   6.688   3.050   1.859  0.7753 -0.7344  0.3598
 4898TIP3    H136253   6.706   3.028   1.950 -0.6674  0.2584  0.9079
 4898TIP3    H236254   6.640   2.975   1.825 -0.8567 -0.0783  1.1474
 4899TIP3   OH236255   3.913   4.824   4.033 -0.0045 -0.4694  0.0629
 4899TIP3    H136256   3.895   4.799   3.943 -0.1891  2.0540 -0.6581
 4899TIP3    H236257   4.004   4.798   4.048  1.4346  2.6559 -2.2863
 4900TIP3   OH236258   4.868   1.914   8.395  0.5349  0.1194  0.1750
 4900TIP3    H136259   4.787   1.864   8.383  1.1736 -0.6001 -1.3861
 4900TIP3    H236260   4.898   1.892   8.483 -1.0375  0.5292  0.8450
 4901TIP3   OH236261   1.632   2.423   3.247  0.4906 -0.2859  0.1130
 4901TIP3    H136262   1.714   2.418   3.297  0.9648 -1.6521 -0.7619
 4901TIP3    H236263   1.660   2.435   3.156 -0.2940 -0.5355 -0.1649
 4902TIP3   OH236264   6.439   6.216   2.251  0.1343 -0.3269 -0.0844
 4902TIP3    H136265   6.435   6.147   2.317  0.9250 -0.2988  0.0081
 4902TIP3    H236266   6.533   6.230   2.238 -0.0090  1.3342  0.5196
 4903TIP3   OH236267   5.374   4.878   3.076  0.0594 -0.0176 -0.5453
 4903TIP3    H136268   5.469   4.862   3.074 -0.3229 -3.0624  0.5642
 4903TIP3    H236269   5.337   4.798   3.112 -2.8208  1.8247  0.9880
 4904TIP3   OH236270   5.569   3.139   2.932  0.0380 -0.5721  0.3889
 4904TIP3    H136271   5.604   3.216   2.976 -1.7188  0.9339 -0.6467
 4904TIP3    H236272   5.645   3.087   2.909  1.3249  0.9910  0.9261
 4905TIP3   OH236273   2.852   6.719   2.795 -0.2385  0.3678  0.5065
 4905TIP3    H136274   2.932   6.677   2.827 -1.4058 -1.0579  1.7117
 4905TIP3    H236275   2.819   6.768   2.870  0.2180  2.1278 -0.4001
 4906TIP3   OH236276   5.201   6.647   2.182 -0.7196  0.0707  0.0571
 4906TIP3    H136277   5.187   6.555   2.158 -1.4423 -0.0397  0.8661
 4906TIP3    H236278   5.235   6.687   2.102 -0.1075 -0.9632 -0.2153
 4907TIP3   OH236279   3.199   2.734   3.353  0.0264 -0.2389 -0.5758
 4907TIP3    H136280   3.187   2.772   3.266 -0.1218 -0.7340 -0.7775
 4907TIP3    H236281   3.231   2.806   3.407  0.8082 -0.0978 -1.2138
 4908TIP3   OH236282   3.844   3.758   2.424 -0.1297 -0.2047 -0.3504
 4908TIP3    H136283   3.905   3.823   2.388  0.1029 -1.1273 -1.7048
 4908TIP3    H236284   3.880   3.736   2.510  0.5641  0.4180 -0.4741
 4909TIP3   OH236285   1.638   5.907   1.253 -0.6258 -0.4217 -0.3215
 4909TIP3    H136286   1.566   5.879   1.309 -0.9684 -0.6848 -0.8828
 4909TIP3    H236287   1.645   5.838   1.187  1.5287 -1.5118  0.9430
 4910TIP3   OH236288   4.706   4.777   3.532 -0.0888 -0.1993  0.1930
 4910TIP3    H136289   4.636   4.842   3.536  0.5956  0.4638  1.9999
 4910TIP3    H236290   4.682   4.712   3.599  1.1822  0.2187  1.0796
 4911TIP3   OH236291   1.828   3.781   4.142  0.3200 -0.1871  0.5914
 4911TIP3    H136292   1.903   3.828   4.106 -0.4625  1.0471  0.5398
 4911TIP3    H236293   1.802   3.720   4.072  1.0262 -0.3499  0.4649
 4912TIP3   OH236294   3.673   2.516   2.737 -0.1691 -0.6775 -0.1796
 4912TIP3    H136295   3.759   2.486   2.709  0.4173  1.2651 -0.5970
 4912TIP3    H236296   3.685   2.544   2.828 -0.5129 -0.9616 -0.0425
 4913TIP3   OH236297   0.787   0.077   8.213  0.0075 -0.4750 -0.5449
 4913TIP3    H136298   0.797   0.150   8.151 -1.0321  0.4523  0.3333
 4913TIP3    H236299   0.851   0.012   8.184  1.5695  1.1290 -0.8541
 4914TIP3   OH236300   2.235   6.719   2.109 -0.0314 -0.1767  0.3554
 4914TIP3    H136301   2.191   6.748   2.029 -0.2911  0.0164  0.5691
 4914TIP3    H236302   2.239   6.797   2.164 -0.8864 -0.5718  0.9998
 4915TIP3   OH236303   5.363   0.409   3.473  0.1221  0.3744  0.0620
 4915TIP3    H136304   5.437   0.432   3.416 -1.1258  2.3723 -0.8484
 4915TIP3    H236305   5.293   0.385   3.412 -0.5656  0.3619  0.8406
 4916TIP3   OH236306   4.478   0.463   3.270  0.0978  0.4463 -0.0307
 4916TIP3    H136307   4.505   0.390   3.326 -1.0891  1.3679  1.8463
 4916TIP3    H236308   4.392   0.436   3.237 -0.3341  0.9656  0.6511
 4917TIP3   OH236309   3.678   2.011   2.220  0.9933 -0.1207  0.4460
 4917TIP3    H136310   3.638   1.993   2.134 -0.4161 -3.2426  1.5962
 4917TIP3    H236311   3.609   1.991   2.283  1.6389  3.1214  2.3828
 4918TIP3   OH236312   0.285   4.910   2.500 -0.2264  0.2644  0.0142
 4918TIP3    H136313   0.314   4.822   2.527  0.1511  0.2291 -0.4985
 4918TIP3    H236314   0.245   4.897   2.415 -2.1601  0.2469  0.8860
 4919TIP3   OH236315   6.228   3.826   1.359 -0.2854  0.4145  0.4442
 4919TIP3    H136316   6.308   3.876   1.374 -0.3462  1.0264 -1.1136
 4919TIP3    H236317   6.157   3.886   1.381 -0.3828 -0.6039  3.3043
 4920TIP3   OH236318   1.904   1.420   8.245  1.2157  0.1152  0.0834
 4920TIP3    H136319   1.893   1.468   8.327 -1.9010 -1.5708  0.8161
 4920TIP3    H236320   1.995   1.393   8.245  2.3418  3.4818  0.9944
 4921TIP3   OH236321   0.995   1.382   3.148  0.0572 -0.5252  0.3099
 4921TIP3    H136322   0.981   1.472   3.176  3.4987  0.4565 -0.6496
 4921TIP3    H236323   0.934   1.331   3.202 -2.6172  2.3507  0.3047
 4922TIP3   OH236324   0.727   3.691   1.868 -0.0072 -0.4383  0.1306
 4922TIP3    H136325   0.759   3.765   1.919 -0.9100  0.0061  0.0687
 4922TIP3    H236326   0.794   3.677   1.801 -0.8097  1.7320 -1.2098
 4923TIP3   OH236327   3.216   1.852   1.948 -0.4357 -0.3115 -0.0320
 4923TIP3    H136328   3.278   1.867   2.020  0.3090  1.5358 -0.9986
 4923TIP3    H236329   3.244   1.770   1.909 -0.4420 -1.0015  1.3499
 4924TIP3   OH236330   2.197   5.156   1.531  0.0598  0.5190 -0.9368
 4924TIP3    H136331   2.152   5.234   1.563  0.1341  0.7586 -1.4052
 4924TIP3    H236332   2.268   5.190   1.476  1.1986  0.1616  0.2669
 4925TIP3   OH236333   0.661   1.447   2.769 -0.3191  0.0828  0.4494
 4925TIP3    H136334   0.628   1.517   2.713  1.2098 -0.4054 -1.1508
 4925TIP3    H236335   0.726   1.488   2.826  1.7000 -0.1858 -1.5137
 4926TIP3   OH236336   5.717   6.080   3.299 -0.1572 -0.0532 -0.2867
 4926TIP3    H136337   5.670   6.023   3.238 -2.1239 -1.7948  2.5680
 4926TIP3    H236338   5.663   6.159   3.304 -0.4345 -0.2452 -0.2138
 4927TIP3   OH236339   0.136   0.891   1.271  0.7441  0.3948 -0.2661
 4927TIP3    H136340   0.228   0.865   1.266  0.4566 -0.4780 -1.7432
 4927TIP3    H236341   0.091   0.815   1.307  0.2144 -0.3882 -2.4358
 4928TIP3   OH236342   0.016   5.854   0.500 -0.0200  0.2044 -0.7330
 4928TIP3    H136343   0.065   5.807   0.567 -0.9743 -1.6985 -1.2865
 4928TIP3    H236344   0.082   5.892   0.444  0.8016 -0.1001 -0.0019
 4929TIP3   OH236345   4.947   3.987   3.815  0.5632  0.1895  0.4794
 4929TIP3    H136346   4.908   4.075   3.817 -0.3130 -0.1967  1.4259
 4929TIP3    H236347   4.876   3.930   3.785  1.2980 -0.1322 -0.7034
 4930TIP3   OH236348   2.404   2.484   1.027  0.1723  0.0097  0.4527
 4930TIP3    H136349   2.484   2.476   0.975  0.8737 -1.9178  1.7292
 4930TIP3    H236350   2.417   2.424   1.101 -1.6781  1.0570  1.7021
 4931TIP3   OH236351   4.285   6.189   3.361  0.0261  0.4585 -0.0379
 4931TIP3    H136352   4.278   6.108   3.411  0.3536 -0.4871 -1.4862
 4931TIP3    H236353   4.195   6.222   3.356 -0.2006 -0.1327  0.0401
 4932TIP3   OH236354   4.229   0.119   4.306 -0.3720  0.5041 -0.1623
 4932TIP3    H136355   4.247   0.048   4.244  0.7145  1.5017 -1.0325
 4932TIP3    H236356   4.268   0.197   4.266 -0.2099  1.3129  1.4809
 4933TIP3   OH236357   0.271   0.488   3.603 -0.4324 -0.2384  0.2229
 4933TIP3    H136358   0.303   0.407   3.642  0.5904 -0.4439 -1.0026
 4933TIP3    H236359   0.343   0.550   3.612 -0.1384 -0.3124 -1.3594
 4934TIP3   OH236360   1.182   2.575   2.154 -0.3650  0.3007 -0.2991
 4934TIP3    H136361   1.103   2.565   2.206  0.3134  0.4252  0.7812
 4934TIP3    H236362   1.182   2.667   2.128 -0.6243  0.2732 -0.4060
 4935TIP3   OH236363   6.131   4.966   3.153  0.5219  0.5250 -0.3459
 4935TIP3    H136364   6.071   4.915   3.207 -2.1146  1.4575 -2.1606
 4935TIP3    H236365   6.164   4.904   3.088  0.5052  0.2689 -0.1074
 4936TIP3   OH236366   0.039   3.059   3.192 -0.4524  0.1608 -0.4033
 4936TIP3    H136367  -0.003   3.094   3.271  0.3821  0.5976 -0.1401
 4936TIP3    H236368   0.027   3.127   3.126  0.3656  0.5761 -0.1483
 4937TIP3   OH236369   0.968   3.015   1.711  0.5299  0.7020 -0.3846
 4937TIP3    H136370   0.977   3.101   1.752  1.4312  1.2164 -1.6158
 4937TIP3    H236371   1.058   2.980   1.709  0.5283  0.7545 -2.0397
 4938TIP3   OH236372   1.761   0.581   4.827  0.0677 -0.1960 -0.4998
 4938TIP3    H136373   1.816   0.509   4.798  0.3993 -0.4048  0.6022
 4938TIP3    H236374   1.679   0.540   4.855  0.1760 -0.1206 -0.0724
 4939TIP3   OH236375   0.479   4.429   2.012 -0.4288  0.0931  0.2824
 4939TIP3    H136376   0.385   4.433   1.993 -0.2308 -0.9928 -1.0900
 4939TIP3    H236377   0.518   4.497   1.957 -0.0831 -1.6790 -1.7829
 4940TIP3   OH236378   0.779   0.330   0.316  0.1322 -0.1206  0.0114
 4940TIP3    H136379   0.735   0.309   0.399  2.0809  0.6992  1.3549
 4940TIP3    H236380   0.711   0.370   0.262 -1.1087 -0.2967  1.3784
 4941TIP3   OH236381   1.195   4.713   1.550 -0.1502 -0.3571  0.5197
 4941TIP3    H136382   1.261   4.660   1.595  0.5540 -0.3635 -0.4816
 4941TIP3    H236383   1.243   4.790   1.519 -0.6344 -0.3197 -0.1471
 4942TIP3   OH236384   2.682   1.834   5.189 -0.1998 -0.1199 -0.0917
 4942TIP3    H136385   2.770   1.805   5.166  0.0766 -0.3773  1.1864
 4942TIP3    H236386   2.634   1.754   5.207 -0.0613  0.0716  1.2900
 4943TIP3   OH236387   6.289   5.964   1.839  0.0142  0.0551  0.4968
 4943TIP3    H136388   6.328   6.020   1.772  0.0394 -0.1206  0.3651
 4943TIP3    H236389   6.346   5.975   1.915  1.2149 -1.3726 -0.1525
 4944TIP3   OH236390   3.084   4.008   4.601  0.1402 -0.5793 -0.1543
 4944TIP3    H136391   3.073   4.102   4.614  1.5550 -0.3405 -0.5067
 4944TIP3    H236392   3.122   3.977   4.684  1.5549 -0.4656 -0.7305
 4945TIP3   OH236393   3.208   2.839   4.600  0.5773  0.7929  0.4133
 4945TIP3    H136394   3.207   2.764   4.541  0.2868  0.0986  1.2810
 4945TIP3    H236395   3.169   2.910   4.549  1.0588  0.4190 -0.4925
 4946TIP3   OH236396   6.235   1.474   4.017 -0.9775 -0.0603 -0.4066
 4946TIP3    H136397   6.189   1.492   4.100 -0.8141  1.1784 -0.5551
 4946TIP3    H236398   6.196   1.536   3.955  0.7178  0.8827 -0.5853
 4947TIP3   OH236399   3.899   1.487   1.403 -0.3169  0.3225 -0.0315
 4947TIP3    H136400   3.887   1.458   1.313  0.1775  2.3406 -0.8011
 4947TIP3    H236401   3.976   1.544   1.400 -0.6604  0.9258  1.5381
 4948TIP3   OH236402   4.813   4.667   0.332 -0.3726  0.0423  0.0859
 4948TIP3    H136403   4.855   4.583   0.345  0.1745  0.4814  1.2580
 4948TIP3    H236404   4.719   4.649   0.345 -0.1226 -0.1075  1.9570
 4949TIP3   OH236405   6.601   2.488   3.298 -0.5719  0.2668  0.0402
 4949TIP3    H136406   6.525   2.432   3.314  0.5812 -0.9293  1.7562
 4949TIP3    H236407   6.615   2.533   3.381  1.2412 -0.4109  0.1470
 4950TIP3   OH236408   2.899   0.642   4.013  0.0089 -0.4409 -0.0847
 4950TIP3    H136409   2.871   0.639   4.105 -1.1310 -0.6125 -0.4166
 4950TIP3    H236410   2.973   0.583   4.008 -1.1652 -2.0093  0.3428
 4951TIP3   OH236411   5.142   0.526   1.155 -0.4670  0.0726 -0.4105
 4951TIP3    H136412   5.062   0.478   1.172  1.2801 -2.7289  0.4602
 4951TIP3    H236413   5.176   0.549   1.241  1.5238 -2.1894 -0.4889
 4952TIP3   OH236414   6.554   2.700   2.007  0.2787  0.1455 -0.4008
 4952TIP3    H136415   6.641   2.665   1.991  0.4748 -0.0098  0.9489
 4952TIP3    H236416   6.499   2.623   2.024 -0.1673  0.2295 -1.3906
 4953TIP3   OH236417   1.011   0.671   1.348 -0.3070  0.1061 -0.2781
 4953TIP3    H136418   0.939   0.732   1.331 -0.0004  0.3516 -0.7337
 4953TIP3    H236419   0.986   0.591   1.304 -0.9228 -0.2604  0.7025
 4954TIP3   OH236420   2.437   5.103   3.300 -0.2381  0.4770 -0.1969
 4954TIP3    H136421   2.484   5.163   3.359  0.6352 -0.5066  0.1498
 4954TIP3    H236422   2.363   5.073   3.352  0.4777 -0.3136  0.3997
 4955TIP3   OH236423   4.831   4.421   3.633 -0.3590  0.6534  0.5953
 4955TIP3    H136424   4.906   4.480   3.634  1.0505 -0.9658 -1.5530
 4955TIP3    H236425   4.852   4.354   3.698  0.4565 -0.1554 -0.4489
 4956TIP3   OH236426   3.997   6.449   3.322  0.3509  0.5153  0.6968
 4956TIP3    H136427   3.998   6.354   3.332  1.0991  0.2906 -1.1260
 4956TIP3    H236428   4.083   6.477   3.353 -0.0608  0.6749  1.7243
 4957TIP3   OH236429   0.327   6.573   3.682 -0.1629  1.3399 -0.2409
 4957TIP3    H136430   0.350   6.665   3.689  0.1509  1.2464 -0.0094
 4957TIP3    H236431   0.231   6.571   3.686 -0.3078  1.8279 -2.2592
 4958TIP3   OH236432   5.128   2.630   2.044  0.7657  0.2690  0.1417
 4958TIP3    H136433   5.174   2.657   1.965  1.3467  0.8505  0.6647
 4958TIP3    H236434   5.118   2.710   2.095 -0.1539  0.0121  0.3881
 4959TIP3   OH236435   6.039   1.181   3.431  0.2436  1.2820  0.0579
 4959TIP3    H136436   5.979   1.188   3.356  0.9190  1.3051 -0.4894
 4959TIP3    H236437   6.109   1.124   3.400 -1.0036 -1.3474  1.7136
 4960TIP3   OH236438   4.235   2.977   4.137  0.3338 -0.2327 -0.2446
 4960TIP3    H136439   4.302   3.034   4.098 -0.0939 -1.0421 -2.2631
 4960TIP3    H236440   4.269   2.889   4.126  0.2242 -0.5084  1.3687
 4961TIP3   OH236441   0.350   0.508   0.758 -0.4128  0.6489  0.0143
 4961TIP3    H136442   0.397   0.587   0.734 -0.6337  0.8590  0.2614
 4961TIP3    H236443   0.408   0.464   0.820  1.2860 -1.1411 -2.6480
 4962TIP3   OH236444   3.080   5.398   1.862 -0.1341 -0.2758  0.5032
 4962TIP3    H136445   3.153   5.456   1.885  0.1297 -0.8159  1.0511
 4962TIP3    H236446   3.013   5.457   1.827 -0.1939  0.4839  1.8008
 4963TIP3   OH236447   1.316   4.293   0.686 -0.1755  0.5918 -0.2327
 4963TIP3    H136448   1.228   4.258   0.696 -0.1230  0.4583 -0.2376
 4963TIP3    H236449   1.374   4.221   0.709 -0.0667  0.6686 -0.2628
 4964TIP3   OH236450   2.005   6.563   2.232 -0.3849  0.8338 -0.1535
 4964TIP3    H136451   2.069   6.626   2.200 -0.8974  1.4485  0.0098
 4964TIP3    H236452   2.029   6.549   2.324 -0.0234  0.4719 -0.3004
 4965TIP3   OH236453   3.625   5.786   4.088  0.3707 -0.0937  0.2064
 4965TIP3    H136454   3.554   5.736   4.049  1.6396 -0.4331 -1.8680
 4965TIP3    H236455   3.656   5.731   4.161 -1.2047 -0.0985  0.9137
 4966TIP3   OH236456   0.337   1.723   1.985 -0.5866  0.0448 -0.0518
 4966TIP3    H136457   0.339   1.741   2.079  0.4363  0.1574 -0.0777
 4966TIP3    H236458   0.404   1.656   1.971  1.1647  1.8751 -1.0253
 4967TIP3   OH236459   5.742   0.920   4.287 -0.2244 -0.4494 -0.3483
 4967TIP3    H136460   5.798   0.891   4.358  1.1064  1.1498 -0.6791
 4967TIP3    H236461   5.654   0.892   4.312  0.2721 -0.2830  1.7201
 4968TIP3   OH236462   6.292   0.165   4.051 -0.0534 -0.1579 -0.2787
 4968TIP3    H136463   6.326   0.087   4.095 -0.9087  0.0137  0.7189
 4968TIP3    H236464   6.341   0.238   4.090 -0.0634 -0.0968 -0.3790
 4969TIP3   OH236465   4.253   4.479   1.464 -0.1931  0.3159 -0.5682
 4969TIP3    H136466   4.288   4.551   1.517  3.3933 -1.0461 -0.8588
 4969TIP3    H236467   4.158   4.481   1.481  0.4337  1.1850  4.3428
 4970TIP3   OH236468   1.958   6.503   0.921  0.3589  0.0515  0.4913
 4970TIP3    H136469   2.045   6.513   0.882 -0.1691 -0.3670 -0.8583
 4970TIP3    H236470   1.898   6.523   0.849 -0.6717  0.8110  1.5305
 4971TIP3   OH236471   2.952   2.222   1.094 -0.1648 -0.1881 -0.2545
 4971TIP3    H136472   2.872   2.272   1.079  1.0395  1.9902  0.0677
 4971TIP3    H236473   2.938   2.177   1.177 -0.8698  0.5643  0.0440
 4972TIP3   OH236474   1.896   5.690   3.310  0.4289  0.0140 -0.3239
 4972TIP3    H136475   1.802   5.680   3.321  0.1662  1.0941 -1.4201
 4972TIP3    H236476   1.934   5.618   3.360 -0.9991 -0.9600 -0.6138
 4973TIP3   OH236477   6.735   6.759   0.593 -0.1486 -0.5805  0.3830
 4973TIP3    H136478   6.776   6.744   0.507 -2.2645  1.6354 -1.1262
 4973TIP3    H236479   6.688   6.678   0.612 -0.0547 -0.9263 -0.7938
 4974TIP3   OH236480   1.338   0.343   1.014  0.4127 -0.1011 -0.5305
 4974TIP3    H136481   1.292   0.426   1.020 -0.2752 -0.4981 -0.1624
 4974TIP3    H236482   1.301   0.300   0.938  0.0556 -0.4884 -0.1434
 4975TIP3   OH236483   2.248   1.179   0.708  0.3357 -0.1984 -0.0093
 4975TIP3    H136484   2.187   1.249   0.730  0.7213  0.5147 -1.1263
 4975TIP3    H236485   2.333   1.210   0.740  0.7215  0.4047 -1.5723
 4976TIP3   OH236486   0.616   4.531   0.974  1.1259 -0.3566  0.0746
 4976TIP3    H136487   0.648   4.582   0.900  2.9483 -0.8436  0.4640
 4976TIP3    H236488   0.692   4.523   1.032  0.0522 -0.9329  1.4611
 4977TIP3   OH236489   4.309   3.844   1.246  0.5253  0.0358 -0.3757
 4977TIP3    H136490   4.233   3.823   1.193  0.6749  1.5921 -1.2844
 4977TIP3    H236491   4.280   3.833   1.337 -0.2954 -0.8723 -0.7421
 4978TIP3   OH236492   0.580   5.531   1.857 -0.0315 -0.4935  0.0368
 4978TIP3    H136493   0.620   5.606   1.902  0.6074 -0.5284 -0.4711
 4978TIP3    H236494   0.508   5.505   1.915  0.1036  0.1446  0.5073
 4979TIP3   OH236495   0.637   3.333   2.682 -0.3197 -0.2225 -0.2753
 4979TIP3    H136496   0.631   3.273   2.608  1.1866 -0.5880 -0.1365
 4979TIP3    H236497   0.636   3.420   2.642  0.8234 -0.4237 -0.7686
 4980TIP3   OH236498   5.153   6.807   3.066  0.4179  0.1567  0.0820
 4980TIP3    H136499   5.145   6.874   3.134 -0.0813  2.5512 -2.1889
 4980TIP3    H236500   5.064   6.794   3.034  0.5602 -1.4020  0.2414
 4981TIP3   OH236501   6.752   1.545   1.801 -0.0686 -0.0436  0.4299
 4981TIP3    H136502   6.733   1.579   1.889  0.7436  0.0275  0.5910
 4981TIP3    H236503   6.846   1.561   1.790 -0.3877  1.1195 -0.9629
 4982TIP3   OH236504   3.950   0.901   1.148 -0.0099 -0.0681 -0.0898
 4982TIP3    H136505   4.034   0.928   1.110 -0.7910 -0.1813 -2.0099
 4982TIP3    H236506   3.889   0.970   1.121 -0.8830 -0.8850 -0.2224
 4983TIP3   OH236507   4.946   6.094   1.140 -0.0904 -0.7608  0.1387
 4983TIP3    H136508   4.990   6.054   1.215  0.6149 -1.6874 -0.7347
 4983TIP3    H236509   4.927   6.020   1.081  1.4908  0.1673 -1.6559
 4984TIP3   OH236510   0.917   0.155   1.874 -0.2341 -0.1684 -0.0939
 4984TIP3    H136511   0.867   0.225   1.831 -0.6258 -0.5500 -0.2709
 4984TIP3    H236512   0.972   0.200   1.938 -0.3205  0.3224 -0.3619
 4985TIP3   OH236513   4.109   5.179   1.423 -0.1273 -0.1901 -0.1068
 4985TIP3    H136514   4.058   5.138   1.353  0.5173 -0.5886 -0.3481
 4985TIP3    H236515   4.182   5.220   1.379 -0.4040  0.6589  0.2067
 4986TIP3   OH236516   0.829   2.008   0.915  0.4410  0.3420 -0.1799
 4986TIP3    H136517   0.872   1.924   0.900  2.3287  1.3588 -0.7552
 4986TIP3    H236518   0.839   2.055   0.832 -1.1356  0.9328 -0.0753
 4987TIP3   OH236519   0.212   1.410   1.688 -0.2598  0.2872  0.0347
 4987TIP3    H136520   0.145   1.392   1.622  0.3283 -1.0119 -0.2363
 4987TIP3    H236521   0.167   1.463   1.754 -1.1606  0.6375 -0.8394
 4988TIP3   OH236522   3.968   1.672   0.951  0.4012 -0.0283 -1.2695
 4988TIP3    H136523   3.924   1.675   0.867 -1.1631 -1.7705 -0.5591
 4988TIP3    H236524   3.900   1.691   1.015  1.8823  3.0355 -0.3787
 4989TIP3   OH236525   2.700   0.369   3.589  0.1694  0.2628  0.6345
 4989TIP3    H136526   2.671   0.409   3.671  2.9766  1.3081  1.2602
 4989TIP3    H236527   2.624   0.322   3.557 -0.7186 -1.4058  4.5524
 4990TIP3   OH236528   6.143   1.533   4.271  0.0310  0.1989  0.0247
 4990TIP3    H136529   6.070   1.511   4.329  0.6022  0.5735  0.9084
 4990TIP3    H236530   6.132   1.626   4.252 -0.4557 -0.0364 -0.9302
 4991TIP3   OH236531   1.967   0.210   1.748  0.2301 -0.3942  0.7519
 4991TIP3    H136532   2.060   0.195   1.767  0.4444 -1.6521 -1.0213
 4991TIP3    H236533   1.966   0.286   1.690  0.0231  0.3104  1.6516
 4992TIP3   OH236534   2.851   1.040   3.035 -0.0526  0.3591 -0.2031
 4992TIP3    H136535   2.834   1.105   2.967 -0.0211  1.0838  0.4621
 4992TIP3    H236536   2.932   0.998   3.008  1.4123  2.4337  0.6466
 4993TIP3   OH236537   0.107   1.605   1.824  0.3304  0.0619  0.7655
 4993TIP3    H136538   0.133   1.678   1.769  0.7969 -0.9189 -0.3517
 4993TIP3    H236539   0.130   1.632   1.913  2.0375  0.5974  0.1926
 4994TIP3   OH236540   0.816   0.064   0.551 -0.0037 -0.1202  0.4906
 4994TIP3    H136541   0.731   0.098   0.581 -0.0967  0.4852 -0.4036
 4994TIP3    H236542   0.794   0.003   0.481  0.3124  0.6152 -0.2736
 4995TIP3   OH236543   1.977   5.409   3.714 -0.0154  0.4068  0.1838
 4995TIP3    H136544   1.975   5.411   3.619 -0.2960  0.0480  0.1809
 4995TIP3    H236545   1.985   5.501   3.740  0.2823  0.4899 -0.1881
 4996TIP3   OH236546   6.878   3.199   0.459 -0.2777 -0.0330 -0.5585
 4996TIP3    H136547   6.870   3.116   0.507 -1.8067 -0.6632 -1.8298
 4996TIP3    H236548   6.941   3.179   0.389 -1.2267 -0.3889 -1.3363
 4997TIP3   OH236549   2.117   3.871   3.020  0.2026  0.1304 -0.0965
 4997TIP3    H136550   2.166   3.794   3.046  1.2087  0.2410 -1.5732
 4997TIP3    H236551   2.093   3.913   3.103 -0.1923 -1.6202  0.7207
 4998TIP3   OH236552   0.134   3.045   4.110 -0.3090 -0.6482 -0.1903
 4998TIP3    H136553   0.081   2.975   4.147  1.4288 -1.9495 -0.0012
 4998TIP3    H236554   0.224   3.013   4.119  0.4019  0.6411 -2.1456
 4999TIP3   OH236555   4.455   1.901   4.318  0.2905  0.4268  0.3111
 4999TIP3    H136556   4.392   1.831   4.302  1.4306 -0.6257  0.3038
 4999TIP3    H236557   4.504   1.872   4.394  0.8106  1.2061  0.2801
 5000TIP3   OH236558   0.612   1.393   0.362 -0.8163  0.2145  0.7102
 5000TIP3    H136559   0.622   1.449   0.285  1.0642  0.0542  0.8041
 5000TIP3    H236560   0.517   1.391   0.377 -1.0587  2.1862 -0.1609
 5001TIP3   OH236561   2.702   4.631   1.479  0.0429  0.1679 -0.3474
 5001TIP3    H136562   2.612   4.611   1.452 -0.2456  0.3179  0.4899
 5001TIP3    H236563   2.702   4.725   1.496 -0.1357 -0.1174  1.4206
 5002TIP3   OH236564   3.766   3.052   2.119 -0.0993 -0.1028  0.1687
 5002TIP3    H136565   3.777   2.960   2.142 -0.9825  0.0866  1.3960
 5002TIP3    H236566   3.812   3.100   2.188  3.0975  0.3944 -2.0548
 5003TIP3   OH236567   2.793   6.819   1.842 -0.7629 -0.5031  0.3119
 5003TIP3    H136568   2.759   6.897   1.888 -1.5874 -0.2110 -0.7555
 5003TIP3    H236569   2.864   6.853   1.788  0.0737 -0.8150  1.1784
 5004TIP3   OH236570   4.259   5.956   1.702  1.2267 -0.3745 -0.0293
 5004TIP3    H136571   4.206   5.917   1.633  0.9755  0.4855 -0.3295
 5004TIP3    H236572   4.205   5.947   1.781  0.5251  0.6967 -0.3749
 5005TIP3   OH236573   1.966   3.834   0.114  0.3377 -0.0863  0.4764
 5005TIP3    H136574   1.873   3.814   0.122  0.5951 -0.7356  2.2690
 5005TIP3    H236575   1.998   3.776   0.046 -0.3455 -0.6998  0.6727
 5006TIP3   OH236576   5.433   0.678   2.994 -0.3212 -0.6883 -0.6086
 5006TIP3    H136577   5.368   0.627   3.042  0.3062 -0.9221  0.0071
 5006TIP3    H236578   5.394   0.765   2.987 -0.8653 -0.9229 -0.5823
 5007TIP3   OH236579   4.389   6.708   2.008 -0.3125 -0.2858 -0.2029
 5007TIP3    H136580   4.454   6.779   2.008 -0.3055 -0.2921 -0.3288
 5007TIP3    H236581   4.369   6.694   2.101 -0.2513 -0.1758 -0.1730
 5008TIP3   OH236582   4.170   3.225   2.301  0.2727  0.4611 -0.5249
 5008TIP3    H136583   4.163   3.139   2.259  1.4788  0.2944 -0.4174
 5008TIP3    H236584   4.264   3.245   2.300  0.3379  0.5723  1.8228
 5009TIP3   OH236585   5.460   4.125   3.582 -0.6759 -0.1909  0.7389
 5009TIP3    H136586   5.531   4.084   3.632 -0.3415  0.7234  1.0327
 5009TIP3    H236587   5.383   4.072   3.602 -0.5013  0.0067  2.0379
 5010TIP3   OH236588   0.169   0.745   3.381 -0.1295  0.2623  0.3508
 5010TIP3    H136589   0.099   0.715   3.322 -0.9788  0.9921  0.9549
 5010TIP3    H236590   0.135   0.825   3.419  1.8149  1.7111 -0.7585
 5011TIP3   OH236591   4.639   0.697   8.387  0.6596  0.4430  0.5024
 5011TIP3    H136592   4.678   0.777   8.423  0.2473  1.2928 -0.8571
 5011TIP3    H236593   4.549   0.697   8.420  1.0494 -0.1732  1.5817
 5012TIP3   OH236594   5.214   3.471   2.177 -0.2184 -0.2325 -0.2144
 5012TIP3    H136595   5.229   3.523   2.097  1.3457 -0.1861  0.0819
 5012TIP3    H236596   5.154   3.525   2.229 -0.0942  0.4201 -0.7249
 5013TIP3   OH236597   5.071   4.517   3.273 -0.0502 -0.3089 -0.3095
 5013TIP3    H136598   5.065   4.476   3.187 -0.1844  0.8184 -0.8624
 5013TIP3    H236599   4.989   4.564   3.282 -1.0812 -2.2910  1.4783
 5014TIP3   OH236600   4.414   0.517   4.492 -0.4831 -0.0978 -0.0090
 5014TIP3    H136601   4.453   0.559   4.568  1.9606 -0.1268 -1.1336
 5014TIP3    H236602   4.454   0.430   4.490  0.0728  0.1551 -1.6821
 5015TIP3   OH236603   2.674   3.377   1.813 -0.3590 -0.3332 -0.2451
 5015TIP3    H136604   2.581   3.395   1.825 -0.7662 -1.8639 -0.8534
 5015TIP3    H236605   2.700   3.331   1.892 -0.1491  0.0019 -0.1204
 5016TIP3   OH236606   6.586   1.448   0.499 -0.1647  0.9709 -0.2787
 5016TIP3    H136607   6.596   1.543   0.503  0.1572  1.0150 -1.6284
 5016TIP3    H236608   6.674   1.415   0.483 -0.1120  0.3513  1.1311
 5017TIP3   OH236609   1.834   4.582   2.229 -0.9949  0.6029 -0.0640
 5017TIP3    H136610   1.763   4.626   2.182 -0.0968  1.2449 -0.8695
 5017TIP3    H236611   1.895   4.556   2.160  0.8919  2.5173  0.7799
 5018TIP3   OH236612   4.919   2.067   0.606  0.1796  0.1143  0.1316
 5018TIP3    H136613   4.872   2.101   0.682  0.4088  1.2229 -0.1995
 5018TIP3    H236614   4.957   2.145   0.564 -0.2219 -0.4195 -1.3088
 5019TIP3   OH236615   5.371   5.189   1.803  0.1938 -0.3266  0.4504
 5019TIP3    H136616   5.284   5.190   1.763 -0.0183  0.2869  0.8996
 5019TIP3    H236617   5.430   5.160   1.733 -0.1708  0.7325 -0.3174
 5020TIP3   OH236618   5.306   6.212   2.382 -0.2007  0.1670 -0.1464
 5020TIP3    H136619   5.395   6.183   2.401 -0.6576 -0.2208  1.6808
 5020TIP3    H236620   5.305   6.304   2.407  0.0135  0.5291 -1.4251
 5021TIP3   OH236621   4.184   1.187   4.400 -0.4611  0.5233 -0.2402
 5021TIP3    H136622   4.180   1.116   4.336 -0.6146 -0.2121  0.5682
 5021TIP3    H236623   4.127   1.158   4.471  2.8561 -0.6930  2.1929
 5022TIP3   OH236624   0.109   3.613   3.915  0.3124  0.8227  0.6492
 5022TIP3    H136625   0.135   3.531   3.958 -1.5637 -0.4327 -0.4825
 5022TIP3    H236626   0.015   3.620   3.929 -0.4244  0.3718 -3.0345
 5023TIP3   OH236627   1.947   1.111   3.998  0.4160  0.6222 -0.4133
 5023TIP3    H136628   1.896   1.110   4.079 -1.3940 -0.8259 -1.5125
 5023TIP3    H236629   2.023   1.055   4.017 -0.4312 -0.4118  0.0335
 5024TIP3   OH236630   5.533   1.755   3.206  0.0511 -0.7788 -0.1018
 5024TIP3    H136631   5.475   1.689   3.244 -0.0143 -0.4043  0.4608
 5024TIP3    H236632   5.518   1.749   3.112  0.0733 -1.5910 -0.0596
 5025TIP3   OH236633   1.307   6.690   8.137 -0.0045  0.5390 -0.0598
 5025TIP3    H136634   1.243   6.641   8.190  0.6814  0.8367  1.0757
 5025TIP3    H236635   1.383   6.632   8.131  0.6505  1.2553  0.9368
 5026TIP3   OH236636   4.446   5.752   1.309  0.2552  0.0376  0.5243
 5026TIP3    H136637   4.497   5.719   1.383  2.8131  1.3512 -0.5027
 5026TIP3    H236638   4.417   5.839   1.337  0.5378  0.2084  0.2951
 5027TIP3   OH236639   2.453   0.918   3.235 -0.4008 -0.0207  0.1351
 5027TIP3    H136640   2.498   0.859   3.296 -1.2328 -0.1905  0.6051
 5027TIP3    H236641   2.510   0.995   3.230  1.0972 -1.1371 -1.0895
 5028TIP3   OH236642   6.651   6.151   4.588  0.1038 -0.5432  0.2057
 5028TIP3    H136643   6.689   6.238   4.588  0.6571 -0.7790  0.1689
 5028TIP3    H236644   6.724   6.093   4.565 -0.2733 -1.0047  0.1554
 5029TIP3   OH236645   0.831   5.380   3.206 -0.0787  0.1086  0.3203
 5029TIP3    H136646   0.759   5.402   3.264  1.3368  3.6460  1.0126
 5029TIP3    H236647   0.813   5.428   3.125 -0.0848 -1.6117 -0.7372
 5030TIP3   OH236648   1.522   2.579   1.981 -0.1810  0.4975  0.2300
 5030TIP3    H136649   1.540   2.501   2.034 -2.0202  0.5616  1.0317
 5030TIP3    H236650   1.505   2.648   2.045 -2.0532  0.6764 -0.3944
 5031TIP3   OH236651   3.468   5.744   0.138 -0.0643 -0.0863 -0.4261
 5031TIP3    H136652   3.552   5.755   0.182 -0.2596 -1.2092  0.2496
 5031TIP3    H236653   3.419   5.824   0.160  0.4712  0.1476 -0.0512
 5032TIP3   OH236654   6.460   3.877   0.826 -0.2137  0.3460  0.2901
 5032TIP3    H136655   6.423   3.943   0.768 -0.5844  1.3062  1.5669
 5032TIP3    H236656   6.449   3.794   0.779 -0.7283  1.0530 -0.8755
 5033TIP3   OH236657   3.387   5.602   1.029  0.2400  0.0793 -0.1558
 5033TIP3    H136658   3.300   5.571   1.005  0.2551  0.9637 -1.3836
 5033TIP3    H236659   3.447   5.535   0.994  0.0376 -1.6680  2.5021
 5034TIP3   OH236660   2.464   4.939   3.892  0.3497  0.1138  0.4489
 5034TIP3    H136661   2.488   4.900   3.808 -0.4125 -0.2191  0.3834
 5034TIP3    H236662   2.507   4.882   3.957 -1.4931 -1.4320  0.3968
 5035TIP3   OH236663   0.486   3.815   3.697 -0.6158 -0.3649  0.2626
 5035TIP3    H136664   0.443   3.811   3.782 -0.6215 -2.1655  0.2080
 5035TIP3    H236665   0.443   3.746   3.645  0.9169 -0.8208 -0.4528
 5036TIP3   OH236666   1.846   4.499   0.551  0.0423  0.0597  0.3033
 5036TIP3    H136667   1.780   4.475   0.485  0.2334  0.3124  0.0162
 5036TIP3    H236668   1.832   4.437   0.622 -0.9636  0.5609  0.5537
 5037TIP3   OH236669   5.759   1.930   1.029  0.0310 -0.3348  0.6072
 5037TIP3    H136670   5.737   2.023   1.037  1.6281  0.1115  0.0815
 5037TIP3    H236671   5.824   1.915   1.098  0.4307 -0.8464  0.1241
 5038TIP3   OH236672   4.104   2.688   0.932  0.1853  0.2392  0.5983
 5038TIP3    H136673   4.148   2.656   1.011  2.2381  1.9388  0.2321
 5038TIP3    H236674   4.030   2.739   0.966  0.9743  0.8598  1.4602
 5039TIP3   OH236675   1.746   6.623   3.645  0.1189  0.1595  0.0828
 5039TIP3    H136676   1.714   6.649   3.731  0.4330  0.0907  0.2230
 5039TIP3    H236677   1.671   6.634   3.586  0.1232  0.9544  0.2187
 5040TIP3   OH236678   0.259   4.844   4.761 -0.2802  0.0688  0.2817
 5040TIP3    H136679   0.254   4.759   4.718 -0.6129  0.3067 -0.1519
 5040TIP3    H236680   0.325   4.832   4.829  1.6374  0.2177 -1.4761
 5041TIP3   OH236681   5.474   1.866   0.328 -1.1232  0.4235 -0.0967
 5041TIP3    H136682   5.547   1.804   0.324  0.7466  2.4711  0.4330
 5041TIP3    H236683   5.438   1.855   0.416 -0.6173  0.2666  0.0945
 5042TIP3   OH236684   3.679   1.525   1.838 -0.3893 -0.5182  0.6365
 5042TIP3    H136685   3.584   1.533   1.844 -0.3531 -0.0047  0.5334
 5042TIP3    H236686   3.694   1.473   1.758 -0.5793 -0.5887  0.6475
 5043TIP3   OH236687   1.681   4.748   4.438 -0.4882 -0.1308  0.0991
 5043TIP3    H136688   1.697   4.806   4.364  0.7069 -1.6090 -0.8380
 5043TIP3    H236689   1.767   4.713   4.461 -0.9445 -0.2687  1.7225
 5044TIP3   OH236690   5.964   1.367   3.614  0.1495  0.5050  0.9190
 5044TIP3    H136691   5.954   1.295   3.551 -2.2276 -0.2683  2.0458
 5044TIP3    H236692   6.019   1.332   3.683 -0.1049  0.1347  0.9354
 5045TIP3   OH236693   2.944   0.033   8.320 -0.3187 -0.0240 -0.7125
 5045TIP3    H136694   2.898  -0.042   8.358 -1.0061  0.8412  0.1870
 5045TIP3    H236695   2.964   0.090   8.394  1.4550  0.0511 -1.1831
 5046TIP3   OH236696   3.723   4.557   2.578 -0.7302  0.0625 -0.2033
 5046TIP3    H136697   3.748   4.630   2.635 -0.7040  0.5450 -0.8124
 5046TIP3    H236698   3.637   4.582   2.544 -1.3202 -0.8184  0.6073
 5047TIP3   OH236699   4.214   0.680   4.338 -0.2605 -0.1071 -0.0438
 5047TIP3    H136700   4.161   0.622   4.284  0.2505 -0.6396  0.0195
 5047TIP3    H236701   4.269   0.622   4.390  0.5950  0.4403 -0.3143
 5048TIP3   OH236702   1.073   5.908   1.044 -0.0601 -0.0440  0.6675
 5048TIP3    H136703   1.052   5.996   1.078 -0.6976 -0.1413  0.5294
 5048TIP3    H236704   1.144   5.878   1.101 -0.6986  0.0480  1.5355
 5049TIP3   OH236705   1.218   5.833   3.119 -0.2817 -0.3739 -0.6101
 5049TIP3    H136706   1.191   5.755   3.070 -1.4268 -0.4871  0.1384
 5049TIP3    H236707   1.162   5.903   3.085  1.5050  0.4167 -2.0626
 5050TIP3   OH236708   5.979   3.458   3.892  0.0477 -0.0288 -0.7682
 5050TIP3    H136709   5.916   3.478   3.823 -0.3923 -1.1411 -0.6993
 5050TIP3    H236710   6.010   3.370   3.872  0.8666  0.1287 -0.2519
 5051TIP3   OH236711   0.179   1.821   3.958  0.4222 -0.1730 -0.2242
 5051TIP3    H136712   0.136   1.816   3.873  1.0365  0.5269 -0.5899
 5051TIP3    H236713   0.115   1.864   4.015  0.7033  1.1174 -0.8361
 5052TIP3   OH236714   3.942   0.547   0.827  0.3279 -0.6121  0.2536
 5052TIP3    H136715   3.926   0.455   0.807  0.0145 -0.7198  0.9717
 5052TIP3    H236716   3.989   0.581   0.750  0.8705 -1.4833  0.1974
 5053TIP3   OH236717   3.217   2.371   3.885  0.0617 -0.1901  0.1786
 5053TIP3    H136718   3.227   2.310   3.959 -1.2566  1.0720  1.4667
 5053TIP3    H236719   3.125   2.367   3.863  0.3317 -0.0772 -1.0097
 5054TIP3   OH236720   4.407   3.447   1.872 -0.2353 -0.0723 -0.2530
 5054TIP3    H136721   4.331   3.412   1.918  0.1106 -2.2079 -1.2110
 5054TIP3    H236722   4.404   3.406   1.786  1.7249  0.1652 -0.4754
 5055TIP3   OH236723   2.470   3.754   2.397 -0.4876 -0.2604 -1.2146
 5055TIP3    H136724   2.431   3.812   2.462  1.5513  0.7623 -0.8231
 5055TIP3    H236725   2.500   3.813   2.327  1.6375 -0.7550 -0.8000
 5056TIP3   OH236726   0.899   5.793   4.091 -0.2610 -0.0126 -0.2467
 5056TIP3    H136727   0.943   5.806   4.175  0.6324  0.7114 -0.8233
 5056TIP3    H236728   0.813   5.758   4.116 -0.0035  0.1493  0.9679
 5057TIP3   OH236729   1.112   1.261   1.658 -0.1803  0.0940 -0.2113
 5057TIP3    H136730   1.161   1.304   1.589 -0.5215  0.6616 -0.1014
 5057TIP3    H236731   1.167   1.186   1.683  1.0091  1.1515  0.4423
 5058TIP3   OH236732   3.723   1.043   3.218  0.3735  0.5133  0.0923
 5058TIP3    H136733   3.800   1.085   3.257  0.7307 -0.6461  0.6853
 5058TIP3    H236734   3.760   0.977   3.159 -0.1798  0.9682 -0.7797
 5059TIP3   OH236735   4.834   2.275   2.887  0.1951 -0.1936  0.5116
 5059TIP3    H136736   4.780   2.337   2.839 -0.8428 -1.2329  0.3013
 5059TIP3    H236737   4.823   2.300   2.979  1.9866  1.6361  0.2894
 5060TIP3   OH236738   3.786   0.061   0.761  0.1800  0.0906  0.1563
 5060TIP3    H136739   3.762   0.056   0.853 -0.8281  1.0089 -0.0454
 5060TIP3    H236740   3.748  -0.018   0.722 -1.0438  0.6417  0.1845
 5061TIP3   OH236741   3.932   2.483   2.956  0.7836 -0.0576 -0.0852
 5061TIP3    H136742   3.932   2.421   3.028 -0.1033  1.8323  1.6284
 5061TIP3    H236743   3.985   2.557   2.987  0.5816  0.7095 -1.4644
 5062TIP3   OH236744   2.585   6.481   0.325  0.0067  0.7972  0.1481
 5062TIP3    H136745   2.503   6.449   0.288  0.1257 -1.0467  1.3981
 5062TIP3    H236746   2.618   6.409   0.379  3.1201  0.9457 -1.3251
 5063TIP3   OH236747   0.400   1.597   1.583 -0.2915 -0.1108 -0.7295
 5063TIP3    H136748   0.354   1.542   1.647  1.3394  1.4853  2.0292
 5063TIP3    H236749   0.365   1.570   1.498  0.1347 -5.1621  0.3795
 5064TIP3   OH236750   2.414   4.587   4.417 -0.8247  0.2340 -0.2638
 5064TIP3    H136751   2.456   4.626   4.493 -0.5356 -0.3178 -0.1318
 5064TIP3    H236752   2.381   4.502   4.449  0.6886 -0.7278 -1.1291
 5065TIP3   OH236753   6.639   6.345   3.405  0.0465  1.0400 -0.4545
 5065TIP3    H136754   6.673   6.348   3.315 -0.0887 -0.7911 -0.6095
 5065TIP3    H236755   6.717   6.353   3.460  0.3873  0.0782 -0.7743
 5066TIP3   OH236756   2.676   5.525   3.038 -0.1187  0.5233  0.5069
 5066TIP3    H136757   2.753   5.551   2.987  1.0001 -1.8406  0.8429
 5066TIP3    H236758   2.603   5.533   2.977  0.9761 -0.8292 -1.0819
 5067TIP3   OH236759   4.745   1.564   2.295  0.1246  0.0262  0.1717
 5067TIP3    H136760   4.756   1.658   2.311 -0.6322  0.2070 -0.3194
 5067TIP3    H236761   4.789   1.549   2.212 -0.4039  0.0981 -0.1249
 5068TIP3   OH236762   2.732   4.244   1.321 -0.5052  0.2073  0.3881
 5068TIP3    H136763   2.752   4.283   1.407  2.0882 -0.5104  0.2057
 5068TIP3    H236764   2.640   4.218   1.326 -0.9444  1.9060  2.2475
 5069TIP3   OH236765   2.348   0.296   0.202  0.2190 -0.0713 -0.0485
 5069TIP3    H136766   2.294   0.247   0.140  0.2332  0.1194 -0.2125
 5069TIP3    H236767   2.306   0.282   0.287  1.2271 -1.8660  0.2187
 5070TIP3   OH236768   3.017   1.591   2.774  0.0910 -0.1746  0.0297
 5070TIP3    H136769   3.051   1.638   2.698  0.5556 -1.8467 -0.8441
 5070TIP3    H236770   3.085   1.526   2.795 -1.7529 -2.5311 -0.7678
 5071TIP3   OH236771   1.950   4.935   2.037  0.0786  0.1457  0.2465
 5071TIP3    H136772   2.015   4.902   2.099  0.3451  0.7768  0.3095
 5071TIP3    H236773   1.976   5.026   2.021  0.5297 -0.2575 -1.4717
 5072TIP3   OH236774   1.383   3.122   3.601  0.0295  0.1182  0.3869
 5072TIP3    H136775   1.338   3.171   3.533  0.1564  1.3886  1.1849
 5072TIP3    H236776   1.319   3.116   3.673  0.0040 -0.9350  0.3025
 5073TIP3   OH236777   0.125   4.980   3.499  0.1578  0.4965  0.0144
 5073TIP3    H136778   0.203   5.011   3.454  0.2501 -0.8088 -0.7806
 5073TIP3    H236779   0.150   4.895   3.536 -0.7428  0.2640  0.1217
 5074TIP3   OH236780   5.269   6.237   3.595 -0.1372 -0.7056 -1.1791
 5074TIP3    H136781   5.299   6.328   3.590  1.3449 -1.0302  0.7974
 5074TIP3    H236782   5.290   6.200   3.509  0.6687  0.4059 -1.4794
 5075TIP3   OH236783   3.009   5.941   2.849 -0.2521 -0.3975 -0.0856
 5075TIP3    H136784   3.081   5.897   2.895 -0.9005 -0.2771  1.0989
 5075TIP3    H236785   2.986   6.015   2.906 -0.8124  0.0141 -0.8226
 5076TIP3   OH236786   6.852   6.247   0.457  0.5306  0.0743 -0.5576
 5076TIP3    H136787   6.852   6.342   0.450 -0.7758  0.3517  2.0710
 5076TIP3    H236788   6.791   6.218   0.389  0.4404  1.1249 -0.9508
 5077TIP3   OH236789   6.656   3.815   3.783  1.3423 -0.2491  0.3669
 5077TIP3    H136790   6.720   3.880   3.754  0.5310  0.3352 -0.1577
 5077TIP3    H236791   6.670   3.739   3.726  2.3401 -0.5716  1.0275
 5078TIP3   OH236792   4.264   6.521   3.360 -0.0598 -0.9137 -0.2418
 5078TIP3    H136793   4.281   6.522   3.266 -1.6579 -0.2220 -0.5610
 5078TIP3    H236794   4.346   6.493   3.399  1.0174 -0.0282 -1.7616
 5079TIP3   OH236795   4.022   3.888   2.793 -0.0545  0.0029 -0.0811
 5079TIP3    H136796   3.980   3.965   2.755 -0.9216  0.3602  1.5569
 5079TIP3    H236797   4.045   3.834   2.717 -2.1423  0.4730 -1.1059
 5080TIP3   OH236798   3.092   3.623   0.314  0.0536  0.0469 -0.5707
 5080TIP3    H136799   3.017   3.641   0.257  0.8121 -0.1865 -1.6694
 5080TIP3    H236800   3.055   3.620   0.402 -1.4390 -1.1482 -1.1857
 5081TIP3   OH236801   4.345   3.132   2.902 -0.9471  0.2634 -0.3842
 5081TIP3    H136802   4.375   3.145   2.812  0.6313  1.4648  0.2746
 5081TIP3    H236803   4.335   3.220   2.937 -1.7704 -0.1849  0.5712
 5082TIP3   OH236804   1.421   1.779   2.582  0.2321  0.0894 -0.4754
 5082TIP3    H136805   1.435   1.791   2.676 -1.5153  0.4006 -0.2024
 5082TIP3    H236806   1.508   1.771   2.545  1.0545  1.6816  0.9611
 5083TIP3   OH236807   6.241   4.497   2.303  0.0101  0.3132 -0.0104
 5083TIP3    H136808   6.162   4.522   2.256  0.1386 -0.4361 -0.6513
 5083TIP3    H236809   6.239   4.549   2.384  0.1752  2.2304 -1.1653
 5084TIP3   OH236810   5.487   2.338   0.686  0.5044 -0.1254 -0.0787
 5084TIP3    H136811   5.467   2.280   0.759 -0.8531 -2.5645 -2.2056
 5084TIP3    H236812   5.518   2.419   0.727  0.9569 -1.7491  3.1142
 5085TIP3   OH236813   0.054   2.272   3.762  1.1618  0.3253 -0.0370
 5085TIP3    H136814   0.124   2.321   3.718  0.0315  2.0144 -0.0662
 5085TIP3    H236815   0.012   2.222   3.693  2.6065 -1.0838  0.0616
 5086TIP3   OH236816   1.545   3.335   3.775 -0.6720  0.3066 -0.4907
 5086TIP3    H136817   1.453   3.359   3.786 -0.7560 -0.6175  1.1458
 5086TIP3    H236818   1.558   3.334   3.680 -2.4519  0.0744 -0.7755
 5087TIP3   OH236819   4.347   5.492   2.116 -0.3606 -0.3537  0.1160
 5087TIP3    H136820   4.347   5.530   2.028 -0.5688 -1.2741 -0.2868
 5087TIP3    H236821   4.264   5.445   2.122  0.2706 -1.4675  0.2908
 5088TIP3   OH236822   2.301   6.419   3.335  0.6849  0.1996  0.1623
 5088TIP3    H136823   2.278   6.500   3.380  0.4891  0.2242  0.0166
 5088TIP3    H236824   2.355   6.371   3.398 -0.8422 -0.4543  1.0146
 5089TIP3   OH236825   4.003   4.395   1.609  0.3721 -0.0055  0.2620
 5089TIP3    H136826   4.026   4.337   1.682 -0.1157 -2.0284 -1.1003
 5089TIP3    H236827   3.912   4.419   1.625  0.7534  0.8693  1.1397
 5090TIP3   OH236828   3.622   6.808   3.631  0.8251 -0.7306  0.0714
 5090TIP3    H136829   3.532   6.776   3.632  0.6402 -0.2246  0.4544
 5090TIP3    H236830   3.658   6.777   3.548 -0.4556  1.0860 -1.2345
 5091TIP3   OH236831   5.282   2.908   3.632  0.2271 -0.0789 -0.1623
 5091TIP3    H136832   5.313   2.846   3.566  0.0082 -0.5711  0.1880
 5091TIP3    H236833   5.266   2.989   3.583 -1.8443 -0.9859 -1.1216
 5092TIP3   OH236834   6.638   3.840   4.095  0.1889 -0.2603 -0.2136
 5092TIP3    H136835   6.672   3.858   4.007  0.7679 -2.7980 -0.5916
 5092TIP3    H236836   6.549   3.807   4.080 -0.1706  0.4573  0.2824
 5093TIP3   OH236837   5.909   1.675   1.891  0.3724  0.4642  0.1405
 5093TIP3    H136838   5.867   1.751   1.850 -0.2524 -0.3373 -0.7395
 5093TIP3    H236839   5.893   1.687   1.985 -2.4838 -0.1502 -0.1860
 5094TIP3   OH236840   2.669   2.730   0.997  0.1342  0.6159  0.2389
 5094TIP3    H136841   2.666   2.812   0.947 -1.0560  2.3860  2.9823
 5094TIP3    H236842   2.597   2.678   0.962  0.9676  0.6333 -1.6235
 5095TIP3   OH236843   5.736   4.678   2.135 -0.2237 -0.4501 -0.1394
 5095TIP3    H136844   5.761   4.697   2.044 -1.5546  0.0472 -0.4233
 5095TIP3    H236845   5.641   4.666   2.131 -0.1222 -1.9275  0.9452
 5096TIP3   OH236846   3.704   3.723   1.509  0.0662 -0.7943  0.3051
 5096TIP3    H136847   3.729   3.656   1.572 -0.9057  0.8529  2.5672
 5096TIP3    H236848   3.673   3.674   1.433 -0.8418 -2.9285  1.9616
 5097TIP3   OH236849   5.914   2.665   0.874 -0.3117  0.5068 -0.6892
 5097TIP3    H136850   5.841   2.604   0.860  0.6905 -0.9446  0.1705
 5097TIP3    H236851   5.916   2.718   0.794 -1.3844 -0.4034 -1.3597
 5098TIP3   OH236852   3.683   0.441   2.610 -0.0621  0.0049  0.8859
 5098TIP3    H136853   3.766   0.408   2.644  0.3373  0.6308  0.5204
 5098TIP3    H236854   3.617   0.382   2.648  0.5325 -0.4393  1.2482
 5099TIP3   OH236855   4.426   3.193   1.109  0.7380 -0.0154 -0.0214
 5099TIP3    H136856   4.377   3.175   1.189  0.4988  0.0020 -0.1627
 5099TIP3    H236857   4.368   3.250   1.057  0.0561 -1.5850 -1.0567
 5100TIP3   OH236858   6.124   3.442   3.269 -0.3860  0.2417 -0.4178
 5100TIP3    H136859   6.071   3.377   3.223 -0.9431  0.7782 -0.5494
 5100TIP3    H236860   6.064   3.515   3.285  0.4847  1.1601 -1.2064
 5101TIP3   OH236861   6.754   1.181   4.033  0.0122 -0.5468 -0.5222
 5101TIP3    H136862   6.744   1.132   4.115 -1.0790  1.4382  0.6115
 5101TIP3    H236863   6.665   1.186   3.997  0.2871 -0.3271 -1.1862
 5102TIP3   OH236864   6.488   1.252   3.910  0.1233  0.4736  0.0196
 5102TIP3    H136865   6.429   1.296   3.849 -2.3249 -3.7055 -1.0738
 5102TIP3    H236866   6.433   1.230   3.985  0.9172 -1.2199  0.1603
 5103TIP3   OH236867   3.684   4.264   0.376 -0.3212 -0.1019  0.0523
 5103TIP3    H136868   3.764   4.219   0.404 -0.7343 -0.6844  0.3328
 5103TIP3    H236869   3.643   4.203   0.315 -0.6434  0.1113  0.0555
 5104TIP3   OH236870   0.657   1.997   1.544 -0.0798 -0.1548  0.2600
 5104TIP3    H136871   0.645   2.036   1.458  0.6509  0.2522  0.3353
 5104TIP3    H236872   0.581   2.024   1.595  0.3508  1.0658  0.2703
 5105TIP3   OH236873   1.544   0.386   0.109 -0.5581 -0.0578 -0.6694
 5105TIP3    H136874   1.514   0.351   0.193  2.4097 -3.7939 -0.9234
 5105TIP3    H236875   1.476   0.359   0.046 -0.4996 -1.4784 -0.1450
 5106TIP3   OH236876   2.448   3.494   2.489 -0.0842  0.4645  0.1655
 5106TIP3    H136877   2.363   3.467   2.454 -0.3585  0.5274  0.7683
 5106TIP3    H236878   2.464   3.580   2.451 -1.9757  2.1157  2.7363
 5107TIP3   OH236879   3.822   6.404   3.089 -0.1748 -0.1947 -0.0435
 5107TIP3    H136880   3.851   6.415   3.179 -2.6601 -1.0723  0.9359
 5107TIP3    H236881   3.799   6.312   3.081 -1.8161  0.2378 -0.9474
 5108TIP3   OH236882   0.053   2.577   0.977 -0.6142  0.5183  0.4683
 5108TIP3    H136883   0.132   2.621   0.948 -0.2849 -0.1344  0.3608
 5108TIP3    H236884   0.055   2.492   0.933 -1.5438  0.6232  0.1960
 5109TIP3   OH236885   1.572   6.197   1.467 -0.3359  0.4322  0.1435
 5109TIP3    H136886   1.572   6.282   1.511 -0.8906  1.1986 -1.2689
 5109TIP3    H236887   1.649   6.198   1.411  1.0852 -1.0473  1.9381
 5110TIP3   OH236888   0.759   1.487   2.093  0.1100  0.5790  0.2007
 5110TIP3    H136889   0.831   1.435   2.059 -1.5141 -2.5473  1.1308
 5110TIP3    H236890   0.766   1.479   2.189 -0.7648  1.2016  0.3310
 5111TIP3   OH236891   4.653   3.930   2.380  0.3241 -0.3322 -0.0043
 5111TIP3    H136892   4.581   3.942   2.318  0.6755  0.4115 -0.2770
 5111TIP3    H236893   4.609   3.913   2.464 -0.2226  1.4683  0.1138
 5112TIP3   OH236894   5.001   1.111   3.967  0.0077 -0.0194 -0.3661
 5112TIP3    H136895   4.985   1.021   3.996  2.8068 -0.2119  0.9163
 5112TIP3    H236896   4.920   1.137   3.924 -3.0554 -1.2359  3.9627
 5113TIP3   OH236897   5.570   1.593   3.559  0.2971 -0.8004  0.1503
 5113TIP3    H136898   5.517   1.614   3.482  0.1848 -2.1480 -0.1613
 5113TIP3    H236899   5.527   1.638   3.631 -0.1451 -0.3043 -0.4094
 5114TIP3   OH236900   6.496   4.248   0.805  0.1991  0.3847 -0.0449
 5114TIP3    H136901   6.443   4.313   0.758  1.6100  0.5486 -1.5133
 5114TIP3    H236902   6.521   4.292   0.886  0.3350  1.3345 -0.5857
 5115TIP3   OH236903   5.001   6.083   1.415  0.6627  0.1496 -0.1621
 5115TIP3    H136904   5.086   6.095   1.457 -0.6044 -0.0957  2.6961
 5115TIP3    H236905   4.952   6.162   1.436  0.5269  0.9621 -3.0137
 5116TIP3   OH236906   6.371   2.004   3.596 -0.4090  0.1638 -0.7446
 5116TIP3    H136907   6.314   2.001   3.519  0.3782 -0.0966 -1.3252
 5116TIP3    H236908   6.339   2.079   3.646 -1.8506 -0.5189 -0.5814
 5117TIP3   OH236909   5.876   5.564   1.904 -0.8867 -0.0174 -0.1461
 5117TIP3    H136910   5.933   5.599   1.835 -2.1589 -0.2984 -1.3947
 5117TIP3    H236911   5.790   5.560   1.863 -1.3899 -1.6320  0.9967
 5118TIP3   OH236912   2.740   6.434   3.405  0.0830 -0.6108 -0.4592
 5118TIP3    H136913   2.677   6.493   3.363  0.0425  1.7439  2.5236
 5118TIP3    H236914   2.685   6.371   3.452 -0.3978  2.0766  3.0243
 5119TIP3   OH236915   4.015   6.149   0.298  0.2133 -0.0329 -0.3672
 5119TIP3    H136916   3.936   6.179   0.342  0.0496 -1.0563  0.0714
 5119TIP3    H236917   4.074   6.223   0.300  0.7827 -0.4672  2.9204
 5120TIP3   OH236918   3.715   3.564   2.904 -0.4813  0.8157 -1.1316
 5120TIP3    H136919   3.795   3.520   2.933 -0.8470  0.6151 -0.4060
 5120TIP3    H236920   3.727   3.576   2.810  0.2551  0.4784 -1.0858
 5121TIP3   OH236921   5.377   3.858   4.693 -0.6334  0.3989  0.3939
 5121TIP3    H136922   5.313   3.842   4.762 -0.2810  0.5324  0.7594
 5121TIP3    H236923   5.362   3.948   4.665  1.3238  1.5551  2.5982
 5122TIP3   OH236924   5.676   2.663   3.947  0.5290  0.3476  0.4739
 5122TIP3    H136925   5.594   2.633   3.908  1.1460  0.7540 -1.1969
 5122TIP3    H236926   5.649   2.727   4.013 -0.5923 -1.1306  1.5363
 5123TIP3   OH236927   5.557   3.467   3.287 -0.3262 -0.4407  0.2124
 5123TIP3    H136928   5.571   3.561   3.281 -0.1541 -0.3774  1.3981
 5123TIP3    H236929   5.556   3.437   3.196  2.1224  0.3402 -0.1537
 5124TIP3   OH236930   5.962   4.749   1.452 -0.3778 -0.4375 -0.4899
 5124TIP3    H136931   5.964   4.830   1.401 -1.1375 -1.1995 -1.7758
 5124TIP3    H236932   5.969   4.680   1.387 -2.5660 -1.4831  0.2905
 5125TIP3   OH236933   6.163   4.875   3.902  0.0699 -0.0528  0.8330
 5125TIP3    H136934   6.137   4.802   3.957  0.9836  0.4763  2.0113
 5125TIP3    H236935   6.196   4.835   3.822  0.5065 -0.9282  1.4415
 5126TIP3   OH236936   5.894   5.026   2.188  0.1377  0.5807 -0.4846
 5126TIP3    H136937   5.965   4.985   2.238  0.3294  1.4390 -0.0233
 5126TIP3    H236938   5.849   5.081   2.252 -2.1833 -1.3951 -0.2687
 5127TIP3   OH236939   0.753   4.514   2.100  0.5141 -0.2584 -0.0390
 5127TIP3    H136940   0.661   4.487   2.088 -0.1784  1.4923  0.9775
 5127TIP3    H236941   0.776   4.484   2.188  0.9952 -0.8571 -0.3621
 5128TIP3   OH236942   2.477   6.707   0.753 -0.1593  0.2997  0.4567
 5128TIP3    H136943   2.423   6.673   0.681 -0.3743  2.3492 -0.4186
 5128TIP3    H236944   2.564   6.716   0.716 -0.0224  0.3472  0.7852
 5129TIP3   OH236945   6.406   3.068   1.867  0.5721  0.1831  0.3941
 5129TIP3    H136946   6.389   3.103   1.955  1.9772  1.0930  0.3262
 5129TIP3    H236947   6.500   3.076   1.856  0.2604  1.6235 -1.8126
 5130TIP3   OH236948   6.701   6.652   1.330 -0.0149  0.1493 -0.0775
 5130TIP3    H136949   6.652   6.732   1.311  1.4534  0.8609 -0.9890
 5130TIP3    H236950   6.646   6.582   1.295 -1.2628  0.7437  0.6241
 5131TIP3   OH236951   5.864   2.536   4.380  0.8877  0.0014  0.0712
 5131TIP3    H136952   5.804   2.534   4.306 -0.0658  0.8433  0.7921
 5131TIP3    H236953   5.814   2.579   4.450  1.6180 -1.1080  1.3170
 5132TIP3   OH236954   2.770   4.848   0.332 -0.1305 -0.3218 -0.0815
 5132TIP3    H136955   2.832   4.785   0.296  0.7996  0.8511 -0.5691
 5132TIP3    H236956   2.805   4.934   0.308 -0.5821  0.4437  1.8285
 5133TIP3   OH236957   5.722   2.681   4.557  0.4510 -0.3347  0.0293
 5133TIP3    H136958   5.713   2.776   4.571  2.9752  0.1096 -0.8103
 5133TIP3    H236959   5.746   2.646   4.643  0.2604 -0.1050  0.1775
 5134TIP3   OH236960   0.520   4.072   3.672 -0.6614 -0.4618 -1.1217
 5134TIP3    H136961   0.543   3.980   3.660  1.9882  0.1770 -1.5246
 5134TIP3    H236962   0.501   4.080   3.766 -1.8295 -1.5685 -1.2420
 5135TIP3   OH236963   2.074   6.633   0.079  0.0881 -0.4356 -0.0171
 5135TIP3    H136964   1.983   6.609   0.062  0.0153  1.2425 -2.5158
 5135TIP3    H236965   2.086   6.716   0.033  2.2498  0.6545  2.2969
 5136TIP3   OH236966   0.270   6.085   0.747  0.2378  0.5118  0.8357
 5136TIP3    H136967   0.328   6.010   0.740  1.1253  1.1623  0.9601
 5136TIP3    H236968   0.203   6.058   0.809 -2.1925 -1.8534 -2.4605
 5137TIP3   OH236969   5.737   5.283   3.817  0.0900  0.2517  0.6815
 5137TIP3    H136970   5.814   5.335   3.839 -1.0373  1.8199  1.0491
 5137TIP3    H236971   5.746   5.203   3.870  0.7446  1.0485  1.8084
 5138TIP3   OH236972   5.155   1.845   2.020 -0.1322 -0.1416  0.3666
 5138TIP3    H136973   5.192   1.772   2.069 -1.0695 -1.1487 -0.3869
 5138TIP3    H236974   5.159   1.816   1.928  0.6902  1.2990 -0.0837
 5139TIP3   OH236975   3.833   5.193   4.417 -0.3631 -0.3326 -0.4137
 5139TIP3    H136976   3.800   5.283   4.412 -0.5734 -0.3668  0.2184
 5139TIP3    H236977   3.761   5.140   4.384 -1.0044 -0.4125  1.0328
 5140TIP3   OH236978   5.926   6.046   1.547  0.5853 -0.0176  0.2730
 5140TIP3    H136979   5.990   6.011   1.484  1.5596 -0.5670  1.5202
 5140TIP3    H236980   5.973   6.049   1.630 -0.2154  2.0951  0.7063
 5141TIP3   OH236981   5.600   6.777   4.428 -0.1054 -0.3439  0.1555
 5141TIP3    H136982   5.636   6.741   4.346 -0.8226  0.1474 -0.3912
 5141TIP3    H236983   5.511   6.803   4.405 -0.2194  0.0597  1.0294
 5142TIP3   OH236984   4.015   4.379   1.280  0.1407 -0.0158  0.4234
 5142TIP3    H136985   3.936   4.426   1.307  0.3002  0.0621  0.7581
 5142TIP3    H236986   4.046   4.336   1.360  1.0603  0.8623  0.5600
 5143TIP3   OH236987   4.607   5.512   4.312  0.7397 -0.4950 -0.3620
 5143TIP3    H136988   4.672   5.582   4.307  0.8007 -0.5995 -1.0873
 5143TIP3    H236989   4.626   5.468   4.394 -0.6659  1.6669  1.2500
 5144TIP3   OH236990   4.750   5.626   2.815 -0.0945 -0.4197  0.2803
 5144TIP3    H136991   4.668   5.622   2.864  0.1831 -3.5171  0.6831
 5144TIP3    H236992   4.745   5.554   2.753  2.8176 -1.5615  1.2017
 5145TIP3   OH236993   0.941   6.431   2.713  0.2378  0.6693 -0.1161
 5145TIP3    H136994   0.862   6.463   2.671  0.8837  1.9953 -0.3891
 5145TIP3    H236995   0.951   6.341   2.682 -0.1880  1.0857 -1.5107
 5146TIP3   OH236996   1.419   5.604   2.533  0.2200  0.2812 -0.7389
 5146TIP3    H136997   1.462   5.559   2.460  0.0229 -1.7817  0.3573
 5146TIP3    H236998   1.482   5.671   2.560  1.5844 -0.8901 -0.9042
 5147TIP3   OH236999   3.178   0.498   3.124 -0.0379 -0.1607  0.1901
 5147TIP3    H137000   3.177   0.424   3.064 -1.2490 -0.6687  0.8181
 5147TIP3    H237001   3.134   0.467   3.202  2.1575  0.2351  1.6883
 5148TIP3   OH237002   1.857   1.337   2.695  0.3071  0.6935  0.3408
 5148TIP3    H137003   1.863   1.431   2.707 -1.1917  1.0533 -1.2538
 5148TIP3    H237004   1.805   1.306   2.769  2.3853  0.7665  1.9253
 5149TIP3   OH237005   3.408   3.049   4.391 -0.1334 -0.2123  0.5442
 5149TIP3    H137006   3.323   3.068   4.430  0.2380  2.4716  0.2634
 5149TIP3    H237007   3.393   3.054   4.296  0.3450  0.4819  0.4942
 5150TIP3   OH237008   5.655   4.788   3.142  0.1054  0.2639  0.2261
 5150TIP3    H137009   5.691   4.801   3.229  0.7943 -0.8202  0.1236
 5150TIP3    H237010   5.709   4.719   3.104 -2.0935 -1.4805  0.0804
 5151TIP3   OH237011   4.997   4.804   4.857  0.0156 -0.2807  0.2163
 5151TIP3    H137012   4.984   4.864   4.783 -0.1893  0.7103  1.0401
 5151TIP3    H237013   4.936   4.834   4.924  1.5750  0.1004  1.5396
 5152TIP3   OH237014   1.532   3.627   4.307 -0.4100 -0.0804  0.1998
 5152TIP3    H137015   1.564   3.675   4.383 -2.4367  0.8879  0.5141
 5152TIP3    H237016   1.610   3.585   4.271  0.9316  0.9845  1.6882
 5153TIP3   OH237017   6.279   0.449   3.364  0.4778 -0.0434  0.5928
 5153TIP3    H137018   6.276   0.401   3.281  0.7861  0.1710  0.4507
 5153TIP3    H237019   6.361   0.421   3.405  0.1549 -0.4136  0.9938
 5154TIP3   OH237020   0.729   3.545   3.018 -0.5655  0.0888 -0.0245
 5154TIP3    H137021   0.768   3.516   2.936  1.1113 -1.2044  1.1607
 5154TIP3    H237022   0.638   3.565   2.995  0.1739  1.0641 -2.4325
 5155TIP3   OH237023   6.606   6.204   1.030  0.1229  0.2266  0.0212
 5155TIP3    H137024   6.514   6.232   1.036 -0.1199 -0.3315 -0.8483
 5155TIP3    H237025   6.605   6.135   0.964  1.0508 -0.3206  0.5615
 5156TIP3   OH237026   6.853   6.118   2.400 -0.4293 -0.7078  0.5422
 5156TIP3    H137027   6.836   6.147   2.489 -1.9332  0.7555 -0.1658
 5156TIP3    H237028   6.949   6.111   2.394 -0.1262  1.8528  1.4869
 5157TIP3   OH237029   6.544   0.383   1.769 -0.3453  1.2469 -0.0749
 5157TIP3    H137030   6.631   0.344   1.764 -0.7225  0.5310 -1.6976
 5157TIP3    H237031   6.558   0.467   1.814  0.6937 -0.0915  2.2766
 5158TIP3   OH237032   6.577   1.899   2.659 -0.1047 -0.1591  0.4778
 5158TIP3    H137033   6.666   1.900   2.624  0.0453 -0.2806  0.8489
 5158TIP3    H237034   6.522   1.928   2.586  0.2133 -0.3104  0.1752
 5159TIP3   OH237035   1.735   6.595   1.743 -0.0360  0.2374 -0.4066
 5159TIP3    H137036   1.826   6.605   1.715 -0.2815  1.2483 -0.9149
 5159TIP3    H237037   1.740   6.587   1.838  0.6849 -1.3275 -0.5437
 5160TIP3   OH237038   2.751   3.981   3.561  0.2145 -0.2144  0.0622
 5160TIP3    H137039   2.682   3.940   3.508  0.3887 -1.0703  0.4829
 5160TIP3    H237040   2.732   3.952   3.651  0.1682  0.8804  0.4206
 5161TIP3   OH237041   6.836   6.120   3.331  0.5234  0.0859 -0.7040
 5161TIP3    H137042   6.901   6.186   3.358  1.7225 -1.1056 -0.5754
 5161TIP3    H237043   6.790   6.097   3.411 -0.4275  1.2822 -0.8760
 5162TIP3   OH237044   6.182   5.859   0.744  0.3670 -0.4132  0.0175
 5162TIP3    H137045   6.270   5.855   0.782  0.9836 -2.6869 -1.4382
 5162TIP3    H237046   6.189   5.926   0.676  1.2722 -1.1970 -0.6952
 5163TIP3   OH237047   1.942   6.767   2.049  0.0360  0.1240  0.2433
 5163TIP3    H137048   1.857   6.724   2.059 -0.0386  0.3271  0.5062
 5163TIP3    H237049   1.958   6.808   2.134  0.8049 -0.6415  0.4714
 5164TIP3   OH237050   0.363   3.160   3.578  0.2138 -0.1246 -0.1362
 5164TIP3    H137051   0.395   3.199   3.496 -1.4346 -0.5857 -1.0603
 5164TIP3    H237052   0.406   3.074   3.581 -0.0107 -0.2686 -0.7434
 5165TIP3   OH237053   5.961   6.017   1.104  0.8184 -0.9707  0.0283
 5165TIP3    H137054   5.915   5.960   1.043  0.2518 -2.1076  1.4439
 5165TIP3    H237055   5.925   6.105   1.088  1.8095 -0.9248 -2.2823
 5166TIP3   OH237056   4.891   3.403   1.042 -0.1681  0.7176  0.0893
 5166TIP3    H137057   4.814   3.359   1.005 -0.9469  1.7030  0.4585
 5166TIP3    H237058   4.889   3.491   1.003  1.1309  0.5750 -0.3506
 5167TIP3   OH237059   6.233   4.095   2.330  0.0897 -0.1377 -0.0401
 5167TIP3    H137060   6.171   4.121   2.398 -0.3980  0.8180 -0.8261
 5167TIP3    H237061   6.303   4.161   2.336 -0.2217  0.2637 -0.8137
 5168TIP3   OH237062   4.849   4.606   2.198 -0.2105 -0.1060  0.5958
 5168TIP3    H137063   4.788   4.668   2.158  0.7667  0.4022 -0.1625
 5168TIP3    H237064   4.815   4.520   2.173 -1.3153  0.1222  1.2667
 5169TIP3   OH237065   2.776   0.293   2.224  0.4259  0.0403 -0.0512
 5169TIP3    H137066   2.715   0.262   2.157 -0.2560 -1.7955  1.3448
 5169TIP3    H237067   2.849   0.232   2.221  1.0873  0.8192 -0.1028
 5170TIP3   OH237068   1.994   1.860   4.038 -0.1781 -0.0894 -1.0350
 5170TIP3    H137069   2.045   1.937   4.063 -0.3326  0.1133 -1.3400
 5170TIP3    H237070   1.951   1.833   4.118  2.6964 -2.0394 -0.0051
 5171TIP3   OH237071   3.592   6.073   3.701  0.1270  0.6781  0.3443
 5171TIP3    H137072   3.499   6.051   3.702  0.1840 -0.2428 -2.8584
 5171TIP3    H237073   3.615   6.086   3.793 -3.2206  1.3344  1.2316
 5172TIP3   OH237074   5.590   0.108   0.676 -0.7013  0.5468 -0.1302
 5172TIP3    H137075   5.575   0.142   0.588 -1.9448  0.2796 -0.0388
 5172TIP3    H237076   5.506   0.116   0.720 -0.1748  0.4087  0.9585
 5173TIP3   OH237077   4.140   2.956   1.900  0.0519  0.5277  0.0137
 5173TIP3    H137078   4.183   3.039   1.878  1.8177 -0.1578  0.6563
 5173TIP3    H237079   4.187   2.890   1.849 -2.3323  0.0218 -1.6883
 5174TIP3   OH237080   6.910   5.807   0.851 -0.1011 -0.1087  0.1499
 5174TIP3    H137081   6.984   5.763   0.810 -1.4301 -1.3301 -1.0633
 5174TIP3    H237082   6.949   5.879   0.902  2.0802 -2.0162  1.3683
 5175TIP3   OH237083   4.595   4.989   1.229 -0.4504 -0.1667  0.0228
 5175TIP3    H137084   4.678   4.943   1.239 -1.6679 -2.2847  1.0059
 5175TIP3    H237085   4.543   4.932   1.173 -1.1923  1.2751 -0.8246
 5176TIP3   OH237086   0.785   4.132   3.246  0.1291 -0.2422  0.4112
 5176TIP3    H137087   0.777   4.213   3.297 -1.0702 -0.7331  1.0565
 5176TIP3    H237088   0.843   4.077   3.299  1.8637  0.5534 -0.5640
 5177TIP3   OH237089   6.110   3.214   2.975  0.0977  0.5760 -0.0574
 5177TIP3    H137090   6.058   3.214   3.056 -1.0092  0.1419 -0.7371
 5177TIP3    H237091   6.061   3.271   2.915 -0.5988 -1.2410 -1.2997
 5178TIP3   OH237092   2.542   0.750   0.891 -0.0374 -0.4826 -0.0409
 5178TIP3    H137093   2.561   0.672   0.944  0.1627 -0.4343 -0.0404
 5178TIP3    H237094   2.567   0.824   0.946 -2.2120 -0.3153  0.7952
 5179TIP3   OH237095   2.561   5.767   3.939  0.2397 -0.0902  0.8063
 5179TIP3    H137096   2.578   5.851   3.895  1.3046 -0.2934  0.8098
 5179TIP3    H237097   2.613   5.772   4.019 -0.1258 -0.5394  1.0715
 5180TIP3   OH237098   2.220   1.328   2.350  0.3799 -0.3421 -0.4584
 5180TIP3    H137099   2.166   1.354   2.425  0.8472  0.8955 -0.5267
 5180TIP3    H237100   2.158   1.291   2.288  0.0115 -1.6162  0.6139
 5181TIP3   OH237101   2.158   5.528   0.696 -0.0858  0.9684  0.4539
 5181TIP3    H137102   2.093   5.460   0.680  0.8515  0.1682 -0.0764
 5181TIP3    H237103   2.112   5.610   0.681 -0.6293  0.3952 -1.2479
 5182TIP3   OH237104   2.023   2.187   0.672  0.1273 -0.3432  0.2345
 5182TIP3    H137105   2.071   2.232   0.741  1.0274 -0.2385 -0.4403
 5182TIP3    H237106   1.935   2.223   0.677 -0.0820 -1.0009  1.9025
 5183TIP3   OH237107   2.397   4.547   3.606 -0.5736 -0.2280 -0.1102
 5183TIP3    H137108   2.459   4.587   3.545 -0.2716 -2.1720 -1.1484
 5183TIP3    H237109   2.433   4.565   3.692  1.8499 -1.8215 -0.6873
 5184TIP3   OH237110   4.395   0.742   2.348  0.1709 -0.6906  0.5176
 5184TIP3    H137111   4.450   0.718   2.274  0.3173 -2.5716  1.1984
 5184TIP3    H237112   4.391   0.664   2.403 -0.7945  0.3127  1.9793
 5185TIP3   OH237113   0.333   2.664   2.390  0.3667  0.2157  0.2198
 5185TIP3    H137114   0.408   2.651   2.331  0.6555  1.4790  0.2812
 5185TIP3    H237115   0.350   2.748   2.432 -0.3447 -0.1909  1.3706
 5186TIP3   OH237116   5.040   1.495   1.035 -0.1729 -0.2355 -0.4465
 5186TIP3    H137117   5.062   1.417   1.085 -1.1215  0.1744  0.6633
 5186TIP3    H237118   5.124   1.534   1.011  0.3398  0.2937  2.0250
 5187TIP3   OH237119   1.350   2.125   4.527 -0.0928  0.2884 -0.1626
 5187TIP3    H137120   1.270   2.174   4.509 -0.6287  0.3762  2.1305
 5187TIP3    H237121   1.378   2.156   4.613  0.8709 -1.7058  0.3079
 5188TIP3   OH237122   6.425   3.087   3.720 -0.1937  0.1232 -0.0249
 5188TIP3    H137123   6.457   3.135   3.644 -2.2062 -0.4413 -1.3163
 5188TIP3    H237124   6.426   3.151   3.791 -0.1533  1.2697 -1.0235
 5189TIP3   OH237125   2.182   6.221   1.297 -0.3630  0.0426 -0.4292
 5189TIP3    H137126   2.151   6.311   1.307  1.4369  0.4404  2.5438
 5189TIP3    H237127   2.266   6.230   1.253 -0.9342 -0.3827 -1.6484
 5190TIP3   OH237128   6.054   4.131   2.922  0.5950 -0.4839  0.6469
 5190TIP3    H137129   6.062   4.104   2.831  0.3559  1.1108  0.1316
 5190TIP3    H237130   6.144   4.134   2.954  0.7840  0.2315  0.0682
 5191TIP3   OH237131   5.058   1.408   2.190 -0.6069  0.3076  0.3592
 5191TIP3    H137132   5.136   1.359   2.163 -1.4854 -0.7613 -0.3284
 5191TIP3    H237133   4.996   1.395   2.118 -1.4938  0.9840  0.9841
 5192TIP3   OH237134   3.502   0.068   0.076  0.1224  0.2594 -0.2206
 5192TIP3    H137135   3.538  -0.018   0.055  2.1248  0.2118  2.8007
 5192TIP3    H237136   3.562   0.130   0.033 -0.5673  0.1938 -1.3136
 5193TIP3   OH237137   0.166   6.772   3.472 -0.4556 -0.0233  0.5827
 5193TIP3    H137138   0.253   6.737   3.456 -1.0349 -0.4764 -1.9198
 5193TIP3    H237139   0.181   6.852   3.522  1.2043 -1.1510  2.0203
 5194TIP3   OH237140   5.005   1.133   2.334  0.0752  0.8244 -0.0371
 5194TIP3    H137141   4.959   1.186   2.269 -0.4253 -1.7574 -1.9411
 5194TIP3    H237142   4.940   1.119   2.403 -0.5218  0.9191 -0.5666
 5195TIP3   OH237143   6.667   4.045   0.873 -0.2040 -0.4717 -0.2583
 5195TIP3    H137144   6.597   3.980   0.865  0.2431 -0.7916 -2.2331
 5195TIP3    H237145   6.628   4.125   0.837 -0.6942  0.3736  1.9982
 5196TIP3   OH237146   3.400   2.034   0.712 -0.4923  0.7616 -0.2024
 5196TIP3    H137147   3.391   1.947   0.752 -1.1030  0.3737 -1.1734
 5196TIP3    H237148   3.495   2.051   0.715 -0.4394  0.3969  0.6646
 5197TIP3   OH237149   3.242   2.829   3.104 -0.3850  0.4193  0.0617
 5197TIP3    H137150   3.215   2.804   3.015 -1.8127  2.7930 -0.2622
 5197TIP3    H237151   3.331   2.795   3.112 -1.7374 -3.7425 -0.5754
 5198TIP3   OH237152   5.022   5.683   1.345  0.2631 -0.2353  0.6589
 5198TIP3    H137153   5.041   5.602   1.298  2.2323  0.3346  0.3807
 5198TIP3    H237154   5.074   5.750   1.301  0.6017  0.7086  2.3788
 5199TIP3   OH237155   0.455   5.437   2.783  0.4875 -0.0534  0.1528
 5199TIP3    H137156   0.440   5.403   2.871 -3.1585  0.9644  0.1024
 5199TIP3    H237157   0.458   5.532   2.793  0.9245  0.0416 -0.7400
 5200TIP3   OH237158   5.825   2.150   2.237 -0.4371  0.2295 -0.2594
 5200TIP3    H137159   5.866   2.188   2.159 -0.4367  1.0640  0.1363
 5200TIP3    H237160   5.842   2.214   2.307  1.4465 -1.4895  0.9559
 5201TIP3   OH237161   0.143   6.256   3.022 -0.4511  0.0360  0.1803
 5201TIP3    H137162   0.214   6.255   3.085  0.2236  0.1723 -0.5611
 5201TIP3    H237163   0.147   6.343   2.982 -0.5088 -0.2395 -0.4426
 5202TIP3   OH237164   3.964   3.050   4.450 -0.2641  0.0926 -0.4651
 5202TIP3    H137165   3.912   3.067   4.528 -0.3761  0.0276 -0.5245
 5202TIP3    H237166   3.916   2.980   4.404 -2.4745  2.8186 -2.6825
 5203TIP3   OH237167   2.793   1.597   3.942 -0.1917 -0.3040  0.2892
 5203TIP3    H137168   2.836   1.636   3.865 -1.0608  1.7824  0.7801
 5203TIP3    H237169   2.703   1.582   3.913  0.3466 -3.1205 -0.2229
 5204TIP3   OH237170   2.181   2.058   1.376  0.3639 -0.2614 -0.9232
 5204TIP3    H137171   2.118   2.041   1.447  1.9168  0.7679  0.7732
 5204TIP3    H237172   2.209   2.148   1.389  2.0207 -0.6108 -1.7586
 5205TIP3   OH237173   5.665   4.818   1.530  0.1320 -0.6994  0.1664
 5205TIP3    H137174   5.756   4.797   1.514  0.2546 -0.1371  0.1016
 5205TIP3    H237175   5.660   4.832   1.625  0.5993  1.4063 -0.0600
 5206TIP3   OH237176   6.255   2.461   2.766  0.8665 -0.4363 -0.0529
 5206TIP3    H137177   6.273   2.512   2.845 -0.2298  0.3035 -0.2541
 5206TIP3    H237178   6.300   2.508   2.696  0.2887 -0.0203 -0.1543
 5207TIP3   OH237179   3.626   6.514   3.318 -0.6399  0.5951  0.2036
 5207TIP3    H137180   3.641   6.456   3.393 -0.6095  1.5084  0.9185
 5207TIP3    H237181   3.691   6.583   3.327 -0.1552  0.3438 -1.0792
 5208TIP3   OH237182   2.006   4.876   3.368 -0.2796  0.0372  0.6381
 5208TIP3    H137183   1.966   4.845   3.449 -2.2923  1.5880  0.3066
 5208TIP3    H237184   1.934   4.883   3.306  0.5015  2.5617 -0.1276
 5209TIP3   OH237185   5.207   0.527   2.782  0.3208  0.0151  0.0307
 5209TIP3    H137186   5.207   0.619   2.808  1.4981  0.0797 -0.1124
 5209TIP3    H237187   5.199   0.479   2.865  3.4198  0.2285  0.6065
 5210TIP3   OH237188   4.915   2.755   3.819 -0.6784  0.4184  0.0320
 5210TIP3    H137189   4.999   2.783   3.854 -1.2437  0.5087  1.3733
 5210TIP3    H237190   4.923   2.660   3.810 -0.0927  0.5412 -0.8248
 5211TIP3   OH237191   6.076   5.688   2.531  0.0705  0.4702  0.2356
 5211TIP3    H137192   6.021   5.672   2.454 -0.4039 -0.4322  0.7592
 5211TIP3    H237193   6.166   5.682   2.497 -0.1269 -0.4383 -0.1488
 5212TIP3   OH237194   4.722   0.501   4.929  0.1951  0.3328 -0.2178
 5212TIP3    H137195   4.711   0.511   5.024  1.9644  1.3113 -0.0676
 5212TIP3    H237196   4.714   0.589   4.895  1.2517  0.2314 -0.7578
 5213TIP3   OH237197   3.106   4.844   4.061 -0.2875  0.0016 -0.2743
 5213TIP3    H137198   3.051   4.813   4.133 -0.1770  1.4119  0.4403
 5213TIP3    H237199   3.184   4.880   4.103  0.3313 -0.2480 -1.1769
 5214TIP3   OH237200   2.829   3.651   4.567 -0.4839  0.4259 -0.0819
 5214TIP3    H137201   2.803   3.561   4.548 -0.9464  0.6956 -0.7496
 5214TIP3    H237202   2.867   3.647   4.655  1.3244 -0.7745 -0.8609
 5215TIP3   OH237203   0.670   5.551   1.332  0.7567  0.9215 -0.0180
 5215TIP3    H137204   0.661   5.547   1.427  2.1626  0.1196  0.1021
 5215TIP3    H237205   0.764   5.541   1.315  0.4952  0.6311 -1.5100
 5216TIP3   OH237206   1.247   5.366   3.487 -0.0925  0.6483 -0.3020
 5216TIP3    H137207   1.194   5.343   3.564 -1.1432 -1.5958 -1.5944
 5216TIP3    H237208   1.207   5.446   3.454 -1.0285  0.4273  0.2535
 5217TIP3   OH237209   3.483   0.345   0.853 -0.2374  0.6089 -0.0622
 5217TIP3    H137210   3.492   0.321   0.945  2.1490 -1.8000 -0.8132
 5217TIP3    H237211   3.404   0.299   0.824  0.5670 -0.9559  0.1541
 5218TIP3   OH237212   0.265   0.516   2.257  0.0479 -0.0813  0.3399
 5218TIP3    H137213   0.358   0.520   2.276  0.8644 -1.9333 -2.5244
 5218TIP3    H237214   0.245   0.601   2.219  0.8366 -0.0100  0.0653
 5219TIP3   OH237215   4.465   3.164   3.285 -0.5722 -0.1921 -0.4602
 5219TIP3    H137216   4.528   3.167   3.213 -0.0446  0.1789  0.0086
 5219TIP3    H237217   4.395   3.107   3.253  0.5776 -1.6274 -0.5322
 5220TIP3   OH237218   3.133   5.471   2.407 -0.4304  0.2644 -0.6574
 5220TIP3    H137219   3.148   5.488   2.314 -0.2481 -1.8962 -1.0820
 5220TIP3    H237220   3.207   5.416   2.433  0.1235  1.7552  1.0843
 5221TIP3   OH237221   0.760   1.684   2.888 -0.0220 -0.4473  0.1737
 5221TIP3    H137222   0.709   1.750   2.843  0.3780 -1.1384 -1.3536
 5221TIP3    H237223   0.848   1.722   2.896  0.3217 -0.9327 -1.0932
 5222TIP3   OH237224   0.789   6.291   1.249 -0.2908 -0.0151 -0.1875
 5222TIP3    H137225   0.789   6.206   1.293 -3.9990  0.4909  1.1621
 5222TIP3    H237226   0.728   6.281   1.176  0.1862  1.1446 -0.7791
 5223TIP3   OH237227   3.496   4.163   4.316 -0.1300  0.2787  0.0233
 5223TIP3    H137228   3.470   4.219   4.243  4.0698  1.9677 -0.4358
 5223TIP3    H237229   3.430   4.181   4.384 -0.3866  3.9940 -0.9827
 5224TIP3   OH237230   6.015   5.036   3.640  0.1432  0.3050 -0.0480
 5224TIP3    H137231   5.962   4.960   3.664 -0.1549  0.2472 -0.8666
 5224TIP3    H237232   6.104   5.012   3.664  0.0909 -0.4092 -0.5347
 5225TIP3   OH237233   6.746   3.527   4.576 -0.0890 -0.2651  0.3458
 5225TIP3    H137234   6.820   3.573   4.615 -0.2473  0.4464 -0.1852
 5225TIP3    H237235   6.681   3.523   4.646  0.1678 -0.2532  0.5886
 5226TIP3   OH237236   2.683   5.978   3.719 -0.0130  0.0328 -0.1064
 5226TIP3    H137237   2.629   6.050   3.752 -0.4746 -0.5018  0.3028
 5226TIP3    H237238   2.623   5.924   3.668  0.3654  0.0047 -0.5309
 5227TIP3   OH237239   5.915   2.723   1.467  0.0109 -0.3614  0.0044
 5227TIP3    H137240   5.947   2.732   1.377  0.7279  0.1036  0.3047
 5227TIP3    H237241   5.850   2.793   1.476 -0.1473 -0.4829 -0.1880
 5228TIP3   OH237242   0.020   1.883   4.158 -0.2202  0.2471  0.2330
 5228TIP3    H137243   0.051   1.810   4.212 -1.8122 -0.5047  0.2075
 5228TIP3    H237244  -0.026   1.940   4.219 -0.5838  0.2557 -0.0412
 5229TIP3   OH237245   3.822   5.198   2.283 -0.1860  0.3639 -0.2032
 5229TIP3    H137246   3.842   5.156   2.367 -0.4992  0.7329  0.0596
 5229TIP3    H237247   3.845   5.132   2.218  1.4522  0.6008  0.0953
 5230TIP3   OH237248   4.756   6.600   0.460  0.2430 -0.1127  0.0654
 5230TIP3    H137249   4.778   6.685   0.422 -0.4075  0.6077  1.2203
 5230TIP3    H237250   4.841   6.559   0.477  0.5543 -0.1202 -1.3628
 5231TIP3   OH237251   5.110   5.771   1.652  0.1078 -0.3902 -0.0488
 5231TIP3    H137252   5.043   5.797   1.716 -0.4242 -1.4147 -0.1600
 5231TIP3    H237253   5.138   5.853   1.612  0.0221  0.2152  1.0827
 5232TIP3   OH237254   5.716   6.600   1.787 -0.4104  0.5086 -0.4362
 5232TIP3    H137255   5.750   6.549   1.860  0.0200 -0.9342 -1.5747
 5232TIP3    H237256   5.624   6.615   1.808 -0.4750 -0.5221  0.0618
 5233TIP3   OH237257   6.636   1.662   3.262 -0.0049  0.0078  0.3315
 5233TIP3    H137258   6.607   1.715   3.188 -0.5333 -1.3585 -0.4712
 5233TIP3    H237259   6.688   1.592   3.222  1.4562  0.4106  1.4459
 5234TIP3   OH237260   6.218   1.725   0.218 -0.4644 -0.8977  0.0053
 5234TIP3    H137261   6.125   1.721   0.239  0.0729 -0.0392  3.0286
 5234TIP3    H237262   6.235   1.818   0.204  0.2476 -0.7935  1.3960
 5235TIP3   OH237263   0.078   6.691   1.756 -0.2319 -0.1998 -0.6909
 5235TIP3    H137264   0.068   6.647   1.671  0.7254 -2.0527  0.1055
 5235TIP3    H237265   0.035   6.633   1.818 -0.1142  0.6711  0.2140
 5236TIP3   OH237266   4.850   2.645   0.314 -0.3221  0.0432 -0.4694
 5236TIP3    H137267   4.801   2.725   0.293 -1.6171 -0.8633 -0.9900
 5236TIP3    H237268   4.810   2.577   0.261  1.6329 -0.7305 -1.0355
 5237TIP3   OH237269   6.095   3.069   4.110 -0.0821 -0.1761  0.0702
 5237TIP3    H137270   6.188   3.079   4.131  0.6468 -2.6478 -1.5347
 5237TIP3    H237271   6.092   3.071   4.014 -1.7129  0.0396  0.1045
 5238TIP3   OH237272   0.415   2.293   2.307  0.0487  0.2593  0.0292
 5238TIP3    H137273   0.451   2.381   2.320 -1.0895  0.5799  1.2600
 5238TIP3    H237274   0.366   2.275   2.387 -0.8819 -0.9375 -0.7669
 5239TIP3   OH237275   1.249   2.796   1.358 -0.1927  0.0758  0.2867
 5239TIP3    H137276   1.169   2.781   1.307 -0.1223 -1.1833  0.5125
 5239TIP3    H237277   1.273   2.709   1.391  0.2691  0.7229  1.7240
 5240TIP3   OH237278   6.780   4.070   3.504  0.5585  0.2845 -0.4919
 5240TIP3    H137279   6.845   4.075   3.574  0.9723 -1.2602 -0.7126
 5240TIP3    H237280   6.696   4.084   3.548  1.0193  2.6117 -0.2548
 5241TIP3   OH237281   5.331   1.256   3.193  0.2682  0.3377 -0.2447
 5241TIP3    H137282   5.277   1.289   3.121 -1.3263 -1.8237 -0.1243
 5241TIP3    H237283   5.420   1.278   3.167 -0.4618  2.0275 -1.5436
 5242TIP3   OH237284   4.639   1.071   0.062 -0.7113 -0.0726 -0.3974
 5242TIP3    H137285   4.583   1.074  -0.016  1.0961  2.5213 -1.7230
 5242TIP3    H237286   4.580   1.090   0.135 -1.9777  0.0905 -1.4378
 5243TIP3   OH237287   1.668   5.300   0.598 -0.1152 -0.4553 -0.0953
 5243TIP3    H137288   1.715   5.270   0.520  1.8830 -1.1662  1.2646
 5243TIP3    H237289   1.692   5.236   0.665 -1.9232  0.0258  1.0732
 5244TIP3   OH237290   0.393   0.291   3.246 -0.1389 -0.0416  0.0090
 5244TIP3    H137291   0.406   0.282   3.340 -1.2063 -1.0795  0.0829
 5244TIP3    H237292   0.464   0.347   3.217  0.3100  0.1445  1.4064
 5245TIP3   OH237293   6.331   3.596   4.300  0.1104 -0.8239  0.1035
 5245TIP3    H137294   6.392   3.541   4.251  1.4173 -0.1219  0.9118
 5245TIP3    H237295   6.325   3.555   4.386  2.4856  1.1511  1.3395
 5246TIP3   OH237296   6.345   5.302   0.457 -0.1358 -0.1857 -0.2959
 5246TIP3    H137297   6.329   5.337   0.545 -0.4619 -0.5221 -0.2169
 5246TIP3    H237298   6.361   5.379   0.403 -2.2010  0.2210 -0.4144
 5247TIP3   OH237299   6.788   3.526   3.391  0.1548  0.3600  0.3253
 5247TIP3    H137300   6.750   3.555   3.308 -0.1405 -2.0485 -0.4503
 5247TIP3    H237301   6.861   3.469   3.366  1.5230  1.3884  1.7809
 5248TIP3   OH237302   6.671   3.285   1.691 -0.3288  0.0039  0.4200
 5248TIP3    H137303   6.633   3.335   1.763 -0.5067 -0.2409  0.4971
 5248TIP3    H237304   6.672   3.195   1.722 -0.5098 -0.1206  0.0762
 5249TIP3   OH237305   6.809   0.122   3.594  0.3632 -0.4044  0.2448
 5249TIP3    H137306   6.766   0.112   3.509  0.0766  1.7047  0.1005
 5249TIP3    H237307   6.743   0.095   3.658 -0.1040 -0.1634 -0.1258
 5250TIP3   OH237308   0.103   5.105   1.812 -0.3238  0.1191 -0.0787
 5250TIP3    H137309   0.089   5.190   1.771 -1.1887  0.1501  0.2676
 5250TIP3    H237310   0.171   5.120   1.877  0.7205  0.1740 -1.1560
 5251TIP3   OH237311   4.076   2.007   2.430  0.0155  0.2543 -0.4706
 5251TIP3    H137312   4.006   2.041   2.486  0.2975  2.6629 -1.4541
 5251TIP3    H237313   4.049   2.030   2.341  1.0333 -0.7225 -1.0620
 5252TIP3   OH237314   2.760   1.999   0.750  0.2746 -0.7102  0.2652
 5252TIP3    H137315   2.839   1.944   0.745  0.2460 -0.7600  0.3528
 5252TIP3    H237316   2.780   2.075   0.696  0.0169 -1.1824 -0.5159
 5253TIP3   OH237317   4.116   2.970   3.005 -0.1241  0.5916 -0.2044
 5253TIP3    H137318   4.087   3.056   3.036  0.0605  0.5713  0.0308
 5253TIP3    H237319   4.193   2.988   2.951  0.3871  0.5136  0.4822
 5254TIP3   OH237320   0.677   5.104   1.952 -0.7224  0.5313 -0.3835
 5254TIP3    H137321   0.605   5.109   2.015 -0.8324 -1.6898 -0.2562
 5254TIP3    H237322   0.635   5.113   1.866 -0.7285  2.2956 -0.2248
 5255TIP3   OH237323   3.484   2.682   3.215  0.0675  0.3831  0.0170
 5255TIP3    H137324   3.471   2.605   3.160 -0.9294  3.0077 -3.8502
 5255TIP3    H237325   3.426   2.668   3.290 -1.2498 -1.9201 -1.3118
 5256TIP3   OH237326   2.915   4.454   2.339  0.0711 -0.1017  0.3711
 5256TIP3    H137327   2.999   4.480   2.375  0.1675  2.3877 -1.3666
 5256TIP3    H237328   2.852   4.468   2.410  0.4982  2.8239  0.2794
 5257TIP3   OH237329   3.581   5.871   1.427 -0.3567 -0.1638  0.4786
 5257TIP3    H137330   3.607   5.803   1.365 -1.1710 -0.3759  0.3574
 5257TIP3    H237331   3.640   5.859   1.502 -1.0082 -1.5395  0.8116
 5258TIP3   OH237332   1.190   0.888   4.163 -0.3687  0.0018 -0.2203
 5258TIP3    H137333   1.210   0.928   4.247 -3.2573 -0.1167  0.6364
 5258TIP3    H237334   1.187   0.794   4.181 -2.1308  0.0407 -0.0980
 5259TIP3   OH237335   3.923   1.101   0.466  0.3087 -0.6810  0.4498
 5259TIP3    H137336   3.912   1.109   0.560  0.2247 -0.3207  0.4140
 5259TIP3    H237337   3.851   1.045   0.437 -0.0333 -0.2868  0.5226
 5260TIP3   OH237338   3.334   0.587   3.919  0.2275  0.6991 -0.1721
 5260TIP3    H137339   3.243   0.575   3.892  0.4868  1.8784 -1.7490
 5260TIP3    H237340   3.380   0.511   3.885 -0.2817 -0.3233  1.3579
 5261TIP3   OH237341   6.226   6.805   1.603 -0.0125  0.0487 -0.1262
 5261TIP3    H137342   6.156   6.740   1.602 -0.4507  0.5176 -0.1645
 5261TIP3    H237343   6.263   6.799   1.691  0.4156 -0.7389 -0.3496
 5262TIP3   OH237344   2.248   0.295   8.507 -0.0798  0.5333  0.1904
 5262TIP3    H137345   2.200   0.372   8.477 -0.1953 -0.1525 -1.4349
 5262TIP3    H237346   2.331   0.297   8.460  0.1833 -0.0059  0.6076
 5263TIP3   OH237347   2.910   1.852   0.544 -0.3582 -0.0919  0.2390
 5263TIP3    H137348   2.951   1.925   0.496  0.0419  0.0506  0.7775
 5263TIP3    H237349   2.979   1.786   0.550 -0.2951  0.0219  0.8836
 5264TIP3   OH237350   5.344   6.034   1.017 -0.1253 -0.0087  0.2318
 5264TIP3    H137351   5.412   5.996   0.961  0.9538  1.2744  0.6198
 5264TIP3    H237352   5.385   6.039   1.104 -1.8025 -2.0902  1.2602
 5265TIP3   OH237353   0.073   3.778   1.186  0.1674  0.5689 -0.2403
 5265TIP3    H137354   0.023   3.775   1.268  0.8553  1.5610  0.2325
 5265TIP3    H237355   0.006   3.781   1.118 -0.4370  1.3876  0.3657
 5266TIP3   OH237356   6.452   4.751   0.309  0.0008  0.7249  0.3549
 5266TIP3    H137357   6.469   4.811   0.381  0.6003  1.2916 -0.2493
 5266TIP3    H237358   6.478   4.799   0.230  0.4795 -0.3155 -0.1397
 5267TIP3   OH237359   0.674   3.454   1.986  0.4080  0.0270 -0.3737
 5267TIP3    H137360   0.697   3.381   1.928  1.3085  0.8840 -1.1146
 5267TIP3    H237361   0.718   3.530   1.948  0.8659  0.6515  1.3277
 5268TIP3   OH237362   6.225   2.079   2.162  0.4921 -0.1466  0.5743
 5268TIP3    H137363   6.255   2.011   2.101 -1.1313 -0.1067 -0.3279
 5268TIP3    H237364   6.165   2.033   2.221 -2.6010  0.8028 -1.5550
 5269TIP3   OH237365   6.118   3.745   4.241 -0.4125 -0.2250  0.0898
 5269TIP3    H137366   6.080   3.765   4.326 -0.9261 -0.7932  0.0051
 5269TIP3    H237367   6.202   3.703   4.261 -1.4830 -2.3308  0.4058
 5270TIP3   OH237368   4.695   2.009   4.597 -0.8176 -0.4512  0.5682
 5270TIP3    H137369   4.780   1.992   4.556 -0.2387  0.8913  1.1407
 5270TIP3    H237370   4.652   1.924   4.599  0.3675 -1.0961 -0.0601
 5271TIP3   OH237371   2.254   4.961   4.540  0.3312  0.0236 -0.1109
 5271TIP3    H137372   2.310   4.913   4.601  0.4480 -1.0693 -1.0332
 5271TIP3    H237373   2.243   5.047   4.580  1.0926 -0.3779  1.0237
 5272TIP3   OH237374   4.982   4.748   3.652 -0.0757 -0.1492 -0.2153
 5272TIP3    H137375   5.031   4.796   3.585  0.5416 -3.3630 -2.2436
 5272TIP3    H237376   4.891   4.751   3.623  0.1005 -1.0035 -0.8657
 5273TIP3   OH237377   5.920   5.472   2.369  0.0688 -0.1468  0.2953
 5273TIP3    H137378   5.991   5.411   2.389 -1.8023 -2.1761  1.0910
 5273TIP3    H237379   5.954   5.526   2.297  2.6389 -0.5639  1.1149
 5274TIP3   OH237380   5.950   0.846   0.705  0.2653  0.3546  0.3597
 5274TIP3    H137381   6.027   0.900   0.726 -0.2404  0.5673  1.8140
 5274TIP3    H237382   5.907   0.892   0.633  2.3691 -0.6615 -1.7004
 5275TIP3   OH237383   2.272   6.511   4.044 -0.2133 -0.5472  0.4768
 5275TIP3    H137384   2.325   6.501   3.965  0.5891 -1.0364  1.0678
 5275TIP3    H237385   2.331   6.548   4.109 -0.6698 -0.8169  1.0590
 5276TIP3   OH237386   1.336   5.515   0.824 -0.3524 -0.4400 -0.3350
 5276TIP3    H137387   1.282   5.531   0.901  1.4665 -0.0240  0.9087
 5276TIP3    H237388   1.342   5.600   0.780 -1.6735 -0.7487 -1.1868
 5277TIP3   OH237389   2.441   3.690   3.807 -0.5934 -0.3510  0.7480
 5277TIP3    H137390   2.487   3.661   3.728  1.9641 -1.8803  2.6593
 5277TIP3    H237391   2.419   3.782   3.790 -0.6212 -0.7689 -1.9021
 5278TIP3   OH237392   2.530   0.477   2.151 -0.6719 -0.4184 -0.3792
 5278TIP3    H137393   2.543   0.472   2.245 -0.7583 -0.1259 -0.3521
 5278TIP3    H237394   2.448   0.525   2.140 -0.4734 -0.1300 -0.6096
 5279TIP3   OH237395   6.303   0.688   2.388  0.7499 -0.0211  0.1324
 5279TIP3    H137396   6.281   0.596   2.397 -1.5830  0.3621 -1.0208
 5279TIP3    H237397   6.237   0.735   2.439  0.2927  1.0939 -1.3897
 5280TIP3   OH237398   4.874   4.506   2.929 -0.1589 -0.3912  0.2191
 5280TIP3    H137399   4.956   4.460   2.942 -0.3457 -0.4204  1.4484
 5280TIP3    H237400   4.872   4.572   2.998 -1.2564 -0.5220  0.3382
 5281TIP3   OH237401   1.382   3.595   1.338  0.7022 -0.3828  0.2686
 5281TIP3    H137402   1.446   3.647   1.290 -0.0213 -0.2305 -0.5352
 5281TIP3    H237403   1.431   3.517   1.366  1.4124  0.0502  0.2668
 5282TIP3   OH237404   6.856   0.757   2.789 -0.0774 -0.3114  0.1356
 5282TIP3    H137405   6.910   0.793   2.860  0.4342 -0.9161  0.0533
 5282TIP3    H237406   6.904   0.680   2.758 -0.4956 -0.2846 -0.6027
 5283TIP3   OH237407   2.690   5.511   1.501  0.0994 -0.1995 -0.2185
 5283TIP3    H137408   2.597   5.528   1.518  0.1171 -0.6433  0.3177
 5283TIP3    H237409   2.690   5.442   1.435  0.0506  0.3490 -0.8117
 5284TIP3   OH237410   5.309   1.357   2.110  0.3582  0.3091  0.7804
 5284TIP3    H137411   5.366   1.434   2.103  0.7079  0.0734  0.9944
 5284TIP3    H237412   5.336   1.301   2.037  0.8273 -0.0814  1.2558
 5285TIP3   OH237413   1.340   0.319   1.867 -0.5526  0.1591 -0.9400
 5285TIP3    H137414   1.338   0.381   1.794 -1.5792 -0.4409 -1.4468
 5285TIP3    H237415   1.414   0.262   1.848 -0.5274  0.2997 -1.2674
 5286TIP3   OH237416   4.502   1.503   2.189  0.0584 -0.5862  0.2913
 5286TIP3    H137417   4.582   1.508   2.241 -1.7826 -0.7601  3.4080
 5286TIP3    H237418   4.453   1.431   2.228 -1.9618  0.0206 -0.9927
 5287TIP3   OH237419   4.858   1.101   0.489 -0.1430 -0.5307 -0.3777
 5287TIP3    H137420   4.849   1.036   0.420  0.2796 -0.8495 -0.1328
 5287TIP3    H237421   4.947   1.135   0.479 -0.4422  0.1999 -0.6703
 5288TIP3   OH237422   1.954   5.594   1.458 -0.2290  0.2752 -0.4548
 5288TIP3    H137423   1.906   5.537   1.398 -0.0956 -1.3245  0.8769
 5288TIP3    H237424   1.887   5.651   1.495 -0.7219 -0.3578 -0.3477
 5289TIP3   OH237425   3.263   0.745   2.727 -0.5040 -0.0472 -0.1083
 5289TIP3    H137426   3.170   0.754   2.706 -0.1719 -0.5827 -1.9175
 5289TIP3    H237427   3.290   0.663   2.686  0.5666 -0.4356  1.2634
 5290TIP3   OH237428   4.307   1.460   2.502  0.9509 -0.0033 -0.2293
 5290TIP3    H137429   4.272   1.460   2.413 -0.3492 -0.5612  0.2487
 5290TIP3    H237430   4.357   1.541   2.508  0.0655  0.6391 -1.1132
 5291TIP3   OH237431   0.989   3.492   2.013  0.0847 -0.5639  0.5651
 5291TIP3    H137432   0.961   3.521   2.100 -0.8676  0.3978 -0.0319
 5291TIP3    H237433   0.985   3.570   1.959 -0.3896 -1.3532 -0.5928
 5292TIP3   OH237434   6.665   0.358   3.836 -0.4760 -0.0142  0.5760
 5292TIP3    H137435   6.758   0.347   3.818  0.1128 -0.5608  3.4033
 5292TIP3    H237436   6.654   0.322   3.924 -3.6473 -1.2853 -0.2073
 5293TIP3   OH237437   5.825   4.796   4.473  0.0935 -0.0718  0.4781
 5293TIP3    H137438   5.854   4.885   4.494  1.4121  0.1642 -1.8825
 5293TIP3    H237439   5.890   4.739   4.514  0.9015  0.2295 -0.3394
 5294TIP3   OH237440   2.557   0.177   0.386  0.0735 -0.8100  0.3865
 5294TIP3    H137441   2.474   0.150   0.426 -1.0949  0.7200 -0.8850
 5294TIP3    H237442   2.532   0.215   0.302  2.1063 -0.5367 -0.1455
 5295TIP3   OH237443   1.131   1.577   2.281  0.2044 -0.1067 -0.3946
 5295TIP3    H137444   1.220   1.588   2.313 -0.2170 -1.8511  1.6337
 5295TIP3    H237445   1.092   1.665   2.287  1.0289  0.1937  1.3212
 5296TIP3   OH237446   4.774   1.448   2.030  0.7912 -0.2013  0.4886
 5296TIP3    H137447   4.771   1.532   1.984 -1.1631  0.0264  0.9362
 5296TIP3    H237448   4.776   1.382   1.961  0.4962  0.1753  0.1216
 5297TIP3   OH237449   3.073   6.281   1.628  0.1539  0.1742 -0.4579
 5297TIP3    H137450   3.137   6.231   1.577 -1.2480 -1.7322 -0.4348
 5297TIP3    H237451   2.992   6.276   1.577 -0.6804  0.1644  0.8342
 5298TIP3   OH237452   3.311   3.418   2.523  0.4082  0.4456  0.5057
 5298TIP3    H137453   3.367   3.345   2.547 -1.2015 -0.4511  1.7290
 5298TIP3    H237454   3.238   3.414   2.585 -1.3618  1.1425 -1.4126
 5299TIP3   OH237455   1.205   2.424   1.198  0.1080  0.1646 -0.3733
 5299TIP3    H137456   1.297   2.427   1.226  0.1976  0.9916 -0.7301
 5299TIP3    H237457   1.196   2.496   1.136 -0.9488  0.5206  0.1639
 5300TIP3   OH237458   5.500   1.792   2.145  0.5398  0.3634  0.2466
 5300TIP3    H137459   5.536   1.875   2.115 -1.2937  1.0618 -0.0869
 5300TIP3    H237460   5.566   1.759   2.206  1.0715  2.2979  0.7923
 5301TIP3   OH237461   4.555   5.983   3.305  0.4479  0.4457 -0.6999
 5301TIP3    H137462   4.619   6.055   3.298  0.6790  0.2033 -1.1366
 5301TIP3    H237463   4.528   5.967   3.214 -0.0616  0.3891 -0.5391
 5302TIP3   OH237464   3.980   0.582   2.846  0.4132  0.4708 -0.2932
 5302TIP3    H137465   3.917   0.641   2.805  0.1957 -0.0724 -0.7482
 5302TIP3    H237466   3.954   0.495   2.817  0.1099  0.0380  1.1792
 5303TIP3   OH237467   1.349   1.336   0.866 -0.0681 -0.0735  0.1975
 5303TIP3    H137468   1.438   1.363   0.890 -0.5076  0.7153  0.9799
 5303TIP3    H237469   1.293   1.378   0.931 -1.1241  0.3603 -0.9689
 5304TIP3   OH237470   3.124   2.948   4.178 -0.8644 -0.6632 -0.1662
 5304TIP3    H137471   3.066   3.002   4.231 -0.5951 -1.9020  1.4551
 5304TIP3    H237472   3.166   3.010   4.118 -1.3810  0.7510  0.8753
 5305TIP3   OH237473   6.592   2.101   3.393 -0.4055  0.2601  0.1747
 5305TIP3    H137474   6.562   2.084   3.304 -3.0437 -3.4140  1.5525
 5305TIP3    H237475   6.539   2.176   3.422 -0.5536  0.5666 -0.8317
 5306TIP3   OH237476   5.086   3.277   1.758 -0.6694 -0.1934 -0.0424
 5306TIP3    H137477   5.018   3.247   1.818 -1.6711  1.8040 -0.1121
 5306TIP3    H237478   5.125   3.353   1.801  0.7584 -0.5930 -0.5383
 5307TIP3   OH237479   0.258   4.279   2.936 -0.5645  0.1999  0.5675
 5307TIP3    H137480   0.269   4.344   2.867  0.3346 -0.3923  0.1300
 5307TIP3    H237481   0.275   4.327   3.017  0.5785  0.4125  0.2200
 5308TIP3   OH237482   6.753   0.079   0.678 -0.6034 -0.2691  0.0129
 5308TIP3    H137483   6.713  -0.001   0.645 -0.3612  0.3832 -1.9728
 5308TIP3    H237484   6.844   0.056   0.693 -0.0223  0.1147 -2.5651
 5309TIP3   OH237485   2.074   1.456   3.155  0.1477 -0.3107 -0.3550
 5309TIP3    H137486   2.150   1.405   3.185  0.1269  0.0374  0.3006
 5309TIP3    H237487   2.051   1.510   3.230  1.8459  2.7044 -1.8424
 5310TIP3   OH237488   6.329   4.103   1.964  0.7334 -0.4841  0.3445
 5310TIP3    H137489   6.369   4.046   2.029  0.5337 -0.1558  0.7542
 5310TIP3    H237490   6.371   4.188   1.977  0.9941 -0.5139 -0.2323
 5311TIP3   OH237491   2.590   2.090   3.568 -0.3180  0.0634 -0.3424
 5311TIP3    H137492   2.680   2.059   3.578 -0.3389  0.4666  1.6500
 5311TIP3    H237493   2.571   2.081   3.475  1.0019 -2.1247 -0.4646
 5312TIP3   OH237494   3.225   0.940   3.632 -0.0135 -0.5224  0.2023
 5312TIP3    H137495   3.140   0.941   3.676 -0.1613  2.6902  0.0819
 5312TIP3    H237496   3.289   0.945   3.703 -0.0927  0.5141  0.2142
 5313TIP3   OH237497   4.200   0.985   1.076 -0.3232 -0.0499  0.9153
 5313TIP3    H137498   4.284   0.980   1.120 -0.3666 -0.6501  0.9334
 5313TIP3    H237499   4.192   0.901   1.030 -0.9019  0.0133  0.8984
 5314TIP3   OH237500   3.122   2.122   1.932  0.1798 -0.3159 -0.1719
 5314TIP3    H137501   3.039   2.143   1.975 -0.0969  0.8501 -1.2239
 5314TIP3    H237502   3.125   2.027   1.931 -0.4037 -0.3830  1.2646
 5315TIP3   OH237503   2.516   3.316   1.130  0.3503  0.0944 -0.4420
 5315TIP3    H137504   2.449   3.325   1.062 -0.9627 -0.4079  0.7499
 5315TIP3    H237505   2.493   3.381   1.196  0.8554 -0.2963  0.1313
 5316TIP3   OH237506   2.672   6.172   1.982  0.4073  0.3457 -0.4382
 5316TIP3    H137507   2.596   6.212   1.939 -0.3244  1.0154  1.3940
 5316TIP3    H237508   2.653   6.079   1.985 -0.6742  0.5823  0.5853
 5317TIP3   OH237509   0.443   2.688   4.681 -0.0617 -0.4816 -0.4320
 5317TIP3    H137510   0.412   2.600   4.702 -0.2787 -0.2735  0.1425
 5317TIP3    H237511   0.402   2.744   4.747  0.3678  0.0004 -0.5717
 5318TIP3   OH237512   3.811   5.007   0.173 -0.4737 -0.1698  0.3619
 5318TIP3    H137513   3.784   4.990   0.263  0.3967 -1.2953  0.4358
 5318TIP3    H237514   3.860   4.929   0.147  0.8183  0.8686 -0.4759
 5319TIP3   OH237515   6.214   5.675   3.513 -0.4090 -0.4933  0.5154
 5319TIP3    H137516   6.288   5.614   3.516  1.6504  1.6052 -2.5278
 5319TIP3    H237517   6.251   5.759   3.541 -1.6894  0.5347 -0.7588
 5320TIP3   OH237518   0.099   4.323   3.544 -0.1122 -0.7211  0.0263
 5320TIP3    H137519   0.118   4.254   3.481  0.3717  0.1640 -0.8228
 5320TIP3    H237520   0.182   4.368   3.556 -0.3254 -0.5442  0.8987
 5321TIP3   OH237521   4.168   6.565   4.556 -0.0720  0.7535  0.0899
 5321TIP3    H137522   4.080   6.534   4.535 -0.4048  2.6302 -1.5534
 5321TIP3    H237523   4.155   6.651   4.597  0.9627  0.4152  1.2033
 5322TIP3   OH237524   4.712   1.231   2.209  0.0838  0.4820 -0.5857
 5322TIP3    H137525   4.705   1.163   2.142 -0.5547 -1.0915  0.9939
 5322TIP3    H237526   4.747   1.308   2.163  1.7621 -1.1821 -2.2493
 5323TIP3   OH237527   1.015   4.584   2.799 -0.0319 -0.3686  0.5829
 5323TIP3    H137528   0.969   4.610   2.878 -0.0031 -0.9217  0.7832
 5323TIP3    H237529   0.982   4.644   2.731  0.7815  0.8619  1.2349
 5324TIP3   OH237530   2.507   5.718   0.540  0.5356  0.6465 -0.5052
 5324TIP3    H137531   2.589   5.670   0.535  0.8865  1.2776 -1.0748
 5324TIP3    H237532   2.472   5.714   0.451  0.5625  1.4137 -0.5605
 5325TIP3   OH237533   5.613   2.312   1.995  0.1132 -0.1275 -0.3716
 5325TIP3    H137534   5.667   2.390   1.981  1.2255 -0.6013  0.9533
 5325TIP3    H237535   5.565   2.300   1.913  0.5881  1.4243 -0.9112
 5326TIP3   OH237536   4.421   6.381   0.705 -0.5385  0.3302 -0.1912
 5326TIP3    H137537   4.341   6.361   0.658 -1.5092  1.9380  0.6850
 5326TIP3    H237538   4.392   6.419   0.788  1.1230 -0.3824  0.7835
 5327TIP3   OH237539   5.527   4.908   1.770 -0.8434  0.2683 -0.1408
 5327TIP3    H137540   5.595   4.903   1.837 -0.7800 -2.5931 -0.2876
 5327TIP3    H237541   5.447   4.882   1.816 -1.3129  0.8762 -0.6000
 5328TIP3   OH237542   3.445   1.254   1.274 -0.4951  0.4588  0.3407
 5328TIP3    H137543   3.511   1.187   1.258 -0.1134  0.5718  1.3884
 5328TIP3    H237544   3.479   1.305   1.348 -1.6098  0.7103  0.7027
 5329TIP3   OH237545   5.218   4.040   3.716 -0.0894 -0.1121 -0.2679
 5329TIP3    H137546   5.154   3.995   3.771 -0.7419  2.3975  1.1899
 5329TIP3    H237547   5.257   4.106   3.773  1.7136  0.3672 -1.9292
 5330TIP3   OH237548   1.418   4.580   4.269 -0.2204 -0.4241 -0.5849
 5330TIP3    H137549   1.362   4.560   4.344  0.2246 -0.9975 -0.3966
 5330TIP3    H237550   1.504   4.548   4.295  0.2896  0.8269 -0.7070
 5331TIP3   OH237551   5.305   6.502   3.525  0.2618 -0.1118  0.2905
 5331TIP3    H137552   5.233   6.502   3.463 -1.0626 -1.4614  1.7245
 5331TIP3    H237553   5.364   6.571   3.494 -1.1832  0.4204 -1.4351
 5332TIP3   OH237554   4.664   1.815   0.268 -0.4402 -0.1927 -0.1255
 5332TIP3    H137555   4.659   1.719   0.266 -0.9244 -0.1628 -1.1654
 5332TIP3    H237556   4.594   1.844   0.209 -2.0022  0.8928  2.1220
 5333TIP3   OH237557   1.015   6.474   1.187  0.1441 -0.2190 -0.6811
 5333TIP3    H137558   0.939   6.419   1.205 -0.3276  0.3697 -0.8535
 5333TIP3    H237559   1.080   6.414   1.150  0.0386 -0.8654  0.1630
 5334TIP3   OH237560   2.478   3.409   2.185  0.3800  0.2044  0.2316
 5334TIP3    H137561   2.528   3.452   2.116 -0.8311  1.1033 -0.1303
 5334TIP3    H237562   2.453   3.480   2.244 -1.6177  0.0269 -0.3423
 5335TIP3   OH237563   2.964   3.003   0.644 -0.5882  0.4091  0.0602
 5335TIP3    H137564   3.023   3.061   0.692 -1.3438  1.5160 -0.3163
 5335TIP3    H237565   2.970   3.032   0.553  0.7668 -1.6094 -0.5650
 5336TIP3   OH237566   0.524   6.882   0.299 -0.3842  0.3248 -0.1680
 5336TIP3    H137567   0.549   6.934   0.223  0.6836 -1.3493 -1.0145
 5336TIP3    H237568   0.607   6.856   0.339 -0.9134  0.1348  0.8362
 5337TIP3   OH237569   4.899   0.411   1.189  0.2348  0.0889 -0.0608
 5337TIP3    H137570   4.842   0.382   1.118 -0.6363  0.9052  0.2834
 5337TIP3    H237571   4.872   0.361   1.265 -1.3600  1.7841  0.5661
 5338TIP3   OH237572   3.473   1.153   1.918  0.3455  0.2476  0.3403
 5338TIP3    H137573   3.462   1.143   2.013  0.8936  0.0548  0.3906
 5338TIP3    H237574   3.568   1.154   1.906  0.2950 -1.8027 -0.4282
 5339TIP3   OH237575   0.099   6.471   1.529  0.3333  0.2691 -0.5129
 5339TIP3    H137576   0.184   6.468   1.572 -0.7389 -0.0956  1.7348
 5339TIP3    H237577   0.050   6.398   1.567 -1.7035  1.7861 -0.0355
 5340TIP3   OH237578   1.246   0.227   3.055 -0.4987  0.0176  0.1208
 5340TIP3    H137579   1.162   0.199   3.020 -0.1841  1.9624 -2.5464
 5340TIP3    H237580   1.307   0.158   3.030 -0.8867 -0.2366 -0.1359
 5341TIP3   OH237581   4.828   0.181   2.845  0.0607  0.4510  0.2535
 5341TIP3    H137582   4.793   0.219   2.764 -1.3730 -0.4357  0.4194
 5341TIP3    H237583   4.870   0.100   2.817 -0.9090 -0.1342  0.4236
 5342TIP3   OH237584   2.892   6.637   3.511 -0.3371  0.6318  0.3352
 5342TIP3    H137585   2.846   6.566   3.466  0.2240  0.6050 -0.2007
 5342TIP3    H237586   2.945   6.592   3.577 -0.8622  0.6432  0.7727
 5343TIP3   OH237587   1.048   3.235   1.883  0.4286  0.1398  0.2595
 5343TIP3    H137588   1.038   3.315   1.935  0.4932 -0.2920  0.9474
 5343TIP3    H237589   1.127   3.250   1.831  0.2024  0.6926  0.0623
 5344TIP3   OH237590   2.861   4.257   3.163 -0.3882 -0.4080 -0.1112
 5344TIP3    H137591   2.956   4.263   3.150 -0.5156  0.4785 -0.7885
 5344TIP3    H237592   2.850   4.194   3.233  0.6906 -0.7749 -0.2504
 5345TIP3   OH237593   1.583   3.809   3.845 -0.8807 -0.4827 -0.6130
 5345TIP3    H137594   1.488   3.820   3.843 -0.8392 -0.1376 -1.0292
 5345TIP3    H237595   1.616   3.895   3.872 -0.7062 -0.7325 -0.0340
 5346TIP3   OH237596   0.403   6.733   0.517 -0.8113  0.0367 -0.7217
 5346TIP3    H137597   0.441   6.788   0.449 -0.1509 -0.0690 -0.4469
 5346TIP3    H237598   0.320   6.775   0.539 -0.5275  0.6661 -0.8375
 5347TIP3   OH237599   3.382   3.090   4.113 -0.4800 -0.0185 -0.4781
 5347TIP3    H137600   3.438   3.129   4.046 -0.1435  1.3530  0.5522
 5347TIP3    H237601   3.354   3.164   4.167 -1.0851 -1.0342  0.6501
 5348TIP3   OH237602   0.856   4.841   2.364 -0.2164  0.4683 -0.5254
 5348TIP3    H137603   0.894   4.919   2.403  1.0511  0.8508 -2.3810
 5348TIP3    H237604   0.897   4.835   2.278  1.1222 -3.2133  0.1879
 5349TIP3   OH237605   2.945   6.763   2.057  0.3857 -0.0617 -0.5539
 5349TIP3    H137606   2.896   6.774   1.975 -1.3548 -0.3276  0.4042
 5349TIP3    H237607   3.037   6.772   2.031 -0.1458  0.4886 -2.4267
 5350TIP3   OH237608   2.270   5.544   3.005 -0.0068  0.0440 -0.2162
 5350TIP3    H137609   2.319   5.594   3.070  0.2485 -0.4952  0.0171
 5350TIP3    H237610   2.335   5.526   2.936  0.4913 -1.6832  0.6351
 5351TIP3   OH237611   3.709   6.819   3.919  0.0272 -0.3926 -0.0027
 5351TIP3    H137612   3.679   6.825   3.828  1.8450  1.7232 -0.5573
 5351TIP3    H237613   3.628   6.812   3.970 -1.1178 -0.2119 -1.7108
 5352TIP3   OH237614   0.099   4.378   1.008  0.0422  0.0066  0.2788
 5352TIP3    H137615   0.192   4.358   1.006  0.3115  1.2475 -0.5332
 5352TIP3    H237616   0.078   4.403   0.918 -1.4190 -1.6993  0.0751
 5353TIP3   OH237617   3.082   3.025   3.179  0.1952 -0.1776 -0.2253
 5353TIP3    H137618   3.136   2.953   3.146 -1.4429 -1.3513 -0.4814
 5353TIP3    H237619   3.009   3.030   3.118  0.3206  1.8472 -0.2952
 5354TIP3   OH237620   5.285   1.036   3.349 -0.1765 -0.1191  0.1184
 5354TIP3    H137621   5.309   1.107   3.290  0.8307 -0.1566  0.4535
 5354TIP3    H237622   5.203   1.064   3.389 -0.3757  0.3348 -0.5826
 5355TIP3   OH237623   0.144   3.125   2.865 -0.2927 -0.1346  1.1165
 5355TIP3    H137624   0.071   3.082   2.820  0.1355 -0.2703  0.5424
 5355TIP3    H237625   0.215   3.061   2.861  0.5409  0.8306 -0.2571
 5356TIP3   OH237626   3.372   2.530   4.944  0.4258 -0.4815 -0.4483
 5356TIP3    H137627   3.289   2.547   4.989  0.4913 -0.8799 -0.1738
 5356TIP3    H237628   3.424   2.609   4.959  0.7980 -0.9699  0.9818
 5357TIP3   OH237629   4.330   6.332   2.821  0.1325 -0.7757  0.5934
 5357TIP3    H137630   4.255   6.281   2.792 -0.5136  0.1319  0.6432
 5357TIP3    H237631   4.335   6.317   2.915  1.1883 -2.3543  0.3159
 5358TIP3   OH237632   3.508   5.220   3.939 -0.3460  0.8117  0.6587
 5358TIP3    H137633   3.438   5.277   3.906 -1.6760 -0.5432  1.0111
 5358TIP3    H237634   3.514   5.243   4.032  0.3218  1.5535  0.4407
 5359TIP3   OH237635   2.030   3.960   4.183 -0.3262 -0.1948 -0.1960
 5359TIP3    H137636   2.045   4.049   4.214  0.5275 -0.3030 -0.2680
 5359TIP3    H237637   2.017   3.909   4.263  1.2695 -0.3656 -0.0158
 5360TIP3   OH237638   1.892   0.810   3.277  0.1042 -0.4520  0.1404
 5360TIP3    H137639   1.963   0.809   3.213  0.9409 -1.0153  1.0509
 5360TIP3    H237640   1.898   0.896   3.318  1.5161 -1.1648  1.5365
 5361TIP3   OH237641   2.762   1.156   1.526  0.0668  0.1130  0.1916
 5361TIP3    H137642   2.672   1.185   1.507  0.2223  0.2462 -0.3495
 5361TIP3    H237643   2.757   1.060   1.523  0.5820  0.0988 -3.0343
 5362TIP3   OH237644   5.213   1.823   1.743  0.4143 -0.1214 -0.2308
 5362TIP3    H137645   5.290   1.870   1.711  0.3774 -0.5018 -0.8794
 5362TIP3    H237646   5.141   1.852   1.687  0.0523  0.3160  0.4407
 5363TIP3   OH237647   1.086   1.074   2.767 -0.6668  0.1766  0.1163
 5363TIP3    H137648   1.048   1.150   2.811  1.6020  1.3666  0.2042
 5363TIP3    H237649   1.181   1.089   2.772 -0.1357 -2.6314  0.0487
 5364TIP3   OH237650   4.793   4.610   4.038  0.0379 -0.1601 -0.0872
 5364TIP3    H137651   4.805   4.705   4.046  1.3404 -0.3927  1.3270
 5364TIP3    H237652   4.702   4.596   4.063 -0.3544  0.7657 -0.9301
 5365TIP3   OH237653   3.635   4.179   4.585 -0.0539  0.1316  0.5592
 5365TIP3    H137654   3.578   4.234   4.531  0.3828 -0.8922 -1.0104
 5365TIP3    H237655   3.584   4.099   4.600  1.0260 -0.9102 -1.0983
 5366TIP3   OH237656   3.553   2.957   3.115  0.0198  0.6070  0.2460
 5366TIP3    H137657   3.635   2.973   3.160  1.1803 -1.6003 -0.9075
 5366TIP3    H237658   3.511   2.887   3.166  1.3746 -1.9613 -1.9099
 5367TIP3   OH237659   2.723   1.808   0.194  0.0067  0.4931 -0.0289
 5367TIP3    H137660   2.773   1.848   0.122 -0.8045  0.5447 -0.5761
 5367TIP3    H237661   2.715   1.716   0.169  0.0604  0.4289  0.1916
 5368TIP3   OH237662   2.307   0.332   1.615  0.7492 -0.7387 -0.1092
 5368TIP3    H137663   2.308   0.290   1.529 -0.3239 -1.0677  0.0212
 5368TIP3    H237664   2.297   0.259   1.676  2.5161 -0.6117  0.3906
 5369TIP3   OH237665   4.236   4.029   2.962 -0.1215 -0.2206 -0.2375
 5369TIP3    H137666   4.170   4.094   2.940  0.6844  0.7309  0.0925
 5369TIP3    H237667   4.226   3.961   2.895 -1.1517  0.1004 -0.4246
 5370TIP3   OH237668   0.983   6.689   2.340 -0.2749 -0.4088  0.0285
 5370TIP3    H137669   1.052   6.723   2.397 -0.0004 -0.4736 -0.2629
 5370TIP3    H237670   0.903   6.693   2.394 -0.9011  3.4810 -0.8369
 5371TIP3   OH237671   5.991   4.524   1.282  0.2665 -0.1992 -0.3165
 5371TIP3    H137672   5.966   4.483   1.199  0.0829  0.4061 -0.5741
 5371TIP3    H237673   5.918   4.505   1.341 -0.3673  0.7223 -0.7769
 5372TIP3   OH237674   4.572   3.872   1.271  0.4431 -0.0769 -0.0074
 5372TIP3    H137675   4.480   3.848   1.258  0.1696  1.6911 -1.8058
 5372TIP3    H237676   4.607   3.802   1.326 -1.9823 -0.7581  0.8088
 5373TIP3   OH237677   5.825   5.464   3.095  0.2352 -0.1854  0.5135
 5373TIP3    H137678   5.772   5.507   3.162 -0.5292 -0.7464  0.2837
 5373TIP3    H237679   5.891   5.415   3.145  0.8342  0.8592  0.7868
 5374TIP3   OH237680   6.765   1.112   3.651 -0.0005  0.0944 -0.0162
 5374TIP3    H137681   6.683   1.066   3.668 -1.5916  2.8948  0.3833
 5374TIP3    H237682   6.752   1.155   3.566  1.1599  0.3972 -0.0612
 5375TIP3   OH237683   6.671   3.512   0.695 -0.0997 -0.0602 -0.1302
 5375TIP3    H137684   6.687   3.482   0.605  0.6228 -0.1982  0.0376
 5375TIP3    H237685   6.686   3.607   0.691 -1.9657  0.2568 -0.5664
 5376TIP3   OH237686   5.135   3.723   2.604 -0.2063 -0.6642 -0.3317
 5376TIP3    H137687   5.174   3.636   2.594  1.1549 -0.1518  0.1741
 5376TIP3    H237688   5.104   3.725   2.695  0.8461 -0.2315  0.0334
 5377TIP3   OH237689   5.544   0.095   1.943 -0.0387  0.3009 -0.5054
 5377TIP3    H137690   5.588   0.021   1.901 -2.6861 -1.2490 -0.7818
 5377TIP3    H237691   5.515   0.061   2.027  1.8202  2.2249  1.0409
 5378TIP3   OH237692   0.872   0.912   1.848  0.2280  0.1430  0.3276
 5378TIP3    H137693   0.851   0.992   1.799  1.2368 -0.8601 -1.8522
 5378TIP3    H237694   0.788   0.885   1.886 -0.5254  1.1434 -0.5595
 5379TIP3   OH237695   2.281   6.261   0.439  0.3142  0.0486 -0.1822
 5379TIP3    H137696   2.226   6.339   0.438 -1.5075 -1.1590  0.1521
 5379TIP3    H237697   2.259   6.215   0.358  0.2878 -0.7961  0.2886
 5380TIP3   OH237698   0.753   2.241   2.268  0.0365  0.9283  0.4837
 5380TIP3    H137699   0.748   2.182   2.193 -0.6308 -1.2478  2.1377
 5380TIP3    H237700   0.680   2.301   2.256 -1.2838 -0.6409  0.3255
 5381TIP3   OH237701   2.848   6.002   1.418  0.1036 -0.3325 -0.3489
 5381TIP3    H137702   2.894   5.924   1.388 -0.1857 -0.1017 -1.4377
 5381TIP3    H237703   2.903   6.037   1.489  0.5178 -1.2029 -0.2316
 5382TIP3   OH237704   1.997   6.537   3.212  0.0866  0.3966  0.0474
 5382TIP3    H137705   1.989   6.499   3.299 -1.2516 -0.9003 -0.6123
 5382TIP3    H237706   2.008   6.631   3.228  0.4058  0.1235  1.6077
 5383TIP3   OH237707   0.943   6.880   1.681  0.3234  0.4854  0.8111
 5383TIP3    H137708   0.938   6.942   1.754 -1.5390  0.4416  0.7712
 5383TIP3    H237709   0.852   6.865   1.656  0.8301 -0.9043 -0.3494
 5384TIP3   OH237710   5.825   3.761   1.588 -0.3729 -0.3969 -0.2721
 5384TIP3    H137711   5.843   3.841   1.636 -0.2991 -0.7474  0.2946
 5384TIP3    H237712   5.734   3.771   1.557  0.6647  1.3738 -3.1507
 5385TIP3   OH237713   1.432   1.925   3.359  0.1580  0.8514 -0.0833
 5385TIP3    H137714   1.512   1.876   3.377 -1.2482 -1.1003  1.2412
 5385TIP3    H237715   1.410   1.967   3.442  0.5159  2.5394 -0.8095
 5386TIP3   OH237716   1.252   1.142   3.803 -0.1386  0.0136  0.7809
 5386TIP3    H137717   1.248   1.053   3.837 -0.0366  0.6034  2.4212
 5386TIP3    H237718   1.253   1.198   3.881 -0.7045  1.4799 -0.2103
 5387TIP3   OH237719   3.999   2.522   4.103  0.0098 -0.3685 -0.7354
 5387TIP3    H137720   3.905   2.512   4.121 -0.0593  1.0686 -0.1414
 5387TIP3    H237721   4.003   2.540   4.009 -0.4634  0.8519 -0.5489
 5388TIP3   OH237722   0.510   3.528   3.675 -0.2633 -0.3423 -0.2988
 5388TIP3    H137723   0.523   3.459   3.740  1.6679  1.1060  0.9620
 5388TIP3    H237724   0.418   3.552   3.683 -0.0259 -0.0482  2.1184
 5389TIP3   OH237725   3.020   2.790   3.982  0.0271 -0.3973  0.4999
 5389TIP3    H137726   2.950   2.768   3.920 -0.2688  0.0785  0.6586
 5389TIP3    H237727   2.975   2.837   4.053  0.5613  0.2559  0.4145
 5390TIP3   OH237728   6.232   2.104   2.959 -0.5693 -0.0291 -0.4874
 5390TIP3    H137729   6.208   2.011   2.962 -0.2049 -0.0962  0.9784
 5390TIP3    H237730   6.295   2.110   2.887 -1.2015 -0.7459 -1.1279
 5391TIP3   OH237731   1.933   2.314   1.370 -0.1285  0.4559  0.6444
 5391TIP3    H137732   1.881   2.346   1.444 -2.5479 -0.7325 -0.4409
 5391TIP3    H237733   1.912   2.373   1.298 -0.1623 -0.1736  0.1288
 5392TIP3   OH237734   2.098   2.808   2.524 -0.0033  0.4478 -0.2226
 5392TIP3    H137735   2.061   2.765   2.602  1.4503 -0.1017  0.1938
 5392TIP3    H237736   2.022   2.824   2.468 -1.0371  0.4948  1.1255
 5393TIP3   OH237737   2.881   2.851   2.624 -0.1331  0.2397  0.2578
 5393TIP3    H137738   2.875   2.852   2.528  1.7629 -1.9165  0.0466
 5393TIP3    H237739   2.790   2.857   2.653 -0.7224  1.3326 -1.6439
 5394TIP3   OH237740   2.200   3.196   4.575 -0.1150  0.3918  0.0329
 5394TIP3    H137741   2.112   3.207   4.611  0.0995 -0.2180  0.7501
 5394TIP3    H237742   2.256   3.181   4.651  0.5678  0.4845 -0.4430
 5395TIP3   OH237743   5.314   2.456   2.828 -0.2368 -0.6060 -0.2576
 5395TIP3    H137744   5.266   2.418   2.901 -0.6209  0.3968  0.0183
 5395TIP3    H237745   5.352   2.536   2.863 -0.7198  0.0721 -1.2440
 5396TIP3   OH237746   6.642   2.924   3.483 -0.2369 -0.4254 -0.0239
 5396TIP3    H137747   6.575   2.888   3.542  0.1096 -0.5818  0.2754
 5396TIP3    H237748   6.605   2.913   3.395 -0.8616  0.0276  0.1747
 5397TIP3   OH237749   4.142   6.233   1.437  0.0932  0.4074 -0.1979
 5397TIP3    H137750   4.190   6.310   1.468 -0.7333 -0.2903  3.2616
 5397TIP3    H237751   4.053   6.266   1.423 -0.0077  0.3056  0.2021
 5398TIP3   OH237752   4.071   6.694   3.493  0.5924 -0.7676 -0.0817
 5398TIP3    H137753   4.134   6.697   3.421  0.1051 -0.9134 -0.5184
 5398TIP3    H237754   4.101   6.622   3.549  1.6057  0.0443  0.4621
 5399TIP3   OH237755   3.718   6.711   0.177 -0.0606  0.2977 -0.3686
 5399TIP3    H137756   3.757   6.624   0.177  0.8927  0.6400 -2.9317
 5399TIP3    H237757   3.636   6.701   0.129  0.5206  0.9449 -1.5438
 5400TIP3   OH237758   5.307   0.083   2.443 -0.2254  0.7175  0.9159
 5400TIP3    H137759   5.233   0.022   2.441 -0.3598  0.8735 -0.8195
 5400TIP3    H237760   5.339   0.080   2.533 -1.0812 -0.8844  1.2032
 5401TIP3   OH237761   2.005   0.209   3.055 -0.0694  0.3441 -0.9901
 5401TIP3    H137762   1.929   0.152   3.049 -0.9427  1.3386  0.0823
 5401TIP3    H237763   1.990   0.277   2.989  0.6049 -0.2192 -1.7516
 5402TIP3   OH237764   5.402   2.876   0.983  0.0784  0.1019  0.0221
 5402TIP3    H137765   5.314   2.913   0.994  0.2527  0.5941 -0.2206
 5402TIP3    H237766   5.396   2.824   0.902 -0.2475 -0.6644  0.5217
 5403TIP3   OH237767   4.453   5.070   2.597  0.1336  0.2902 -0.2974
 5403TIP3    H137768   4.546   5.051   2.602 -0.2705 -1.7802  1.0199
 5403TIP3    H237769   4.438   5.136   2.665  0.7671  1.4172 -1.2253
 5404TIP3   OH237770   3.255   5.437   0.119  0.2172 -0.3494 -1.0351
 5404TIP3    H137771   3.313   5.476   0.054  2.7030 -0.8668  0.7350
 5404TIP3    H237772   3.307   5.432   0.199 -2.9763  1.2254  1.4119
 5405TIP3   OH237773   0.839   3.875   0.008  0.3282  0.0917  0.0472
 5405TIP3    H137774   0.801   3.961   0.030 -0.6117 -0.8427  2.3652
 5405TIP3    H237775   0.778   3.812   0.046  1.7084 -1.5822 -0.4286
 5406TIP3   OH237776   1.456   4.352   0.227 -0.3720  0.7699  0.3229
 5406TIP3    H137777   1.530   4.408   0.250  2.9609 -1.5314 -3.3575
 5406TIP3    H237778   1.416   4.396   0.152 -0.0610  0.0892 -0.2576
 5407TIP3   OH237779   0.010   0.679   1.396 -0.3950 -0.2113  0.0647
 5407TIP3    H137780  -0.018   0.738   1.466 -0.2917 -1.1673  0.9374
 5407TIP3    H237781  -0.060   0.614   1.392 -0.2817 -0.2951 -0.5676
 5408TIP3   OH237782   6.464   1.608   4.629 -0.3702 -0.7176  0.3986
 5408TIP3    H137783   6.425   1.603   4.542 -0.2335  0.3067  0.2641
 5408TIP3    H237784   6.535   1.672   4.620  0.8324 -1.9290  0.8308
 5409TIP3   OH237785   2.906   6.685   3.904  0.4120  0.3592 -0.3312
 5409TIP3    H137786   2.833   6.689   3.842  0.0038  1.2367  0.1707
 5409TIP3    H237787   2.911   6.774   3.940 -0.1652 -0.4025  1.7802
 5410TIP3   OH237788   6.091   1.934   3.462 -0.0442 -0.0380 -0.1314
 5410TIP3    H137789   6.113   1.982   3.382  0.8388 -0.4087 -0.1266
 5410TIP3    H237790   6.027   1.989   3.507 -0.5471  0.1785 -1.0861
 5411TIP3   OH237791   0.149   2.166   4.017 -0.2745  0.5965  0.0877
 5411TIP3    H137792   0.118   2.191   3.930 -0.5236  0.4306  0.1272
 5411TIP3    H237793   0.085   2.204   4.077 -1.3972 -1.1911  0.0954
 5412TIP3   OH237794   2.193   1.195   3.878  0.4900  0.5087  0.2796
 5412TIP3    H137795   2.251   1.253   3.927  0.7084  0.2777  0.2997
 5412TIP3    H237796   2.232   1.108   3.890  0.3026  0.3940  0.0495
 5413TIP3   OH237797   6.407   0.464   3.874  0.1583 -0.7507  0.4592
 5413TIP3    H137798   6.448   0.403   3.812 -0.6761 -0.8798  0.0228
 5413TIP3    H237799   6.427   0.428   3.960 -0.8548 -2.0144  0.1990
 5414TIP3   OH237800   0.319   4.829   1.839  0.9870  0.6311  0.4055
 5414TIP3    H137801   0.268   4.791   1.768  1.1204  1.8361 -0.3733
 5414TIP3    H237802   0.393   4.770   1.851 -0.6650 -1.2921  1.7258
 5415TIP3   OH237803   2.417   3.962   4.056 -0.1347  0.7676 -0.1229
 5415TIP3    H137804   2.393   4.033   3.997  1.8762  1.3428 -0.3126
 5415TIP3    H237805   2.415   4.002   4.143 -1.1693  0.4275  0.0353
 5416TIP3   OH237806   0.733   6.596   0.646 -0.4010 -0.1640  0.5477
 5416TIP3    H137807   0.720   6.533   0.575  0.5683 -0.7043  0.8444
 5416TIP3    H237808   0.669   6.572   0.712  0.8737 -1.7464  1.2680
 5417TIP3   OH237809   3.131   2.668   0.861 -0.2050  0.2759  0.1789
 5417TIP3    H137810   3.129   2.764   0.858 -0.2858  0.2549 -1.7250
 5417TIP3    H237811   3.056   2.645   0.916  0.7937  1.2982  2.0721
 5418TIP3   OH237812   0.128   4.781   2.053  0.1403  0.1624  0.1141
 5418TIP3    H137813   0.146   4.786   1.959  1.8438 -1.7871  0.2580
 5418TIP3    H237814   0.215   4.780   2.094 -0.5526  0.1821  1.6549
 5419TIP3   OH237815   1.646   0.066   3.739 -0.0364 -0.2411  0.5225
 5419TIP3    H137816   1.603   0.114   3.809  0.7876 -0.2448  1.0447
 5419TIP3    H237817   1.669  -0.019   3.777 -1.2713 -0.9986 -0.3258
 5420TIP3   OH237818   4.756   2.749   4.303  0.1953  0.1526  0.4645
 5420TIP3    H137819   4.765   2.840   4.277  1.3114  0.1257  0.6901
 5420TIP3    H237820   4.757   2.751   4.399 -0.3741 -0.0444  0.4764
 5421TIP3   OH237821   1.054   5.973   0.293  0.1008 -0.1738 -0.0992
 5421TIP3    H137822   0.963   5.942   0.297 -0.5534  1.7004  1.1823
 5421TIP3    H237823   1.050   6.049   0.235 -0.0769  2.4406  3.0519
 5422TIP3   OH237824   5.630   0.992   3.693 -0.2903 -0.0788  0.3351
 5422TIP3    H137825   5.671   1.009   3.778  0.6060  0.7121 -0.2349
 5422TIP3    H237826   5.538   0.977   3.713  0.2065 -1.5677  1.6178
 5423TIP3   OH237827   5.941   2.067   2.570  0.2016 -0.4653  0.0965
 5423TIP3    H137828   5.850   2.055   2.543  0.6691  0.6131 -2.1351
 5423TIP3    H237829   5.935   2.127   2.645 -0.9939 -1.7694  1.1130
 5424TIP3   OH237830   3.474   4.626   2.448 -0.1357 -0.2194 -0.2265
 5424TIP3    H137831   3.415   4.701   2.448  1.0162  0.7077  0.0117
 5424TIP3    H237832   3.449   4.575   2.525 -0.6450  0.1395 -0.1506
 5425TIP3   OH237833   1.390   3.041   0.357 -0.0691 -0.4720  0.2065
 5425TIP3    H137834   1.410   3.087   0.438  1.4507  1.2596 -1.0817
 5425TIP3    H237835   1.447   2.964   0.359  2.0373  0.9960 -0.4064
 5426TIP3   OH237836   2.925   6.083   3.078 -0.0414 -0.0514  0.5063
 5426TIP3    H137837   2.901   5.993   3.100  2.2543 -0.6663  0.7624
 5426TIP3    H237838   2.938   6.126   3.162  2.9800 -0.7381  0.4922
 5427TIP3   OH237839   5.490   0.899   2.385  0.3901  0.3679  0.2505
 5427TIP3    H137840   5.482   0.834   2.315 -1.5826  0.6897  0.1095
 5427TIP3    H237841   5.407   0.947   2.383  0.9810  1.5436  1.6845
 5428TIP3   OH237842   3.340   4.688   0.995 -0.2282 -0.2024  0.1072
 5428TIP3    H137843   3.283   4.644   1.058 -0.0375 -1.0947 -0.3353
 5428TIP3    H237844   3.309   4.779   0.995 -0.2284 -0.1805  1.4802
 5429TIP3   OH237845   1.294   1.584   0.012 -0.0221 -0.2144  0.1371
 5429TIP3    H137846   1.378   1.540   0.024  0.7078  1.1434  0.1186
 5429TIP3    H237847   1.310   1.675   0.035 -1.3831  0.1647 -0.2957
 5430TIP3   OH237848   1.221   6.248   1.793 -0.2937 -0.3530  0.2582
 5430TIP3    H137849   1.188   6.190   1.862 -0.5233 -0.5066  0.0179
 5430TIP3    H237850   1.272   6.191   1.736  0.7756 -0.0445  0.8669
 5431TIP3   OH237851   0.039   1.561   1.208 -0.0904  0.4435  0.0778
 5431TIP3    H137852   0.114   1.558   1.267  3.5086  0.4944 -4.0399
 5431TIP3    H237853   0.047   1.645   1.163  0.1833 -1.3399 -3.5583
 5432TIP3   OH237854   6.110   4.284   3.247 -0.5876 -0.1310 -0.3767
 5432TIP3    H137855   6.125   4.243   3.163 -1.7850 -1.4502  0.0196
 5432TIP3    H237856   6.179   4.351   3.254  0.2041 -0.7517 -1.8838
 5433TIP3   OH237857   4.759   5.212   4.255 -1.1258  0.2696 -0.1756
 5433TIP3    H137858   4.691   5.199   4.321 -1.4560 -1.4770 -0.8267
 5433TIP3    H237859   4.838   5.175   4.295 -1.2953 -0.6652 -0.6917
 5434TIP3   OH237860   1.963   3.571   4.726  0.2407 -0.4158  0.8758
 5434TIP3    H137861   1.932   3.660   4.709 -0.3969 -0.6816  0.6120
 5434TIP3    H237862   1.896   3.531   4.780  0.5390 -0.7278  1.0221
 5435TIP3   OH237863   5.453   4.609   4.143 -0.2869 -0.9184 -0.8952
 5435TIP3    H137864   5.411   4.585   4.060  0.3852 -0.4381 -1.3846
 5435TIP3    H237865   5.514   4.679   4.120 -1.2320  0.3464  0.2597
 5436TIP3   OH237866   2.183   2.276   0.907  0.0475 -0.1116  0.1030
 5436TIP3    H137867   2.123   2.233   0.967 -0.2372 -0.1131 -0.1818
 5436TIP3    H237868   2.179   2.368   0.931 -1.1051  0.0890 -0.7997
 5437TIP3   OH237869   4.005   0.342   2.302  0.3099  0.2146  0.3198
 5437TIP3    H137870   3.998   0.259   2.350 -1.1572 -1.9449 -3.2365
 5437TIP3    H237871   3.917   0.379   2.305  0.0210 -0.2976 -1.1503
 5438TIP3   OH237872   2.150   3.366   2.196  0.0918 -0.2374 -0.3877
 5438TIP3    H137873   2.087   3.336   2.131 -1.7196  0.1674  1.1088
 5438TIP3    H237874   2.189   3.445   2.158  0.3392 -0.9719 -1.6890
 5439TIP3   OH237875   1.810   3.113   1.833  0.4465  0.0639  0.0061
 5439TIP3    H137876   1.903   3.099   1.848  0.5887  0.0643 -0.8251
 5439TIP3    H237877   1.803   3.127   1.738 -0.2869  0.9655  0.1846
 5440TIP3   OH237878   1.538   5.222   0.230  0.3413 -0.3473 -0.5490
 5440TIP3    H137879   1.509   5.313   0.236  0.8873 -0.0468 -2.2057
 5440TIP3    H237880   1.592   5.209   0.308 -0.5788  0.4161  0.2470
 5441TIP3   OH237881   4.426   5.184   3.926 -0.0170  0.3736  0.0323
 5441TIP3    H137882   4.500   5.189   3.866  0.3052  1.6354  0.5020
 5441TIP3    H237883   4.353   5.153   3.872  0.7089 -0.3624 -0.5570
 5442TIP3   OH237884   0.432   6.175   3.602 -0.6366 -0.2688  0.0020
 5442TIP3    H137885   0.344   6.140   3.599 -1.7915  2.4052 -1.8525
 5442TIP3    H237886   0.480   6.125   3.535 -1.1622 -0.7425 -0.0239
 5443TIP3   OH237887   3.958   0.974   2.556 -0.4442  0.0678  0.2225
 5443TIP3    H137888   3.907   1.054   2.569  0.7115  0.9075 -0.2496
 5443TIP3    H237889   4.035   0.985   2.611  1.4779  0.9369 -2.4265
 5444TIP3   OH237890   6.746   2.664   1.599  0.1525  0.2003 -0.6620
 5444TIP3    H137891   6.700   2.650   1.516  1.7912 -1.0331 -1.4134
 5444TIP3    H237892   6.817   2.724   1.576  0.8140 -0.4102 -0.2414
 5445TIP3   OH237893   2.934   6.318   0.084  0.3423 -0.3895  0.0977
 5445TIP3    H137894   2.920   6.412   0.068  3.0508 -0.0476 -0.8249
 5445TIP3    H237895   2.887   6.274   0.013  1.4832  0.4685 -1.2330
 5446TIP3   OH237896   1.819   2.501   4.165 -0.1480 -0.2450 -0.0250
 5446TIP3    H137897   1.873   2.454   4.228  1.1688 -0.5643 -1.3472
 5446TIP3    H237898   1.881   2.538   4.102 -1.4863 -1.3272 -2.0922
 5447TIP3   OH237899   5.362   2.072   1.678  0.2739  0.2266 -0.9056
 5447TIP3    H137900   5.378   2.140   1.612  1.2729  2.6626  1.6662
 5447TIP3    H237901   5.270   2.082   1.700  0.6708  1.5958  0.2611
 5448TIP3   OH237902   2.430   2.483   2.189  0.5889 -0.2313 -0.0862
 5448TIP3    H137903   2.491   2.555   2.171  0.0898 -0.1252 -1.4345
 5448TIP3    H237904   2.476   2.430   2.254  2.2324 -0.2663 -1.1935
 5449TIP3   OH237905   5.350   6.111   3.332  0.2798  0.4740  0.2388
 5449TIP3    H137906   5.434   6.134   3.293  1.8000 -0.9237  2.4372
 5449TIP3    H237907   5.306   6.058   3.265  1.7049  0.1866 -0.4948
 5450TIP3   OH237908   4.424   3.960   3.549 -0.3650 -0.2691 -0.3257
 5450TIP3    H137909   4.419   3.962   3.645 -3.0988 -0.7790 -0.3893
 5450TIP3    H237910   4.337   3.931   3.521  0.9779 -2.1328 -2.9214
 5451TIP3   OH237911   1.260   3.143   4.300 -0.4432  0.2508 -0.0379
 5451TIP3    H137912   1.298   3.204   4.236 -1.1937  1.5307  0.7003
 5451TIP3    H237913   1.322   3.069   4.302 -0.0701  0.4665 -1.7471
 5452TIP3   OH237914   0.963   1.947   0.475 -0.0698  0.2874 -0.5047
 5452TIP3    H137915   0.878   1.939   0.431 -0.1391  1.0446 -0.5232
 5452TIP3    H237916   1.026   1.908   0.414 -0.2111  1.0294 -1.1311
 5453TIP3   OH237917   0.386   5.985   2.889  0.3176  0.1173  0.1008
 5453TIP3    H137918   0.453   6.037   2.933  0.6032  0.1995 -0.4152
 5453TIP3    H237919   0.311   6.043   2.883 -0.1471 -0.3014  1.5545
 5454TIP3   OH237920   5.628   5.451   1.445 -1.1362 -0.2156 -0.1863
 5454TIP3    H137921   5.686   5.502   1.388 -2.1529  0.3452 -0.7302
 5454TIP3    H237922   5.636   5.361   1.413  0.0164 -0.2873  0.2415
 5455TIP3   OH237923   3.874   5.741   3.949  0.0854  0.7172 -0.1086
 5455TIP3    H137924   3.910   5.771   4.033  0.8419 -1.4232  0.4125
 5455TIP3    H237925   3.782   5.766   3.951 -0.2752 -0.5292  2.0464
 5456TIP3   OH237926   6.789   2.820   3.150 -0.1825  0.1590 -0.0968
 5456TIP3    H137927   6.850   2.894   3.152 -0.8985  0.7510  0.8515
 5456TIP3    H237928   6.844   2.743   3.160  0.6601  0.4748 -1.8762
 5457TIP3   OH237929   0.773   2.319   3.424  0.3242 -0.1868  0.3066
 5457TIP3    H137930   0.813   2.252   3.368  0.8415 -0.1683  0.6442
 5457TIP3    H237931   0.773   2.280   3.512 -0.3821 -0.1738  0.3175
 5458TIP3   OH237932   4.602   2.016   1.325  0.0798 -0.3017  0.2330
 5458TIP3    H137933   4.660   1.958   1.373 -0.4997 -1.7329 -0.7196
 5458TIP3    H237934   4.628   2.004   1.233  0.9028  2.0545  0.0754
 5459TIP3   OH237935   1.064   2.757   1.155  0.0464 -0.2486 -0.3078
 5459TIP3    H137936   1.137   2.761   1.093 -0.0863  0.8166 -0.4228
 5459TIP3    H237937   1.032   2.667   1.149  2.0419 -1.0761  0.5730
 5460TIP3   OH237938   0.561   1.040   3.324 -0.6220 -0.1301  0.1980
 5460TIP3    H137939   0.642   1.021   3.371 -0.6929 -0.8414  0.0469
 5460TIP3    H237940   0.496   1.055   3.393 -0.0078  2.2168  0.3525
 5461TIP3   OH237941   6.580   6.553   0.671 -0.2035  0.4527  0.0058
 5461TIP3    H137942   6.661   6.520   0.710 -0.5751  0.4000  0.7448
 5461TIP3    H237943   6.517   6.482   0.683 -0.7786  1.0897  0.8507
 5462TIP3   OH237944   0.749   1.985   4.409  0.3122 -0.3540  0.4947
 5462TIP3    H137945   0.665   2.014   4.445 -0.7321 -0.7308 -1.5070
 5462TIP3    H237946   0.740   1.891   4.398  0.4298 -0.1948 -1.1158
 5463TIP3   OH237947   5.662   0.489   3.724 -0.6214 -0.1271 -0.0603
 5463TIP3    H137948   5.754   0.483   3.749 -0.0611 -2.5917 -2.1969
 5463TIP3    H237949   5.618   0.420   3.775 -1.2611  0.8599  0.7524
 5464TIP3   OH237950   6.389   6.310   0.731  0.1705  0.0566 -0.1887
 5464TIP3    H137951   6.295   6.295   0.726  0.1798 -0.2509  0.5026
 5464TIP3    H237952   6.427   6.223   0.730  0.2414 -0.1157  3.5730
 5465TIP3   OH237953   3.728   5.985   1.989 -0.8501  0.2180 -0.4926
 5465TIP3    H137954   3.766   6.032   1.914 -0.2574 -0.1422 -0.4296
 5465TIP3    H237955   3.646   6.030   2.007 -1.7177 -0.5405 -2.2647
 5466TIP3   OH237956   5.848   6.258   4.625  0.0851  0.0835 -0.7760
 5466TIP3    H137957   5.765   6.277   4.582 -0.3089 -0.1977 -0.1565
 5466TIP3    H237958   5.898   6.340   4.618 -0.8284  0.7395  0.1357
 5467TIP3   OH237959   0.060   0.502   2.806 -0.1015 -0.7213 -0.1479
 5467TIP3    H137960   0.075   0.416   2.766 -1.8267 -1.5312  0.8457
 5467TIP3    H237961   0.148   0.537   2.819  0.7730 -3.0894  1.0031
 5468TIP3   OH237962   5.923   1.447   4.031 -0.1915 -0.1973 -0.2825
 5468TIP3    H137963   5.910   1.399   4.113 -0.0140 -1.9172 -1.2360
 5468TIP3    H237964   5.970   1.526   4.058 -2.0308  0.3841  1.5639
 5469TIP3   OH237965   3.892   5.474   3.751  0.1393 -0.3133  0.1074
 5469TIP3    H137966   3.968   5.504   3.800 -0.3615 -0.1009  0.7647
 5469TIP3    H237967   3.928   5.413   3.686  1.2326  1.8711 -1.4789
 5470TIP3   OH237968   3.983   6.102   4.908 -0.0763 -0.5890  0.5585
 5470TIP3    H137969   4.075   6.130   4.904 -0.0705 -0.6670  0.1512
 5470TIP3    H237970   3.982   6.015   4.868 -0.6190  0.1706 -1.2042
 5471TIP3   OH237971   0.112   1.956   2.295 -0.7531 -0.1271  0.0004
 5471TIP3    H137972   0.133   2.028   2.356 -1.2677 -0.0054  0.0351
 5471TIP3    H237973   0.017   1.950   2.297 -0.6833 -1.2266  0.4717
 5472TIP3   OH237974   5.416   6.052   2.842  0.2546 -0.0717  0.4082
 5472TIP3    H137975   5.503   6.089   2.829 -0.1779  0.2593 -2.0161
 5472TIP3    H237976   5.366   6.122   2.884  0.9017  0.0578  0.9782
 5473TIP3   OH237977   3.154   0.424   1.481 -0.1892 -0.1972  0.4799
 5473TIP3    H137978   3.194   0.508   1.501 -0.5950  0.0338  0.3254
 5473TIP3    H237979   3.217   0.359   1.513 -0.4487  0.1594  1.7850
 5474TIP3   OH237980   4.886   5.230   1.763 -0.2688 -0.0589  0.2534
 5474TIP3    H137981   4.936   5.182   1.829  2.2648  0.5383 -1.1109
 5474TIP3    H237982   4.803   5.250   1.807  1.0548 -0.1655  3.0559
 5475TIP3   OH237983   1.851   5.399   0.023  0.1314  0.2501 -0.1603
 5475TIP3    H137984   1.933   5.379  -0.023 -0.3602 -1.3830 -0.3889
 5475TIP3    H237985   1.837   5.324   0.080 -0.8021  0.9016  0.4897
 5476TIP3   OH237986   6.667   4.359   4.483  0.0475  0.3862  0.2927
 5476TIP3    H137987   6.586   4.315   4.509  0.0741  1.1214  1.7409
 5476TIP3    H237988   6.702   4.394   4.565  1.6677  0.3590 -0.3622
 5477TIP3   OH237989   1.127   5.028   3.250  0.1269 -0.0716 -0.5628
 5477TIP3    H137990   1.083   4.978   3.182  0.8127 -2.7487  0.8539
 5477TIP3    H237991   1.055   5.066   3.302 -0.5055 -1.8678 -0.0686
 5478TIP3   OH237992   6.391   2.500   3.022  0.2181  0.2071 -0.0313
 5478TIP3    H137993   6.368   2.545   3.103 -1.0765 -0.6395  0.1024
 5478TIP3    H237994   6.465   2.444   3.046  0.3464  0.5464  0.3679
 5479TIP3   OH237995   0.607   0.377   3.665  0.3622  0.0313  0.0265
 5479TIP3    H137996   0.623   0.303   3.724  0.7915  0.1715  0.0829
 5479TIP3    H237997   0.662   0.447   3.698  0.6489  0.0933 -0.5771
 5480TIP3   OH237998   1.639   6.020   3.748  0.1951 -0.0333 -0.6389
 5480TIP3    H137999   1.679   6.076   3.815 -1.1126  0.1712  0.0027
 5480TIP3    H238000   1.651   6.067   3.666  0.4538  0.4575 -0.3234
 5481TIP3   OH238001   5.286   1.596   0.970 -0.1673 -0.3739 -0.2559
 5481TIP3    H138002   5.349   1.615   1.039  0.0933 -0.8369 -0.3646
 5481TIP3    H238003   5.274   1.679   0.924 -0.2209 -0.1020  0.2428
 5482TIP3   OH238004   2.671   0.788   2.931 -0.2845 -0.0958 -0.8419
 5482TIP3    H138005   2.585   0.786   2.889 -0.3903 -0.4286 -0.6144
 5482TIP3    H238006   2.688   0.881   2.946  0.1380  0.0903 -2.3910
 5483TIP3   OH238007   4.160   1.429   2.253 -0.3045 -0.4782 -0.0085
 5483TIP3    H138008   4.154   1.520   2.223 -0.3338 -0.0445  1.2437
 5483TIP3    H238009   4.070   1.398   2.252 -0.5343  0.0888  1.2223
 5484TIP3   OH238010   3.826   1.925   1.604 -0.4793  0.4416 -0.1222
 5484TIP3    H138011   3.910   1.881   1.613 -0.2971  0.8634  0.2667
 5484TIP3    H238012   3.779   1.874   1.538 -0.4719 -0.6234  0.6767
 5485TIP3   OH238013   5.398   3.284   2.362  0.3554  0.0541 -0.1084
 5485TIP3    H138014   5.368   3.333   2.286 -0.0528  1.0220  0.6509
 5485TIP3    H238015   5.334   3.215   2.374 -0.8781  1.2797  0.6876
 5486TIP3   OH238016   2.279   2.524   0.529  0.1423 -0.1652  0.2519
 5486TIP3    H138017   2.264   2.528   0.623 -0.6039  1.5002  0.0917
 5486TIP3    H238018   2.338   2.597   0.511  1.1614 -1.1318 -0.4334
 5487TIP3   OH238019   2.220   5.011   2.957  0.6147  0.0045 -0.0756
 5487TIP3    H138020   2.294   5.057   2.917  1.9014 -2.2000 -0.4353
 5487TIP3    H238021   2.250   4.989   3.045  0.0597 -0.2184  0.0610
 5488TIP3   OH238022   5.703   4.019   2.076 -0.6329 -0.2613  0.3515
 5488TIP3    H138023   5.632   4.062   2.027  0.0095 -0.8141 -1.1158
 5488TIP3    H238024   5.782   4.039   2.026 -0.2205 -2.5441  0.0112
 5489TIP3   OH238025   1.950   5.401   2.102 -0.5597 -0.1788 -0.8068
 5489TIP3    H138026   1.888   5.469   2.073  0.2026  0.3925 -1.1129
 5489TIP3    H238027   2.020   5.450   2.146 -0.0608 -0.7844 -0.9206
 5490TIP3   OH238028   4.903   2.223   3.162  0.3800  0.2425 -0.3575
 5490TIP3    H138029   4.886   2.273   3.242 -0.0940 -1.0170  0.3651
 5490TIP3    H238030   4.832   2.159   3.159  0.5496  0.0926 -1.6543
 5491TIP3   OH238031   6.489   4.792   3.924  0.0110  0.1015 -0.3986
 5491TIP3    H138032   6.421   4.733   3.957  0.9313 -1.4425 -1.1335
 5491TIP3    H238033   6.453   4.829   3.844  0.1633 -1.0280 -1.0085
 5492TIP3   OH238034   2.960   6.180   3.329 -0.3205  0.2094  0.1236
 5492TIP3    H138035   3.009   6.255   3.362 -0.7268  0.8159 -0.6002
 5492TIP3    H238036   2.876   6.182   3.376 -1.1749  1.4795 -1.3623
 5493TIP3   OH238037   6.070   3.572   1.388  0.4655  0.2490  0.6361
 5493TIP3    H138038   6.116   3.491   1.363 -2.2357 -1.4386  0.7848
 5493TIP3    H238039   6.138   3.639   1.383  2.4706 -1.7139 -1.1059
 5494TIP3   OH238040   2.937   5.613   2.951 -0.2058 -0.4338  0.3613
 5494TIP3    H138041   2.941   5.640   2.859 -0.2053 -0.3311  0.3917
 5494TIP3    H238042   3.000   5.541   2.958  0.2048 -0.0701  0.4105
 5495TIP3   OH238043   2.967   5.267   3.445 -0.0585  0.6325 -0.0439
 5495TIP3    H138044   2.889   5.306   3.405  0.3784  1.8468  0.2401
 5495TIP3    H238045   3.031   5.337   3.444  0.8333 -0.1610  0.3168
 5496TIP3   OH238046   4.940   3.682   3.585  0.4745  0.3903 -0.7378
 5496TIP3    H138047   4.865   3.706   3.641  0.0437 -4.5980  1.3174
 5496TIP3    H238048   4.900   3.638   3.510  1.2990 -0.2153 -0.8272
 5497TIP3   OH238049   4.655   2.440   3.824  0.0230  0.5921 -0.1469
 5497TIP3    H138050   4.578   2.424   3.769  0.1217 -1.0034  0.1339
 5497TIP3    H238051   4.628   2.416   3.912  0.8854 -0.1977 -0.0760
 5498TIP3   OH238052   3.933   3.392   4.965  0.1664 -0.1844  0.2833
 5498TIP3    H138053   3.855   3.428   5.007  0.8043 -0.2250  1.5741
 5498TIP3    H238054   3.941   3.440   4.883 -1.1362 -0.0889  0.2003
 5499TIP3   OH238055   5.567   4.191   3.303  0.3016  0.2546  0.4695
 5499TIP3    H138056   5.651   4.211   3.345  0.1673 -2.5417  2.4051
 5499TIP3    H238057   5.524   4.132   3.365 -3.0662  1.4517 -0.5358
 5500TIP3   OH238058   6.119   0.346   3.956  0.9766  0.1121  0.1629
 5500TIP3    H138059   6.184   0.276   3.960  0.3369 -0.5386 -0.4526
 5500TIP3    H238060   6.136   0.399   4.034  1.5530 -0.6615  0.5837
 5501TIP3   OH238061   5.076   2.476   1.758 -0.1050  0.1217 -0.0313
 5501TIP3    H138062   4.981   2.472   1.771 -0.3036 -0.2477 -1.3836
 5501TIP3    H238063   5.086   2.533   1.681  0.7411 -0.1105 -0.0980
 5502TIP3   OH238064   4.018   5.722   0.383 -0.1543 -0.0216 -0.0686
 5502TIP3    H138065   3.990   5.785   0.317  1.4814 -0.6531 -1.4118
 5502TIP3    H238066   4.063   5.653   0.335 -0.8876 -1.6906  1.4784
 5503TIP3   OH238067   5.628   1.684   1.342  0.3352  0.5225 -0.6691
 5503TIP3    H138068   5.632   1.778   1.323  0.0426  0.7106  0.1532
 5503TIP3    H238069   5.719   1.657   1.353  0.4143  0.7357 -0.8139
 5504TIP3   OH238070   1.950   6.442   3.494  0.2804 -0.2708  0.2744
 5504TIP3    H138071   1.906   6.524   3.514  0.3672  0.3840 -1.9039
 5504TIP3    H238072   1.962   6.399   3.578 -0.5574  1.5428  1.3677
 5505TIP3   OH238073   6.653   5.588   4.517  0.0185  0.1057 -0.3027
 5505TIP3    H138074   6.670   5.653   4.585 -1.7901 -0.8461  1.1593
 5505TIP3    H238075   6.567   5.552   4.539  0.8553 -2.6716 -1.1139
 5506TIP3   OH238076   1.833   5.089   3.929  0.6709 -0.1380 -0.2878
 5506TIP3    H138077   1.909   5.116   3.980  1.0476 -0.2029 -0.8014
 5506TIP3    H238078   1.763   5.148   3.956  1.7745  2.2630 -2.2766
 5507TIP3   OH238079   6.359   6.764   3.282  0.1078 -0.3916  0.1435
 5507TIP3    H138080   6.412   6.713   3.221 -0.1899 -0.3628 -0.1416
 5507TIP3    H238081   6.306   6.699   3.329 -1.4316 -0.2751 -1.3125
 5508TIP3   OH238082   1.154   0.096   2.407  0.3581 -0.0040 -0.2242
 5508TIP3    H138083   1.146   0.033   2.478  0.6322 -0.0235 -0.2090
 5508TIP3    H238084   1.166   0.181   2.450  2.1924 -0.2187 -0.2215
 5509TIP3   OH238085   1.951   2.913   3.990 -0.4502  0.0260  0.0918
 5509TIP3    H138086   1.974   2.949   4.075  0.2353  0.6267 -0.3335
 5509TIP3    H238087   1.976   2.981   3.928 -1.1752 -0.2984 -0.5759
 5510TIP3   OH238088   1.728   6.484   4.645 -0.3409  0.2301 -0.3950
 5510TIP3    H138089   1.669   6.554   4.618  0.1900  0.5921 -0.6313
 5510TIP3    H238090   1.816   6.517   4.625 -0.0785 -0.4619 -0.4158
 5511TIP3   OH238091   1.457   0.212   5.068 -0.4005  0.1849 -0.3013
 5511TIP3    H138092   1.382   0.155   5.084  1.2596 -1.7460  1.1233
 5511TIP3    H238093   1.465   0.264   5.148  1.2993 -1.5631  0.7592
 5512TIP3   OH238094   4.924   0.700   1.715 -0.8797  0.2665 -0.7868
 5512TIP3    H138095   4.972   0.781   1.700 -0.8892  0.3420 -0.4378
 5512TIP3    H238096   4.916   0.660   1.629  2.0620 -1.0258 -0.5866
 5513TIP3   OH238097   2.343   2.855   5.085 -0.0373  0.0736  0.6488
 5513TIP3    H138098   2.367   2.924   5.023  0.3198 -0.3858  0.2687
 5513TIP3    H238099   2.422   2.801   5.093 -1.0537 -1.7778 -1.0160
 5514TIP3   OH238100   5.424   0.222   4.536  0.0705  0.4446 -0.2532
 5514TIP3    H138101   5.499   0.180   4.578  0.3232 -1.6226 -2.5539
 5514TIP3    H238102   5.351   0.202   4.594  0.8945  0.4674  0.8397
 5515TIP3   OH238103   3.786   0.734   3.455 -0.5535 -0.0518 -0.4834
 5515TIP3    H138104   3.691   0.724   3.464 -0.5765 -1.9419 -2.3084
 5515TIP3    H238105   3.823   0.662   3.507 -0.0321  1.0171  0.7085
 5516TIP3   OH238106   6.082   4.624   3.832  0.5631  0.1297 -0.2199
 5516TIP3    H138107   6.006   4.581   3.871  1.2821 -0.2040  0.8658
 5516TIP3    H238108   6.149   4.555   3.828  1.0603  0.6202 -0.4146
 5517TIP3   OH238109   1.809   0.050   2.980 -1.0880  0.5933  0.0435
 5517TIP3    H138110   1.796   0.106   2.904 -0.7086 -0.5082 -0.8730
 5517TIP3    H238111   1.819  -0.038   2.943 -0.9123  0.0293  1.3728
 5518TIP3   OH238112   5.734   1.664   2.290 -0.7551 -0.0184  0.0328
 5518TIP3    H138113   5.785   1.711   2.224 -0.9333  1.0801  0.6583
 5518TIP3    H238114   5.730   1.574   2.257  0.3679  0.1901 -0.7345
 5519TIP3   OH238115   5.289   6.317   0.700  0.0282 -0.0688 -0.9254
 5519TIP3    H138116   5.222   6.264   0.744  0.8882 -1.4064 -1.1785
 5519TIP3    H238117   5.315   6.265   0.624  0.7159  0.8536 -1.3424
 5520TIP3   OH238118   3.130   1.044   1.983  0.5607  0.0037 -0.0320
 5520TIP3    H138119   3.189   1.075   1.915 -0.7104  0.0130 -1.1737
 5520TIP3    H238120   3.148   0.951   1.991  2.8416  0.5192  1.8348
 5521TIP3   OH238121   1.323   4.245   2.577 -0.0831 -0.3620 -0.4226
 5521TIP3    H138122   1.235   4.248   2.541  0.3734  2.6438 -1.6196
 5521TIP3    H238123   1.311   4.242   2.672 -1.5534  1.6454 -0.4885
 5522TIP3   OH238124   2.125   3.583   4.304 -0.1548 -0.5288 -0.1468
 5522TIP3    H138125   2.123   3.679   4.300 -1.1759 -0.4159  1.6914
 5522TIP3    H238126   2.214   3.560   4.280 -0.0140  0.8457 -1.0945
 5523TIP3   OH238127   6.229   3.392   3.637  0.4133 -0.6505  0.3651
 5523TIP3    H138128   6.153   3.355   3.592 -0.5085  1.1832  0.3365
 5523TIP3    H238129   6.196   3.472   3.679  2.2227 -0.0355  0.7129
 5524TIP3   OH238130   6.067   1.636   0.660  0.0023 -0.3236  0.4428
 5524TIP3    H138131   6.115   1.641   0.743 -0.1183  2.7115  0.4536
 5524TIP3    H238132   6.006   1.709   0.663 -2.1857 -1.9641 -1.0929
 5525TIP3   OH238133   0.287   1.133   2.273  0.5662 -0.3418 -0.1411
 5525TIP3    H138134   0.352   1.117   2.204 -0.5314 -0.0094 -1.2967
 5525TIP3    H238135   0.323   1.206   2.323  1.2913 -0.4625 -0.4614
 5526TIP3   OH238136   2.540   4.281   2.946  0.1900 -0.3721  0.2482
 5526TIP3    H138137   2.571   4.345   3.010  0.6718 -0.6262  0.2739
 5526TIP3    H238138   2.619   4.251   2.902 -0.2517  0.7297 -1.3661
 5527TIP3   OH238139   2.968   3.960   4.889  0.4689  0.2961 -0.2901
 5527TIP3    H138140   2.905   3.971   4.960 -1.0188 -1.1158 -1.3151
 5527TIP3    H238141   3.010   4.046   4.880  0.3783  0.6304  1.9597
 5528TIP3   OH238142   2.937   5.183   3.737 -0.5512  0.0865 -0.0753
 5528TIP3    H138143   2.902   5.095   3.727 -2.6091  0.8450  0.0778
 5528TIP3    H238144   2.978   5.202   3.653 -1.4653 -0.4527 -0.6608
 5529TIP3   OH238145   3.492   5.814   2.287 -0.3747  0.6228  0.1777
 5529TIP3    H138146   3.561   5.878   2.271 -0.4320  0.2752 -1.7186
 5529TIP3    H238147   3.526   5.732   2.252 -1.3914  0.2402  0.0473
 5530TIP3   OH238148   0.192   1.462   4.043  0.1132 -0.3302  0.1134
 5530TIP3    H138149   0.262   1.510   4.087 -0.0480  0.4407 -0.4501
 5530TIP3    H238150   0.168   1.392   4.104 -1.8139  2.1208  2.3719
 5531TIP3   OH238151   3.089   6.572   4.084  0.2033  0.1533  0.0187
 5531TIP3    H138152   3.148   6.523   4.027 -0.5269  0.1952 -0.7965
 5531TIP3    H238153   3.030   6.618   4.023 -0.3022  0.5588  0.8024
 5532TIP3   OH238154   2.901   1.782   5.006  0.3950  0.1913 -0.4793
 5532TIP3    H138155   2.910   1.688   5.026 -0.3754 -0.4014 -2.6194
 5532TIP3    H238156   2.990   1.813   4.993  0.6180 -0.4059 -0.4033
 5533TIP3   OH238157   3.614   3.443   1.143 -0.0312  0.3519  0.1008
 5533TIP3    H138158   3.698   3.398   1.136 -0.1035  0.4058 -1.9658
 5533TIP3    H238159   3.550   3.376   1.119 -0.4616  0.6393  0.4393
 5534TIP3   OH238160   6.218   3.512   2.695  0.5292 -0.4491 -0.5204
 5534TIP3    H138161   6.261   3.568   2.759 -0.7086  0.4550 -0.4488
 5534TIP3    H238162   6.259   3.535   2.611 -1.1621  1.9210 -0.7879
 5535TIP3   OH238163   5.972   0.572   0.756 -0.7651 -0.0054 -0.4528
 5535TIP3    H138164   6.021   0.534   0.683  0.2020 -1.4486  0.8752
 5535TIP3    H238165   5.965   0.665   0.735 -1.1306 -0.4772 -2.6932
 5536TIP3   OH238166   0.314   1.228   1.418 -0.3314 -0.0386 -0.2500
 5536TIP3    H138167   0.299   1.314   1.457  0.6403 -0.3918  0.9650
 5536TIP3    H238168   0.409   1.226   1.401 -0.1708 -1.2180  0.6417
 5537TIP3   OH238169   6.739   5.192   4.425 -0.5476 -0.4206 -0.2690
 5537TIP3    H138170   6.669   5.234   4.376 -0.7473 -0.6824 -0.2096
 5537TIP3    H238171   6.695   5.150   4.499 -0.2692 -0.1559  0.0544
 5538TIP3   OH238172   1.431   1.752   4.652 -0.1205  0.4819 -0.0654
 5538TIP3    H138173   1.492   1.776   4.722 -0.3859 -0.2854  0.4417
 5538TIP3    H238174   1.450   1.660   4.634  0.6126  0.9147 -1.6985
 5539TIP3   OH238175   5.845   6.083   0.539 -0.2322  0.0603  0.4174
 5539TIP3    H138176   5.908   6.052   0.474  0.5157  0.7906  0.7734
 5539TIP3    H238177   5.761   6.048   0.510 -0.3872  2.4022 -2.3499
 5540TIP3   OH238178   2.740   0.720   0.417  0.1765 -0.3463  0.4071
 5540TIP3    H138179   2.700   0.644   0.459  0.1517 -0.7235 -0.2867
 5540TIP3    H238180   2.770   0.687   0.332  0.1550  0.4259  0.0974
 5541TIP3   OH238181   4.414   0.757   2.942 -0.1609  0.5194 -0.1176
 5541TIP3    H138182   4.463   0.772   3.023  0.1282 -0.3012 -0.1260
 5541TIP3    H238183   4.462   0.686   2.898 -1.9799 -1.1202  0.4044
 5542TIP3   OH238184   3.977   5.923   0.982 -0.2288  0.0819  0.3997
 5542TIP3    H138185   3.979   5.886   0.894 -1.1107  0.3479  0.2674
 5542TIP3    H238186   3.888   5.954   0.994  0.1198  0.8618  1.0598
 5543TIP3   OH238187   0.360   4.539   1.249 -0.1085 -0.2927  0.2821
 5543TIP3    H138188   0.448   4.520   1.283 -0.1737 -0.7946  0.1765
 5543TIP3    H238189   0.331   4.457   1.211 -1.1490 -0.5036  1.4582
 5544TIP3   OH238190   3.670   0.577   1.700  0.3472  0.0967 -0.1747
 5544TIP3    H138191   3.730   0.527   1.645  1.9150  0.2089  1.3650
 5544TIP3    H238192   3.709   0.575   1.787 -1.7044  0.4996  0.8244
 5545TIP3   OH238193   6.252   6.076   1.592  0.0873 -0.1543  0.4114
 5545TIP3    H138194   6.195   6.060   1.517  0.5438  0.1241  0.0071
 5545TIP3    H238195   6.260   6.171   1.597  2.1470 -0.2180 -0.7809
 5546TIP3   OH238196   0.246   5.085   2.102 -0.9929 -0.4760 -0.0031
 5546TIP3    H138197   0.196   5.047   2.175  0.3480  2.8258  2.9477
 5546TIP3    H238198   0.337   5.073   2.127 -0.4913  0.6189 -1.2314
 5547TIP3   OH238199   6.230   0.995   1.397  0.1876  0.0059 -0.2636
 5547TIP3    H138200   6.258   1.059   1.332 -1.1963  0.6415 -0.2704
 5547TIP3    H238201   6.233   0.911   1.352 -1.1138  0.4852 -1.2768
 5548TIP3   OH238202   5.799   1.918   3.870 -0.4333  0.1311 -0.0005
 5548TIP3    H138203   5.719   1.880   3.906 -1.3644  1.7075 -0.3068
 5548TIP3    H238204   5.769   1.979   3.802  1.1258 -0.5576 -1.4058
 5549TIP3   OH238205   3.486   0.901   2.439  0.0410  0.4499 -0.1303
 5549TIP3    H138206   3.529   0.872   2.520  4.8727  0.9474 -2.2188
 5549TIP3    H238207   3.438   0.824   2.409  1.9931 -1.2676  0.9191
 5550TIP3   OH238208   0.915   6.202   4.242  0.1413  0.1532 -0.4816
 5550TIP3    H138209   0.827   6.234   4.223  0.6202  1.4261 -0.6150
 5550TIP3    H238210   0.966   6.281   4.260  1.3960 -0.5192 -0.9716
 5551TIP3   OH238211   4.459   0.732   3.831 -0.0967  0.2863  0.2601
 5551TIP3    H138212   4.364   0.726   3.821  0.1087  0.7495 -3.1807
 5551TIP3    H238213   4.475   0.823   3.854 -0.4500  0.6319 -0.7862
 5552TIP3   OH238214   0.956   4.223   2.930 -0.0707  0.8478  0.0912
 5552TIP3    H138215   0.976   4.304   2.978  1.3297 -0.7918  2.5072
 5552TIP3    H238216   0.861   4.218   2.931 -0.1235  1.3411  2.0000
 5553TIP3   OH238217   2.735   4.434   1.973 -0.3561  0.2215  0.0892
 5553TIP3    H138218   2.662   4.373   1.963 -1.2727  1.2637  0.2418
 5553TIP3    H238219   2.731   4.490   1.896  0.6821 -0.1008 -0.2131
 5554TIP3   OH238220   6.041   1.819   2.689  0.2333 -0.0088  0.1723
 5554TIP3    H138221   6.025   1.911   2.668 -0.2718  0.0307  0.7066
 5554TIP3    H238222   5.968   1.773   2.649  0.4612 -0.1810 -0.0527
 5555TIP3   OH238223   3.877   3.632   1.093  0.1429  0.1517  0.0927
 5555TIP3    H138224   3.878   3.555   1.035 -0.8322  0.9552 -1.0517
 5555TIP3    H238225   3.786   3.662   1.091  0.4328  1.1337  0.7996
 5556TIP3   OH238226   5.974   3.000   3.224  0.4502  0.9290  0.3761
 5556TIP3    H138227   6.009   2.914   3.247 -0.1416  1.0613  1.8994
 5556TIP3    H238228   6.040   3.062   3.256  0.8423  1.0492 -0.6523
 5557TIP3   OH238229   3.264   0.988   2.850 -0.4239 -0.1771 -0.2311
 5557TIP3    H138230   3.293   0.897   2.841  1.5250  0.1585  1.7697
 5557TIP3    H238231   3.192   0.985   2.913 -1.0004 -0.4013 -0.8846
 5558TIP3   OH238232   4.393   1.492   3.042  0.3174  0.1490  0.2199
 5558TIP3    H138233   4.348   1.567   3.080  2.5102  1.6795  0.0475
 5558TIP3    H238234   4.443   1.454   3.114 -1.0220 -1.4325  0.3826
 5559TIP3   OH238235   4.561   0.498   0.707  0.2388 -0.3828 -0.5800
 5559TIP3    H138236   4.472   0.534   0.711  0.2639 -0.3021 -0.7415
 5559TIP3    H238237   4.561   0.441   0.630 -0.4978 -2.6432  0.9846
 5560TIP3   OH238238   2.473   5.273   1.776 -0.0572  0.4680 -0.0096
 5560TIP3    H138239   2.537   5.212   1.739 -0.8179 -0.8074  0.6888
 5560TIP3    H238240   2.457   5.336   1.707  0.0338 -0.7006 -1.1247
 5561TIP3   OH238241   0.224   1.413   2.975 -0.6629  0.9647 -0.3923
 5561TIP3    H138242   0.262   1.339   2.928 -1.0044  0.3324  0.3205
 5561TIP3    H238243   0.192   1.471   2.906 -0.8643  0.2012 -0.9506
 5562TIP3   OH238244   0.336   5.359   2.451 -0.2212  0.0561  0.3234
 5562TIP3    H138245   0.245   5.354   2.422 -1.4148 -1.0875  3.7892
 5562TIP3    H238246   0.337   5.430   2.515  1.0964 -0.5657  1.0419
 5563TIP3   OH238247   0.971   2.519   4.231  0.4549 -0.0110 -0.5015
 5563TIP3    H138248   1.047   2.511   4.289  0.6074  1.7028 -0.4019
 5563TIP3    H238249   0.901   2.472   4.277  0.0953  2.7229  2.0596
 5564TIP3   OH238250   2.896   2.588   1.006  0.3437  0.2341 -0.2281
 5564TIP3    H138251   2.830   2.657   1.002 -1.6378 -1.5233  0.4439
 5564TIP3    H238252   2.920   2.582   1.098  1.4815  0.8360 -0.4605
 5565TIP3   OH238253   4.489   5.632   2.934 -0.6819 -0.3201 -0.2999
 5565TIP3    H138254   4.401   5.633   2.895  0.1620  1.0247 -2.2957
 5565TIP3    H238255   4.494   5.547   2.978 -3.2015 -0.1692  0.4695
 5566TIP3   OH238256   3.582   3.309   1.703 -0.5844  0.2085 -0.3440
 5566TIP3    H138257   3.566   3.298   1.610 -1.0825  0.3975 -0.2868
 5566TIP3    H238258   3.508   3.265   1.745 -2.3163  3.0937 -0.1004
 5567TIP3   OH238259   6.847   3.906   3.102 -0.0184 -0.7852  0.3457
 5567TIP3    H138260   6.780   3.909   3.033 -0.5777 -1.8551  0.8156
 5567TIP3    H238261   6.929   3.927   3.057 -0.2459 -2.2255 -0.8251
 5568TIP3   OH238262   5.181   0.796   3.338  0.1763  0.2749 -0.0353
 5568TIP3    H138263   5.241   0.870   3.338 -0.6895  1.0046 -1.5058
 5568TIP3    H238264   5.120   0.813   3.266 -0.0276 -1.8688 -0.4579
 5569TIP3   OH238265   0.458   2.925   3.372  0.5561 -0.2784 -0.6042
 5569TIP3    H138266   0.518   2.917   3.446  0.3761  0.4141 -0.3868
 5569TIP3    H238267   0.373   2.898   3.407  0.7168 -1.2574 -0.9120
 5570TIP3   OH238268   0.536   3.959   1.857  0.1755  0.3792 -0.2815
 5570TIP3    H138269   0.594   4.027   1.889  0.3965  0.2460 -0.3940
 5570TIP3    H238270   0.592   3.882   1.845 -0.2789 -0.1674  0.9277
 5571TIP3   OH238271   5.922   0.205   2.186  0.1245  0.3086  0.5557
 5571TIP3    H138272   5.902   0.226   2.277 -2.0617 -0.5625  0.3470
 5571TIP3    H238273   6.005   0.158   2.190 -1.2639 -2.2194  2.4970
 5572TIP3   OH238274   0.360   4.021   2.391 -0.0986 -0.6245  0.0531
 5572TIP3    H138275   0.385   4.085   2.324  0.8678 -0.8658  0.1745
 5572TIP3    H238276   0.405   4.050   2.470 -0.3722 -0.9537  0.3322
 5573TIP3   OH238277   5.531   5.868   0.851 -0.1624  0.0154 -0.0620
 5573TIP3    H138278   5.477   5.789   0.856 -0.1331  0.0366  0.7686
 5573TIP3    H238279   5.565   5.868   0.762  1.1072 -1.7586  0.3580
 5574TIP3   OH238280   5.152   5.389   4.569  1.0144  0.3511  0.3003
 5574TIP3    H138281   5.092   5.336   4.621  1.8639 -0.2307  0.7153
 5574TIP3    H238282   5.223   5.411   4.630  1.7384  0.1509 -0.4512
 5575TIP3   OH238283   1.264   4.760   2.874  0.4588  0.4941  0.3048
 5575TIP3    H138284   1.253   4.693   2.807 -0.3281  1.1164 -0.1920
 5575TIP3    H238285   1.267   4.842   2.826 -1.9370  1.1338  1.1114
 5576TIP3   OH238286   3.389   4.632   5.100  0.3735  0.2758 -0.1541
 5576TIP3    H138287   3.416   4.689   5.027  2.9970  1.3491  1.5060
 5576TIP3    H238288   3.471   4.596   5.134 -0.6708  0.2754  2.6258
 5577TIP3   OH238289   0.050   3.530   0.331  0.0089  0.2949 -0.5792
 5577TIP3    H138290   0.024   3.617   0.362  0.3857 -0.0143  0.6287
 5577TIP3    H238291   0.132   3.546   0.283 -0.7438  0.8158 -1.7578
 5578TIP3   OH238292   4.340   3.380   3.018  0.1818 -0.0854  0.8141
 5578TIP3    H138293   4.248   3.373   3.044 -0.1593 -0.9103 -0.5652
 5578TIP3    H238294   4.349   3.470   2.987 -1.5622 -1.2398 -3.8880
 5579TIP3   OH238295   1.251   6.834   0.574  0.1607 -0.2676 -0.1454
 5579TIP3    H138296   1.190   6.908   0.573 -0.5716 -0.7600  2.2530
 5579TIP3    H238297   1.236   6.790   0.490 -1.7052  0.4968 -0.2666
 5580TIP3   OH238298   5.198   3.117   1.359 -0.0310 -0.1936  0.0932
 5580TIP3    H138299   5.138   3.176   1.313 -0.4781  0.3207  1.2812
 5580TIP3    H238300   5.282   3.162   1.357  1.0945 -2.0213 -3.7742
 5581TIP3   OH238301   3.804   0.737   3.913 -1.0522 -0.1910 -0.2009
 5581TIP3    H138302   3.813   0.658   3.965 -2.7353 -0.4399 -0.2315
 5581TIP3    H238303   3.846   0.805   3.965 -0.4197 -0.9190  0.2601
 5582TIP3   OH238304   3.292   5.683   1.537  0.3067  0.4213  0.1586
 5582TIP3    H138305   3.231   5.689   1.464 -0.3657 -0.5317  0.6266
 5582TIP3    H238306   3.277   5.596   1.575  2.7096 -0.3025 -0.3784
 5583TIP3   OH238307   0.896   1.268   4.591 -0.0806  0.1478 -0.6325
 5583TIP3    H138308   0.874   1.186   4.634 -0.2415  1.1563  1.2858
 5583TIP3    H238309   0.973   1.301   4.638  0.0697  1.0324 -1.4591
 5584TIP3   OH238310   1.994   0.480   2.070  0.7104 -0.1396  0.1696
 5584TIP3    H138311   1.948   0.398   2.054  0.2414  0.2555 -0.5751
 5584TIP3    H238312   2.025   0.507   1.984  2.1244 -0.2637  0.6239
 5585TIP3   OH238313   1.385   6.686   0.771 -0.0554  0.2733  0.0473
 5585TIP3    H138314   1.329   6.728   0.706  0.6939  0.4445 -0.4954
 5585TIP3    H238315   1.337   6.608   0.797 -1.5832  1.5484  1.2352
 5586TIP3   OH238316   6.270   4.794   2.959  0.6181  0.0618  0.0746
 5586TIP3    H138317   6.239   4.812   2.870  0.2487 -1.4873 -0.1333
 5586TIP3    H238318   6.272   4.698   2.965  1.2104  0.1404  1.5426
 5587TIP3   OH238319   2.233   6.380   2.101  0.2197  0.2957 -0.2631
 5587TIP3    H138320   2.228   6.296   2.146  0.7803 -0.3836 -1.4194
 5587TIP3    H238321   2.221   6.446   2.170 -2.2781 -0.7200  0.3911
 5588TIP3   OH238322   6.912   3.853   2.139 -0.5390  0.1120  0.1372
 5588TIP3    H138323   6.893   3.940   2.105  0.3218  1.4456  2.7852
 5588TIP3    H238324   7.004   3.838   2.118 -0.2651  0.5300  1.0057
 5589TIP3   OH238325   1.491   1.404   2.767  0.0262 -0.0142 -0.5701
 5589TIP3    H138326   1.480   1.379   2.858 -1.6518 -1.4950 -1.1088
 5589TIP3    H238327   1.488   1.500   2.767 -0.9302 -0.0186  0.8363
 5590TIP3   OH238328   1.216   1.578   4.036 -0.0253  0.4482  0.4214
 5590TIP3    H138329   1.160   1.575   4.113 -0.9579 -1.0917 -0.2626
 5590TIP3    H238330   1.259   1.663   4.040 -1.1499  0.9813  1.8621
 5591TIP3   OH238331   3.973   1.582   0.360  0.0407 -0.0868 -0.0032
 5591TIP3    H138332   3.950   1.673   0.381 -0.8499 -0.6320  1.6374
 5591TIP3    H238333   3.956   1.534   0.442 -0.6843 -1.9366 -1.1748
 5592TIP3   OH238334   1.514   5.303   1.163  0.3630  0.1180 -0.2635
 5592TIP3    H138335   1.596   5.330   1.122  0.0722  0.8983 -0.3472
 5592TIP3    H238336   1.540   5.253   1.240  0.9216  1.0026  0.1328
 5593TIP3   OH238337   3.982   6.297   3.667  0.2500  0.3675 -0.3628
 5593TIP3    H138338   4.032   6.378   3.675  2.0220 -0.7852  1.3571
 5593TIP3    H238339   3.905   6.311   3.723  1.5288  0.2466  1.5301
 5594TIP3   OH238340   4.089   1.505   3.773 -0.1645 -0.0372 -0.3179
 5594TIP3    H138341   4.132   1.435   3.821 -1.3260 -0.0940  0.6764
 5594TIP3    H238342   4.059   1.566   3.840 -1.6289 -0.0081 -0.9500
 5595TIP3   OH238343   1.936   4.821   2.386  0.3738  0.4538 -0.3423
 5595TIP3    H138344   1.882   4.888   2.345 -1.3108 -0.9544 -0.5265
 5595TIP3    H238345   2.015   4.818   2.333  0.2063  1.8143 -0.7169
 5596TIP3   OH238346   1.269   2.343   0.852  0.1863 -0.6151  0.2827
 5596TIP3    H138347   1.263   2.434   0.881  0.1995 -0.6673  0.4531
 5596TIP3    H238348   1.222   2.341   0.769  1.4242 -0.1511 -0.4542
 5597TIP3   OH238349   3.412   0.935   3.843  0.4669  0.5385  0.2663
 5597TIP3    H138350   3.404   0.907   3.934  0.0466  0.7667  0.3059
 5597TIP3    H238351   3.485   0.884   3.808  1.7300  1.6589  1.1854
 5598TIP3   OH238352   3.497   2.822   2.350 -0.0413 -0.3082 -0.1415
 5598TIP3    H138353   3.572   2.802   2.405 -0.6764  0.3282  0.9874
 5598TIP3    H238354   3.517   2.779   2.266  2.3112  1.1656 -0.4351
 5599TIP3   OH238355   3.260   4.008   2.712  0.4570 -0.0972 -0.4148
 5599TIP3    H138356   3.253   3.938   2.647 -0.8791  0.0478 -0.4556
 5599TIP3    H238357   3.226   4.086   2.667  0.4429  0.2234  0.1419
 5600TIP3   OH238358   1.113   0.861   8.366  0.3046 -0.2428 -0.0673
 5600TIP3    H138359   1.199   0.857   8.325 -0.3935 -1.3287 -1.5181
 5600TIP3    H238360   1.074   0.942   8.334  1.4192  1.2050  2.0277
 5601TIP3   OH238361   5.420   1.240   1.464  0.3434 -0.4336  0.8423
 5601TIP3    H138362   5.396   1.333   1.459  2.9705  0.3181  1.0678
 5601TIP3    H238363   5.440   1.216   1.373 -1.7729 -1.2635  0.5394
 5602TIP3   OH238364   0.824   2.279   1.603  0.1432  0.1131  0.6373
 5602TIP3    H138365   0.747   2.334   1.620 -0.3321  0.0053 -0.9981
 5602TIP3    H238366   0.873   2.327   1.536 -0.4843 -1.5900 -1.1326
 5603TIP3   OH238367   4.170   2.760   3.326  0.3186 -0.1420  0.2263
 5603TIP3    H138368   4.199   2.672   3.302  0.9830 -0.0420  0.6347
 5603TIP3    H238369   4.161   2.756   3.421  1.2359  0.4744  0.3541
 5604TIP3   OH238370   1.454   5.451   2.284 -0.0001  0.1081  0.3027
 5604TIP3    H138371   1.406   5.377   2.322 -0.6290 -0.8390 -2.1280
 5604TIP3    H238372   1.386   5.511   2.253  0.4589  2.8372  3.9619
 5605TIP3   OH238373   2.830   0.591   2.082 -0.4430 -0.0896  0.3329
 5605TIP3    H138374   2.774   0.669   2.080 -0.7248 -0.2720  1.0490
 5605TIP3    H238375   2.779   0.525   2.128 -0.1937 -0.7056 -0.2522
 5606TIP3   OH238376   0.994   5.016   4.581 -0.5851 -0.1138  0.3043
 5606TIP3    H138377   0.901   4.997   4.592 -0.0450 -3.2928  0.1293
 5606TIP3    H238378   1.028   4.942   4.531  1.6562  2.0867 -1.7138
 5607TIP3   OH238379   0.441   3.518   4.156  0.9135 -0.1955 -0.6069
 5607TIP3    H138380   0.516   3.534   4.099  2.4560 -1.5580  0.8989
 5607TIP3    H238381   0.469   3.550   4.242 -0.1282 -0.9633  0.0422
 5608TIP3   OH238382   0.174   5.946   2.677  0.3582 -0.3648  0.0926
 5608TIP3    H138383   0.097   5.892   2.661 -0.3905  0.2828  1.3041
 5608TIP3    H238384   0.209   5.914   2.760 -1.4328  2.3513  2.0863
 5609TIP3   OH238385   6.198   0.436   2.352  0.2472  0.2663 -0.9479
 5609TIP3    H138386   6.132   0.492   2.311 -2.3997 -1.0231  1.2914
 5609TIP3    H238387   6.150   0.358   2.380  2.1160  0.2873  2.9872
 5610TIP3   OH238388   2.418   4.675   2.781  0.5079  0.1510 -0.1398
 5610TIP3    H138389   2.381   4.759   2.806  0.6967 -0.6204  3.3091
 5610TIP3    H238390   2.511   4.681   2.805  0.9330 -0.4702 -1.5175
 5611TIP3   OH238391   3.106   3.968   3.618  0.2588  0.3856 -0.4321
 5611TIP3    H138392   3.109   3.954   3.524  0.8120  0.7219 -0.4694
 5611TIP3    H238393   3.100   4.063   3.628  2.4568  0.5479 -0.1158
 5612TIP3   OH238394   4.315   5.447   3.302  0.3279 -0.1382 -0.4425
 5612TIP3    H138395   4.388   5.484   3.253  1.0735 -0.8944  0.0736
 5612TIP3    H238396   4.260   5.406   3.236  0.8092 -0.2966 -0.7483
 5613TIP3   OH238397   5.532   4.825   1.169  0.1553  0.4399 -0.7794
 5613TIP3    H138398   5.468   4.831   1.240  1.7501  1.8004  0.6234
 5613TIP3    H238399   5.593   4.756   1.197  0.6696  0.8274 -0.9338
 5614TIP3   OH238400   2.784   0.495   0.737  0.2282  0.0075  0.0154
 5614TIP3    H138401   2.713   0.468   0.680 -0.2646 -1.6619  1.3285
 5614TIP3    H238402   2.863   0.463   0.694  0.0001  0.0246 -0.4212
 5615TIP3   OH238403   0.794   2.421   3.745  0.1683 -0.2370  0.4445
 5615TIP3    H138404   0.869   2.379   3.705  0.7437  0.9520  0.2361
 5615TIP3    H238405   0.825   2.508   3.769 -1.0485  0.1583  0.6525
 5616TIP3   OH238406   4.241   0.371   1.442 -0.4787 -0.0432 -0.4451
 5616TIP3    H138407   4.336   0.370   1.433 -0.5032  0.6851 -0.9422
 5616TIP3    H238408   4.221   0.459   1.475 -0.7713 -1.1197  2.5522
 5617TIP3   OH238409   5.011   2.431   2.656 -0.5701  0.9002  0.3296
 5617TIP3    H138410   4.998   2.454   2.748 -2.1401 -1.0643  0.6865
 5617TIP3    H238411   4.958   2.494   2.608 -1.6347  0.5101  0.9620
 5618TIP3   OH238412   0.372   0.674   3.864 -0.2710 -0.3409 -0.7048
 5618TIP3    H138413   0.385   0.607   3.931  0.1504  0.2124 -0.2151
 5618TIP3    H238414   0.432   0.651   3.794  0.2982 -0.1586 -0.2835
 5619TIP3   OH238415   4.494   4.083   1.520 -0.1383  0.6662  0.4707
 5619TIP3    H138416   4.485   4.090   1.425 -1.4798 -0.6628  0.4580
 5619TIP3    H238417   4.407   4.059   1.551  0.0069  2.1398  2.1889
 5620TIP3   OH238418   3.760   1.663   3.963  0.5278 -0.2944  0.6307
 5620TIP3    H138419   3.800   1.612   4.033  1.9885  1.2452  0.9593
 5620TIP3    H238420   3.721   1.597   3.905  0.3268 -1.6462  2.2342
 5621TIP3   OH238421   6.545   1.011   2.579  0.5327  0.3971  0.3279
 5621TIP3    H138422   6.613   1.048   2.634  0.1006 -1.2629  2.0966
 5621TIP3    H238423   6.569   0.918   2.569 -0.3167  0.2759 -0.8645
 5622TIP3   OH238424   5.276   2.625   1.126 -0.6720  0.0623 -0.1136
 5622TIP3    H138425   5.283   2.596   1.035 -2.5003 -2.4695  0.4200
 5622TIP3    H238426   5.210   2.694   1.125 -0.7609 -0.0257 -0.6882
 5623TIP3   OH238427   1.356   0.515   3.846 -0.5834  0.1299  0.3594
 5623TIP3    H138428   1.409   0.578   3.797 -1.9667  0.9157 -0.1453
 5623TIP3    H238429   1.408   0.435   3.844  0.6215  0.8916 -0.0708
 5624TIP3   OH238430   4.878   0.565   0.827  0.0501  0.2423  0.0752
 5624TIP3    H138431   4.886   0.516   0.909 -4.6368  0.2490  0.8068
 5624TIP3    H238432   4.902   0.655   0.851  1.5748 -0.2746  0.6044
 5625TIP3   OH238433   6.066   3.779   0.858 -0.3676 -0.3672 -0.4224
 5625TIP3    H138434   6.110   3.816   0.781  2.3688 -3.1229 -0.3769
 5625TIP3    H238435   6.125   3.800   0.931 -1.1815 -0.7107  0.3510
 5626TIP3   OH238436   6.778   4.877   3.427 -0.5069  0.3322 -0.0311
 5626TIP3    H138437   6.832   4.941   3.473 -0.2525 -0.2450  0.4888
 5626TIP3    H238438   6.728   4.833   3.496  1.6800 -2.2660  0.0799
 5627TIP3   OH238439   3.609   2.234   2.551 -0.3824 -0.3798 -0.3479
 5627TIP3    H138440   3.590   2.217   2.644  0.1735  3.6869  0.7163
 5627TIP3    H238441   3.523   2.251   2.513 -0.3983  1.9182  0.5245
 5628TIP3   OH238442   4.749   0.195   0.351 -0.4684 -0.0329 -0.0956
 5628TIP3    H138443   4.720   0.207   0.261 -0.1414  0.4146 -0.1423
 5628TIP3    H238444   4.801   0.115   0.350  1.0402  0.9260 -0.6678
 5629TIP3   OH238445   1.943   6.751   1.637  0.0066  0.1719 -0.1159
 5629TIP3    H138446   1.975   6.762   1.547 -1.6546 -2.7107 -1.2013
 5629TIP3    H238447   1.879   6.820   1.648  0.3932  0.7004 -1.0630
 5630TIP3   OH238448   0.392   2.349   3.309 -0.4927  0.1939  0.2663
 5630TIP3    H138449   0.451   2.282   3.276  0.8171  1.5305 -0.2372
 5630TIP3    H238450   0.319   2.351   3.247 -0.4403 -0.6050  0.1754
 5631TIP3   OH238451   2.395   3.268   3.587  0.1102  0.4744  0.2077
 5631TIP3    H138452   2.486   3.277   3.559 -0.1662  1.3758 -0.4317
 5631TIP3    H238453   2.364   3.358   3.600 -0.3635  0.1489  1.5230
 5632TIP3   OH238454   0.662   0.142   3.830  0.0029  0.4151 -0.4068
 5632TIP3    H138455   0.736   0.135   3.890  1.4103 -3.3995 -2.2990
 5632TIP3    H238456   0.585   0.145   3.888  1.3784 -0.7986  1.6275
 5633TIP3   OH238457   5.990   5.319   3.263 -0.1248 -0.3048  0.0182
 5633TIP3    H138458   6.032   5.397   3.299 -1.1119  0.1494  0.2322
 5633TIP3    H238459   5.965   5.268   3.340 -0.6385 -0.1947 -0.0684
 5634TIP3   OH238460   4.451   2.837   0.336 -0.3446  0.2713 -0.2613
 5634TIP3    H138461   4.532   2.806   0.295 -1.0632 -0.6997 -0.9815
 5634TIP3    H238462   4.396   2.759   0.343 -0.4366  0.4737  2.1863
 5635TIP3   OH238463   0.908   2.107   3.215  0.3268  0.1914  0.6651
 5635TIP3    H138464   0.970   2.180   3.208 -1.3305  1.7206  1.0237
 5635TIP3    H238465   0.946   2.038   3.161  1.0037  2.0353 -1.3890
 5636TIP3   OH238466   1.300   4.507   2.393  0.2457  0.0647  0.0022
 5636TIP3    H138467   1.308   4.411   2.394 -2.3889 -0.2330  1.4262
 5636TIP3    H238468   1.307   4.532   2.485  0.4925  1.2233 -0.3207
 5637TIP3   OH238469   0.451   2.994   4.615  0.1217 -0.3146  0.3285
 5637TIP3    H138470   0.511   2.933   4.659 -0.9363 -0.2846  1.9148
 5637TIP3    H238471   0.504   3.072   4.599  1.1024 -1.1017 -0.3979
 5638TIP3   OH238472   3.998   1.722   3.039 -0.2157  0.1654  0.1401
 5638TIP3    H138473   4.088   1.742   3.012  0.0203  0.0587  0.8242
 5638TIP3    H238474   3.948   1.722   2.957  0.7159 -1.4899 -0.4816
 5639TIP3   OH238475   3.209   6.699   0.402 -0.3049  0.0050 -0.4221
 5639TIP3    H138476   3.228   6.762   0.332  2.2223 -0.8245 -0.5602
 5639TIP3    H238477   3.289   6.695   0.454 -1.1628 -1.5001  0.8733
 5640TIP3   OH238478   4.778   1.423   3.479 -0.1632 -0.1399 -0.1101
 5640TIP3    H138479   4.839   1.468   3.537 -0.1851 -0.5539  0.2429
 5640TIP3    H238480   4.830   1.351   3.442 -0.4902 -0.6136  0.3474
 5641TIP3   OH238481   5.522   0.283   4.273 -0.4261 -0.2065 -0.2545
 5641TIP3    H138482   5.603   0.233   4.281 -1.2675 -1.4000  1.3901
 5641TIP3    H238483   5.497   0.303   4.363 -2.2213 -0.3094 -0.6880
 5642TIP3   OH238484   5.675   2.002   2.525  0.2629  0.0994 -0.3095
 5642TIP3    H138485   5.621   1.927   2.498  0.8505 -0.1337 -0.8704
 5642TIP3    H238486   5.624   2.079   2.499 -1.4595 -0.0191  2.4199
 5643TIP3   OH238487   0.814   3.680   2.526  1.0016  0.1102 -0.4646
 5643TIP3    H138488   0.825   3.774   2.541  0.1391  0.1244  0.1670
 5643TIP3    H238489   0.880   3.639   2.582  1.1019  0.3228 -0.4264
 5644TIP3   OH238490   2.461   0.576   1.323  0.0979 -0.0713  0.3544
 5644TIP3    H138491   2.444   0.494   1.371 -1.5754  0.9373  1.5963
 5644TIP3    H238492   2.467   0.643   1.392 -0.1943  1.0982 -0.7302
 5645TIP3   OH238493   1.239   0.809   1.051  0.0943 -0.3355 -0.2340
 5645TIP3    H138494   1.211   0.719   1.035 -0.6798 -0.2473  0.5514
 5645TIP3    H238495   1.220   0.855   0.969 -0.0820 -0.7527 -0.4294
 5646TIP3   OH238496   0.263   3.410   2.878 -0.1656  0.2507  0.1093
 5646TIP3    H138497   0.324   3.340   2.901 -0.0432 -0.1617 -1.3775
 5646TIP3    H238498   0.261   3.409   2.783 -0.7293  1.8033  0.0893
 5647TIP3   OH238499   3.158   3.595   2.020 -0.1387  0.2158  0.4764
 5647TIP3    H138500   3.234   3.606   2.078 -0.2630 -0.0099  0.6860
 5647TIP3    H238501   3.136   3.684   1.993  0.5933  0.2350 -0.0986
 5648TIP3   OH238502   0.666   3.819   2.289 -0.6122  0.2362  0.3474
 5648TIP3    H138503   0.695   3.863   2.370  0.1610 -0.3702  0.4144
 5648TIP3    H238504   0.652   3.728   2.315 -0.7526  0.1237 -0.1189
 5649TIP3   OH238505   0.958   3.845   4.496 -0.4341  0.6721  0.9416
 5649TIP3    H138506   0.863   3.844   4.503 -0.4062  0.7082  1.3442
 5649TIP3    H238507   0.978   3.929   4.454 -0.5632  0.8024  1.1360
 5650TIP3   OH238508   0.057   5.505   3.773 -0.1075 -0.1753  0.3127
 5650TIP3    H138509  -0.010   5.570   3.790 -1.8259 -2.2395  2.1971
 5650TIP3    H238510   0.016   5.442   3.714  0.2603 -1.2592  1.1666
 5651TIP3   OH238511   3.851   2.797   0.977  0.4073 -0.2946  0.3960
 5651TIP3    H138512   3.867   2.827   0.887 -2.3468 -0.7463 -0.3337
 5651TIP3    H238513   3.811   2.710   0.966 -1.3252  0.2363  1.9514
 5652TIP3   OH238514   1.692   6.321   3.682 -0.3051 -0.6053 -0.8868
 5652TIP3    H138515   1.740   6.403   3.671 -1.6184  0.3048 -0.0748
 5652TIP3    H238516   1.750   6.265   3.734 -0.2416  0.5991  0.3849
 5653TIP3   OH238517   0.274   1.540   8.473  0.2410  0.2472 -0.0599
 5653TIP3    H138518   0.221   1.590   8.536  0.9124 -0.1151  0.8222
 5653TIP3    H238519   0.213   1.478   8.434 -0.5184  1.4400 -0.8634
 5654TIP3   OH238520   4.651   1.456   1.081  0.6937  0.3501 -0.5763
 5654TIP3    H138521   4.705   1.494   1.011  0.4074  0.3258 -0.8153
 5654TIP3    H238522   4.591   1.397   1.035  1.9682 -1.3721 -0.0807
 5655TIP3   OH238523   2.264   2.414   1.706  0.1054 -0.4875  0.2149
 5655TIP3    H138524   2.342   2.402   1.651 -0.5438  0.4399 -0.9815
 5655TIP3    H238525   2.298   2.449   1.788  1.0192 -0.8670  0.0130
 5656TIP3   OH238526   2.198   2.915   2.994 -0.3810 -0.3764 -0.3017
 5656TIP3    H138527   2.211   2.849   3.063 -0.1467 -1.3385 -1.2281
 5656TIP3    H238528   2.276   2.970   2.998  0.0687 -0.9904 -0.3802
 5657TIP3   OH238529   6.193   6.584   3.423  0.1144 -0.0830  0.3164
 5657TIP3    H138530   6.172   6.631   3.503  1.3845 -0.6406  1.0079
 5657TIP3    H238531   6.108   6.559   3.386 -0.6036  2.5141  0.0146
 5658TIP3   OH238532   5.106   5.530   0.383 -0.2290 -0.0171  0.4385
 5658TIP3    H138533   5.102   5.465   0.454 -0.3149 -0.9141 -0.3786
 5658TIP3    H238534   5.198   5.555   0.379 -0.1980 -0.0641  0.7683
 5659TIP3   OH238535   3.672   2.550   0.877  0.4680 -0.1013 -0.3417
 5659TIP3    H138536   3.687   2.456   0.868 -0.3022 -0.1664 -1.2075
 5659TIP3    H238537   3.603   2.558   0.943 -0.9089 -0.3164 -1.6755
 5660TIP3   OH238538   5.342   1.956   2.340 -0.7068  0.2602  0.0289
 5660TIP3    H138539   5.358   2.050   2.343  1.9914 -0.0953 -0.3909
 5660TIP3    H238540   5.399   1.925   2.269 -1.4219 -1.7111  0.2680
 5661TIP3   OH238541   3.449   4.324   3.718  0.5721 -0.1030  0.2514
 5661TIP3    H138542   3.501   4.335   3.797  2.2196  0.5113 -0.8615
 5661TIP3    H238543   3.487   4.248   3.674 -0.7033 -0.8124  0.3016
 5662TIP3   OH238544   3.746   5.707   2.070 -0.7118 -0.2750 -0.4357
 5662TIP3    H138545   3.731   5.799   2.046 -0.0654 -0.7584 -3.0014
 5662TIP3    H238546   3.839   5.704   2.093 -0.4550 -0.4589 -1.4453
 5663TIP3   OH238547   6.063   3.498   0.922 -0.1355  0.1912 -0.4760
 5663TIP3    H138548   6.038   3.588   0.900 -0.6150  0.5768  1.4521
 5663TIP3    H238549   5.999   3.471   0.987  1.8456 -0.3950  1.3414
 5664TIP3   OH238550   2.265   6.643   1.057  0.1276  0.0833  0.1542
 5664TIP3    H138551   2.355   6.674   1.046  0.6240 -1.1541  0.5493
 5664TIP3    H238552   2.249   6.590   0.979 -0.1439  0.0191  0.2542
 5665TIP3   OH238553   2.555   2.617   1.744 -0.0255  0.1880  0.3263
 5665TIP3    H138554   2.648   2.632   1.758  0.0191 -0.1527  0.3945
 5665TIP3    H238555   2.532   2.546   1.805 -0.6228  1.1719  1.2818
 5666TIP3   OH238556   5.989   2.056   3.980 -0.2968 -0.7392  0.3816
 5666TIP3    H138557   5.940   1.990   3.931 -1.0811 -1.6513  2.2719
 5666TIP3    H238558   5.939   2.066   4.062  0.2543  1.6146  0.4850
 5667TIP3   OH238559   3.654   6.806   2.824 -0.1775  0.7292  0.5578
 5667TIP3    H138560   3.715   6.732   2.830 -0.1427  0.4531 -2.0845
 5667TIP3    H238561   3.577   6.777   2.873  0.4969 -0.3339  1.0364
 5668TIP3   OH238562   4.711   1.371   0.827  0.1142  0.0916  0.3245
 5668TIP3    H138563   4.723   1.450   0.774  1.4210  0.6317  1.3592
 5668TIP3    H238564   4.711   1.299   0.763  2.0531  0.6853 -0.4122
 5669TIP3   OH238565   6.363   0.668   5.035 -0.3136  0.4891 -0.3941
 5669TIP3    H138566   6.357   0.762   5.018 -0.7202  0.9945  2.0861
 5669TIP3    H238567   6.455   0.646   5.021 -0.0609  1.4332 -0.2595
 5670TIP3   OH238568   0.769   5.634   2.701 -0.3964 -0.0001  0.7459
 5670TIP3    H138569   0.675   5.631   2.683 -0.1828 -0.0049 -0.4369
 5670TIP3    H238570   0.806   5.683   2.628  0.6873 -1.1681  0.4715
 5671TIP3   OH238571   3.348   2.382   0.749 -0.0348  0.1718  0.2257
 5671TIP3    H138572   3.415   2.338   0.800 -0.6870 -1.0317  0.0898
 5671TIP3    H238573   3.326   2.320   0.679  0.5075  1.5833 -1.2585
 5672TIP3   OH238574   2.327   0.028   4.500 -0.3963  0.4683 -0.2734
 5672TIP3    H138575   2.344   0.030   4.406 -0.5813  0.8389 -0.2970
 5672TIP3    H238576   2.300  -0.063   4.517 -0.0822  0.3243 -0.5269
 5673TIP3   OH238577   3.278   1.593   3.153 -0.4073 -0.0913 -0.2991
 5673TIP3    H138578   3.247   1.519   3.205  1.1990 -0.5531  0.0630
 5673TIP3    H238579   3.368   1.606   3.182 -0.0370  0.7640 -1.7303
 5674TIP3   OH238580   1.312   3.087   3.963  0.1791 -0.4132 -0.1515
 5674TIP3    H138581   1.347   3.171   3.991  1.4578 -0.9331 -0.1133
 5674TIP3    H238582   1.386   3.042   3.923 -0.6550 -1.2481 -0.8135
 5675TIP3   OH238583   0.086   4.317   2.243 -0.2153  0.7737  0.5148
 5675TIP3    H138584   0.054   4.393   2.194 -0.6231  1.2927  1.5449
 5675TIP3    H238585   0.175   4.303   2.210 -0.0691  1.8221  0.4379
 5676TIP3   OH238586   5.608   5.958   1.692  0.6992 -0.0639  0.5109
 5676TIP3    H138587   5.563   6.036   1.725  0.5828  0.4012 -0.7060
 5676TIP3    H238588   5.568   5.885   1.741 -0.9862  0.3912 -0.1207
 5677TIP3   OH238589   4.578   6.886   1.925 -0.2963  0.0565 -0.5104
 5677TIP3    H138590   4.596   6.897   1.831 -1.1868  0.5326 -0.6328
 5677TIP3    H238591   4.579   6.976   1.959  0.5661 -0.1519  0.0507
 5678TIP3   OH238592   0.163   6.373   0.896 -0.5817  0.6155  0.1689
 5678TIP3    H138593   0.190   6.404   0.809 -0.3196 -1.5978 -0.5924
 5678TIP3    H238594   0.080   6.327   0.880  1.2763 -3.1003  0.3233
 5679TIP3   OH238595   1.032   1.810   2.332  0.8497 -0.6213 -0.5440
 5679TIP3    H138596   1.064   1.839   2.417 -1.7825 -1.3399  0.7863
 5679TIP3    H238597   1.017   1.892   2.283 -0.5751  0.0117  0.8708
 5680TIP3   OH238598   6.361   1.891   1.968  0.0219 -0.4586  0.0399
 5680TIP3    H138599   6.449   1.873   2.003  0.3655 -0.1908 -0.6622
 5680TIP3    H238600   6.319   1.805   1.964  0.3921 -0.6437  0.0167
 5681TIP3   OH238601   3.671   5.773   3.481  0.2048 -0.3833 -0.0883
 5681TIP3    H138602   3.758   5.748   3.515 -0.0644  0.6694  1.5011
 5681TIP3    H238603   3.614   5.769   3.557 -0.7585  0.6967 -0.7183
 5682TIP3   OH238604   1.239   2.953   2.972 -0.4071  0.2507  0.1098
 5682TIP3    H138605   1.270   3.039   2.942 -0.5051  0.2032 -0.1290
 5682TIP3    H238606   1.283   2.940   3.056 -1.0707  0.9332  0.5781
 5683TIP3   OH238607   2.649   5.307   1.296  0.7127  0.1481  0.0635
 5683TIP3    H138608   2.646   5.368   1.222 -0.1924  0.2456  0.1673
 5683TIP3    H238609   2.726   5.253   1.279  0.8188  0.5111 -0.6764
 5684TIP3   OH238610   4.723   2.281   4.432 -0.2673  0.1616  0.2488
 5684TIP3    H138611   4.688   2.204   4.478 -0.8883  0.4143  0.2073
 5684TIP3    H238612   4.813   2.288   4.463  0.6034 -1.9712 -1.4770
 5685TIP3   OH238613   5.219   5.902   3.474 -0.3859 -0.2399  0.1732
 5685TIP3    H138614   5.277   5.961   3.426  0.4164 -0.2808  1.0670
 5685TIP3    H238615   5.178   5.848   3.406  0.4623 -0.0646 -0.4925
 5686TIP3   OH238616   5.915   0.008   1.355  0.6383  0.0133  0.1385
 5686TIP3    H138617   5.987   0.056   1.395  0.7929 -0.5997  0.6130
 5686TIP3    H238618   5.901  -0.067   1.413 -0.3391  0.0852  0.0201
 5687TIP3   OH238619   4.237   0.703   2.659  0.4184  0.0235  0.1981
 5687TIP3    H138620   4.151   0.718   2.696 -1.3552 -1.6284 -2.8663
 5687TIP3    H238621   4.221   0.658   2.576  4.3114 -1.8432  0.2036
 5688TIP3   OH238622   4.519   0.432   1.423 -0.2820  0.5047 -0.2688
 5688TIP3    H138623   4.540   0.503   1.362  0.2525  0.1779 -0.4682
 5688TIP3    H238624   4.603   0.387   1.437 -0.5044  0.2547  0.2937
 5689TIP3   OH238625   4.631   5.386   3.526  0.0109 -0.2781 -0.2106
 5689TIP3    H138626   4.721   5.353   3.517 -0.0016 -0.3079 -0.2298
 5689TIP3    H238627   4.637   5.477   3.498 -0.0945 -0.4646 -0.8666
 5690TIP3   OH238628   1.017   3.138   4.531 -0.1515 -0.7391  0.0616
 5690TIP3    H138629   1.007   3.051   4.571  1.7488 -0.9445  0.2019
 5690TIP3    H238630   1.043   3.195   4.603  0.2784 -0.4466 -0.3140
 5691TIP3   OH238631   6.363   2.200   2.716  0.3475  0.1041 -0.2980
 5691TIP3    H138632   6.336   2.288   2.741  1.5013  0.4644 -0.2339
 5691TIP3    H238633   6.437   2.213   2.657  1.2412 -0.8148  0.5560
 5692TIP3   OH238634   3.334   0.204   1.576  0.0405  0.3743  0.0419
 5692TIP3    H138635   3.383   0.262   1.634 -2.0595  1.9126  0.3808
 5692TIP3    H238636   3.340   0.118   1.617  0.6552  0.9449  1.1789
 5693TIP3   OH238637   1.311   3.588   2.707  0.3946  0.0671  0.1618
 5693TIP3    H138638   1.272   3.656   2.761  1.6147  1.1137 -0.2253
 5693TIP3    H238639   1.405   3.594   2.725  1.2750  2.3593 -3.9991
 5694TIP3   OH238640   5.224   5.502   3.707 -0.0841 -0.3786 -0.6802
 5694TIP3    H138641   5.186   5.535   3.788  0.8430 -2.2312  0.5676
 5694TIP3    H238642   5.305   5.551   3.696 -0.7509  0.6579 -1.1167
 5695TIP3   OH238643   0.054   4.709   1.427  0.3308 -0.4996 -0.3045
 5695TIP3    H138644  -0.036   4.729   1.402 -0.7253 -1.5712  2.2798
 5695TIP3    H238645   0.075   4.629   1.379 -0.8804 -1.3894  0.5764
 5696TIP3   OH238646   6.071   3.207   1.088  0.2956 -0.1272 -0.4188
 5696TIP3    H138647   6.013   3.132   1.075 -0.1299  0.1783 -0.2997
 5696TIP3    H238648   6.129   3.206   1.012  1.2094 -1.3875  0.2603
 5697TIP3   OH238649   4.938   3.285   3.755 -0.2588  1.2361  0.4268
 5697TIP3    H138650   4.929   3.215   3.820 -0.3859 -1.6805 -2.4428
 5697TIP3    H238651   4.857   3.280   3.705  1.4724  0.3634 -2.5231
 5698TIP3   OH238652   1.476   4.215   1.510  0.1621 -0.0649 -0.4880
 5698TIP3    H138653   1.496   4.123   1.528  0.8564 -0.0290 -1.0421
 5698TIP3    H238654   1.414   4.212   1.437 -1.9808 -0.1772  1.2305
 5699TIP3   OH238655   6.430   2.329   3.431 -0.2209  0.1701 -0.3541
 5699TIP3    H138656   6.343   2.350   3.397 -0.4317 -0.1544 -0.0353
 5699TIP3    H238657   6.422   2.342   3.526 -0.3353 -1.1724 -0.1490
 5700TIP3   OH238658   1.681   4.932   4.238 -0.1419 -0.7051  0.0884
 5700TIP3    H138659   1.616   5.003   4.242 -0.9766 -1.5100  2.0806
 5700TIP3    H238660   1.641   4.867   4.180 -0.9717 -1.0010  0.9548
 5701TIP3   OH238661   5.858   4.419   3.764  0.6654 -0.1255 -1.2269
 5701TIP3    H138662   5.767   4.441   3.783  1.2223  0.5223  0.9986
 5701TIP3    H238663   5.864   4.325   3.779  0.6759  0.0822  0.2055
 5702TIP3   OH238664   6.592   4.381   1.918  0.0180 -0.1781  0.0255
 5702TIP3    H138665   6.525   4.415   1.978  0.4688  2.2216 -0.7043
 5702TIP3    H238666   6.543   4.358   1.838 -0.1007  0.5487 -0.1226
 5703TIP3   OH238667   0.160   2.549   4.573 -0.0470 -0.3751 -0.1145
 5703TIP3    H138668   0.190   2.515   4.657  1.6668  0.7364 -0.2244
 5703TIP3    H238669   0.103   2.623   4.597 -0.7685 -0.9807  0.0706
 5704TIP3   OH238670   0.328   1.966   0.970 -0.1649  0.4991 -0.1494
 5704TIP3    H138671   0.282   2.047   0.990  0.1118  0.8764 -0.9959
 5704TIP3    H238672   0.420   1.991   0.966  0.2373 -0.3467  2.0789
 5705TIP3   OH238673   2.703   2.314   1.229 -0.2133 -0.2930  0.4960
 5705TIP3    H138674   2.615   2.331   1.194  0.4565 -1.6002 -2.1024
 5705TIP3    H238675   2.693   2.324   1.323 -3.2144 -0.5740  0.3346
 5706TIP3   OH238676   0.477   0.957   2.719 -0.8093  0.2391  0.0887
 5706TIP3    H138677   0.433   0.965   2.803 -1.4495  1.0061 -0.3018
 5706TIP3    H238678   0.513   1.044   2.702 -1.0648  0.2131 -0.6285
 5707TIP3   OH238679   3.176   2.243   1.588  0.1773 -0.0356 -0.4871
 5707TIP3    H138680   3.127   2.160   1.593  0.4247 -0.2656 -1.7110
 5707TIP3    H238681   3.234   2.240   1.664 -0.3692 -0.6301 -0.0789
 5708TIP3   OH238682   3.584   4.666   0.193 -0.0580 -0.3171  0.2789
 5708TIP3    H138683   3.653   4.723   0.160  0.6567 -0.6485  1.1488
 5708TIP3    H238684   3.507   4.722   0.198 -0.0125 -0.0824 -1.2294
 5709TIP3   OH238685   5.509   1.389   0.687 -0.6759 -0.3770  0.4750
 5709TIP3    H138686   5.481   1.463   0.633 -1.6976  0.3732  1.9607
 5709TIP3    H238687   5.428   1.339   0.701 -0.7633  0.2554  2.4889
 5710TIP3   OH238688   2.132   3.111   2.648  0.4140  0.1955  0.4699
 5710TIP3    H138689   2.224   3.090   2.665  0.6357  1.6911  1.2360
 5710TIP3    H238690   2.083   3.046   2.698  1.0607 -0.0241  0.8277
 5711TIP3   OH238691   3.981   5.293   3.545  0.3480  0.3360  0.6607
 5711TIP3    H138692   4.035   5.371   3.555  0.8580 -0.1201  1.5393
 5711TIP3    H238693   3.977   5.279   3.450  1.2610  0.7370  0.5486
 5712TIP3   OH238694   6.830   1.175   2.498 -0.5333  0.1668  0.2766
 5712TIP3    H138695   6.819   1.107   2.565  0.1846  0.0213  0.2507
 5712TIP3    H238696   6.904   1.227   2.528 -0.5207  0.4017 -0.1546
 5713TIP3   OH238697   3.446   0.068   3.778 -0.1552  0.5391  0.0125
 5713TIP3    H138698   3.537   0.078   3.751 -0.7406  0.4531 -2.1453
 5713TIP3    H238699   3.395   0.100   3.704 -1.8904 -0.7830  0.5613
 5714TIP3   OH238700   0.220   0.984   4.012  0.0652 -0.7588 -1.0754
 5714TIP3    H138701   0.231   1.073   4.044 -1.3905 -1.0932  0.5609
 5714TIP3    H238702   0.266   0.929   4.076  1.9934 -1.1729 -2.7105
 5715TIP3   OH238703   3.192   5.021   0.349 -0.3532  0.8252 -0.4047
 5715TIP3    H138704   3.154   5.040   0.264 -0.4033  0.1327 -0.5398
 5715TIP3    H238705   3.147   5.080   0.410 -2.7848 -1.0277 -0.2879
 5716TIP3   OH238706   1.300   4.075   5.139 -0.4779 -0.3474 -0.5425
 5716TIP3    H138707   1.206   4.078   5.119 -0.5372  0.9467 -0.1831
 5716TIP3    H238708   1.340   4.137   5.078  0.1802 -1.0255 -0.8159
 5717TIP3   OH238709   0.496   6.452   1.190  0.3229  0.5209  0.1258
 5717TIP3    H138710   0.470   6.434   1.280  0.0758  0.3534  0.0246
 5717TIP3    H238711   0.462   6.377   1.140 -1.3654  1.5740 -0.4154
 5718TIP3   OH238712   2.349   6.486   2.348 -0.6969 -0.2411 -0.3682
 5718TIP3    H138713   2.299   6.566   2.369 -0.0121  0.2124 -0.4341
 5718TIP3    H238714   2.440   6.513   2.357 -0.4654 -1.1221 -0.0355
 5719TIP3   OH238715   3.884   4.593   4.703  0.6783 -0.0009  0.2733
 5719TIP3    H138716   3.962   4.545   4.730  0.1930 -0.2091  1.3496
 5719TIP3    H238717   3.888   4.675   4.753  1.1652  0.8148 -1.0638
 5720TIP3   OH238718   5.217   1.216   2.648  0.0364 -0.0915 -0.4349
 5720TIP3    H138719   5.171   1.142   2.688  2.5559 -1.2944  0.4915
 5720TIP3    H238720   5.155   1.289   2.654 -1.5547 -1.4682  1.1191
 5721TIP3   OH238721   6.514   6.775   1.948 -0.0114 -0.1635 -0.4789
 5721TIP3    H138722   6.498   6.718   1.872 -1.2660  0.1370 -0.4524
 5721TIP3    H238723   6.533   6.715   2.020  0.8963 -0.4604 -0.9417
 5722TIP3   OH238724   0.048   6.816   1.180 -0.6197 -0.0473  0.3250
 5722TIP3    H138725   0.051   6.825   1.085  0.8903  0.7024  0.4043
 5722TIP3    H238726   0.096   6.734   1.198  2.3376  1.5775  0.5574
 5723TIP3   OH238727   6.903   2.286   1.545  0.0800  0.2048  0.4247
 5723TIP3    H138728   6.902   2.259   1.453 -0.5806 -0.3352  0.5806
 5723TIP3    H238729   6.958   2.365   1.546 -1.4539  1.3569 -0.7608
 5724TIP3   OH238730   2.491   0.456   3.198  0.7767 -0.4289 -0.7531
 5724TIP3    H138731   2.435   0.496   3.133  1.5199  1.9161 -0.0457
 5724TIP3    H238732   2.454   0.483   3.282  2.1919  0.0738 -0.2633
 5725TIP3   OH238733   4.758   5.928   4.049 -0.0144  0.5478  0.0445
 5725TIP3    H138734   4.848   5.958   4.041  0.1230  0.1277 -0.0041
 5725TIP3    H238735   4.727   5.920   3.959 -0.5323  1.9586  0.0774
 5726TIP3   OH238736   4.194   1.079   0.790 -0.2968 -0.3031 -0.1955
 5726TIP3    H138737   4.270   1.076   0.849 -0.9392 -0.1819  0.6658
 5726TIP3    H238738   4.213   1.014   0.723  0.2239 -0.8347  0.4430
 5727TIP3   OH238739   3.917   0.887   0.019  0.1794  0.1778  0.0063
 5727TIP3    H138740   3.948   0.818  -0.040  1.6653 -0.4817  1.4604
 5727TIP3    H238741   3.836   0.852   0.056  1.7634 -1.6836  2.0284
 5728TIP3   OH238742   1.508   6.735   2.294  0.0120 -0.7389 -0.4433
 5728TIP3    H138743   1.463   6.813   2.328  2.5550  0.6817 -0.0871
 5728TIP3    H238744   1.481   6.665   2.353 -0.5460  0.3846  0.6902
 5729TIP3   OH238745   5.400   5.717   2.408 -0.2680 -0.6112 -0.3200
 5729TIP3    H138746   5.357   5.765   2.336  1.4627  2.6854  0.6638
 5729TIP3    H238747   5.337   5.722   2.480 -0.7757 -1.3313 -0.6979
 5730TIP3   OH238748   1.864   2.365   3.377  0.0494  0.3409  0.4753
 5730TIP3    H138749   1.895   2.300   3.314 -0.1949  1.2303 -0.5992
 5730TIP3    H238750   1.942   2.414   3.401 -0.0090  0.6374  0.0823
 5731TIP3   OH238751   5.441   2.364   0.332 -0.2333 -0.4367  0.1615
 5731TIP3    H138752   5.427   2.456   0.312 -0.3548 -0.6503 -0.8276
 5731TIP3    H238753   5.437   2.321   0.246  1.1497 -1.1866  0.4483
 5732TIP3   OH238754   0.183   4.028   1.338 -0.1692 -0.3074  0.0789
 5732TIP3    H138755   0.195   3.933   1.335  1.9458 -0.0637 -1.1916
 5732TIP3    H238756   0.121   4.042   1.409 -1.2587 -2.6930 -0.3079
 5733TIP3   OH238757   1.472   1.451   3.551 -0.0371 -0.2595 -0.4121
 5733TIP3    H138758   1.473   1.433   3.645 -1.0688  0.3320 -0.2700
 5733TIP3    H238759   1.434   1.539   3.544 -2.7819 -1.3952 -1.5223
 5734TIP3   OH238760   6.083   4.406   3.599  0.0410 -0.1334  0.6611
 5734TIP3    H138761   6.009   4.425   3.657 -0.6949  0.0377 -0.3069
 5734TIP3    H238762   6.100   4.488   3.553  1.7403  0.2196  1.8335
 5735TIP3   OH238763   2.404   6.837   0.268 -0.5042  0.0809  0.2079
 5735TIP3    H138764   2.383   6.887   0.189 -1.5190 -0.7589 -0.0795
 5735TIP3    H238765   2.330   6.854   0.327  0.6036  1.3113  1.3096
 5736TIP3   OH238766   2.683   1.471   1.277 -0.0722  0.4232 -0.1330
 5736TIP3    H138767   2.671   1.554   1.323 -1.1502  0.3414 -0.2391
 5736TIP3    H238768   2.704   1.497   1.187 -2.2210  0.6304 -0.6295
 5737TIP3   OH238769   4.777   0.395   1.801  0.0080 -0.0880  0.3836
 5737TIP3    H138770   4.722   0.388   1.722  0.5728  0.3242 -0.0539
 5737TIP3    H238771   4.798   0.488   1.806  1.3538 -0.3606  0.0730
 5738TIP3   OH238772   0.336   1.832   2.260  0.3464 -0.1112 -0.4775
 5738TIP3    H138773   0.379   1.905   2.216  1.2594 -1.1228 -1.3017
 5738TIP3    H238774   0.253   1.869   2.291  0.8228  1.2942 -0.7811
 5739TIP3   OH238775   5.400   1.803   0.609 -0.3281  0.1050  0.0353
 5739TIP3    H138776   5.307   1.816   0.623 -0.2726  0.4876  0.0421
 5739TIP3    H238777   5.440   1.821   0.694 -0.1196  1.2101 -0.2831
 5740TIP3   OH238778   0.838   0.076   3.451 -0.4564  0.3609  0.0183
 5740TIP3    H138779   0.919   0.078   3.400 -0.8401  0.4720 -0.5961
 5740TIP3    H238780   0.846   0.149   3.511 -0.1627  0.4662 -0.1464
 5741TIP3   OH238781   3.186   4.642   3.263 -0.4651 -0.3549 -0.0831
 5741TIP3    H138782   3.235   4.685   3.333 -0.5374  0.7821 -0.7065
 5741TIP3    H238783   3.139   4.713   3.220 -0.5383 -1.0588 -1.1944
 5742TIP3   OH238784   6.623   0.937   4.594  0.0764 -0.2825  0.0461
 5742TIP3    H138785   6.688   0.874   4.564 -0.0849 -0.2426 -0.3961
 5742TIP3    H238786   6.673   1.015   4.617  0.4675 -1.0717  2.1247
 5743TIP3   OH238787   6.055   3.986   0.154  0.1973 -0.0769  0.2619
 5743TIP3    H138788   6.061   4.013   0.063 -0.6405 -0.7012  0.0052
 5743TIP3    H238789   6.112   4.047   0.201  0.1373  0.6608 -0.5871
 5744TIP3   OH238790   2.660   6.056   2.580 -0.7425 -0.2008  0.2342
 5744TIP3    H138791   2.573   6.094   2.588 -0.4285  0.7033 -0.5129
 5744TIP3    H238792   2.669   6.033   2.488 -0.3040 -0.5765  0.3648
 5745TIP3   OH238793   3.279   3.827   4.137 -0.3223 -1.1520 -0.1245
 5745TIP3    H138794   3.210   3.866   4.192 -0.1908 -2.2369  0.8402
 5745TIP3    H238795   3.323   3.764   4.194 -0.9167 -3.2002 -1.7944
 5746TIP3   OH238796   1.215   4.640   0.416 -0.1319 -0.3875 -0.6031
 5746TIP3    H138797   1.177   4.705   0.357 -0.3280 -1.2834 -1.4850
 5746TIP3    H238798   1.238   4.566   0.360  3.1972  0.1709 -0.2059
 5747TIP3   OH238799   3.320   4.954   4.172 -0.0460 -0.1598 -0.2633
 5747TIP3    H138800   3.363   4.908   4.245 -1.6757  0.3526  1.0805
 5747TIP3    H238801   3.344   5.046   4.185 -0.5858 -0.0271 -0.2012
 5748TIP3   OH238802   3.377   4.433   4.750  0.3479 -0.0062 -0.4732
 5748TIP3    H138803   3.347   4.359   4.803 -1.0992 -0.8105 -2.3118
 5748TIP3    H238804   3.301   4.491   4.745  0.5248  0.1618 -1.4376
 5749TIP3   OH238805   6.052   2.001   0.546 -0.4250 -0.2631  0.2130
 5749TIP3    H138806   5.992   1.936   0.509  0.3448 -1.5070  1.0750
 5749TIP3    H238807   5.996   2.075   0.571 -1.3366 -0.6472 -0.6543
 5750TIP3   OH238808   4.553   0.739   3.201  0.4972  0.0293  0.1656
 5750TIP3    H138809   4.510   0.656   3.221 -1.3798  0.6328 -1.0837
 5750TIP3    H238810   4.637   0.734   3.246  1.1499 -3.2034 -1.1205
 5751TIP3   OH238811   2.395   5.438   2.573  0.0572 -0.0132 -0.5885
 5751TIP3    H138812   2.347   5.519   2.558 -0.8449 -0.5166 -0.4771
 5751TIP3    H238813   2.327   5.372   2.590  0.7811 -0.7492 -0.4740
 5752TIP3   OH238814   1.644   6.095   1.789 -0.3032  0.0651 -0.5301
 5752TIP3    H138815   1.736   6.122   1.786 -0.3393  0.2715  0.0680
 5752TIP3    H238816   1.611   6.132   1.871 -0.2665 -2.1174  0.5224
 5753TIP3   OH238817   4.821   1.636   0.916  0.3508  0.3416  0.4169
 5753TIP3    H138818   4.835   1.645   0.821 -2.8473 -2.9181 -0.5999
 5753TIP3    H238819   4.897   1.587   0.947  0.6431 -0.0504 -0.8420
 5754TIP3   OH238820   3.238   2.936   3.893 -0.0851 -0.1953 -0.1513
 5754TIP3    H138821   3.287   2.929   3.975 -0.0258 -1.3577 -0.2795
 5754TIP3    H238822   3.152   2.902   3.914  0.6260 -2.8005 -1.1391
 5755TIP3   OH238823   3.320   6.192   4.450 -0.0444  0.1432 -0.0631
 5755TIP3    H138824   3.274   6.110   4.432 -0.1206  0.5789 -2.1190
 5755TIP3    H238825   3.388   6.168   4.513  1.8619 -2.2315 -2.7621
 5756TIP3   OH238826   6.007   5.724   0.205 -0.2152 -0.3245  0.4306
 5756TIP3    H138827   6.069   5.765   0.266  0.5377 -2.0578  0.8765
 5756TIP3    H238828   6.046   5.639   0.184 -2.1335 -1.2097  0.2354
 5757TIP3   OH238829   6.689   5.984   2.230  0.0832 -0.3046  0.2753
 5757TIP3    H138830   6.746   6.018   2.299  0.1675 -0.7915  0.4489
 5757TIP3    H238831   6.721   5.895   2.214 -1.1287 -0.8927  0.9480
 5758TIP3   OH238832   0.435   5.329   3.033 -0.1492  0.5301  0.2063
 5758TIP3    H138833   0.444   5.234   3.031  1.3867  0.6495  0.2089
 5758TIP3    H238834   0.453   5.353   3.124 -1.2984  0.7816  0.3868
 5759TIP3   OH238835   2.491   5.555   2.796  0.5333 -0.7903  0.3124
 5759TIP3    H138836   2.498   5.645   2.762  1.9472 -0.2074  2.0036
 5759TIP3    H238837   2.488   5.500   2.718 -0.5835  0.7271 -0.7709
 5760TIP3   OH238838   4.242   6.265   1.721  0.2234 -0.5319 -0.2299
 5760TIP3    H138839   4.257   6.173   1.741 -0.7297 -0.8484 -0.9325
 5760TIP3    H238840   4.149   6.270   1.699  0.3330  0.5441 -0.4980
 5761TIP3   OH238841   0.609   1.566   1.349 -0.3970  0.2961  0.2856
 5761TIP3    H138842   0.672   1.606   1.410 -0.0252  0.2275 -0.0517
 5761TIP3    H238843   0.637   1.474   1.344 -0.5496  0.2573  0.1665
 5762TIP3   OH238844   4.084   6.525   0.608  0.6741 -0.3766  0.4675
 5762TIP3    H138845   4.078   6.496   0.699 -1.0926 -1.8746 -0.0728
 5762TIP3    H238846   4.149   6.467   0.569  2.5266  1.1991  1.0414
 5763TIP3   OH238847   6.243   0.685   1.748 -0.4009  0.1908  0.1514
 5763TIP3    H138848   6.195   0.604   1.730 -0.9949  0.4656  0.4463
 5763TIP3    H238849   6.193   0.753   1.701  0.2451  0.3470 -0.3174
 5764TIP3   OH238850   6.127   1.010   3.941 -0.4346  0.8602  0.1869
 5764TIP3    H138851   6.142   1.008   4.036  0.8471  0.9579  0.0031
 5764TIP3    H238852   6.214   1.006   3.903 -0.9911 -1.0215 -1.0329
 5765TIP3   OH238853   2.992   4.048   2.899  0.4927 -0.2645 -0.1866
 5765TIP3    H138854   3.070   4.025   2.849  0.3275 -0.7120 -0.2484
 5765TIP3    H238855   2.919   4.034   2.838  0.4247  1.1710 -0.4722
 5766TIP3   OH238856   3.921   2.388   2.702 -0.1171 -0.3030 -0.1920
 5766TIP3    H138857   3.926   2.425   2.790 -1.4342 -2.6557  0.9974
 5766TIP3    H238858   3.922   2.293   2.716 -0.1203 -0.7598 -2.7537
 5767TIP3   OH238859   3.852   1.908   3.205  0.3346 -0.3214 -0.1830
 5767TIP3    H138860   3.822   1.943   3.122 -0.3822 -0.5476 -0.0246
 5767TIP3    H238861   3.903   1.831   3.181  2.8242  1.3505 -0.6033
 5768TIP3   OH238862   0.108   3.622   2.966 -0.2700 -0.4551 -0.1429
 5768TIP3    H138863   0.162   3.548   2.938 -1.2580 -1.3482  0.2328
 5768TIP3    H238864   0.020   3.584   2.978 -1.1716  1.1038 -1.4517
 5769TIP3   OH238865   4.536   1.096   3.493  0.2264 -0.0966  0.8260
 5769TIP3    H138866   4.509   1.146   3.571 -1.8111  1.7752 -0.9313
 5769TIP3    H238867   4.458   1.046   3.469  1.3926 -2.0298  0.9422
 5770TIP3   OH238868   1.729   4.043   0.818  0.0653  0.2098  0.0920
 5770TIP3    H138869   1.636   4.029   0.801  0.4509 -1.9816 -0.4776
 5770TIP3    H238870   1.744   4.005   0.905  0.6019 -0.3184 -0.2262
 5771TIP3   OH238871   3.622   3.621   4.023 -0.4031  0.0306 -0.7215
 5771TIP3    H138872   3.634   3.544   3.969  1.2996  0.1977 -0.6339
 5771TIP3    H238873   3.575   3.590   4.101 -0.1742 -0.7974 -0.9151
 5772TIP3   OH238874   5.152   2.501   3.439  0.7720 -0.4440 -0.0713
 5772TIP3    H138875   5.169   2.409   3.459 -0.3171 -0.9119 -1.1498
 5772TIP3    H238876   5.123   2.501   3.347  2.1623  1.1633 -0.5585
 5773TIP3   OH238877   0.261   2.828   4.825 -0.2322 -0.3996 -0.1069
 5773TIP3    H138878   0.243   2.921   4.841  3.4014  0.2377  1.2159
 5773TIP3    H238879   0.210   2.807   4.746 -2.5133  2.1796  0.5160
 5774TIP3   OH238880   4.752   0.768   2.845  0.9189  0.1123 -0.4687
 5774TIP3    H138881   4.773   0.732   2.932  0.8913 -0.9405 -0.8876
 5774TIP3    H238882   4.756   0.693   2.786 -2.6772  0.0029 -0.8307
 5775TIP3   OH238883   3.312   2.985   0.571 -0.1444  0.1403  0.1882
 5775TIP3    H138884   3.283   2.921   0.635  0.4552  1.4974  1.9062
 5775TIP3    H238885   3.319   3.067   0.620  1.3871  1.0199 -1.3648
 5776TIP3   OH238886   1.595   0.902   1.950 -0.4212 -0.1994 -0.2103
 5776TIP3    H138887   1.505   0.933   1.962 -0.1630  0.3834  0.2586
 5776TIP3    H238888   1.605   0.831   2.014 -0.5241 -0.2212 -0.2178
 5777TIP3   OH238889   3.907   5.039   2.078 -0.0514  0.1542 -0.1878
 5777TIP3    H138890   3.833   4.988   2.046 -0.5110  0.9576 -0.4038
 5777TIP3    H238891   3.983   5.002   2.032  0.0710 -2.2279  1.7124
 5778TIP3   OH238892   6.908   2.721   4.223 -0.2905  0.6275 -0.1083
 5778TIP3    H138893   6.825   2.677   4.242  0.5926 -1.0639  0.0036
 5778TIP3    H238894   6.924   2.776   4.299  0.2153 -1.4479  1.3824
 5779TIP3   OH238895   5.810   0.971   0.210  0.3001 -0.0683  0.2014
 5779TIP3    H138896   5.739   0.990   0.271 -0.3404 -0.9564 -0.2528
 5779TIP3    H238897   5.812   1.046   0.150  0.3045  0.3499  0.7248
 5780TIP3   OH238898   0.742   4.041   0.733  0.9687  0.2798 -0.0119
 5780TIP3    H138899   0.803   4.002   0.670  2.3201 -0.9188  1.9501
 5780TIP3    H238900   0.656   4.008   0.706  1.5144 -0.2859 -1.1405
 5781TIP3   OH238901   4.438   3.498   2.634  0.0371 -0.0504 -0.2349
 5781TIP3    H138902   4.485   3.508   2.552  1.0494  2.0366  0.5261
 5781TIP3    H238903   4.351   3.468   2.609  0.0079  1.4878 -2.1450
 5782TIP3   OH238904   3.536   0.032   4.111  0.4080  0.1416  0.4959
 5782TIP3    H138905   3.445   0.002   4.100  1.1511 -2.0510 -0.3390
 5782TIP3    H238906   3.539   0.115   4.064 -1.0509  0.0061  0.0934
 5783TIP3   OH238907   3.765   6.252   3.869  0.4931 -0.3981 -0.1109
 5783TIP3    H138908   3.748   6.338   3.907  1.0172 -0.4124  0.1678
 5783TIP3    H238909   3.805   6.202   3.940  2.9447  0.0562 -1.0633
 5784TIP3   OH238910   5.961   6.509   3.257 -0.5725  0.3494  0.0169
 5784TIP3    H138911   5.896   6.461   3.307 -0.9234  0.3699 -0.4081
 5784TIP3    H238912   5.974   6.457   3.177 -0.8468  0.8764 -0.3779
 5785TIP3   OH238913   6.707   3.828   1.605 -0.2342 -0.3477 -0.2787
 5785TIP3    H138914   6.766   3.808   1.678  0.3483 -0.9670 -0.9085
 5785TIP3    H238915   6.762   3.824   1.528 -1.1914 -1.3633 -0.9351
 5786TIP3   OH238916   2.232   4.674   3.818 -0.2112  0.0830 -0.2761
 5786TIP3    H138917   2.322   4.705   3.829  0.0231 -0.6069 -0.1759
 5786TIP3    H238918   2.237   4.579   3.832 -0.9389  0.0211 -0.3611
 5787TIP3   OH238919   0.126   3.885   3.898 -1.0142  0.1368  0.4425
 5787TIP3    H138920   0.134   3.791   3.917 -1.5557 -0.5673 -2.4365
 5787TIP3    H238921   0.213   3.920   3.917 -0.3740 -1.2372  0.2118
 5788TIP3   OH238922   0.032   1.096   2.245 -0.0073 -0.4790  0.1911
 5788TIP3    H138923   0.124   1.116   2.260 -0.5756  0.8406  2.4895
 5788TIP3    H238924  -0.010   1.115   2.329 -2.6815  0.9134 -1.3316
 5789TIP3   OH238925   6.186   6.235   3.340  0.4358 -0.3047 -0.0662
 5789TIP3    H138926   6.121   6.166   3.355 -0.1308  0.1478 -0.4105
 5789TIP3    H238927   6.139   6.317   3.357  0.4454  0.1110 -1.8631
 5790TIP3   OH238928   5.196   4.404   1.765 -0.0961 -0.0886  0.0727
 5790TIP3    H138929   5.275   4.349   1.773 -0.2983 -0.4655 -0.4581
 5790TIP3    H238930   5.230   4.492   1.749  0.2228 -0.3088 -0.5145
 5791TIP3   OH238931   5.090   3.947   4.266 -0.0618 -0.2941 -0.4754
 5791TIP3    H138932   5.012   3.916   4.312 -0.4469 -0.6450 -1.3435
 5791TIP3    H238933   5.056   3.988   4.187  0.4895  1.6098  0.2071
 5792TIP3   OH238934   2.376   2.022   1.675  0.8780  0.4663 -0.2057
 5792TIP3    H138935   2.331   1.937   1.671  1.9585 -0.0971 -1.1439
 5792TIP3    H238936   2.373   2.046   1.767  0.4088 -0.5166  0.0566
 5793TIP3   OH238937   4.419   2.090   0.863  0.0478  0.1951  0.9776
 5793TIP3    H138938   4.435   2.086   0.769 -1.3504 -0.1184  0.7221
 5793TIP3    H238939   4.459   2.172   0.891  0.6424  0.1996  0.1411
 5794TIP3   OH238940   4.005   2.097   1.130 -0.6531  0.4790 -0.1361
 5794TIP3    H138941   3.959   2.065   1.052  0.0889  0.8025 -0.7255
 5794TIP3    H238942   4.096   2.107   1.101 -0.3906  0.7213  0.7456
 5795TIP3   OH238943   5.545   3.001   1.663  0.1934  0.2420 -0.0599
 5795TIP3    H138944   5.579   3.017   1.751  1.3793  0.3819 -0.5267
 5795TIP3    H238945   5.460   3.044   1.662 -1.1615 -2.1238  1.9166
 5796TIP3   OH238946   6.659   2.702   3.812  0.2087 -0.2524 -0.2266
 5796TIP3    H138947   6.704   2.619   3.827  0.0218 -0.9020 -2.8122
 5796TIP3    H238948   6.705   2.764   3.868  1.9863 -1.5921 -0.0956
 5797TIP3   OH238949   0.184   5.011   1.546  0.5228 -0.1939  0.8252
 5797TIP3    H138950   0.124   5.058   1.604 -0.2964  1.8360 -1.5215
 5797TIP3    H238951   0.252   4.978   1.605 -1.5845 -0.5099  3.2534
 5798TIP3   OH238952   4.096   0.073   1.026  0.4745  0.8766 -1.0255
 5798TIP3    H138953   4.067   0.084   0.936 -0.9392 -0.8883 -0.8408
 5798TIP3    H238954   4.138  -0.013   1.028 -0.6664  0.3144  0.2313
 5799TIP3   OH238955   3.750   0.659   1.944  0.3913 -0.6316  0.4682
 5799TIP3    H138956   3.778   0.599   2.013  0.7853 -0.4474  0.4688
 5799TIP3    H238957   3.725   0.739   1.991 -1.6682 -1.3079  0.6302
 5800TIP3   OH238958   4.289   1.198   3.276  0.3394 -0.8892  0.5801
 5800TIP3    H138959   4.301   1.258   3.350  1.2067 -2.2551  1.5935
 5800TIP3    H238960   4.214   1.144   3.301 -1.3319  0.5962 -0.9417
 5801TIP3   OH238961   4.121   1.723   3.931  0.0293 -0.1900  0.2010
 5801TIP3    H138962   4.171   1.683   4.002  0.2521 -0.9970 -0.4012
 5801TIP3    H238963   4.100   1.811   3.963  2.6627  0.5691  0.1252
 5802TIP3   OH238964   3.712   1.422   1.582  0.0544  0.6063  0.0080
 5802TIP3    H138965   3.629   1.430   1.535 -0.0031  4.3770  0.4312
 5802TIP3    H238966   3.779   1.429   1.514  0.0143  0.3384 -0.0596
 5803TIP3   OH238967   1.213   1.840   0.371 -0.5379  0.6727 -0.0408
 5803TIP3    H138968   1.233   1.890   0.450  0.3742  2.6507 -1.4263
 5803TIP3    H238969   1.284   1.862   0.311 -0.5335 -1.7671 -1.0089
 5804TIP3   OH238970   3.417   5.450   1.293 -0.4239  0.1273  0.0692
 5804TIP3    H138971   3.420   5.527   1.350  1.0658  0.1107  0.0366
 5804TIP3    H238972   3.397   5.486   1.206  0.5910  0.5274 -0.0084
 5805TIP3   OH238973   4.225   3.766   2.079 -0.7073  0.4774  0.0360
 5805TIP3    H138974   4.187   3.850   2.055  0.2844  1.1381  0.6835
 5805TIP3    H238975   4.218   3.713   1.999 -2.5403  0.6987  0.0131
 5806TIP3   OH238976   6.517   5.993   1.544  0.0047  0.3289  0.0060
 5806TIP3    H138977   6.422   6.006   1.546  0.1394  1.3069  1.1736
 5806TIP3    H238978   6.528   5.905   1.507 -1.4550 -0.7466  1.9613
 5807TIP3   OH238979   1.992   0.218   4.427 -0.5047  0.2409 -0.0529
 5807TIP3    H138980   1.966   0.126   4.419  0.7933 -0.2049  0.5370
 5807TIP3    H238981   2.084   0.214   4.455 -0.3576  1.7242 -0.2719
 5808TIP3   OH238982   2.904   4.726   3.404 -0.0889 -0.4381 -0.1738
 5808TIP3    H138983   2.921   4.770   3.321  1.0192  2.0406  1.2561
 5808TIP3    H238984   2.971   4.658   3.410 -0.0933 -0.5468 -1.2295
 5809TIP3   OH238985   2.794   0.892   1.514 -0.4350  0.3719  0.3974
 5809TIP3    H138986   2.847   0.876   1.436  0.9613  0.9084  1.2079
 5809TIP3    H238987   2.856   0.924   1.580 -1.4578 -0.6565  1.9328
 5810TIP3   OH238988   3.220   1.900   0.890  0.6363  0.5058 -0.2171
 5810TIP3    H138989   3.231   1.887   0.985  2.7247  1.0802 -0.3247
 5810TIP3    H238990   3.233   1.812   0.853 -3.7385 -0.4933  0.1521
 5811TIP3   OH238991   6.075   5.777   3.755  0.2246  0.5157 -0.3116
 5811TIP3    H138992   6.092   5.799   3.847  0.3976 -1.9995  0.3302
 5811TIP3    H238993   6.136   5.706   3.736 -2.4344 -1.7155 -1.1244
 5812TIP3   OH238994   2.331   2.591   2.841 -0.3899 -0.4661 -0.5798
 5812TIP3    H138995   2.343   2.500   2.868 -0.1205 -0.5261 -0.8881
 5812TIP3    H238996   2.355   2.643   2.917  0.9851 -0.6096 -0.8952
 5813TIP3   OH238997   6.042   0.629   2.247  0.2400 -0.2758  0.2280
 5813TIP3    H138998   6.025   0.635   2.153 -1.5808 -0.4695  0.5215
 5813TIP3    H238999   6.078   0.714   2.271  2.3957 -0.7915 -0.9278
 5814TIP3   OH239000   0.047   0.863   3.021  0.1627 -0.2139  0.2957
 5814TIP3    H139001   0.070   0.950   3.054  0.7555 -0.7137  1.2466
 5814TIP3    H239002   0.004   0.821   3.095 -0.8368 -0.4751 -0.4079
 5815TIP3   OH239003   2.452   3.150   4.260 -0.0752  0.0567 -0.7558
 5815TIP3    H139004   2.541   3.114   4.260 -0.9707 -2.5227  1.3046
 5815TIP3    H239005   2.425   3.147   4.168  0.8440 -2.3269 -1.0245
 5816TIP3   OH239006   0.667   6.279   2.674 -0.1139  0.1239 -0.7428
 5816TIP3    H139007   0.599   6.262   2.740  1.6966  0.7241  1.3771
 5816TIP3    H239008   0.749   6.269   2.721  1.2812  0.6610 -2.9320
 5817TIP3   OH239009   4.733   6.471   0.771 -0.4320 -0.2286  0.4783
 5817TIP3    H139010   4.729   6.533   0.844  1.6133  1.5629 -0.8063
 5817TIP3    H239011   4.797   6.508   0.712 -1.0427 -2.3066 -1.6412
 5818TIP3   OH239012   6.713   5.880   1.095  0.2497 -0.4715 -0.1147
 5818TIP3    H139013   6.750   5.882   1.007 -1.6303  2.8348 -0.9988
 5818TIP3    H239014   6.772   5.934   1.148  1.3895 -2.4690  0.7753
 5819TIP3   OH239015   6.805   4.063   3.971  0.3066 -0.3139  0.3129
 5819TIP3    H139016   6.874   4.010   3.931  0.3095  0.4113 -0.6843
 5819TIP3    H239017   6.829   4.068   4.063  0.8795 -1.1423  0.2224
 5820TIP3   OH239018   1.844   4.499   1.866  0.5654  0.0529 -0.5254
 5820TIP3    H139019   1.759   4.463   1.889 -0.4148  1.2822 -2.0473
 5820TIP3    H239020   1.896   4.423   1.839  0.2344 -0.7956  1.1176
 5821TIP3   OH239021   1.683   1.534   3.791 -0.1417 -0.4682  0.1396
 5821TIP3    H139022   1.772   1.518   3.758 -0.0557 -0.8930  0.5698
 5821TIP3    H239023   1.684   1.626   3.817  0.7710 -0.9573  1.9423
 5822TIP3   OH239024   4.918   2.602   4.764  0.4338  0.2144  0.1480
 5822TIP3    H139025   4.960   2.556   4.837 -0.2473 -0.1481  0.3181
 5822TIP3    H239026   4.824   2.589   4.778  0.2905  0.2359 -0.7270
 5823TIP3   OH239027   6.179   6.043   2.973 -0.0910 -0.1209 -0.2023
 5823TIP3    H139028   6.088   6.014   2.972  0.2231 -1.1694 -0.5392
 5823TIP3    H239029   6.228   5.968   3.007  0.6945  0.2580 -0.4603
 5824TIP3   OH239030   5.007   4.772   3.089 -0.3043 -0.0572  0.2319
 5824TIP3    H139031   4.930   4.814   3.050 -0.3141  0.4953  0.8184
 5824TIP3    H239032   5.005   4.801   3.181  1.3026  0.9921 -0.0320
 5825TIP3   OH239033   2.225   1.311   2.965 -0.0384  0.1123 -0.1177
 5825TIP3    H139034   2.288   1.268   3.022 -0.3455  0.0971  0.2170
 5825TIP3    H239035   2.147   1.256   2.969 -0.5722  0.8924  0.6348
 5826TIP3   OH239036   3.715   3.945   3.752 -0.1738 -0.0395 -0.4462
 5826TIP3    H139037   3.686   3.986   3.834  1.0683  0.7537 -0.3699
 5826TIP3    H239038   3.724   3.852   3.773 -0.4886  0.0548  0.1322
 5827TIP3   OH239039   1.561   6.351   3.314  0.1974 -0.1018 -0.4764
 5827TIP3    H139040   1.637   6.401   3.283  1.9014 -1.2165  1.6490
 5827TIP3    H239041   1.576   6.262   3.280  1.3357 -0.9784  2.0502
 5828TIP3   OH239042   4.721   1.954   3.139 -0.4144 -0.2454  0.2315
 5828TIP3    H139043   4.739   1.860   3.139  2.0106  0.1642  1.0493
 5828TIP3    H239044   4.675   1.970   3.221  0.3386 -0.5281  0.7114
 5829TIP3   OH239045   4.079   2.036   2.970 -0.4767 -0.1597 -0.7234
 5829TIP3    H139046   4.103   2.051   2.878 -1.3161 -1.2655 -1.1606
 5829TIP3    H239047   4.155   1.993   3.008  0.2520  1.1809 -0.6248
 5830TIP3   OH239048   0.967   5.764   2.539 -0.8735  0.1235 -0.0259
 5830TIP3    H139049   1.015   5.753   2.456 -2.4847 -2.1790 -0.7719
 5830TIP3    H239050   1.025   5.726   2.605 -1.4918 -2.5538 -0.8982
 5831TIP3   OH239051   0.580   2.121   0.986 -0.1598  0.7695  0.0310
 5831TIP3    H139052   0.647   2.053   0.983 -0.8542  0.0704  0.0178
 5831TIP3    H239053   0.595   2.174   0.907 -0.9405 -0.6826 -1.1515
 5832TIP3   OH239054   3.763   6.134   3.060 -0.1440  0.4701  0.6065
 5832TIP3    H139055   3.855   6.110   3.050 -0.0222 -1.0064  3.9042
 5832TIP3    H239056   3.715   6.072   3.005  0.7710  2.3614 -2.5568
 5833TIP3   OH239057   3.709   3.917   2.824 -0.4234 -0.1771  0.0355
 5833TIP3    H139058   3.720   3.912   2.919 -0.8924  1.4383  0.2135
 5833TIP3    H239059   3.789   3.957   2.792 -0.3611 -0.5070 -0.2235
 5834TIP3   OH239060   3.942   2.626   2.362 -0.5662 -0.0846 -0.4733
 5834TIP3    H139061   3.972   2.536   2.373 -1.2997 -0.5376 -1.9107
 5834TIP3    H239062   3.919   2.633   2.270 -2.8782  0.8205  0.0905
 5835TIP3   OH239063   1.365   4.277   4.736 -0.1245 -0.1544  0.2979
 5835TIP3    H139064   1.285   4.224   4.729 -0.8739  1.0979 -1.6164
 5835TIP3    H239065   1.390   4.294   4.645  1.4888  0.7472  0.8670
 5836TIP3   OH239066   2.896   5.109   0.274 -0.2250 -0.4226 -0.0252
 5836TIP3    H139067   2.866   5.186   0.321 -0.1629  0.6741 -1.7251
 5836TIP3    H239068   2.955   5.143   0.206  2.3109 -2.2148  1.1169
 5837TIP3   OH239069   3.612   4.664   1.053 -0.0911 -0.2735  0.6983
 5837TIP3    H139070   3.525   4.689   1.022  1.3373  1.8651 -2.0241
 5837TIP3    H239071   3.605   4.570   1.069 -2.7276 -0.2886 -0.0112
 5838TIP3   OH239072   2.308   3.171   2.000  0.0089 -0.7599  0.0502
 5838TIP3    H139073   2.331   3.259   1.971 -3.1334 -0.1840 -1.0161
 5838TIP3    H239074   2.326   3.170   2.094 -0.8516  1.3853  0.2808
 5839TIP3   OH239075   5.366   1.605   1.768  0.1226  0.0741 -0.5607
 5839TIP3    H139076   5.447   1.639   1.729  0.8173  0.9582  1.5170
 5839TIP3    H239077   5.310   1.681   1.778 -0.7564 -0.4342 -1.3991
 5840TIP3   OH239078   2.257   4.325   1.633  0.0224 -0.4783 -0.0276
 5840TIP3    H139079   2.203   4.247   1.623 -0.5830  0.1874 -2.4381
 5840TIP3    H239080   2.345   4.291   1.647 -0.3268 -1.5955 -0.4273
 5841TIP3   OH239081   2.717   4.144   4.205 -0.2652 -0.6050  0.2439
 5841TIP3    H139082   2.779   4.194   4.258 -0.5303  0.5346 -0.4824
 5841TIP3    H239083   2.689   4.206   4.137 -2.0524 -1.1513  0.4482
 5842TIP3   OH239084   5.574   5.030   2.555  0.0563 -0.3292 -0.4253
 5842TIP3    H139085   5.526   5.042   2.637 -0.0691 -2.2462 -0.1749
 5842TIP3    H239086   5.665   5.053   2.577  0.0251 -0.8187  0.2654
 5843TIP3   OH239087   0.093   1.239   4.209 -0.4608  0.2160  0.0102
 5843TIP3    H139088   0.162   1.190   4.254  0.8375 -0.0220 -2.0810
 5843TIP3    H239089   0.083   1.318   4.261 -1.5298 -1.4904  2.6164
 5844TIP3   OH239090   0.603   2.596   4.189 -0.3422 -0.0351  0.3052
 5844TIP3    H139091   0.569   2.665   4.246  1.5591  1.2783 -0.0497
 5844TIP3    H239092   0.664   2.547   4.245 -1.5877 -1.4166  0.5215
 5845TIP3   OH239093   3.859   4.872   2.987  0.1223 -0.0970  0.4218
 5845TIP3    H139094   3.825   4.916   3.065  1.4472  0.3533  0.7736
 5845TIP3    H239095   3.954   4.868   3.001  0.3564 -0.2568 -1.0398
 5846TIP3   OH239096   3.185   6.510   3.533  0.0452  0.2917  0.3190
 5846TIP3    H139097   3.269   6.540   3.498  1.4700 -0.5196  2.7482
 5846TIP3    H239098   3.132   6.492   3.456  2.0338  0.9848 -1.3213
 5847TIP3   OH239099   4.752   4.903   4.106  0.1743 -0.0110  0.0112
 5847TIP3    H139100   4.815   4.933   4.040  1.4662  1.5079  1.8221
 5847TIP3    H239101   4.697   4.978   4.123 -0.3893 -0.5001  0.3916
 5848TIP3   OH239102   6.126   3.613   2.080 -0.1130 -0.0238 -0.1547
 5848TIP3    H139103   6.081   3.573   2.154  0.3115  1.0279  0.6994
 5848TIP3    H239104   6.184   3.544   2.047 -1.1438 -0.8703 -0.2528
 5849TIP3   OH239105   6.445   5.189   2.418 -0.2579  0.0425 -0.2024
 5849TIP3    H139106   6.416   5.255   2.481 -0.1605  1.1518 -1.2645
 5849TIP3    H239107   6.502   5.238   2.358  0.9000 -1.3096 -0.2520
 5850TIP3   OH239108   3.711   4.525   0.520 -0.5122  0.1741 -0.0899
 5850TIP3    H139109   3.764   4.464   0.571  0.0603  0.5588 -0.2199
 5850TIP3    H239110   3.683   4.591   0.583 -3.7004 -1.7808  0.7830
 5851TIP3   OH239111   0.992   1.556   3.885  0.4179 -0.4373 -0.3178
 5851TIP3    H139112   1.027   1.528   3.800  1.0820 -3.7598  0.8671
 5851TIP3    H239113   1.069   1.564   3.941 -0.1946 -1.5261  0.7341
 5852TIP3   OH239114   5.757   6.652   3.805 -0.1145  0.3848 -0.2641
 5852TIP3    H139115   5.833   6.606   3.769 -0.2255  0.8762 -1.1671
 5852TIP3    H239116   5.750   6.621   3.895  2.0664  1.4462  0.3247
 5853TIP3   OH239117   0.111   1.663   3.163  0.3005 -0.3446  0.0520
 5853TIP3    H139118   0.115   1.664   3.258 -1.6538 -0.0828  0.1766
 5853TIP3    H239119   0.193   1.620   3.136  0.9682 -0.2696  1.8153
 5854TIP3   OH239120   6.707   5.198   1.712 -0.5455  0.7250  0.4499
 5854TIP3    H139121   6.716   5.108   1.680  0.5127  1.2378 -0.7965
 5854TIP3    H239122   6.615   5.204   1.739 -0.2456 -1.1823  2.1155
 5855TIP3   OH239123   6.491   4.038   3.355  0.2029 -0.4171  0.2578
 5855TIP3    H139124   6.573   3.990   3.362  0.9309  0.7570  0.0949
 5855TIP3    H239125   6.478   4.049   3.261 -0.1048 -0.5390  0.2856
 5856TIP3   OH239126   1.252   0.246   0.723 -0.3466 -0.5127  0.3928
 5856TIP3    H139127   1.194   0.247   0.647 -0.3107 -1.0578  0.3546
 5856TIP3    H239128   1.232   0.164   0.768  1.4606 -1.4792 -0.4577
 5857TIP3   OH239129   3.588   2.761   0.416 -0.1536 -0.8102  0.2765
 5857TIP3    H139130   3.554   2.672   0.416  0.8880 -1.2107  0.7640
 5857TIP3    H239131   3.648   2.765   0.490  0.3826  0.0811 -0.1857
 5858TIP3   OH239132   0.445   6.372   1.449  0.1990 -0.6609  0.7633
 5858TIP3    H139133   0.413   6.424   1.523 -2.3742 -0.2734 -0.5151
 5858TIP3    H239134   0.450   6.283   1.483 -2.9495 -0.8689  0.9876
 5859TIP3   OH239135   2.175   0.986   3.464 -0.3106  0.3646  0.4850
 5859TIP3    H139136   2.154   0.902   3.506  1.2785 -1.3528 -1.9534
 5859TIP3    H239137   2.252   1.018   3.511 -1.2246  0.8306  1.7640
 5860TIP3   OH239138   3.138   1.768   1.354 -0.0386 -0.4095 -0.8949
 5860TIP3    H139139   3.187   1.689   1.375  1.2181  0.5404 -0.0290
 5860TIP3    H239140   3.052   1.755   1.393  1.5053  0.3806  3.2367
 5861TIP3   OH239141   3.572   1.387   4.392 -0.2450 -0.1286 -0.0845
 5861TIP3    H139142   3.521   1.455   4.436  1.1487  1.6948 -1.1206
 5861TIP3    H239143   3.591   1.323   4.461  0.0970  1.5676  1.4923
 5862TIP3   OH239144   1.702   0.858   3.494 -0.1434  0.0417 -0.1178
 5862TIP3    H139145   1.634   0.905   3.544 -0.0503 -0.2040  0.2466
 5862TIP3    H239146   1.770   0.923   3.480  0.0804 -0.0341  0.5695
 5863TIP3   OH239147   1.386   5.826   1.854 -0.3003  0.1018 -0.2921
 5863TIP3    H139148   1.305   5.877   1.863 -0.7256 -0.6521  0.3503
 5863TIP3    H239149   1.417   5.814   1.943  0.8707  0.8998 -0.5761
 5864TIP3   OH239150   3.797   3.601   0.391  0.0554  0.0211  0.2896
 5864TIP3    H139151   3.886   3.633   0.406  0.3499 -0.5588 -0.1814
 5864TIP3    H239152   3.802   3.507   0.410 -0.4613 -0.0090  0.2820
 5865TIP3   OH239153   4.301   3.313   4.343 -0.2987  0.4440  0.4603
 5865TIP3    H139154   4.326   3.237   4.394  0.8125  1.0429  0.8460
 5865TIP3    H239155   4.223   3.286   4.294  0.0972 -0.9305  0.5714
 5866TIP3   OH239156   3.821   1.040   1.566  0.1753 -1.0643  0.1571
 5866TIP3    H139157   3.791   1.116   1.516  0.5648 -0.6455  0.5540
 5866TIP3    H239158   3.765   0.969   1.536 -0.5298 -0.5170  0.1378
 5867TIP3   OH239159   1.142   1.750   3.473  0.2338 -0.8906 -0.7878
 5867TIP3    H139160   1.183   1.722   3.391 -0.2853 -1.0377 -0.9989
 5867TIP3    H239161   1.093   1.829   3.449  1.3798  0.0079 -0.2782
 5868TIP3   OH239162   0.533   3.335   1.471 -0.5342 -0.4317 -0.9075
 5868TIP3    H139163   0.509   3.253   1.514  1.0419 -0.8145 -0.6893
 5868TIP3    H239164   0.451   3.384   1.465 -0.8996 -0.2978  2.6698
 5869TIP3   OH239165   3.013   4.208   2.172  0.7070 -0.5730  0.3054
 5869TIP3    H139166   3.096   4.211   2.125 -0.1447  2.0295 -1.2826
 5869TIP3    H239167   3.003   4.297   2.207 -2.3555 -0.0514 -1.5249
 5870TIP3   OH239168   3.578   4.096   2.120  0.5229 -0.4562 -0.2406
 5870TIP3    H139169   3.620   4.071   2.203  1.9713  2.3208 -0.0092
 5870TIP3    H239170   3.640   4.070   2.053 -0.0434 -1.4798 -0.3941
 5871TIP3   OH239171   3.382   3.122   2.447 -0.5023 -0.3703  0.1787
 5871TIP3    H139172   3.413   3.075   2.524 -1.4798  1.0111  1.4775
 5871TIP3    H239173   3.462   3.154   2.404  0.0635 -1.4247  0.4190
 5872TIP3   OH239174   4.396   6.051   2.164 -0.0023  0.6350  0.4379
 5872TIP3    H139175   4.358   6.139   2.168 -0.1042  0.7045 -1.3104
 5872TIP3    H239176   4.464   6.057   2.097 -0.3768 -0.7519 -0.0917
 5873TIP3   OH239177   3.582   4.385   1.152 -0.5377  0.4121  0.0620
 5873TIP3    H139178   3.665   4.364   1.108  0.0125  1.2966  0.6364
 5873TIP3    H239179   3.554   4.302   1.190 -1.1857 -0.4443 -2.1691
 5874TIP3   OH239180   1.420   2.606   4.735 -0.4437 -0.1644 -0.6385
 5874TIP3    H139181   1.475   2.671   4.779 -1.5315  0.2851  0.0871
 5874TIP3    H239182   1.478   2.530   4.724  0.4725  0.4718 -0.3678
 5875TIP3   OH239183   4.040   1.828   3.667 -0.4409 -0.2881  0.6470
 5875TIP3    H139184   3.978   1.762   3.635  3.0757 -2.4201 -2.7274
 5875TIP3    H239185   4.087   1.784   3.737 -0.1710 -0.1754  0.5380
 5876TIP3   OH239186   3.615   2.767   1.836  0.2332  0.2321  0.1612
 5876TIP3    H139187   3.601   2.860   1.820 -0.6432 -0.0534 -0.8820
 5876TIP3    H239188   3.531   2.726   1.813  0.7335 -0.8623  0.2212
 5877TIP3   OH239189   2.133   2.218   2.370 -0.3271  0.3196 -0.0742
 5877TIP3    H139190   2.176   2.278   2.431  1.3662 -0.3046 -0.6148
 5877TIP3    H239191   2.130   2.135   2.417  1.2777 -0.2464 -0.9301
 5878TIP3   OH239192   1.293   6.763   3.927 -0.0459  0.2204  0.4805
 5878TIP3    H139193   1.372   6.799   3.966 -0.4256  1.9539 -0.2281
 5878TIP3    H239194   1.225   6.774   3.994  0.1130 -0.3927  0.7431
 5879TIP3   OH239195   3.044   6.241   0.965 -0.1836  0.9351 -0.4531
 5879TIP3    H139196   3.137   6.221   0.956 -0.5558 -1.0828 -0.2870
 5879TIP3    H239197   3.022   6.211   1.054 -1.1610  0.6348 -0.7848
 5880TIP3   OH239198   0.539   2.338   2.721 -0.0520  0.2487  0.0532
 5880TIP3    H139199   0.467   2.328   2.658 -0.6875  2.3912  0.3351
 5880TIP3    H239200   0.600   2.398   2.678  0.9166 -0.4749  0.3762
 5881TIP3   OH239201   6.893   2.211   1.238  0.0300  0.0016 -0.2193
 5881TIP3    H139202   6.825   2.247   1.181 -2.6340  1.0742  3.2869
 5881TIP3    H239203   6.880   2.116   1.234 -0.2956  0.0668 -1.0763
 5882TIP3   OH239204   3.959   3.570   1.411 -0.2989 -0.1502 -0.1386
 5882TIP3    H139205   3.989   3.495   1.359  1.7109 -0.4607  1.3582
 5882TIP3    H239206   3.928   3.632   1.345  1.3337 -0.8714 -1.7021
 5883TIP3   OH239207   4.976   3.040   3.869  1.3565 -0.2924 -0.8566
 5883TIP3    H139208   5.036   2.969   3.892  0.1371 -2.0180 -2.6747
 5883TIP3    H239209   4.893   3.017   3.911  1.1137  0.4313 -0.9159
 5884TIP3   OH239210   1.843   0.731   4.433 -0.0199  0.7454  0.3715
 5884TIP3    H139211   1.778   0.717   4.502  1.0879 -1.0929  1.1280
 5884TIP3    H239212   1.926   0.705   4.472  1.4103  3.8553 -0.2827
 5885TIP3   OH239213   0.383   5.524   4.471 -0.4143  0.2366 -0.6444
 5885TIP3    H139214   0.408   5.538   4.380 -1.5694 -0.5116 -1.1005
 5885TIP3    H239215   0.379   5.429   4.480  0.1966  0.2933  0.3439
 5886TIP3   OH239216   4.207   2.443   0.548  0.2155 -0.0355  0.2497
 5886TIP3    H139217   4.118   2.473   0.569  0.1915  0.1318 -0.0838
 5886TIP3    H239218   4.228   2.487   0.466  1.7720  2.2791  1.7803
 5887TIP3   OH239219   1.342   2.741   1.834  0.2518 -1.0821  0.1359
 5887TIP3    H139220   1.317   2.650   1.816  2.6022 -1.9555  0.8033
 5887TIP3    H239221   1.380   2.738   1.922 -1.2912  0.9561  0.9387
 5888TIP3   OH239222   5.684   0.729   1.193 -0.1323  0.4926 -0.2328
 5888TIP3    H139223   5.777   0.729   1.212 -0.1671 -2.2170  0.2464
 5888TIP3    H239224   5.676   0.689   1.107 -0.9409 -1.4881  0.7004
 5889TIP3   OH239225   3.483   0.983   0.772  0.1038 -0.2908 -0.4754
 5889TIP3    H139226   3.518   0.893   0.774  0.0225 -0.3605 -1.4181
 5889TIP3    H239227   3.536   1.027   0.706 -0.7408 -0.0334 -1.0008
 5890TIP3   OH239228   1.615   1.383   0.930  0.7816  0.0351 -0.3794
 5890TIP3    H139229   1.648   1.472   0.924 -0.6967  0.6542  0.2826
 5890TIP3    H239230   1.627   1.347   0.841 -0.2601  1.4918 -1.1455
 5891TIP3   OH239231   0.376   2.040   2.785  0.0164 -0.0332  0.8046
 5891TIP3    H139232   0.368   2.006   2.696 -1.8306  2.6450 -0.1802
 5891TIP3    H239233   0.453   1.996   2.821  3.1001  1.3092 -3.3418
 5892TIP3   OH239234   4.633   3.246   4.196 -0.0510  0.3328  0.3581
 5892TIP3    H139235   4.665   3.295   4.120 -0.5255 -1.0479 -0.7716
 5892TIP3    H239236   4.543   3.224   4.173  0.0881 -0.8894  0.9248
 5893TIP3   OH239237   6.223   2.310   1.862 -0.1336  0.3472 -0.1520
 5893TIP3    H139238   6.266   2.235   1.822 -1.4359 -0.6301  0.2133
 5893TIP3    H239239   6.186   2.359   1.788  0.3618  0.4200 -0.3591
 5894TIP3   OH239240   1.046   0.723   1.959 -0.1771 -0.0255  0.4771
 5894TIP3    H139241   0.992   0.792   1.921  0.2491  0.2758  0.4125
 5894TIP3    H239242   1.033   0.733   2.054  0.0669  0.2916  0.4771
 5895TIP3   OH239243   4.622   6.376   3.209  0.0799 -0.2319  0.0364
 5895TIP3    H139244   4.540   6.413   3.178 -0.9036  0.4741  3.0755
 5895TIP3    H239245   4.688   6.410   3.149 -1.4821  1.9015 -0.6073
 5896TIP3   OH239246   4.045   5.412   2.865  0.0558 -0.5325  0.1071
 5896TIP3    H139247   4.063   5.503   2.889  0.5680 -0.5035 -0.3686
 5896TIP3    H239248   3.950   5.410   2.850  0.1835  0.2102 -0.9950
 5897TIP3   OH239249   4.075   3.717   2.586 -0.8542 -0.2902  0.1578
 5897TIP3    H139250   4.084   3.640   2.642  1.3563 -1.0807 -1.1785
 5897TIP3    H239251   4.161   3.729   2.547 -0.9955  3.1026  0.5804
 5898TIP3   OH239252   2.348   1.882   3.189  0.1282 -0.3948 -0.3780
 5898TIP3    H139253   2.361   1.973   3.161 -1.7132  0.9731  2.6960
 5898TIP3    H239254   2.344   1.886   3.284 -1.2941 -3.5186 -0.1697
 5899TIP3   OH239255   2.927   5.236   2.069 -0.1355  0.0870  0.1149
 5899TIP3    H139256   2.940   5.296   1.996 -0.7535 -1.6387 -1.5012
 5899TIP3    H239257   3.014   5.198   2.084  0.1256  0.8964  0.7335
 5900TIP3   OH239258   2.204   0.083   3.622  0.2009 -0.5577  0.3198
 5900TIP3    H139259   2.207   0.126   3.536 -1.8422 -1.0303 -0.0418
 5900TIP3    H239260   2.295   0.081   3.651  0.7076  1.4077 -0.9344
 5901TIP3   OH239261   5.900   3.297   2.809 -0.6233  0.0014  0.3751
 5901TIP3    H139262   5.815   3.341   2.812  0.0460  1.6025 -1.6749
 5901TIP3    H239263   5.889   3.229   2.742  0.1504  1.4602 -1.3350
 5902TIP3   OH239264   1.877   1.069   3.412 -0.2809  0.0548  0.2912
 5902TIP3    H139265   1.954   1.106   3.455  0.1963 -0.6533  0.0511
 5902TIP3    H239266   1.871   1.117   3.329 -0.2573  0.2950  0.4273
 5903TIP3   OH239267   4.304   5.045   1.583 -0.0992  0.0863 -0.3085
 5903TIP3    H139268   4.261   5.086   1.507  0.0688  1.6838  0.4207
 5903TIP3    H239269   4.277   5.099   1.657 -1.2557 -2.1503  1.0044
 5904TIP3   OH239270   0.683   4.983   3.260 -0.0058  0.5863 -0.0358
 5904TIP3    H139271   0.713   4.954   3.174 -0.7589 -1.0104  0.1985
 5904TIP3    H239272   0.760   5.021   3.301  1.1916 -1.4682 -0.2460
 5905TIP3   OH239273   3.398   4.871   1.902  0.1479 -0.3096 -0.1745
 5905TIP3    H139274   3.407   4.922   1.821 -2.4310  1.6823  0.6508
 5905TIP3    H239275   3.306   4.844   1.903  0.9905 -3.5266  0.3602
 5906TIP3   OH239276   5.353   2.253   1.472  0.8009  0.2021 -0.6888
 5906TIP3    H139277   5.268   2.291   1.451  0.7794 -0.1740 -1.3094
 5906TIP3    H239278   5.415   2.326   1.461  0.8165 -0.0182 -2.3083
 5907TIP3   OH239279   4.171   5.768   3.876 -0.1281 -0.2360  0.0984
 5907TIP3    H139280   4.175   5.858   3.845 -0.3395  0.0986  1.0173
 5907TIP3    H239281   4.078   5.752   3.891 -0.1605 -0.8232 -0.6501
 5908TIP3   OH239282   6.503   1.348   1.546 -0.2788 -0.7099 -0.1198
 5908TIP3    H139283   6.565   1.320   1.478 -0.4215 -0.7180 -0.2481
 5908TIP3    H239284   6.438   1.279   1.549 -0.4460 -0.5588 -0.1995
 5909TIP3   OH239285   2.985   2.077   3.788  0.4797  0.3231 -0.4204
 5909TIP3    H139286   2.925   2.141   3.749  0.3403  1.0163  0.8800
 5909TIP3    H239287   3.071   2.099   3.752 -0.0975 -1.4093 -3.2406
 5910TIP3   OH239288   3.405   3.206   4.748  0.4364  0.0050 -0.2854
 5910TIP3    H139289   3.489   3.220   4.791  2.1286 -0.8140 -3.0228
 5910TIP3    H239290   3.377   3.120   4.778  0.8657  0.0496  0.2582
 5911TIP3   OH239291   3.501   2.424   3.584 -0.0966  0.2830 -0.8111
 5911TIP3    H139292   3.538   2.395   3.500  1.4538  0.8903 -0.3615
 5911TIP3    H239293   3.408   2.440   3.564  0.0481 -0.4127 -2.1936
 5912TIP3   OH239294   3.837   2.166   2.408 -0.3032 -0.2561 -0.0188
 5912TIP3    H139295   3.786   2.197   2.484 -0.1733 -1.8792  0.7706
 5912TIP3    H239296   3.772   2.126   2.351 -0.2805  0.1922 -0.3643
 5913TIP3   OH239297   6.902   6.852   3.821  0.0690 -0.5518  0.0574
 5913TIP3    H139298   6.827   6.888   3.773  0.6720  0.0502 -0.4528
 5913TIP3    H239299   6.934   6.924   3.873 -1.0525 -1.3997  2.0409
 5914TIP3   OH239300   4.680   3.327   1.492 -0.3576  0.2038  0.6993
 5914TIP3    H139301   4.675   3.374   1.409  0.4424 -0.2073  0.3988
 5914TIP3    H239302   4.770   3.339   1.521 -0.2748 -0.7020  0.8661
 5915TIP3   OH239303   0.432   5.721   2.816  0.0426  0.3655  0.0745
 5915TIP3    H139304   0.442   5.810   2.848 -1.7910  0.8899 -0.7101
 5915TIP3    H239305   0.415   5.730   2.722 -1.4336 -0.6922  0.2063
 5916TIP3   OH239306   4.103   6.589   3.951 -0.5077  0.3857 -0.2189
 5916TIP3    H139307   4.150   6.518   3.994 -1.1801 -0.6947 -1.2176
 5916TIP3    H239308   4.022   6.597   4.001  0.3375  1.7191  1.0170
 5917TIP3   OH239309   6.027   1.958   2.322  0.8094 -0.1828  0.2004
 5917TIP3    H139310   5.933   1.971   2.333  0.6829 -0.0221 -0.8979
 5917TIP3    H239311   6.048   1.885   2.381 -0.4615 -1.7997 -1.2130
 5918TIP3   OH239312   2.666   4.170   0.622  0.2007  0.2449  0.1692
 5918TIP3    H139313   2.755   4.203   0.638  0.0308  0.0577  1.6729
 5918TIP3    H239314   2.680   4.087   0.575  0.9488 -0.6916  1.9334
 5919TIP3   OH239315   0.498   0.326   0.926 -0.2307 -0.3721  0.0471
 5919TIP3    H139316   0.589   0.334   0.956 -0.4550  1.0954  0.4416
 5919TIP3    H239317   0.446   0.346   1.004 -0.8880 -0.8575 -0.2616
 5920TIP3   OH239318   2.805   4.595   1.781 -0.0386  0.1605  0.0095
 5920TIP3    H139319   2.890   4.552   1.788  0.0583  0.4922  1.1227
 5920TIP3    H239320   2.813   4.654   1.706  0.1209 -1.0904 -0.9723
 5921TIP3   OH239321   6.531   1.218   4.459 -0.5939  0.2456  0.1144
 5921TIP3    H139322   6.558   1.197   4.548  0.9673  0.0707 -0.3780
 5921TIP3    H239323   6.437   1.235   4.466 -0.4368  0.5464  1.8404
 5922TIP3   OH239324   4.415   0.085   1.552  0.1272  0.0485  0.0366
 5922TIP3    H139325   4.353   0.111   1.484  1.2107  2.0924 -0.2305
 5922TIP3    H239326   4.382   0.000   1.583 -0.1455 -1.2363 -3.3505
 5923TIP3   OH239327   3.212   4.840   3.495 -0.1553  0.5703 -0.5492
 5923TIP3    H139328   3.268   4.780   3.544  0.3116  0.5348 -1.1129
 5923TIP3    H239329   3.138   4.858   3.554  1.3337  2.0650  0.9651
 5924TIP3   OH239330   6.179   0.257   3.174  0.2382  0.0691 -0.1584
 5924TIP3    H139331   6.172   0.183   3.114  1.8100  0.9521 -1.5059
 5924TIP3    H239332   6.216   0.220   3.254 -0.0753 -0.7892 -0.3966
 5925TIP3   OH239333   5.227   1.241   3.774 -0.5044 -0.2078 -0.1230
 5925TIP3    H139334   5.288   1.176   3.739 -0.8612  0.5745 -2.3605
 5925TIP3    H239335   5.158   1.190   3.815  0.1529 -1.1823 -0.1990
 5926TIP3   OH239336   4.585   0.421   3.613  0.3414 -0.0763 -0.1985
 5926TIP3    H139337   4.560   0.453   3.700 -0.1631 -0.5189 -0.1800
 5926TIP3    H239338   4.503   0.411   3.566  0.5813 -0.2581 -0.5869
 5927TIP3   OH239339   3.768   3.021   0.232 -0.2448  0.0358 -0.7939
 5927TIP3    H139340   3.750   3.051   0.143 -2.6854  0.0024 -0.3870
 5927TIP3    H239341   3.730   3.088   0.289  0.0278 -0.6296  0.2068
 5928TIP3   OH239342   1.094   0.111   1.499 -0.7253  0.1156 -0.3221
 5928TIP3    H139343   1.088   0.196   1.543 -0.4607  0.1070 -0.2685
 5928TIP3    H239344   1.074   0.048   1.568 -0.0445  0.0872 -0.1443
 5929TIP3   OH239345   4.821   2.833   4.608  0.4590  0.2574 -0.3456
 5929TIP3    H139346   4.739   2.833   4.657  0.7482  0.5121  0.1526
 5929TIP3    H239347   4.869   2.757   4.641  1.5015  1.5202  1.2685
 5930TIP3   OH239348   5.941   3.805   1.948  0.2298 -0.0165 -0.0760
 5930TIP3    H139349   5.994   3.726   1.940  0.5365 -0.0745  1.9472
 5930TIP3    H239350   6.004   3.874   1.971 -0.3239  0.2917  0.5541
 5931TIP3   OH239351   5.528   0.759   3.921  0.6655 -0.6502  0.0247
 5931TIP3    H139352   5.448   0.804   3.948 -0.3143 -3.2191  1.7794
 5931TIP3    H239353   5.507   0.666   3.929  2.8667 -1.4730 -2.5061
 5932TIP3   OH239354   4.840   4.791   2.436 -0.0104 -0.5885 -0.6503
 5932TIP3    H139355   4.810   4.723   2.374 -0.3012 -0.0923 -1.0643
 5932TIP3    H239356   4.911   4.749   2.485 -0.3547 -1.2793 -0.7215
 5933TIP3   OH239357   0.438   4.655   2.920 -0.0094  0.1277  0.6011
 5933TIP3    H139358   0.477   4.571   2.947 -0.4022 -0.2725 -0.0339
 5933TIP3    H239359   0.409   4.696   3.001 -0.8563 -0.8924  0.8404
 5934TIP3   OH239360   1.013   6.847   8.165 -0.0280  0.6664 -0.6873
 5934TIP3    H139361   1.072   6.773   8.176  0.7854  1.5885  1.7493
 5934TIP3    H239362   1.069   6.924   8.167 -1.0854  1.4677 -0.4924
 5935TIP3   OH239363   3.735   1.435   4.171  0.1408  0.1012  1.3031
 5935TIP3    H139364   3.668   1.406   4.233 -1.4247  0.6268 -0.0422
 5935TIP3    H239365   3.703   1.403   4.086  3.1161 -2.2321  0.8640
 5936TIP3   OH239366   2.450   0.601   0.345 -0.0247  0.1695  0.2153
 5936TIP3    H139367   2.509   0.528   0.327 -1.6450 -1.6259  1.7041
 5936TIP3    H239368   2.459   0.616   0.439 -2.3091 -0.5708  0.6120
 5937TIP3   OH239369   4.526   4.675   0.342 -0.1608 -0.2501 -0.4411
 5937TIP3    H139370   4.457   4.730   0.306  0.1961 -0.3316 -1.2723
 5937TIP3    H239371   4.480   4.614   0.400 -0.6856  0.2036 -0.3760
 5938TIP3   OH239372   5.934   6.014   2.373  0.1770  0.1218 -0.3515
 5938TIP3    H139373   5.929   6.005   2.468 -0.7050  1.1922 -0.2750
 5938TIP3    H239374   5.850   5.981   2.342  1.5868 -3.2316 -1.0836
 5939TIP3   OH239375   4.761   0.873   2.283 -0.2252 -0.5619 -0.3083
 5939TIP3    H139376   4.751   0.945   2.345  0.1792  1.1472 -2.1124
 5939TIP3    H239377   4.730   0.908   2.199  0.8766 -2.1574 -1.4613
 5940TIP3   OH239378   0.647   4.318   3.892 -0.5455 -0.5195 -0.2649
 5940TIP3    H139379   0.619   4.387   3.833  1.3930  0.9290  0.4149
 5940TIP3    H239380   0.612   4.344   3.978 -0.3035 -0.6921 -0.1126
 5941TIP3   OH239381   1.660   6.218   1.190  0.0828 -0.4380  0.0871
 5941TIP3    H139382   1.746   6.236   1.151  0.9460 -0.2612  2.0008
 5941TIP3    H239383   1.637   6.132   1.156  0.1087  0.2825 -1.9284
 5942TIP3   OH239384   4.118   2.856   2.424  0.1779 -0.4188 -0.1929
 5942TIP3    H139385   4.127   2.899   2.339 -2.1459  0.7246  0.0624
 5942TIP3    H239386   4.056   2.785   2.408 -1.4084  0.6834  0.7646
 5943TIP3   OH239387   0.055   2.647   3.742  0.2861  0.1529 -0.7044
 5943TIP3    H139388   0.136   2.614   3.782 -0.8768 -1.8673  0.1562
 5943TIP3    H239389   0.049   2.600   3.659 -0.8262 -1.0540  0.0222
 5944TIP3   OH239390   2.973   4.999   1.729  0.2514 -0.3845 -0.0738
 5944TIP3    H139391   2.913   5.072   1.718  0.0505 -0.5507 -0.0794
 5944TIP3    H239392   2.973   4.953   1.645  0.1177 -0.5858  0.0334
 5945TIP3   OH239393   4.487   1.646   3.963  0.1120  0.0451 -0.4561
 5945TIP3    H139394   4.408   1.601   3.993  1.1530 -0.6025  1.4704
 5945TIP3    H239395   4.549   1.576   3.943  1.0152  0.5523  0.4611
 5946TIP3   OH239396   0.727   1.191   2.367  0.0895 -0.0342 -0.1444
 5946TIP3    H139397   0.655   1.252   2.354  1.4787  1.4259 -1.2779
 5946TIP3    H239398   0.775   1.225   2.443  1.2015  0.6780 -1.1305
 5947TIP3   OH239399   2.291   4.246   0.408 -0.0382 -0.2595 -0.0855
 5947TIP3    H139400   2.326   4.224   0.495  1.0083  0.4413 -0.3039
 5947TIP3    H239401   2.210   4.292   0.426 -0.5554 -1.3369  0.4667
 5948TIP3   OH239402   3.174   6.539   1.360 -0.3203  0.3110  0.1231
 5948TIP3    H139403   3.210   6.472   1.419 -0.0390  0.5814  0.2645
 5948TIP3    H239404   3.098   6.497   1.319  0.9364 -0.7754 -1.2304
 5949TIP3   OH239405   5.304   5.235   0.864  0.4894 -0.4895  0.6277
 5949TIP3    H139406   5.388   5.193   0.883  0.3034 -0.6380  1.1499
 5949TIP3    H239407   5.248   5.164   0.835  0.3027 -0.5317  1.0860
 5950TIP3   OH239408   0.978   2.896   4.642 -0.3928  0.1961  0.9984
 5950TIP3    H139409   0.933   2.862   4.719  0.0848  0.2918  1.3279
 5950TIP3    H239410   0.944   2.844   4.569 -2.0441  1.1792  1.0188
 5951TIP3   OH239411   5.642   2.493   2.499  0.0891 -0.1321 -0.0380
 5951TIP3    H139412   5.632   2.503   2.404 -1.6555 -0.2924  0.0998
 5951TIP3    H239413   5.652   2.582   2.532  2.0503 -0.1458 -0.4598
 5952TIP3   OH239414   4.152   3.344   1.898  0.3661 -0.6125 -0.0783
 5952TIP3    H139415   4.156   3.297   1.815 -1.3717  1.0892 -1.1892
 5952TIP3    H239416   4.079   3.302   1.945 -0.5450  0.2895 -0.6589
 5953TIP3   OH239417   5.738   0.655   0.113 -0.0403 -0.6822 -0.2732
 5953TIP3    H139418   5.775   0.738   0.084 -1.9523  0.3412  0.1170
 5953TIP3    H239419   5.807   0.591   0.094  2.1063  1.1559  0.7822
 5954TIP3   OH239420   6.194   1.687   1.873 -0.0491 -0.0159  0.0932
 5954TIP3    H139421   6.101   1.678   1.850 -1.0352  4.7868  1.1740
 5954TIP3    H239422   6.195   1.680   1.969  0.7826 -0.3410  0.0669
 5955TIP3   OH239423   1.490   0.055   4.837  0.2093 -0.5883  0.7822
 5955TIP3    H139424   1.495   0.122   4.906  0.0702  1.1187 -0.7882
 5955TIP3    H239425   1.431  -0.011   4.873  1.0986 -0.3896  2.7804
 5956TIP3   OH239426   3.918   1.487   3.124 -0.6260  1.0223 -0.2735
 5956TIP3    H139427   3.948   1.574   3.097 -0.2561  1.7690  2.2668
 5956TIP3    H239428   3.998   1.435   3.128 -0.6186  1.0407 -0.1822
 5957TIP3   OH239429   2.008   2.164   1.101  0.1177  0.2715 -0.6592
 5957TIP3    H139430   1.933   2.223   1.106  0.9373  1.4406 -1.4688
 5957TIP3    H239431   2.049   2.170   1.187 -0.0420  0.5809 -0.6026
 5958TIP3   OH239432   2.216   3.900   0.235 -0.3374  0.3874 -0.2676
 5958TIP3    H139433   2.130   3.939   0.221 -2.0644 -1.6025  3.2657
 5958TIP3    H239434   2.221   3.828   0.173 -0.4635  1.4831 -1.5788
 5959TIP3   OH239435   3.171   6.413   4.435  0.0132  0.6453  0.1688
 5959TIP3    H139436   3.211   6.328   4.456 -2.4960 -1.1256 -1.6536
 5959TIP3    H239437   3.213   6.440   4.353 -1.3647 -0.4852 -0.9562
 5960TIP3   OH239438   4.845   3.649   0.936 -0.0544  0.0391  0.3325
 5960TIP3    H139439   4.830   3.726   0.991 -0.9786  0.3066 -0.2673
 5960TIP3    H239440   4.765   3.640   0.885  0.0728 -1.2673  0.3148
 5961TIP3   OH239441   4.656   3.291   0.948 -0.3992 -0.5212 -0.3630
 5961TIP3    H139442   4.621   3.326   0.866 -1.1274  0.9125  0.5182
 5961TIP3    H239443   4.592   3.225   0.974 -1.7338  1.0065  0.4471
 5962TIP3   OH239444   6.882   6.345   4.581 -0.2348 -0.0693  0.7262
 5962TIP3    H139445   6.915   6.298   4.505 -0.8535 -1.9931  1.5826
 5962TIP3    H239446   6.944   6.323   4.651  0.5059  1.9188  0.7683
 5963TIP3   OH239447   3.635   1.199   4.573  0.3518 -0.4987 -0.4539
 5963TIP3    H139448   3.707   1.154   4.617  0.2583 -2.5198 -2.2190
 5963TIP3    H239449   3.556   1.165   4.616  0.2977 -1.8283 -1.5473
 5964TIP3   OH239450   5.684   0.201   3.598  0.2665 -0.0643  0.0374
 5964TIP3    H139451   5.651   0.278   3.644 -2.7218 -0.5539 -1.0763
 5964TIP3    H239452   5.675   0.129   3.661 -0.6491 -0.1422 -0.1628
 5965TIP3   OH239453   2.014   0.125   3.348  0.1895 -0.0703  0.2224
 5965TIP3    H139454   2.014   0.091   3.259 -0.1756  2.1940 -0.7121
 5965TIP3    H239455   2.080   0.195   3.348 -0.8991  1.0222  1.2646
 5966TIP3   OH239456   0.048   6.450   2.657  0.1892  0.2935  0.2146
 5966TIP3    H139457   0.051   6.380   2.722  1.7150  1.3478  1.3583
 5966TIP3    H239458  -0.027   6.504   2.683 -0.9776 -0.8401 -0.6583
 5967TIP3   OH239459   0.988   2.223   1.267 -0.6111 -0.3443  0.1285
 5967TIP3    H139460   1.039   2.278   1.208  2.4579  0.5300  3.2159
 5967TIP3    H239461   0.958   2.283   1.336 -4.0062 -1.3001 -0.3479
 5968TIP3   OH239462   1.433   2.270   3.918 -0.1148 -0.8047 -0.4243
 5968TIP3    H139463   1.504   2.206   3.914 -0.8286 -1.5915 -0.5848
 5968TIP3    H239464   1.436   2.303   4.008  0.1852 -1.1399 -0.3091
 5969TIP3   OH239465   2.182   1.560   1.214 -0.1961  0.7019  0.1585
 5969TIP3    H139466   2.179   1.656   1.213  1.3830  0.7846 -0.0755
 5969TIP3    H239467   2.276   1.540   1.209 -0.5051 -0.8566  0.3100
 5970TIP3   OH239468   4.644   4.727   4.314 -0.0594 -0.2492  0.3411
 5970TIP3    H139469   4.708   4.777   4.264 -1.4727  1.0580 -0.2345
 5970TIP3    H239470   4.692   4.697   4.391  1.3674  0.2231 -0.3221
 5971TIP3   OH239471   2.716   0.713   4.256  0.1512 -0.6576  0.0323
 5971TIP3    H139472   2.661   0.636   4.266  0.9469 -0.9955  2.6342
 5971TIP3    H239473   2.655   0.787   4.257 -0.3946 -1.0921  1.5579
 5972TIP3   OH239474   0.509   3.281   2.934 -0.0492 -0.0416  0.3909
 5972TIP3    H139475   0.530   3.291   2.841  0.1804  0.8475  0.5258
 5972TIP3    H239476   0.591   3.301   2.979 -0.7019  1.8147  0.8632
 5973TIP3   OH239477   0.851   4.964   3.864 -0.1377  0.1717  0.3399
 5973TIP3    H139478   0.769   4.997   3.900 -0.3804 -0.9170  0.8240
 5973TIP3    H239479   0.916   4.979   3.934 -0.1026  0.2568  0.2890
 5974TIP3   OH239480   5.817   2.275   3.858 -0.0051  0.0631 -0.0256
 5974TIP3    H139481   5.830   2.241   3.946 -0.2586  0.9579  0.3675
 5974TIP3    H239482   5.722   2.278   3.847  0.0110  0.7580 -0.0054
 5975TIP3   OH239483   5.708   5.049   1.288  0.2710  0.1816 -0.2479
 5975TIP3    H139484   5.702   4.954   1.282 -0.8496  0.3085 -1.4717
 5975TIP3    H239485   5.702   5.080   1.197  0.8563  1.4116  0.1030
 5976TIP3   OH239486   6.564   0.562   3.281 -0.6636 -0.0987  0.3379
 5976TIP3    H139487   6.527   0.545   3.194 -1.1644  0.6159  0.4061
 5976TIP3    H239488   6.535   0.651   3.303 -0.9876 -0.4585  1.4578
 5977TIP3   OH239489   6.574   5.815   4.373  0.2448 -0.2786  0.4485
 5977TIP3    H139490   6.646   5.876   4.387  0.6464 -0.4210 -0.8281
 5977TIP3    H239491   6.617   5.730   4.360  0.2406  0.1628 -3.8670
 5978TIP3   OH239492   6.285   4.626   4.071  0.3631  0.3677  0.3405
 5978TIP3    H139493   6.272   4.540   4.032 -0.2881  1.0876 -1.0915
 5978TIP3    H239494   6.242   4.620   4.156  0.1592 -0.6555  0.1777
 5979TIP3   OH239495   1.113   4.130   4.729 -0.7180 -0.2142  0.3831
 5979TIP3    H139496   1.133   4.038   4.712  0.4325 -0.2278  1.6439
 5979TIP3    H239497   1.094   4.134   4.823  1.2721  1.1436  0.7809
 5980TIP3   OH239498   3.956   5.796   4.185  0.2962 -0.1661 -0.6448
 5980TIP3    H139499   4.048   5.795   4.214  0.5330 -1.3105 -1.3761
 5980TIP3    H239500   3.913   5.731   4.240 -0.6239  1.8506  1.2096
 5981TIP3   OH239501   3.847   1.410   1.140  0.6838 -0.2555  0.4347
 5981TIP3    H139502   3.892   1.362   1.071  1.1416 -0.2499  0.7243
 5981TIP3    H239503   3.792   1.474   1.093  1.0194 -0.2255  0.0787
 5982TIP3   OH239504   0.663   6.682   2.764 -0.7010 -0.3274 -0.1094
 5982TIP3    H139505   0.649   6.625   2.840 -0.4376  0.0567  0.2277
 5982TIP3    H239506   0.603   6.755   2.778  0.5149  0.5677  0.5730
 5983TIP3   OH239507   5.405   3.418   3.054 -0.0250  0.3649  0.2340
 5983TIP3    H139508   5.330   3.374   3.095 -0.1621 -1.6971 -2.0397
 5983TIP3    H239509   5.368   3.459   2.975  1.0440  0.2454 -0.3358
 5984TIP3   OH239510   3.504   6.786   2.514  0.3380  0.7855 -0.3404
 5984TIP3    H139511   3.499   6.711   2.574  0.7289  0.3197 -0.8827
 5984TIP3    H239512   3.474   6.861   2.567  1.7964  0.6031  0.8051
 5985TIP3   OH239513   5.070   3.054   2.186 -0.1708 -0.2660  0.0622
 5985TIP3    H139514   4.987   3.071   2.141 -0.1450 -0.6791 -0.1498
 5985TIP3    H239515   5.077   2.958   2.187  0.0440 -0.2470  0.5558
 5986TIP3   OH239516   3.986   0.915   2.878  0.1503  0.0604  0.2295
 5986TIP3    H139517   4.048   0.879   2.942 -1.2422 -0.2327  1.4619
 5986TIP3    H239518   3.902   0.917   2.924 -0.6052  1.2479 -1.1107
 5987TIP3   OH239519   4.045   1.675   1.662 -0.1290 -0.1379 -0.0420
 5987TIP3    H139520   4.130   1.703   1.697  0.4961 -1.3049 -0.5351
 5987TIP3    H239521   4.060   1.667   1.568 -0.9104  0.0508 -0.1869
 5988TIP3   OH239522   4.980   1.082   2.035 -0.3569 -0.5148  0.3122
 5988TIP3    H139523   5.043   1.067   2.105 -1.0064 -2.3138  0.5801
 5988TIP3    H239524   4.933   0.999   2.028  0.5692 -0.8848 -3.1431
 5989TIP3   OH239525   5.349   4.818   2.176  0.0276 -0.0417 -0.0324
 5989TIP3    H139526   5.395   4.735   2.163  1.3924  0.6566  0.1693
 5989TIP3    H239527   5.417   4.879   2.204 -1.2313  0.7616  1.3982
 5990TIP3   OH239528   0.390   3.685   2.667 -0.5001  0.6485 -0.0515
 5990TIP3    H139529   0.425   3.723   2.586 -0.8657  0.5276 -0.2675
 5990TIP3    H239530   0.323   3.623   2.638  1.0304 -1.2368  0.2075
 5991TIP3   OH239531   4.108   5.466   4.274  0.4865  0.5114  0.6053
 5991TIP3    H139532   4.034   5.503   4.323  1.1493  1.0366  1.2203
 5991TIP3    H239533   4.186   5.500   4.318  1.1442  2.2483 -1.6988
 5992TIP3   OH239534   2.411   1.372   2.746  0.5528 -0.1346  0.0009
 5992TIP3    H139535   2.338   1.330   2.701 -0.3154  1.4626 -0.1694
 5992TIP3    H239536   2.394   1.358   2.839  1.0143 -1.3001 -0.0743
 5993TIP3   OH239537   1.865   0.802   0.653 -0.4075  0.0951  0.1939
 5993TIP3    H139538   1.896   0.712   0.646 -0.6852  0.1236 -2.5034
 5993TIP3    H239539   1.873   0.823   0.746  0.0494 -2.5519  0.8432
 5994TIP3   OH239540   0.049   6.621   3.672  0.0842  0.5493  0.4339
 5994TIP3    H139541   0.052   6.701   3.724  2.9393  1.1002 -0.3899
 5994TIP3    H239542   0.068   6.650   3.583  1.2453 -1.0078  0.1270
 5995TIP3   OH239543   0.380   5.168   2.677  0.0187 -0.3365 -0.0326
 5995TIP3    H139544   0.376   5.194   2.585  2.0316 -2.8582 -0.9691
 5995TIP3    H239545   0.408   5.247   2.723  0.1627  0.6724 -1.7494
 5996TIP3   OH239546   5.267   6.470   0.117  0.0773 -0.3107 -0.0192
 5996TIP3    H139547   5.226   6.512   0.041  0.0223 -0.9378 -0.3434
 5996TIP3    H239548   5.350   6.436   0.083  0.8323  0.8496  0.6043
 5997TIP3   OH239549   1.822   5.871   2.891  0.5296 -0.3214  0.1283
 5997TIP3    H139550   1.764   5.947   2.893 -0.1809 -0.5811 -3.3673
 5997TIP3    H239551   1.889   5.890   2.957 -1.1079  2.0293  1.2586
 5998TIP3   OH239552   6.388   1.265   3.474 -0.4604 -0.1092  0.0624
 5998TIP3    H139553   6.339   1.299   3.549  2.1952  0.7329  1.5439
 5998TIP3    H239554   6.357   1.175   3.465 -2.9677  0.6689  0.2272
 5999TIP3   OH239555   2.867   0.414   1.444 -0.4135  0.0218  0.7479
 5999TIP3    H139556   2.810   0.408   1.520  0.3102 -1.3896  1.2100
 5999TIP3    H239557   2.956   0.403   1.478 -0.1779 -2.3963 -0.4435
 6000TIP3   OH239558   0.426   0.268   3.509 -0.2641 -0.0419  0.1672
 6000TIP3    H139559   0.458   0.303   3.592 -0.5734 -0.6461  0.5447
 6000TIP3    H239560   0.357   0.207   3.533  0.3028 -0.9626 -0.4792
 6001TIP3   OH239561   2.115   5.198   3.823  0.2841 -0.2051  0.5759
 6001TIP3    H139562   2.113   5.126   3.759 -1.5868 -0.2004  0.5751
 6001TIP3    H239563   2.069   5.270   3.779 -0.8320 -0.1240  1.7936
 6002TIP3   OH239564   2.323   2.633   2.530 -0.0250 -0.1816  0.2557
 6002TIP3    H139565   2.350   2.630   2.622  3.4371 -0.3803 -0.6487
 6002TIP3    H239566   2.261   2.706   2.526  0.3541  0.3555  2.5869
 6003TIP3   OH239567   2.651   2.888   2.756  0.1189 -0.0545 -0.1644
 6003TIP3    H139568   2.670   2.803   2.794 -0.6125  0.6752  1.9422
 6003TIP3    H239569   2.693   2.951   2.815 -0.8687  1.1193 -0.6712
 6004TIP3   OH239570   5.481   1.986   4.241 -0.8074 -0.1372 -0.4971
 6004TIP3    H139571   5.403   1.939   4.269  0.4919 -2.0897  0.0620
 6004TIP3    H239572   5.452   2.039   4.166 -2.4330 -1.6011 -0.9708
 6005TIP3   OH239573   2.130   5.635   2.574 -0.1697  0.3912  0.0305
 6005TIP3    H139574   2.172   5.706   2.624  1.0509 -1.0169  1.1057
 6005TIP3    H239575   2.040   5.633   2.605 -0.9035  2.8836 -1.6444
 6006TIP3   OH239576   6.674   4.102   2.328  0.2434 -0.0168 -1.2993
 6006TIP3    H139577   6.601   4.045   2.352  1.3744 -1.4753 -1.1699
 6006TIP3    H239578   6.741   4.083   2.393  1.7089 -0.6958 -2.9270
 6007TIP3   OH239579   0.111   2.463   2.312 -1.1622  0.1730 -0.0525
 6007TIP3    H139580   0.094   2.519   2.388 -1.0337 -1.3187  1.1423
 6007TIP3    H239581   0.190   2.499   2.272 -0.1862 -0.0283  1.5948
 6008TIP3   OH239582   1.461   0.901   1.673  0.1571 -0.1346  0.0039
 6008TIP3    H139583   1.370   0.899   1.644  0.3564 -0.1765 -0.6273
 6008TIP3    H239584   1.466   0.832   1.739 -0.1518 -0.4611 -0.3083
 6009TIP3   OH239585   5.973   5.944   2.633  0.2248 -0.3150  0.1185
 6009TIP3    H139586   6.012   5.863   2.601 -1.4579 -0.4137 -1.8539
 6009TIP3    H239587   6.046   5.992   2.673  1.5968 -1.9893 -0.2733
 6010TIP3   OH239588   4.471   0.046   2.304 -0.2436  0.1403 -0.0481
 6010TIP3    H139589   4.375   0.047   2.297 -0.2332 -0.5203 -0.3390
 6010TIP3    H239590   4.498   0.134   2.278 -0.7378  0.1737 -0.4698
 6011TIP3   OH239591   2.474   2.018   0.178  0.7839  0.4847  0.0681
 6011TIP3    H139592   2.484   1.941   0.122 -0.0063  0.1125  0.4288
 6011TIP3    H239593   2.551   2.015   0.235  1.7385  1.0096 -1.1305
 6012TIP3   OH239594   0.324   6.271   1.068 -0.5678 -0.7825 -0.0977
 6012TIP3    H139595   0.275   6.193   1.097  0.0813 -1.3039 -0.3853
 6012TIP3    H239596   0.267   6.312   1.003 -0.0517 -2.1718 -1.5009
 6013TIP3   OH239597   2.560   4.817   3.631 -0.5964 -0.3373  0.1060
 6013TIP3    H139598   2.562   4.858   3.545  0.8197  1.1081  0.7762
 6013TIP3    H239599   2.618   4.741   3.624 -1.7869 -1.2152 -0.6302
 6014TIP3   OH239600   3.060   4.223   4.832  0.0436 -0.0101  0.1921
 6014TIP3    H139601   3.065   4.273   4.751 -0.8822 -1.9519 -1.1218
 6014TIP3    H239602   3.150   4.192   4.847 -0.4261 -3.2244 -2.5544
 6015TIP3   OH239603   6.909   4.083   1.534 -0.0472 -0.3939  0.3945
 6015TIP3    H139604   6.892   4.176   1.525 -1.3407 -0.7645 -2.0627
 6015TIP3    H239605   6.941   4.072   1.624  0.2427  2.3834  0.7119
 6016TIP3   OH239606   0.838   3.182   2.093 -0.0041 -0.0771  0.7780
 6016TIP3    H139607   0.770   3.132   2.049 -0.1379  1.8313 -1.3485
 6016TIP3    H239608   0.905   3.197   2.026  1.0757  0.6785  1.9591
 6017TIP3   OH239609   0.195   6.127   3.733 -0.7628 -0.0435  0.1571
 6017TIP3    H139610   0.226   6.069   3.802  0.4000  0.2190 -0.1175
 6017TIP3    H239611   0.197   6.214   3.773  1.1683  0.2985 -0.5325
 6018TIP3   OH239612   4.359   6.780   3.358 -0.4701 -0.3587  0.0808
 6018TIP3    H139613   4.323   6.697   3.389  0.2684 -0.8963 -0.4659
 6018TIP3    H239614   4.454   6.768   3.362 -0.3453  0.6167  0.3878
 6019TIP3   OH239615   2.452   1.714   0.052 -0.3306  0.2287  0.0978
 6019TIP3    H139616   2.425   1.630   0.089 -0.1907  0.5968  1.0583
 6019TIP3    H239617   2.493   1.691  -0.032  0.0073 -0.6836  0.4962
 6020TIP3   OH239618   4.685   4.332   2.986  0.0074  0.6267  0.0704
 6020TIP3    H139619   4.644   4.357   2.903  0.9836  0.7060 -0.4010
 6020TIP3    H239620   4.762   4.388   2.992  0.2691  0.1964  0.7417
 6021TIP3   OH239621   5.121   3.976   2.116  0.0555 -0.2943 -0.2127
 6021TIP3    H139622   5.148   3.975   2.207 -0.8723  1.1685  0.1150
 6021TIP3    H239623   5.170   4.050   2.078 -0.4504 -0.1510 -0.5934
 6022TIP3   OH239624   6.064   1.367   1.599 -0.6907  0.1812  0.4265
 6022TIP3    H139625   6.137   1.425   1.579 -1.3143  0.2523 -1.8801
 6022TIP3    H239626   6.060   1.307   1.525 -3.0528  0.2633  0.4071
 6023TIP3   OH239627   3.073   0.235   0.805  0.0755 -0.6045 -0.1471
 6023TIP3    H139628   3.153   0.183   0.816  1.0315  0.9897  0.8798
 6023TIP3    H239629   3.044   0.252   0.895 -1.2970 -0.9366 -0.5069
 6024TIP3   OH239630   0.203   6.417   2.443  0.3786  0.2338 -0.1198
 6024TIP3    H139631   0.245   6.331   2.432 -1.5043 -0.9206  0.9938
 6024TIP3    H239632   0.159   6.411   2.528 -0.9490  1.7961 -0.6386
 6025TIP3   OH239633   0.394   4.639   2.500 -0.4015 -0.0994  0.1745
 6025TIP3    H139634   0.449   4.561   2.498  0.0926  0.1849  1.7575
 6025TIP3    H239635   0.304   4.605   2.497 -0.2437 -0.5545 -2.8982
 6026TIP3   OH239636   5.338   3.938   4.375 -0.4643  0.5744  0.3270
 6026TIP3    H139637   5.254   3.939   4.328  0.4496 -0.4303 -1.4261
 6026TIP3    H239638   5.319   3.982   4.458 -2.6350  0.6868 -0.1592
 6027TIP3   OH239639   0.923   4.509   1.847 -0.5866  0.3391 -0.2453
 6027TIP3    H139640   0.954   4.599   1.851  1.2500 -0.2854  0.7508
 6027TIP3    H239641   0.854   4.504   1.913 -1.2804  1.1699 -0.8673
 6028TIP3   OH239642   6.856   0.488   2.149  0.4509 -0.3810 -0.2245
 6028TIP3    H139643   6.798   0.538   2.091  0.9915  0.5660  0.0419
 6028TIP3    H239644   6.941   0.488   2.104  0.8068  0.1394  0.4293
 6029TIP3   OH239645   6.702   1.905   2.326  0.2861 -0.1373  0.0261
 6029TIP3    H139646   6.710   1.810   2.326 -1.0092 -0.2699  0.1725
 6029TIP3    H239647   6.621   1.922   2.374 -0.1666  0.9676 -1.0755
 6030TIP3   OH239648   5.400   2.001   1.057 -0.1842  0.0059  0.2794
 6030TIP3    H139649   5.364   1.997   1.146 -2.3946  0.8691 -0.4886
 6030TIP3    H239650   5.460   2.076   1.058  0.0889 -0.2221  1.1403
 6031TIP3   OH239651   0.279   4.632   0.873 -0.2399 -0.1544 -0.5938
 6031TIP3    H139652   0.230   4.566   0.823  0.6845 -1.7915  0.5832
 6031TIP3    H239653   0.322   4.582   0.942 -0.3734  1.8564  1.0124
 6032TIP3   OH239654   5.307   4.013   1.423 -0.1048 -0.1210 -0.0283
 6032TIP3    H139655   5.361   4.091   1.413 -1.3342  0.8065  0.2574
 6032TIP3    H239656   5.228   4.045   1.468 -0.0861 -1.7638  1.2741
 6033TIP3   OH239657   3.209   0.700   0.730  0.0423  0.4705 -0.0761
 6033TIP3    H139658   3.119   0.732   0.725 -0.7688 -1.3523  1.3632
 6033TIP3    H239659   3.211   0.645   0.809  1.6121 -1.8967 -1.5958
 6034TIP3   OH239660   0.168   3.755   1.487 -0.4846  0.0994 -0.0113
 6034TIP3    H139661   0.085   3.709   1.476  0.1753 -1.2077  0.2700
 6034TIP3    H239662   0.177   3.767   1.582 -0.5815  0.6983 -0.0723
 6035TIP3   OH239663   3.885   5.918   1.463 -0.1386  0.3926  0.5219
 6035TIP3    H139664   3.816   5.950   1.520 -0.7577 -1.5809  0.9490
 6035TIP3    H239665   3.842   5.856   1.404  1.1050 -0.3012  0.2928
 6036TIP3   OH239666   2.033   2.453   2.056  0.5966  0.7195 -0.1032
 6036TIP3    H139667   2.013   2.452   1.963  0.4136  1.0216 -0.0702
 6036TIP3    H239668   2.122   2.486   2.062  0.5445  0.8712 -0.1615
 6037TIP3   OH239669   2.988   4.046   2.420  0.1460  0.3832  0.2110
 6037TIP3    H139670   2.957   3.961   2.389 -0.1095  0.2762  0.7409
 6037TIP3    H239671   2.990   4.101   2.342 -2.1929  0.6428  0.2731
 6038TIP3   OH239672   2.887   1.689   2.387 -0.0059 -0.2643  0.3435
 6038TIP3    H139673   2.819   1.621   2.382  0.2190 -0.5461  0.9624
 6038TIP3    H239674   2.962   1.644   2.426  0.0550  0.4097  1.0263
 6039TIP3   OH239675   0.147   3.179   4.767 -0.6699  0.4459  0.1243
 6039TIP3    H139676   0.191   3.142   4.843 -0.9674 -1.9355 -0.7736
 6039TIP3    H239677   0.072   3.227   4.803 -0.2927  0.1322  1.3699
 6040TIP3   OH239678   2.484   2.284   0.685  0.0925 -0.0541  0.1740
 6040TIP3    H139679   2.458   2.315   0.599  0.3283 -0.2341  0.0367
 6040TIP3    H239680   2.408   2.235   0.717 -0.1242  0.3007  0.2170
 6041TIP3   OH239681   2.903   2.198   0.587  0.3695  0.0327  0.5451
 6041TIP3    H139682   2.948   2.145   0.521  2.2512  2.4372 -0.2767
 6041TIP3    H239683   2.963   2.198   0.662 -0.0563  0.2362  0.8912
 6042TIP3   OH239684   4.267   2.603   0.319 -0.0942 -0.0228  0.1295
 6042TIP3    H139685   4.219   2.565   0.245 -0.6304 -0.4918  0.6989
 6042TIP3    H239686   4.359   2.582   0.302 -0.0398  1.1524 -1.1330
 6043TIP3   OH239687   5.067   5.878   2.610 -0.0255  0.4322  0.1044
 6043TIP3    H139688   5.101   5.793   2.580 -1.0180  0.0342  0.0684
 6043TIP3    H239689   5.139   5.939   2.596  0.2815 -0.1670 -1.0280
 6044TIP3   OH239690   6.702   3.693   2.205 -0.0829  0.1249  0.0348
 6044TIP3    H139691   6.776   3.747   2.179  0.1427 -0.2310 -0.0662
 6044TIP3    H239692   6.708   3.616   2.149 -0.9571  0.4289 -0.5017
 6045TIP3   OH239693   5.194   1.336   2.952 -0.5192  0.7075 -0.3217
 6045TIP3    H139694   5.187   1.429   2.931  0.4475  0.4828 -1.7888
 6045TIP3    H239695   5.109   1.299   2.925 -0.9521  1.1722  0.3834
 6046TIP3   OH239696   3.284   3.925   2.174  0.0509 -0.1235 -0.2075
 6046TIP3    H139697   3.374   3.894   2.177  0.2957  0.4895 -0.7613
 6046TIP3    H239698   3.255   3.924   2.265  0.0595 -1.8677 -0.1962
 6047TIP3   OH239699   0.516   3.915   0.614 -0.3554  0.4070  0.1751
 6047TIP3    H139700   0.432   3.950   0.582  0.2566  1.1630 -0.6587
 6047TIP3    H239701   0.568   3.902   0.535  0.3181 -0.0580  0.6857
 6048TIP3   OH239702   4.280   1.649   1.025 -0.1587 -0.4690 -0.0171
 6048TIP3    H139703   4.328   1.654   0.943 -0.2277  0.1002 -0.0263
 6048TIP3    H239704   4.188   1.649   0.998 -0.1766 -1.2086  0.0174
 6049TIP3   OH239705   2.674   5.113   0.049 -0.5822 -0.4931  0.5305
 6049TIP3    H139706   2.694   5.206   0.038 -0.8405  0.0113  3.5659
 6049TIP3    H239707   2.757   5.073   0.074 -0.6792 -0.9370  0.1705
 6050TIP3   OH239708   2.806   1.286   1.983  0.6137 -0.1198 -0.5389
 6050TIP3    H139709   2.879   1.330   2.026  1.1645 -0.6035 -0.9642
 6050TIP3    H239710   2.814   1.312   1.891  0.8968 -1.0350 -0.7760
 6051TIP3   OH239711   1.728   0.916   1.656 -0.1885  0.4094 -0.0646
 6051TIP3    H139712   1.763   0.859   1.724  0.6528  1.8377  0.7446
 6051TIP3    H239713   1.634   0.914   1.669  0.0012  1.2254  1.6227
 6052TIP3   OH239714   5.404   4.929   0.627 -0.1772  0.9918  0.4087
 6052TIP3    H139715   5.372   4.849   0.584 -0.6195  1.8664 -0.9699
 6052TIP3    H239716   5.499   4.922   0.622 -0.1335 -0.5285  2.4277
 6053TIP3   OH239717   0.670   3.465   1.282 -0.2466  0.3513 -0.5177
 6053TIP3    H139718   0.597   3.488   1.224  0.1278  0.7246 -0.8468
 6053TIP3    H239719   0.630   3.410   1.350 -0.9916  1.2230 -0.2265
 6054TIP3   OH239720   6.903   4.884   2.656 -0.2571  0.0913  0.0095
 6054TIP3    H139721   6.832   4.928   2.610 -0.1373 -1.6684 -2.0291
 6054TIP3    H239722   6.860   4.815   2.707 -0.0737 -1.1034 -1.3815
 6055TIP3   OH239723   1.795   2.571   2.288  0.3090  0.3452 -0.0746
 6055TIP3    H139724   1.724   2.610   2.237  3.3325  3.6357 -2.3209
 6055TIP3    H239725   1.823   2.641   2.347  0.9490 -1.2926  1.6594
 6056TIP3   OH239726   5.286   4.550   2.350 -0.5666 -0.0015 -0.4935
 6056TIP3    H139727   5.266   4.458   2.366 -0.4553  0.3831  2.2766
 6056TIP3    H239728   5.200   4.591   2.335 -1.0922  0.0652  2.2420
 6057TIP3   OH239729   4.476   6.167   0.896 -0.2490 -0.0325 -0.3404
 6057TIP3    H139730   4.481   6.148   0.990 -0.0364  1.2636 -0.0832
 6057TIP3    H239731   4.391   6.131   0.870 -1.5014  1.8426  0.9116
 6058TIP3   OH239732   0.788   4.640   2.970  0.1118 -0.1800 -0.0926
 6058TIP3    H139733   0.734   4.669   2.896  1.0526 -0.4566 -0.9068
 6058TIP3    H239734   0.734   4.576   3.016  0.0805 -1.2001 -1.4674
 6059TIP3   OH239735   4.528   4.358   3.650 -0.3845  0.1861 -0.1144
 6059TIP3    H139736   4.506   4.334   3.740 -0.4002 -2.7835 -0.8091
 6059TIP3    H239737   4.617   4.392   3.656 -1.1071  2.0159  1.2408
 6060TIP3   OH239738   4.447   2.095   3.032  0.1046  0.1399 -0.1306
 6060TIP3    H139739   4.499   2.052   3.100 -0.4467  0.2493  0.3672
 6060TIP3    H239740   4.483   2.061   2.950 -0.0977 -1.0232  0.2397
 6061TIP3   OH239741   1.704   1.386   3.410 -0.8755  0.2846 -0.2818
 6061TIP3    H139742   1.634   1.398   3.474  0.0177  0.1691  0.7673
 6061TIP3    H239743   1.779   1.434   3.448  0.0408 -0.8400 -0.6059
 6062TIP3   OH239744   4.303   3.692   3.409 -0.1302 -0.0047 -0.0002
 6062TIP3    H139745   4.214   3.697   3.373  0.1069  0.4268 -0.5431
 6062TIP3    H239746   4.335   3.606   3.381  0.4966  0.7917 -1.9415
 6063TIP3   OH239747   3.475   1.684   3.580 -0.0196 -0.2880  0.4827
 6063TIP3    H139748   3.526   1.737   3.519  1.4604 -2.0512  0.0864
 6063TIP3    H239749   3.412   1.638   3.525 -0.6120  0.2599  0.6900
 6064TIP3   OH239750   6.560   4.896   2.094 -0.0837 -0.5385  0.1826
 6064TIP3    H139751   6.627   4.862   2.154  0.1490  0.3211  0.4149
 6064TIP3    H239752   6.580   4.989   2.085 -0.5041 -0.5242 -0.7269
 6065TIP3   OH239753   3.429   4.300   0.570  0.1847 -0.3503 -0.0952
 6065TIP3    H139754   3.514   4.282   0.530  0.2036  0.6801 -0.5563
 6065TIP3    H239755   3.443   4.291   0.664  0.7347 -0.4729 -0.1888
 6066TIP3   OH239756   3.884   6.324   0.472 -0.7849 -0.1358  0.5922
 6066TIP3    H139757   3.812   6.385   0.454 -0.6874  0.1070  0.9911
 6066TIP3    H239758   3.945   6.375   0.526  0.1057 -0.0600 -0.4431
 6067TIP3   OH239759   1.684   2.231   2.831  0.8684 -0.2224  0.7940
 6067TIP3    H139760   1.639   2.151   2.805 -0.1986  0.7360 -0.4905
 6067TIP3    H239761   1.662   2.294   2.762  1.5989  1.1988  1.8089
 6068TIP3   OH239762   6.444   1.449   0.987  0.0881 -0.3691 -0.5626
 6068TIP3    H139763   6.538   1.435   0.971  0.7357  2.0872  0.5375
 6068TIP3    H239764   6.438   1.464   1.081 -1.3586 -0.0231 -0.6916
 6069TIP3   OH239765   6.580   0.211   0.838  0.0114  0.3198 -0.0639
 6069TIP3    H139766   6.632   0.190   0.759 -1.0278 -1.5580 -0.3059
 6069TIP3    H239767   6.617   0.154   0.906 -0.7743  0.0417  0.1318
 6070TIP3   OH239768   0.887   1.785   0.093  0.3552 -0.0867 -0.1666
 6070TIP3    H139769   0.971   1.765   0.134  0.2020 -1.1808 -0.3508
 6070TIP3    H239770   0.887   1.733   0.012  0.8661  2.3970 -1.8698
 6071TIP3   OH239771   6.546   5.991   1.955 -0.2864 -0.1438 -0.7529
 6071TIP3    H139772   6.574   6.067   1.904 -0.4197 -0.9642 -2.0687
 6071TIP3    H239773   6.595   5.999   2.038  0.1226  1.0619 -1.0888
 6072TIP3   OH239774   6.237   6.606   2.052  0.2127  0.5764  0.3677
 6072TIP3    H139775   6.202   6.567   2.132 -0.1514  2.0491  0.9589
 6072TIP3    H239776   6.282   6.685   2.082 -0.9992  1.8444 -0.9970
 6073TIP3   OH239777   0.369   4.105   0.435  0.3902  0.1424  0.2263
 6073TIP3    H139778   0.334   4.193   0.422  0.8570  0.6324  2.0095
 6073TIP3    H239779   0.293   4.048   0.430 -0.0392  0.7314 -0.1252
 6074TIP3   OH239780   2.678   3.369   4.280  0.0948 -0.0731  0.7479
 6074TIP3    H139781   2.689   3.365   4.185 -0.4191 -0.6073  0.7049
 6074TIP3    H239782   2.643   3.283   4.303 -0.2067  0.2133  1.3651
 6075TIP3   OH239783   2.866   2.984   1.280  0.2335  0.3397  0.0854
 6075TIP3    H139784   2.915   2.939   1.348  0.0037 -1.3428 -0.8180
 6075TIP3    H239785   2.799   3.034   1.327  0.4777 -0.2817  1.1104
 6076TIP3   OH239786   2.375   2.813   1.743  0.0138 -0.2155  0.3037
 6076TIP3    H139787   2.379   2.864   1.824 -0.5770  0.9063 -0.3515
 6076TIP3    H239788   2.448   2.751   1.751  0.6768  0.6310  1.1915
 6077TIP3   OH239789   1.350   0.778   3.356 -0.2489  0.4775  0.2870
 6077TIP3    H139790   1.263   0.781   3.316  0.2675 -1.0659 -1.0640
 6077TIP3    H239791   1.383   0.868   3.348 -0.4522  0.3940 -2.2228
 6078TIP3   OH239792   5.817   3.828   4.276  0.4767  0.3621 -0.1902
 6078TIP3    H139793   5.782   3.910   4.310 -1.4232 -0.7091  0.5371
 6078TIP3    H239794   5.890   3.807   4.335 -1.2831 -0.2648  1.8699
 6079TIP3   OH239795   0.581   6.449   2.175  0.2765  0.0228  0.5643
 6079TIP3    H139796   0.561   6.375   2.233 -3.2900 -0.1862 -0.6470
 6079TIP3    H239797   0.540   6.524   2.218  0.7383  0.5712  0.0528
 6080TIP3   OH239798   4.171   2.006   0.784 -0.1346  0.8308 -0.0954
 6080TIP3    H139799   4.169   1.912   0.766  0.0718  0.4774  1.5211
 6080TIP3    H239800   4.264   2.027   0.790 -0.1642  0.6027  1.8637
 6081TIP3   OH239801   4.994   4.656   2.666  0.4108  0.6190  0.2416
 6081TIP3    H139802   5.054   4.684   2.734  0.9302  0.7245 -0.2520
 6081TIP3    H239803   5.009   4.562   2.658  2.0717  0.9500 -1.3320
 6082TIP3   OH239804   1.878   4.228   2.986 -0.4130 -0.1888  0.3809
 6082TIP3    H139805   1.854   4.319   2.972  0.6084  0.0454  0.0551
 6082TIP3    H239806   1.959   4.231   3.037 -0.9095 -0.9386  1.2400
 6083TIP3   OH239807   0.018   5.367   2.905  0.4973  0.1684  0.0980
 6083TIP3    H139808   0.067   5.421   2.842  1.7761  3.4300  3.5084
 6083TIP3    H239809  -0.074   5.378   2.880  0.6004  4.6552  0.8280
 6084TIP3   OH239810   0.683   4.158   2.985  0.1788 -0.4961 -0.0419
 6084TIP3    H139811   0.653   4.068   2.972  2.5255 -1.6038  1.5900
 6084TIP3    H239812   0.720   4.159   3.073 -0.6509  2.3729  0.3889
 6085TIP3   OH239813   6.594   5.721   1.959 -0.1218 -0.5806 -0.6603
 6085TIP3    H139814   6.629   5.704   2.047  0.2247 -1.5606 -0.9714
 6085TIP3    H239815   6.610   5.814   1.944  0.1486 -0.4860  0.1725
 6086TIP3   OH239816   4.731   5.519   1.092  0.3089 -0.0157 -0.0744
 6086TIP3    H139817   4.703   5.430   1.113 -2.3838  0.8289  0.3154
 6086TIP3    H239818   4.758   5.515   1.000  1.9065 -1.5331  0.4030
 6087TIP3   OH239819   1.149   5.618   1.500  0.5247 -0.2594 -0.1061
 6087TIP3    H139820   1.112   5.550   1.445 -1.8055  0.2185  0.7324
 6087TIP3    H239821   1.120   5.596   1.589  0.7890  1.0983  0.3528
 6088TIP3   OH239822   2.129   2.925   4.494  0.5699  0.0188 -0.5699
 6088TIP3    H139823   2.129   2.902   4.587  2.7063  2.7040  0.2577
 6088TIP3    H239824   2.056   2.986   4.484 -0.3141 -1.0798 -0.9341
 6089TIP3   OH239825   0.771   5.130   0.841  0.2847 -0.3742 -0.0984
 6089TIP3    H139826   0.770   5.038   0.869 -2.6302  0.0042  1.3573
 6089TIP3    H239827   0.777   5.125   0.745 -2.7723 -2.2893 -0.3183
 6090TIP3   OH239828   4.817   5.851   1.455 -0.4452  0.0733 -0.2405
 6090TIP3    H139829   4.887   5.794   1.424 -1.0145 -0.6102 -0.3070
 6090TIP3    H239830   4.856   5.939   1.458 -0.1909  0.0864 -2.3828
 6091TIP3   OH239831   5.342   2.066   2.629 -0.6029  0.2860  0.4540
 6091TIP3    H139832   5.402   2.027   2.692 -0.3597 -0.5122 -0.2543
 6091TIP3    H239833   5.397   2.089   2.554 -1.4200 -2.4578 -1.1253
 6092TIP3   OH239834   0.444   3.106   1.273  0.7313  0.3771  1.2169
 6092TIP3    H139835   0.533   3.111   1.239  0.9895 -4.6816  0.4154
 6092TIP3    H239836   0.455   3.103   1.368  1.2376  0.9871  1.1904
 6093TIP3   OH239837   5.584   0.727   3.576 -0.3798 -0.0391 -0.3263
 6093TIP3    H139838   5.607   0.673   3.652  0.0667 -0.0278 -0.4494
 6093TIP3    H239839   5.602   0.817   3.604  1.0652 -0.1285 -0.8768
 6094TIP3   OH239840   4.499   3.003   2.368  1.4786  0.2529 -0.4977
 6094TIP3    H139841   4.421   2.962   2.405  1.7932  0.0162 -0.0879
 6094TIP3    H239842   4.466   3.072   2.311  0.9970  1.7523  1.5018
 6095TIP3   OH239843   4.614   2.861   1.703  0.9995 -0.4038 -0.0495
 6095TIP3    H139844   4.696   2.888   1.745  0.5639  0.2304  0.4226
 6095TIP3    H239845   4.583   2.787   1.756  0.4564  0.3867  0.7726
 6096TIP3   OH239846   6.692   1.220   1.379 -0.1636  0.3367  0.0838
 6096TIP3    H139847   6.633   1.157   1.336 -0.5095 -0.2323  1.3374
 6096TIP3    H239848   6.778   1.178   1.375  0.4388  1.6094 -2.6432
 6097TIP3   OH239849   5.914   6.307   1.062  0.6952 -0.1508  0.3292
 6097TIP3    H139850   5.971   6.271   0.993  2.0071 -0.7605  1.6527
 6097TIP3    H239851   5.973   6.361   1.116 -0.1150 -0.2575  1.3603
 6098TIP3   OH239852   6.092   0.462   1.721 -0.2385  0.1760  0.1517
 6098TIP3    H139853   6.127   0.373   1.722 -0.7472 -0.0481  2.0439
 6098TIP3    H239854   6.092   0.487   1.629  1.0552 -1.3188 -0.2932
 6099TIP3   OH239855   5.544   2.533   1.071  0.0534 -0.1789  0.9423
 6099TIP3    H139856   5.450   2.546   1.088  0.1291 -0.8626  1.9336
 6099TIP3    H239857   5.588   2.598   1.125  0.1236  1.0249 -0.5145
 6100TIP3   OH239858   1.830   1.158   3.729  0.4006 -0.2218 -0.1943
 6100TIP3    H139859   1.738   1.186   3.734  0.5233  0.0754  0.3797
 6100TIP3    H239860   1.849   1.160   3.635 -0.6857 -1.9382 -0.4988
 6101TIP3   OH239861   6.149   6.189   2.084 -0.5510  0.0425  0.1614
 6101TIP3    H139862   6.205   6.120   2.119  0.2550  0.4856 -0.2136
 6101TIP3    H239863   6.196   6.270   2.104 -0.2624  0.3381 -1.5265
 6102TIP3   OH239864   2.823   0.346   4.034  0.4228  0.5714 -0.1840
 6102TIP3    H139865   2.734   0.322   4.008  0.1353  1.9606 -0.5778
 6102TIP3    H239866   2.832   0.312   4.123 -0.1072 -0.5206 -0.5335
 6103TIP3   OH239867   2.210   5.233   2.666  0.3299  0.3869 -0.1813
 6103TIP3    H139868   2.154   5.271   2.734  0.2957  0.9623 -0.5258
 6103TIP3    H239869   2.224   5.143   2.694 -0.4278  0.3566  0.1209
 6104TIP3   OH239870   0.736   1.234   3.507 -1.0192  0.2731 -0.2173
 6104TIP3    H139871   0.787   1.232   3.588  0.7646  2.2699 -1.2060
 6104TIP3    H239872   0.692   1.319   3.509  0.5651  1.2142 -2.1527
 6105TIP3   OH239873   3.261   5.826   3.848  0.1950 -1.0561 -0.4022
 6105TIP3    H139874   3.343   5.810   3.801  1.7065  1.3324  1.1941
 6105TIP3    H239875   3.211   5.885   3.791  1.0833  0.1312  0.0176
 6106TIP3   OH239876   5.917   6.754   0.283 -0.2081  0.0418  0.1189
 6106TIP3    H139877   5.910   6.660   0.302  2.6880 -0.3077 -0.0584
 6106TIP3    H239878   6.003   6.764   0.243 -1.1847  2.5545 -1.5928
 6107TIP3   OH239879   2.870   2.119   4.149 -0.1899 -0.1909  0.6461
 6107TIP3    H139880   2.874   2.196   4.206 -1.8975  0.0913  0.4560
 6107TIP3    H239881   2.782   2.122   4.112  0.4310 -1.1003 -0.9981
 6108TIP3   OH239882   0.885   6.052   3.679 -0.2189  0.0691  0.3934
 6108TIP3    H139883   0.859   6.125   3.735  1.5810  0.5456  0.6605
 6108TIP3    H239884   0.816   6.048   3.613  0.1402  2.7678 -0.2880
 6109TIP3   OH239885   2.959   1.427   4.225 -0.1459 -0.2072  0.4441
 6109TIP3    H139886   2.874   1.383   4.230 -0.3894  0.3367  1.3120
 6109TIP3    H239887   3.015   1.366   4.177 -1.5853  0.3271 -2.1025
 6110TIP3   OH239888   6.186   2.383   3.974 -0.0142  0.2027 -0.1049
 6110TIP3    H139889   6.260   2.435   4.005  0.7650 -1.4781  1.0161
 6110TIP3    H239890   6.153   2.339   4.053 -0.3715 -1.3161 -1.0589
 6111TIP3   OH239891   3.768   4.105   4.260 -0.2414  1.0913 -0.2179
 6111TIP3    H139892   3.793   4.197   4.253 -0.5375  1.3663  1.8594
 6111TIP3    H239893   3.676   4.106   4.285 -0.5166  0.1817 -1.0954
 6112TIP3   OH239894   6.610   0.846   1.772 -0.0139  0.0767  0.4696
 6112TIP3    H139895   6.564   0.902   1.835 -0.2002  0.5936 -0.1135
 6112TIP3    H239896   6.540   0.811   1.716  0.4135  2.5332 -1.7704
 6113TIP3   OH239897   3.876   4.054   2.650 -0.0794 -0.3252  0.2766
 6113TIP3    H139898   3.797   4.050   2.595  1.7070 -1.0359 -2.4687
 6113TIP3    H239899   3.884   4.146   2.674 -0.9442  0.0335 -0.7244
 6114TIP3   OH239900   2.982   4.506   1.447 -0.3567  0.0472  0.2813
 6114TIP3    H139901   2.993   4.418   1.482 -0.3741 -0.0600  0.0254
 6114TIP3    H239902   2.920   4.548   1.507  0.4643  0.2408  1.0081
 6115TIP3   OH239903   0.916   1.722   1.328 -0.1788  0.2703 -0.2922
 6115TIP3    H139904   1.008   1.714   1.302  0.5990  2.8263  1.2676
 6115TIP3    H239905   0.917   1.707   1.423 -1.2506  0.9326 -0.1579
 6116TIP3   OH239906   0.425   2.455   0.684  0.3500  0.2971  0.1213
 6116TIP3    H139907   0.384   2.539   0.663 -0.8202 -0.3461 -0.2546
 6116TIP3    H239908   0.395   2.395   0.616  0.0667 -0.7509  1.1261
 6117TIP3   OH239909   1.668   3.590   1.014  0.3665 -0.4944 -0.1685
 6117TIP3    H139910   1.579   3.613   0.987  0.0629  1.1369  1.9475
 6117TIP3    H239911   1.676   3.626   1.102  2.7227 -1.7079  0.1892
 6118TIP3   OH239912   0.717   0.924   2.389 -0.3522  0.9242 -0.0626
 6118TIP3    H139913   0.764   0.894   2.311  0.0936  0.0811  0.5098
 6118TIP3    H239914   0.712   1.019   2.379  0.1788  0.8811 -0.8504
 6119TIP3   OH239915   5.398   5.692   3.362  0.6566  0.1106  0.6772
 6119TIP3    H139916   5.362   5.678   3.450 -1.8573 -0.6951 -0.3610
 6119TIP3    H239917   5.322   5.682   3.304  1.8653  2.3097 -1.4912
 6120TIP3   OH239918   4.729   5.751   3.156 -0.0299  0.5133  0.1953
 6120TIP3    H139919   4.666   5.708   3.099  0.1110 -0.2467  0.5979
 6120TIP3    H239920   4.778   5.810   3.098  0.2902 -0.4404 -0.5256
 6121TIP3   OH239921   4.939   0.255   0.932  0.3339 -0.4336 -0.1644
 6121TIP3    H139922   4.919   0.234   0.841  1.8658  0.3977 -0.7307
 6121TIP3    H239923   4.857   0.287   0.968 -0.6897 -2.2415 -0.7873
 6122TIP3   OH239924   6.508   5.631   2.719 -0.4860  0.3760 -0.1528
 6122TIP3    H139925   6.463   5.709   2.750 -1.3416  0.4591 -1.5316
 6122TIP3    H239926   6.571   5.663   2.655  0.4390  0.0926  0.5865
 6123TIP3   OH239927   1.970   6.905   4.125 -0.0996  0.6260  0.0052
 6123TIP3    H139928   1.972   6.882   4.218  0.5352 -1.4187 -0.4657
 6123TIP3    H239929   1.877   6.915   4.105 -0.4341 -1.5145  0.2991
 6124TIP3   OH239930   1.608   3.935   1.608 -0.6083  0.9108 -0.1194
 6124TIP3    H139931   1.626   3.849   1.570 -1.6680  0.4696  0.3205
 6124TIP3    H239932   1.558   3.916   1.688  0.2860  1.8800  0.7094
 6125TIP3   OH239933   1.342   6.235   1.271  0.5029  0.1478 -0.1253
 6125TIP3    H139934   1.366   6.173   1.202  0.0573 -0.3183  0.1370
 6125TIP3    H239935   1.424   6.247   1.320  0.3950 -0.9010  0.3423
 6126TIP3   OH239936   6.247   2.017   4.726 -0.1737 -0.1364  0.3955
 6126TIP3    H139937   6.268   2.046   4.637 -1.5698 -0.5316 -0.0844
 6126TIP3    H239938   6.210   2.095   4.768  0.2048 -0.0321  0.5388
 6127TIP3   OH239939   4.220   2.509   0.066 -0.1683 -0.3128 -0.4422
 6127TIP3    H139940   4.169   2.442   0.021 -0.5755 -0.6747  0.5470
 6127TIP3    H239941   4.305   2.506   0.023 -0.5926 -0.5454 -1.2926
 6128TIP3   OH239942   0.378   6.446   8.274 -0.0701 -0.0984  0.3350
 6128TIP3    H139943   0.424   6.528   8.288  0.4984 -0.6873  2.2424
 6128TIP3    H239944   0.291   6.461   8.310 -0.0288 -0.2658  0.5068
 6129TIP3   OH239945   6.760   4.378   3.666 -0.0250 -0.3002 -0.2621
 6129TIP3    H139946   6.718   4.304   3.709  0.0777  0.0977  0.5355
 6129TIP3    H239947   6.828   4.338   3.611  0.1388 -0.7893  0.2852
 6130TIP3   OH239948   4.407   6.514   2.248  0.5375  0.2519 -0.2703
 6130TIP3    H139949   4.464   6.468   2.310 -2.0463 -2.0222  0.6224
 6130TIP3    H239950   4.418   6.466   2.166 -2.2892 -2.4070  0.7034
 6131TIP3   OH239951   1.904   5.843   1.205  0.4232  0.0388  0.1314
 6131TIP3    H139952   1.842   5.913   1.224  0.3157  0.2549 -0.9616
 6131TIP3    H239953   1.924   5.805   1.290  0.1896  1.1495  0.7000
 6132TIP3   OH239954   3.041   4.581   3.634 -0.1083  0.3052  0.1134
 6132TIP3    H139955   3.099   4.508   3.655 -0.4842  0.0300  0.2047
 6132TIP3    H239956   3.073   4.653   3.687 -1.2489 -0.4660  1.9157
 6133TIP3   OH239957   4.357   3.731   1.502  0.2547 -0.0473 -0.6422
 6133TIP3    H139958   4.391   3.673   1.435  2.0487 -0.3517  0.4678
 6133TIP3    H239959   4.310   3.673   1.563  1.5747 -0.2988  0.1707
 6134TIP3   OH239960   5.610   3.929   1.606  0.8013  0.9904  0.7547
 6134TIP3    H139961   5.580   3.955   1.519 -0.3027  0.7767  1.0490
 6134TIP3    H239962   5.530   3.902   1.651  1.2943  1.5343  1.9945
 6135TIP3   OH239963   1.869   1.250   1.756 -0.2550  0.6000 -0.1567
 6135TIP3    H139964   1.852   1.322   1.695 -0.0832 -0.4521 -1.4828
 6135TIP3    H239965   1.949   1.275   1.801  1.1700  0.1926 -2.3294
 6136TIP3   OH239966   2.286   5.806   3.737 -0.3300  0.1538  0.0263
 6136TIP3    H139967   2.344   5.737   3.768 -1.7698 -1.2274 -0.1943
 6136TIP3    H239968   2.254   5.774   3.653  0.9171  2.2928 -1.3590
 6137TIP3   OH239969   4.654   2.595   1.025  0.0084  0.9367 -0.7074
 6137TIP3    H139970   4.635   2.516   0.975 -0.1807  0.5894 -0.0967
 6137TIP3    H239971   4.617   2.578   1.112 -1.2187  2.2218 -0.9425
 6138TIP3   OH239972   6.188   3.220   1.812  0.0729 -0.9216 -0.4783
 6138TIP3    H139973   6.123   3.164   1.854 -0.0725 -0.2088  0.2874
 6138TIP3    H239974   6.272   3.179   1.832 -0.1076 -1.6340 -1.1411
 6139TIP3   OH239975   0.416   0.995   2.064  0.2081 -0.0252 -0.4306
 6139TIP3    H139976   0.369   0.966   1.985 -0.0765  0.1024 -0.3114
 6139TIP3    H239977   0.508   0.994   2.039  0.0361  1.3313 -1.2125
 6140TIP3   OH239978   2.157   3.074   1.348 -0.8371  0.0157  0.0067
 6140TIP3    H139979   2.218   3.050   1.277 -1.3247  0.0125 -0.4167
 6140TIP3    H239980   2.155   2.997   1.404 -0.6015 -0.0591 -0.0824
 6141TIP3   OH239981   5.925   3.084   1.849 -0.7831 -0.4362 -0.0550
 6141TIP3    H139982   5.849   3.124   1.806 -0.7893 -2.3135 -1.9476
 6141TIP3    H239983   5.909   2.989   1.844  2.2027 -0.9972 -1.6658
 6142TIP3   OH239984   2.437   2.752   4.748 -0.1777  0.0939  0.1025
 6142TIP3    H139985   2.508   2.732   4.809 -0.4830  0.5532  0.6208
 6142TIP3    H239986   2.385   2.673   4.745 -0.7011  0.3742  1.1983
 6143TIP3   OH239987   5.310   3.438   0.747 -0.4017 -0.0491  0.3135
 6143TIP3    H139988   5.309   3.482   0.662 -0.0485  1.0766  0.8761
 6143TIP3    H239989   5.306   3.344   0.726  3.3950 -0.0439 -1.1571
 6144TIP3   OH239990   3.278   1.411   0.629 -0.1049 -0.1203 -0.0360
 6144TIP3    H139991   3.188   1.434   0.652  0.2317  2.5185 -1.0275
 6144TIP3    H239992   3.271   1.371   0.542 -0.2320  1.6494 -0.8847
 6145TIP3   OH239993   4.714   5.501   2.566 -0.0655  0.4457 -1.3078
 6145TIP3    H139994   4.773   5.429   2.547  1.2839  0.3289  2.5485
 6145TIP3    H239995   4.629   5.459   2.583  0.7775 -0.4174  1.2092
 6146TIP3   OH239996   5.791   0.525   2.278  0.5047  0.1311 -0.5821
 6146TIP3    H139997   5.791   0.614   2.242  0.0414  1.4563  2.3801
 6146TIP3    H239998   5.851   0.530   2.352 -0.5166 -1.6821  0.4194
 6147TIP3   OH239999   3.681   6.167   0.233  0.1008 -0.7337 -0.1397
 6147TIP3    H140000   3.587   6.166   0.214  0.1581 -1.7550 -0.3770
 6147TIP3    H240001   3.693   6.103   0.302  0.6820 -0.8869 -0.3721
 6148TIP3   OH240002   3.791   0.800   4.338 -0.3272 -0.1817 -0.6052
 6148TIP3    H140003   3.709   0.823   4.383 -1.2601 -1.7240 -1.4229
 6148TIP3    H240004   3.845   0.761   4.406 -0.0619  1.2331  0.0372
 6149TIP3   OH240005   2.411   0.258   2.008 -0.1291 -0.5748 -0.2816
 6149TIP3    H140006   2.392   0.217   2.092 -2.0587 -1.4806 -1.1202
 6149TIP3    H240007   2.449   0.343   2.031 -0.0404 -1.0571  1.4781
 6150TIP3   OH240008   4.315   0.374   3.651 -0.1334 -0.0004  0.6398
 6150TIP3    H140009   4.365   0.363   3.732 -0.5944  2.4150  1.3377
 6150TIP3    H240010   4.270   0.458   3.662 -0.9504 -0.0537 -1.7510
 6151TIP3   OH240011   0.667   3.793   4.454  0.2813  0.5971  0.1949
 6151TIP3    H140012   0.638   3.869   4.505  1.0365 -0.7182  2.7658
 6151TIP3    H240013   0.599   3.727   4.468  0.8813 -0.0459  0.1769
 6152TIP3   OH240014   3.690   5.450   1.157  0.5223  0.0868  1.0373
 6152TIP3    H140015   3.727   5.364   1.140 -0.8105 -0.6025  1.4702
 6152TIP3    H240016   3.629   5.436   1.230  1.0101  1.5939  1.7811
 6153TIP3   OH240017   5.835   4.641   1.878 -0.0714 -0.3078 -0.6920
 6153TIP3    H140018   5.904   4.661   1.815  0.5224  0.1366  0.0912
 6153TIP3    H240019   5.799   4.557   1.848 -2.3729  1.5776 -3.8723
 6154TIP3   OH240020   5.865   4.047   1.767 -0.7142 -0.4381 -0.2736
 6154TIP3    H140021   5.855   3.965   1.816 -1.1178 -0.5583 -0.5480
 6154TIP3    H240022   5.957   4.072   1.780 -0.8649 -0.3560  0.7006
 6155TIP3   OH240023   3.050   5.611   4.222  0.0127 -0.1406  0.0988
 6155TIP3    H140024   3.016   5.691   4.182  3.3073  1.5262  0.3475
 6155TIP3    H240025   3.078   5.637   4.309 -0.4204 -2.0212  0.8489
 6156TIP3   OH240026   3.504   3.515   1.395 -0.1898  0.3712 -0.4183
 6156TIP3    H140027   3.524   3.422   1.400  1.3558  0.7271  0.8548
 6156TIP3    H240028   3.549   3.546   1.317 -0.4951  0.0967 -0.7024
 6157TIP3   OH240029   2.256   2.687   3.767  0.1132 -0.2552 -0.9948
 6157TIP3    H140030   2.224   2.756   3.708  0.0893 -0.5849 -1.3671
 6157TIP3    H240031   2.285   2.617   3.709  2.6907  0.4986 -0.7526
 6158TIP3   OH240032   1.686   2.792   4.078 -1.0805 -0.3104 -0.5695
 6158TIP3    H140033   1.750   2.859   4.052 -0.7091 -0.9002 -1.2017
 6158TIP3    H240034   1.710   2.715   4.027 -0.6826 -1.3429  1.1121
 6159TIP3   OH240035   1.763   2.281   2.336 -0.1923 -0.1472 -0.1314
 6159TIP3    H140036   1.689   2.339   2.357  0.3082  0.1913  0.7500
 6159TIP3    H240037   1.768   2.221   2.410  0.3653 -0.2332 -0.2364
 6160TIP3   OH240038   6.533   2.675   4.683  0.2281  0.3002 -0.5468
 6160TIP3    H140039   6.599   2.628   4.734  1.8978  1.7952 -1.2354
 6160TIP3    H240040   6.553   2.767   4.695 -2.0337  0.8399 -0.4528
 6161TIP3   OH240041   1.204   2.908   1.663  0.2412 -0.5544  0.5698
 6161TIP3    H140042   1.249   2.867   1.736  1.9166 -0.8556 -0.5728
 6161TIP3    H240043   1.212   2.845   1.591 -0.8448 -0.0187 -0.0470
 6162TIP3   OH240044   3.220   2.484   8.301 -0.2357  0.1084  0.0696
 6162TIP3    H140045   3.127   2.471   8.282 -0.6571  2.5596  0.1242
 6162TIP3    H240046   3.257   2.395   8.303 -2.7513 -1.0103  1.0887
 6163TIP3   OH240047   6.041   6.220   3.722 -0.5481 -0.4094  0.7317
 6163TIP3    H140048   6.048   6.269   3.804  1.4683 -2.5023  1.9326
 6163TIP3    H240049   6.010   6.284   3.658  0.5286  2.0363  2.5029
 6164TIP3   OH240050   2.396   3.824   0.414 -0.0849  0.7236 -0.9529
 6164TIP3    H140051   2.336   3.876   0.361 -0.6118 -1.5355 -2.7007
 6164TIP3    H240052   2.349   3.743   0.432  1.6382 -0.2333 -0.5348
 6165TIP3   OH240053   6.365   0.919   4.392 -0.6634  0.0933 -0.3206
 6165TIP3    H140054   6.438   0.967   4.431  0.1383 -0.4773 -1.0818
 6165TIP3    H240055   6.301   0.912   4.463 -0.1522  0.9492  0.2443
 6166TIP3   OH240056   5.871   0.033   0.110 -0.2486  0.2951 -0.4939
 6166TIP3    H140057   5.907  -0.029   0.174 -1.0684  0.2658 -0.0531
 6166TIP3    H240058   5.938   0.038   0.042 -0.1514 -1.0393 -0.5209
 6167TIP3   OH240059   5.826   0.488   2.883  0.1013  0.5284  0.2382
 6167TIP3    H140060   5.884   0.443   2.945 -1.4016 -2.2284 -0.2329
 6167TIP3    H240061   5.882   0.507   2.808  1.2141  1.2634  1.1999
 6168TIP3   OH240062   2.728   2.950   4.546 -0.0616 -0.2634 -0.1123
 6168TIP3    H140063   2.744   2.976   4.637  0.9334 -1.1689  0.0007
 6168TIP3    H240064   2.762   2.860   4.541  0.6207  0.0500 -1.5756
 6169TIP3   OH240065   3.000   2.930   3.646 -0.0739  0.7808 -0.3909
 6169TIP3    H140066   2.940   2.898   3.578 -2.8121  2.2768  1.1513
 6169TIP3    H240067   3.037   2.850   3.684 -3.1376 -0.4738  0.2781
 6170TIP3   OH240068   1.184   0.301   2.634  0.4703  0.0217  0.3777
 6170TIP3    H140069   1.201   0.213   2.668 -0.5650 -0.9834 -1.5271
 6170TIP3    H240070   1.133   0.344   2.702  0.0267 -1.2630  0.8824
 6171TIP3   OH240071   1.044   1.046   1.389 -0.2861  0.1752  0.7809
 6171TIP3    H140072   0.959   1.002   1.396  0.1131 -0.7016  0.2494
 6171TIP3    H240073   1.029   1.114   1.323 -0.0451 -1.3845 -0.9815
 6172TIP3   OH240074   4.315   6.540   4.274  0.4015 -0.3752 -0.6254
 6172TIP3    H140075   4.241   6.479   4.274  1.3850 -1.6001  0.0188
 6172TIP3    H240076   4.301   6.594   4.352 -0.1607 -0.1460 -0.8777
 6173TIP3   OH240077   3.448   1.448   1.481  0.0146 -0.1255 -0.0721
 6173TIP3    H140078   3.451   1.543   1.466  0.5991 -0.3125 -1.3172
 6173TIP3    H240079   3.357   1.425   1.464  0.1579  0.0327 -1.1270
 6174TIP3   OH240080   5.812   0.296   1.552  0.4952 -0.1038 -0.3733
 6174TIP3    H140081   5.876   0.225   1.559  0.8248  0.1099 -1.1110
 6174TIP3    H240082   5.747   0.276   1.619 -1.0155 -2.7885 -2.4029
 6175TIP3   OH240083   2.714   1.217   2.502 -0.0697  0.1898 -0.5521
 6175TIP3    H140084   2.740   1.263   2.582  1.2094 -1.0040 -0.2420
 6175TIP3    H240085   2.679   1.134   2.532 -1.9591  0.7131 -1.1346
 6176TIP3   OH240086   3.344   0.078   1.323  0.3214 -0.5530  0.2934
 6176TIP3    H140087   3.331   0.154   1.380  0.0369  1.0233 -1.7262
 6176TIP3    H240088   3.289   0.009   1.361 -1.4517  1.0539  0.8131
 6177TIP3   OH240089   0.605   1.473   3.498  0.2007  0.0163  0.6391
 6177TIP3    H140090   0.609   1.560   3.457 -2.4457  0.0005  0.1819
 6177TIP3    H240091   0.519   1.471   3.540  0.5100 -2.1486  1.2443
 6178TIP3   OH240092   0.489   6.847   2.918 -0.6561 -0.0675 -1.3190
 6178TIP3    H140093   0.444   6.917   2.870  0.2792  1.2282 -0.3702
 6178TIP3    H240094   0.523   6.890   2.996  0.3990 -1.4823 -0.9712
 6179TIP3   OH240095   5.881   1.117   2.525  0.2990  0.1980  0.2283
 6179TIP3    H140096   5.853   1.035   2.565  1.7199 -0.3395  0.1666
 6179TIP3    H240097   5.811   1.138   2.463 -0.6755 -0.3011  1.1269
 6180TIP3   OH240098   0.923   2.761   4.130 -0.6627 -0.0708  0.6882
 6180TIP3    H140099   0.925   2.665   4.135 -2.3727 -0.0940  2.4401
 6180TIP3    H240100   1.015   2.787   4.133 -0.0885 -1.6549 -1.0697
 6181TIP3   OH240101   0.295   1.558   1.338 -0.0947  0.0001  0.6325
 6181TIP3    H140102   0.332   1.644   1.319  1.1068 -0.6185  0.0591
 6181TIP3    H240103   0.356   1.496   1.299 -0.3264 -1.1677  2.0090
 6182TIP3   OH240104   1.212   4.564   4.493 -0.0545 -0.0974 -0.4085
 6182TIP3    H140105   1.154   4.640   4.502  0.4818  0.0362  3.1770
 6182TIP3    H240106   1.155   4.488   4.503  0.0776  0.0103  1.5521
 6183TIP3   OH240107   0.831   5.126   3.616 -0.0160  0.1577  0.0316
 6183TIP3    H140108   0.893   5.198   3.627  0.5898 -0.2783 -0.4130
 6183TIP3    H240109   0.832   5.080   3.700  1.6373 -0.8831 -0.4987
 6184TIP3   OH240110   2.043   2.810   2.789  0.2135  0.1613 -0.0905
 6184TIP3    H140111   2.021   2.721   2.818  0.5004  0.3695  0.8205
 6184TIP3    H240112   2.106   2.840   2.854  0.9959  0.6155 -1.0445
 6185TIP3   OH240113   4.657   6.329   0.507 -0.2945  0.0897  0.3224
 6185TIP3    H140114   4.694   6.415   0.487 -2.4809  0.6163 -1.9457
 6185TIP3    H240115   4.568   6.332   0.472 -1.6335 -1.9913  3.1044
 6186TIP3   OH240116   0.818   6.000   2.444 -0.8411 -0.3452  0.5575
 6186TIP3    H140117   0.859   5.914   2.453  0.0416  0.1177  0.9935
 6186TIP3    H240118   0.725   5.984   2.463 -0.4416 -0.9376  2.0843
 6187TIP3   OH240119   2.961   5.807   4.057  0.2126  0.2107  0.1338
 6187TIP3    H140120   2.975   5.887   4.107 -0.6137 -0.3340  1.2824
 6187TIP3    H240121   2.989   5.829   3.968  1.6453  1.2260  0.8026
 6188TIP3   OH240122   1.283   0.565   1.232  0.0236  0.0336  0.2491
 6188TIP3    H140123   1.240   0.555   1.147 -0.3738  3.3789 -0.0508
 6188TIP3    H240124   1.216   0.600   1.289  0.7058 -0.7332  1.5741
 6189TIP3   OH240125   1.073   6.638   4.122 -0.9799  0.1248 -0.3047
 6189TIP3    H140126   1.064   6.716   4.176  0.0444  1.3347 -1.7885
 6189TIP3    H240127   1.057   6.565   4.182 -1.2250  1.4390  1.2910
 6190TIP3   OH240128   1.993   1.110   2.921  0.3459  0.5808 -0.0717
 6190TIP3    H140129   1.978   1.048   2.849  0.9455 -0.6951  0.8575
 6190TIP3    H240130   2.064   1.071   2.972 -0.6679  0.9706  1.7408
 6191TIP3   OH240131   0.798   0.492   0.002  0.2884 -0.2081  0.2137
 6191TIP3    H140132   0.778   0.402  -0.025  1.3428  0.1201 -1.8658
 6191TIP3    H240133   0.715   0.539  -0.008 -0.1314 -0.8180  0.7622
 6192TIP3   OH240134   1.676   3.131   2.469 -0.5811  0.1540 -0.1613
 6192TIP3    H140135   1.712   3.126   2.380  0.6489  2.1083  0.1527
 6192TIP3    H240136   1.752   3.117   2.526 -0.9499  0.9659  0.5535
 6193TIP3   OH240137   6.174   6.450   0.885  0.5603 -0.1763 -0.3907
 6193TIP3    H140138   6.144   6.434   0.796  0.8421  0.7581 -0.6563
 6193TIP3    H240139   6.224   6.371   0.908  1.9298  0.2809 -1.6797
 6194TIP3   OH240140   2.954   1.895   4.001 -0.1018 -0.3053  0.0290
 6194TIP3    H140141   2.970   1.944   4.081 -3.2426 -0.1818  0.7037
 6194TIP3    H240142   2.957   1.961   3.931  2.6273 -0.4125 -0.0577
 6195TIP3   OH240143   5.005   3.628   4.398 -0.5876 -0.3612  0.3372
 6195TIP3    H140144   5.027   3.594   4.312 -1.7694 -0.1603 -0.0596
 6195TIP3    H240145   4.991   3.551   4.452 -0.3635 -0.4872  0.2178
 6196TIP3   OH240146   1.392   2.037   3.126  0.0771 -0.7278  0.0636
 6196TIP3    H140147   1.433   1.977   3.065  0.4454 -1.2693  0.8264
 6196TIP3    H240148   1.417   2.005   3.213 -0.5611 -0.0767  0.5094
 6197TIP3   OH240149   5.120   1.831   0.561 -0.0038 -0.4442  0.3614
 6197TIP3    H140150   5.050   1.860   0.502 -1.8441 -3.1093  1.0698
 6197TIP3    H240151   5.098   1.870   0.646 -1.3617 -2.1516  0.8493
 6198TIP3   OH240152   2.435   5.965   1.682  0.3221 -0.0510  0.0093
 6198TIP3    H140153   2.458   5.891   1.738  1.9483  0.8263  0.5447
 6198TIP3    H240154   2.493   5.956   1.606  0.1563  0.3930 -0.1696
 6199TIP3   OH240155   4.598   6.504   2.491 -0.2761  0.5688  0.6186
 6199TIP3    H140156   4.533   6.521   2.559 -1.3342 -0.4486 -0.1056
 6199TIP3    H240157   4.594   6.582   2.435 -0.9855  0.4485  0.4920
 6200TIP3   OH240158   1.532   4.030   2.260 -0.1976  0.3040 -0.3471
 6200TIP3    H140159   1.588   3.958   2.231 -1.4935 -1.0383  0.4017
 6200TIP3    H240160   1.562   4.050   2.348 -0.7067 -0.2253 -0.0520
 6201TIP3   OH240161   4.927   6.675   0.799  0.0964  0.3295  0.2426
 6201TIP3    H140162   4.918   6.647   0.891  1.2798  0.8460  0.5287
 6201TIP3    H240163   5.015   6.647   0.774 -0.4716 -0.4437 -0.9870
 6202TIP3   OH240164   3.475   2.763   3.855  0.0999 -0.3578 -0.3290
 6202TIP3    H140165   3.446   2.744   3.944  1.5403  1.0343  0.4890
 6202TIP3    H240166   3.533   2.690   3.832 -1.2056 -1.3296 -0.6140
 6203TIP3   OH240167   6.042   2.339   5.072 -1.0662  0.0768  0.2045
 6203TIP3    H140168   5.955   2.332   5.033  0.0329 -0.7839 -2.2570
 6203TIP3    H240169   6.102   2.333   4.999  1.1235  0.0420  1.9046
 6204TIP3   OH240170   5.077   1.657   3.162  0.6352  0.2532 -0.0474
 6204TIP3    H140171   5.109   1.604   3.235 -0.7769 -0.4427  0.0927
 6204TIP3    H240172   5.119   1.742   3.174  1.1133 -0.1157  1.0593
 6205TIP3   OH240173   2.966   2.856   2.368 -0.0331  0.6151 -0.1203
 6205TIP3    H140174   3.029   2.926   2.353  0.9528 -0.3665 -0.7001
 6205TIP3    H240175   2.895   2.874   2.305  0.6442  0.5980 -0.9080
 6206TIP3   OH240176   0.356   4.627   3.806 -0.0848  0.3885  0.9819
 6206TIP3    H140177   0.393   4.559   3.749 -3.4675 -0.8211 -0.0225
 6206TIP3    H240178   0.352   4.587   3.892  0.6855  0.4834  1.0737
 6207TIP3   OH240179   6.417   1.696   2.754  0.1806 -0.1602 -0.1852
 6207TIP3    H140180   6.344   1.745   2.791  0.6676 -0.0606  0.6904
 6207TIP3    H240181   6.479   1.763   2.725  0.0319 -0.2477 -0.7213
 6208TIP3   OH240182   1.441   1.566   0.476 -0.7336 -0.4489  0.3213
 6208TIP3    H140183   1.514   1.595   0.421  1.3411 -1.4584  2.3707
 6208TIP3    H240184   1.415   1.482   0.438 -0.4392 -0.3614 -0.0908
 6209TIP3   OH240185   6.597   6.083   0.392 -0.4035 -0.3144  0.3540
 6209TIP3    H140186   6.612   6.031   0.313  0.6849  0.5619 -0.0367
 6209TIP3    H240187   6.514   6.128   0.377  0.1515  0.4058 -0.6123
 6210TIP3   OH240188   4.033   2.111   3.657 -0.3014  0.3438 -0.1944
 6210TIP3    H140189   4.048   2.021   3.630  0.1495  0.5610 -0.6734
 6210TIP3    H240190   4.008   2.104   3.750  0.2788 -0.2239 -0.0790
 6211TIP3   OH240191   1.707   1.791   1.631 -0.0777 -0.1400  0.0492
 6211TIP3    H140192   1.801   1.775   1.639 -0.0569 -1.7943 -2.2848
 6211TIP3    H240193   1.680   1.819   1.718  2.7144  1.3449  0.5837
 6212TIP3   OH240194   1.430   6.557   0.136  0.9186  0.3030 -0.2142
 6212TIP3    H140195   1.371   6.492   0.173 -0.0120  0.3864 -1.4619
 6212TIP3    H240196   1.514   6.512   0.128  0.1859 -0.9261 -1.4757
 6213TIP3   OH240197   6.162   2.426   3.336  0.0492  0.3571 -0.2619
 6213TIP3    H140198   6.172   2.509   3.289  0.6273 -0.5373 -1.7645
 6213TIP3    H240199   6.149   2.360   3.267  1.3759 -1.0667  0.7859
 6214TIP3   OH240200   2.979   3.384   1.929 -0.3105 -0.1562  0.2487
 6214TIP3    H140201   3.000   3.329   1.853 -0.4678 -0.0778  0.1480
 6214TIP3    H240202   3.048   3.450   1.931 -0.7451  0.3224 -0.2995
 6215TIP3   OH240203   5.194   6.534   1.148 -0.2009  0.0139 -0.4631
 6215TIP3    H140204   5.176   6.451   1.105  0.5265  0.1456 -1.0422
 6215TIP3    H240205   5.280   6.521   1.189 -0.6193  0.0856  0.4563
 6216TIP3   OH240206   2.587   6.639   3.245  0.1942 -0.7527 -0.5029
 6216TIP3    H140207   2.586   6.573   3.175 -0.8676 -0.4127 -0.8296
 6216TIP3    H240208   2.655   6.701   3.218 -0.1630 -0.6575 -1.2218
 6217TIP3   OH240209   5.730   3.791   3.997  0.1184 -0.5122  0.2021
 6217TIP3    H140210   5.766   3.707   4.026 -0.0238 -1.0743 -1.1370
 6217TIP3    H240211   5.721   3.843   4.077 -0.2946 -1.9679  1.1460
 6218TIP3   OH240212   1.151   3.323   1.342  0.2224 -0.8115  0.0461
 6218TIP3    H140213   1.163   3.233   1.373  2.3110 -1.2711 -1.8567
 6218TIP3    H240214   1.077   3.318   1.282 -0.3936 -0.9881  0.7959
 6219TIP3   OH240215   4.657   2.452   2.521  0.3236  0.4194  0.1979
 6219TIP3    H140216   4.706   2.449   2.603  0.7313 -1.0277 -0.0787
 6219TIP3    H240217   4.723   2.467   2.454  0.0982  0.7451  0.0448
 6220TIP3   OH240218   5.931   0.379   3.126 -0.1619 -0.1480  0.2959
 6220TIP3    H140219   6.006   0.324   3.150 -0.2042 -0.4550 -0.2510
 6220TIP3    H240220   5.861   0.316   3.108 -0.8880  0.1676  1.8567
 6221TIP3   OH240221   1.932   5.001   4.522  0.1321  0.3890  0.2071
 6221TIP3    H140222   1.893   4.936   4.581 -0.1463  1.5370  1.3310
 6221TIP3    H240223   1.988   5.053   4.579  0.4731  1.0347 -0.7108
 6222TIP3   OH240224   3.704   2.711   0.663 -0.2996 -0.1363 -0.2219
 6222TIP3    H140225   3.674   2.634   0.712 -0.8334  0.3125  0.1796
 6222TIP3    H240226   3.794   2.692   0.640 -0.5504 -1.0543 -0.4737
 6223TIP3   OH240227   0.998   4.988   4.104  0.3381  0.3154  0.7939
 6223TIP3    H140228   1.067   4.936   4.064  0.9092  0.8034  1.1347
 6223TIP3    H240229   0.969   4.935   4.179  1.4524  0.8174  1.6042
 6224TIP3   OH240230   4.063   1.018   3.349 -0.0523  0.2442  1.1366
 6224TIP3    H140231   4.033   0.973   3.270  1.7181 -2.6949  1.9823
 6224TIP3    H240232   3.988   1.015   3.408 -0.3675 -0.4965  0.7124
 6225TIP3   OH240233   4.133   0.718   3.973 -0.1777  0.1622  0.0521
 6225TIP3    H140234   4.047   0.760   3.980 -1.5125 -1.3496 -4.2721
 6225TIP3    H240235   4.133   0.653   4.043 -2.6962  0.0915  0.0784
 6226TIP3   OH240236   3.872   6.624   1.493 -0.5246  0.5619  0.1994
 6226TIP3    H140237   3.824   6.589   1.568 -0.7190  1.6536  0.5909
 6226TIP3    H240238   3.887   6.547   1.437 -3.3607  0.2932 -0.3249
 6227TIP3   OH240239   3.756   0.952   2.339  0.3282  0.1753 -0.8571
 6227TIP3    H140240   3.810   0.931   2.415 -0.0896 -0.3740 -0.7091
 6227TIP3    H240241   3.667   0.954   2.372  0.0925 -0.5551 -1.4240
 6228TIP3   OH240242   2.213   0.786   0.572 -0.1583 -0.1787  0.3039
 6228TIP3    H140243   2.302   0.819   0.561  0.0422 -0.7675  0.1114
 6228TIP3    H240244   2.196   0.794   0.666 -0.4947  1.4041  0.1357
 6229TIP3   OH240245   0.086   1.548   3.773  0.4885 -0.2707 -0.5264
 6229TIP3    H140246   0.030   1.471   3.761  0.2901 -0.3004  0.4704
 6229TIP3    H240247   0.129   1.532   3.857  1.8452 -0.1524 -1.1752
 6230TIP3   OH240248   6.775   2.412   3.881 -0.2648  0.4443 -0.0217
 6230TIP3    H140249   6.766   2.350   3.953  0.3705  2.2540  1.7143
 6230TIP3    H240250   6.860   2.390   3.842 -0.9498 -1.0268 -0.7370
 6231TIP3   OH240251   5.529   2.237   2.500 -0.4823 -0.0987  0.3486
 6231TIP3    H140252   5.518   2.317   2.448  1.1759  0.6099  1.0163
 6231TIP3    H240253   5.541   2.268   2.590  1.4965 -0.9697  0.4469
 6232TIP3   OH240254   1.250   1.259   4.059  0.1560 -0.1440 -0.2929
 6232TIP3    H140255   1.320   1.269   4.124 -1.1126  0.1815  1.0632
 6232TIP3    H240256   1.170   1.249   4.111 -1.1787  2.0328 -1.7747
 6233TIP3   OH240257   5.911   4.314   1.868 -0.3447 -0.8780  0.4503
 6233TIP3    H140258   5.829   4.279   1.833 -0.4272 -0.0817 -0.1875
 6233TIP3    H240259   5.899   4.313   1.963 -0.9727 -1.0658  0.3719
 6234TIP3   OH240260   6.232   2.979   2.859 -0.2594 -0.5601  1.1058
 6234TIP3    H140261   6.193   2.989   2.772  1.2061  1.7772  0.6210
 6234TIP3    H240262   6.214   3.062   2.903 -0.5013 -1.4925  2.8722
 6235TIP3   OH240263   2.714   4.362   0.004  0.0291  0.0940  0.6362
 6235TIP3    H140264   2.624   4.361  -0.028 -0.6983  0.5453  2.5106
 6235TIP3    H240265   2.751   4.443  -0.032 -0.2865 -0.1266 -0.1991
 6236TIP3   OH240266   5.973   2.603   2.399 -0.0427  0.7116  0.2042
 6236TIP3    H140267   5.886   2.619   2.435  0.7144  2.5553  1.3160
 6236TIP3    H240268   5.983   2.508   2.403 -1.5644  0.5580  1.0763
 6237TIP3   OH240269   3.242   5.623   1.909  0.2448 -0.2565  0.1385
 6237TIP3    H140270   3.161   5.668   1.933  0.3335 -0.7264  1.4287
 6237TIP3    H240271   3.310   5.689   1.919  0.0997 -0.0271 -0.3545
 6238TIP3   OH240272   4.519   0.401   4.784  0.3308  0.2747 -0.1115
 6238TIP3    H140273   4.596   0.383   4.838  0.2784 -1.7087 -0.6134
 6238TIP3    H240274   4.523   0.495   4.767  2.4838  0.2803  0.1205
 6239TIP3   OH240275   2.058   3.436   3.349  0.1118  0.1744 -0.2597
 6239TIP3    H140276   2.007   3.481   3.416 -1.1071  0.3990 -1.3135
 6239TIP3    H240277   2.010   3.355   3.332  1.1024 -0.4953  0.0392
 6240TIP3   OH240278   5.817   0.611   1.638  0.3643 -0.3985  1.0216
 6240TIP3    H140279   5.868   0.531   1.622 -0.6841 -0.7234 -1.0681
 6240TIP3    H240280   5.740   0.602   1.581  0.4145  2.2838  0.3812
 6241TIP3   OH240281   1.514   2.699   4.446 -0.4139  0.0788 -0.3633
 6241TIP3    H140282   1.421   2.698   4.467  0.1182 -0.8313  2.4250
 6241TIP3    H240283   1.539   2.791   4.449 -1.2804  0.3618 -1.5224
 6242TIP3   OH240284   0.098   5.236   4.577  0.4658  0.0232  0.0256
 6242TIP3    H140285   0.183   5.259   4.615  0.9411 -0.6486 -0.5919
 6242TIP3    H240286   0.069   5.160   4.626  0.4169 -0.0002 -0.0395
 6243TIP3   OH240287   6.884   2.068   3.544  0.1651 -0.6313 -0.1633
 6243TIP3    H140288   6.935   2.101   3.470 -0.9645 -3.4402 -2.3827
 6243TIP3    H240289   6.917   1.979   3.558  0.5945 -0.0758  3.0645
 6244TIP3   OH240290   6.134   1.135   3.006  0.3247 -0.1906 -0.5366
 6244TIP3    H140291   6.088   1.149   2.923  1.2709  0.6028 -0.9495
 6244TIP3    H240292   6.067   1.099   3.064 -0.8222  0.8892 -1.1176
 6245TIP3   OH240293   4.908   2.477   3.726 -0.0702  0.2133  0.5179
 6245TIP3    H140294   4.889   2.503   3.636 -0.6025 -1.9627 -0.0458
 6245TIP3    H240295   4.822   2.466   3.767  0.1053 -1.0417  0.5869
 6246TIP3   OH240296   0.484   0.391   1.912  0.1415  0.1063  0.1682
 6246TIP3    H140297   0.435   0.311   1.934  0.2090 -0.3137 -1.0853
 6246TIP3    H240298   0.510   0.428   1.996 -0.7226 -0.6801  0.7986
 6247TIP3   OH240299   4.273   0.007   2.880 -0.2679  0.1668  0.1804
 6247TIP3    H140300   4.187   0.006   2.837 -0.6574  0.4472  0.9357
 6247TIP3    H240301   4.325  -0.056   2.830 -0.7044  0.4738 -0.6961
 6248TIP3   OH240302   3.313   5.826   4.578  0.2400 -0.0559 -0.2882
 6248TIP3    H140303   3.353   5.798   4.496  0.4047 -1.3178  0.1981
 6248TIP3    H240304   3.365   5.783   4.646  0.2529  1.1523  0.4951
 6249TIP3   OH240305   2.011   2.081   4.479  0.7147 -0.0275 -0.8060
 6249TIP3    H140306   1.930   2.113   4.518  0.5811 -0.6636 -0.5530
 6249TIP3    H240307   2.028   2.141   4.407  0.4965  0.6356 -0.3085
 6250TIP3   OH240308   6.888   2.334   0.847 -0.1012  0.1418 -0.1234
 6250TIP3    H140309   6.797   2.304   0.849 -0.3060  0.7657  0.2507
 6250TIP3    H240310   6.895   2.383   0.765 -0.4158  1.0086  0.3498
 6251TIP3   OH240311   1.200   6.730   0.300 -0.3450 -0.3007 -0.0730
 6251TIP3    H140312   1.191   6.659   0.236 -0.8683 -0.7022  0.4311
 6251TIP3    H240313   1.267   6.787   0.263  0.0646 -1.0435 -0.5036
 6252TIP3   OH240314   4.086   2.263   8.569 -0.5391  0.1408 -0.1329
 6252TIP3    H140315   4.038   2.212   8.503 -1.5655  1.3929 -0.3930
 6252TIP3    H240316   4.018   2.291   8.631  0.3733 -0.8268  1.3713
 6253TIP3   OH240317   0.319   4.715   2.233 -0.0128 -0.2637 -0.2943
 6253TIP3    H140318   0.305   4.687   2.324  1.3875  1.6524  0.5889
 6253TIP3    H240319   0.413   4.708   2.220  0.2102  2.2357 -0.5547
 6254TIP3   OH240320   2.182   0.638   0.155 -0.5003  0.1146 -0.1036
 6254TIP3    H140321   2.164   0.685   0.236  0.4717  0.0174  0.1792
 6254TIP3    H240322   2.276   0.620   0.158 -0.6399 -0.7902 -0.7677
 6255TIP3   OH240323   6.352   5.122   1.208 -0.1200 -0.1388  0.5768
 6255TIP3    H140324   6.291   5.193   1.190 -1.1898 -1.0757  0.3996
 6255TIP3    H240325   6.418   5.161   1.266 -1.2452  0.7467  1.3078
 6256TIP3   OH240326   6.234   3.844   1.056 -0.3218  0.1172  0.1482
 6256TIP3    H140327   6.306   3.795   1.017  1.6298  1.8600  1.3513
 6256TIP3    H240328   6.242   3.827   1.150 -2.1725 -0.4803  0.2411
 6257TIP3   OH240329   4.210   0.046   2.313  0.4607 -0.1151 -0.3301
 6257TIP3    H140330   4.179  -0.021   2.252 -0.6202  0.4945 -0.4750
 6257TIP3    H240331   4.132   0.071   2.362  1.1976 -0.1513  0.8910
 6258TIP3   OH240332   3.171   4.058   5.216  0.3815 -0.6276  0.4509
 6258TIP3    H140333   3.262   4.088   5.216  0.1541  0.1893 -1.0247
 6258TIP3    H240334   3.173   3.973   5.172  0.7151 -1.7569  2.5478
 6259TIP3   OH240335   1.992   5.867   0.096  0.1885 -0.3095 -0.0183
 6259TIP3    H140336   1.954   5.890   0.011  1.0558  0.7695 -0.1276
 6259TIP3    H240337   2.085   5.853   0.078  0.2424 -0.8420  0.6274
 6260TIP3   OH240338   5.675   6.518   1.510 -0.3978 -0.3365 -0.3667
 6260TIP3    H140339   5.695   6.548   1.599  1.2692 -0.8855 -0.5275
 6260TIP3    H240340   5.686   6.423   1.513  3.1890 -0.1446 -1.8934
 6261TIP3   OH240341   4.469   4.809   4.112 -0.0334  0.0210 -0.1328
 6261TIP3    H140342   4.553   4.790   4.154 -0.7146 -0.2444  1.1790
 6261TIP3    H240343   4.453   4.901   4.133 -1.1042 -0.5137  1.5984
 6262TIP3   OH240344   0.035   0.911   4.690  0.1082 -0.0409 -0.3374
 6262TIP3    H140345   0.081   0.891   4.608 -0.4024 -0.3579 -0.5515
 6262TIP3    H240346   0.030   1.007   4.691  0.5278 -0.0150 -0.4475
 6263TIP3   OH240347   1.648   0.865   0.886  0.2484  0.3297  0.4947
 6263TIP3    H140348   1.593   0.811   0.830 -0.3109 -0.0616  1.3974
 6263TIP3    H240349   1.591   0.893   0.957  1.0404  0.4631  1.1031
 6264TIP3   OH240350   2.984   4.961   1.302  0.2087  0.2158 -0.4456
 6264TIP3    H140351   2.946   5.046   1.280 -0.4349  0.1468  0.3490
 6264TIP3    H240352   2.922   4.898   1.266  0.4810  0.0839 -0.6840
 6265TIP3   OH240353   0.965   2.799   2.208  0.1676  0.3583 -0.2573
 6265TIP3    H140354   0.932   2.785   2.297 -1.1314  3.3464 -0.1212
 6265TIP3    H240355   1.053   2.833   2.220  0.4715 -0.4268 -0.2094
 6266TIP3   OH240356   5.147   5.061   2.163  0.3033  0.2819  0.1323
 6266TIP3    H140357   5.124   5.041   2.254 -0.8494  0.2504 -0.1607
 6266TIP3    H240358   5.152   5.156   2.159  0.4847  0.2784  0.2534
 6267TIP3   OH240359   2.974   0.335   0.578  0.0028  0.5377  0.0578
 6267TIP3    H140360   2.999   0.305   0.666 -3.1123  0.4029  1.0339
 6267TIP3    H240361   3.057   0.353   0.534  1.8273 -2.2835  1.9703
 6268TIP3   OH240362   1.870   5.225   1.811 -0.0926  0.3511 -0.2101
 6268TIP3    H140363   1.923   5.152   1.779 -1.1439 -1.2287  1.4861
 6268TIP3    H240364   1.791   5.223   1.756  0.5864  1.3235 -1.2743
 6269TIP3   OH240365   5.962   1.643   4.811 -0.3903 -0.0368 -1.0100
 6269TIP3    H140366   6.058   1.646   4.803 -0.3869 -1.4655 -2.1123
 6269TIP3    H240367   5.937   1.730   4.840  1.1928  0.6107 -1.4788
 6270TIP3   OH240368   5.055   4.372   2.650 -0.7105 -0.2024 -0.6595
 6270TIP3    H140369   4.963   4.350   2.664 -0.1805 -2.6417 -0.5572
 6270TIP3    H240370   5.066   4.368   2.555 -0.5537 -0.6074 -0.6237
 6271TIP3   OH240371   3.302   0.537   1.926  0.1488 -0.1640  0.7029
 6271TIP3    H140372   3.309   0.631   1.913  1.2340 -0.1919  0.9716
 6271TIP3    H240373   3.265   0.527   2.014  0.4710  0.0150  0.8598
 6272TIP3   OH240374   4.375   2.779   5.314 -0.1214  0.4841 -0.1258
 6272TIP3    H140375   4.382   2.870   5.343 -0.7336  0.0746  1.4463
 6272TIP3    H240376   4.425   2.730   5.378 -0.5577 -0.3744 -0.4284
 6273TIP3   OH240377   2.861   1.491   3.669  0.0298 -0.2678 -0.3510
 6273TIP3    H140378   2.853   1.586   3.660  0.4320 -0.3642 -2.0494
 6273TIP3    H240379   2.954   1.476   3.689  0.0726 -0.3255 -0.5875
 6274TIP3   OH240380   5.103   5.675   3.323 -0.4809  0.3330 -0.0738
 6274TIP3    H140381   5.075   5.597   3.372  1.0682 -0.5489 -0.5066
 6274TIP3    H240382   5.075   5.658   3.233  0.7200 -0.2283 -0.3681
 6275TIP3   OH240383   5.345   5.529   1.237 -0.3884 -0.3890 -0.6342
 6275TIP3    H140384   5.400   5.520   1.159 -1.6965  0.8123 -1.7513
 6275TIP3    H240385   5.256   5.535   1.202 -0.8364  2.6540  0.7152
 6276TIP3   OH240386   3.181   1.184   3.400 -0.1141 -0.3045  0.3129
 6276TIP3    H140387   3.098   1.152   3.365 -0.1408 -0.5105  0.5621
 6276TIP3    H240388   3.191   1.139   3.483  0.4448 -0.5856  0.0983
 6277TIP3   OH240389   3.936   6.697   3.151 -0.1643 -0.6441 -0.0873
 6277TIP3    H140390   4.030   6.680   3.159  0.0783  0.0522 -1.1680
 6277TIP3    H240391   3.900   6.615   3.117  0.0028 -0.9902  0.5452
 6278TIP3   OH240392   6.131   2.488   1.677  0.1465 -1.0422 -0.1498
 6278TIP3    H140393   6.045   2.508   1.640 -0.5028 -1.9150  0.8385
 6278TIP3    H240394   6.171   2.574   1.692 -0.2863 -0.6443 -1.1840
 6279TIP3   OH240395   0.263   0.278   2.668  0.2967  0.5604  0.0759
 6279TIP3    H140396   0.316   0.270   2.589 -0.7222  0.8271 -0.6640
 6279TIP3    H240397   0.324   0.266   2.740  1.3811  1.0730 -0.7420
 6280TIP3   OH240398   1.894   0.052   2.695  0.2468 -0.0561  0.1591
 6280TIP3    H140399   1.920   0.076   2.606  0.1361  2.2559  0.6935
 6280TIP3    H240400   1.976   0.025   2.736  0.7871  1.4056  0.0941
 6281TIP3   OH240401   4.169   1.703   2.276  0.5381  0.0953 -0.4785
 6281TIP3    H140402   4.075   1.708   2.260  0.2720  1.8174  1.3027
 6281TIP3    H240403   4.208   1.756   2.208  0.3031 -1.0693 -1.5587
 6282TIP3   OH240404   5.122   6.334   3.000  0.0075 -0.3648 -0.1550
 6282TIP3    H140405   5.124   6.340   2.904  0.2334  0.4611 -0.1022
 6282TIP3    H240406   5.173   6.409   3.030 -2.2953  0.9697  0.6500
 6283TIP3   OH240407   3.498   6.129   4.641  0.6020 -0.2557  0.4544
 6283TIP3    H140408   3.581   6.171   4.664 -0.0279  1.7368 -0.6787
 6283TIP3    H240409   3.522   6.039   4.619  2.3368  0.0486  0.9274
 6284TIP3   OH240410   1.496   0.817   3.926  0.1050 -0.0488  0.1235
 6284TIP3    H140411   1.552   0.769   3.864  0.5915  2.1568 -1.2552
 6284TIP3    H240412   1.549   0.893   3.952 -1.5353  1.0820  0.2869
 6285TIP3   OH240413   0.336   6.011   1.840  0.3321  0.2115  0.2866
 6285TIP3    H140414   0.240   6.016   1.843  0.2873 -0.7940  1.0807
 6285TIP3    H240415   0.365   6.090   1.886 -0.1119  0.5471 -0.0034
 6286TIP3   OH240416   3.592   1.049   3.605  0.5869 -0.3823  0.3334
 6286TIP3    H140417   3.543   0.971   3.580  2.0989 -0.9205 -1.1525
 6286TIP3    H240418   3.530   1.121   3.591 -0.4570 -1.1936  0.6262
 6287TIP3   OH240419   0.898   3.016   4.217  0.0217  0.6192 -0.2599
 6287TIP3    H140420   0.820   3.025   4.272 -0.8521  1.8635 -1.6547
 6287TIP3    H240421   0.900   2.923   4.194 -1.7267  0.7554 -1.1283
 6288TIP3   OH240422   6.645   1.477   1.218  0.0815 -0.1699 -0.0507
 6288TIP3    H140423   6.727   1.517   1.191  0.5198 -1.9408 -1.5443
 6288TIP3    H240424   6.669   1.389   1.249 -1.0845 -0.1826  0.9218
 6289TIP3   OH240425   6.430   2.955   4.392  0.0764 -0.3555  0.0743
 6289TIP3    H140426   6.437   3.029   4.453  2.2526 -1.3961  1.1707
 6289TIP3    H240427   6.374   2.892   4.438  1.8868 -1.2296  1.1845
 6290TIP3   OH240428   1.315   4.705   3.167 -0.0843  0.4374  0.3768
 6290TIP3    H140429   1.292   4.791   3.200  2.3986  1.2076  0.3389
 6290TIP3    H240430   1.291   4.707   3.074  0.6868  1.4294  0.1769
 6291TIP3   OH240431   6.040   3.194   3.833  0.1440  0.6270 -0.5329
 6291TIP3    H140432   6.113   3.163   3.780  0.1074  1.1047 -0.8630
 6291TIP3    H240433   5.963   3.151   3.795  0.2291  0.2684 -0.3012
 6292TIP3   OH240434   4.115   3.924   3.416 -0.4083  0.0816 -0.1883
 6292TIP3    H140435   4.064   3.846   3.394  0.3886 -0.2531 -0.9046
 6292TIP3    H240436   4.181   3.930   3.347  0.7533  0.2970  0.9063
 6293TIP3   OH240437   0.329   0.435   0.475 -0.1489  0.3707 -0.3395
 6293TIP3    H140438   0.251   0.380   0.464 -0.1242 -0.0377  1.3070
 6293TIP3    H240439   0.331   0.455   0.569  2.1240 -0.2495 -0.2075
 6294TIP3   OH240440   1.946   1.407   2.362 -0.2757  0.5781  0.2174
 6294TIP3    H140441   1.878   1.419   2.296  0.1707 -0.0335 -0.3706
 6294TIP3    H240442   1.995   1.490   2.361  0.3012  0.2453 -0.9010
 6295TIP3   OH240443   6.140   1.663   1.242  0.0210 -0.3529 -0.2372
 6295TIP3    H140444   6.140   1.758   1.232  0.2015 -0.3567 -0.2637
 6295TIP3    H240445   6.219   1.643   1.291 -0.5441 -0.3913  0.6839
 6296TIP3   OH240446   5.452   6.614   1.885  0.2709  0.2478 -0.2893
 6296TIP3    H140447   5.421   6.599   1.795 -0.4991  4.1907 -0.8516
 6296TIP3    H240448   5.398   6.686   1.917  3.0904  1.5488  1.9378
 6297TIP3   OH240449   5.183   4.278   1.307 -0.1110  0.3088  0.2759
 6297TIP3    H140450   5.273   4.306   1.323 -0.1933 -0.3715  2.2063
 6297TIP3    H240451   5.159   4.320   1.225  1.8567  0.7558 -0.1195
 6298TIP3   OH240452   1.021   1.817   2.858  0.1433 -0.5435  0.2227
 6298TIP3    H140453   1.023   1.892   2.917  3.3058  0.6300 -1.1187
 6298TIP3    H240454   1.054   1.744   2.910 -1.1129 -0.5831  0.9992
 6299TIP3   OH240455   1.158   3.399   5.012  0.1465  0.6875  0.6238
 6299TIP3    H140456   1.212   3.478   5.006  1.1981  0.1737  2.4618
 6299TIP3    H240457   1.068   3.431   5.004  0.6063  1.9199  0.1698
 6300TIP3   OH240458   2.449   1.343   0.712 -0.0278  0.2004  0.3742
 6300TIP3    H140459   2.505   1.290   0.656 -1.1210 -1.3242  0.6668
 6300TIP3    H240460   2.507   1.413   0.745  0.9894  0.2655 -1.4437
 6301TIP3   OH240461   3.847   5.342   3.218 -0.1972  0.5762 -0.6227
 6301TIP3    H140462   3.827   5.320   3.309  1.6184 -1.0522 -0.5445
 6301TIP3    H240463   3.773   5.309   3.168 -0.3300 -0.2385  0.0941
 6302TIP3   OH240464   6.135   0.839   2.525  0.0927 -0.1303  0.9051
 6302TIP3    H140465   6.141   0.934   2.516  1.6401 -0.2605  0.1776
 6302TIP3    H240466   6.146   0.824   2.619 -2.4245  0.4969  1.3594
 6303TIP3   OH240467   3.147   4.258   3.173  0.5865  0.1694  0.3702
 6303TIP3    H140468   3.163   4.284   3.263  0.3703  1.7287 -0.0162
 6303TIP3    H240469   3.219   4.199   3.152  1.0264  0.3437  1.3416
 6304TIP3   OH240470   3.868   4.186   3.723  0.1929 -0.4892  0.2032
 6304TIP3    H140471   3.937   4.169   3.660 -1.1322 -2.2293 -0.8781
 6304TIP3    H240472   3.810   4.110   3.717 -2.3672  1.2939  0.2855
 6305TIP3   OH240473   2.974   0.986   3.777  0.3212  0.0603 -0.1099
 6305TIP3    H140474   2.955   0.968   3.869  2.1418  0.3422  0.3491
 6305TIP3    H240475   2.998   1.079   3.775  1.2843 -0.1894 -0.6865
 6306TIP3   OH240476   3.861   2.169   8.403  0.3282  0.0892  0.5300
 6306TIP3    H140477   3.845   2.103   8.336  1.4350 -0.8897  1.1779
 6306TIP3    H240478   3.789   2.231   8.395 -0.5717 -1.0385 -0.3048
 6307TIP3   OH240479   6.453   2.317   2.452  0.0954 -0.2077  0.2056
 6307TIP3    H140480   6.376   2.279   2.495 -0.5016  0.0388 -0.6225
 6307TIP3    H240481   6.447   2.286   2.361  0.7023  0.2225  0.0119
 6308TIP3   OH240482   4.630   6.303   8.532  0.1857 -0.0739 -0.0835
 6308TIP3    H140483   4.536   6.319   8.525  0.3879  1.5970  0.5627
 6308TIP3    H240484   4.655   6.340   8.616  1.3060 -1.2096  0.1144
 6309TIP3   OH240485   0.955   2.265   2.658  0.4209  0.7333  0.5660
 6309TIP3    H140486   0.936   2.354   2.688 -0.4108  1.2418 -1.2782
 6309TIP3    H240487   1.050   2.258   2.661  0.6931  2.5206 -1.2840
 6310TIP3   OH240488   6.667   5.704   3.550 -0.1945  0.2266  0.1571
 6310TIP3    H140489   6.589   5.757   3.566 -0.4966 -0.5165  1.2433
 6310TIP3    H240490   6.646   5.654   3.472 -1.1163 -0.5120  0.8582
 6311TIP3   OH240491   3.419   2.274   2.109 -0.6177 -0.4829  0.2586
 6311TIP3    H140492   3.473   2.205   2.070  1.6466  0.8088  0.8798
 6311TIP3    H240493   3.417   2.254   2.202  0.7592  0.6256  0.5773
 6312TIP3   OH240494   6.007   2.312   2.113  0.0355  0.2665  0.0080
 6312TIP3    H140495   5.987   2.360   2.033 -2.1066  0.1643  0.4257
 6312TIP3    H240496   6.090   2.268   2.094  1.1705  2.6591 -1.0068
 6313TIP3   OH240497   1.334   4.025   4.345  0.4809  0.0249  0.2956
 6313TIP3    H140498   1.368   4.085   4.412 -0.2177  1.6316 -0.7160
 6313TIP3    H240499   1.242   4.050   4.334 -0.1376 -1.9643  0.5691
 6314TIP3   OH240500   5.154   5.867   1.176 -0.2457  0.1696 -0.0762
 6314TIP3    H140501   5.207   5.915   1.112 -1.6503  1.0945 -0.6190
 6314TIP3    H240502   5.115   5.795   1.126 -0.6955  0.4066 -0.0772
 6315TIP3   OH240503   2.483   1.006   2.039 -0.2061 -0.8370 -0.5200
 6315TIP3    H140504   2.414   0.992   1.974 -0.0632 -0.5801 -0.7262
 6315TIP3    H240505   2.495   1.101   2.043 -1.5660 -0.6774  1.2995
 6316TIP3   OH240506   2.139   2.676   4.401 -0.8981  0.1069  0.2334
 6316TIP3    H140507   2.169   2.764   4.421 -2.5321  0.5996  0.6916
 6316TIP3    H240508   2.043   2.684   4.396 -1.0844 -1.6543  0.3784
 6317TIP3   OH240509   1.349   0.047   2.719  0.3001 -0.0436 -0.3992
 6317TIP3    H140510   1.374   0.084   2.804 -0.8101 -1.1723  0.4507
 6317TIP3    H240511   1.431   0.012   2.683  0.4900 -1.2134  1.0663
 6318TIP3   OH240512   5.828   0.316   1.276 -0.1923 -0.0403 -0.0540
 6318TIP3    H140513   5.741   0.294   1.241 -0.8312  0.1845  1.3025
 6318TIP3    H240514   5.817   0.308   1.371  1.0919  0.7018  0.1695
 6319TIP3   OH240515   2.742   2.947   0.803 -0.5656 -0.0585 -0.2088
 6319TIP3    H140516   2.828   2.940   0.760 -0.3013 -1.0295  0.4434
 6319TIP3    H240517   2.680   2.919   0.736 -0.1908 -1.1876 -0.1038
 6320TIP3   OH240518   3.910   2.710   2.725 -0.0087  0.4144 -0.0778
 6320TIP3    H140519   3.915   2.672   2.813 -0.2418 -1.3519 -0.7790
 6320TIP3    H240520   3.988   2.676   2.680 -0.4369  0.4638 -0.8659
 6321TIP3   OH240521   4.782   1.565   1.738  0.4594 -0.1314 -0.0696
 6321TIP3    H140522   4.755   1.655   1.757  0.1533  0.1363 -1.6955
 6321TIP3    H240523   4.878   1.570   1.730  0.5035 -0.0805  0.4268
 6322TIP3   OH240524   0.329   3.645   0.305  0.2072  0.2539 -0.0417
 6322TIP3    H140525   0.376   3.703   0.245 -1.8584  0.9231 -1.1277
 6322TIP3    H240526   0.292   3.704   0.371 -0.7648  0.0317 -0.3711
 6323TIP3   OH240527   2.943   5.757   1.283  0.0443 -0.3734  0.1294
 6323TIP3    H140528   2.858   5.716   1.264  0.1409 -0.2975 -0.5174
 6323TIP3    H240529   2.994   5.688   1.325 -0.2551 -0.4937  0.3005
 6324TIP3   OH240530   0.023   2.518   1.385  0.2428  0.2756 -0.2614
 6324TIP3    H140531  -0.023   2.526   1.301 -1.2941 -0.9017  0.4130
 6324TIP3    H240532  -0.014   2.588   1.439  0.8461  0.7002 -0.3958
 6325TIP3   OH240533   3.914   4.648   2.331 -0.5335  0.1329 -0.6709
 6325TIP3    H140534   3.998   4.683   2.359  0.0265 -1.4486 -0.2407
 6325TIP3    H240535   3.882   4.599   2.407 -2.0713  1.0662 -0.6800
 6326TIP3   OH240536   0.214   2.835   3.450  0.3687  0.1048  0.1434
 6326TIP3    H140537   0.212   2.804   3.359 -0.3688  1.8777 -0.4935
 6326TIP3    H240538   0.126   2.816   3.483  0.7259 -0.7983  0.5954
 6327TIP3   OH240539   5.419   0.334   2.091 -0.0054  0.5981 -0.4739
 6327TIP3    H140540   5.445   0.369   2.176 -1.1626  0.6444 -0.1226
 6327TIP3    H240541   5.396   0.411   2.039  1.9065  0.6857 -1.3020
 6328TIP3   OH240542   6.891   1.291   3.824 -0.2148  0.2945 -0.1494
 6328TIP3    H140543   6.853   1.240   3.753  1.6692 -1.1561 -0.1866
 6328TIP3    H240544   6.862   1.248   3.904 -0.7511  0.7718 -0.0762
 6329TIP3   OH240545   1.174   4.203   2.248  0.1083  0.1037 -0.3189
 6329TIP3    H140546   1.135   4.158   2.173 -1.3914 -1.3841  1.2781
 6329TIP3    H240547   1.110   4.192   2.319  1.9396  0.5468  1.4890
 6330TIP3   OH240548   1.380   5.269   2.833 -0.1333  0.6717 -0.3446
 6330TIP3    H140549   1.340   5.252   2.919 -1.3943  1.5972 -0.7377
 6330TIP3    H240550   1.319   5.231   2.770 -0.0694  1.5033 -0.9199
 6331TIP3   OH240551   3.144   2.003   4.354  0.0333 -0.2771  0.1738
 6331TIP3    H140552   3.071   2.010   4.416 -1.6931 -0.5327 -1.7223
 6331TIP3    H240553   3.200   1.935   4.390 -1.4985 -1.2012  0.9110
 6332TIP3   OH240554   0.938   5.348   3.708 -0.4445  0.1937 -0.6603
 6332TIP3    H140555   1.020   5.381   3.744 -0.7869  0.1090  0.2491
 6332TIP3    H240556   0.880   5.425   3.707 -1.2031 -0.2621  1.3387
 6333TIP3   OH240557   2.407   3.173   0.469  0.6261  0.6664 -1.1902
 6333TIP3    H140558   2.318   3.205   0.483  0.5373  0.1343 -0.4557
 6333TIP3    H240559   2.403   3.128   0.385 -0.4671 -1.5289 -0.0637
 6334TIP3   OH240560   3.221   3.660   3.925 -0.1154 -0.6033  0.1241
 6334TIP3    H140561   3.240   3.729   3.861  0.9903 -1.1561 -0.1605
 6334TIP3    H240562   3.245   3.699   4.009 -0.0439 -0.4451  0.0318
 6335TIP3   OH240563   3.106   4.912   1.944  0.1721  0.1151 -0.0359
 6335TIP3    H140564   3.061   4.941   1.865  0.8497  2.3492  0.3360
 6335TIP3    H240565   3.039   4.913   2.012  0.1287  0.5356 -0.0850
 6336TIP3   OH240566   2.126   3.582   3.090  0.1121 -0.1633  0.4398
 6336TIP3    H140567   2.088   3.512   3.037 -0.4096  0.7219 -0.3893
 6336TIP3    H240568   2.120   3.550   3.180  0.7116 -1.5480  0.0079
 6337TIP3   OH240569   3.917   1.973   0.923 -0.1640  0.2958  0.2207
 6337TIP3    H140570   3.936   1.886   0.957  0.8902  0.0749 -0.8480
 6337TIP3    H240571   3.981   1.986   0.853 -1.0158  1.4783 -0.3888
 6338TIP3   OH240572   2.941   5.244   2.404  0.5033 -0.1566  0.0468
 6338TIP3    H140573   2.997   5.295   2.464 -0.6844 -0.1770  1.2185
 6338TIP3    H240574   2.990   5.242   2.322  1.5942  0.9970  0.6263
 6339TIP3   OH240575   3.950   5.690   3.581  0.3147  0.1594  0.4537
 6339TIP3    H140576   3.921   5.637   3.656 -0.7049  1.4988  1.0544
 6339TIP3    H240577   4.022   5.639   3.542 -0.1384 -1.2986  1.4169
 6340TIP3   OH240578   0.602   6.695   3.191  0.6484  0.4875 -0.6064
 6340TIP3    H140579   0.578   6.782   3.159 -1.3558  0.5423  0.8475
 6340TIP3    H240580   0.681   6.709   3.243  0.6475  1.3507 -0.8276
 6341TIP3   OH240581   2.153   6.143   2.969 -0.0576 -0.1956 -0.3824
 6341TIP3    H140582   2.132   6.058   2.930  1.6272 -0.8298  0.0033
 6341TIP3    H240583   2.169   6.124   3.061 -0.6742  0.7295 -0.0703
 6342TIP3   OH240584   6.386   5.685   3.192  0.1325  0.4465  0.2054
 6342TIP3    H140585   6.463   5.738   3.212 -0.1821  0.2422  2.1860
 6342TIP3    H240586   6.373   5.631   3.270 -0.5372 -1.3657 -1.0920
 6343TIP3   OH240587   4.310   2.556   2.961  0.0881  0.5535 -0.1104
 6343TIP3    H140588   4.283   2.465   2.972  1.6453  0.1970  1.0259
 6343TIP3    H240589   4.230   2.607   2.974 -0.6418 -0.6064  0.0390
 6344TIP3   OH240590   4.435   4.562   3.504 -0.3101  0.0120 -0.2879
 6344TIP3    H140591   4.357   4.509   3.487 -0.5480  0.0782  0.5500
 6344TIP3    H240592   4.490   4.506   3.560 -1.4310  1.3058  2.2773
 6345TIP3   OH240593   1.180   2.252   3.395  0.0444  0.6382  0.4909
 6345TIP3    H140594   1.252   2.281   3.338 -1.1607  1.0968 -0.8734
 6345TIP3    H240595   1.219   2.185   3.451  1.0158 -0.8920 -1.8525
 6346TIP3   OH240596   1.632   6.715   3.064  0.0844  0.6149 -0.3989
 6346TIP3    H140597   1.578   6.702   2.986  0.3201 -1.6085 -0.2596
 6346TIP3    H240598   1.716   6.674   3.042  0.9827  2.0728  0.1847
 6347TIP3   OH240599   1.572   2.686   1.529  0.1040 -0.2527 -0.2171
 6347TIP3    H140600   1.666   2.684   1.510  0.2518  0.7242  0.3248
 6347TIP3    H240601   1.531   2.708   1.445  0.5034  0.9297 -0.1252
 6348TIP3   OH240602   4.506   6.860   0.830  0.5599  0.2004 -0.1338
 6348TIP3    H140603   4.499   6.955   0.820 -1.7082  0.1344  0.3041
 6348TIP3    H240604   4.600   6.844   0.844  0.8830  2.4601  0.7334
 6349TIP3   OH240605   0.911   5.413   1.387  0.2306 -0.3527 -0.4587
 6349TIP3    H140606   0.952   5.420   1.474  0.1724  1.9116 -0.5411
 6349TIP3    H240607   0.871   5.326   1.386 -0.1353 -0.2818  1.9544
 6350TIP3   OH240608   1.385   1.469   3.814 -0.4569  0.0945  0.2195
 6350TIP3    H140609   1.457   1.526   3.842 -0.9406  0.9953 -0.3159
 6350TIP3    H240610   1.333   1.455   3.893  0.6946 -1.1914  0.7879
 6351TIP3   OH240611   1.663   5.316   3.011  0.1274  0.5857 -0.0980
 6351TIP3    H140612   1.679   5.360   2.928  0.7390  0.0208 -0.2904
 6351TIP3    H240613   1.568   5.313   3.020  0.0678  1.0230 -0.5727
 6352TIP3   OH240614   4.433   1.752   2.399 -0.4150 -0.4721 -0.3433
 6352TIP3    H140615   4.436   1.843   2.369  0.0686 -0.1396  0.6688
 6352TIP3    H240616   4.344   1.724   2.380 -0.2807 -0.1288 -1.6129
 6353TIP3   OH240617   3.116   0.185   3.757  0.2984  0.0897  0.0309
 6353TIP3    H140618   3.033   0.166   3.713  0.8836  0.8671 -1.4959
 6353TIP3    H240619   3.099   0.167   3.850 -2.2820  2.3725  0.1343
 6354TIP3   OH240620   6.319   3.133   2.137 -0.3707 -0.3787  0.2340
 6354TIP3    H140621   6.313   3.048   2.179  1.3629  0.0502  1.4148
 6354TIP3    H240622   6.236   3.176   2.158 -0.8340 -1.3714  0.4806
 6355TIP3   OH240623   6.450   3.176   1.031  0.3086 -0.2373 -0.3853
 6355TIP3    H140624   6.508   3.234   1.080  0.1404 -0.3848 -0.0139
 6355TIP3    H240625   6.488   3.175   0.943  1.3321 -0.9268  0.0379
 6356TIP3   OH240626   3.601   2.920   0.802 -0.2207 -0.1861  0.3740
 6356TIP3    H140627   3.536   2.858   0.834 -0.8492  0.4939  0.4559
 6356TIP3    H240628   3.667   2.867   0.758 -0.9685 -0.8672  0.0632
 6357TIP3   OH240629   6.785   3.610   3.653  0.0638 -0.2184  0.4274
 6357TIP3    H140630   6.778   3.541   3.587 -0.4605  1.6055 -1.5108
 6357TIP3    H240631   6.860   3.663   3.625  0.4129  0.0945  1.8355
 6358TIP3   OH240632   6.911   5.783   1.809  0.4282  0.4244 -0.2431
 6358TIP3    H140633   6.854   5.716   1.770 -1.1300  1.8152 -0.4576
 6358TIP3    H240634   6.999   5.747   1.801 -0.0706 -0.4414 -2.8381
 6359TIP3   OH240635   4.814   4.061   4.085  0.6707 -0.1519 -0.2590
 6359TIP3    H140636   4.783   3.979   4.125  1.7067 -0.7993 -0.7424
 6359TIP3    H240637   4.736   4.098   4.044 -0.0622 -0.2866  0.9856
 6360TIP3   OH240638   5.082   3.287   2.609  0.2678 -0.0174  0.0904
 6360TIP3    H140639   5.121   3.209   2.570 -1.7004 -0.8894 -0.2674
 6360TIP3    H240640   5.150   3.354   2.603  1.2865 -1.1369 -1.4858
 6361TIP3   OH240641   5.236   0.152   1.960  0.3541  0.0342  0.0086
 6361TIP3    H140642   5.183   0.226   1.930 -0.7292 -0.3921  0.8241
 6361TIP3    H240643   5.320   0.192   1.984 -0.3181  1.0579  0.7305
 6362TIP3   OH240644   6.423   0.527   3.028 -0.0076 -0.4060  0.0918
 6362TIP3    H140645   6.375   0.464   2.975  0.8966  0.3876 -1.7496
 6362TIP3    H240646   6.505   0.541   2.981  0.2254  1.4258  0.9479
 6363TIP3   OH240647   5.177   0.785   2.856  0.4340  0.2001  0.3554
 6363TIP3    H140648   5.172   0.842   2.933 -0.9834 -0.3126  0.6811
 6363TIP3    H240649   5.129   0.832   2.788 -0.2326 -0.3274  0.4520
 6364TIP3   OH240650   0.546   1.607   3.842 -0.2415  0.2489  0.5487
 6364TIP3    H140651   0.482   1.596   3.772 -0.4244  3.2970  0.1251
 6364TIP3    H240652   0.495   1.640   3.916  0.3095 -0.8718  1.4680
 6365TIP3   OH240653   5.150   1.618   4.001 -0.4604 -0.4541  0.9548
 6365TIP3    H140654   5.201   1.544   3.969 -0.2933 -0.3859  1.0627
 6365TIP3    H240655   5.062   1.605   3.965 -0.6310 -1.1051  1.5765
 6366TIP3   OH240656   4.438   6.568   2.743  0.4827 -0.4360 -0.5755
 6366TIP3    H140657   4.425   6.474   2.758 -1.3386 -0.1423 -0.0539
 6366TIP3    H240658   4.463   6.604   2.828  1.2490 -0.4460 -0.7902
 6367TIP3   OH240659   1.659   3.717   3.589  0.5531  0.2055  0.1579
 6367TIP3    H140660   1.596   3.646   3.586  2.0995 -1.2699  1.0786
 6367TIP3    H240661   1.637   3.765   3.669 -0.8793  1.2171 -0.7793
 6368TIP3   OH240662   2.308   4.936   1.370  0.0483  0.9317  0.2491
 6368TIP3    H140663   2.241   4.939   1.302  0.6436  0.2330 -0.3966
 6368TIP3    H240664   2.270   4.983   1.443 -1.7948 -0.7319  0.4614
 6369TIP3   OH240665   5.089   3.611   1.529 -0.0696 -0.4964 -0.1304
 6369TIP3    H140666   5.170   3.634   1.483  0.4927 -0.6406  0.7694
 6369TIP3    H240667   5.089   3.666   1.607 -2.1611  1.4498 -1.3908
 6370TIP3   OH240668   1.642   4.639   2.472  0.0242  0.0797  0.1090
 6370TIP3    H140669   1.603   4.582   2.406 -0.1364 -1.9750  1.8808
 6370TIP3    H240670   1.574   4.703   2.491 -0.3616 -0.0261 -0.8502
 6371TIP3   OH240671   3.447   5.847   1.918 -0.0623  0.0816  0.2408
 6371TIP3    H140672   3.387   5.881   1.984 -0.4754  0.1769 -0.1782
 6371TIP3    H240673   3.412   5.880   1.835  0.2771 -0.2902 -0.0510
 6372TIP3   OH240674   3.001   4.787   1.543 -1.0099 -0.7984 -0.5773
 6372TIP3    H140675   3.013   4.823   1.455  1.0915  1.7271  0.6110
 6372TIP3    H240676   3.080   4.736   1.559 -1.3465 -1.1735 -0.1154
 6373TIP3   OH240677   4.289   1.695   4.316  0.1591 -0.0429  0.0798
 6373TIP3    H140678   4.295   1.663   4.227  0.8759 -0.0564  0.1268
 6373TIP3    H240679   4.265   1.618   4.368 -0.9269  0.1061 -0.1838
 6374TIP3   OH240680   4.675   4.840   1.778 -0.1985 -0.3095  0.2363
 6374TIP3    H140681   4.662   4.745   1.779  1.1039 -0.5202 -0.6187
 6374TIP3    H240682   4.638   4.868   1.694  1.5422 -0.4173 -0.5920
 6375TIP3   OH240683   0.326   1.710   3.425  0.2137 -0.4885 -0.1247
 6375TIP3    H140684   0.355   1.678   3.339 -1.9687  0.7103 -1.3969
 6375TIP3    H240685   0.329   1.805   3.417 -1.6611 -0.3322  0.4679
 6376TIP3   OH240686   5.278   4.685   1.703  0.4052  0.2884  0.3486
 6376TIP3    H140687   5.267   4.770   1.661  1.1295 -0.0418 -0.5314
 6376TIP3    H240688   5.267   4.703   1.797  0.1201  1.2678  0.1371
 6377TIP3   OH240689   4.104   5.854   1.199  0.0565 -0.6178  0.3219
 6377TIP3    H140690   4.107   5.760   1.179  1.0256 -0.5166 -0.0293
 6377TIP3    H240691   4.065   5.894   1.122  1.8828 -0.4667 -0.5642
 6378TIP3   OH240692   0.940   4.047   3.706  0.1545  0.2771  0.4600
 6378TIP3    H140693   0.997   4.001   3.768  1.5790  0.8224 -0.3815
 6378TIP3    H240694   0.864   3.990   3.696  1.3247 -1.3348  0.3473
 6379TIP3   OH240695   2.179   2.100   0.155 -0.1217  0.5118 -0.2797
 6379TIP3    H140696   2.252   2.046   0.186  0.6745 -0.0570 -2.8711
 6379TIP3    H240697   2.105   2.039   0.150  0.3597 -0.0183 -1.6281
 6380TIP3   OH240698   2.381   5.661   2.370  0.2502 -0.5374  0.2323
 6380TIP3    H140699   2.382   5.593   2.302  1.8450  0.5443 -0.8962
 6380TIP3    H240700   2.471   5.695   2.371 -0.4096  1.2919  1.0254
 6381TIP3   OH240701   5.166   2.840   3.296  0.2022 -0.1372  0.7133
 6381TIP3    H140702   5.247   2.890   3.304  0.1606  0.1107 -0.3170
 6381TIP3    H240703   5.195   2.751   3.278  0.2747  0.3307 -1.8156
 6382TIP3   OH240704   1.283   0.709   1.853 -0.5827  0.0713 -0.2340
 6382TIP3    H140705   1.269   0.669   1.767 -2.5321 -2.2817  1.0624
 6382TIP3    H240706   1.198   0.701   1.898  0.4629  0.8635  2.0586
 6383TIP3   OH240707   3.062   6.667   3.017 -0.3203 -0.1848  0.6529
 6383TIP3    H140708   3.035   6.691   3.106  1.2421  1.5532  0.7280
 6383TIP3    H240709   3.045   6.573   3.011  0.8308 -0.6575  3.3054
 6384TIP3   OH240710   4.448   5.361   2.499  0.4275  0.2153 -0.3808
 6384TIP3    H140711   4.419   5.449   2.476 -0.9995 -0.0852  0.1906
 6384TIP3    H240712   4.501   5.333   2.424 -0.4407  0.9430 -1.2992
 6385TIP3   OH240713   2.878   5.835   3.158 -0.0634 -0.2153  0.0042
 6385TIP3    H140714   2.794   5.816   3.201  0.0783 -1.7196 -0.3254
 6385TIP3    H240715   2.900   5.754   3.113  1.2425  0.3934 -0.4857
 6386TIP3   OH240716   4.228   2.939   2.676  0.3913  0.4150  0.3878
 6386TIP3    H140717   4.276   2.858   2.695 -0.5433  0.0905  1.4963
 6386TIP3    H240718   4.170   2.915   2.603  0.2570  0.1341  0.5825
 6387TIP3   OH240719   2.520   2.996   3.485  0.0316  0.6482  0.7403
 6387TIP3    H140720   2.526   3.085   3.449 -0.5243  0.1059 -0.7545
 6387TIP3    H240721   2.434   2.993   3.527 -0.2548  0.6073  0.1638
 6388TIP3   OH240722   4.461   0.743   1.499 -0.5339 -0.1673  0.0591
 6388TIP3    H140723   4.372   0.707   1.490 -0.7812  0.4606 -0.0700
 6388TIP3    H240724   4.489   0.714   1.586 -0.9292 -0.2380  0.1681
 6389TIP3   OH240725   0.952   0.904   2.214  0.1431  0.0872 -0.2795
 6389TIP3    H140726   1.022   0.955   2.174 -0.4676  0.6321 -0.6898
 6389TIP3    H240727   0.968   0.911   2.308 -0.9575  2.6877 -0.1863
 6390TIP3   OH240728   4.779   5.783   2.249 -0.2141  0.7539 -0.9151
 6390TIP3    H140729   4.689   5.798   2.220 -0.5257 -0.1811 -0.4668
 6390TIP3    H240730   4.796   5.855   2.310 -1.0211  0.3891 -0.2363
 6391TIP3   OH240731   1.436   2.931   2.415  0.0358  0.3792  0.2095
 6391TIP3    H140732   1.471   2.859   2.467 -1.8640 -0.7663 -0.0155
 6391TIP3    H240733   1.498   3.003   2.429  0.8592 -0.6350  2.1074
 6392TIP3   OH240734   1.159   3.983   1.320 -0.0248 -0.2160  0.2038
 6392TIP3    H140735   1.190   3.906   1.273  0.5705 -0.8745  1.6257
 6392TIP3    H240736   1.139   4.046   1.251  0.5685 -1.2325 -0.9422
 6393TIP3   OH240737   3.011   6.564   4.634  0.0812 -0.9506 -0.9998
 6393TIP3    H140738   3.045   6.504   4.569  2.3599  0.3345 -1.0875
 6393TIP3    H240739   3.035   6.526   4.718 -1.9697 -2.0956 -0.8764
 6394TIP3   OH240740   6.145   1.940   1.307  0.0066 -0.2347  0.0515
 6394TIP3    H140741   6.201   1.922   1.383 -0.5645  0.3218  0.6120
 6394TIP3    H240742   6.120   2.032   1.317  0.5871  0.0877 -1.2497
 6395TIP3   OH240743   3.730   3.064   4.246 -0.4004  0.4140  0.3728
 6395TIP3    H140744   3.664   3.022   4.190  1.0294 -0.5769 -0.6306
 6395TIP3    H240745   3.755   2.996   4.308 -0.2362  0.7590  0.6852
 6396TIP3   OH240746   2.224   0.963   2.715 -0.1371  0.1684  0.0090
 6396TIP3    H140747   2.212   0.919   2.630  2.1256 -0.0859 -0.2555
 6396TIP3    H240748   2.218   1.056   2.695 -0.6743  0.0829 -0.2372
 6397TIP3   OH240749   0.236   4.775   1.153  0.4606 -0.4812  0.3891
 6397TIP3    H140750   0.181   4.725   1.092 -1.0189 -0.2740  1.4829
 6397TIP3    H240751   0.291   4.709   1.195 -1.8031 -1.3993  2.1676
 6398TIP3   OH240752   5.698   6.737   2.382 -0.3733  0.3016 -0.0724
 6398TIP3    H140753   5.750   6.741   2.301 -0.1085 -1.1860  0.0031
 6398TIP3    H240754   5.612   6.706   2.354  0.0670 -1.3882  0.3331
 6399TIP3   OH240755   4.029   6.805   1.643  0.0528  0.2333 -0.2169
 6399TIP3    H140756   3.979   6.745   1.587 -0.2320  1.3527 -1.2040
 6399TIP3    H240757   3.963   6.858   1.687  0.3302  0.4903 -0.1077
 6400TIP3   OH240758   6.170   6.589   0.565 -0.1390  0.1704 -0.4073
 6400TIP3    H140759   6.141   6.514   0.617  1.6956 -0.4191 -0.1559
 6400TIP3    H240760   6.166   6.559   0.474  1.1914 -0.5142 -0.2728
 6401TIP3   OH240761   1.264   4.564   0.682 -0.5628  0.3920  0.6340
 6401TIP3    H140762   1.298   4.475   0.682 -1.3134  0.0817 -0.5042
 6401TIP3    H240763   1.228   4.576   0.594  0.5918  2.2337  0.3545
 6402TIP3   OH240764   3.270   0.023   0.232 -0.2064 -0.1304 -0.3984
 6402TIP3    H140765   3.210  -0.019   0.170  1.0137 -0.7579 -1.1972
 6402TIP3    H240766   3.355   0.021   0.188  0.4613  0.4952  0.8147
 6403TIP3   OH240767   5.760   1.868   3.448 -0.2919  0.1414  0.0942
 6403TIP3    H140768   5.802   1.953   3.433 -1.3040  0.6530 -0.0140
 6403TIP3    H240769   5.666   1.889   3.450 -0.9262 -1.5014 -3.8187
 6404TIP3   OH240770   2.840   4.001   4.495  0.5523 -0.3764  0.2606
 6404TIP3    H140771   2.917   3.966   4.540  0.9520 -2.2025 -1.6726
 6404TIP3    H240772   2.869   4.085   4.460  0.7938  0.2027  1.7637
 6405TIP3   OH240773   6.009   2.265   0.560 -0.7476 -0.6296 -0.9976
 6405TIP3    H140774   6.050   2.322   0.625 -2.1493 -1.1006  0.3517
 6405TIP3    H240775   6.050   2.291   0.477  0.6621  0.3967 -0.0422
 6406TIP3   OH240776   6.878   3.311   1.528 -0.3678  0.5267  0.6169
 6406TIP3    H140777   6.795   3.320   1.575  1.0356  1.9359  3.0369
 6406TIP3    H240778   6.894   3.217   1.525 -2.9876  0.0037 -1.8647
 6407TIP3   OH240779   2.822   1.790   2.621 -0.0417  0.6385 -0.1842
 6407TIP3    H140780   2.831   1.777   2.526  1.3443  2.3998 -0.3321
 6407TIP3    H240781   2.907   1.822   2.649 -0.3259 -0.1663  1.7589
 6408TIP3   OH240782   2.433   5.201   2.043  0.4070  0.2057 -0.5666
 6408TIP3    H140783   2.398   5.133   1.986 -0.1264 -0.9455  1.0752
 6408TIP3    H240784   2.407   5.284   2.002 -2.8851 -0.5730 -0.2816
 6409TIP3   OH240785   4.771   2.752   0.637 -0.0820  0.1225  0.6324
 6409TIP3    H140786   4.719   2.763   0.716 -0.8639  2.1937 -0.1148
 6409TIP3    H240787   4.714   2.702   0.578 -1.3468  2.3817 -0.1842
 6410TIP3   OH240788   5.171   3.015   0.915 -0.9727  0.0200  0.0209
 6410TIP3    H140789   5.185   3.014   0.820  1.7078 -0.2161  0.3520
 6410TIP3    H240790   5.156   3.107   0.936  0.5150  0.3914 -0.4200
 6411TIP3   OH240791   6.167   0.858   4.223 -0.2952  0.2169  0.0833
 6411TIP3    H140792   6.104   0.856   4.295 -0.2050 -0.1232  0.1520
 6411TIP3    H240793   6.252   0.867   4.267 -0.1979 -0.5034  0.0399
 6412TIP3   OH240794   4.305   2.555   1.541 -0.1501 -0.0980  0.3282
 6412TIP3    H140795   4.225   2.577   1.588 -0.9558  0.8710 -1.3839
 6412TIP3    H240796   4.312   2.622   1.473  1.6520 -0.6771 -0.1177
 6413TIP3   OH240797   3.043   3.411   4.754 -0.1102  0.1707  0.0327
 6413TIP3    H140798   3.117   3.396   4.812 -0.7155 -2.0657  0.3037
 6413TIP3    H240799   3.000   3.489   4.791  1.3644  0.7677  0.5767
 6414TIP3   OH240800   0.024   3.627   4.319 -0.1049 -0.4666 -0.1576
 6414TIP3    H140801   0.118   3.637   4.307 -0.1215 -0.0639  0.0284
 6414TIP3    H240802   0.009   3.532   4.317  0.6799 -0.7351  2.3453
 6415TIP3   OH240803   2.511   4.210   3.307 -0.1734  0.2284  0.2984
 6415TIP3    H140804   2.550   4.128   3.277  1.1010  0.5881  0.8630
 6415TIP3    H240805   2.419   4.204   3.284 -0.2904 -1.7306  1.1093
 6416TIP3   OH240806   0.256   6.819   1.929  0.4368 -0.0406 -0.0622
 6416TIP3    H140807   0.208   6.796   1.849  0.0674  0.6337 -0.0496
 6416TIP3    H240808   0.194   6.801   1.999  1.1856 -1.8046  0.1977
 6417TIP3   OH240809   2.212   4.599   1.582  0.0559  0.5919 -0.2782
 6417TIP3    H140810   2.300   4.630   1.558  0.5630 -0.5913  0.0018
 6417TIP3    H240811   2.224   4.507   1.606 -1.4233  0.1238 -1.1778
 6418TIP3   OH240812   2.636   5.470   1.926 -0.1318  0.1202 -0.2472
 6418TIP3    H140813   2.569   5.471   1.993 -0.2539 -0.1025 -0.3634
 6418TIP3    H240814   2.588   5.455   1.844  0.2157 -2.1452 -0.1117
 6419TIP3   OH240815   5.167   5.198   1.241 -0.0711 -0.5537  0.6311
 6419TIP3    H140816   5.165   5.279   1.291  1.0016 -0.7274  0.9717
 6419TIP3    H240817   5.121   5.218   1.160  2.6625  1.2881 -0.6017
 6420TIP3   OH240818   2.287   4.440   0.806 -0.2605  0.7219 -0.1567
 6420TIP3    H140819   2.255   4.513   0.753  0.6912  1.6521  0.5011
 6420TIP3    H240820   2.210   4.385   0.820 -1.2453  2.1242  0.1633
 6421TIP3   OH240821   5.256   2.227   2.289 -0.2183  0.2490 -0.6800
 6421TIP3    H140822   5.281   2.306   2.337 -0.7929  0.3434 -0.5285
 6421TIP3    H240823   5.327   2.213   2.226  1.2302 -0.6315  1.0564
 6422TIP3   OH240824   5.910   3.805   1.286 -0.2838  0.1344 -0.1057
 6422TIP3    H140825   5.979   3.740   1.298  1.7478  2.1019 -0.3896
 6422TIP3    H240826   5.887   3.833   1.375  1.7677  1.8274 -0.0314
 6423TIP3   OH240827   3.208   1.100   1.670  0.2363  0.6353 -0.2403
 6423TIP3    H140828   3.259   1.175   1.700  0.5704  1.2925 -2.3001
 6423TIP3    H240829   3.244   1.080   1.584  0.0648 -1.8336  0.1728
 6424TIP3   OH240830   1.281   0.028   2.171 -0.4372 -1.3296 -0.2077
 6424TIP3    H140831   1.375   0.039   2.187 -0.3760 -1.9445 -0.1472
 6424TIP3    H240832   1.240   0.055   2.253 -0.3046 -1.2690 -0.1604
 6425TIP3   OH240833   5.803   2.916   1.202  0.0112  0.1087  0.1566
 6425TIP3    H140834   5.898   2.921   1.189 -0.0107  0.8625  0.2306
 6425TIP3    H240835   5.791   2.932   1.296 -0.2075  0.3147  0.0945
 6426TIP3   OH240836   4.704   4.978   2.646  0.0718  0.0548  0.2295
 6426TIP3    H140837   4.744   4.946   2.727  0.8373 -0.0723 -0.1892
 6426TIP3    H240838   4.776   4.980   2.583 -0.5470  0.0193 -0.4909
 6427TIP3   OH240839   3.384   0.170   3.278 -0.3506 -0.5807  0.3360
 6427TIP3    H140840   3.461   0.222   3.302  0.1374 -1.1591  0.0367
 6427TIP3    H240841   3.353   0.211   3.197  1.3844 -2.0788 -1.2002
 6428TIP3   OH240842   5.573   1.976   1.346  0.3366  0.2674  0.0934
 6428TIP3    H140843   5.607   2.052   1.297 -0.3498  0.4777 -0.0742
 6428TIP3    H240844   5.480   1.996   1.359  0.4294  0.0425  1.1779
 6429TIP3   OH240845   0.534   2.272   4.186  0.3629 -0.2538  0.2235
 6429TIP3    H140846   0.595   2.305   4.251 -1.0327  0.6034  1.1454
 6429TIP3    H240847   0.559   2.315   4.104  0.7159  0.4274  0.6893
 6430TIP3   OH240848   0.413   4.008   3.302  0.6261 -0.0866  0.3323
 6430TIP3    H140849   0.364   4.024   3.221  4.9010  0.5679 -2.4186
 6430TIP3    H240850   0.416   3.913   3.310 -1.5551 -0.1622  1.0489
 6431TIP3   OH240851   2.090   0.925   2.093 -0.3093  0.3755  0.9332
 6431TIP3    H140852   2.166   0.929   2.152  0.1967  0.3022  0.3001
 6431TIP3    H240853   2.046   0.844   2.117  0.8709 -0.5660  0.0696
 6432TIP3   OH240854   3.882   1.715   1.867  0.4134  0.2208  0.4367
 6432TIP3    H140855   3.923   1.670   1.793 -2.1725  0.6255 -1.3936
 6432TIP3    H240856   3.801   1.665   1.883 -0.4783  1.8166  1.1029
 6433TIP3   OH240857   1.129   5.508   3.205  0.1909 -0.1008  0.7121
 6433TIP3    H140858   1.145   5.571   3.275  2.0137 -0.8101  0.9740
 6433TIP3    H240859   1.089   5.433   3.248 -0.1823  0.0911  0.7087
 6434TIP3   OH240860   3.411   1.878   3.774  0.0061 -0.1833 -0.0241
 6434TIP3    H140861   3.478   1.887   3.706  0.4662 -0.2178  0.4189
 6434TIP3    H240862   3.415   1.786   3.799  1.3784  0.2694  1.5907
 6435TIP3   OH240863   4.201   1.168   0.410 -0.1324 -0.5635  0.9542
 6435TIP3    H140864   4.109   1.162   0.435 -0.6404  2.8422  0.3689
 6435TIP3    H240865   4.200   1.187   0.316  1.1456 -0.1807  0.9892
 6436TIP3   OH240866   0.191   1.733   1.036  0.4620  0.3413 -0.3601
 6436TIP3    H140867   0.238   1.815   1.021  1.2887 -0.4567 -2.4520
 6436TIP3    H240868   0.259   1.671   1.062 -0.0109  0.0442  0.2009
 6437TIP3   OH240869   5.401   3.916   0.534 -0.3881  0.2567 -0.2893
 6437TIP3    H140870   5.483   3.869   0.549 -0.4549  0.7109  1.8919
 6437TIP3    H240871   5.418   4.004   0.567 -1.6730  0.4259 -0.0314
 6438TIP3   OH240872   5.891   1.495   4.343 -0.0158  0.1008 -0.1788
 6438TIP3    H140873   5.848   1.536   4.269 -0.5647  0.8364  0.5249
 6438TIP3    H240874   5.854   1.408   4.348 -3.5205  1.5172  1.9831
 6439TIP3   OH240875   2.138   2.872   1.530  0.6496 -0.3025 -0.3816
 6439TIP3    H140876   2.226   2.888   1.564  0.6519 -2.4125  0.7748
 6439TIP3    H240877   2.140   2.782   1.499 -0.9276 -0.1619 -0.9967
 6440TIP3   OH240878   1.287   5.129   0.201 -0.4365  0.3527  0.1100
 6440TIP3    H140879   1.238   5.203   0.167  0.9842  0.6625 -1.4064
 6440TIP3    H240880   1.379   5.156   0.197  0.1810 -1.6387 -1.0436
 6441TIP3   OH240881   2.591   0.220   3.303  0.2973  0.3344  0.5733
 6441TIP3    H140882   2.573   0.281   3.231  0.9214 -0.3798 -0.2092
 6441TIP3    H240883   2.525   0.151   3.293  1.2052 -0.4510 -0.1376
 6442TIP3   OH240884   5.810   3.762   3.509 -0.3811 -0.1032 -0.3715
 6442TIP3    H140885   5.852   3.789   3.590 -1.4727  0.6326 -0.0236
 6442TIP3    H240886   5.791   3.844   3.464  0.0462 -0.4948 -1.2943
 6443TIP3   OH240887   3.383   5.370   2.473  0.3386  0.4537  0.2702
 6443TIP3    H140888   3.398   5.342   2.383 -0.8254 -0.1779  0.2468
 6443TIP3    H240889   3.417   5.298   2.526 -2.5229 -1.0939  0.2126
 6444TIP3   OH240890   1.373   1.952   1.185 -0.2528 -0.1168  0.1543
 6444TIP3    H140891   1.322   1.886   1.233 -1.0502  0.6096  0.3225
 6444TIP3    H240892   1.347   1.941   1.093 -0.0268 -0.3434  0.1145
 6445TIP3   OH240893   6.317   2.917   3.976 -0.4085  0.3311 -0.2373
 6445TIP3    H140894   6.254   2.925   3.904 -0.4895  0.9415 -0.1016
 6445TIP3    H240895   6.292   2.835   4.020 -0.2848 -0.1103 -0.9703
 6446TIP3   OH240896   2.390   5.471   1.584  0.0937 -0.4103 -0.5686
 6446TIP3    H140897   2.338   5.421   1.522 -1.1043 -0.5195  0.4823
 6446TIP3    H240898   2.330   5.539   1.616  0.4898 -0.6942  0.8546
 6447TIP3   OH240899   6.075   2.677   3.166 -0.1757  0.0670 -0.7841
 6447TIP3    H140900   6.119   2.700   3.084 -1.0909 -0.9652 -1.5934
 6447TIP3    H240901   5.991   2.641   3.138  0.2174 -2.0033  0.4995
 6448TIP3   OH240902   1.206   2.779   4.331 -0.1486  0.2838 -0.2914
 6448TIP3    H140903   1.213   2.840   4.404  2.3276 -2.1118  1.6766
 6448TIP3    H240904   1.113   2.756   4.328 -0.3332  0.4352  2.2069
 6449TIP3   OH240905   6.168   6.361   1.214  0.3363 -0.4695  0.0561
 6449TIP3    H140906   6.239   6.311   1.254 -0.1562 -0.3546  1.1018
 6449TIP3    H240907   6.212   6.429   1.164  1.0058  1.4756  3.0587
 6450TIP3   OH240908   3.477   3.178   2.128 -0.0610  0.3864 -0.6278
 6450TIP3    H140909   3.546   3.112   2.122  1.3714  1.7422 -0.0263
 6450TIP3    H240910   3.525   3.260   2.147 -1.9901  0.9515  2.5630
 6451TIP3   OH240911   4.961   3.013   3.550 -0.1817  0.4010 -0.0237
 6451TIP3    H140912   4.968   3.010   3.645  0.4782  0.0749 -0.0758
 6451TIP3    H240913   4.949   2.921   3.524  1.4642  0.2455 -0.3659
 6452TIP3   OH240914   6.836   6.121   1.148  0.1251  0.1497  0.0701
 6452TIP3    H140915   6.749   6.152   1.124  1.1486  2.0768 -1.4888
 6452TIP3    H240916   6.853   6.162   1.233 -0.3778 -0.0063  0.2480
 6453TIP3   OH240917   2.271   5.732   3.472  0.5548  0.4134 -0.0091
 6453TIP3    H140918   2.224   5.770   3.398  0.1473  0.5406  0.3145
 6453TIP3    H240919   2.302   5.647   3.440  0.8612  0.7051 -0.5048
 6454TIP3   OH240920   0.382   5.266   4.558  0.2858  0.0676 -0.2455
 6454TIP3    H140921   0.452   5.215   4.516  0.0068 -0.4714 -0.0709
 6454TIP3    H240922   0.376   5.229   4.646  1.1511  1.4763  0.4334
 6455TIP3   OH240923   2.686   0.728   3.216  0.8310  0.5973  0.4938
 6455TIP3    H140924   2.595   0.708   3.194  0.8203  1.2841 -0.1514
 6455TIP3    H240925   2.727   0.748   3.132  1.5142  0.5307  0.8073
 6456TIP3   OH240926   6.567   5.862   3.303  0.3804  0.2885 -0.4648
 6456TIP3    H140927   6.640   5.913   3.269  1.5315 -0.5459  0.6943
 6456TIP3    H240928   6.533   5.914   3.376 -1.4788  1.6114 -2.1542
 6457TIP3   OH240929   1.395   4.243   1.237 -0.1446 -0.2879  0.0309
 6457TIP3    H140930   1.414   4.326   1.194  0.5723 -0.8447 -0.7781
 6457TIP3    H240931   1.305   4.251   1.268 -0.3319  0.5051 -0.6956
 6458TIP3   OH240932   5.296   1.759   4.179  0.3576 -0.2609 -0.3220
 6458TIP3    H140933   5.361   1.715   4.234  2.0110 -0.0724 -2.0023
 6458TIP3    H240934   5.245   1.688   4.141  0.3542 -0.4922  0.1136
 6459TIP3   OH240935   0.267   3.455   2.578 -0.0895 -0.0285  0.4029
 6459TIP3    H140936   0.187   3.404   2.592 -0.4844  0.9158  1.7418
 6459TIP3    H240937   0.287   3.442   2.485 -2.6361  0.8863 -0.3662
 6460TIP3   OH240938   5.574   3.294   2.557 -0.2727  0.1591 -0.2646
 6460TIP3    H140939   5.518   3.280   2.634 -0.9462  0.5178 -0.6834
 6460TIP3    H240940   5.514   3.288   2.482  0.5050 -1.0371 -0.8349
 6461TIP3   OH240941   6.775   0.616   3.535 -0.2458 -0.2931  0.6584
 6461TIP3    H140942   6.793   0.539   3.480  0.9478 -0.0143  0.6346
 6461TIP3    H240943   6.727   0.675   3.477 -1.4237 -1.1089  0.7589
 6462TIP3   OH240944   5.711   5.176   1.049 -0.5499  0.0766  0.4462
 6462TIP3    H140945   5.626   5.217   1.063 -0.3800  0.7591 -0.3895
 6462TIP3    H240946   5.771   5.250   1.033 -0.0370 -0.4437 -0.0962
 6463TIP3   OH240947   2.197   1.946   2.423 -0.6782  0.5550 -0.1518
 6463TIP3    H140948   2.285   1.972   2.394 -1.2852  1.6901 -1.0207
 6463TIP3    H240949   2.214   1.890   2.499  0.7810  1.8936  0.5965
 6464TIP3   OH240950   4.049   2.262   2.149  0.0616  0.1493 -0.2388
 6464TIP3    H140951   4.122   2.237   2.093  1.3292 -1.5426  1.9827
 6464TIP3    H240952   3.992   2.185   2.150 -0.0734  0.2468  0.5391
 6465TIP3   OH240953   3.259   5.876   1.700  0.9973  0.0252  0.7495
 6465TIP3    H140954   3.289   5.804   1.645  1.1573 -0.6017  1.6341
 6465TIP3    H240955   3.164   5.865   1.705  0.9810  0.0917  0.5882
 6466TIP3   OH240956   1.399   1.766   3.933 -0.0406  0.4878  0.5132
 6466TIP3    H140957   1.488   1.774   3.900 -0.3321 -2.4142 -1.3400
 6466TIP3    H240958   1.409   1.737   4.023  0.9118  0.0771  0.2832
 6467TIP3   OH240959   3.321   3.863   1.528  0.3454 -0.3909  0.0923
 6467TIP3    H140960   3.298   3.796   1.464 -0.6117  0.1702 -0.1623
 6467TIP3    H240961   3.353   3.814   1.603  2.5766 -1.0449 -1.1745
 6468TIP3   OH240962   0.415   1.194   3.811 -0.1450 -0.1123 -0.2583
 6468TIP3    H140963   0.430   1.104   3.839 -0.8502  0.1596  1.0109
 6468TIP3    H240964   0.420   1.246   3.891  1.0280  1.1027 -1.0622
 6469TIP3   OH240965   6.784   3.880   1.362  0.1600  0.5479  0.0517
 6469TIP3    H140966   6.711   3.910   1.308 -0.1578  1.3436  0.8951
 6469TIP3    H240967   6.831   3.960   1.386  0.5145  0.1785  0.6309
 6470TIP3   OH240968   4.549   6.024   0.640  0.1632  0.5871  0.3837
 6470TIP3    H140969   4.492   5.974   0.699 -0.5984  1.7142  0.6419
 6470TIP3    H240970   4.618   5.963   0.616  0.8020  0.2211  2.8768
 6471TIP3   OH240971   5.713   5.691   2.416  0.0400  0.4568  0.2462
 6471TIP3    H140972   5.636   5.646   2.451  0.6269 -0.2544  0.6819
 6471TIP3    H240973   5.734   5.644   2.335 -0.2927  0.9848 -0.1463
 6472TIP3   OH240974   0.197   3.067   0.637 -0.0666  0.3460 -0.2203
 6472TIP3    H140975   0.223   3.004   0.569 -0.0402  1.2516 -1.0779
 6472TIP3    H240976   0.231   3.151   0.605 -0.3792  0.8440  0.7462
 6473TIP3   OH240977   6.729   4.599   0.287 -0.5316 -0.6413  0.4442
 6473TIP3    H140978   6.634   4.590   0.276 -0.4579 -0.6407 -0.2702
 6473TIP3    H240979   6.739   4.673   0.348 -0.9723  0.7189 -1.0579
 6474TIP3   OH240980   3.444   1.433   0.850 -0.2049  0.2244  0.2678
 6474TIP3    H140981   3.379   1.424   0.919 -3.3098  0.6870 -2.3393
 6474TIP3    H240982   3.393   1.440   0.769  3.1601 -0.7114 -2.1938
 6475TIP3   OH240983   3.432   5.708   0.725 -0.1897  0.1041 -0.2953
 6475TIP3    H140984   3.433   5.729   0.632 -0.5462 -0.4496 -0.4262
 6475TIP3    H240985   3.340   5.691   0.745 -0.3626  1.7825  0.5288
 6476TIP3   OH240986   1.816   2.021   3.644 -0.6105 -0.1326  0.2534
 6476TIP3    H140987   1.884   1.953   3.648  0.6227  0.9034 -1.6902
 6476TIP3    H240988   1.809   2.053   3.734  1.1080 -0.6526  0.6110
 6477TIP3   OH240989   3.414   4.592   0.753 -0.3055  0.1236 -0.0987
 6477TIP3    H140990   3.382   4.504   0.732 -3.7402  1.5797 -1.8883
 6477TIP3    H240991   3.388   4.605   0.844  1.3218 -1.0608  0.5786
 6478TIP3   OH240992   0.229   4.331   0.363  0.4036  0.6464 -0.0978
 6478TIP3    H140993   0.257   4.419   0.388  1.9729  0.9490 -2.5927
 6478TIP3    H240994   0.143   4.343   0.324 -0.1952  0.7516  1.1860
 6479TIP3   OH240995   1.273   0.439   3.249  0.1919  0.5481  0.5595
 6479TIP3    H140996   1.300   0.361   3.200 -0.1528 -1.0761  2.8253
 6479TIP3    H240997   1.206   0.480   3.194  0.4564 -0.6733 -0.7235
 6480TIP3   OH240998   0.939   1.775   0.871 -0.0692  0.2503  0.5009
 6480TIP3    H140999   0.890   1.728   0.803  1.4670  0.4914 -0.8253
 6480TIP3    H241000   0.991   1.706   0.914 -2.1242 -0.1607  2.5124
 6481TIP3   OH241001   1.549   5.111   1.354  0.3886  0.2447 -0.3101
 6481TIP3    H141002   1.545   5.025   1.310  0.6951  0.4272 -0.6972
 6481TIP3    H241003   1.562   5.090   1.446  0.0460 -0.1393 -0.3448
 6482TIP3   OH241004   2.643   1.936   0.413 -0.3550  0.0381  0.5229
 6482TIP3    H141005   2.716   1.928   0.475  0.7410 -1.2350 -0.8732
 6482TIP3    H241006   2.671   1.886   0.336 -1.7238  1.4698 -0.9711
 6483TIP3   OH241007   4.252   1.877   1.290  0.1006 -0.1389 -0.0321
 6483TIP3    H141008   4.238   1.964   1.253  0.3962 -0.1007 -0.0598
 6483TIP3    H241009   4.340   1.852   1.259  1.5994  1.0483  2.9054
 6484TIP3   OH241010   3.561   2.461   1.838  0.2807  0.0866  0.2243
 6484TIP3    H141011   3.544   2.493   1.926  0.4599  1.4409 -0.2071
 6484TIP3    H241012   3.656   2.448   1.835  0.3925  0.9095 -0.0326
 6485TIP3   OH241013   5.022   3.720   2.861 -0.0233  0.3104 -0.4498
 6485TIP3    H141014   5.106   3.725   2.908  1.0707  0.3121 -2.3251
 6485TIP3    H241015   4.967   3.664   2.916  0.0183  2.8558  2.5005
 6486TIP3   OH241016   5.973   6.779   3.206  0.1803 -0.0737 -0.1476
 6486TIP3    H141017   5.995   6.689   3.230 -1.3825 -0.6291 -0.7002
 6486TIP3    H241018   5.891   6.796   3.251 -0.6618  0.2999 -1.7654
 6487TIP3   OH241019   3.388   5.520   0.346 -0.2057  0.0962  0.0578
 6487TIP3    H141020   3.407   5.602   0.300  2.2390  0.2718  1.2135
 6487TIP3    H241021   3.312   5.540   0.401  0.7095  1.8277  0.7885
 6488TIP3   OH241022   3.723   3.438   3.750  0.2766 -0.8705  0.2511
 6488TIP3    H141023   3.771   3.513   3.714 -0.8819  0.3672  1.1626
 6488TIP3    H241024   3.637   3.443   3.708 -1.1132  0.6034  3.0016
 6489TIP3   OH241025   5.866   6.463   1.972  0.1202  0.6645  0.0836
 6489TIP3    H141026   5.934   6.396   1.972 -0.4022  0.1219 -0.0265
 6489TIP3    H241027   5.852   6.484   2.065  1.0574  1.4352  0.0647
 6490TIP3   OH241028   4.049   5.554   1.513  0.2183 -0.1723 -0.0718
 6490TIP3    H141029   4.067   5.646   1.495  0.5397 -0.3260 -0.5604
 6490TIP3    H241030   3.967   5.536   1.469  0.5269 -0.3035 -0.6046
 6491TIP3   OH241031   6.337   4.430   3.881 -0.3337 -0.2388  0.1392
 6491TIP3    H141032   6.364   4.464   3.796 -2.0788  0.0404 -0.3468
 6491TIP3    H241033   6.351   4.335   3.875  0.9577 -0.0619  0.1114
 6492TIP3   OH241034   4.167   6.796   4.159  0.3954 -0.1745 -0.0332
 6492TIP3    H141035   4.213   6.715   4.182  0.8972  0.7102  2.3977
 6492TIP3    H241036   4.075   6.777   4.177  0.1709 -0.9014 -1.7472
 6493TIP3   OH241037   0.246   1.148   1.161 -0.2804  0.3818 -0.1041
 6493TIP3    H141038   0.212   1.060   1.148 -1.0843  0.6021  0.4356
 6493TIP3    H241039   0.265   1.153   1.255 -0.5278  0.8745 -0.0757
 6494TIP3   OH241040   2.503   3.347   2.807  0.4954  0.0554 -0.1512
 6494TIP3    H141041   2.417   3.317   2.777  0.4524 -0.6283  0.6261
 6494TIP3    H241042   2.490   3.439   2.831  0.4044  0.4605 -1.6675
 6495TIP3   OH241043   5.189   3.503   3.319  0.0319 -0.5089 -0.2567
 6495TIP3    H141044   5.221   3.593   3.324 -0.7906 -0.2590  1.2308
 6495TIP3    H241045   5.101   3.510   3.282  0.8113 -0.9800 -2.3529
 6496TIP3   OH241046   2.585   3.151   2.245 -0.3180  0.2834  0.0720
 6496TIP3    H141047   2.540   3.236   2.240  0.3111  0.6723  0.8080
 6496TIP3    H241048   2.522   3.094   2.289 -0.8834  0.2543 -0.7374
 6497TIP3   OH241049   1.010   4.823   0.371  0.1604 -0.5123 -0.0527
 6497TIP3    H141050   1.026   4.779   0.287  0.5985  1.1177 -0.8640
 6497TIP3    H241051   0.915   4.826   0.378 -0.0879  2.7228 -2.4755
 6498TIP3   OH241052   5.524   0.947   1.208 -0.3656  0.6869 -1.0321
 6498TIP3    H141053   5.435   0.934   1.240 -0.1281 -1.2320 -1.0512
 6498TIP3    H241054   5.567   0.862   1.219  1.2176  1.3336 -1.8100
 6499TIP3   OH241055   3.971   2.368   1.102 -0.0060  0.1062  0.5661
 6499TIP3    H141056   4.039   2.365   1.035  1.5401  0.8928  2.0075
 6499TIP3    H241057   3.957   2.276   1.126 -0.2218 -0.1414 -0.4678
 6500TIP3   OH241058   6.715   3.864   3.338  0.2218 -0.4773 -0.1037
 6500TIP3    H141059   6.750   3.928   3.400  1.7499 -0.5510 -0.8521
 6500TIP3    H241060   6.757   3.884   3.255 -2.5392  0.2526 -1.4503
 6501TIP3   OH241061   0.975   1.969   3.451  0.0215 -0.2782 -0.0521
 6501TIP3    H141062   0.945   1.979   3.361  2.4601  0.1102 -0.8952
 6501TIP3    H241063   0.903   2.003   3.505 -1.4329 -0.4144 -1.8377
 6502TIP3   OH241064   4.008   1.739   4.232 -0.3474  0.7073 -0.3269
 6502TIP3    H141065   4.059   1.811   4.270 -0.6584  0.5426  0.4198
 6502TIP3    H241066   3.932   1.730   4.289  0.3798 -1.1311  0.4331
 6503TIP3   OH241067   1.350   4.295   4.123  0.3819 -0.4787 -0.4485
 6503TIP3    H141068   1.426   4.349   4.103  0.0435  0.3796  0.5031
 6503TIP3    H241069   1.386   4.219   4.169  0.6492  0.0376  0.2109
 6504TIP3   OH241070   5.836   3.356   1.303  0.2965 -0.0677 -0.8131
 6504TIP3    H141071   5.916   3.407   1.295 -0.0276  0.5800  0.0452
 6504TIP3    H241072   5.841   3.315   1.389 -1.2814  1.7376  0.2250
 6505TIP3   OH241073   0.143   3.451   2.209 -0.0929 -0.7814 -0.1118
 6505TIP3    H141074   0.226   3.407   2.192 -0.8048 -2.2443 -0.0212
 6505TIP3    H241075   0.098   3.393   2.270  0.2053  1.6618  2.6691
 6506TIP3   OH241076   1.819   5.366   4.449  0.0137 -0.0149  0.0707
 6506TIP3    H141077   1.787   5.450   4.482 -1.3737 -0.1488 -0.8796
 6506TIP3    H241078   1.782   5.301   4.509 -0.4748 -0.0785 -0.2965
 6507TIP3   OH241079   3.219   0.783   1.731 -0.5689 -0.7126 -0.5007
 6507TIP3    H141080   3.259   0.864   1.701  1.3520 -1.5807 -0.4482
 6507TIP3    H241081   3.228   0.786   1.827  1.1385 -1.7045 -0.5784
 6508TIP3   OH241082   3.424   6.556   1.868  0.5484  0.0406  0.2650
 6508TIP3    H141083   3.348   6.502   1.889 -1.2064  1.7189 -1.3305
 6508TIP3    H241084   3.432   6.551   1.773  2.6872 -0.3387  0.4196
 6509TIP3   OH241085   0.117   0.685   0.870 -0.7463 -0.1851 -0.5740
 6509TIP3    H141086   0.051   0.752   0.887  0.7467  1.3858 -0.6418
 6509TIP3    H241087   0.099   0.616   0.933 -0.4337  1.7247  1.7447
 6510TIP3   OH241088   1.747   4.484   0.967  0.8028 -0.4433  0.1406
 6510TIP3    H141089   1.833   4.526   0.961  0.8871 -0.0180  2.8698
 6510TIP3    H241090   1.758   4.418   1.036 -1.2566  0.3106  1.2765
 6511TIP3   OH241091   0.743   1.854   3.162  0.1084  0.1373  0.4804
 6511TIP3    H141092   0.742   1.941   3.123  2.0286  0.5774  1.3214
 6511TIP3    H241093   0.736   1.870   3.257 -1.3206 -0.7464  0.5610
 6512TIP3   OH241094   1.228   5.196   1.163  0.1970 -0.0631 -0.1593
 6512TIP3    H141095   1.322   5.199   1.143  0.4483 -0.4817  0.8901
 6512TIP3    H241096   1.210   5.281   1.203  0.3834 -0.3981  0.6559
 6513TIP3   OH241097   5.607   2.573   0.804  0.2734  0.3898  0.2141
 6513TIP3    H141098   5.575   2.662   0.790  0.0915  0.2672 -0.1682
 6513TIP3    H241099   5.597   2.559   0.898  0.5082  0.8510  0.3083
 6514TIP3   OH241100   5.769   4.465   1.476  0.6494 -0.8657 -0.0122
 6514TIP3    H141101   5.776   4.406   1.551  0.1410  0.3091  0.9845
 6514TIP3    H241102   5.682   4.502   1.483  1.2223  0.5666 -0.1866
 6515TIP3   OH241103   1.854   2.692   1.467  0.0166  0.1846  0.3278
 6515TIP3    H141104   1.939   2.657   1.439  0.4423 -0.2978  2.1187
 6515TIP3    H241105   1.853   2.782   1.433  0.8381 -0.1086 -0.5146
 6516TIP3   OH241106   3.422   3.374   3.389 -0.3079  0.3511 -0.1988
 6516TIP3    H141107   3.361   3.308   3.355 -0.7749  1.2876 -1.2456
 6516TIP3    H241108   3.440   3.430   3.314 -0.8454  2.1097  0.9340
 6517TIP3   OH241109   3.604   4.019   3.984  0.0129 -0.4184  0.3451
 6517TIP3    H141110   3.513   4.041   3.960  1.0243  1.8397 -1.9106
 6517TIP3    H241111   3.623   4.075   4.059  0.6946  2.2840 -1.6938
 6518TIP3   OH241112   3.436   4.430   1.627 -0.5010  0.1380  0.3094
 6518TIP3    H141113   3.403   4.412   1.715 -2.3950 -0.3608 -0.4468
 6518TIP3    H241114   3.426   4.347   1.580  1.3837  0.1310 -0.1458
 6519TIP3   OH241115   2.161   5.700   8.514 -0.7770 -0.8426  0.2670
 6519TIP3    H141116   2.189   5.610   8.501 -1.2615 -1.1341  1.0946
 6519TIP3    H241117   2.230   5.740   8.567 -0.7524 -0.8512  0.2407
 6520TIP3   OH241118   2.667   3.309   3.586  0.0891  0.3309 -0.1719
 6520TIP3    H141119   2.754   3.274   3.565 -1.0168 -2.1821 -0.9542
 6520TIP3    H241120   2.660   3.301   3.681  1.2819  2.1866  0.1425
 6521TIP3   OH241121   0.952   2.121   0.701  0.3065  0.5350 -0.6308
 6521TIP3    H141122   1.008   2.185   0.656  0.5734  0.9072  0.2101
 6521TIP3    H241123   0.948   2.047   0.641  1.5969  0.5620 -0.7814
 6522TIP3   OH241124   3.903   6.317   1.986  0.1756 -0.4262 -0.0712
 6522TIP3    H141125   3.935   6.230   2.008  1.0725  0.0724  0.6830
 6522TIP3    H241126   3.808   6.306   1.977  0.0747 -1.1825  1.5590
 6523TIP3   OH241127   6.657   1.781   4.596 -0.1341 -0.8008  0.2211
 6523TIP3    H141128   6.737   1.794   4.646 -0.9152  0.6502  1.1662
 6523TIP3    H241129   6.681   1.803   4.506 -0.2390  3.2860  1.0055
 6524TIP3   OH241130   0.680   0.594   2.126  0.1263  0.3925 -0.4012
 6524TIP3    H141131   0.671   0.670   2.069 -1.1803  1.2762  0.9129
 6524TIP3    H241132   0.750   0.542   2.086  0.2226  1.6713 -1.9917
 6525TIP3   OH241133   1.651   6.736   3.897  0.1054 -0.4589  0.4545
 6525TIP3    H141134   1.700   6.689   3.964  0.7095  1.1515  1.2076
 6525TIP3    H241135   1.593   6.794   3.946  1.4255  1.6523 -0.3516
 6526TIP3   OH241136   5.971   3.738   3.073  0.5107 -0.0035 -0.2707
 6526TIP3    H141137   6.006   3.700   3.154 -1.6510 -0.4372  0.5231
 6526TIP3    H241138   6.028   3.705   3.004  2.8456  0.9368  1.0982
 6527TIP3   OH241139   1.694   3.461   4.179 -0.2478  0.5624 -0.1200
 6527TIP3    H141140   1.721   3.491   4.092  2.3180  0.0161  0.4115
 6527TIP3    H241141   1.681   3.367   4.169 -0.7474  0.6177 -0.0542
 6528TIP3   OH241142   5.974   6.438   2.830  0.3255 -0.2399 -0.4524
 6528TIP3    H141143   6.040   6.507   2.839 -0.2790  0.1955  1.0852
 6528TIP3    H241144   5.891   6.486   2.830 -0.0258 -0.8202 -1.7702
 6529TIP3   OH241145   3.072   5.814   2.015 -0.0066  0.0868  0.7832
 6529TIP3    H141146   3.162   5.843   2.031  0.3415 -0.2272 -0.4822
 6529TIP3    H241147   3.031   5.889   1.972 -0.3559  0.2187  1.3339
 6530TIP3   OH241148   4.261   1.341   2.854 -0.1470 -0.0161  0.4684
 6530TIP3    H141149   4.305   1.408   2.906  3.9749 -0.6446 -1.7436
 6530TIP3    H241150   4.285   1.258   2.896  1.8472 -0.4300 -1.3060
 6531TIP3   OH241151   2.172   2.744   4.034  0.6210 -0.4846 -0.2860
 6531TIP3    H141152   2.095   2.799   4.021  0.7528  0.4891  2.3667
 6531TIP3    H241153   2.194   2.712   3.947 -2.9800 -1.1278 -1.1222
 6532TIP3   OH241154   2.121   6.521   2.711 -0.1039  0.6066 -0.8629
 6532TIP3    H141155   2.153   6.472   2.787 -1.0676  2.9579  1.1819
 6532TIP3    H241156   2.067   6.458   2.662  0.5972 -0.9770  0.3118
 6533TIP3   OH241157   4.194   2.961   2.175 -0.4974  0.9320  0.3313
 6533TIP3    H141158   4.140   2.963   2.096 -1.4712  0.9839  0.9876
 6533TIP3    H241159   4.284   2.971   2.142 -0.3556 -3.1394 -1.1966
 6534TIP3   OH241160   4.629   5.100   0.465 -0.2023 -0.4577  0.0637
 6534TIP3    H141161   4.645   5.190   0.494  1.4113 -1.2102  1.7075
 6534TIP3    H241162   4.584   5.109   0.381  1.3064  1.8899 -0.5812
 6535TIP3   OH241163   1.157   1.229   2.285  0.6094 -0.3672 -0.0743
 6535TIP3    H141164   1.122   1.172   2.216 -0.0563 -0.2865  0.1862
 6535TIP3    H241165   1.110   1.311   2.273 -0.5668 -0.7863  1.3412
 6536TIP3   OH241166   0.054   6.539   1.265  0.2848  0.1170  0.4309
 6536TIP3    H141167  -0.027   6.583   1.293 -0.2558 -0.9436  0.5778
 6536TIP3    H241168   0.103   6.526   1.346  0.4089  0.3737  0.3976
 6537TIP3   OH241169   2.867   5.572   1.822  0.4304 -0.4367  0.5608
 6537TIP3    H141170   2.815   5.646   1.790  0.6356  0.5291  2.2900
 6537TIP3    H241171   2.807   5.522   1.876  0.7213 -0.5582  0.7775
 6538TIP3   OH241172   0.694   2.095   3.036 -0.3641  0.0280  0.2170
 6538TIP3    H141173   0.720   2.135   2.953  0.2196  0.8721  0.7882
 6538TIP3    H241174   0.742   2.145   3.102 -2.3213  0.6661  1.2134
 6539TIP3   OH241175   4.803   2.554   3.496  0.1057 -0.1172  0.1668
 6539TIP3    H141176   4.849   2.561   3.412 -1.6221 -1.6588 -1.0124
 6539TIP3    H241177   4.762   2.640   3.507 -0.0977 -0.0577 -0.8861
 6540TIP3   OH241178   3.785   3.499   1.721  0.0637  0.0330 -0.3068
 6540TIP3    H141179   3.738   3.416   1.714 -0.1969  0.0670  0.8083
 6540TIP3    H241180   3.738   3.547   1.789 -0.6199  1.6551 -1.8256
 6541TIP3   OH241181   3.131   2.399   3.120  0.1719 -0.6489  0.0551
 6541TIP3    H141182   3.102   2.463   3.185  1.8598 -1.8497  2.1245
 6541TIP3    H241183   3.224   2.419   3.107  0.0211 -0.8552 -1.5249
 6542TIP3   OH241184   3.264   5.561   2.710 -0.3733  0.3485 -0.3180
 6542TIP3    H141185   3.301   5.552   2.622  0.1079  3.6924 -0.5870
 6542TIP3    H241186   3.177   5.597   2.697 -0.7800 -0.2771  0.5551
 6543TIP3   OH241187   6.013   1.498   2.199  0.0408  0.3230 -0.1541
 6543TIP3    H141188   5.997   1.455   2.283  2.3147  0.3200  0.3528
 6543TIP3    H241189   5.933   1.485   2.149 -1.1101 -0.2704  1.7649
 6544TIP3   OH241190   5.746   3.134   3.288  0.1961  0.3430  0.1812
 6544TIP3    H141191   5.667   3.080   3.296 -1.1712  2.1738 -0.0460
 6544TIP3    H241192   5.817   3.072   3.276 -1.2908 -1.3822 -0.1692
 6545TIP3   OH241193   2.511   5.820   2.701 -0.2834 -0.1719 -0.4538
 6545TIP3    H141194   2.599   5.814   2.663  0.1835 -1.3096  0.7140
 6545TIP3    H241195   2.512   5.902   2.750  1.0880 -1.3356  1.6706
 6546TIP3   OH241196   1.291   4.848   0.611 -0.5157  0.3252 -0.2624
 6546TIP3    H141197   1.280   4.753   0.608 -1.3135  0.4231 -1.1758
 6546TIP3    H241198   1.265   4.877   0.524  0.9439  1.2742 -0.4041
 6547TIP3   OH241199   0.944   3.516   2.307  0.1302 -0.2164 -0.3732
 6547TIP3    H141200   1.031   3.554   2.316 -0.6328  1.1679  2.2323
 6547TIP3    H241201   0.896   3.546   2.384 -1.8416 -3.1593 -0.2625
 6548TIP3   OH241202   0.565   3.490   0.939 -0.0613 -0.4197  0.4179
 6548TIP3    H141203   0.555   3.396   0.953  0.0847 -0.6632 -0.9737
 6548TIP3    H241204   0.571   3.500   0.844 -0.0787  1.0000  0.5386
 6549TIP3   OH241205   3.100   5.851   2.491  0.0286  0.4784 -0.4209
 6549TIP3    H141206   3.044   5.864   2.567  0.9147 -1.6232  0.6614
 6549TIP3    H241207   3.188   5.870   2.523  0.7715 -2.9730 -0.0486
 6550TIP3   OH241208   6.395   3.342   3.271  0.4876 -0.0411  0.4268
 6550TIP3    H141209   6.435   3.328   3.185  1.3767  0.6117  0.7145
 6550TIP3    H241210   6.321   3.400   3.254  0.5191 -0.1039  0.0708
 6551TIP3   OH241211   4.629   2.253   4.170 -0.0735  0.5306 -0.4018
 6551TIP3    H141212   4.580   2.330   4.141 -0.9104 -0.3468 -1.3988
 6551TIP3    H241213   4.672   2.281   4.251  0.3776  2.3173 -1.1999
 6552TIP3   OH241214   6.069   2.799   4.109  0.1770  0.3785 -0.5660
 6552TIP3    H141215   6.021   2.758   4.037 -0.6830  0.1041  0.1351
 6552TIP3    H241216   6.065   2.893   4.092 -1.8160  0.4707  0.1621
 6553TIP3   OH241217   1.579   2.747   2.576  0.1518 -0.5029  0.0644
 6553TIP3    H141218   1.586   2.652   2.565  1.7947 -0.6086  1.5715
 6553TIP3    H241219   1.586   2.761   2.670  1.3478  1.1999 -0.2312
 6554TIP3   OH241220   0.153   3.747   1.771  0.2612 -0.1171 -0.2820
 6554TIP3    H141221   0.059   3.742   1.791  0.0704  1.4676 -0.6643
 6554TIP3    H241222   0.179   3.656   1.758 -0.5967 -0.8587  2.5558
 6555TIP3   OH241223   2.989   6.194   3.886 -0.2658 -0.1642 -0.0744
 6555TIP3    H141224   3.038   6.112   3.892 -0.4703 -0.3457 -0.7656
 6555TIP3    H241225   3.045   6.251   3.834 -1.5163 -0.9633 -2.4307
 6556TIP3   OH241226   3.788   0.002   8.533  1.1020 -0.3385  0.0966
 6556TIP3    H141227   3.814  -0.053   8.459  0.4426  0.1262 -0.4992
 6556TIP3    H241228   3.800  -0.053   8.610 -0.5217 -1.6821 -0.5599
 6557TIP3   OH241229   1.311   2.640   1.059 -0.2440  0.2842  0.6334
 6557TIP3    H141230   1.292   2.646   0.965  0.4014 -1.0320  0.4072
 6557TIP3    H241231   1.398   2.680   1.069  0.7595 -1.7039  0.2701
 6558TIP3   OH241232   4.353   3.633   3.699 -0.0757  0.1331  0.3294
 6558TIP3    H141233   4.375   3.687   3.622  0.3804  0.4917  0.7008
 6558TIP3    H241234   4.257   3.625   3.696 -0.0209 -0.3561 -0.5985
 6559TIP3   OH241235   4.103   5.333   2.484 -0.3793  0.1985 -0.2716
 6559TIP3    H141236   4.033   5.379   2.531 -0.5347  1.7194 -1.8681
 6559TIP3    H241237   4.141   5.400   2.426  0.3079 -1.3576 -1.7082
 6560TIP3   OH241238   2.717   4.960   2.704 -0.0665  0.0513  0.2337
 6560TIP3    H141239   2.799   4.961   2.654 -0.4395 -0.8711 -0.4244
 6560TIP3    H241240   2.674   5.042   2.682  0.6059  0.4906  0.4886
 6561TIP3   OH241241   6.170   0.232   1.310 -0.4863  0.3103  0.0954
 6561TIP3    H141242   6.102   0.211   1.246 -0.9274  0.7622  0.4157
 6561TIP3    H241243   6.135   0.201   1.394  0.9163 -2.1551 -0.1179
 6562TIP3   OH241244   4.373   5.837   0.735  0.0719  0.1038 -0.4375
 6562TIP3    H141245   4.398   5.800   0.820  1.0185  0.9078 -0.3570
 6562TIP3    H241246   4.343   5.761   0.685 -0.1803 -0.4334  0.4944
 6563TIP3   OH241247   2.589   5.898   2.070 -0.2278 -0.1291 -0.0807
 6563TIP3    H141248   2.670   5.850   2.085  0.3864  0.3893 -1.5676
 6563TIP3    H241249   2.555   5.915   2.158  1.7312  0.4038  0.6256
 6564TIP3   OH241250   5.803   1.608   3.086  0.6371 -0.4569  0.6447
 6564TIP3    H141251   5.825   1.604   2.993  0.8144 -0.2526  0.6786
 6564TIP3    H241252   5.838   1.691   3.116 -0.9204  0.2772  0.5145
 6565TIP3   OH241253   0.226   2.280   1.312 -0.5375 -0.0622 -1.1260
 6565TIP3    H141254   0.133   2.274   1.291 -1.0259 -0.4403  0.9061
 6565TIP3    H241255   0.263   2.197   1.282 -1.4640 -1.1564  0.5896
 6566TIP3   OH241256   0.252   3.409   1.455  0.4048  0.2922  0.3914
 6566TIP3    H141257   0.177   3.350   1.457 -0.1087  0.8033 -1.7016
 6566TIP3    H241258   0.217   3.494   1.483  0.7863  0.0120  1.8083
 6567TIP3   OH241259   1.594   6.385   0.652  0.3995  0.2804 -0.5881
 6567TIP3    H141260   1.589   6.317   0.719 -0.4386  0.3397 -0.5862
 6567TIP3    H241261   1.636   6.459   0.696 -1.7289  0.9556  0.4263
 6568TIP3   OH241262   6.375   3.742   3.382 -0.2223  0.0564  0.5136
 6568TIP3    H141263   6.324   3.743   3.463 -1.3805  0.6770 -0.1865
 6568TIP3    H241264   6.439   3.812   3.393 -0.3496  0.1127  0.9113
 6569TIP3   OH241265   5.658   6.358   3.370 -0.6244 -0.1022  0.3215
 6569TIP3    H141266   5.612   6.394   3.294  0.9049  0.1749 -0.5093
 6569TIP3    H241267   5.704   6.433   3.409 -0.5791 -0.4312  0.9237
 6570TIP3   OH241268   4.626   0.875   4.330 -0.6986 -0.5465 -0.1608
 6570TIP3    H141269   4.661   0.956   4.292  1.7874 -1.7799 -0.7254
 6570TIP3    H241270   4.601   0.900   4.419 -0.5736  0.9783 -0.5150
 6571TIP3   OH241271   3.542   2.239   0.909  0.5945 -0.2651 -0.2231
 6571TIP3    H141272   3.555   2.157   0.957 -0.3578 -0.5349 -0.4049
 6571TIP3    H241273   3.627   2.258   0.870  0.0527 -3.0902 -3.2175
 6572TIP3   OH241274   4.849   0.419   0.212  0.0994 -0.0156 -0.2499
 6572TIP3    H141275   4.865   0.343   0.269 -0.9730  0.3913  0.6390
 6572TIP3    H241276   4.763   0.402   0.173  1.1192 -0.6432 -2.4010
 6573TIP3   OH241277   5.784   4.043   4.094 -0.6104  0.2823 -0.0098
 6573TIP3    H141278   5.782   4.139   4.094  1.3026  0.3585 -0.0631
 6573TIP3    H241279   5.866   4.021   4.137 -1.1572 -1.3639  0.2552
 6574TIP3   OH241280   3.850   4.387   3.913 -0.3024 -0.3137 -0.1184
 6574TIP3    H141281   3.860   4.330   3.837  0.2712 -0.8222  0.3381
 6574TIP3    H241282   3.898   4.466   3.890  1.4046 -1.1561  0.4146
 6575TIP3   OH241283   1.485   1.622   2.082 -0.3035  0.1476  0.0278
 6575TIP3    H141284   1.412   1.608   2.021  0.7399 -1.3154 -0.9839
 6575TIP3    H241285   1.448   1.607   2.168 -1.3762  0.2391 -0.4032
 6576TIP3   OH241286   0.805   1.166   0.294 -0.3442 -0.0996  0.2413
 6576TIP3    H141287   0.871   1.228   0.263 -0.5622 -1.1568 -2.6165
 6576TIP3    H241288   0.727   1.220   0.310 -0.1571  0.5685 -0.9734
 6577TIP3   OH241289   0.209   2.096   2.041  0.2032  0.1276  0.5546
 6577TIP3    H141290   0.139   2.161   2.038 -0.4693 -0.4598  2.2324
 6577TIP3    H241291   0.177   2.023   1.989  0.6285  0.7890 -0.6828
 6578TIP3   OH241292   0.760   2.686   2.991  0.0672  0.2636  0.6315
 6578TIP3    H141293   0.695   2.616   2.985 -1.1283  1.2103  2.0408
 6578TIP3    H241294   0.709   2.767   2.989  1.3085  1.0797  0.5928
 6579TIP3   OH241295   0.361   1.543   3.626  0.0551 -0.3622 -0.0467
 6579TIP3    H141296   0.321   1.605   3.564 -0.9079  0.8646  1.6876
 6579TIP3    H241297   0.286   1.498   3.665  0.6410 -1.0793  0.2563
 6580TIP3   OH241298   0.191   6.272   1.733  0.1334 -0.0438  0.2912
 6580TIP3    H141299   0.213   6.344   1.790  1.7702 -0.0426 -0.3043
 6580TIP3    H241300   0.172   6.199   1.792 -1.0597  0.7012  0.8761
 6581TIP3   OH241301   4.002   5.911   2.614  0.4518  0.3644  0.2210
 6581TIP3    H141302   3.949   5.833   2.631  1.8638 -0.8627 -0.7635
 6581TIP3    H241303   4.085   5.877   2.580  0.9935  2.3190 -0.5490
 6582TIP3   OH241304   0.221   1.621   2.743  0.1256  0.3683 -0.1064
 6582TIP3    H141305   0.155   1.676   2.785  1.1777  0.4545  1.5238
 6582TIP3    H241306   0.305   1.663   2.764  0.8224 -0.7569 -0.5422
 6583TIP3   OH241307   3.486   5.392   0.862  0.0526  0.1070  0.5481
 6583TIP3    H141308   3.575   5.419   0.838  0.2926 -0.9846  0.1218
 6583TIP3    H241309   3.492   5.296   0.868 -0.9981  0.0581  0.9337
 6584TIP3   OH241310   2.223   2.134   2.113 -0.1690 -1.1042  0.0349
 6584TIP3    H141311   2.313   2.116   2.138 -0.9380 -1.0778  3.2717
 6584TIP3    H241312   2.188   2.188   2.184 -2.5366 -0.5164 -1.4548
 6585TIP3   OH241313   1.730   4.226   2.730 -0.3124  0.5551  0.1747
 6585TIP3    H141314   1.778   4.208   2.811 -2.0827 -1.7651  0.8315
 6585TIP3    H241315   1.644   4.186   2.744 -1.5430  2.2645 -1.9253
 6586TIP3   OH241316   3.443   3.224   3.053  0.4515  0.0060  0.0230
 6586TIP3    H141317   3.527   3.254   3.087  0.4368 -0.7334  0.7339
 6586TIP3    H241318   3.444   3.129   3.065  0.3821 -0.2767 -1.9040
 6587TIP3   OH241319   1.487   2.937   3.798  0.0683  0.4515  0.4417
 6587TIP3    H141320   1.579   2.931   3.822  0.9362 -0.9941 -2.6578
 6587TIP3    H241321   1.449   2.854   3.826 -0.2167  0.9011  1.4014
 6588TIP3   OH241322   2.083   3.868   3.672  0.1181 -0.2655  0.3452
 6588TIP3    H141323   2.029   3.931   3.624  2.1609  0.7741 -0.7191
 6588TIP3    H241324   2.030   3.844   3.748 -0.8743  2.5582  0.6578
 6589TIP3   OH241325   5.206   3.999   3.009 -0.1420  0.5635 -0.3961
 6589TIP3    H141326   5.139   4.063   2.986  0.1107  0.4712 -1.4596
 6589TIP3    H241327   5.272   4.049   3.058 -1.2390  0.5296  1.1830
 6590TIP3   OH241328   0.521   5.840   1.737 -0.2859  0.3507 -0.2554
 6590TIP3    H141329   0.610   5.864   1.759  0.6325 -3.3659  0.7320
 6590TIP3    H241330   0.467   5.906   1.780  1.9022  2.7687 -0.9849
 6591TIP3   OH241331   3.806   2.010   1.879  0.9100 -0.0916 -0.0286
 6591TIP3    H141332   3.806   1.985   1.786  0.7656  0.3328 -0.1441
 6591TIP3    H241333   3.884   1.967   1.915 -0.6450 -2.7528  0.3552
 6592TIP3   OH241334   6.896   1.712   2.909  0.9773 -0.0597 -0.2988
 6592TIP3    H141335   6.930   1.714   2.998 -0.9563  1.8591  0.4859
 6592TIP3    H241336   6.865   1.622   2.897  1.2461 -0.3372  0.9515
 6593TIP3   OH241337   5.165   4.532   4.172 -0.2880 -0.0121 -0.3417
 6593TIP3    H141338   5.136   4.561   4.085 -1.8846 -2.8023 -0.8725
 6593TIP3    H241339   5.184   4.439   4.161  0.7741 -0.1389  2.0340
 6594TIP3   OH241340   6.799   1.016   2.709  0.0569  0.0086  0.3067
 6594TIP3    H141341   6.886   1.017   2.749 -0.0503 -1.5076  0.6295
 6594TIP3    H241342   6.781   0.923   2.693 -1.4931  0.3049  0.2011
 6595TIP3   OH241343   5.939   2.854   2.736 -0.1285  0.0790  0.0620
 6595TIP3    H141344   6.009   2.903   2.692  1.7985 -1.6187  1.0595
 6595TIP3    H241345   5.900   2.800   2.667 -0.1387  0.6718 -0.4048
 6596TIP3   OH241346   6.891   4.068   4.266 -0.0711 -0.8884 -0.3850
 6596TIP3    H141347   6.921   3.990   4.314  0.4955  0.0719  0.8986
 6596TIP3    H241348   6.972   4.115   4.245 -0.4766  0.3110  0.5913
 6597TIP3   OH241349   4.565   2.722   2.532  0.1343  0.3245 -0.1124
 6597TIP3    H141350   4.593   2.635   2.502  0.7370  0.1600  0.8796
 6597TIP3    H241351   4.501   2.704   2.601  2.3347  0.5638  2.1230
 6598TIP3   OH241352   0.466   0.615   3.397  0.5237 -0.6495  0.0085
 6598TIP3    H141353   0.512   0.663   3.466  0.2371 -0.9086  0.3815
 6598TIP3    H241354   0.376   0.606   3.429 -0.6785  2.4802 -1.9969
 6599TIP3   OH241355   4.404   2.207   4.347 -0.5332  0.3620  0.0293
 6599TIP3    H141356   4.462   2.132   4.337  0.4077  1.1633 -0.7278
 6599TIP3    H241357   4.324   2.180   4.302 -0.2639 -0.2345 -0.1108
 6600TIP3   OH241358   0.883   5.153   3.347  0.1939  0.3797  0.3629
 6600TIP3    H141359   0.861   5.241   3.315  0.0529 -0.3133 -1.5748
 6600TIP3    H241360   0.848   5.150   3.436 -2.0841  1.4387 -0.4350
 6601TIP3   OH241361   2.550   5.828   3.537 -0.3517 -0.4071  0.1180
 6601TIP3    H141362   2.456   5.840   3.523 -0.7218 -1.1109  1.7009
 6601TIP3    H241363   2.567   5.738   3.510 -0.7204 -1.1809  2.2494
 6602TIP3   OH241364   0.441   3.031   4.188  0.2552  0.5150 -0.1476
 6602TIP3    H141365   0.527   3.039   4.230  1.3866 -0.6913 -2.1136
 6602TIP3    H241366   0.386   2.992   4.255  1.9806 -1.2963  0.3301
 6603TIP3   OH241367   1.149   4.198   3.989 -0.2666 -0.0753  0.3728
 6603TIP3    H141368   1.225   4.209   4.047 -1.0012 -1.1101  1.5815
 6603TIP3    H241369   1.180   4.229   3.904  1.8112 -1.2618  0.6151
 6604TIP3   OH241370   1.294   5.856   3.637  0.0787 -0.0177 -0.0719
 6604TIP3    H141371   1.297   5.942   3.679  1.7881  0.2080 -0.5720
 6604TIP3    H241372   1.360   5.860   3.568  1.7125 -2.3721  1.1921
 6605TIP3   OH241373   0.099   0.402   0.688  0.3466 -0.7955 -0.0457
 6605TIP3    H141374   0.168   0.461   0.716  1.3596 -2.0275  0.1547
 6605TIP3    H241375   0.083   0.346   0.764 -1.7786  0.2318  0.3460
 6606TIP3   OH241376   2.648   5.428   3.847  0.1289  0.0577 -0.7376
 6606TIP3    H141377   2.583   5.435   3.917 -0.3579  0.7679 -1.2463
 6606TIP3    H241378   2.700   5.508   3.854  1.0368 -0.5612 -0.2604
 6607TIP3   OH241379   3.898   4.016   1.209 -0.2841 -0.7090 -0.0590
 6607TIP3    H141380   3.961   3.957   1.167  2.3557  0.5798  1.8168
 6607TIP3    H241381   3.913   4.003   1.303 -0.1349  2.2821  0.4317
 6608TIP3   OH241382   3.698   4.346   3.473  0.0311  0.4548  0.6971
 6608TIP3    H141383   3.654   4.270   3.511 -0.2842  0.0921 -0.3613
 6608TIP3    H241384   3.691   4.414   3.540 -2.1836  0.4316  0.5636
 6609TIP3   OH241385   5.502   0.284   3.832 -0.3532  0.4903  0.6117
 6609TIP3    H141386   5.421   0.282   3.884 -1.0400  0.7460 -0.4202
 6609TIP3    H241387   5.536   0.195   3.837 -1.4348  0.0226 -0.0375
 6610TIP3   OH241388   5.797   5.488   3.515  0.1955  0.8131 -0.2368
 6610TIP3    H141389   5.730   5.464   3.579 -1.1364  2.4340 -0.9319
 6610TIP3    H241390   5.842   5.406   3.494 -0.6679 -0.0806  1.2542
 6611TIP3   OH241391   1.700   1.015   0.594 -0.3370 -0.5368 -0.0182
 6611TIP3    H141392   1.752   0.942   0.628 -2.1113 -0.0537  4.3773
 6611TIP3    H241393   1.611   0.980   0.588 -0.4208 -0.0769 -3.0373
 6612TIP3   OH241394   0.575   4.668   1.874  0.5846 -0.0277  0.1862
 6612TIP3    H141395   0.559   4.645   1.783 -1.9561  0.6810  0.3950
 6612TIP3    H241396   0.663   4.707   1.874  0.0385  1.3721 -2.2342
 6613TIP3   OH241397   6.373   3.126   4.148  0.2113  0.1822 -0.3602
 6613TIP3    H141398   6.417   3.074   4.216 -1.4401  0.6806  1.1560
 6613TIP3    H241399   6.368   3.067   4.072  3.3013  0.0641 -0.5923
 6614TIP3   OH241400   0.567   0.755   2.526 -0.2485  0.5719  0.1720
 6614TIP3    H141401   0.568   0.806   2.607  0.4583  1.5303 -0.4191
 6614TIP3    H241402   0.621   0.805   2.465  3.4880 -2.5419  0.5686
 6615TIP3   OH241403   2.221   4.169   8.433  0.0260  0.0690  0.1811
 6615TIP3    H141404   2.269   4.088   8.447 -1.9159 -1.1899 -0.0796
 6615TIP3    H241405   2.145   4.161   8.491 -1.7249  0.3445 -1.9653
 6616TIP3   OH241406   0.916   0.699   2.528  0.0211 -0.0378  0.4400
 6616TIP3    H141407   0.869   0.718   2.609  1.0044  2.3895  0.5296
 6616TIP3    H241408   0.923   0.784   2.484  0.5666 -1.0875 -1.6295
 6617TIP3   OH241409   2.965   3.503   2.430  0.2355  0.0600 -0.2104
 6617TIP3    H141410   2.965   3.423   2.482  0.0317  0.6934  0.8158
 6617TIP3    H241411   2.954   3.474   2.340 -0.1076 -1.0453  0.1679
 6618TIP3   OH241412   1.633   2.959   3.483 -0.0565 -0.5779  0.3712
 6618TIP3    H141413   1.691   2.916   3.547  1.0401  0.8139  0.3532
 6618TIP3    H241414   1.589   3.027   3.533  0.5068  0.2590 -0.2511
 6619TIP3   OH241415   2.467   4.622   3.280 -0.0573  0.0181  0.6769
 6619TIP3    H141416   2.382   4.616   3.322 -0.3985  1.6632  0.3171
 6619TIP3    H241417   2.530   4.607   3.351 -0.6360  0.5189  1.3135
 6620TIP3   OH241418   4.066   4.676   2.990  0.0320 -0.1328 -0.3324
 6620TIP3    H141419   4.143   4.629   2.959  1.2553 -0.3464  2.7249
 6620TIP3    H241420   3.996   4.610   2.992  1.0932 -1.2731  1.5563
 6621TIP3   OH241421   3.369   1.249   3.656  0.3200 -0.2773 -0.0742
 6621TIP3    H141422   3.401   1.322   3.709 -0.3706  1.2516 -1.6849
 6621TIP3    H241423   3.303   1.207   3.711 -1.2785  2.0045 -0.0903
 6622TIP3   OH241424   6.522   1.751   3.543  0.1697 -0.6585 -0.0028
 6622TIP3    H141425   6.541   1.743   3.449  1.3947  0.4121  0.1341
 6622TIP3    H241426   6.444   1.697   3.556 -1.7894  1.3709 -2.2054
 6623TIP3   OH241427   6.583   2.959   1.487 -0.5491 -0.1555  0.1663
 6623TIP3    H141428   6.570   2.925   1.576 -0.9500  0.3902  0.3231
 6623TIP3    H241429   6.671   2.931   1.463 -1.0333 -1.7297  0.0978
 6624TIP3   OH241430   1.247   2.687   0.354 -0.3354 -0.3852 -0.1787
 6624TIP3    H141431   1.252   2.608   0.408  3.2786  0.7561  1.4990
 6624TIP3    H241432   1.291   2.663   0.273  0.8607 -0.1425  0.3742
 6625TIP3   OH241433   0.117   2.089   1.769  0.3383 -0.2243  0.7253
 6625TIP3    H141434   0.086   2.097   1.679 -0.5182 -1.5851  0.8635
 6625TIP3    H241435   0.077   2.163   1.815 -2.6729 -1.7305  0.8258
 6626TIP3   OH241436   5.774   1.056   0.611 -0.4361 -0.5894  0.4578
 6626TIP3    H141437   5.725   1.080   0.689  0.0045  2.7739 -0.1623
 6626TIP3    H241438   5.725   1.095   0.538  1.3474 -0.0025 -0.4906
 6627TIP3   OH241439   5.102   6.322   2.721 -0.6946  0.6182 -0.4295
 6627TIP3    H141440   5.114   6.417   2.714 -0.1704  0.6213  0.3810
 6627TIP3    H241441   5.142   6.287   2.641  0.4377  0.9903 -0.0480
 6628TIP3   OH241442   0.585   3.692   0.753 -0.1844 -0.2046  0.6406
 6628TIP3    H141443   0.561   3.769   0.701 -0.1663 -1.3612 -1.1404
 6628TIP3    H241444   0.576   3.618   0.693  1.5658 -1.4145  1.7715
 6629TIP3   OH241445   3.906   5.063   3.375 -0.3662 -0.3584  0.3701
 6629TIP3    H141446   3.913   5.029   3.464 -0.4954  1.9506  1.3210
 6629TIP3    H241447   3.995   5.059   3.340 -0.4568 -2.0884  0.2137
 6630TIP3   OH241448   1.484   3.109   0.589 -0.5834 -0.3421 -0.8760
 6630TIP3    H141449   1.426   3.169   0.638 -0.7606 -1.5712  0.4890
 6630TIP3    H241450   1.566   3.157   0.580 -1.2036  0.6979 -1.1773
 6631TIP3   OH241451   2.052   4.321   0.821  0.1350 -0.4916  0.2236
 6631TIP3    H141452   2.059   4.262   0.896 -0.4274  0.4428  1.0420
 6631TIP3    H241453   1.965   4.304   0.785 -0.0042 -0.1990  0.4239
 6632TIP3   OH241454   4.558   5.607   1.488 -0.3401  0.1637 -0.5893
 6632TIP3    H141455   4.606   5.628   1.568 -0.1416 -0.4850 -0.5309
 6632TIP3    H241456   4.609   5.536   1.448 -0.6144  0.2645 -1.1286
 6633TIP3   OH241457   1.362   6.319   0.505 -0.3180  0.5467 -0.3131
 6633TIP3    H141458   1.442   6.335   0.554  0.0053  1.2310 -1.0372
 6633TIP3    H241459   1.309   6.263   0.562 -0.3763  2.1048  1.2753
 6634TIP3   OH241460   0.571   6.835   2.424 -0.3086 -0.1894  0.9317
 6634TIP3    H141461   0.550   6.861   2.334 -2.9481 -2.5740  0.7233
 6634TIP3    H241462   0.590   6.918   2.468  0.3222  1.1240 -1.6127
 6635TIP3   OH241463   5.353   3.030   3.328 -0.5046 -0.2310 -0.1541
 6635TIP3    H141464   5.305   3.069   3.401 -0.5744 -2.8579  1.3258
 6635TIP3    H241465   5.442   3.018   3.361  0.1751  0.9732 -1.4788
 6636TIP3   OH241466   6.298   4.715   4.647 -0.4666 -0.3743  0.3296
 6636TIP3    H141467   6.364   4.661   4.602 -1.0201 -0.3788 -0.5002
 6636TIP3    H241468   6.350   4.777   4.698  0.1910 -0.2909 -0.4120
 6637TIP3   OH241469   2.352   0.484   0.838  0.1337  0.2574 -0.2910
 6637TIP3    H141470   2.320   0.574   0.830  2.5604  1.0827 -2.1314
 6637TIP3    H241471   2.424   0.490   0.901 -1.1943 -0.9394  1.4289
 6638TIP3   OH241472   3.074   1.526   2.185  0.5020 -0.1878  0.7437
 6638TIP3    H141473   2.993   1.541   2.136  1.1085  1.5958  0.1987
 6638TIP3    H241474   3.098   1.436   2.165 -0.7952 -0.4144  0.0864
 6639TIP3   OH241475   1.010   6.047   3.027  0.5759 -0.3751 -0.1158
 6639TIP3    H141476   0.957   5.980   2.983 -0.2996  0.1095  0.1844
 6639TIP3    H241477   1.000   6.027   3.120  3.3531 -2.1220 -0.0743
 6640TIP3   OH241478   6.627   4.801   3.626 -0.1641  0.1908 -0.2745
 6640TIP3    H141479   6.639   4.889   3.659 -0.7125 -1.1721  4.2207
 6640TIP3    H241480   6.533   4.785   3.633 -0.1006 -0.7410 -1.1653
 6641TIP3   OH241481   2.025   5.044   0.812  0.4124 -0.2194  0.5447
 6641TIP3    H141482   2.031   5.128   0.857 -0.1075 -0.1936  0.5696
 6641TIP3    H241483   2.114   5.026   0.782  0.7542 -0.1979  1.5142
 6642TIP3   OH241484   6.880   2.861   3.605 -0.1229  0.0473 -0.2086
 6642TIP3    H141485   6.882   2.782   3.658 -1.1080 -0.4830 -0.9136
 6642TIP3    H241486   6.789   2.867   3.575 -1.0192  3.3069  2.5585
 6643TIP3   OH241487   5.420   3.389   1.869 -0.9622  0.5843 -0.0085
 6643TIP3    H141488   5.381   3.316   1.917  0.2678  1.3847  2.4068
 6643TIP3    H241489   5.365   3.464   1.890 -0.5400  0.9067 -0.0416
 6644TIP3   OH241490   4.439   0.171   2.669  0.4857 -0.0029 -0.1597
 6644TIP3    H141491   4.410   0.089   2.629  0.8562 -1.6996  2.7600
 6644TIP3    H241492   4.398   0.239   2.616 -0.3868 -2.0664 -2.3077
 6645TIP3   OH241493   2.565   6.785   3.870 -0.1140  0.0676 -0.0957
 6645TIP3    H141494   2.581   6.847   3.942 -0.8402  1.6416 -1.2417
 6645TIP3    H241495   2.636   6.803   3.808 -0.8726  0.4102 -0.8667
 6646TIP3   OH241496   5.253   0.564   3.179  0.1085 -0.1111 -0.1741
 6646TIP3    H141497   5.242   0.652   3.216  1.4834  0.3344 -0.7649
 6646TIP3    H241498   5.183   0.512   3.219 -1.2857  1.4505 -0.4644
 6647TIP3   OH241499   5.240   3.089   1.626  0.4113  0.2652  0.2823
 6647TIP3    H141500   5.194   3.165   1.660 -1.7965 -0.7196 -0.2890
 6647TIP3    H241501   5.219   3.088   1.532 -0.6062 -1.6092  0.4679
 6648TIP3   OH241502   1.112   6.714   4.649 -0.3180  0.0666  0.3951
 6648TIP3    H141503   1.152   6.681   4.568 -0.7644  1.0269 -0.2462
 6648TIP3    H241504   1.018   6.698   4.637 -0.4360  0.6733  0.4936
 6649TIP3   OH241505   2.612   5.431   2.413  0.0253  0.0951 -0.4759
 6649TIP3    H141506   2.672   5.436   2.487 -0.1359  1.6053 -0.4049
 6649TIP3    H241507   2.528   5.459   2.450 -0.5238 -1.0718 -0.7911
 6650TIP3   OH241508   1.853   0.166   1.983  0.0236  0.4575  0.0389
 6650TIP3    H141509   1.806   0.085   2.002 -0.1677  0.3295 -0.9600
 6650TIP3    H241510   1.922   0.140   1.921  0.8537  0.8095  0.7859
 6651TIP3   OH241511   2.015   6.491   1.683 -0.3046  0.0991 -0.4264
 6651TIP3    H141512   2.003   6.585   1.664 -0.8925  0.0946 -0.1159
 6651TIP3    H241513   2.058   6.456   1.605 -2.7314  0.0669 -1.8526
 6652TIP3   OH241514   6.428   1.783   4.142  0.4019  0.0677  0.3276
 6652TIP3    H141515   6.349   1.826   4.110  1.5030  0.8063 -1.5682
 6652TIP3    H241516   6.479   1.765   4.064  0.7069 -3.4102  1.1808
 6653TIP3   OH241517   3.738   0.035   3.195 -0.1008 -0.1798  0.9648
 6653TIP3    H141518   3.798  -0.036   3.216 -1.8710 -2.0344  0.1033
 6653TIP3    H241519   3.787   0.115   3.213  2.5508 -1.5866  0.3662
 6654TIP3   OH241520   0.976   0.573   4.245  0.0979  0.1891 -0.6381
 6654TIP3    H141521   0.970   0.493   4.297 -1.3403 -0.2141 -1.3532
 6654TIP3    H241522   1.054   0.617   4.277 -0.6524 -0.0898  1.7532
 6655TIP3   OH241523   4.201   4.590   1.178 -0.2386  0.7202 -0.0806
 6655TIP3    H141524   4.257   4.548   1.243  0.5777  2.2999  0.2851
 6655TIP3    H241525   4.119   4.542   1.181  0.3084 -0.1704  1.0400
 6656TIP3   OH241526   0.075   6.309   3.537 -0.0874 -0.1328  0.6864
 6656TIP3    H141527   0.131   6.381   3.510  0.2036 -0.6907 -0.2300
 6656TIP3    H241528   0.133   6.247   3.581 -0.3248  0.1531  1.4153
 6657TIP3   OH241529   6.344   0.587   0.417  0.5497 -0.0818 -0.0117
 6657TIP3    H141530   6.416   0.576   0.354  0.4254 -1.1119  0.0099
 6657TIP3    H241531   6.280   0.641   0.371 -1.2154 -3.7144 -2.2940
 6658TIP3   OH241532   6.251   5.018   2.495  0.2357  0.3832  0.5764
 6658TIP3    H141533   6.208   4.989   2.414  1.9853 -1.0129  0.0773
 6658TIP3    H241534   6.335   5.055   2.465  2.3100 -2.8679  1.8035
 6659TIP3   OH241535   3.064   0.084   2.752 -0.0716  0.4645  0.2320
 6659TIP3    H141536   3.113   0.009   2.784 -0.7455 -0.0551  0.0594
 6659TIP3    H241537   3.092   0.095   2.661 -0.7396 -0.2352 -0.0686
 6660TIP3   OH241538   1.953   0.404   4.673  0.4644 -0.1396 -0.6309
 6660TIP3    H141539   2.015   0.341   4.637  0.5463  0.2958 -1.2693
 6660TIP3    H241540   1.992   0.490   4.653 -0.6644  0.1609 -1.6703
 6661TIP3   OH241541   2.908   6.443   1.294 -0.9254  0.0362 -0.4527
 6661TIP3    H141542   2.875   6.355   1.280  1.1516 -1.0038  0.6521
 6661TIP3    H241543   2.891   6.461   1.387 -2.4505  1.3506 -0.9414
 6662TIP3   OH241544   5.646   0.252   3.285  0.0894  0.0292 -0.2388
 6662TIP3    H141545   5.673   0.280   3.372  1.5388 -1.4022 -0.1805
 6662TIP3    H241546   5.599   0.327   3.249 -1.3502  0.3377  2.0823
 6663TIP3   OH241547   1.395   4.718   1.865  0.2685  0.0905 -0.5408
 6663TIP3    H141548   1.403   4.712   1.961  1.2092  1.3278 -0.5202
 6663TIP3    H241549   1.348   4.800   1.851 -0.4588 -0.4198 -1.1368
 6664TIP3   OH241550   4.953   3.375   1.520  0.7656  0.1222 -0.4580
 6664TIP3    H141551   5.002   3.456   1.506 -0.0854  0.7731  0.2086
 6664TIP3    H241552   4.993   3.335   1.597  0.8321  0.1786 -0.4631
 6665TIP3   OH241553   2.304   2.520   1.959 -0.0933 -0.7110 -0.0830
 6665TIP3    H141554   2.352   2.601   1.939 -0.3082 -0.1563  1.4964
 6665TIP3    H241555   2.340   2.491   2.043 -0.5334 -1.8665 -0.2750
 6666TIP3   OH241556   3.844   4.501   2.950 -0.1383  0.1180 -0.6192
 6666TIP3    H141557   3.765   4.549   2.974 -0.0773 -0.6056  1.2095
 6666TIP3    H241558   3.833   4.481   2.857 -3.6292 -2.6467  0.1701
 6667TIP3   OH241559   5.370   3.401   3.487  0.9098 -0.5101 -0.0957
 6667TIP3    H141560   5.441   3.429   3.428 -0.2123  0.5213 -1.0084
 6667TIP3    H241561   5.292   3.442   3.451  0.0964 -0.1986  1.8915
 6668TIP3   OH241562   5.590   1.367   1.717 -0.4283 -0.2359  0.5833
 6668TIP3    H141563   5.593   1.461   1.701 -1.0030 -0.3080 -0.0261
 6668TIP3    H241564   5.642   1.329   1.645  0.2673 -0.3577  1.1427
 6669TIP3   OH241565   5.200   2.331   1.935  0.0250  0.2374 -0.8028
 6669TIP3    H141566   5.149   2.409   1.957 -0.8249 -0.4906 -0.1181
 6669TIP3    H241567   5.190   2.321   1.841 -1.6331 -0.2491 -0.5964
 6670TIP3   OH241568   2.233   3.404   3.915  0.7789 -0.2669 -0.1226
 6670TIP3    H141569   2.154   3.403   3.970 -0.0197 -1.1243 -1.2425
 6670TIP3    H241570   2.280   3.483   3.943 -0.2947  0.0780  0.8104
 6671TIP3   OH241571   4.661   5.223   1.513  0.2680 -0.4974  0.0496
 6671TIP3    H141572   4.586   5.258   1.562 -0.6898  1.2461 -2.4996
 6671TIP3    H241573   4.648   5.128   1.516 -1.3816 -0.2929  0.6794
 6672TIP3   OH241574   2.784   5.740   4.588  0.5924  0.1027 -0.2891
 6672TIP3    H141575   2.789   5.831   4.556  3.2728  0.7727  1.6425
 6672TIP3    H241576   2.865   5.700   4.555  0.3762 -0.9888  0.4722
 6673TIP3   OH241577   2.825   5.848   2.674 -0.0831 -0.7963 -0.3750
 6673TIP3    H141578   2.900   5.877   2.726 -1.0552  1.1529  0.0307
 6673TIP3    H241579   2.773   5.927   2.661 -2.7091 -2.2673  0.3856
 6674TIP3   OH241580   2.349   6.559   1.624  0.1639  0.2059  0.2169
 6674TIP3    H141581   2.392   6.614   1.690  0.4662  1.2128 -0.7911
 6674TIP3    H241582   2.342   6.614   1.547 -2.6295 -0.0306  0.1870
 6675TIP3   OH241583   6.307   4.805   3.675  0.1813  0.3620  0.4439
 6675TIP3    H141584   6.315   4.866   3.602  1.7843  0.7332  0.8930
 6675TIP3    H241585   6.289   4.721   3.633 -0.8243  0.9070 -0.2542
 6676TIP3   OH241586   3.741   1.755   1.140  0.3933  0.2114  0.4478
 6676TIP3    H141587   3.650   1.727   1.132  0.7479 -1.0031  0.4625
 6676TIP3    H241588   3.744   1.805   1.222 -0.2824  0.3482  0.3914
 6677TIP3   OH241589   4.296   6.817   1.737  0.8033  0.9285  0.5776
 6677TIP3    H141590   4.277   6.825   1.830 -0.8832 -1.3303  0.4990
 6677TIP3    H241591   4.211   6.826   1.694  1.0643 -1.0338 -0.4744
 6678TIP3   OH241592   3.548   0.820   4.428 -0.2434 -0.5251 -0.5904
 6678TIP3    H141593   3.503   0.837   4.511 -0.9010 -0.1919 -1.0030
 6678TIP3    H241594   3.529   0.729   4.408 -2.9410  0.2278 -2.0117
 6679TIP3   OH241595   6.379   6.230   1.319  0.1692  0.1745  0.0228
 6679TIP3    H141596   6.461   6.199   1.357  0.8156  0.8630 -0.7707
 6679TIP3    H241597   6.365   6.176   1.241  0.7675  1.1579 -0.7896
 6680TIP3   OH241598   2.724   2.053   2.066 -0.5011 -0.4155  0.5274
 6680TIP3    H141599   2.755   1.997   2.137 -0.6674 -0.3096  0.6866
 6680TIP3    H241600   2.770   2.136   2.079 -0.4930 -0.4131  0.4816
 6681TIP3   OH241601   2.742   3.129   4.769  0.4573  0.5591 -0.0404
 6681TIP3    H141602   2.710   3.208   4.726 -1.2960 -0.0142  0.1340
 6681TIP3    H241603   2.703   3.132   4.856 -0.2622 -0.8465 -0.2867
 6682TIP3   OH241604   3.996   5.638   2.026  0.7015  0.0717  0.2492
 6682TIP3    H141605   3.970   5.566   2.085  1.9381 -0.2284  0.4523
 6682TIP3    H241606   3.992   5.600   1.938 -0.7370  0.3966  0.1556
 6683TIP3   OH241607   6.718   2.100   3.944  0.5088 -0.7880 -0.0780
 6683TIP3    H141608   6.768   2.148   4.010  0.6560  0.6527 -1.1801
 6683TIP3    H241609   6.630   2.092   3.981 -0.4945  3.2667 -1.0392
 6684TIP3   OH241610   4.120   0.699   1.001 -0.0174  0.0523  0.7244
 6684TIP3    H141611   4.122   0.647   1.081 -0.6832 -0.9321  0.1264
 6684TIP3    H241612   4.044   0.666   0.953  0.1368  0.8967 -0.1377
 6685TIP3   OH241613   1.297   5.955   2.468  0.2227  0.1148 -0.7202
 6685TIP3    H141614   1.388   5.941   2.493 -0.3557  0.0071  1.5747
 6685TIP3    H241615   1.250   5.881   2.507 -1.0616  1.1058 -0.2956
 6686TIP3   OH241616   2.480   5.228   3.032  0.1399  0.6174 -0.0048
 6686TIP3    H141617   2.563   5.255   2.993  1.0100 -0.4562  1.0317
 6686TIP3    H241618   2.504   5.161   3.097 -1.4742  0.6958  0.7307
 6687TIP3   OH241619   0.367   3.159   3.908 -0.7693  0.1281  0.4595
 6687TIP3    H141620   0.415   3.126   3.985  0.5051 -0.4665 -0.5444
 6687TIP3    H241621   0.425   3.225   3.870 -1.5314  0.6521  0.1819
 6688TIP3   OH241622   1.730   5.492   2.380 -0.1115 -0.0719 -0.6489
 6688TIP3    H141623   1.648   5.448   2.358 -0.4137  0.2236 -0.1409
 6688TIP3    H241624   1.779   5.428   2.432 -0.0867 -0.1912 -0.8191
 6689TIP3   OH241625   4.050   5.639   2.652 -0.2564  0.1503 -0.3110
 6689TIP3    H141626   4.140   5.643   2.620  0.3429 -1.7467  0.9758
 6689TIP3    H241627   4.055   5.664   2.744 -1.0445  0.0046 -0.2211
 6690TIP3   OH241628   1.773   0.448   2.306  0.5624  0.3376  0.1576
 6690TIP3    H141629   1.756   0.487   2.392  1.8281  0.1576  0.5251
 6690TIP3    H241630   1.775   0.522   2.245 -1.2908  0.3692  0.1021
 6691TIP3   OH241631   1.288   2.059   4.111 -0.0077 -0.4955 -0.5740
 6691TIP3    H141632   1.330   2.136   4.148  1.3445 -1.2729 -0.4084
 6691TIP3    H241633   1.264   2.085   4.022 -1.3895  0.7244  0.1247
 6692TIP3   OH241634   3.141   2.982   0.936 -0.0499  0.0947  0.4591
 6692TIP3    H141635   3.153   3.056   0.876  2.3341  1.0726  1.9797
 6692TIP3    H241636   3.100   3.021   1.013 -2.8968 -1.1101 -0.3067
 6693TIP3   OH241637   5.632   0.917   3.074  0.2809  0.0776 -0.5142
 6693TIP3    H141638   5.725   0.908   3.052  0.2613 -1.5323 -0.0487
 6693TIP3    H241639   5.595   0.830   3.059 -1.3452  0.8780 -1.4694
 6694TIP3   OH241640   1.360   4.470   1.678  0.1583 -0.1141  0.4056
 6694TIP3    H141641   1.445   4.426   1.684 -0.2143 -0.7126  1.6775
 6694TIP3    H241642   1.320   4.457   1.764 -1.2861  0.0405 -0.2117
 6695TIP3   OH241643   6.808   2.569   1.971 -0.0745 -0.0840  0.4162
 6695TIP3    H141644   6.824   2.489   2.021  0.5918 -0.3098 -0.1533
 6695TIP3    H241645   6.895   2.605   1.954 -0.3374  0.4134  0.1031
 6696TIP3   OH241646   3.831   3.218   1.325  0.2008  0.4827 -0.0529
 6696TIP3    H141647   3.912   3.169   1.339 -0.4406 -0.5031  0.3389
 6696TIP3    H241648   3.829   3.233   1.230  0.2065 -0.6653 -0.2575
 6697TIP3   OH241649   4.966   2.358   4.519 -0.2080  0.1364  0.4413
 6697TIP3    H141650   5.034   2.321   4.576  0.0886  0.5606  0.3660
 6697TIP3    H241651   4.979   2.453   4.524 -0.2333  0.1845 -0.2567
 6698TIP3   OH241652   3.332   3.996   3.926 -0.9448 -0.1697 -0.1567
 6698TIP3    H141653   3.313   3.939   4.001  0.2282 -0.9544 -0.4189
 6698TIP3    H241654   3.352   3.935   3.855  2.6202  0.4670  0.1237
 6699TIP3   OH241655   1.058   4.977   1.688  0.6349 -0.5920  0.2334
 6699TIP3    H141656   1.023   5.024   1.764 -0.4771 -1.3967  0.2481
 6699TIP3    H241657   1.093   5.045   1.631 -1.1818  0.3030  0.1258
 6700TIP3   OH241658   2.427   6.411   3.086 -0.1053 -0.2122  0.2294
 6700TIP3    H141659   2.423   6.377   3.175  0.3073  0.3285  0.4614
 6700TIP3    H241660   2.337   6.433   3.064 -0.1537  0.0493  0.6768
 6701TIP3   OH241661   0.119   5.142   2.501  0.1289  0.8111 -0.6176
 6701TIP3    H141662   0.087   5.212   2.444 -1.8854  0.0939 -0.4519
 6701TIP3    H241663   0.158   5.078   2.440  1.7546  1.9200 -0.7851
 6702TIP3   OH241664   1.881   6.756   2.547 -0.4607  0.2872 -0.0525
 6702TIP3    H141665   1.842   6.677   2.584 -1.9755  1.4165  0.8815
 6702TIP3    H241666   1.876   6.822   2.617  1.0561  1.1546 -0.6879
 6703TIP3   OH241667   0.794   2.082   3.634 -0.0157 -0.7298 -0.1133
 6703TIP3    H141668   0.747   2.008   3.673 -1.7329 -0.8060 -2.1192
 6703TIP3    H241669   0.852   2.113   3.703 -0.5300 -2.8298  1.3692
 6704TIP3   OH241670   4.902   4.364   4.068  0.7150  0.2358 -0.2820
 6704TIP3    H141671   4.880   4.457   4.068  2.7438  0.7809  1.2211
 6704TIP3    H241672   4.839   4.325   4.129  0.0775  0.6550 -0.6566
 6705TIP3   OH241673   6.318   5.341   2.074  0.0983  0.1078  0.2787
 6705TIP3    H141674   6.383   5.379   2.133 -1.6968  1.4906  1.4951
 6705TIP3    H241675   6.249   5.407   2.070 -1.3787 -1.4272 -0.6927
 6706TIP3   OH241676   3.349   6.330   2.448  0.1478  0.1651  0.1507
 6706TIP3    H141677   3.296   6.395   2.495  0.3179  0.2440  0.2352
 6706TIP3    H241678   3.288   6.259   2.427  0.0636  0.1468  0.4566
 6707TIP3   OH241679   4.735   4.017   1.956 -0.2740 -0.1480 -0.0627
 6707TIP3    H141680   4.710   4.089   1.899  0.4844 -0.8178 -1.2937
 6707TIP3    H241681   4.659   3.958   1.956 -0.9619  0.6832  1.0841
 6708TIP3   OH241682   1.780   5.433   1.050 -0.0378  0.0134 -0.2024
 6708TIP3    H141683   1.829   5.513   1.036  1.6438 -1.1263 -1.0978
 6708TIP3    H241684   1.728   5.422   0.971  1.2175 -0.7583 -0.9525
 6709TIP3   OH241685   4.876   5.983   2.411 -0.0093  0.3795 -0.6632
 6709TIP3    H141686   4.933   6.035   2.354  0.9394 -0.7651 -0.8019
 6709TIP3    H241687   4.934   5.947   2.478 -1.1561  1.9297  1.2660
 6710TIP3   OH241688   6.053   1.419   1.104  0.1414  0.3995  0.1097
 6710TIP3    H141689   6.067   1.505   1.143  0.0677  0.7940 -0.7167
 6710TIP3    H241690   6.033   1.437   1.012 -1.1050 -0.4275  0.1994
 6711TIP3   OH241691   6.032   2.351   4.479  0.5983  0.1932 -0.1801
 6711TIP3    H141692   6.001   2.354   4.570 -1.4156  0.0969 -0.8139
 6711TIP3    H241693   5.992   2.428   4.438  0.6536 -0.3318 -1.2342
 6712TIP3   OH241694   6.016   3.261   3.536  0.0121 -0.4976  0.0759
 6712TIP3    H141695   5.951   3.329   3.555  1.1269  1.1376 -1.5653
 6712TIP3    H241696   5.974   3.179   3.563 -1.8709  0.7003  1.0180
 6713TIP3   OH241697   5.599   0.530   3.355  0.4772  0.1141 -0.7205
 6713TIP3    H141698   5.585   0.613   3.402 -1.5974 -0.5652 -0.0145
 6713TIP3    H241699   5.671   0.548   3.296  0.0867  2.4449 -0.5976
 6714TIP3   OH241700   4.356   4.258   2.601  0.4338  0.0908 -0.2816
 6714TIP3    H141701   4.305   4.186   2.566 -0.5248  1.0438 -0.9205
 6714TIP3    H241702   4.297   4.333   2.599  1.6974  1.1294 -0.5597
 6715TIP3   OH241703   1.518   3.390   2.864  0.0776  0.2160  0.3348
 6715TIP3    H141704   1.592   3.451   2.861 -0.7456  1.2001 -0.5939
 6715TIP3    H241705   1.523   3.342   2.782 -0.6147  0.6755  0.0118
 6716TIP3   OH241706   5.048   5.318   2.823  0.0122  0.4992  0.0973
 6716TIP3    H141707   5.069   5.273   2.904 -1.5402  0.6317  0.6043
 6716TIP3    H241708   4.956   5.297   2.807  0.8023 -1.3313 -2.8094
 6717TIP3   OH241709   1.384   3.649   2.015 -0.5008  0.3787 -0.4654
 6717TIP3    H141710   1.469   3.606   2.015 -0.4299  0.4699 -1.8109
 6717TIP3    H241711   1.322   3.581   1.990 -0.4417  0.9044 -2.1882
 6718TIP3   OH241712   4.184   2.979   1.150  0.3755  0.4589 -0.1837
 6718TIP3    H141713   4.153   3.008   1.064 -1.5585  0.6183  0.5027
 6718TIP3    H241714   4.260   2.924   1.132 -1.0782 -1.0308 -2.1694
 6719TIP3   OH241715   4.878   2.268   2.231  0.0935  0.0166  0.4767
 6719TIP3    H141716   4.866   2.214   2.309  0.8236  0.5792  0.9865
 6719TIP3    H241717   4.973   2.277   2.221  0.0494  3.0587  1.7454
 6720TIP3   OH241718   4.558   6.088   3.592  0.8565 -0.7382  0.1717
 6720TIP3    H141719   4.553   6.180   3.618 -0.4133 -0.9256  0.6731
 6720TIP3    H241720   4.559   6.091   3.496  0.7138 -0.1957  0.1808
 6721TIP3   OH241721   6.163   4.546   3.012 -0.4663 -0.3889 -0.0209
 6721TIP3    H141722   6.071   4.541   3.037 -0.4558 -0.5024 -0.0025
 6721TIP3    H241723   6.179   4.466   2.962 -0.2950 -0.5342  0.2581
 6722TIP3   OH241724   3.730   4.256   1.927  0.0299 -0.4083  0.6526
 6722TIP3    H141725   3.819   4.277   1.898  0.1451 -0.4007  1.0027
 6722TIP3    H241726   3.709   4.325   1.990 -0.1770 -0.4791  0.6604
 6723TIP3   OH241727   5.352   0.004   4.375  0.3369 -0.4341  0.0083
 6723TIP3    H141728   5.369   0.094   4.402  0.1726 -0.3563 -0.1415
 6723TIP3    H241729   5.267   0.008   4.330  0.0980 -0.7467  0.4211
 6724TIP3   OH241730   6.864   6.852   2.039 -0.1640 -0.4040 -0.1407
 6724TIP3    H141731   6.791   6.894   1.992  0.1102 -0.5548 -0.7123
 6724TIP3    H241732   6.886   6.914   2.108 -0.8915 -0.3945  0.0894
 6725TIP3   OH241733   4.525   4.773   1.080  0.2073  0.4483  0.7063
 6725TIP3    H141734   4.620   4.764   1.080  0.3613  1.8510  0.1713
 6725TIP3    H241735   4.494   4.695   1.033  1.1722  0.5860 -0.1952
 6726TIP3   OH241736   1.530   3.459   2.365 -0.0028 -0.3028 -0.1040
 6726TIP3    H141737   1.618   3.457   2.403 -0.1416  0.1218  0.2595
 6726TIP3    H241738   1.542   3.495   2.277  0.2265 -0.5453 -0.1713
 6727TIP3   OH241739   5.165   0.819   3.689 -0.1340 -0.7084  0.4881
 6727TIP3    H141740   5.083   0.807   3.641 -0.1818 -1.4034  0.7281
 6727TIP3    H241741   5.204   0.732   3.690 -0.8308 -1.0615  2.9386
 6728TIP3   OH241742   3.637   1.213   8.541 -0.1307  0.1325  0.5526
 6728TIP3    H141743   3.583   1.257   8.476  1.4475 -0.0204 -0.9337
 6728TIP3    H241744   3.668   1.283   8.599 -0.0108  0.5404 -0.0043
 6729TIP3   OH241745   5.515   1.680   1.098  0.2798 -0.3762  0.3443
 6729TIP3    H141746   5.537   1.770   1.075  0.6453 -0.4626  0.3425
 6729TIP3    H241747   5.566   1.663   1.178  1.2540 -1.0030 -0.3815
 6730TIP3   OH241748   5.167   2.246   3.268  0.0937  0.1338  0.0448
 6730TIP3    H141749   5.150   2.235   3.362  1.1925 -0.5511  0.1837
 6730TIP3    H241750   5.081   2.232   3.227 -0.4720  0.7739  0.9549
 6731TIP3   OH241751   1.482   1.100   2.361  0.5157 -0.4113 -0.0944
 6731TIP3    H141752   1.480   1.146   2.277 -0.0705 -0.7487 -0.2748
 6731TIP3    H241753   1.525   1.161   2.421  0.0985  0.2171 -0.4161
 6732TIP3   OH241754   0.241   2.152   3.009  0.0500  0.3030 -0.3177
 6732TIP3    H141755   0.266   2.116   2.924 -0.9585  1.5694 -1.1776
 6732TIP3    H241756   0.176   2.219   2.989  0.2298  1.0453  1.4065
 6733TIP3   OH241757   5.996   3.806   4.479  0.4005 -0.2564 -0.2459
 6733TIP3    H141758   6.026   3.733   4.534 -1.7097 -0.7478  0.3178
 6733TIP3    H241759   6.026   3.884   4.524  1.3171 -0.7211 -0.0214
 6734TIP3   OH241760   3.207   4.381   0.904  0.4180  0.3764 -0.7366
 6734TIP3    H141761   3.152   4.330   0.844 -0.0470 -0.4157  0.3363
 6734TIP3    H241762   3.295   4.344   0.894  0.1674 -0.3528 -0.2802
 6735TIP3   OH241763   0.819   4.570   0.673  0.0549 -0.0482 -0.2194
 6735TIP3    H141764   0.726   4.590   0.664 -0.0303  0.1819  0.9869
 6735TIP3    H241765   0.864   4.649   0.643 -0.2515  1.4074  2.7135
 6736TIP3   OH241766   0.899   1.317   0.893  0.1728  1.0708  0.3941
 6736TIP3    H141767   0.832   1.339   0.958  1.1883  2.2321  1.1008
 6736TIP3    H241768   0.982   1.340   0.936  1.0838 -0.8047 -0.2419
 6737TIP3   OH241769   3.000   2.492   2.818 -0.1338 -0.3719  0.3372
 6737TIP3    H141770   3.075   2.434   2.812 -0.4863 -0.8136  0.1800
 6737TIP3    H241771   3.028   2.562   2.877  0.3978 -0.5354  0.2753
 6738TIP3   OH241772   2.263   1.007   1.000  0.1718 -0.2051 -0.2985
 6738TIP3    H141773   2.304   1.093   0.986  1.5421 -0.6735  0.6155
 6738TIP3    H241774   2.336   0.949   1.022 -1.0694 -0.7197  3.0315
 6739TIP3   OH241775   6.816   0.921   0.914 -0.4959 -0.3907 -0.7104
 6739TIP3    H141776   6.760   0.953   0.843 -0.5145  1.4083  0.0696
 6739TIP3    H241777   6.901   0.963   0.897 -1.1108  2.0020  1.5722
 6740TIP3   OH241778   5.903   1.989   4.237 -0.1446 -0.0933 -0.7513
 6740TIP3    H141779   5.855   2.068   4.212 -3.2632 -1.2663  0.9830
 6740TIP3    H241780   5.966   2.019   4.303 -0.0531  1.1743 -1.3860
 6741TIP3   OH241781   2.154   2.794   4.729  0.4269  0.3501 -0.7009
 6741TIP3    H141782   2.120   2.711   4.696 -1.9367  0.7187  0.5387
 6741TIP3    H241783   2.137   2.791   4.823  2.3885  1.3478 -0.2550
 6742TIP3   OH241784   6.613   6.242   2.734 -0.2074 -0.6849 -0.3081
 6742TIP3    H141785   6.550   6.212   2.800 -0.6024  0.0105 -0.3582
 6742TIP3    H241786   6.696   6.251   2.782 -0.2014 -1.3501 -0.1835
 6743TIP3   OH241787   5.160   3.834   3.526  0.3493 -0.2109  0.0298
 6743TIP3    H141788   5.198   3.870   3.607  0.5563 -1.9017  0.7123
 6743TIP3    H241789   5.092   3.775   3.555  0.0945 -0.4761 -1.0671
 6744TIP3   OH241790   5.511   2.758   1.251 -0.4747 -0.2473  0.2042
 6744TIP3    H141791   5.556   2.818   1.191  0.0372 -0.6693  0.1652
 6744TIP3    H241792   5.418   2.778   1.238 -0.2857  1.3818  1.0663
 6745TIP3   OH241793   1.496   1.477   4.495  0.8170 -0.2044 -0.4241
 6745TIP3    H141794   1.449   1.505   4.416  0.7131  0.3988 -0.1510
 6745TIP3    H241795   1.586   1.508   4.482  0.9738 -0.7244 -0.6190
 6746TIP3   OH241796   5.172   6.058   3.773 -0.0613  0.0309  0.1511
 6746TIP3    H141797   5.208   5.970   3.784 -1.7404 -0.7030  0.0239
 6746TIP3    H241798   5.232   6.101   3.713  2.1250 -0.1899  2.0356
 6747TIP3   OH241799   1.957   4.564   1.503  0.0385  0.3438  0.0561
 6747TIP3    H141800   2.043   4.572   1.543  0.0763  0.4113 -0.0394
 6747TIP3    H241801   1.974   4.555   1.410 -0.0044 -0.6537  0.1291
 6748TIP3   OH241802   5.169   4.297   2.336  0.0198 -0.6483  0.3693
 6748TIP3    H141803   5.167   4.309   2.241  1.3307 -1.8669  0.1557
 6748TIP3    H241804   5.089   4.249   2.356  0.5188 -1.8290 -0.3666
 6749TIP3   OH241805   2.913   1.139   2.342 -0.1454  0.2115 -0.4442
 6749TIP3    H141806   2.873   1.169   2.424  0.0372 -0.4771 -0.0921
 6749TIP3    H241807   2.967   1.064   2.368  0.1634  0.1811 -1.1491
 6750TIP3   OH241808   2.736   4.498   0.759  0.1366 -0.1292  0.0204
 6750TIP3    H141809   2.653   4.465   0.794  1.0642 -0.7319  1.7473
 6750TIP3    H241810   2.780   4.420   0.725  0.0785  0.1695 -0.7635
 6751TIP3   OH241811   0.385   3.357   1.157  0.4495  0.3538  0.1923
 6751TIP3    H141812   0.366   3.268   1.185  2.5631 -0.0064  0.6875
 6751TIP3    H241813   0.425   3.347   1.071  0.0642  0.8789 -0.0475
 6752TIP3   OH241814   3.958   5.523   1.761 -0.0722 -0.0929  0.1435
 6752TIP3    H141815   4.002   5.524   1.676  0.4145 -1.7149  0.3397
 6752TIP3    H241816   3.938   5.430   1.776 -1.7569  0.3698  0.9949
 6753TIP3   OH241817   2.615   5.198   3.716  0.0358 -0.4349  0.9974
 6753TIP3    H141818   2.647   5.271   3.768 -0.7261  0.0676  0.7727
 6753TIP3    H241819   2.694   5.149   3.693  0.5616  0.3343  1.1244
 6754TIP3   OH241820   1.855   1.820   2.835  0.1767 -0.3789 -0.0869
 6754TIP3    H141821   1.906   1.888   2.793 -0.1804 -0.7050 -1.0709
 6754TIP3    H241822   1.827   1.858   2.918 -0.1152  0.7239 -0.6766
 6755TIP3   OH241823   4.001   0.795   3.667  0.0798 -0.0866 -0.5362
 6755TIP3    H141824   3.954   0.826   3.744  0.3715 -0.6982 -0.1039
 6755TIP3    H241825   3.982   0.860   3.599  0.4805  0.9125  0.2756
 6756TIP3   OH241826   5.669   4.530   2.404 -0.6813  0.1562  0.0644
 6756TIP3    H141827   5.710   4.616   2.394 -2.0947  0.6756 -1.8089
 6756TIP3    H241828   5.625   4.535   2.488 -0.0926  0.9773  0.3451
 6757TIP3   OH241829   4.511   2.734   3.429  0.8822 -0.2505  0.6862
 6757TIP3    H141830   4.551   2.813   3.392  1.3727 -0.3420  1.0123
 6757TIP3    H241831   4.478   2.686   3.353  0.8492  0.1205  0.4606
 6758TIP3   OH241832   1.884   2.593   0.911  0.1888  0.2295  0.2904
 6758TIP3    H141833   1.862   2.562   0.822 -0.0859  0.8397  0.1422
 6758TIP3    H241834   1.960   2.649   0.898  1.4403 -1.2882  0.7123
 6759TIP3   OH241835   4.903   0.207   1.997  0.6617 -0.5329  0.3154
 6759TIP3    H141836   4.902   0.231   1.904 -2.5172  0.1434  0.3885
 6759TIP3    H241837   4.950   0.279   2.040  2.6257 -1.1203 -0.7696
 6760TIP3   OH241838   0.589   1.374   4.508  0.1703  0.7492 -0.4148
 6760TIP3    H141839   0.552   1.446   4.559 -0.3833  0.5012 -0.4670
 6760TIP3    H241840   0.537   1.370   4.429  0.2123  0.3051 -0.4247
 6761TIP3   OH241841   3.251   0.855   1.299 -0.4425 -0.2072  0.3711
 6761TIP3    H141842   3.293   0.909   1.365  0.2549 -1.0043  0.6017
 6761TIP3    H241843   3.259   0.766   1.332 -1.5224 -0.4676 -0.0194
 6762TIP3   OH241844   5.832   1.717   2.544 -0.2189  0.3238  0.0994
 6762TIP3    H141845   5.822   1.694   2.451  1.4848 -0.6727  0.1142
 6762TIP3    H241846   5.781   1.797   2.554 -2.6330 -0.9622 -1.0687
 6763TIP3   OH241847   2.090   2.055   3.808  0.5720  0.1314  0.3663
 6763TIP3    H141848   2.182   2.033   3.819  0.5444 -0.5089 -0.5197
 6763TIP3    H241849   2.043   1.976   3.835  0.3255  0.1600  0.0252
 6764TIP3   OH241850   3.215   1.583   3.904  0.0105 -0.1696 -0.0455
 6764TIP3    H141851   3.207   1.669   3.944 -0.9419 -0.2681 -0.0186
 6764TIP3    H241852   3.232   1.524   3.977 -1.0641 -0.2514  0.1504
 6765TIP3   OH241853   3.144   3.417   2.766 -0.0791  0.1470  0.2330
 6765TIP3    H141854   3.110   3.499   2.802 -1.4885 -0.7192  1.0025
 6765TIP3    H241855   3.066   3.373   2.731  0.9645  0.1146 -2.2613
 6766TIP3   OH241856   3.345   1.691   0.765  0.5170  0.2229 -0.3526
 6766TIP3    H141857   3.377   1.619   0.820 -0.6972  1.0617  1.5568
 6766TIP3    H241858   3.399   1.687   0.687  1.3524 -1.9565  0.2563
 6767TIP3   OH241859   0.499   1.353   2.352  0.4661 -0.4852  0.0028
 6767TIP3    H141860   0.440   1.406   2.406 -0.6697 -1.1133 -0.5827
 6767TIP3    H241861   0.466   1.364   2.263  0.5362 -1.7263 -0.1948
 6768TIP3   OH241862   5.259   2.475   2.521  0.2298  0.2038  0.4873
 6768TIP3    H141863   5.330   2.431   2.570  0.4298 -1.7699 -1.4262
 6768TIP3    H241864   5.179   2.437   2.556  0.2813  0.0873  0.4785
 6769TIP3   OH241865   3.817   4.582   3.300  0.1667 -0.0193  0.1404
 6769TIP3    H141866   3.840   4.489   3.295 -0.6922 -0.1821 -1.6448
 6769TIP3    H241867   3.739   4.585   3.354  1.0814 -0.1169  1.5260
 6770TIP3   OH241868   4.319   5.693   3.645  0.5381  0.1571 -0.0385
 6770TIP3    H141869   4.325   5.758   3.575 -1.0888  0.3895 -0.0007
 6770TIP3    H241870   4.296   5.743   3.723 -0.4019 -0.4156  0.0619
 6771TIP3   OH241871   0.812   5.863   0.277 -0.2191  0.1853 -0.3410
 6771TIP3    H141872   0.769   5.918   0.211  0.6731  0.0518 -1.0631
 6771TIP3    H241873   0.741   5.815   0.318 -0.8733  0.8319 -0.6796
 6772TIP3   OH241874   3.697   5.231   3.431 -0.2155 -0.2022 -0.0480
 6772TIP3    H141875   3.687   5.216   3.525 -1.0370  0.6296  0.0230
 6772TIP3    H241876   3.738   5.152   3.397 -0.9203 -0.9724  0.8430
 6773TIP3   OH241877   1.706   4.281   3.512  0.3454  0.1096 -0.2775
 6773TIP3    H141878   1.697   4.368   3.549  3.9653  0.6166 -0.2288
 6773TIP3    H241879   1.708   4.295   3.418  0.7914  0.0850 -0.2744
 6774TIP3   OH241880   4.420   4.648   1.603  0.3091 -0.4258  0.3458
 6774TIP3    H141881   4.501   4.664   1.554  0.4740 -0.6192  0.5576
 6774TIP3    H241882   4.448   4.610   1.685  0.0664  0.4081  0.8333
 6775TIP3   OH241883   4.359   4.242   4.611  0.5344 -0.2415 -0.2791
 6775TIP3    H141884   4.418   4.168   4.597  3.1601  1.1484  2.3182
 6775TIP3    H241885   4.312   4.220   4.692  1.9094  1.1918  0.9486
 6776TIP3   OH241886   0.089   0.145   2.909 -0.2137 -0.0521 -0.5037
 6776TIP3    H141887   0.172   0.146   2.957 -0.2370  1.7288 -0.4657
 6776TIP3    H241888   0.038   0.215   2.948 -1.2678 -0.3140 -1.3813
 6777TIP3   OH241889   1.296   3.688   3.659  0.4632  0.4746  0.0212
 6777TIP3    H141890   1.283   3.706   3.752 -1.8544  1.5565 -0.4343
 6777TIP3    H241891   1.309   3.774   3.620  2.3995 -0.0432 -0.5886
 6778TIP3   OH241892   4.204   4.950   2.580  0.6518  0.0796  0.0332
 6778TIP3    H141893   4.136   5.011   2.608  0.3722  0.0970 -0.6772
 6778TIP3    H241894   4.286   4.996   2.599  0.4465  1.3832 -1.9859
 6779TIP3   OH241895   6.405   2.602   1.680  0.8828  0.0035 -0.8799
 6779TIP3    H141896   6.444   2.673   1.731  0.5040 -0.6612  0.3682
 6779TIP3    H241897   6.440   2.522   1.719 -1.3781 -0.6127  0.0760
 6780TIP3   OH241898   1.485   2.194   5.003 -0.3007 -0.7173 -0.0232
 6780TIP3    H141899   1.407   2.142   5.020 -1.4257  0.5928 -1.0323
 6780TIP3    H241900   1.500   2.243   5.083 -1.6289  0.4126 -0.4409
 6781TIP3   OH241901   0.232   6.331   4.164 -0.4135  0.5168  0.1317
 6781TIP3    H141902   0.320   6.350   4.133 -0.8281  1.2862 -0.5930
 6781TIP3    H241903   0.199   6.264   4.104  0.5304 -1.6264  1.8474
 6782TIP3   OH241904   4.095   5.896   1.912  0.2124  0.6635  0.1562
 6782TIP3    H141905   4.027   5.962   1.898 -0.4272  0.2317  1.1000
 6782TIP3    H241906   4.057   5.836   1.976  1.0058 -0.3075 -0.2650
 6783TIP3   OH241907   1.540   1.978   3.646 -0.1127  0.0044 -0.3693
 6783TIP3    H141908   1.628   1.988   3.681 -0.0877  2.1388 -0.8655
 6783TIP3    H241909   1.533   1.886   3.624  2.0821 -0.1851 -0.5173
 6784TIP3   OH241910   2.504   4.550   3.852  0.3634 -0.0653 -0.2334
 6784TIP3    H141911   2.482   4.569   3.943 -0.5088  3.1351 -0.9842
 6784TIP3    H241912   2.600   4.553   3.849  0.3625  1.6462  0.3163
 6785TIP3   OH241913   2.730   1.973   1.434  0.3925  0.2317  0.0149
 6785TIP3    H141914   2.689   1.896   1.473  1.8205 -0.3671  0.4159
 6785TIP3    H241915   2.742   1.951   1.342  0.0873  0.2865 -0.0371
 6786TIP3   OH241916   2.029   1.145   0.533  0.0124 -0.0953 -0.2463
 6786TIP3    H141917   2.031   1.067   0.588  0.8511 -0.3759 -0.6471
 6786TIP3    H241918   2.119   1.176   0.533 -0.4193  1.2260  0.3755
 6787TIP3   OH241919   5.727   0.126   4.306 -0.0952 -0.0213  0.1861
 6787TIP3    H141920   5.820   0.107   4.292  0.1547 -0.3088  1.9848
 6787TIP3    H241921   5.694   0.048   4.350 -1.0474  0.3632  0.1631
 6788TIP3   OH241922   1.738   5.757   8.396  0.2425 -0.5698  0.2815
 6788TIP3    H141923   1.817   5.804   8.368 -0.2125  0.2678  0.3905
 6788TIP3    H241924   1.672   5.781   8.331 -0.5995  0.7157  1.5626
 6789TIP3   OH241925   0.501   3.505   2.208  0.1949  0.1990  0.3218
 6789TIP3    H141926   0.468   3.560   2.137  0.4394  0.9734  0.7842
 6789TIP3    H241927   0.577   3.461   2.171 -0.0016  0.1796 -0.0606
 6790TIP3   OH241928   3.078   5.913   3.388 -0.1401 -0.0360  0.0978
 6790TIP3    H141929   3.019   5.841   3.412  1.9073 -1.4305  1.3110
 6790TIP3    H241930   3.020   5.985   3.366 -2.2940 -1.4364  0.8158
 6791TIP3   OH241931   0.682   3.630   0.467  0.0314  0.7529 -0.3749
 6791TIP3    H141932   0.635   3.551   0.495 -0.8583  1.1945 -0.5805
 6791TIP3    H241933   0.630   3.664   0.394 -0.7024  2.5725  0.9013
 6792TIP3   OH241934   5.630   4.474   3.211 -0.0367 -0.0333 -0.1875
 6792TIP3    H141935   5.621   4.382   3.234 -0.6934 -0.0408 -0.4444
 6792TIP3    H241936   5.542   4.510   3.221  0.0497  0.3828 -0.8369
 6793TIP3   OH241937   0.565   4.399   2.925  0.5385  0.3405  1.3996
 6793TIP3    H141938   0.589   4.320   2.974  2.8434  0.0016 -0.1254
 6793TIP3    H241939   0.568   4.373   2.833  0.5322  1.9895  0.8906
 6794TIP3   OH241940   4.473   2.200   1.503  0.0260  0.4878  0.2747
 6794TIP3    H141941   4.424   2.120   1.522  1.3768 -0.4507 -0.0905
 6794TIP3    H241942   4.511   2.186   1.417  1.6974  0.7780  0.9184
 6795TIP3   OH241943   4.886   0.595   1.449 -0.0562  0.1029 -0.0279
 6795TIP3    H141944   4.869   0.537   1.375 -2.0343 -0.5992  0.9086
 6795TIP3    H241945   4.834   0.673   1.431  1.2151  0.8869 -0.4224
 6796TIP3   OH241946   0.708   2.876   2.102 -0.1901 -0.3013  0.2078
 6796TIP3    H141947   0.795   2.840   2.121 -0.4202 -1.2600 -0.4865
 6796TIP3    H241948   0.663   2.806   2.055 -1.4788  0.0432  0.8858
 6797TIP3   OH241949   5.897   0.237   3.836  0.1862 -0.1100 -0.5346
 6797TIP3    H141950   5.961   0.166   3.839  0.7709  0.4270  0.3656
 6797TIP3    H241951   5.947   0.316   3.857 -0.1523  0.8288 -2.9504
 6798TIP3   OH241952   5.773   1.450   3.326  0.6766  0.5332  0.9916
 6798TIP3    H141953   5.691   1.400   3.320  3.3605 -4.4440  0.2180
 6798TIP3    H241954   5.778   1.498   3.244 -0.6030 -0.6228  0.1908
 6799TIP3   OH241955   4.737   0.114   1.244  0.4402  0.4893  0.0133
 6799TIP3    H141956   4.740   0.086   1.153 -0.9729 -1.4330  0.4949
 6799TIP3    H241957   4.674   0.186   1.245 -0.7889 -0.5480 -0.3168
 6800TIP3   OH241958   1.161   4.075   3.149 -0.6155  0.2542 -0.5932
 6800TIP3    H141959   1.108   4.033   3.082 -1.3493  1.4687 -0.7970
 6800TIP3    H241960   1.111   4.064   3.230  0.0432 -0.7923 -0.3045
 6801TIP3   OH241961   4.481   5.082   2.300 -0.4764  0.4731  0.2306
 6801TIP3    H141962   4.457   5.073   2.393 -1.5582  0.2004 -0.0606
 6801TIP3    H241963   4.476   4.993   2.266  0.2438  0.5272 -0.0194
 6802TIP3   OH241964   6.492   0.498   2.227 -0.5374 -0.2836 -0.3998
 6802TIP3    H141965   6.418   0.535   2.180 -1.3824 -2.1556 -0.6329
 6802TIP3    H241966   6.566   0.554   2.203 -1.7973  1.4500 -0.3812
 6803TIP3   OH241967   1.893   4.049   3.613 -0.4398 -0.2107  0.1025
 6803TIP3    H141968   1.887   4.137   3.650 -1.9784 -0.5286  0.6812
 6803TIP3    H241969   1.803   4.017   3.611  0.1438 -2.0511  0.6079
 6804TIP3   OH241970   5.319   0.186   1.241  0.0074 -0.4217  0.4515
 6804TIP3    H141971   5.320   0.091   1.241 -0.5094 -0.4274  0.2753
 6804TIP3    H241972   5.260   0.210   1.170  2.3826  0.0744 -1.5107
 6805TIP3   OH241973   2.510   1.111   4.053 -0.0748 -0.3006  0.5389
 6805TIP3    H141974   2.600   1.078   4.052 -0.7965 -2.3927  0.2153
 6805TIP3    H241975   2.468   1.067   3.980 -1.9082 -0.9605  1.9253
 6806TIP3   OH241976   5.132   0.641   4.066 -0.1067 -0.5789  0.0409
 6806TIP3    H141977   5.109   0.614   3.977 -0.0126  0.7653 -0.4265
 6806TIP3    H241978   5.097   0.573   4.123  1.4442 -2.4495 -1.1230
 6807TIP3   OH241979   0.372   4.050   2.055 -0.3828 -0.1668  0.5241
 6807TIP3    H141980   0.313   3.976   2.064  0.3599 -0.9245 -0.5575
 6807TIP3    H241981   0.428   4.027   1.981 -1.4067  2.3455 -1.1700
 6808TIP3   OH241982   4.301   2.088   1.109 -0.4071  0.4714  0.0181
 6808TIP3    H141983   4.383   2.137   1.114  0.5938 -1.1316 -0.0054
 6808TIP3    H241984   4.296   2.058   1.018 -1.9472  2.0382 -0.4557
 6809TIP3   OH241985   5.336   5.947   2.597 -0.0891 -0.6592  0.3555
 6809TIP3    H141986   5.409   5.965   2.537 -0.1576 -1.2931  0.0775
 6809TIP3    H241987   5.364   5.982   2.681  0.1809 -0.1284  0.0483
 6810TIP3   OH241988   4.457   5.870   1.847 -0.4682  0.4452 -0.0594
 6810TIP3    H141989   4.387   5.919   1.803 -2.1057  0.6938  2.6229
 6810TIP3    H241990   4.528   5.868   1.783 -1.6148  3.2701 -1.6079
 6811TIP3   OH241991   5.103   1.208   4.674 -0.2926  0.2343 -0.2658
 6811TIP3    H141992   5.185   1.160   4.667 -0.0169  0.1935  2.1686
 6811TIP3    H241993   5.042   1.145   4.712  0.2882  1.8121  3.7869
 6812TIP3   OH241994   5.539   2.514   0.072 -0.1190  0.0161 -0.0840
 6812TIP3    H141995   5.471   2.559   0.022 -0.0203 -0.0001 -0.2319
 6812TIP3    H241996   5.516   2.421   0.064  0.7828 -0.1125 -1.4160
 6813TIP3   OH241997   5.811   5.797   1.022  0.0088 -0.4258  0.4039
 6813TIP3    H141998   5.778   5.737   1.089 -0.5557 -0.3789  0.1785
 6813TIP3    H241999   5.732   5.826   0.976  0.2061  1.0293  0.9593
 6814TIP3   OH242000   1.098   4.744   1.858 -0.3118  0.1921  0.2321
 6814TIP3    H142001   1.103   4.794   1.776 -1.1596 -1.2787 -0.7717
 6814TIP3    H242002   1.179   4.693   1.860 -0.1430  0.4690  0.4783
 6815TIP3   OH242003   1.557   4.891   0.741  0.2720  0.1715 -0.1496
 6815TIP3    H142004   1.479   4.902   0.686  0.2321  0.0978 -0.1086
 6815TIP3    H242005   1.567   4.796   0.748  0.1320  0.1812  0.1796
 6816TIP3   OH242006   5.612   6.416   2.374  0.5226 -0.1474 -0.4987
 6816TIP3    H142007   5.609   6.331   2.419 -0.4200 -0.9129 -1.9012
 6816TIP3    H242008   5.533   6.461   2.404  1.6707  0.8044  1.2222
 6817TIP3   OH242009   1.304   3.102   0.948 -0.0364  0.2896  0.0691
 6817TIP3    H142010   1.367   3.133   1.012 -0.3055 -0.9631  0.9783
 6817TIP3    H242011   1.304   3.169   0.880  1.2921  0.9525  0.6872
 6818TIP3   OH242012   3.206   0.550   2.201  0.0365 -0.3755 -0.1861
 6818TIP3    H142013   3.131   0.609   2.196 -0.0777 -0.4388  0.7062
 6818TIP3    H242014   3.278   0.604   2.233  0.1639 -0.5055 -0.2480
 6819TIP3   OH242015   3.606   5.858   2.682 -0.0430  0.3712 -0.8014
 6819TIP3    H142016   3.673   5.915   2.645  0.1729  0.1493 -0.7531
 6819TIP3    H242017   3.599   5.885   2.773 -2.5061  2.7975 -1.5637
 6820TIP3   OH242018   4.485   1.258   2.352 -0.5514  0.1856  0.5203
 6820TIP3    H142019   4.483   1.177   2.403 -1.5896  0.2028  0.5187
 6820TIP3    H242020   4.565   1.251   2.300 -1.0969 -1.2537 -0.1531
 6821TIP3   OH242021   0.658   0.918   0.406 -0.2175  0.2954 -0.5178
 6821TIP3    H142022   0.605   0.850   0.449 -1.7208  2.4332  1.2308
 6821TIP3    H242023   0.598   0.959   0.343 -0.4860  2.2436  0.9323
 6822TIP3   OH242024   0.782   0.273   4.163 -0.4716  0.2372  0.6171
 6822TIP3    H142025   0.795   0.279   4.258  0.9097 -0.3460  0.4809
 6822TIP3    H242026   0.818   0.188   4.139 -0.0878  0.7205 -0.5525
 6823TIP3   OH242027   2.179   5.033   1.100 -0.1067 -0.5049  0.5504
 6823TIP3    H142028   2.148   5.078   1.178 -2.1199 -0.0651 -0.4514
 6823TIP3    H242029   2.246   5.091   1.064  0.7237 -0.6351  1.8347
 6824TIP3   OH242030   6.626   4.100   3.733  0.3024  0.1781 -0.4033
 6824TIP3    H142031   6.533   4.087   3.755  0.1543  0.3761 -0.9017
 6824TIP3    H242032   6.672   4.089   3.816  0.1031 -2.5087 -0.5640
 6825TIP3   OH242033   2.652   2.751   4.140 -0.5526 -0.0320  0.0819
 6825TIP3    H142034   2.716   2.782   4.076  0.2146 -2.1171 -0.2472
 6825TIP3    H242035   2.686   2.782   4.224  0.5014 -0.4490 -0.1736
 6826TIP3   OH242036   1.399   1.606   2.365  0.5143  0.2798  0.1287
 6826TIP3    H142037   1.398   1.521   2.410  1.2834  0.6255  0.8088
 6826TIP3    H242038   1.406   1.670   2.435  0.3165  0.9003 -0.4103
 6827TIP3   OH242039   5.149   3.872   3.965 -0.4054  0.2682  0.9938
 6827TIP3    H142040   5.149   3.806   4.035 -0.9343 -0.8249  0.0067
 6827TIP3    H242041   5.057   3.885   3.944 -0.2748  0.9559  0.8208
 6828TIP3   OH242042   2.075   4.238   1.326  0.4543 -0.6938 -0.1256
 6828TIP3    H142043   2.075   4.202   1.415  1.7047  1.0046  0.6129
 6828TIP3    H242044   2.166   4.261   1.309 -0.0167  0.4870 -1.2285
 6829TIP3   OH242045   6.875   6.298   1.343  0.2873  0.4920  0.5556
 6829TIP3    H142046   6.823   6.312   1.422  0.0642  0.8865  0.3431
 6829TIP3    H242047   6.922   6.381   1.330  0.6000  0.3047  0.4776
 6830TIP3   OH242048   3.053   3.744   1.121  0.2256  0.0417 -0.0215
 6830TIP3    H142049   3.010   3.671   1.077  0.4361 -0.7616  1.0822
 6830TIP3    H242050   3.145   3.720   1.122  0.0519 -0.7170  2.2217
 6831TIP3   OH242051   5.583   4.752   0.916  0.1177 -0.0642  0.1472
 6831TIP3    H142052   5.581   4.777   1.008 -0.0786  1.0078 -0.1416
 6831TIP3    H242053   5.671   4.774   0.887  0.4798 -1.2300  0.2808
 6832TIP3   OH242054   2.138   3.253   0.744 -0.2290 -0.0111 -0.3214
 6832TIP3    H142055   2.059   3.201   0.756 -0.9635  0.5471 -2.2972
 6832TIP3    H242056   2.147   3.262   0.649  2.0736  0.1725 -0.1396
 6833TIP3   OH242057   1.223   1.031   3.078  0.0699  0.8482  0.0515
 6833TIP3    H142058   1.214   1.113   3.029  0.1034  1.8307  1.6040
 6833TIP3    H242059   1.133   1.004   3.097  0.0220 -0.1263 -1.4398
 6834TIP3   OH242060   4.091   3.099   0.608  0.1258  0.0555  0.0431
 6834TIP3    H142061   4.138   3.169   0.654 -0.9453  1.5219 -0.9809
 6834TIP3    H242062   4.149   3.077   0.534 -0.2731  1.1267 -0.6236
 6835TIP3   OH242063   0.212   5.099   1.226 -0.4714 -0.5368  0.0425
 6835TIP3    H142064   0.148   5.116   1.157 -0.8676  0.6654  0.6777
 6835TIP3    H242065   0.292   5.076   1.179 -1.0989 -1.1011 -0.7779
 6836TIP3   OH242066   5.070   0.484   3.841  0.5764  0.1569 -0.5782
 6836TIP3    H142067   5.158   0.508   3.812  0.5589  2.1147  0.7623
 6836TIP3    H242068   5.056   0.396   3.807  1.7095  1.0522 -3.7908
 6837TIP3   OH242069   5.445   3.997   1.155  0.2839  0.4131  0.4722
 6837TIP3    H142070   5.440   3.909   1.118 -0.3853  0.1042  1.2681
 6837TIP3    H242071   5.362   4.008   1.202  1.4927  0.3527  2.7881
 6838TIP3   OH242072   3.144   6.748   1.743  0.8049  0.4297 -0.7679
 6838TIP3    H142073   3.176   6.788   1.824  1.9919 -1.0757 -0.4610
 6838TIP3    H242074   3.150   6.654   1.758  1.1393  0.1135 -2.6438
 6839TIP3   OH242075   4.333   4.720   3.308 -0.1258 -0.4304  0.9004
 6839TIP3    H142076   4.354   4.686   3.395  0.1780 -0.4175  0.8362
 6839TIP3    H242077   4.239   4.710   3.299 -0.1084 -0.7714  1.0887
 6840TIP3   OH242078   0.018   2.987   2.473  0.2249 -0.2142 -0.4779
 6840TIP3    H142079   0.007   2.935   2.393 -0.2514 -2.4967  0.9656
 6840TIP3    H242080  -0.069   3.025   2.488  0.6784  1.4426 -1.7652
 6841TIP3   OH242081   6.140   6.480   2.279 -0.1265  0.3107  0.1865
 6841TIP3    H142082   6.050   6.483   2.312 -0.7831 -3.4000 -0.7898
 6841TIP3    H242083   6.186   6.424   2.342  0.9841  0.5529 -0.3971
 6842TIP3   OH242084   0.961   2.550   3.425 -0.0122  0.2557 -0.5387
 6842TIP3    H142085   0.899   2.478   3.435 -1.0847  1.4051  2.2044
 6842TIP3    H242086   1.017   2.545   3.503  0.8034  1.5341 -0.9996
 6843TIP3   OH242087   1.360   1.214   1.444  0.1378 -0.0295  0.0451
 6843TIP3    H142088   1.366   1.228   1.349  2.7545  1.2387  0.3202
 6843TIP3    H242089   1.411   1.284   1.482 -1.1864 -0.2847  2.4785
 6844TIP3   OH242090   0.625   6.905   3.604 -0.1122 -0.3972 -0.3076
 6844TIP3    H142091   0.677   6.954   3.541 -2.8170  0.7555 -1.8212
 6844TIP3    H242092   0.628   6.958   3.684  1.3694 -0.6238 -0.1796
 6845TIP3   OH242093   4.956   5.051   1.960 -0.5790 -0.2032 -0.5660
 6845TIP3    H142094   4.890   5.066   2.027 -0.0613  0.5007 -0.2035
 6845TIP3    H242095   5.028   5.007   2.006 -0.6269 -0.5985 -0.8666
 6846TIP3   OH242096   1.055   0.858   3.708 -0.4201  0.1674  0.4141
 6846TIP3    H142097   1.100   0.891   3.786  0.6668 -1.4948  0.5380
 6846TIP3    H242098   0.965   0.892   3.716 -0.1955  0.4562  2.1181
 6847TIP3   OH242099   5.385   6.735   0.872  0.2000  0.3915 -0.1375
 6847TIP3    H142100   5.337   6.785   0.938  0.1197  0.2760 -0.1071
 6847TIP3    H242101   5.474   6.729   0.907  0.6058  1.8254 -0.8679
 6848TIP3   OH242102   2.742   2.311   4.752 -0.2479 -0.3710 -0.0581
 6848TIP3    H142103   2.662   2.323   4.803  0.9942 -1.0952  2.2050
 6848TIP3    H242104   2.750   2.391   4.700 -2.8723 -0.6642 -1.0832
 6849TIP3   OH242105   0.349   2.540   3.770  0.3072  0.4702  0.3914
 6849TIP3    H142106   0.379   2.487   3.696  3.0749  0.3568  1.4832
 6849TIP3    H242107   0.339   2.628   3.733 -1.3805 -0.1517 -0.7497
 6850TIP3   OH242108   6.117   3.998   2.665  0.5808 -0.1789 -0.3722
 6850TIP3    H142109   6.139   3.943   2.589  0.5162 -1.1913  0.3194
 6850TIP3    H242110   6.024   3.981   2.680  0.7223 -0.4013  0.2616
 6851TIP3   OH242111   0.526   4.629   1.597 -0.0766  0.1160 -0.0183
 6851TIP3    H142112   0.452   4.602   1.543  1.1208  0.3315 -1.8354
 6851TIP3    H242113   0.602   4.626   1.539  1.4693 -0.5607  1.9042
 6852TIP3   OH242114   0.403   1.998   1.656 -0.2188 -0.7997 -0.2700
 6852TIP3    H142115   0.452   1.963   1.731  0.1728 -2.1240 -1.1124
 6852TIP3    H242116   0.326   2.038   1.695  1.4651  1.3292  1.1012
 6853TIP3   OH242117   6.357   4.649   0.563  0.4571 -0.3769 -0.4080
 6853TIP3    H142118   6.371   4.675   0.472  0.6240 -0.8987 -0.5307
 6853TIP3    H242119   6.267   4.677   0.582  0.0001 -1.3020 -1.1003
 6854TIP3   OH242120   6.205   2.756   2.391 -0.2815  0.5700  0.2711
 6854TIP3    H142121   6.117   2.723   2.373 -0.1197  0.4485 -0.3344
 6854TIP3    H242122   6.239   2.781   2.305  1.4989 -2.4480 -0.0607
 6855TIP3   OH242123   4.883   3.940   2.531  0.1249 -0.4941 -0.0701
 6855TIP3    H142124   4.848   3.903   2.612 -0.3112 -0.3556 -0.1930
 6855TIP3    H242125   4.815   3.925   2.466  0.3234 -0.2862 -0.3299
 6856TIP3   OH242126   1.211   2.905   2.256 -0.3386  0.2274 -0.7512
 6856TIP3    H142127   1.283   2.902   2.319  0.4733 -0.2349 -1.6669
 6856TIP3    H242128   1.254   2.923   2.172 -1.4034  0.8854 -1.1687
 6857TIP3   OH242129   5.968   6.631   4.081  0.1777 -0.3400 -0.4804
 6857TIP3    H142130   5.979   6.549   4.033  0.4956 -2.1531  2.4308
 6857TIP3    H242131   6.058   6.659   4.101  0.0480 -0.3052  0.0816
 6858TIP3   OH242132   3.959   3.781   0.756 -0.0104  0.3270 -0.6749
 6858TIP3    H142133   4.026   3.843   0.784 -0.1132 -0.4066  1.3280
 6858TIP3    H242134   4.005   3.697   0.750 -0.7261 -0.1943  0.7867
 6859TIP3   OH242135   1.969   2.382   3.700 -0.1755  0.3977 -0.6166
 6859TIP3    H142136   2.048   2.407   3.748 -0.6284  1.5919 -0.4597
 6859TIP3    H242137   1.944   2.461   3.652 -0.9663 -0.1320 -1.1065
 6860TIP3   OH242138   4.623   6.269   2.233  0.4101 -0.1437 -0.5628
 6860TIP3    H142139   4.671   6.219   2.299  1.3525 -0.0379 -1.1506
 6860TIP3    H242140   4.690   6.325   2.193 -0.0403 -0.5639 -1.9434
 6861TIP3   OH242141   2.849   6.203   0.766  0.1108  0.3731 -0.3384
 6861TIP3    H142142   2.903   6.231   0.841  0.3388  0.8683 -0.6833
 6861TIP3    H242143   2.766   6.249   0.777 -0.0007  0.1322 -0.1712
 6862TIP3   OH242144   6.127   1.468   4.568 -0.5274  0.3314  0.1048
 6862TIP3    H142145   6.052   1.433   4.617 -0.4913  0.4995  0.2793
 6862TIP3    H242146   6.143   1.554   4.606 -1.5946  1.2089 -1.3577
 6863TIP3   OH242147   4.256   4.396   3.381 -0.0207  0.2409 -0.5460
 6863TIP3    H142148   4.176   4.403   3.433 -0.1236  0.2079 -0.6993
 6863TIP3    H242149   4.239   4.322   3.322  0.1358  0.2126 -0.5549
 6864TIP3   OH242150   4.829   0.571   2.685 -0.1688  0.3742  0.2574
 6864TIP3    H142151   4.823   0.477   2.667  0.9843  0.2237  0.5857
 6864TIP3    H242152   4.876   0.607   2.610 -0.5412  0.6746  0.1692
 6865TIP3   OH242153   5.791   1.265   1.540  0.4973 -0.3073  0.2896
 6865TIP3    H142154   5.878   1.303   1.552 -0.2326  1.7631 -0.4045
 6865TIP3    H242155   5.798   1.213   1.460  1.1777 -0.4225  0.4200
 6866TIP3   OH242156   1.721   6.454   0.415  0.6868 -0.0967 -0.0058
 6866TIP3    H142157   1.674   6.537   0.421 -0.2923 -0.4715 -1.8697
 6866TIP3    H242158   1.702   6.409   0.497 -1.3185  0.2495 -0.2298
 6867TIP3   OH242159   1.741   0.779   1.317  0.0255 -0.8258  0.0203
 6867TIP3    H142160   1.660   0.807   1.359  0.0813  0.3138 -0.6182
 6867TIP3    H242161   1.796   0.749   1.390 -0.5444 -0.5544  0.5681
 6868TIP3   OH242162   0.587   2.941   3.623  0.3169  0.1529 -0.5564
 6868TIP3    H142163   0.553   2.890   3.697  0.3344  2.7933  1.3880
 6868TIP3    H242164   0.670   2.976   3.654  0.4426  1.1329 -1.9170
 6869TIP3   OH242165   4.305   4.164   1.820  0.7161  0.4338  0.0791
 6869TIP3    H142166   4.348   4.158   1.906  0.1645  0.7319  0.3837
 6869TIP3    H242167   4.254   4.083   1.813 -0.4553  1.0760  0.7232
 6870TIP3   OH242168   5.609   3.744   3.289  0.1439  0.3368  0.5315
 6870TIP3    H142169   5.687   3.750   3.345  0.4007  1.4781  0.0733
 6870TIP3    H242170   5.642   3.757   3.200 -0.1411 -2.2563 -0.0339
 6871TIP3   OH242171   3.087   0.542   3.398  0.4406 -0.2428  0.6289
 6871TIP3    H142172   3.132   0.626   3.404 -0.8071  0.4332  0.8402
 6871TIP3    H242173   3.023   0.544   3.469 -1.9742  0.1164 -1.4008
 6872TIP3   OH242174   3.766   0.461   3.786 -0.1017 -0.0412 -0.2677
 6872TIP3    H142175   3.788   0.468   3.879 -1.6001  2.1569  0.0011
 6872TIP3    H242176   3.705   0.387   3.781  0.4171 -0.5277  0.3866
 6873TIP3   OH242177   5.889   4.334   2.872  0.3809 -0.5380  0.2961
 6873TIP3    H142178   5.863   4.306   2.784  0.7723 -0.2613  0.0862
 6873TIP3    H242179   5.943   4.262   2.905 -1.7647 -1.7904  1.3140
 6874TIP3   OH242180   1.570   6.433   1.565  0.1052 -0.2280  0.2538
 6874TIP3    H142181   1.525   6.495   1.509  1.4399  0.5186 -0.0405
 6874TIP3    H242182   1.640   6.484   1.606 -0.4018 -0.9213  2.0724
 6875TIP3   OH242183   4.352   0.888   4.237  0.3268  0.2944  0.3200
 6875TIP3    H142184   4.317   0.801   4.257  1.4698 -0.6068 -1.3239
 6875TIP3    H242185   4.437   0.890   4.281  0.2811  0.6011  0.3928
 6876TIP3   OH242186   2.623   4.291   3.997  0.2231  0.2617  0.0732
 6876TIP3    H142187   2.635   4.271   3.904 -2.7423 -0.4497 -0.2842
 6876TIP3    H242188   2.529   4.307   4.005  0.5966  1.5852  2.7577
 6877TIP3   OH242189   1.356   2.229   1.655 -0.0384 -0.3013 -0.4323
 6877TIP3    H142190   1.333   2.219   1.563 -0.8297 -0.0598 -0.2666
 6877TIP3    H242191   1.446   2.197   1.660  0.6251  1.2771 -1.5963
 6878TIP3   OH242192   5.609   2.032   2.111 -0.4927  0.0704 -0.2152
 6878TIP3    H142193   5.653   2.105   2.153 -0.9205  1.0214 -1.3562
 6878TIP3    H242194   5.547   2.073   2.051 -2.1950 -1.2212  0.5728
 6879TIP3   OH242195   5.135   4.000   0.647  0.1951  0.2499  0.8918
 6879TIP3    H142196   5.102   3.913   0.669 -3.3465  0.6287 -1.9248
 6879TIP3    H242197   5.197   3.984   0.576  0.0591 -0.0582  0.8377
 6880TIP3   OH242198   0.283   4.401   3.182 -0.4305  0.6247  0.0160
 6880TIP3    H142199   0.345   4.343   3.226 -0.7452  0.2960  0.0279
 6880TIP3    H242200   0.276   4.476   3.241  0.1045  0.7521 -0.0808
 6881TIP3   OH242201   0.402   4.868   1.396 -0.3870  0.6120 -0.4806
 6881TIP3    H142202   0.455   4.809   1.342 -1.0076  0.3218 -0.7855
 6881TIP3    H242203   0.466   4.920   1.445  0.1767 -0.2835 -0.2402
 6882TIP3   OH242204   5.819   3.697   2.481  0.2313 -0.3883 -0.0424
 6882TIP3    H142205   5.772   3.737   2.408  0.3966 -0.6112 -0.2723
 6882TIP3    H242206   5.909   3.689   2.450  0.4557  0.1723  0.4469
 6883TIP3   OH242207   1.451   6.415   3.552  0.4080 -0.1793  0.4537
 6883TIP3    H142208   1.467   6.409   3.458 -0.6980  3.4174 -0.1161
 6883TIP3    H242209   1.528   6.375   3.592  1.4469 -0.8005 -1.9771
 6884TIP3   OH242210   5.228   0.874   4.255  0.1512  0.0003 -0.2519
 6884TIP3    H142211   5.281   0.816   4.310 -0.8660  1.0522  2.0088
 6884TIP3    H242212   5.205   0.821   4.179  0.9866 -1.8371  0.7078
 6885TIP3   OH242213   4.220   6.505   1.519 -0.6573 -0.2765  0.0696
 6885TIP3    H142214   4.203   6.512   1.613  1.4512  0.3367  0.4818
 6885TIP3    H242215   4.212   6.595   1.487  0.4309 -0.1660  0.0589
 6886TIP3   OH242216   0.601   2.472   1.637  0.1981  0.1148  0.4742
 6886TIP3    H142217   0.556   2.415   1.575 -1.3227 -0.6615  2.2018
 6886TIP3    H242218   0.587   2.560   1.603 -1.6586 -0.2013  0.3053
 6887TIP3   OH242219   3.473   2.515   1.083  0.2618  0.3378  0.7206
 6887TIP3    H142220   3.536   2.447   1.110 -2.3383 -2.3673  0.4978
 6887TIP3    H242221   3.458   2.566   1.163  0.7478 -0.6911  1.5020
 6888TIP3   OH242222   3.123   0.753   4.511 -0.3622 -0.2319 -0.1762
 6888TIP3    H142223   3.094   0.686   4.449  0.8248 -0.1991 -0.8040
 6888TIP3    H242224   3.046   0.773   4.563 -0.4572 -3.0828  0.9738
 6889TIP3   OH242225   5.478   4.452   0.863  0.5965  0.0615 -0.1290
 6889TIP3    H142226   5.542   4.411   0.922  0.0393 -0.8670 -0.1453
 6889TIP3    H242227   5.493   4.546   0.873  0.7661 -0.0880  1.2169
 6890TIP3   OH242228   2.351   3.444   4.287  0.3889  0.9804 -0.4662
 6890TIP3    H142229   2.430   3.496   4.273  1.2867  0.0596  0.8996
 6890TIP3    H242230   2.381   3.353   4.284 -0.6898  0.6009 -0.2606
 6891TIP3   OH242231   0.557   0.474   3.146 -0.0851 -0.0607 -0.0585
 6891TIP3    H142232   0.538   0.556   3.192  0.8954  0.5000 -0.6288
 6891TIP3    H242233   0.621   0.430   3.202 -1.1424 -0.7921  0.6100
 6892TIP3   OH242234   4.838   0.445   3.522 -0.2272  0.1779  0.1705
 6892TIP3    H142235   4.818   0.355   3.496 -0.6957  0.4378 -0.3809
 6892TIP3    H242236   4.757   0.476   3.563  0.5402 -0.2818  2.1444
 6893TIP3   OH242237   4.092   2.279   0.830  0.0295 -0.2553 -0.1273
 6893TIP3    H142238   4.153   2.330   0.776 -1.3039 -0.0234 -1.4923
 6893TIP3    H242239   4.123   2.189   0.822 -0.4887 -0.3339 -1.8972
 6894TIP3   OH242240   0.121   3.150   1.131  0.2962  0.1368  0.4457
 6894TIP3    H142241   0.068   3.199   1.067 -1.0649 -0.4952  1.0412
 6894TIP3    H242242   0.057   3.115   1.193  1.3106 -1.5713  0.5923
 6895TIP3   OH242243   4.162   5.964   3.658 -0.1087  0.1853  0.0340
 6895TIP3    H142244   4.073   5.933   3.646 -0.6697  2.1384 -1.5067
 6895TIP3    H242245   4.206   5.944   3.575 -0.2685  2.5813 -0.7028
 6896TIP3   OH242246   0.811   4.872   1.879  0.1244  0.6648 -0.7232
 6896TIP3    H142247   0.775   4.953   1.915  1.5713  1.4235 -0.9666
 6896TIP3    H242248   0.874   4.843   1.945 -0.7243 -0.5467 -0.4056
 6897TIP3   OH242249   2.059   5.017   1.726  0.0261 -0.4605  0.4444
 6897TIP3    H142250   2.016   4.948   1.676  0.4224 -0.3370 -0.0663
 6897TIP3    H242251   2.113   5.064   1.662 -1.4688  1.3459  0.4002
 6898TIP3   OH242252   4.133   0.646   2.081  0.5494  0.2319  0.3662
 6898TIP3    H142253   4.069   0.653   2.152  0.3317 -0.4492  0.2373
 6898TIP3    H242254   4.104   0.710   2.016 -0.4861 -0.6461 -0.0596
 6899TIP3   OH242255   2.795   6.687   2.461 -0.5140 -0.3966  0.5451
 6899TIP3    H142256   2.857   6.724   2.524  0.9759 -1.5906 -0.1399
 6899TIP3    H242257   2.728   6.646   2.516  0.0212 -0.2340  1.3479
 6900TIP3   OH242258   3.507   4.213   1.787 -0.0455 -0.1317 -0.0463
 6900TIP3    H142259   3.595   4.212   1.826  0.3647  0.8118 -0.8913
 6900TIP3    H242260   3.462   4.284   1.833 -0.5520 -0.9317  0.7302
 6901TIP3   OH242261   0.767   3.328   1.645 -0.1134  0.1515 -0.3058
 6901TIP3    H142262   0.829   3.382   1.595  1.6564 -0.7562  0.7962
 6901TIP3    H242263   0.689   3.324   1.589 -0.4519  3.9092 -0.3751
 6902TIP3   OH242264   3.249   6.556   2.579 -0.6262 -0.0941 -0.7991
 6902TIP3    H142265   3.251   6.476   2.632 -1.7095  0.4158  0.0502
 6902TIP3    H242266   3.223   6.625   2.641 -2.2871  0.4632 -2.0621
 6903TIP3   OH242267   2.109   0.683   8.465 -0.3339 -0.2177  0.1017
 6903TIP3    H142268   2.125   0.659   8.556  1.5073 -0.2076 -0.1885
 6903TIP3    H242269   2.092   0.600   8.421 -0.2485 -0.3267  0.2709
 6904TIP3   OH242270   3.211   6.872   1.984 -0.0270  0.3097 -0.1140
 6904TIP3    H142271   3.277   6.873   2.053 -0.2087  1.8758  0.0688
 6904TIP3    H242272   3.183   6.963   1.976 -1.9224 -0.2577 -0.4458
 6905TIP3   OH242273   6.401   2.561   4.457 -0.4041 -0.2854  0.6937
 6905TIP3    H142274   6.412   2.616   4.535 -1.3446  2.2239 -0.8276
 6905TIP3    H242275   6.317   2.587   4.421 -0.3286 -1.9210 -0.7966
 6906TIP3   OH242276   4.895   5.542   3.036 -0.2640 -0.9069 -0.3720
 6906TIP3    H142277   4.841   5.566   2.961  1.8652 -0.7050 -1.9187
 6906TIP3    H242278   4.967   5.604   3.036  1.9697 -3.3045 -0.6713
 6907TIP3   OH242279   6.028   0.155   1.087  0.2390  0.0730 -0.0308
 6907TIP3    H142280   6.029   0.059   1.077  2.6416 -0.1815  1.4932
 6907TIP3    H242281   5.940   0.175   1.118 -0.9385 -1.3535 -2.1727
 6908TIP3   OH242282   0.991   2.659   3.145  0.2449  0.5042  0.3735
 6908TIP3    H142283   0.971   2.616   3.229 -0.9362 -0.0915 -0.1822
 6908TIP3    H242284   0.907   2.657   3.098  0.1532  3.3760  0.2835
 6909TIP3   OH242285   2.950   3.491   3.096 -0.4630 -0.2354 -1.1907
 6909TIP3    H142286   3.033   3.531   3.120  0.1208 -1.4014 -1.2134
 6909TIP3    H242287   2.904   3.559   3.046  0.3722  0.4895 -0.9940
 6910TIP3   OH242288   4.400   3.454   3.304  0.1115  0.1132  0.0239
 6910TIP3    H142289   4.394   3.397   3.227  0.8168  0.3519 -0.2175
 6910TIP3    H242290   4.423   3.394   3.376  1.4203  0.1412 -0.3346
 6911TIP3   OH242291   1.481   2.196   4.742 -0.4270  0.1742 -0.3610
 6911TIP3    H142292   1.526   2.277   4.717 -2.7997  1.3927 -0.9045
 6911TIP3    H242293   1.495   2.189   4.836  0.2779  0.8924 -0.3963
 6912TIP3   OH242294   4.920   0.795   2.517  0.0598 -0.0098  0.1663
 6912TIP3    H142295   5.004   0.753   2.502  0.2533 -0.2645  1.7686
 6912TIP3    H242296   4.881   0.805   2.430  1.0502 -1.3161 -0.4442
 6913TIP3   OH242297   4.972   3.563   3.093 -0.0295 -0.8519  0.2876
 6913TIP3    H142298   4.990   3.618   3.168  2.0541 -1.3838  0.2353
 6913TIP3    H242299   4.897   3.509   3.119 -0.1815 -0.0886  1.4515
 6914TIP3   OH242300   1.075   6.754   2.092  0.3156 -0.5997 -0.7550
 6914TIP3    H142301   1.154   6.801   2.117 -0.3078  1.1176 -1.8255
 6914TIP3    H242302   1.040   6.721   2.175  1.3285 -0.0335 -0.0796
 6915TIP3   OH242303   3.226   4.513   1.218  0.4525 -0.2088 -0.3020
 6915TIP3    H142304   3.139   4.500   1.257  0.6653  0.0331  0.2758
 6915TIP3    H242305   3.250   4.428   1.183  1.6324 -1.4088  2.9873
 6916TIP3   OH242306   1.809   4.382   2.513  0.0304 -0.7749  0.7665
 6916TIP3    H142307   1.787   4.322   2.583 -1.1399 -0.3833  0.7549
 6916TIP3    H242308   1.743   4.366   2.445  2.4025 -2.7529 -1.3017
 6917TIP3   OH242309   2.128   5.389   0.240  0.2690 -0.7396 -0.7896
 6917TIP3    H142310   2.077   5.310   0.256 -0.9924  0.2361  0.1979
 6917TIP3    H242311   2.217   5.366   0.266 -0.6524 -0.8981  2.6229
 6918TIP3   OH242312   2.914   6.788   1.469  0.0124 -0.1281 -0.3578
 6918TIP3    H142313   2.949   6.823   1.387 -1.3976  1.9586 -0.1566
 6918TIP3    H242314   2.837   6.842   1.487  1.0511  0.4807  3.0696
 6919TIP3   OH242315   3.534   6.038   3.975  0.6815  0.2070 -0.6094
 6919TIP3    H142316   3.525   5.962   4.032  0.3752  0.2686 -0.5719
 6919TIP3    H242317   3.594   6.096   4.022  0.0891  0.4461 -0.1424
 6920TIP3   OH242318   0.867   3.320   2.904 -0.0592 -0.1782 -0.2574
 6920TIP3    H142319   0.813   3.287   2.833  0.9043 -1.6396 -0.3566
 6920TIP3    H242320   0.918   3.244   2.933  1.1573  0.8948  0.5360
 6921TIP3   OH242321   2.128   1.143   4.248 -0.4116  0.0608 -0.0746
 6921TIP3    H142322   2.090   1.057   4.269  0.4725  0.1221  1.9729
 6921TIP3    H242323   2.123   1.192   4.329 -0.2586  1.7368 -1.0385
 6922TIP3   OH242324   5.159   5.125   0.413 -0.6269  0.0050  0.0065
 6922TIP3    H142325   5.225   5.057   0.395  1.0258  1.7370 -0.8988
 6922TIP3    H242326   5.208   5.196   0.454 -1.4047  2.2102 -2.5309
 6923TIP3   OH242327   0.769   2.968   1.542 -0.1464 -0.0780  0.3006
 6923TIP3    H142328   0.840   2.996   1.600  0.2664  1.1033 -0.7254
 6923TIP3    H242329   0.809   2.965   1.455 -1.5084  1.4304 -0.4342
 6924TIP3   OH242330   3.039   3.000   1.502  0.3362 -0.0745 -0.4230
 6924TIP3    H142331   3.074   2.916   1.532 -0.3900 -0.6126 -1.0341
 6924TIP3    H242332   3.115   3.057   1.493  1.0937 -1.2446 -1.8171
 6925TIP3   OH242333   1.534   5.500   0.237  0.4389  0.2578  0.2080
 6925TIP3    H142334   1.493   5.579   0.273 -0.1064 -0.3345  0.9308
 6925TIP3    H242335   1.596   5.533   0.172 -0.4688  1.2318 -0.2053
 6926TIP3   OH242336   0.437   2.805   1.152 -0.0364  0.1278  0.2569
 6926TIP3    H142337   0.459   2.728   1.204  3.1238  0.7771  0.1085
 6926TIP3    H242338   0.513   2.819   1.096 -1.7375  1.6770 -1.8519
 6927TIP3   OH242339   5.154   4.225   2.032 -0.2704 -0.4017  0.2122
 6927TIP3    H142340   5.154   4.309   1.985  1.2881 -0.2858  0.3829
 6927TIP3    H242341   5.085   4.175   1.988 -2.4006  1.4922  1.1577
 6928TIP3   OH242342   5.836   5.666   4.333  0.0024  0.4220 -0.1113
 6928TIP3    H142343   5.810   5.574   4.347 -1.3326  1.0538  2.0943
 6928TIP3    H242344   5.788   5.692   4.254 -1.6044 -0.1256  0.6351
 6929TIP3   OH242345   0.747   4.612   1.445 -0.3738 -0.0068  0.3609
 6929TIP3    H142346   0.813   4.680   1.436  0.1885 -0.6770 -0.8310
 6929TIP3    H242347   0.786   4.548   1.505  0.2850 -0.6331 -0.7084
 6930TIP3   OH242348   5.487   6.731   3.574 -0.2162  0.3052  0.2323
 6930TIP3    H142349   5.525   6.751   3.659 -0.5756  0.5098  0.3492
 6930TIP3    H242350   5.558   6.690   3.524 -1.0381 -3.9136  2.0584
 6931TIP3   OH242351   5.033   5.948   3.998 -0.2938 -0.1764 -0.4604
 6931TIP3    H142352   5.053   5.985   3.913  1.1025  1.2173  0.4318
 6931TIP3    H242353   5.116   5.950   4.046 -1.4317  0.8956  1.5831
 6932TIP3   OH242354   6.349   1.512   0.735 -0.2609  0.4189 -0.3806
 6932TIP3    H142355   6.408   1.443   0.703 -1.4942 -0.8407 -0.0399
 6932TIP3    H242356   6.342   1.496   0.829 -1.4423  0.2847 -0.4714
 6933TIP3   OH242357   2.389   1.609   0.943 -0.3136  0.5832  0.8687
 6933TIP3    H142358   2.397   1.529   0.996 -1.2678  0.0589  0.2554
 6933TIP3    H242359   2.460   1.604   0.880 -1.8677 -1.1535 -0.8844
 6934TIP3   OH242360   5.232   0.346   0.689 -0.7344  0.1365  0.0648
 6934TIP3    H142361   5.140   0.330   0.670 -1.0449 -1.0297  2.1863
 6934TIP3    H242362   5.255   0.279   0.753  1.0665  1.5590  1.0153
 6935TIP3   OH242363   1.087   5.627   2.968  0.3050 -0.8053 -0.3670
 6935TIP3    H142364   1.028   5.573   2.915 -1.2251 -0.8784  1.3020
 6935TIP3    H242365   1.121   5.566   3.034 -0.6374  0.0137  0.9071
 6936TIP3   OH242366   2.076   1.938   3.127  0.0287  0.3314 -0.0251
 6936TIP3    H142367   2.113   1.870   3.071  1.2944  1.4399 -0.5749
 6936TIP3    H242368   2.152   1.982   3.165 -0.7754  1.2370  0.5768
 6937TIP3   OH242369   2.018   3.466   4.079  0.3375 -0.1772  0.0354
 6937TIP3    H142370   1.924   3.479   4.075  0.5437  1.3517 -0.8458
 6937TIP3    H242371   2.044   3.502   4.164  0.3964  1.7456 -0.7481
 6938TIP3   OH242372   4.503   0.269   1.203  0.0978  0.2682 -0.7205
 6938TIP3    H142373   4.487   0.314   1.286  1.2543  0.0193 -0.3397
 6938TIP3    H242374   4.437   0.304   1.143 -0.1727  1.1232  0.0515
 6939TIP3   OH242375   3.359   1.598   2.121 -0.7325 -0.0774  0.3927
 6939TIP3    H142376   3.289   1.564   2.177  0.4344 -1.5570  1.0422
 6939TIP3    H242377   3.434   1.610   2.180  0.0396 -0.1077 -0.5455
 6940TIP3   OH242378   0.217   5.687   1.493  0.0275 -0.2596  0.0842
 6940TIP3    H142379   0.298   5.735   1.480 -0.3364  0.4485  0.4175
 6940TIP3    H242380   0.244   5.605   1.534  0.4217  0.6633  1.7574
 6941TIP3   OH242381   3.271   2.139   3.740  0.3725  0.1102  0.1755
 6941TIP3    H142382   3.326   2.064   3.761  2.7408  1.7036  0.1095
 6941TIP3    H242383   3.295   2.206   3.805 -1.8944  0.7583  0.4454
 6942TIP3   OH242384   4.218   4.978   0.780 -0.0166  0.2369 -0.2709
 6942TIP3    H142385   4.136   4.998   0.735 -0.4576  1.5536  1.0371
 6942TIP3    H242386   4.267   4.922   0.718 -1.6543 -0.1403 -1.2792
 6943TIP3   OH242387   5.359   5.634   0.650  0.8002 -0.2272 -0.2759
 6943TIP3    H142388   5.365   5.602   0.560 -0.4553 -1.7246  0.1422
 6943TIP3    H242389   5.294   5.705   0.646  0.6908 -0.3403 -0.5211
 6944TIP3   OH242390   3.606   0.359   3.291  0.5801  0.5645  0.1833
 6944TIP3    H142391   3.698   0.342   3.270  0.2057  1.9907 -3.1969
 6944TIP3    H242392   3.607   0.442   3.340  1.1121  0.0116  1.1462
 6945TIP3   OH242393   0.962   2.793   1.906  0.0355 -0.1516  0.1523
 6945TIP3    H142394   0.956   2.777   2.001  1.7032  1.1911  0.5413
 6945TIP3    H242395   0.902   2.866   1.891  0.4022  0.1918  0.3380
 6946TIP3   OH242396   0.022   4.556   3.077 -0.6306 -0.5427 -0.0492
 6946TIP3    H142397   0.064   4.563   2.992 -2.6453  2.0255 -0.9867
 6946TIP3    H242398   0.031   4.643   3.115 -1.1950 -1.1934  1.6575
 6947TIP3   OH242399   5.683   2.770   3.038  0.1957  0.2299 -0.0268
 6947TIP3    H142400   5.723   2.857   3.038 -1.9112  1.2623 -0.7297
 6947TIP3    H242401   5.664   2.752   3.129  0.7510  0.4374  0.1363
 6948TIP3   OH242402   5.898   1.617   1.378  0.1819  0.2223 -0.4260
 6948TIP3    H142403   5.894   1.625   1.474 -2.0398 -0.2434 -0.4393
 6948TIP3    H242404   5.984   1.579   1.361  1.1346  1.4428  1.2768
 6949TIP3   OH242405   1.064   4.347   4.554  0.1562  0.3711  0.0497
 6949TIP3    H142406   1.124   4.286   4.597  0.4945 -0.8018 -1.9700
 6949TIP3    H242407   0.983   4.298   4.540  0.4987  0.2355 -1.7809
 6950TIP3   OH242408   1.928   1.780   3.695  0.5645 -0.0831  0.0353
 6950TIP3    H142409   2.005   1.782   3.638  1.5332 -0.1701  1.3041
 6950TIP3    H242410   1.890   1.693   3.682  0.3617  0.1526 -0.9936
 6951TIP3   OH242411   5.171   1.612   2.887 -0.0338  0.0579 -0.1897
 6951TIP3    H142412   5.159   1.681   2.823  0.6674  0.0430 -0.3505
 6951TIP3    H242413   5.150   1.652   2.971 -0.0470  0.3415 -0.3300
 6952TIP3   OH242414   3.637   1.442   2.602 -0.0504  0.7108  0.0329
 6952TIP3    H142415   3.607   1.532   2.614  1.5088  1.1239  1.1538
 6952TIP3    H242416   3.701   1.429   2.672 -2.0270 -2.1073  1.4885
 6953TIP3   OH242417   1.037   1.301   0.209  0.1392  0.2039  0.0927
 6953TIP3    H142418   1.113   1.345   0.171  0.6445 -1.1153 -0.4515
 6953TIP3    H242419   1.039   1.327   0.302  0.5130  1.1791 -0.1720
 6954TIP3   OH242420   6.282   1.833   3.822  0.6034  0.2526  0.4587
 6954TIP3    H142421   6.295   1.868   3.734  0.6865  0.6668  0.6321
 6954TIP3    H242422   6.367   1.797   3.846 -0.0527 -2.1971 -0.6211
 6955TIP3   OH242423   0.751   5.606   3.081  0.2234 -0.1565 -0.0232
 6955TIP3    H142424   0.796   5.644   3.156  1.9368 -1.9948 -0.0560
 6955TIP3    H242425   0.699   5.679   3.046  0.9420  1.2814  1.7175
 6956TIP3   OH242426   1.792   1.773   0.500  0.6982  0.2178  0.0783
 6956TIP3    H142427   1.851   1.775   0.425  1.7412  3.0159  0.8503
 6956TIP3    H242428   1.840   1.727   0.568  0.3681 -0.9550 -0.4588
 6957TIP3   OH242429   0.093   0.155   1.546 -0.2387 -0.3681  0.1083
 6957TIP3    H142430   0.170   0.210   1.528 -1.5349  0.9175 -1.8949
 6957TIP3    H242431   0.054   0.193   1.624  1.2083 -1.1620  1.2769
 6958TIP3   OH242432   5.388   4.214   3.096  0.3286 -0.7570  0.1705
 6958TIP3    H142433   5.452   4.207   3.167  0.9544  0.7862 -0.2003
 6958TIP3    H242434   5.430   4.170   3.022  0.6198 -0.4909  0.1709
 6959TIP3   OH242435   5.025   1.682   2.275 -0.1673  0.2145 -0.5637
 6959TIP3    H142436   4.960   1.705   2.209  0.6075 -0.3746 -1.5731
 6959TIP3    H242437   5.050   1.592   2.253 -0.0365 -0.0719  0.6705
 6960TIP3   OH242438   5.999   5.072   4.009  0.0059  0.0519  0.0530
 6960TIP3    H142439   6.012   5.136   3.939  0.6239 -0.8750 -0.7019
 6960TIP3    H242440   6.029   4.989   3.972 -1.8097 -0.9168  0.6306
 6961TIP3   OH242441   2.419   0.969   3.653 -0.2927  0.1355  0.0774
 6961TIP3    H142442   2.481   1.042   3.666  0.4291 -0.5356  0.5185
 6961TIP3    H242443   2.472   0.899   3.616 -0.3490 -1.0756  2.1357
 6962TIP3   OH242444   2.649   4.620   2.896  0.5031 -0.2614 -0.6105
 6962TIP3    H142445   2.732   4.580   2.868  1.1336 -1.0514  2.0754
 6962TIP3    H242446   2.625   4.572   2.975 -2.3320  0.2671 -1.0418
 6963TIP3   OH242447   6.809   4.351   1.504 -0.2795 -0.0390  0.2950
 6963TIP3    H142448   6.717   4.377   1.492  0.1503  1.2882 -0.3059
 6963TIP3    H242449   6.855   4.388   1.429  0.8462 -0.2394  0.8567
 6964TIP3   OH242450   2.424   1.408   1.144  0.2842  0.3767 -0.3306
 6964TIP3    H142451   2.512   1.427   1.177 -0.4205  1.5604  0.9721
 6964TIP3    H242452   2.430   1.318   1.112  1.0460 -1.0042  3.2326
 6965TIP3   OH242453   2.347   5.199   0.913  0.7050 -0.1869 -0.6048
 6965TIP3    H142454   2.335   5.112   0.875  1.8446 -0.4526 -0.3970
 6965TIP3    H242455   2.324   5.260   0.843  3.1403 -0.6581 -1.9137
 6966TIP3   OH242456   2.435   1.364   3.450 -0.5536  0.4479 -0.0832
 6966TIP3    H142457   2.512   1.348   3.505 -0.2720 -0.9130 -0.8335
 6966TIP3    H242458   2.363   1.371   3.512 -0.6654 -3.5154  0.5092
 6967TIP3   OH242459   4.695   3.434   3.158  0.4874  0.0112  0.3381
 6967TIP3    H142460   4.699   3.342   3.181  0.1751  0.0096  0.3985
 6967TIP3    H242461   4.700   3.436   3.063 -0.2084 -0.1202  0.2905
 6968TIP3   OH242462   4.619   6.608   0.979 -1.0144 -0.4454 -0.5192
 6968TIP3    H142463   4.621   6.574   1.069 -1.8356  1.5247  0.3009
 6968TIP3    H242464   4.549   6.558   0.937 -1.7078 -0.3126  0.4336
 6969TIP3   OH242465   5.683   4.506   2.926 -0.1787 -1.0781 -0.4693
 6969TIP3    H142466   5.659   4.500   3.018 -0.1241 -0.1153 -0.3766
 6969TIP3    H242467   5.752   4.440   2.914  2.7193  1.3974  1.1661
 6970TIP3   OH242468   4.227   1.471   1.241 -0.1568  0.3044 -0.4822
 6970TIP3    H142469   4.220   1.496   1.149 -0.2997 -2.2119 -1.2246
 6970TIP3    H242470   4.318   1.494   1.264  0.4174 -0.5435 -1.7658
 6971TIP3   OH242471   4.277   2.215   0.207  0.6725  0.4363 -0.0160
 6971TIP3    H142472   4.212   2.251   0.146  0.1481 -0.8139 -0.2110
 6971TIP3    H242473   4.316   2.142   0.161  1.6844  0.6895  0.4069
 6972TIP3   OH242474   6.267   3.305   2.406 -0.3422  0.3388  0.3891
 6972TIP3    H142475   6.279   3.370   2.336 -1.5306  0.2059  0.0441
 6972TIP3    H242476   6.314   3.228   2.375  2.2235  1.3913  1.3950
 6973TIP3   OH242477   5.116   2.750   0.690  1.0105  0.1260  0.0320
 6973TIP3    H142478   5.137   2.837   0.657  1.0167  0.0295 -0.2199
 6973TIP3    H242479   5.094   2.699   0.612 -0.2088  0.2368  0.2838
 6974TIP3   OH242480   3.336   2.955   3.437  0.4506 -0.1039  0.6668
 6974TIP3    H142481   3.318   3.021   3.370 -1.6653  1.8879  2.9677
 6974TIP3    H242482   3.409   2.992   3.487 -0.5335  0.4076  1.7717
 6975TIP3   OH242483   5.127   4.416   1.070  0.2710 -0.0888  0.5370
 6975TIP3    H142484   5.117   4.485   1.005  0.0770 -0.7216 -0.1121
 6975TIP3    H242485   5.171   4.345   1.023 -3.4704 -2.2198 -0.1697
 6976TIP3   OH242486   4.017   0.955   2.197  0.8360  0.1609  0.4945
 6976TIP3    H142487   3.974   0.878   2.160  2.4393 -0.6758  0.2889
 6976TIP3    H242488   3.945   1.009   2.231 -0.3445 -1.2490  0.3292
 6977TIP3   OH242489   6.027   1.235   1.352  0.6924  0.2134  0.0465
 6977TIP3    H142490   6.094   1.167   1.353  1.1733  0.6770  1.0635
 6977TIP3    H242491   6.037   1.278   1.267  1.1966 -0.1879 -0.1018
 6978TIP3   OH242492   4.050   3.191   3.134  0.7571  0.2776 -0.1214
 6978TIP3    H142493   4.034   3.284   3.116 -0.4414  0.3586  1.2221
 6978TIP3    H242494   4.054   3.185   3.229  0.4116 -1.1228 -0.1744
 6979TIP3   OH242495   2.130   4.405   2.676  0.1498  0.3917 -0.2834
 6979TIP3    H142496   2.209   4.437   2.720  0.1140 -0.0521  0.1094
 6979TIP3    H242497   2.075   4.483   2.664  1.1099  0.9135 -1.5701
 6980TIP3   OH242498   2.676   3.880   1.289  0.4683 -0.3568 -0.0912
 6980TIP3    H142499   2.647   3.800   1.244 -1.6610 -1.1166  2.3739
 6980TIP3    H242500   2.752   3.852   1.341 -0.6294 -1.0231  1.2287
 6981TIP3   OH242501   0.064   5.449   1.236 -0.0352 -0.1887  0.4257
 6981TIP3    H142502   0.024   5.367   1.266 -1.0257  0.0179 -0.2880
 6981TIP3    H242503   0.046   5.512   1.306  0.3439 -0.4617  0.7755
 6982TIP3   OH242504   0.013   4.820   4.210 -0.5873  0.2994 -0.4150
 6982TIP3    H142505  -0.007   4.887   4.144  0.6926  0.9539 -0.1807
 6982TIP3    H242506  -0.019   4.857   4.292  0.3228  0.7554 -0.2490
 6983TIP3   OH242507   5.728   4.662   1.209 -1.0616 -1.0676 -0.3860
 6983TIP3    H142508   5.745   4.577   1.248  1.4134 -0.1646  0.7203
 6983TIP3    H242509   5.788   4.666   1.134 -0.3926  0.0402  0.1771
 6984TIP3   OH242510   3.245   2.625   4.010  0.3043 -0.1688  0.1166
 6984TIP3    H142511   3.231   2.578   3.927  1.1580  0.5584 -0.4678
 6984TIP3    H242512   3.172   2.686   4.016 -0.9081 -1.6399  0.9654
 6985TIP3   OH242513   1.803   1.119   4.213  0.1021 -0.0619  0.0120
 6985TIP3    H142514   1.875   1.085   4.266 -0.4746 -0.1114  0.7820
 6985TIP3    H242515   1.762   1.185   4.269 -1.3705 -1.0825  0.1989
 6986TIP3   OH242516   4.634   3.300   2.659  0.2711 -0.1437 -0.2623
 6986TIP3    H142517   4.551   3.284   2.614 -0.0938  0.4841  0.1699
 6986TIP3    H242518   4.695   3.239   2.619 -0.6647 -1.4025  0.1638
 6987TIP3   OH242519   3.618   2.003   0.995  0.2088 -0.7402 -0.5997
 6987TIP3    H142520   3.605   1.933   1.058  1.3274 -0.7393 -0.3469
 6987TIP3    H242521   3.680   1.968   0.932  0.2282 -0.2271 -0.8779
 6988TIP3   OH242522   4.230   2.863   3.855  0.0599  0.3479 -0.7767
 6988TIP3    H142523   4.279   2.945   3.851 -0.6104  0.7475 -1.1925
 6988TIP3    H242524   4.276   2.804   3.796 -0.2479  0.8919 -1.5829
 6989TIP3   OH242525   3.763   6.763   2.388  0.1370  0.3315 -0.4039
 6989TIP3    H142526   3.781   6.670   2.400  1.2893  0.4577 -1.0300
 6989TIP3    H242527   3.679   6.777   2.433 -0.3661 -1.1245 -0.8277
 6990TIP3   OH242528   0.170   0.195   1.255 -0.3130  0.6348 -0.4548
 6990TIP3    H142529   0.101   0.130   1.254 -1.0325  1.3815 -0.6216
 6990TIP3    H242530   0.251   0.145   1.246 -0.9272 -0.1270 -2.0911
 6991TIP3   OH242531   4.388   5.941   2.968 -0.4669 -0.3152 -0.0574
 6991TIP3    H142532   4.305   5.894   2.965 -0.9179  0.1156  2.7755
 6991TIP3    H242533   4.437   5.908   2.892 -2.4339 -2.0428 -0.6772
 6992TIP3   OH242534   3.331   0.711   3.046  0.0666 -0.5363 -0.2501
 6992TIP3    H142535   3.280   0.638   3.082  0.8423 -0.3893  1.2372
 6992TIP3    H242536   3.352   0.766   3.121  2.1757 -0.4547 -0.8150
 6993TIP3   OH242537   1.258   4.541   3.485  0.0618 -0.4506  0.7522
 6993TIP3    H142538   1.256   4.453   3.447 -0.1023  0.2537 -0.9424
 6993TIP3    H242539   1.185   4.542   3.547  0.0078 -1.4655  0.7280
 6994TIP3   OH242540   1.024   1.399   2.122 -0.3563 -0.0576 -0.1154
 6994TIP3    H142541   1.100   1.353   2.087  0.3557  1.5087 -0.6947
 6994TIP3    H242542   1.061   1.468   2.177 -1.3998 -0.1836  0.7732
 6995TIP3   OH242543   2.358   0.979   2.278  0.4033 -0.9400 -0.4250
 6995TIP3    H142544   2.386   1.062   2.316 -0.4589 -0.2088 -1.3360
 6995TIP3    H242545   2.417   0.966   2.204  0.6698 -1.2564 -0.1612
 6996TIP3   OH242546   6.403   6.139   4.161  0.2543 -0.6217  0.3560
 6996TIP3    H142547   6.312   6.125   4.134 -0.3247  2.7828  0.0714
 6996TIP3    H242548   6.404   6.122   4.255 -0.0788 -2.9282 -0.0193
 6997TIP3   OH242549   1.387   3.837   4.153 -0.2601 -0.3944  0.3702
 6997TIP3    H142550   1.479   3.838   4.177 -0.0809  0.9143 -0.2699
 6997TIP3    H242551   1.345   3.894   4.217  0.1136  2.5576 -1.7464
 6998TIP3   OH242552   5.189   5.166   3.651  0.3591  0.1226 -0.3160
 6998TIP3    H142553   5.155   5.139   3.566  2.1652  0.6695 -1.2561
 6998TIP3    H242554   5.212   5.258   3.639 -0.8901  0.6917  1.2848
 6999TIP3   OH242555   4.136   5.302   3.108 -0.6112 -0.3071 -0.4289
 6999TIP3    H142556   4.054   5.315   3.155 -0.5723  0.3952 -0.5497
 6999TIP3    H242557   4.116   5.329   3.018 -0.1692  0.1510 -0.3928
 7000TIP3   OH242558   1.754   4.360   1.222 -0.2812 -0.1028  0.3328
 7000TIP3    H142559   1.808   4.402   1.289 -0.5645  2.5174 -0.9457
 7000TIP3    H242560   1.664   4.376   1.252 -0.3992 -1.1896  0.5859
 7001TIP3   OH242561   5.941   0.354   3.538  0.5268 -0.4390 -0.2540
 7001TIP3    H142562   5.977   0.275   3.578 -1.1911 -1.8063 -1.2653
 7001TIP3    H242563   5.856   0.365   3.580 -0.3593 -0.6455 -1.9222
 7002TIP3   OH242564   2.214   0.179   1.404 -0.1565  0.0610 -0.2164
 7002TIP3    H142565   2.191   0.095   1.364  2.3482 -0.8116 -0.0063
 7002TIP3    H242566   2.282   0.215   1.346 -0.9579  1.8046 -0.1287
 7003TIP3   OH242567   3.845   1.734   0.725 -0.7230 -0.3472 -0.6269
 7003TIP3    H142568   3.880   1.770   0.643 -0.4964 -1.4578 -1.0375
 7003TIP3    H242569   3.755   1.766   0.728 -0.1658  1.3388 -0.2959
 7004TIP3   OH242570   2.785   6.651   0.735  0.2607 -0.0878  0.2924
 7004TIP3    H142571   2.812   6.728   0.784  0.8780  0.1162 -0.3434
 7004TIP3    H242572   2.844   6.649   0.659  0.6848 -1.5384  0.6242
 7005TIP3   OH242573   1.341   0.605   2.385  0.0378  0.8178 -0.1574
 7005TIP3    H142574   1.259   0.563   2.358  0.0110  0.9467 -0.2768
 7005TIP3    H242575   1.329   0.623   2.478 -0.1888  1.1117 -0.2414
 7006TIP3   OH242576   6.630   2.068   1.071 -0.2010 -0.5330  0.2359
 7006TIP3    H142577   6.612   2.117   0.991 -0.4864  0.8405  1.1096
 7006TIP3    H242578   6.544   2.035   1.099 -0.1101 -0.9631  0.0187
 7007TIP3   OH242579   3.934   0.524   3.596 -0.2595 -0.0910 -0.5483
 7007TIP3    H142580   3.973   0.607   3.625 -1.7073  0.5678 -0.4161
 7007TIP3    H242581   3.891   0.489   3.673  1.3140 -1.5968 -0.2903
 7008TIP3   OH242582   2.456   6.302   0.948  0.1191  0.5237 -0.7132
 7008TIP3    H142583   2.456   6.318   1.042 -0.3021  1.0876 -0.8098
 7008TIP3    H242584   2.528   6.356   0.914 -0.0076  0.6562 -0.7718
 7009TIP3   OH242585   1.367   2.307   2.353  0.3580  0.2495  0.9297
 7009TIP3    H142586   1.282   2.342   2.327 -0.8874 -1.7822  2.0733
 7009TIP3    H242587   1.415   2.384   2.385  0.0361  1.9070 -2.2040
 7010TIP3   OH242588   2.217   3.612   2.102  0.2889 -0.1202  0.3243
 7010TIP3    H142589   2.181   3.681   2.157 -0.1629  0.8294 -1.1030
 7010TIP3    H242590   2.288   3.654   2.053 -0.3500 -0.4824 -0.9679
 7011TIP3   OH242591   4.465   1.955   2.772 -0.3416  1.0629 -0.5513
 7011TIP3    H142592   4.505   1.871   2.750 -3.1443 -1.2032  2.2187
 7011TIP3    H242593   4.379   1.953   2.731 -2.0519  0.6541  2.7404
 7012TIP3   OH242594   2.395   0.759   8.476 -0.4309  0.2205 -0.5138
 7012TIP3    H142595   2.302   0.739   8.466 -0.7437  0.7354  0.9799
 7012TIP3    H242596   2.430   0.687   8.528  0.1289 -0.2251 -1.4949
 7013TIP3   OH242597   0.298   2.415   4.774  0.5136  0.0537 -0.0185
 7013TIP3    H142598   0.319   2.415   4.868 -0.1363 -0.8772  0.1335
 7013TIP3    H242599   0.347   2.341   4.738  0.3982  0.1265 -0.3275
 7014TIP3   OH242600   4.693   0.027   1.668  0.1753 -0.3460 -0.3624
 7014TIP3    H142601   4.633   0.094   1.635 -0.3062  0.1472  1.3599
 7014TIP3    H242602   4.778   0.050   1.631 -0.3058  0.2199 -1.1394
 7015TIP3   OH242603   0.949   3.212   2.589  0.0275 -0.3610 -0.2917
 7015TIP3    H142604   0.955   3.166   2.672  0.2680  0.8868  0.4154
 7015TIP3    H242605   1.037   3.206   2.552  0.6601  1.3018  0.8194
 7016TIP3   OH242606   5.362   0.141   0.861 -0.0524 -0.5943 -0.2440
 7016TIP3    H142607   5.271   0.136   0.831 -0.4002  0.1136  0.6431
 7016TIP3    H242608   5.357   0.188   0.944  1.3514  1.4371 -1.2168
 7017TIP3   OH242609   4.239   4.902   3.768 -0.2025 -0.7132  0.5462
 7017TIP3    H142610   4.176   4.831   3.784 -0.5249 -0.5753 -0.0770
 7017TIP3    H242611   4.184   4.979   3.752  0.0207 -0.9942 -2.0036
 7018TIP3   OH242612   3.316   1.397   4.603  0.1255 -0.8325  0.3771
 7018TIP3    H142613   3.314   1.318   4.549  0.5741 -0.2254 -0.5420
 7018TIP3    H242614   3.347   1.466   4.545 -0.8381  0.1640  0.9991
 7019TIP3   OH242615   2.982   5.930   1.733  0.5205 -0.0913  0.3980
 7019TIP3    H142616   2.900   5.885   1.754 -0.2019  0.4788 -1.0263
 7019TIP3    H242617   3.002   5.981   1.811 -1.0220  0.4945  0.4549
 7020TIP3   OH242618   6.910   5.864   3.552  0.2638  0.0419 -0.0219
 7020TIP3    H142619   6.820   5.833   3.545 -0.0306 -0.4705  4.0492
 7020TIP3    H242620   6.902   5.958   3.570  0.5619  0.0246  0.2079
 7021TIP3   OH242621   1.380   6.124   2.250  0.5806 -0.3501 -0.5753
 7021TIP3    H142622   1.437   6.192   2.285  1.3617 -0.6470 -1.2415
 7021TIP3    H242623   1.334   6.090   2.327  1.7452 -0.5144  0.0718
 7022TIP3   OH242624   4.937   0.084   1.574  0.3639 -0.7399 -0.5281
 7022TIP3    H142625   4.942   0.018   1.504  1.7242 -1.2091 -0.0258
 7022TIP3    H242626   5.026   0.118   1.581 -0.1167  0.4750 -0.1134
 7023TIP3   OH242627   5.061   1.121   3.455 -0.1665 -0.5282  0.1126
 7023TIP3    H142628   4.972   1.094   3.434  0.0917 -1.3055 -0.0035
 7023TIP3    H242629   5.056   1.149   3.547 -1.3372  3.0711 -0.8964
 7024TIP3   OH242630   5.742   4.031   2.437  0.7317  0.4202  0.3520
 7024TIP3    H142631   5.834   4.029   2.411  0.7341 -0.0048  0.3946
 7024TIP3    H242632   5.693   4.005   2.359  0.7488 -1.0127  0.7904
 7025TIP3   OH242633   3.895   6.362   1.399 -0.0169 -0.0013 -0.1683
 7025TIP3    H142634   3.834   6.310   1.451 -1.3551 -0.2299 -1.8686
 7025TIP3    H242635   3.859   6.360   1.310  1.8584  0.8266 -1.0186
 7026TIP3   OH242636   3.266   4.988   1.430  0.4313  0.1168 -0.4010
 7026TIP3    H142637   3.206   4.968   1.358 -1.4658 -3.1800  1.8418
 7026TIP3    H242638   3.309   4.905   1.448  2.2026  1.3115  1.1502
 7027TIP3   OH242639   0.360   6.766   4.036 -0.2731  0.6599 -0.5717
 7027TIP3    H142640   0.333   6.717   4.113  0.1353  2.0864  0.5261
 7027TIP3    H242641   0.442   6.725   4.008 -0.9316 -0.4918 -0.8774
 7028TIP3   OH242642   4.525   4.940   0.699 -0.1456 -0.2696 -0.3851
 7028TIP3    H142643   4.478   4.958   0.617 -1.1587 -0.0813  0.2327
 7028TIP3    H242644   4.458   4.941   0.767  1.0329  2.3330  0.8624
 7029TIP3   OH242645   6.040   4.380   2.470 -0.4712 -0.2523  0.2366
 7029TIP3    H142646   5.946   4.373   2.484 -0.4823 -0.0880  0.2524
 7029TIP3    H242647   6.054   4.473   2.450 -0.6513 -0.6807 -2.1934
 7030TIP3   OH242648   4.312   3.485   4.662 -0.1853  0.2578 -0.1326
 7030TIP3    H142649   4.288   3.563   4.711 -0.2831  0.5748 -0.6703
 7030TIP3    H242650   4.386   3.513   4.608  0.2692 -0.2334  0.2272
 7031TIP3   OH242651   6.882   1.914   4.496  0.2203 -0.1319  0.2932
 7031TIP3    H142652   6.864   1.986   4.436 -0.7910 -0.6759 -0.0901
 7031TIP3    H242653   6.920   1.846   4.440 -1.6209 -1.0062  0.0378
 7032TIP3   OH242654   5.487   0.064   2.209  0.4554  0.1384 -0.1472
 7032TIP3    H142655   5.447   0.071   2.296 -0.7977 -0.2145 -0.6730
 7032TIP3    H242656   5.513   0.153   2.188  0.0392  0.3614  0.2600
 7033TIP3   OH242657   0.934   5.447   2.812  0.3610 -0.3516  0.6304
 7033TIP3    H142658   0.865   5.507   2.783  0.0017 -2.3387 -3.2245
 7033TIP3    H242659   0.888   5.377   2.857  0.3019  0.0274  1.1750
 7034TIP3   OH242660   3.843   3.382   4.141 -0.4125 -0.3900  0.0674
 7034TIP3    H142661   3.901   3.316   4.180 -1.5286 -1.0159  0.7305
 7034TIP3    H242662   3.786   3.332   4.083  1.4833  0.5862 -2.8149
 7035TIP3   OH242663   4.155   6.102   2.761 -0.0358  0.8191  0.2536
 7035TIP3    H142664   4.086   6.038   2.743 -1.0419  1.5063  1.4668
 7035TIP3    H242665   4.225   6.080   2.700 -1.3652  0.1574 -1.1078
 7036TIP3   OH242666   2.422   4.230   2.257  0.3778  0.6185  0.2207
 7036TIP3    H142667   2.424   4.240   2.352  0.0898 -0.1273  0.3190
 7036TIP3    H242668   2.499   4.277   2.226  0.8526  0.2993  0.8858
 7037TIP3   OH242669   5.260   3.749   2.971  0.2254  0.1437  0.3523
 7037TIP3    H142670   5.237   3.840   2.954  0.0285 -0.2602 -1.8286
 7037TIP3    H242671   5.257   3.741   3.067  0.6710  2.5048  0.6184
 7038TIP3   OH242672   3.148   0.053   3.361  0.2120 -0.3176 -0.1073
 7038TIP3    H142673   3.221   0.112   3.345  0.3746 -1.3174 -3.8847
 7038TIP3    H242674   3.070   0.109   3.357  0.5174  0.0565 -0.9032
 7039TIP3   OH242675   4.928   6.610   3.230  0.0304  0.2072 -0.0296
 7039TIP3    H142676   4.975   6.634   3.150 -0.5428 -0.4228 -0.5763
 7039TIP3    H242677   4.847   6.660   3.226 -1.5803 -2.3131 -1.6270
 7040TIP3   OH242678   1.110   1.820   4.515 -0.0502 -0.7394 -0.2734
 7040TIP3    H142679   1.115   1.869   4.597  1.7980 -0.8785 -0.2549
 7040TIP3    H242680   1.091   1.886   4.449  1.9508 -0.0066 -0.1823
 7041TIP3   OH242681   1.513   3.496   3.536  0.2210 -0.4152 -0.3191
 7041TIP3    H142682   1.446   3.535   3.593  1.2367  0.4673  0.2976
 7041TIP3    H242683   1.463   3.459   3.463 -1.0680 -1.2418  0.9420
 7042TIP3   OH242684   5.008   6.119   1.919 -0.2620  0.4591  0.4136
 7042TIP3    H142685   5.075   6.186   1.903 -0.8575  1.1426  0.7288
 7042TIP3    H242686   5.032   6.082   2.004  0.5612 -0.3354 -0.1536
 7043TIP3   OH242687   1.026   1.052   3.494  0.5226  0.0148 -0.3335
 7043TIP3    H142688   1.083   1.129   3.501 -1.0938  1.2915 -0.4956
 7043TIP3    H242689   1.056   0.993   3.563 -0.3643  2.3183  2.2042
 7044TIP3   OH242690   4.757   5.898   2.777  0.0229  0.0327  0.0792
 7044TIP3    H142691   4.788   5.949   2.852  1.5244 -0.8625  0.1138
 7044TIP3    H242692   4.787   5.809   2.794  1.2011 -0.0406 -1.9908
 7045TIP3   OH242693   0.927   6.509   3.888  0.2030  0.2016  0.2112
 7045TIP3    H142694   0.973   6.541   3.965  0.5387  1.2310 -0.3949
 7045TIP3    H242695   0.840   6.485   3.920  1.1388 -1.8428  1.3911
 7046TIP3   OH242696   0.289   0.726   3.102  0.1686  0.3220  0.1866
 7046TIP3    H142697   0.292   0.701   3.194  0.5015 -0.2241  0.0329
 7046TIP3    H242698   0.203   0.767   3.091 -1.2370 -2.4705  0.0319
 7047TIP3   OH242699   2.798   5.337   3.223 -0.0150  0.5815 -0.3205
 7047TIP3    H142700   2.777   5.423   3.187  1.8009  2.1890  2.1107
 7047TIP3    H242701   2.823   5.284   3.147  0.6798  2.7939 -1.7201
 7048TIP3   OH242702   1.231   2.551   2.727 -0.8987 -0.0002  0.1186
 7048TIP3    H142703   1.173   2.565   2.803 -0.9263  1.2048 -0.1074
 7048TIP3    H242704   1.174   2.566   2.652 -0.2886  1.2629 -0.1061
 7049TIP3   OH242705   6.383   3.497   4.985  0.1568  0.2446  0.0978
 7049TIP3    H142706   6.380   3.575   4.929 -0.1706  0.4852  0.4473
 7049TIP3    H242707   6.300   3.452   4.967 -0.3951  0.8245  1.0955
 7050TIP3   OH242708   2.847   0.130   2.916  0.1264  0.1012  0.6977
 7050TIP3    H142709   2.906   0.089   2.854 -0.2545  0.5489  0.0240
 7050TIP3    H242710   2.817   0.058   2.973  0.3786 -0.3319  0.2837
 7051TIP3   OH242711   1.807   5.811   1.491 -0.1964  0.2022 -0.2807
 7051TIP3    H142712   1.751   5.845   1.561  0.7517  0.1810  0.5134
 7051TIP3    H242713   1.772   5.849   1.411 -0.5123  1.2819  0.3501
 7052TIP3   OH242714   4.056   3.848   4.176  0.0853  0.0682 -0.3069
 7052TIP3    H142715   3.967   3.865   4.145 -0.2411 -1.6380 -0.3999
 7052TIP3    H242716   4.074   3.758   4.150  2.3455  0.7671 -1.4630
 7053TIP3   OH242717   6.584   2.562   2.497 -0.1859  0.1434 -0.3841
 7053TIP3    H142718   6.564   2.468   2.493  0.0509  0.1345 -2.1560
 7053TIP3    H242719   6.677   2.568   2.476  0.1575  0.6799  1.2117
 7054LIG     O142720   3.978   2.229   6.130  0.5602 -0.2797  0.3477
 7054LIG     O242721   4.027   2.008   6.241  0.0936  0.3727 -0.1585
 7054LIG     O342722   3.793   2.257   6.365  0.4518 -0.0243  0.2403
 7054LIG     O442723   4.213   1.893   6.326 -0.5257 -0.2422  0.3014
 7054LIG     O542724   3.925   2.011   6.528  0.1058  0.2211  0.4010
 7054LIG     O642725   4.046   1.820   6.690 -0.1408  0.3277  0.4235
 7054LIG     O742726   4.337   1.794   6.649 -0.3370 -0.0720 -0.1821
 7054LIG     O842727   4.418   1.654   6.391  0.0248 -0.5066 -0.3520
 7054LIG     O942728   4.520   1.834   6.305  0.0856  0.0297 -0.0119
 7054LIG      N42729   3.804   2.087   5.690  0.3988 -0.8031  0.1554
 7054LIG     C142730   3.937   2.117   5.940 -0.0342  0.2107 -0.3632
 7054LIG     C242731   3.954   1.985   5.859  0.3114  0.1181 -0.4177
 7054LIG     C342732   4.047   2.144   6.036 -0.5489  0.4265  0.2877
 7054LIG     C442733   3.823   1.969   5.780 -0.1736  0.0328  0.0559
 7054LIG     C542734   3.910   2.237   5.848  0.7421 -0.4314 -0.3335
 7054LIG     C642735   3.813   2.110   6.023  0.2249  0.4690 -0.0905
 7054LIG     C742736   3.698   1.944   5.878  0.6499  0.0993 -0.1042
 7054LIG     C842737   3.792   2.218   5.760 -0.3501 -0.5085 -0.1570
 7054LIG     C942738   4.105   2.022   6.118 -0.4247 -0.1315 -0.2868
 7054LIG    C1042739   3.694   2.035   6.001 -0.0794 -0.7587 -0.1660
 7054LIG    C1142740   4.014   1.872   5.942  0.4436  0.0551 -0.3762
 7054LIG    C1242741   3.841   2.185   6.138  0.3163 -0.4714  0.0657
 7054LIG    C1342742   4.074   1.889   6.060  0.3464 -0.1722  0.3668
 7054LIG    C1442743   3.874   2.094   5.565  0.0937  0.5207  0.8407
 7054LIG    C1542744   3.612   2.031   6.121  0.3230  0.9716  0.1310
 7054LIG    C1642745   3.751   2.195   6.240 -0.4819  0.2055  0.1645
 7054LIG    C1742746   3.632   2.114   6.232 -0.4188 -1.0100  0.1289
 7054LIG    C1842747   4.103   1.978   6.355 -1.0684  0.4017  0.1886
 7054LIG    C1942748   4.019   1.916   6.468  0.0141  0.1907 -0.7606
 7054LIG    C2042749   4.118   1.880   6.583  0.1678  0.1619 -0.1858
 7054LIG    C2142750   4.242   1.807   6.546  0.4732  0.4899 -0.6796
 7054LIG    C2242751   4.308   1.871   6.429 -0.2884 -0.0655 -0.4147
 7054LIG    C2342752   4.429   1.786   6.371 -0.1129 -0.0024  0.4182
 7054LIG     H142753   4.028   2.017   5.782 -1.2665  1.1979 -1.5569
 7054LIG     H242754   4.138   2.191   5.994 -0.2440  0.6872  1.2074
 7054LIG     H342755   3.820   1.871   5.727 -2.3942 -0.1713  0.4510
 7054LIG     H442756   3.997   2.247   5.779  1.4993  1.1207  0.7708
 7054LIG     H542757   3.899   2.332   5.905  0.8460  1.1219 -2.7880
 7054LIG     H642758   3.698   1.835   5.898  1.8957 -0.0719 -0.9525
 7054LIG     H742759   3.607   1.967   5.819  0.6198 -0.7561 -0.3951
 7054LIG     H842760   3.710   2.235   5.833  1.0963  1.4250  1.1116
 7054LIG     H942761   3.783   2.309   5.698 -1.4233  0.4438  1.3171
 7054LIG    H1042762   4.212   2.036   6.145 -0.4605  0.0724 -0.2483
 7054LIG    H1142763   4.035   1.778   5.890  1.2937  0.2631 -0.4246
 7054LIG    H1242764   4.099   1.803   6.124 -0.0268 -0.1746  0.5081
 7054LIG    H1342765   3.846   2.003   5.508  1.4961  0.6535 -0.0969
 7054LIG    H1442766   3.984   2.104   5.572  0.4641 -3.0749  2.4272
 7054LIG    H1542767   3.829   2.175   5.503  1.3441  0.9311  0.4377
 7054LIG    H1642768   3.529   1.962   6.107 -0.1706  1.6461 -0.3446
 7054LIG    H1742769   3.560   2.123   6.312  0.5379  0.1155  0.8981
 7054LIG    H1842770   4.153   2.068   6.394  0.5514 -1.0456  1.6112
 7054LIG    H1942771   3.969   1.830   6.418  2.9725 -1.7291 -0.6328
 7054LIG    H2042772   4.150   1.974   6.633 -1.6514  0.1489  1.1487
 7054LIG    H2142773   3.884   2.286   6.357 -0.0118  1.5988  0.5070
 7054LIG    H2242774   4.206   1.707   6.515  0.5914  0.1490  0.2625
 7054LIG    H2342775   4.356   1.969   6.450  2.5958 -1.3366 -0.5243
 7054LIG    H2442776   3.859   2.038   6.464 -0.6049 -0.5881  0.7684
 7054LIG    H2542777   3.979   1.883   6.717 -1.5277 -0.3374 -1.2869
 7054LIG    H2642778   4.294   1.738   6.715 -0.6461 -1.7709 -1.7566
 7054LIG    H2742779   4.496   1.608   6.359 -0.0559  0.2080 -1.6399
   6.91237   6.91237   8.57178
