Title
42779
    1SAPS     N    1   5.170   6.549   8.299 -0.6546  0.5553 -0.1548
    1SAPS   HN1    2   5.235   6.471   8.277 -1.3938 -0.4238  0.9411
    1SAPS   HN2    3   5.119   6.575   8.213 -0.8190  2.0652  0.3742
    1SAPS   HN3    4   5.221   6.633   8.331  1.7336 -0.9383  0.2560
    1SAPS   C12    5   5.064   6.517   8.401 -0.7349  0.2312  0.3601
    1SAPS  H12A    6   5.030   6.415   8.387 -0.8380  0.4654 -1.1810
    1SAPS   C13    7   5.117   6.533   8.549 -0.4502 -0.4900 -0.0668
    1SAPS  O13A    8   5.241   6.564   8.556 -0.1410  0.1367 -0.2919
    1SAPS  O13B    9   5.061   6.471   8.644  0.2024 -0.4921 -0.1819
    1SAPS   C11   10   4.938   6.608   8.381  0.3059  0.0848 -0.4876
    1SAPS  H11A   11   4.966   6.716   8.377 -2.0221  0.8086  0.6159
    1SAPS  H11B   12   4.876   6.595   8.473  0.2035  0.9080 -0.4313
    1SAPS     P   13   4.748   6.604   8.199  0.4595  0.6416 -0.5222
    1SAPS   O13   14   4.735   6.537   8.070 -0.0843 -0.3701 -0.0028
    1SAPS   O14   15   4.632   6.595   8.292 -0.3586  0.1427  0.5030
    1SAPS   O12   16   4.876   6.559   8.262  0.2014 -0.0226 -0.2785
    1SAPS   O11   17   4.784   6.759   8.178  0.3593  0.0122  0.2072
    1SAPS    C1   18   4.871   6.805   8.074  0.2281 -0.0230 -0.5396
    1SAPS    HA   19   4.896   6.912   8.091  0.2148 -0.1642  0.4802
    1SAPS    HB   20   4.970   6.753   8.074  0.1396 -0.1960 -1.0944
    1SAPS    C2   21   4.810   6.805   7.932  0.0196 -0.9252 -0.0390
    1SAPS    HS   22   4.806   6.706   7.883  1.2671 -1.4906  0.9408
    1SAPS   O21   23   4.878   6.905   7.846  0.6139 -0.2199 -0.0798
    1SAPS   C21   24   5.004   6.870   7.812 -0.1871  0.3781  0.3898
    1SAPS   O22   25   5.064   6.768   7.845 -0.4042  0.0452 -0.0795
    1SAPS   C22   26   5.050   6.972   7.711  0.2325 -0.1129 -0.0159
    1SAPS   H2R   27   4.960   7.021   7.667 -0.8588 -0.2087  1.9976
    1SAPS   H2S   28   5.113   7.048   7.762 -0.8702  0.6845  0.1973
    1SAPS    C3   29   4.660   6.839   7.930  0.2616  0.3883  0.1133
    1SAPS    HX   30   4.641   6.915   8.008 -1.4035  0.2952 -0.1656
    1SAPS    HY   31   4.602   6.750   7.963 -0.9179  0.9608 -0.3403
    1SAPS   O31   32   4.615   6.886   7.807 -0.3721  0.4282  0.4015
    1SAPS   C31   33   4.485   6.926   7.785 -0.0813 -0.2682 -0.4126
    1SAPS   O32   34   4.394   6.902   7.857 -0.4853  0.2109 -0.1316
    1SAPS   C32   35   4.472   6.990   7.648 -0.1838 -0.2663  1.0017
    1SAPS   H2X   36   4.461   7.100   7.657  0.3824 -0.2046  0.9882
    1SAPS   H2Y   37   4.383   6.941   7.604  0.2872  0.9516 -1.4970
    1SAPS   C23   38   5.145   6.910   7.598 -0.3847  0.2367  0.1421
    1SAPS   H3R   39   5.248   6.902   7.636 -0.2271 -0.0694 -0.3345
    1SAPS   H3S   40   5.152   6.993   7.523  0.6001  0.8148  0.8552
    1SAPS   C24   41   5.089   6.774   7.537 -0.2193 -0.0602 -0.7068
    1SAPS   H4R   42   5.104   6.693   7.611  0.0730 -2.4888 -3.2178
    1SAPS   H4S   43   5.157   6.749   7.452  0.6940  1.4714 -0.4754
    1SAPS   C25   44   4.946   6.777   7.487  0.5904  0.1488  0.5437
    1SAPS   H5R   45   4.869   6.750   7.560 -1.1403 -0.3129 -1.3666
    1SAPS   C26   46   4.911   6.798   7.364  0.9859  0.0156  0.2217
    1SAPS   H6R   47   4.805   6.796   7.335  1.4395 -0.3381 -1.5355
    1SAPS   C27   48   4.996   6.821   7.244 -0.4627  0.1823 -0.7644
    1SAPS   H7R   49   5.094   6.858   7.280 -0.8141 -0.7425  1.2385
    1SAPS   H7S   50   4.960   6.900   7.174 -0.9358 -0.5015 -1.3053
    1SAPS   C28   51   5.021   6.697   7.159  0.4649 -0.4219 -0.2916
    1SAPS   H8R   52   5.053   6.601   7.202 -0.7241 -0.8445 -0.3194
    1SAPS   C29   53   5.012   6.699   7.028 -0.7689  0.3011  0.4584
    1SAPS   H9R   54   5.026   6.604   6.975  0.9844 -0.4548  2.1762
    1SAPS  C210   55   4.999   6.821   6.938  0.3895 -0.1005  0.3371
    1SAPS  H10R   56   5.039   6.911   6.989  3.2857  0.5314 -2.6543
    1SAPS  H10S   57   4.892   6.847   6.923  1.0162  1.4836 -1.9226
    1SAPS  C211   58   5.068   6.803   6.799  0.6287 -0.2060  0.1155
    1SAPS  H11R   59   5.160   6.864   6.794  2.6508 -2.9317  1.5323
    1SAPS  C212   60   5.023   6.735   6.690 -0.2967  0.4794  0.2479
    1SAPS  H12R   61   5.082   6.736   6.597 -1.7790 -0.0473 -0.7339
    1SAPS  C213   62   4.903   6.643   6.691  0.0207  0.0655  0.3713
    1SAPS  H13R   63   4.844   6.651   6.785 -1.2685 -0.0198 -0.3986
    1SAPS  H13S   64   4.942   6.541   6.712 -0.9668 -0.2016  0.9474
    1SAPS  C214   65   4.810   6.630   6.577  0.5697 -0.3891  0.0175
    1SAPS  H14R   66   4.705   6.662   6.585  1.0179  0.9754  0.6462
    1SAPS  C215   67   4.843   6.583   6.456 -0.1633  0.2435  0.0544
    1SAPS  H15R   68   4.775   6.587   6.370  1.3083  3.8582 -1.1422
    1SAPS  C216   69   4.976   6.520   6.420 -0.2491  0.4509  0.2199
    1SAPS  H16R   70   4.948   6.427   6.366 -2.8618  1.4724 -0.3276
    1SAPS  H16S   71   5.033   6.490   6.510  0.2459 -2.0687 -0.8376
    1SAPS  C217   72   5.070   6.605   6.336  0.1816  0.0206 -0.4174
    1SAPS  H17R   73   5.071   6.706   6.382  0.3917 -0.2153  0.1119
    1SAPS  H17S   74   5.039   6.612   6.230  0.7091  3.2545 -0.4433
    1SAPS  C218   75   5.210   6.542   6.331  0.8049 -1.1569  0.1275
    1SAPS  H18R   76   5.187   6.436   6.310 -1.2127 -0.8232  0.3968
    1SAPS  H18S   77   5.268   6.549   6.425 -2.3977  0.0114  2.2060
    1SAPS  C219   78   5.291   6.594   6.214 -0.1108  0.1783 -0.2317
    1SAPS  H19R   79   5.305   6.703   6.226  0.2210  0.0639  0.5055
    1SAPS  H19S   80   5.242   6.578   6.116  0.1016  0.2200 -0.3459
    1SAPS  C220   81   5.427   6.530   6.220 -0.1440 -0.4158  0.1960
    1SAPS  H20R   82   5.491   6.606   6.270 -0.1637  0.2281 -0.7369
    1SAPS  H20S   83   5.460   6.506   6.117  2.0553  0.5340  0.6242
    1SAPS  H20T   84   5.427   6.437   6.281  0.7825 -0.0767  0.7297
    1SAPS   C33   85   4.593   6.947   7.550  0.4470 -0.0159 -0.2628
    1SAPS   H3X   86   4.605   6.838   7.569  0.0700  0.1971  1.3934
    1SAPS   H3Y   87   4.681   7.011   7.573 -0.0864  0.6794 -0.0930
    1SAPS   C34   88   4.542   6.976   7.411 -0.0512  0.0600 -0.2579
    1SAPS   H4X   89   4.433   6.964   7.398  0.1858 -0.8166 -1.5851
    1SAPS   H4Y   90   4.587   6.913   7.331  1.2136  1.0710 -0.3833
    1SAPS   C35   91   4.587   7.126   7.371  0.4286  0.2942  0.2177
    1SAPS   H5X   92   4.565   7.190   7.459 -0.7750 -0.6044  0.6048
    1SAPS   H5Y   93   4.519   7.162   7.291  1.0478  0.6703 -0.1425
    1SAPS   C36   94   4.733   7.146   7.327 -0.3884 -0.9261 -0.6236
    1SAPS   H6X   95   4.798   7.105   7.407  1.8314 -2.1520 -2.9069
    1SAPS   H6Y   96   4.751   7.255   7.312 -1.3441 -0.8102 -0.9831
    1SAPS   C37   97   4.768   7.080   7.192 -0.2022 -0.2683  0.5417
    1SAPS   H7X   98   4.744   6.971   7.187  1.8773 -0.7999  1.3357
    1SAPS   H7Y   99   4.878   7.089   7.178 -0.6617  1.5752 -3.3469
    1SAPS   C38  100   4.709   7.149   7.068 -0.2379 -0.3042 -0.5877
    1SAPS   H8X  101   4.747   7.253   7.077  2.1650 -0.8748 -2.9372
    1SAPS   H8Y  102   4.598   7.161   7.069 -0.0628  1.5739  0.4248
    1SAPS   C39  103   4.759   7.088   6.927 -0.5737 -0.5010  0.3396
    1SAPS   H9X  104   4.692   7.000   6.919  0.3000 -1.2488  0.9978
    1SAPS   H9Y  105   4.864   7.054   6.915 -0.6369 -0.3552 -0.8035
    1SAPS  C310  106   4.737   7.208   6.827 -0.3452  0.1464  0.2881
    1SAPS  H10X  107   4.807   7.287   6.860  0.5914 -0.9616  1.0247
    1SAPS  H10Y  108   4.631   7.240   6.842  0.3181  2.1541  1.0672
    1SAPS  C311  109   4.767   7.162   6.679  0.4779 -0.4089 -0.4084
    1SAPS  H11X  110   4.839   7.078   6.681 -0.3793 -1.2360  3.2247
    1SAPS  H11Y  111   4.816   7.247   6.626  0.0110 -1.8702 -3.3876
    1SAPS  C312  112   4.635   7.145   6.594 -0.4488 -0.1019  0.2317
    1SAPS  H12X  113   4.566   7.230   6.610  1.1758  1.1974  0.5536
    1SAPS  H12Y  114   4.569   7.063   6.630 -1.5467  1.7650  2.7871
    1SAPS  C313  115   4.669   7.127   6.448 -0.3177  0.5140 -0.0850
    1SAPS  H13X  116   4.752   7.200   6.435  0.5682 -0.2839  0.9112
    1SAPS  H13Y  117   4.578   7.145   6.387 -0.7097  2.8201  1.0536
    1SAPS  C314  118   4.735   6.985   6.410  1.1600  0.6669  0.0959
    1SAPS  H14X  119   4.667   6.906   6.450  1.5091 -0.2905 -1.1467
    1SAPS  H14Y  120   4.828   6.975   6.469 -0.0888 -1.5409  1.8765
    1SAPS  C315  121   4.757   6.986   6.262 -0.2938 -0.4331  0.2548
    1SAPS  H15X  122   4.858   7.031   6.245 -1.1587  1.2146 -0.7522
    1SAPS  H15Y  123   4.678   7.039   6.205 -0.4956 -0.6034  0.3735
    1SAPS  C316  124   4.777   6.843   6.208  0.9314  0.3710  0.0461
    1SAPS  H16X  125   4.690   6.779   6.235  1.1745 -1.0556 -2.2978
    1SAPS  H16Y  126   4.862   6.799   6.265  0.8023 -1.6925 -1.2418
    1SAPS  C317  127   4.786   6.830   6.056 -0.7032  0.2419  0.5719
    1SAPS  H17X  128   4.812   6.931   6.017  2.4205  0.6019  3.1221
    1SAPS  H17Y  129   4.689   6.801   6.012  0.7144 -0.2734 -2.4811
    1SAPS  C318  130   4.891   6.723   6.009  0.2845  0.2994 -0.1922
    1SAPS  H18X  131   4.907   6.748   5.902 -0.4243  0.8626 -0.1771
    1SAPS  H18Y  132   4.863   6.616   6.017 -1.6498  0.6297 -1.7217
    1SAPS  H18Z  133   4.985   6.750   6.060 -1.7808  1.2693  3.4309
    2SAPS     N  134   6.366   2.125   0.414  0.1605 -0.1533 -0.2732
    2SAPS   HN1  135   6.396   2.114   0.513 -1.8197 -0.9264  0.2743
    2SAPS   HN2  136   6.271   2.167   0.409 -0.2716 -1.0665  0.1776
    2SAPS   HN3  137   6.366   2.029   0.373  0.9643  0.2052 -1.1752
    2SAPS   C12  138   6.468   2.192   0.329  0.1116 -0.4413 -0.7804
    2SAPS  H12A  139   6.485   2.285   0.380 -1.1953  0.1639 -1.4051
    2SAPS   C13  140   6.605   2.114   0.341 -0.0100 -0.2992  0.1451
    2SAPS  O13A  141   6.631   2.022   0.426 -0.5432  0.4994 -0.1687
    2SAPS  O13B  142   6.698   2.166   0.279  0.4594 -0.0474 -0.2279
    2SAPS   C11  143   6.427   2.203   0.178 -0.1957  0.8126 -0.2243
    2SAPS  H11A  144   6.427   2.106   0.123  2.0802  0.8380 -0.3473
    2SAPS  H11B  145   6.513   2.249   0.125 -1.9459  0.9357 -3.1778
    2SAPS     P  146   6.303   2.428   0.119  0.5874 -0.2055  0.0620
    2SAPS   O13  147   6.166   2.481   0.080  0.3573  0.4544 -0.2865
    2SAPS   O14  148   6.367   2.507   0.229  0.3240  0.2067  0.3084
    2SAPS   O12  149   6.303   2.281   0.157 -0.1080 -0.0422 -0.4291
    2SAPS   O11  150   6.388   2.444  -0.011 -0.9587 -0.0737 -0.0228
    2SAPS    C1  151   6.338   2.369  -0.121  0.2399 -0.2712  0.2570
    2SAPS    HA  152   6.378   2.265  -0.117 -1.4236 -0.9055  2.2006
    2SAPS    HB  153   6.227   2.364  -0.128  0.2834 -3.1867  0.4352
    2SAPS    C2  154   6.383   2.439  -0.256  0.0425 -0.1074  0.2997
    2SAPS    HS  155   6.322   2.387  -0.333  0.9743  0.8374 -1.1433
    2SAPS   O21  156   6.517   2.414  -0.281  0.4633  0.1493 -0.2037
    2SAPS   C21  157   6.574   2.387  -0.396 -0.6608  0.1054  0.1815
    2SAPS   O22  158   6.521   2.378  -0.504  0.3648  0.1081  0.4203
    2SAPS   C22  159   6.731   2.377  -0.381  0.3014  0.1092  0.8778
    2SAPS   H2R  160   6.758   2.466  -0.321  0.9111 -0.5855  1.6599
    2SAPS   H2S  161   6.758   2.285  -0.325 -2.2951 -0.3373  1.5247
    2SAPS    C3  162   6.345   2.587  -0.258 -0.2973  0.1338 -0.4495
    2SAPS    HX  163   6.413   2.641  -0.189  0.1025 -0.4806 -0.3533
    2SAPS    HY  164   6.243   2.599  -0.216  0.6641  3.0653  1.3465
    2SAPS   O31  165   6.371   2.636  -0.392  0.0690  0.1430  0.1240
    2SAPS   C31  166   6.267   2.628  -0.474 -0.0303 -0.3360  0.1106
    2SAPS   O32  167   6.154   2.596  -0.436 -0.1578  0.4601 -0.1284
    2SAPS   C32  168   6.303   2.699  -0.606 -0.2394 -0.0623  0.0888
    2SAPS   H2X  169   6.381   2.643  -0.663  0.3753  1.2010 -0.3479
    2SAPS   H2Y  170   6.365   2.786  -0.577 -1.1436  1.4859 -2.3373
    2SAPS   C23  171   6.799   2.371  -0.522 -0.1415 -0.3924  0.0032
    2SAPS   H3R  172   6.763   2.279  -0.573  2.1396 -0.9476 -0.7048
    2SAPS   H3S  173   6.907   2.346  -0.516 -0.2905 -1.3126 -0.9147
    2SAPS   C24  174   6.791   2.503  -0.603 -0.1007  0.4065  0.2332
    2SAPS   H4R  175   6.865   2.571  -0.555 -0.5208  1.4837 -0.6045
    2SAPS   H4S  176   6.689   2.541  -0.583 -0.7375 -1.6574  1.1667
    2SAPS   C25  177   6.836   2.481  -0.744  0.3215 -0.5479  0.3545
    2SAPS   H5R  178   6.944   2.497  -0.751  0.5326 -1.2248  1.7199
    2SAPS   C26  179   6.754   2.461  -0.855  0.5459  0.0984  0.0855
    2SAPS   H6R  180   6.804   2.445  -0.952 -1.2745 -1.3182 -0.6754
    2SAPS   C27  181   6.608   2.453  -0.865  0.2898  0.8632  0.4550
    2SAPS   H7R  182   6.571   2.417  -0.766  1.8100  0.2811  0.8327
    2SAPS   H7S  183   6.575   2.367  -0.927  1.9923 -0.1487  0.9098
    2SAPS   C28  184   6.539   2.582  -0.891  0.0716 -0.5680  0.1282
    2SAPS   H8R  185   6.538   2.651  -0.805 -2.2604 -0.5128  0.1347
    2SAPS   C29  186   6.506   2.639  -1.013  0.2998 -0.3298 -0.4451
    2SAPS   H9R  187   6.452   2.734  -1.014 -1.4097 -1.2357  0.4894
    2SAPS  C210  188   6.511   2.566  -1.140  1.4193  0.5040  0.0850
    2SAPS  H10R  189   6.592   2.490  -1.133  1.6824  0.8549  1.0923
    2SAPS  H10S  190   6.545   2.630  -1.224  0.6764  2.4131  1.1707
    2SAPS  C211  191   6.385   2.486  -1.167 -0.1857  0.3346 -0.3310
    2SAPS  H11R  192   6.327   2.455  -1.079  1.3756 -0.6218  0.4019
    2SAPS  C212  193   6.347   2.468  -1.296  0.0544  0.0616 -0.4729
    2SAPS  H12R  194   6.251   2.419  -1.317 -0.1589  1.3332 -2.8202
    2SAPS  C213  195   6.428   2.507  -1.423 -0.2933  0.6079  0.3277
    2SAPS  H13R  196   6.535   2.487  -1.403 -0.8510 -0.6539  2.3809
    2SAPS  H13S  197   6.426   2.617  -1.436 -1.6588  0.5171 -0.4368
    2SAPS  C214  198   6.373   2.426  -1.543 -0.1729  0.0012  0.6144
    2SAPS  H14R  199   6.442   2.348  -1.579  1.6080  2.2851 -1.2521
    2SAPS  C215  200   6.266   2.464  -1.616 -0.0525 -0.2157 -0.3790
    2SAPS  H15R  201   6.254   2.400  -1.705  2.4980 -0.2744 -0.7542
    2SAPS  C216  202   6.161   2.565  -1.586 -0.1138  0.2998  1.0296
    2SAPS  H16R  203   6.112   2.605  -1.678 -0.6106 -1.5082  0.4678
    2SAPS  H16S  204   6.209   2.649  -1.531  2.6701 -0.8243  0.4737
    2SAPS  C217  205   6.058   2.498  -1.498  0.0546 -0.2726  0.6704
    2SAPS  H17R  206   6.085   2.522  -1.393  1.0352 -1.7712  0.7922
    2SAPS  H17S  207   6.061   2.387  -1.511 -1.6194 -0.1337 -1.3338
    2SAPS  C218  208   5.920   2.550  -1.533 -0.5290  0.9129 -0.2381
    2SAPS  H18R  209   5.882   2.500  -1.625 -0.6885 -3.2025  1.8138
    2SAPS  H18S  210   5.928   2.660  -1.541  1.3526  0.7540 -1.1016
    2SAPS  C219  211   5.819   2.522  -1.418 -0.2896  0.3108 -0.8786
    2SAPS  H19R  212   5.842   2.596  -1.339 -1.5121 -1.3738  1.1385
    2SAPS  H19S  213   5.820   2.424  -1.367  0.5573 -0.4113 -2.2261
    2SAPS  C220  214   5.676   2.536  -1.471 -0.5356  0.4451 -0.0738
    2SAPS  H20R  215   5.647   2.642  -1.488  0.4440  1.0284  1.6908
    2SAPS  H20S  216   5.600   2.484  -1.409 -1.0166 -0.9847 -1.7788
    2SAPS  H20T  217   5.654   2.483  -1.566 -2.9595  0.8602  0.1891
    2SAPS   C33  218   6.176   2.739  -0.676  1.0339  0.3895  0.1129
    2SAPS   H3X  219   6.115   2.810  -0.617 -0.4543 -1.0646  0.3919
    2SAPS   H3Y  220   6.122   2.645  -0.699  4.0186 -1.0500 -1.5363
    2SAPS   C34  221   6.214   2.803  -0.818 -0.6854  0.2074  0.2503
    2SAPS   H4X  222   6.270   2.726  -0.874 -1.1620  1.4488 -2.0782
    2SAPS   H4Y  223   6.282   2.892  -0.817 -0.6438  0.2378 -1.6598
    2SAPS   C35  224   6.097   2.846  -0.911  0.1369  0.1221 -1.4000
    2SAPS   H5X  225   6.050   2.940  -0.874 -2.1883 -0.7662 -1.9139
    2SAPS   H5Y  226   6.012   2.774  -0.904  0.5841 -0.3289 -0.5304
    2SAPS   C36  227   6.138   2.882  -1.051 -0.4495  1.1667  0.0291
    2SAPS   H6X  228   6.190   2.792  -1.090 -1.2587  0.1987  1.0984
    2SAPS   H6Y  229   6.208   2.967  -1.044 -1.2962  1.8186  0.7280
    2SAPS   C37  230   6.027   2.916  -1.146  0.5897 -0.2003 -0.3973
    2SAPS   H7X  231   5.966   3.001  -1.108  0.7983  0.0775 -0.6797
    2SAPS   H7Y  232   5.949   2.837  -1.151 -0.3222  0.5533  1.1769
    2SAPS   C38  233   6.086   2.954  -1.284 -0.0876  0.5745 -0.2974
    2SAPS   H8X  234   6.151   2.872  -1.321 -2.6876 -2.1615  0.7835
    2SAPS   H8Y  235   6.143   3.045  -1.258 -1.6135  0.9464  2.0095
    2SAPS   C39  236   5.974   2.989  -1.385 -0.4189  0.4304 -0.8373
    2SAPS   H9X  237   5.929   3.086  -1.356  0.2267  0.4131  0.2821
    2SAPS   H9Y  238   5.896   2.911  -1.369 -0.8560  0.4407 -2.6827
    2SAPS  C310  239   6.003   2.973  -1.537  0.6575 -0.1379 -0.1717
    2SAPS  H10X  240   6.053   2.876  -1.557  0.3361 -0.1775 -0.8322
    2SAPS  H10Y  241   6.075   3.055  -1.558  0.2189  0.8786  2.0532
    2SAPS  C311  242   5.875   2.976  -1.625  0.0920 -0.4990 -0.5513
    2SAPS  H11X  243   5.804   3.057  -1.597  0.2091 -0.2282 -1.0250
    2SAPS  H11Y  244   5.824   2.881  -1.600 -0.1147 -0.1142  0.5371
    2SAPS  C312  245   5.907   2.970  -1.776 -0.2949  0.2387  0.3681
    2SAPS  H12X  246   5.983   2.889  -1.786  1.6135  1.7649  1.8145
    2SAPS  H12Y  247   5.940   3.065  -1.822 -0.1914 -0.2187 -0.5365
    2SAPS  C313  248   5.787   2.923  -1.850 -0.0876  0.0243  0.2554
    2SAPS  H13X  249   5.699   2.990  -1.841 -0.2308 -0.2013  0.5724
    2SAPS  H13Y  250   5.756   2.826  -1.804 -0.4259  1.0104  2.2216
    2SAPS  C314  251   5.816   2.893  -2.002 -0.1189 -0.5259  0.3364
    2SAPS  H14X  252   5.724   2.860  -2.055 -0.7233  0.5882  0.6615
    2SAPS  H14Y  253   5.904   2.826  -2.017  0.4237  0.1219  0.5830
    2SAPS  C315  254   5.849   3.028  -2.077  0.5594  0.0569 -0.2996
    2SAPS  H15X  255   5.894   3.018  -2.178  0.5029 -0.0242 -0.3167
    2SAPS  H15Y  256   5.927   3.081  -2.017  2.5350  0.0068 -2.6611
    2SAPS  C316  257   5.722   3.116  -2.099 -0.2323 -0.0180  0.0653
    2SAPS  H16X  258   5.685   3.144  -1.998 -0.7391 -3.2184  0.8922
    2SAPS  H16Y  259   5.641   3.054  -2.142  0.1649 -1.3545  1.1662
    2SAPS  C317  260   5.757   3.241  -2.189  0.8833  0.2804  0.2984
    2SAPS  H17X  261   5.828   3.212  -2.270  2.8674 -1.6734  2.5740
    2SAPS  H17Y  262   5.807   3.312  -2.120 -0.7763  0.6839  1.1306
    2SAPS  C318  263   5.631   3.302  -2.253  0.7121 -0.0788 -0.3481
    2SAPS  H18X  264   5.653   3.395  -2.310 -2.7613  0.1579 -1.4790
    2SAPS  H18Y  265   5.546   3.323  -2.184 -1.9438 -1.7701 -2.9038
    2SAPS  H18Z  266   5.578   3.227  -2.315 -1.8259 -0.0390  1.6059
    3SAPS     N  267   5.846   1.521   0.057  0.0995  0.3042 -0.4808
    3SAPS   HN1  268   5.910   1.602   0.042  0.7424 -0.2873 -0.9910
    3SAPS   HN2  269   5.907   1.437   0.045  0.5133  0.3536  1.0413
    3SAPS   HN3  270   5.778   1.523  -0.021  0.0677  0.1535 -0.4567
    3SAPS   C12  271   5.773   1.524   0.191  0.1116 -0.4181 -0.3994
    3SAPS  H12A  272   5.695   1.449   0.185 -1.1858  0.7755  0.6654
    3SAPS   C13  273   5.867   1.504   0.314  0.1930  0.2451  0.3771
    3SAPS  O13A  274   5.968   1.432   0.299  0.7352 -0.3247 -0.1290
    3SAPS  O13B  275   5.808   1.511   0.423  0.1670  0.1292 -0.2582
    3SAPS   C11  276   5.698   1.655   0.201 -0.0258 -0.0747 -0.1520
    3SAPS  H11A  277   5.780   1.726   0.180  1.1634 -2.2050 -3.3973
    3SAPS  H11B  278   5.651   1.672   0.301  0.1607 -1.2911  0.1594
    3SAPS     P  279   5.474   1.734   0.101  0.3319  0.1493 -0.0895
    3SAPS   O13  280   5.408   1.716   0.233  0.2654 -0.1601 -0.0054
    3SAPS   O14  281   5.487   1.872   0.055  0.7094  0.4476 -0.1802
    3SAPS   O12  282   5.607   1.655   0.094 -0.6737  0.1527  0.6472
    3SAPS   O11  283   5.391   1.656  -0.010  0.0777  0.3332  0.0838
    3SAPS    C1  284   5.345   1.520   0.004 -0.1482 -0.1327  0.3944
    3SAPS    HA  285   5.349   1.497   0.112  0.5746 -0.0221  0.3985
    3SAPS    HB  286   5.241   1.519  -0.036  0.7835  0.9933 -2.3311
    3SAPS    C2  287   5.432   1.404  -0.062  0.4300 -0.3675 -0.2880
    3SAPS    HS  288   5.525   1.376  -0.008  0.8143 -1.7803 -1.6130
    3SAPS   O21  289   5.452   1.429  -0.199  0.4130 -0.6084 -0.2102
    3SAPS   C21  290   5.569   1.482  -0.223 -0.1114  0.5206  0.4573
    3SAPS   O22  291   5.662   1.492  -0.145  0.6457  0.2209 -0.2353
    3SAPS   C22  292   5.578   1.499  -0.375 -0.7190 -0.5416 -0.0344
    3SAPS   H2R  293   5.481   1.550  -0.398 -0.4609 -0.0333 -0.0132
    3SAPS   H2S  294   5.662   1.571  -0.387 -0.1379 -0.8360  1.9076
    3SAPS    C3  295   5.355   1.271  -0.055  0.1181 -0.3740  0.3417
    3SAPS    HX  296   5.269   1.283  -0.124 -0.8146 -1.9400  1.1674
    3SAPS    HY  297   5.299   1.250   0.040 -0.0713 -0.1431  0.2821
    3SAPS   O31  298   5.424   1.155  -0.104  0.1002 -0.2322  0.6305
    3SAPS   C31  299   5.521   1.106  -0.028 -0.3779 -0.1918  0.2270
    3SAPS   O32  300   5.555   1.143   0.086  0.2644  0.3340 -0.5624
    3SAPS   C32  301   5.594   0.991  -0.105 -0.5341 -0.7041 -0.2099
    3SAPS   H2X  302   5.533   0.899  -0.097  1.6002 -2.1071  0.6922
    3SAPS   H2Y  303   5.683   0.967  -0.043 -1.1846 -1.3048  0.5243
    3SAPS   C23  304   5.595   1.368  -0.456  0.0345 -0.4560  0.3889
    3SAPS   H3R  305   5.504   1.309  -0.432 -1.2047  1.0272 -0.5274
    3SAPS   H3S  306   5.684   1.321  -0.409  0.1084  1.7891  2.7756
    3SAPS   C24  307   5.610   1.392  -0.604  0.3739  0.0414  0.6136
    3SAPS   H4R  308   5.707   1.443  -0.623  0.9830 -2.3155 -4.4435
    3SAPS   H4S  309   5.529   1.457  -0.643  0.7174  0.0308 -0.1365
    3SAPS   C25  310   5.607   1.268  -0.686  0.1759  0.7312 -0.2022
    3SAPS   H5R  311   5.590   1.175  -0.629  1.3975  0.1752 -0.6983
    3SAPS   C26  312   5.637   1.250  -0.816  0.1588  0.4778 -0.0467
    3SAPS   H6R  313   5.633   1.147  -0.855  1.8418  0.0436  0.8240
    3SAPS   C27  314   5.655   1.365  -0.908 -0.4050 -0.0715 -0.1624
    3SAPS   H7R  315   5.709   1.449  -0.860 -0.8720  0.2362 -0.1626
    3SAPS   H7S  316   5.555   1.405  -0.938 -1.0200 -2.0052 -0.8524
    3SAPS   C28  317   5.737   1.338  -1.039  0.5752  0.2466 -0.3561
    3SAPS   H8R  318   5.845   1.347  -1.017  0.8757 -0.9171 -1.2634
    3SAPS   C29  319   5.701   1.313  -1.169  0.1244  0.1974  0.4724
    3SAPS   H9R  320   5.786   1.303  -1.237  0.4427  0.2314  0.8613
    3SAPS  C210  321   5.553   1.299  -1.214  0.0207  0.8668  0.2106
    3SAPS  H10R  322   5.492   1.253  -1.134  1.7480 -0.8600  0.6155
    3SAPS  H10S  323   5.550   1.216  -1.288 -0.9275 -0.7298  1.9725
    3SAPS  C211  324   5.493   1.423  -1.269  0.3264  0.7436  0.2442
    3SAPS  H11R  325   5.529   1.519  -1.228  2.8340  0.1889 -0.4592
    3SAPS  C212  326   5.424   1.432  -1.382 -0.1245 -0.2658 -0.3697
    3SAPS  H12R  327   5.400   1.533  -1.419 -1.1270 -0.4814 -0.3487
    3SAPS  C213  328   5.364   1.313  -1.461 -0.5929 -0.2517 -0.0840
    3SAPS  H13R  329   5.430   1.224  -1.467  0.9638  0.7726  0.9756
    3SAPS  H13S  330   5.339   1.339  -1.566  0.4690 -0.8627 -0.5005
    3SAPS  C214  331   5.235   1.269  -1.393  0.3921 -0.8470 -0.1892
    3SAPS  H14R  332   5.232   1.290  -1.285 -0.0310 -0.4464 -0.2750
    3SAPS  C215  333   5.127   1.214  -1.456 -1.3829 -1.0800 -0.6223
    3SAPS  H15R  334   5.045   1.177  -1.393 -1.4838 -1.3331 -0.9010
    3SAPS  C216  335   5.109   1.193  -1.603  0.5544  0.1514  0.3407
    3SAPS  H16R  336   5.210   1.172  -1.646  0.7484  0.9760  0.3655
    3SAPS  H16S  337   5.073   1.287  -1.650 -0.6796 -1.9547 -3.3084
    3SAPS  C217  338   5.004   1.091  -1.624 -0.0890 -0.1668  0.3959
    3SAPS  H17R  339   5.006   1.000  -1.561 -1.5755 -1.9937 -2.0024
    3SAPS  H17S  340   5.011   1.052  -1.728 -1.2081 -1.4937  0.7829
    3SAPS  C218  341   4.854   1.140  -1.611 -0.3205  0.4899  0.1586
    3SAPS  H18R  342   4.840   1.190  -1.513  0.8491 -1.7433  1.5436
    3SAPS  H18S  343   4.781   1.056  -1.606 -3.0707  2.6728 -0.6485
    3SAPS  C219  344   4.811   1.235  -1.725  0.2627 -0.0639  0.0080
    3SAPS  H19R  345   4.853   1.337  -1.716  0.3878  0.2525 -3.0959
    3SAPS  H19S  346   4.849   1.200  -1.823  3.6344 -0.5078  1.3399
    3SAPS  C220  347   4.660   1.249  -1.740  0.1266 -0.5719 -0.4265
    3SAPS  H20R  348   4.631   1.149  -1.779 -0.7929 -1.2939  1.9264
    3SAPS  H20S  349   4.632   1.340  -1.796 -0.6577 -0.1018  0.6985
    3SAPS  H20T  350   4.606   1.251  -1.643 -2.6992  2.8805 -1.8595
    3SAPS   C33  351   5.639   1.023  -0.247 -0.5188  0.3189  0.9293
    3SAPS   H3X  352   5.721   1.098  -0.255 -0.4103  0.1479  0.3982
    3SAPS   H3Y  353   5.552   1.076  -0.290  0.8148  1.8583 -0.0079
    3SAPS   C34  354   5.682   0.912  -0.330  0.2500  0.0984  1.1372
    3SAPS   H4X  355   5.600   0.848  -0.370  1.9170 -0.4355 -1.7275
    3SAPS   H4Y  356   5.752   0.835  -0.291  0.3462 -1.2609 -1.4766
    3SAPS   C35  357   5.761   0.962  -0.457  0.3327  0.1004 -0.1401
    3SAPS   H5X  358   5.687   1.026  -0.511 -0.9267  0.7088  2.1806
    3SAPS   H5Y  359   5.847   1.028  -0.433 -0.1900  0.9518 -0.5463
    3SAPS   C36  360   5.800   0.852  -0.552  0.1606  1.4925  0.3450
    3SAPS   H6X  361   5.706   0.795  -0.564  0.0503  1.3836  1.6146
    3SAPS   H6Y  362   5.888   0.795  -0.515  0.0578 -0.0124 -1.5530
    3SAPS   C37  363   5.852   0.903  -0.690 -0.1226  1.0064  0.4190
    3SAPS   H7X  364   5.963   0.916  -0.688 -0.3010  2.8247  2.4493
    3SAPS   H7Y  365   5.802   0.999  -0.714  0.3279  0.7251 -1.8742
    3SAPS   C38  366   5.810   0.813  -0.805  0.2510 -0.1354  0.1911
    3SAPS   H8X  367   5.705   0.776  -0.803 -0.0199  0.5528 -0.5809
    3SAPS   H8Y  368   5.876   0.724  -0.811  0.9315  0.4422 -1.3040
    3SAPS   C39  369   5.820   0.896  -0.930  0.2583 -0.5629  0.0935
    3SAPS   H9X  370   5.918   0.948  -0.940  1.2241 -2.1975  0.5733
    3SAPS   H9Y  371   5.740   0.973  -0.926  1.0422  0.2259  2.2523
    3SAPS  C310  372   5.795   0.823  -1.059 -0.4571 -0.0990 -0.0283
    3SAPS  H10X  373   5.704   0.760  -1.052 -1.0500  0.8613  1.0835
    3SAPS  H10Y  374   5.880   0.754  -1.079 -0.2608 -0.6823  2.4852
    3SAPS  C311  375   5.756   0.921  -1.168 -0.7349  0.0437  0.4657
    3SAPS  H11X  376   5.798   1.023  -1.152 -0.8168 -0.1736  2.2711
    3SAPS  H11Y  377   5.645   0.929  -1.173 -0.7472 -1.0220 -1.8212
    3SAPS  C312  378   5.804   0.865  -1.308  0.2376  0.4603  0.6678
    3SAPS  H12X  379   5.755   0.767  -1.327  0.8935  0.0533  1.0300
    3SAPS  H12Y  380   5.911   0.838  -1.295  0.3156 -0.1666 -1.0012
    3SAPS  C313  381   5.791   0.973  -1.417 -0.2674  0.0358 -0.3300
    3SAPS  H13X  382   5.852   1.058  -1.379 -1.8010  0.0922  2.2025
    3SAPS  H13Y  383   5.685   1.004  -1.425 -0.2086  0.3939  0.1911
    3SAPS  C314  384   5.838   0.937  -1.559  0.6431  0.2472  0.6583
    3SAPS  H14X  385   5.812   1.028  -1.616 -0.1267 -1.2307 -1.4874
    3SAPS  H14Y  386   5.785   0.847  -1.599  0.7871 -0.4180  1.9214
    3SAPS  C315  387   5.986   0.921  -1.569 -1.4349  0.1991 -0.4787
    3SAPS  H15X  388   6.030   0.843  -1.504 -0.4497 -0.4832 -1.9170
    3SAPS  H15Y  389   6.030   1.017  -1.535 -0.8138  0.4059 -1.8068
    3SAPS  C316  390   6.025   0.892  -1.714  0.1099 -0.1262  0.0083
    3SAPS  H16X  391   6.004   0.987  -1.766 -1.1374  1.4704  3.1239
    3SAPS  H16Y  392   5.973   0.800  -1.748  2.5595 -1.6361  0.0657
    3SAPS  C317  393   6.182   0.879  -1.730  0.0954 -0.3823 -0.3468
    3SAPS  H17X  394   6.224   0.795  -1.671 -0.5197 -0.2039  0.3566
    3SAPS  H17Y  395   6.234   0.975  -1.715  3.4475 -1.6921 -2.4604
    3SAPS  C318  396   6.208   0.831  -1.877  0.6001 -0.1135  0.0097
    3SAPS  H18X  397   6.319   0.818  -1.883  0.7004  0.7426 -0.0359
    3SAPS  H18Y  398   6.167   0.898  -1.955  0.3159  0.8789  0.9820
    3SAPS  H18Z  399   6.166   0.730  -1.895  1.0588  0.0724 -2.5115
    4SAPS     N  400   2.869   4.645   8.417 -0.1959 -0.4843  0.2560
    4SAPS   HN1  401   2.779   4.636   8.366  1.0975 -1.1204 -2.0669
    4SAPS   HN2  402   2.940   4.630   8.342 -1.1701  0.1543 -0.8227
    4SAPS   HN3  403   2.876   4.570   8.488 -0.6872 -1.4812 -0.7290
    4SAPS   C12  404   2.884   4.783   8.473 -0.6532  0.4424 -0.1658
    4SAPS  H12A  405   2.868   4.849   8.389 -1.7207  1.0143  0.4613
    4SAPS   C13  406   2.772   4.820   8.571  0.3650 -0.0552 -0.2427
    4SAPS  O13A  407   2.670   4.751   8.571  0.1928 -0.3308  0.4861
    4SAPS  O13B  408   2.766   4.931   8.635  0.3471  0.3311 -0.2334
    4SAPS   C11  409   3.032   4.799   8.528  0.0457  0.1163  0.7005
    4SAPS  H11A  410   3.046   4.736   8.618  0.5753 -0.2971  0.3371
    4SAPS  H11B  411   3.032   4.908   8.552  2.1660  0.5545 -0.9104
    4SAPS     P  412   3.273   4.837   8.423 -0.3280  0.3122  0.1330
    4SAPS   O13  413   3.255   4.960   8.502  0.1928  0.3814  0.2072
    4SAPS   O14  414   3.367   4.730   8.472 -0.3790 -0.7299  0.6382
    4SAPS   O12  415   3.131   4.774   8.420  0.2833  0.5261  0.3080
    4SAPS   O11  416   3.306   4.884   8.272  0.2157 -0.5375 -0.6989
    4SAPS    C1  417   3.200   4.943   8.202 -0.0792 -0.7621  0.8822
    4SAPS    HA  418   3.124   4.872   8.161 -0.1215  0.1611 -0.7207
    4SAPS    HB  419   3.143   5.012   8.268  1.4174 -0.8558  2.3261
    4SAPS    C2  420   3.253   5.031   8.085 -0.3527  0.5096 -0.3444
    4SAPS    HS  421   3.165   5.083   8.041  0.1787  1.6303 -0.1207
    4SAPS   O21  422   3.327   4.957   7.993 -0.1330  0.1850  0.0803
    4SAPS   C21  423   3.250   4.863   7.922 -0.1179 -0.1249  0.1843
    4SAPS   O22  424   3.129   4.850   7.931  0.0670 -0.2794 -0.5059
    4SAPS   C22  425   3.348   4.776   7.842  0.3402  0.0440  0.0145
    4SAPS   H2R  426   3.423   4.838   7.789 -1.9783  2.0079 -1.1517
    4SAPS   H2S  427   3.397   4.700   7.907  0.2582 -0.7175 -0.7962
    4SAPS    C3  428   3.344   5.150   8.127  0.1777 -0.2400  0.7958
    4SAPS    HX  429   3.448   5.112   8.127  1.4431  2.9112 -0.5631
    4SAPS    HY  430   3.309   5.200   8.221  1.4113  0.6964  0.7801
    4SAPS   O31  431   3.337   5.239   8.017 -0.4444 -0.0150  0.4541
    4SAPS   C31  432   3.426   5.332   7.996 -0.3078 -0.2673  0.2110
    4SAPS   O32  433   3.512   5.371   8.078 -0.6116 -0.1772  0.6282
    4SAPS   C32  434   3.406   5.380   7.855  0.2663  0.8274 -0.0638
    4SAPS   H2X  435   3.335   5.465   7.850 -0.8382 -0.0987 -0.4671
    4SAPS   H2Y  436   3.356   5.295   7.804  1.0497 -0.1177  0.6895
    4SAPS   C23  437   3.270   4.701   7.727  0.5876 -0.0478 -0.3830
    4SAPS   H3R  438   3.223   4.770   7.654 -0.4032 -1.7647 -1.4486
    4SAPS   H3S  439   3.200   4.629   7.775  0.2920 -1.7862 -3.2016
    4SAPS   C24  440   3.352   4.599   7.636  0.2015 -0.1732 -0.4600
    4SAPS   H4R  441   3.289   4.590   7.545 -2.2143  0.5067  1.0474
    4SAPS   H4S  442   3.353   4.500   7.686  1.1128 -0.2944 -0.7061
    4SAPS   C25  443   3.485   4.662   7.610 -0.3217  0.4157  0.5139
    4SAPS   H5R  444   3.557   4.641   7.690  2.2804 -2.0049 -2.2462
    4SAPS   C26  445   3.522   4.736   7.503  0.3303 -0.3377  0.5605
    4SAPS   H6R  446   3.616   4.792   7.504 -0.7243  1.8568 -3.0053
    4SAPS   C27  447   3.426   4.777   7.388 -0.6668  0.2382  0.2663
    4SAPS   H7R  448   3.414   4.887   7.399 -1.4164  0.1338  0.5972
    4SAPS   H7S  449   3.324   4.737   7.408 -0.4576  0.2643  1.4392
    4SAPS   C28  450   3.466   4.735   7.242  0.2255 -0.4567 -0.2597
    4SAPS   H8R  451   3.510   4.813   7.179  0.9229 -1.3400 -0.8850
    4SAPS   C29  452   3.464   4.613   7.187  0.1611 -0.0767 -1.2339
    4SAPS   H9R  453   3.495   4.608   7.082 -2.0492 -0.0048 -1.9330
    4SAPS  C210  454   3.394   4.484   7.237 -0.0029  0.8119 -0.6257
    4SAPS  H10R  455   3.296   4.476   7.186 -0.2924  2.7917 -0.4471
    4SAPS  H10S  456   3.351   4.503   7.338  1.2548 -0.6026  0.2184
    4SAPS  C211  457   3.472   4.362   7.224 -0.7176 -0.0398 -0.2791
    4SAPS  H11R  458   3.561   4.361   7.288 -0.3890  0.3589 -0.7280
    4SAPS  C212  459   3.450   4.257   7.139 -0.4146  0.2569 -0.1879
    4SAPS  H12R  460   3.521   4.173   7.148 -0.5466  0.2695  1.0357
    4SAPS  C213  461   3.324   4.235   7.049 -1.1423 -0.3615  0.2457
    4SAPS  H13R  462   3.343   4.154   6.975  2.9753 -0.7576  1.5088
    4SAPS  H13S  463   3.322   4.319   6.976  0.8402 -0.2234  0.2991
    4SAPS  C214  464   3.186   4.226   7.102 -0.0059  0.7329 -0.1337
    4SAPS  H14R  465   3.177   4.272   7.202 -1.1050 -0.9603  0.6106
    4SAPS  C215  466   3.072   4.175   7.046 -0.0301 -0.2502 -0.0893
    4SAPS  H15R  467   2.976   4.178   7.099  0.1111 -1.6951  0.3080
    4SAPS  C216  468   3.073   4.111   6.910 -0.5505  0.0711  0.7300
    4SAPS  H16R  469   3.152   4.153   6.844 -0.4393  0.0340  0.8407
    4SAPS  H16S  470   2.990   4.158   6.852  0.8732  0.7461 -0.8598
    4SAPS  C217  471   3.059   3.958   6.898 -0.7092 -0.0219 -0.5771
    4SAPS  H17R  472   2.968   3.921   6.949 -0.8728  1.9048  0.6445
    4SAPS  H17S  473   3.153   3.927   6.948 -0.2435  2.8236  0.5321
    4SAPS  C218  474   3.055   3.902   6.760  0.6560 -0.2828 -0.1999
    4SAPS  H18R  475   3.139   3.938   6.696  0.0478 -0.1689 -0.9521
    4SAPS  H18S  476   2.971   3.949   6.703  3.5723  1.7226 -3.2269
    4SAPS  C219  477   3.036   3.747   6.757  0.4430  0.1954 -0.3961
    4SAPS  H19R  478   2.949   3.727   6.824 -0.3408  1.2381 -1.0600
    4SAPS  H19S  479   3.124   3.713   6.816 -0.6375 -0.5122  0.8658
    4SAPS  C220  480   3.030   3.678   6.618  0.5375 -0.2017 -0.2979
    4SAPS  H20R  481   3.133   3.683   6.577  0.4717 -1.4663 -0.6675
    4SAPS  H20S  482   2.960   3.730   6.549 -0.5432  2.4873  2.6028
    4SAPS  H20T  483   3.007   3.569   6.626  1.2368 -0.3280  0.0793
    4SAPS   C33  484   3.540   5.415   7.782  0.0417 -0.2613  0.0180
    4SAPS   H3X  485   3.598   5.486   7.844  0.5849  0.3738 -1.1751
    4SAPS   H3Y  486   3.513   5.457   7.682  0.3351 -0.6189 -0.2130
    4SAPS   C34  487   3.625   5.292   7.757  0.2233 -0.6257  0.1244
    4SAPS   H4X  488   3.616   5.221   7.843 -2.2779  0.3454  0.7517
    4SAPS   H4Y  489   3.731   5.317   7.733 -0.4442  0.1862 -2.2367
    4SAPS   C35  490   3.572   5.201   7.648 -0.3455 -0.0692  0.1465
    4SAPS   H5X  491   3.465   5.172   7.661 -0.8951  0.4694 -2.5458
    4SAPS   H5Y  492   3.627   5.105   7.661 -1.2926 -0.7096 -0.4515
    4SAPS   C36  493   3.610   5.255   7.511 -0.1424 -0.0351 -0.5313
    4SAPS   H6X  494   3.714   5.293   7.515  0.1531 -0.9255  1.5034
    4SAPS   H6Y  495   3.533   5.335   7.501 -0.3024 -0.2282 -0.8614
    4SAPS   C37  496   3.597   5.151   7.404 -0.1157 -0.0645 -0.0738
    4SAPS   H7X  497   3.494   5.111   7.405 -0.5434  0.8034 -2.5002
    4SAPS   H7Y  498   3.676   5.075   7.424  1.8207  1.3155 -2.0415
    4SAPS   C38  499   3.622   5.201   7.260 -0.5696 -0.2741  0.6241
    4SAPS   H8X  500   3.733   5.193   7.252 -0.7151 -1.2983 -0.6311
    4SAPS   H8Y  501   3.598   5.309   7.254  1.1752  0.0968 -0.2155
    4SAPS   C39  502   3.542   5.122   7.151 -0.5044 -0.8264 -0.1753
    4SAPS   H9X  503   3.438   5.158   7.141 -0.2679 -0.3524 -0.9981
    4SAPS   H9Y  504   3.537   5.016   7.185 -1.5195 -1.5809 -2.4813
    4SAPS  C310  505   3.615   5.134   7.010 -0.4465 -0.1648  0.4193
    4SAPS  H10X  506   3.633   5.028   6.982  2.5365  1.1352 -3.4734
    4SAPS  H10Y  507   3.716   5.175   7.030 -0.8806  1.2178 -0.1189
    4SAPS  C311  508   3.529   5.209   6.909  0.0368  0.4010  0.6219
    4SAPS  H11X  509   3.533   5.318   6.932  0.4218  1.1157 -2.4055
    4SAPS  H11Y  510   3.425   5.170   6.917  0.0176  0.5996  1.4190
    4SAPS  C312  511   3.567   5.185   6.761 -0.2280 -0.0743 -0.2688
    4SAPS  H12X  512   3.590   5.078   6.741  0.3798  0.1910 -1.0470
    4SAPS  H12Y  513   3.669   5.229   6.755  0.0172 -0.5857  0.0599
    4SAPS  C313  514   3.463   5.242   6.663  0.8393  0.6504 -0.6883
    4SAPS  H13X  515   3.514   5.232   6.565 -1.2588 -2.3282 -1.6048
    4SAPS  H13Y  516   3.448   5.351   6.683 -1.2517  0.2064  0.5085
    4SAPS  C314  517   3.336   5.162   6.657  0.2409  0.9528 -0.9602
    4SAPS  H14X  518   3.287   5.155   6.756  0.7015  2.0529 -0.6359
    4SAPS  H14Y  519   3.370   5.057   6.641  0.5750  1.0021 -0.5677
    4SAPS  C315  520   3.242   5.201   6.536  0.4446  0.6893  0.5163
    4SAPS  H15X  521   3.202   5.305   6.539 -0.6035  0.3557 -1.0591
    4SAPS  H15Y  522   3.159   5.127   6.541  0.9103  0.2016  1.1389
    4SAPS  C316  523   3.303   5.173   6.398  1.1054  0.4764 -0.2046
    4SAPS  H16X  524   3.332   5.066   6.391 -3.1233 -0.9200  0.6234
    4SAPS  H16Y  525   3.397   5.232   6.391  2.1023 -0.8798  1.2114
    4SAPS  C317  526   3.209   5.189   6.283  0.3792  0.5484 -0.1023
    4SAPS  H17X  527   3.129   5.112   6.286 -0.3264  0.9312 -3.8350
    4SAPS  H17Y  528   3.258   5.159   6.188  0.1593 -2.1717  0.5693
    4SAPS  C318  529   3.147   5.326   6.285 -0.0481  0.3971 -0.0392
    4SAPS  H18X  530   3.059   5.331   6.352 -1.2371 -2.1808 -1.2736
    4SAPS  H18Y  531   3.117   5.355   6.182  0.0235  0.9655  0.0976
    4SAPS  H18Z  532   3.218   5.409   6.306  0.3514  0.5869 -1.9026
    5SAPS     N  533   4.262   2.746   0.174  0.0464 -0.0921  0.3529
    5SAPS   HN1  534   4.330   2.824   0.186 -1.7310  1.3669  1.4034
    5SAPS   HN2  535   4.245   2.724   0.074  0.2663  0.7564  0.1211
    5SAPS   HN3  536   4.166   2.758   0.213 -0.2274 -3.5172  1.1253
    5SAPS   C12  537   4.311   2.617   0.240 -0.5107 -1.0128  0.1466
    5SAPS  H12A  538   4.350   2.642   0.338  0.7774  0.1749 -0.6326
    5SAPS   C13  539   4.197   2.521   0.278 -0.6132  0.0689 -0.2523
    5SAPS  O13A  540   4.085   2.584   0.306 -0.2819 -0.4568  0.5562
    5SAPS  O13B  541   4.233   2.416   0.330  0.1830  0.0394 -0.7401
    5SAPS   C11  542   4.419   2.547   0.146  0.3179 -0.2309  0.1432
    5SAPS  H11A  543   4.369   2.491   0.064  1.9312 -1.4977 -0.0226
    5SAPS  H11B  544   4.461   2.465   0.208 -2.1891 -0.6519  1.4203
    5SAPS     P  545   4.668   2.637   0.135  0.1976 -0.0878 -0.0911
    5SAPS   O13  546   4.687   2.727   0.249  0.6353 -0.2114  0.0617
    5SAPS   O14  547   4.714   2.498   0.159  0.0547  0.0837 -0.0393
    5SAPS   O12  548   4.515   2.637   0.089  0.0819 -0.4402 -0.3019
    5SAPS   O11  549   4.741   2.698   0.010  0.4989 -0.5651 -0.0622
    5SAPS    C1  550   4.678   2.762  -0.105  0.1418 -0.1740  0.1176
    5SAPS    HA  551   4.588   2.811  -0.063  1.0767 -0.9003  3.2564
    5SAPS    HB  552   4.740   2.849  -0.135 -0.4987  2.0286  4.4160
    5SAPS    C2  553   4.631   2.686  -0.235 -0.1955  0.3510 -0.0882
    5SAPS    HS  554   4.552   2.619  -0.195  1.0366 -0.5441  0.9484
    5SAPS   O21  555   4.757   2.614  -0.266  0.1061 -0.4058  0.3686
    5SAPS   C21  556   4.728   2.496  -0.325 -0.0691 -0.3789  0.0757
    5SAPS   O22  557   4.617   2.446  -0.332  0.4361 -0.1465 -0.7532
    5SAPS   C22  558   4.855   2.417  -0.364 -1.3441  0.0429  0.2798
    5SAPS   H2R  559   4.933   2.454  -0.294  0.2046  3.7363 -3.0169
    5SAPS   H2S  560   4.830   2.315  -0.326 -1.9245  0.0737 -0.0041
    5SAPS    C3  561   4.583   2.778  -0.342  0.6958 -0.3976  0.2250
    5SAPS    HX  562   4.663   2.846  -0.377 -0.4949  0.6366 -0.5620
    5SAPS    HY  563   4.505   2.850  -0.309  1.3804  0.7342 -0.5770
    5SAPS   O31  564   4.530   2.706  -0.456 -0.3398 -0.3837 -0.2149
    5SAPS   C31  565   4.416   2.654  -0.436  0.4925  0.2496 -0.1789
    5SAPS   O32  566   4.340   2.683  -0.342 -0.8388 -0.3826 -0.4180
    5SAPS   C32  567   4.391   2.553  -0.545  0.7844  0.2428 -0.2050
    5SAPS   H2X  568   4.345   2.469  -0.489  0.2484  1.2908  0.9877
    5SAPS   H2Y  569   4.490   2.519  -0.582  0.0871 -1.3983 -0.6557
    5SAPS   C23  570   4.895   2.420  -0.514 -0.3104 -0.0771 -0.5663
    5SAPS   H3R  571   4.917   2.525  -0.546  2.4496  0.2627  2.0010
    5SAPS   H3S  572   4.800   2.383  -0.557 -2.1950  0.6105  2.6332
    5SAPS   C24  573   5.022   2.332  -0.539 -0.5727  0.4814 -0.2234
    5SAPS   H4R  574   5.093   2.380  -0.468 -0.6657  1.9774 -1.1073
    5SAPS   H4S  575   5.054   2.349  -0.644 -1.0156  1.3028 -0.2325
    5SAPS   C25  576   5.002   2.185  -0.517 -0.2316 -0.4340  0.5644
    5SAPS   H5R  577   4.901   2.145  -0.497  0.7838 -1.0319  5.9990
    5SAPS   C26  578   5.100   2.098  -0.504  0.1383 -0.3436 -0.5025
    5SAPS   H6R  579   5.066   1.996  -0.480  0.0883 -0.2240 -0.0484
    5SAPS   C27  580   5.246   2.134  -0.522 -0.5258 -0.5813  0.3037
    5SAPS   H7R  581   5.255   2.238  -0.485 -1.7464  0.1711 -1.3670
    5SAPS   H7S  582   5.288   2.133  -0.625  4.3207 -0.7552  2.0645
    5SAPS   C28  583   5.333   2.042  -0.444 -0.1491 -0.3876 -0.0031
    5SAPS   H8R  584   5.338   2.077  -0.340  0.4613 -0.8588  0.1319
    5SAPS   C29  585   5.403   1.930  -0.478  0.5249 -0.2459 -0.4483
    5SAPS   H9R  586   5.469   1.890  -0.399 -0.0474  0.3595  0.3577
    5SAPS  C210  587   5.426   1.883  -0.619 -0.1770  0.0282  0.4247
    5SAPS  H10R  588   5.533   1.904  -0.644  0.1538 -1.2195  0.7251
    5SAPS  H10S  589   5.366   1.941  -0.693 -0.6527 -0.1757  0.6528
    5SAPS  C211  590   5.387   1.736  -0.642  0.4334  0.0173  0.5019
    5SAPS  H11R  591   5.408   1.678  -0.551  0.9223 -1.6833 -0.6609
    5SAPS  C212  592   5.327   1.672  -0.739 -0.0888 -0.5709  0.2144
    5SAPS  H12R  593   5.300   1.568  -0.715  0.1824 -0.8769 -0.7617
    5SAPS  C213  594   5.269   1.730  -0.863  0.3118  0.7350  0.3692
    5SAPS  H13R  595   5.253   1.840  -0.858  1.7287  0.9576  0.3060
    5SAPS  H13S  596   5.174   1.677  -0.887  0.3963  0.9614 -0.4754
    5SAPS  C214  597   5.369   1.697  -0.968  0.0913  0.6729  0.0105
    5SAPS  H14R  598   5.468   1.661  -0.935 -0.6979 -0.7602  0.8976
    5SAPS  C215  599   5.354   1.699  -1.105 -0.0163 -0.2841 -0.7770
    5SAPS  H15R  600   5.440   1.658  -1.159 -0.5367 -4.0382  0.9169
    5SAPS  C216  601   5.225   1.740  -1.176  0.3738 -0.2293  0.4578
    5SAPS  H16R  602   5.140   1.756  -1.107  0.1429 -0.9261  0.3430
    5SAPS  H16S  603   5.196   1.647  -1.230 -1.6215 -1.0312  2.7505
    5SAPS  C217  604   5.241   1.858  -1.272  0.0000 -0.0573 -0.9840
    5SAPS  H17R  605   5.337   1.860  -1.327 -0.0538  2.5916 -1.1116
    5SAPS  H17S  606   5.232   1.949  -1.208 -1.5500 -1.5620  1.0785
    5SAPS  C218  607   5.128   1.865  -1.382 -0.6773 -0.2756  0.0434
    5SAPS  H18R  608   5.030   1.863  -1.330 -0.0555 -1.4429  1.2442
    5SAPS  H18S  609   5.133   1.769  -1.437 -0.3975  0.2017 -0.7679
    5SAPS  C219  610   5.123   1.987  -1.465  0.6294  0.6449 -0.1432
    5SAPS  H19R  611   5.205   2.004  -1.537  1.2411  0.0182  0.3918
    5SAPS  H19S  612   5.129   2.071  -1.393 -0.2450  1.8686 -1.4279
    5SAPS  C220  613   4.987   1.994  -1.532 -0.1536 -0.0313  0.1516
    5SAPS  H20R  614   4.946   1.901  -1.578  0.3880 -0.2036  0.0103
    5SAPS  H20S  615   4.993   2.074  -1.609  0.0878 -0.5834 -0.4126
    5SAPS  H20T  616   4.924   2.034  -1.450  2.6731  2.1235  1.4360
    5SAPS   C33  617   4.299   2.607  -0.663 -0.7710  1.0495 -0.9126
    5SAPS   H3X  618   4.213   2.663  -0.619  0.7859  2.6531  0.2591
    5SAPS   H3Y  619   4.264   2.516  -0.715  2.4278  0.0070 -1.4178
    5SAPS   C34  620   4.373   2.714  -0.755  0.0076 -0.5144 -0.2353
    5SAPS   H4X  621   4.356   2.816  -0.713 -0.1559 -0.8036  0.4061
    5SAPS   H4Y  622   4.333   2.705  -0.859  0.5154  0.4252 -0.5204
    5SAPS   C35  623   4.524   2.689  -0.780  0.1034 -0.0892  0.0972
    5SAPS   H5X  624   4.533   2.594  -0.837  1.2903  0.8634 -1.3793
    5SAPS   H5Y  625   4.585   2.667  -0.690  1.9160  1.6935 -0.6229
    5SAPS   C36  626   4.606   2.806  -0.833 -0.2348 -0.7261  0.1318
    5SAPS   H6X  627   4.622   2.880  -0.751 -1.1278 -1.4991  1.0282
    5SAPS   H6Y  628   4.536   2.871  -0.891  0.5713  1.0672  1.0641
    5SAPS   C37  629   4.728   2.757  -0.899  0.5492 -0.4983 -0.7205
    5SAPS   H7X  630   4.714   2.678  -0.976 -1.9677  0.9829 -1.9263
    5SAPS   H7Y  631   4.799   2.710  -0.827  1.6188  1.5724 -0.3440
    5SAPS   C38  632   4.800   2.875  -0.974 -1.0339  0.2919 -0.0687
    5SAPS   H8X  633   4.905   2.841  -0.976 -1.0477  0.2834 -1.0533
    5SAPS   H8Y  634   4.789   2.969  -0.914  0.0537  0.2441  0.2309
    5SAPS   C39  635   4.752   2.914  -1.116  0.4193 -0.5113  0.2282
    5SAPS   H9X  636   4.648   2.948  -1.098  0.8124  0.7687  0.1541
    5SAPS   H9Y  637   4.755   2.829  -1.188  1.7303  0.8109 -1.3649
    5SAPS  C310  638   4.836   3.032  -1.174  0.5970 -0.2231  0.4807
    5SAPS  H10X  639   4.934   2.980  -1.182 -0.5824 -2.5042  0.2161
    5SAPS  H10Y  640   4.827   3.114  -1.099 -0.7754  1.9605 -1.8839
    5SAPS  C311  641   4.798   3.091  -1.312 -0.4705 -0.4262 -0.1567
    5SAPS  H11X  642   4.852   3.187  -1.322 -0.8602  0.1423  2.5066
    5SAPS  H11Y  643   4.690   3.118  -1.308 -0.5578 -0.4999 -1.4203
    5SAPS  C312  644   4.829   3.001  -1.427  0.1911  0.1111  0.4366
    5SAPS  H12X  645   4.766   2.909  -1.422  1.0964 -0.4950  0.9328
    5SAPS  H12Y  646   4.928   2.954  -1.411 -0.0287 -0.1832  0.9580
    5SAPS  C313  647   4.823   3.062  -1.560  0.1584 -0.5318  0.4070
    5SAPS  H13X  648   4.858   2.993  -1.640  0.1924 -1.2388  1.0157
    5SAPS  H13Y  649   4.899   3.143  -1.552 -0.2944  0.1118 -1.5017
    5SAPS  C314  650   4.680   3.124  -1.591  0.6940 -0.0362 -0.1180
    5SAPS  H14X  651   4.649   3.185  -1.504 -0.1713 -0.1042 -0.3696
    5SAPS  H14Y  652   4.602   3.047  -1.610 -0.4267  0.4275  2.3033
    5SAPS  C315  653   4.687   3.211  -1.717  1.0961  0.0388  0.2742
    5SAPS  H15X  654   4.775   3.278  -1.706  0.3594  1.1399 -0.3116
    5SAPS  H15Y  655   4.591   3.263  -1.736  2.1964  1.5500 -1.5803
    5SAPS  C316  656   4.723   3.136  -1.850  0.3498 -0.2992  0.0775
    5SAPS  H16X  657   4.690   3.030  -1.853  4.0641 -1.6090 -0.2945
    5SAPS  H16Y  658   4.832   3.113  -1.847  0.1784 -1.1806 -0.3186
    5SAPS  C317  659   4.686   3.212  -1.979 -0.4387  0.3728 -0.1019
    5SAPS  H17X  660   4.729   3.313  -1.962 -0.0953 -0.0676  1.9479
    5SAPS  H17Y  661   4.576   3.215  -1.995 -0.4713  0.1993  0.0873
    5SAPS  C318  662   4.742   3.143  -2.090  0.3613  0.0689  0.9163
    5SAPS  H18X  663   4.716   3.035  -2.086  0.0314  0.1590  1.3205
    5SAPS  H18Y  664   4.852   3.157  -2.088  0.2651  0.8361  1.9792
    5SAPS  H18Z  665   4.701   3.180  -2.186 -0.7104 -0.0285  1.3188
    6SAPS     N  666   0.862   0.632   0.520  0.5450 -0.5937 -0.0403
    6SAPS   HN1  667   0.826   0.546   0.566  4.7409 -2.4763  0.1870
    6SAPS   HN2  668   0.911   0.694   0.587  1.7705  0.0692 -1.4812
    6SAPS   HN3  669   0.780   0.683   0.482 -0.1516  0.1174  2.2759
    6SAPS   C12  670   0.957   0.582   0.415  0.5286  0.6003 -0.0334
    6SAPS  H12A  671   1.045   0.541   0.464 -0.1043  0.5315  1.0829
    6SAPS   C13  672   0.889   0.459   0.351 -0.3678  0.3598  0.2368
    6SAPS  O13A  673   0.765   0.460   0.352  0.1626  1.6231 -0.0350
    6SAPS  O13B  674   0.964   0.380   0.291 -0.1376 -0.1892  0.5028
    6SAPS   C11  675   0.986   0.693   0.313  0.6808  0.1703 -0.4398
    6SAPS  H11A  676   0.892   0.744   0.284  0.2899  0.0375  0.5682
    6SAPS  H11B  677   1.027   0.655   0.217  0.4232  2.6718 -1.6213
    6SAPS     P  678   1.060   0.938   0.341 -0.1261 -0.4057  0.0055
    6SAPS   O13  679   0.950   0.993   0.420 -0.1917 -0.0084  0.0602
    6SAPS   O14  680   1.190   0.994   0.368  0.8932  0.0544  0.5070
    6SAPS   O12  681   1.072   0.788   0.368  0.2454 -0.3763  0.1997
    6SAPS   O11  682   1.035   0.937   0.187  0.1436  0.3975 -0.4157
    6SAPS    C1  683   1.136   0.894   0.096  0.1562 -0.3778  0.2943
    6SAPS    HA  684   1.218   0.843   0.152 -0.6044 -1.6917  0.2451
    6SAPS    HB  685   1.095   0.812   0.033  1.0200 -0.4348 -0.2065
    6SAPS    C2  686   1.197   1.012   0.007  0.3343 -0.5422 -0.0154
    6SAPS    HS  687   1.230   1.092   0.077 -1.6964  0.2460  0.1010
    6SAPS   O21  688   1.090   1.069  -0.080  0.4466 -0.0655 -0.0858
    6SAPS   C21  689   1.114   1.197  -0.108 -0.1729  0.0018  0.6190
    6SAPS   O22  690   1.211   1.261  -0.070  0.9390 -0.7031 -0.3980
    6SAPS   C22  691   0.992   1.243  -0.195 -0.6340 -0.6676  0.4583
    6SAPS   H2R  692   0.974   1.157  -0.263  1.4823 -1.5602  0.9679
    6SAPS   H2S  693   0.908   1.257  -0.124 -0.6958  2.2611 -0.0430
    6SAPS    C3  694   1.317   0.959  -0.071 -0.8969  0.2048  0.3581
    6SAPS    HX  695   1.389   0.910  -0.002 -0.3240 -0.8272 -0.9407
    6SAPS    HY  696   1.366   1.049  -0.116  2.2550 -1.0836  0.9325
    6SAPS   O31  697   1.272   0.862  -0.166 -0.6259  0.2921  0.1611
    6SAPS   C31  698   1.239   0.911  -0.282  0.8378 -0.5782 -0.1235
    6SAPS   O32  699   1.276   1.020  -0.323 -0.2987 -0.1633 -0.4399
    6SAPS   C32  700   1.143   0.815  -0.358 -0.1750  0.5047 -0.6672
    6SAPS   H2X  701   1.054   0.808  -0.292 -2.3342  2.7449 -3.0991
    6SAPS   H2Y  702   1.201   0.721  -0.362  0.8603  0.9730  1.5396
    6SAPS   C23  703   1.004   1.379  -0.271 -0.2312  0.7564 -0.0246
    6SAPS   H3R  704   1.070   1.377  -0.360 -0.5235  3.3791 -0.3869
    6SAPS   H3S  705   1.057   1.449  -0.203  3.1480 -0.5486 -1.0883
    6SAPS   C24  706   0.870   1.439  -0.313  0.3637  0.1849  0.3871
    6SAPS   H4R  707   0.880   1.537  -0.365 -2.4673  0.6906  0.6300
    6SAPS   H4S  708   0.811   1.476  -0.227 -3.0142 -0.1829 -1.5864
    6SAPS   C25  709   0.785   1.349  -0.406  0.1539  0.5405  0.2353
    6SAPS   H5R  710   0.704   1.297  -0.355  0.9675 -0.4596  0.5362
    6SAPS   C26  711   0.809   1.321  -0.535 -0.6025 -0.3093  0.4789
    6SAPS   H6R  712   0.742   1.250  -0.585  1.0868 -0.3378 -1.9472
    6SAPS   C27  713   0.914   1.382  -0.623  0.0655  0.1427 -0.1530
    6SAPS   H7R  714   0.962   1.468  -0.573 -1.9755  1.6328 -0.6362
    6SAPS   H7S  715   0.873   1.412  -0.722  1.5034 -0.3562 -0.9468
    6SAPS   C28  716   1.027   1.289  -0.650  0.5900 -0.0217  0.5843
    6SAPS   H8R  717   1.083   1.257  -0.561  2.3318  0.2183 -0.3805
    6SAPS   C29  718   1.075   1.251  -0.766 -0.7914 -0.4162  0.2002
    6SAPS   H9R  719   1.168   1.192  -0.757 -0.0616  0.7866  0.8624
    6SAPS  C210  720   1.028   1.290  -0.902 -0.2514  0.2627  0.9082
    6SAPS  H10R  721   1.092   1.240  -0.978 -1.8743  0.9190 -0.9707
    6SAPS  H10S  722   1.041   1.399  -0.916 -0.0194  0.0517 -0.6733
    6SAPS  C211  723   0.884   1.257  -0.931 -0.5291 -0.5382  0.9688
    6SAPS  H11R  724   0.819   1.234  -0.845  0.6960  2.3022  2.7643
    6SAPS  C212  725   0.827   1.290  -1.049  0.6055 -0.2532  0.0935
    6SAPS  H12R  726   0.723   1.256  -1.057  0.2820  0.7998 -0.4612
    6SAPS  C213  727   0.894   1.340  -1.172  0.2045  0.4391  0.2410
    6SAPS  H13R  728   0.965   1.424  -1.160 -0.3250  0.9473 -0.1220
    6SAPS  H13S  729   0.813   1.374  -1.240  0.2566 -2.5626 -1.4858
    6SAPS  C214  730   0.970   1.230  -1.251 -0.7771 -0.8721  0.3191
    6SAPS  H14R  731   1.055   1.190  -1.192  1.6788  3.4923  0.1558
    6SAPS  C215  732   0.946   1.190  -1.371  0.3534  0.0420  0.6461
    6SAPS  H15R  733   1.003   1.103  -1.409  0.3795  0.0789  0.6023
    6SAPS  C216  734   0.835   1.245  -1.457 -0.8090  0.5683  0.0157
    6SAPS  H16R  735   0.753   1.299  -1.404 -0.1379  3.1134 -1.4073
    6SAPS  H16S  736   0.780   1.160  -1.503  1.0759 -1.0735  0.6448
    6SAPS  C217  737   0.899   1.328  -1.561 -0.5668  0.3276  0.8262
    6SAPS  H17R  738   0.967   1.403  -1.515 -0.2745  2.0214 -2.1377
    6SAPS  H17S  739   0.820   1.375  -1.623  0.2957  1.2047  0.3642
    6SAPS  C218  740   0.977   1.256  -1.668 -0.0060 -0.0133 -0.0353
    6SAPS  H18R  741   0.925   1.166  -1.707  1.0391 -0.7836  0.2944
    6SAPS  H18S  742   1.065   1.206  -1.622  0.8691 -0.6559 -2.2569
    6SAPS  C219  743   1.019   1.345  -1.786  0.6714 -0.3760 -0.3835
    6SAPS  H19R  744   1.081   1.426  -1.742  1.0275 -0.4179 -0.7937
    6SAPS  H19S  745   0.923   1.379  -1.831  0.9061  0.2265 -0.4384
    6SAPS  C220  746   1.108   1.272  -1.892 -0.1954  0.2224  0.3221
    6SAPS  H20R  747   1.195   1.218  -1.849  0.2699  1.3613  0.8508
    6SAPS  H20S  748   1.146   1.348  -1.964  0.4654 -0.4484 -0.0481
    6SAPS  H20T  749   1.040   1.202  -1.945  2.1836 -0.1585 -2.4583
    6SAPS   C33  750   1.092   0.863  -0.497  0.2936  0.3703  0.4754
    6SAPS   H3X  751   1.064   0.970  -0.492 -0.1907  0.2171  1.4014
    6SAPS   H3Y  752   0.996   0.807  -0.507  0.7566 -1.0523  3.0879
    6SAPS   C34  753   1.198   0.851  -0.607 -0.5925  0.1959 -0.9154
    6SAPS   H4X  754   1.272   0.771  -0.583  0.4066  1.6189  1.0252
    6SAPS   H4Y  755   1.266   0.938  -0.607 -0.3420  0.0030 -0.6872
    6SAPS   C35  756   1.127   0.837  -0.748 -0.0549  0.4198 -0.8697
    6SAPS   H5X  757   1.075   0.935  -0.756 -2.3457 -0.6237  0.3279
    6SAPS   H5Y  758   1.042   0.766  -0.738  0.6450 -0.1566  2.0191
    6SAPS   C36  759   1.220   0.795  -0.862  0.5238 -0.4389  0.0158
    6SAPS   H6X  760   1.219   0.685  -0.876  0.3026 -0.5224  0.6427
    6SAPS   H6Y  761   1.326   0.825  -0.849  0.4601  1.4213 -2.8363
    6SAPS   C37  762   1.164   0.852  -0.996  0.2332 -0.1031 -0.6711
    6SAPS   H7X  763   1.178   0.962  -0.990  1.4521 -0.3197  2.4260
    6SAPS   H7Y  764   1.055   0.830  -0.996  0.5904 -2.0444 -1.1609
    6SAPS   C38  765   1.237   0.798  -1.119  0.3710  0.7557 -0.7405
    6SAPS   H8X  766   1.211   0.690  -1.124 -1.1746  0.9817  1.3523
    6SAPS   H8Y  767   1.345   0.812  -1.096  0.1707 -0.5465  1.2621
    6SAPS   C39  768   1.191   0.858  -1.254  0.4735  0.8510 -0.5439
    6SAPS   H9X  769   1.199   0.967  -1.239 -0.4164  0.8570 -0.0101
    6SAPS   H9Y  770   1.088   0.823  -1.278  0.3129 -0.3490  1.6231
    6SAPS  C310  771   1.274   0.817  -1.375  0.3076 -0.2753  0.8000
    6SAPS  H10X  772   1.267   0.707  -1.385 -2.5581  0.0189 -2.4149
    6SAPS  H10Y  773   1.379   0.847  -1.353  0.5958 -1.0550  0.5207
    6SAPS  C311  774   1.228   0.880  -1.502  0.0874  0.3170  0.2174
    6SAPS  H11X  775   1.232   0.990  -1.494  4.0985  0.2961  0.5757
    6SAPS  H11Y  776   1.122   0.850  -1.516  0.6517 -1.5117 -0.5610
    6SAPS  C312  777   1.317   0.843  -1.622 -0.1218  0.2669  0.1345
    6SAPS  H12X  778   1.311   0.737  -1.653 -0.7411  0.8103 -1.7142
    6SAPS  H12Y  779   1.423   0.855  -1.591 -1.2081  0.5081  4.4227
    6SAPS  C313  780   1.300   0.918  -1.762  0.0923 -0.0161  0.2210
    6SAPS  H13X  781   1.360   1.011  -1.754 -0.9895  0.6198  1.5086
    6SAPS  H13Y  782   1.193   0.946  -1.776  0.8586  2.7733 -0.5569
    6SAPS  C314  783   1.338   0.834  -1.880  0.6469  0.2138  0.1737
    6SAPS  H14X  784   1.269   0.747  -1.881  0.6598  0.1773  1.0978
    6SAPS  H14Y  785   1.435   0.782  -1.865 -0.4172 -1.6313  1.0323
    6SAPS  C315  786   1.336   0.894  -2.022  0.0340  1.2298 -0.4400
    6SAPS  H15X  787   1.428   0.954  -2.039  0.9487  0.1851  0.6841
    6SAPS  H15Y  788   1.243   0.955  -2.026 -1.5392 -0.9793  0.6122
    6SAPS  C316  789   1.329   0.786  -2.130 -0.6127  0.3441  0.1357
    6SAPS  H16X  790   1.244   0.714  -2.121  0.2155 -0.9755 -1.9270
    6SAPS  H16Y  791   1.419   0.724  -2.110  0.8966  2.6525  0.9289
    6SAPS  C317  792   1.332   0.862  -2.262  0.3910  0.0328 -0.3788
    6SAPS  H17X  793   1.371   0.966  -2.256 -3.2314  1.5113 -0.4682
    6SAPS  H17Y  794   1.231   0.885  -2.301  0.0706 -0.0489  0.3793
    6SAPS  C318  795   1.411   0.781  -2.365  1.1537 -0.8131 -0.3701
    6SAPS  H18X  796   1.509   0.744  -2.328  0.7330  1.1455  3.1143
    6SAPS  H18Y  797   1.420   0.847  -2.454 -1.4810  1.0152  0.5904
    6SAPS  H18Z  798   1.350   0.690  -2.387 -1.6741  1.1702 -1.3816
    7SAPS     N  799   3.194   4.189   0.497  0.2305 -0.3542 -0.7038
    7SAPS   HN1  800   3.130   4.123   0.449 -0.7696  0.0494  0.0177
    7SAPS   HN2  801   3.281   4.216   0.448 -1.4865 -0.1963 -3.8981
    7SAPS   HN3  802   3.220   4.137   0.584 -1.9139  1.8050  1.4141
    7SAPS   C12  803   3.106   4.309   0.527 -0.4015 -1.1609  0.1759
    7SAPS  H12A  804   3.010   4.275   0.563 -1.1317 -0.0219 -0.6049
    7SAPS   C13  805   3.163   4.397   0.639 -0.3623  1.1899  0.5520
    7SAPS  O13A  806   3.267   4.356   0.699  0.6554 -0.5598  0.1400
    7SAPS  O13B  807   3.104   4.495   0.675  0.7514 -0.0562  0.5153
    7SAPS   C11  808   3.083   4.403   0.400 -0.7545  0.1139  0.3914
    7SAPS  H11A  809   3.184   4.429   0.362 -0.4489 -1.3012  0.2062
    7SAPS  H11B  810   3.033   4.499   0.426 -0.5444  0.4740 -0.5051
    7SAPS     P  811   3.002   4.330   0.159 -0.3312  0.3269  0.6560
    7SAPS   O13  812   2.932   4.202   0.122 -0.1116 -0.3365 -0.0415
    7SAPS   O14  813   2.938   4.454   0.108 -0.1286 -0.3271  0.7103
    7SAPS   O12  814   3.012   4.330   0.315  0.2133  0.1820 -0.2809
    7SAPS   O11  815   3.146   4.317   0.116  0.6099  0.1045  0.0862
    7SAPS    C1  816   3.202   4.408   0.017  0.4238  0.1578 -0.2574
    7SAPS    HA  817   3.166   4.511   0.037 -0.1151  0.1323 -1.0463
    7SAPS    HB  818   3.312   4.394   0.021  0.3839 -0.4262 -1.0323
    7SAPS    C2  819   3.161   4.382  -0.127 -0.0665  0.0733  0.0931
    7SAPS    HS  820   3.051   4.397  -0.139  0.3612  1.6128 -2.8344
    7SAPS   O21  821   3.214   4.248  -0.152  0.6059  0.2557  0.2584
    7SAPS   C21  822   3.144   4.178  -0.230  0.1662  0.2598  0.2979
    7SAPS   O22  823   3.031   4.204  -0.270 -0.1329  0.7287 -0.9452
    7SAPS   C22  824   3.228   4.059  -0.285  0.1728 -0.4738  0.2761
    7SAPS   H2R  825   3.287   4.111  -0.363 -0.2535  1.1204  0.9527
    7SAPS   H2S  826   3.297   4.015  -0.210  0.4833 -0.6627 -0.1226
    7SAPS    C3  827   3.235   4.489  -0.212  0.5544 -0.1285 -0.0328
    7SAPS    HX  828   3.344   4.464  -0.218  0.4179 -0.3437 -3.4127
    7SAPS    HY  829   3.219   4.586  -0.160 -1.2601 -1.2608  1.6360
    7SAPS   O31  830   3.187   4.496  -0.349  0.6456  0.5338 -0.5786
    7SAPS   C31  831   3.072   4.549  -0.371 -0.2439 -0.3699  0.1387
    7SAPS   O32  832   3.001   4.608  -0.286  0.1511 -0.4676 -0.0467
    7SAPS   C32  833   3.027   4.518  -0.516 -0.6241  0.5996  0.1008
    7SAPS   H2X  834   3.111   4.473  -0.571 -0.9230 -0.5834  0.5829
    7SAPS   H2Y  835   2.985   4.613  -0.556 -2.9963 -0.8902 -1.2317
    7SAPS   C23  836   3.131   3.950  -0.335  0.0046 -0.6560  0.0725
    7SAPS   H3R  837   3.076   3.995  -0.420  1.3351 -0.4324 -0.6964
    7SAPS   H3S  838   3.059   3.919  -0.256 -1.6231  2.2384 -0.1428
    7SAPS   C24  839   3.199   3.824  -0.373  0.3238  0.0890  0.0593
    7SAPS   H4R  840   3.114   3.761  -0.406 -0.1869  0.8456 -0.1076
    7SAPS   H4S  841   3.239   3.770  -0.285 -2.8556 -0.1903  1.4591
    7SAPS   C25  842   3.299   3.835  -0.485  0.4036 -0.5119 -0.4615
    7SAPS   H5R  843   3.380   3.908  -0.469 -0.4594  0.4942 -0.5905
    7SAPS   C26  844   3.293   3.785  -0.611  0.3387 -0.5682 -0.8488
    7SAPS   H6R  845   3.383   3.804  -0.672 -0.1124 -1.1781 -1.7224
    7SAPS   C27  846   3.183   3.712  -0.674 -0.5676 -0.3584 -0.8474
    7SAPS   H7R  847   3.174   3.739  -0.782  0.0475 -1.7716 -1.2655
    7SAPS   H7S  848   3.088   3.740  -0.623  0.0649 -1.4730  1.0035
    7SAPS   C28  849   3.195   3.558  -0.670  0.2319 -0.5145  0.0440
    7SAPS   H8R  850   3.289   3.529  -0.622  0.0246  0.9435  1.3942
    7SAPS   C29  851   3.097   3.473  -0.709 -0.1896 -0.2705  0.1504
    7SAPS   H9R  852   3.113   3.364  -0.719 -0.4073 -0.3149  0.2880
    7SAPS  C210  853   2.964   3.507  -0.774  0.4453 -0.1315  0.0465
    7SAPS  H10R  854   2.972   3.509  -0.884 -1.2586  2.0514 -0.1038
    7SAPS  H10S  855   2.939   3.612  -0.748  0.1952  0.1305 -1.2193
    7SAPS  C211  856   2.852   3.411  -0.732  0.3562  0.6794  0.3609
    7SAPS  H11R  857   2.865   3.372  -0.631  0.8775 -0.6803 -0.2068
    7SAPS  C212  858   2.736   3.387  -0.805 -0.5256 -0.6763 -0.2160
    7SAPS  H12R  859   2.672   3.308  -0.764 -0.5965 -0.5615 -0.1045
    7SAPS  C213  860   2.701   3.448  -0.938 -0.1166 -0.5147  0.3776
    7SAPS  H13R  861   2.782   3.425  -1.010 -1.4875 -2.1672 -0.7401
    7SAPS  H13S  862   2.697   3.559  -0.937 -0.9257 -0.5013 -1.3334
    7SAPS  C214  863   2.582   3.396  -1.007  0.1706  0.2044 -0.5630
    7SAPS  H14R  864   2.548   3.299  -0.969  0.1315  1.0932  1.8500
    7SAPS  C215  865   2.500   3.465  -1.096 -0.8920  0.6111 -0.3536
    7SAPS  H15R  866   2.402   3.424  -1.124 -0.3385  1.6063 -4.3338
    7SAPS  C216  867   2.534   3.591  -1.164  0.1082  0.2653  0.1345
    7SAPS  H16R  868   2.633   3.623  -1.125 -0.1501  1.6580 -0.2790
    7SAPS  H16S  869   2.460   3.670  -1.138 -0.7116 -0.2304 -0.6238
    7SAPS  C217  870   2.526   3.595  -1.318  0.4078 -0.2546  0.5705
    7SAPS  H17R  871   2.573   3.688  -1.357  1.5432 -0.8367  0.5179
    7SAPS  H17S  872   2.419   3.603  -1.349 -0.6752 -0.4260  3.8644
    7SAPS  C218  873   2.568   3.470  -1.397 -0.3072  0.4960  0.1544
    7SAPS  H18R  874   2.499   3.386  -1.374 -0.2833  0.1933 -0.8485
    7SAPS  H18S  875   2.665   3.438  -1.354  0.2207  0.3777 -1.1021
    7SAPS  C219  876   2.581   3.489  -1.555 -0.2185 -0.0364 -0.3787
    7SAPS  H19R  877   2.476   3.478  -1.590  0.3712 -2.6275 -1.5352
    7SAPS  H19S  878   2.645   3.401  -1.576  0.7431  0.0911  1.7494
    7SAPS  C220  879   2.642   3.611  -1.619  0.1008 -0.6175 -0.8583
    7SAPS  H20R  880   2.657   3.592  -1.728 -0.1620 -2.4542 -0.6161
    7SAPS  H20S  881   2.735   3.643  -1.569 -0.2923 -0.8216  0.0204
    7SAPS  H20T  882   2.568   3.690  -1.594  0.8357 -0.0971 -0.2890
    7SAPS   C33  883   2.914   4.411  -0.529  0.8819  0.8050  0.8353
    7SAPS   H3X  884   2.837   4.433  -0.452 -0.8165 -0.4807 -0.4150
    7SAPS   H3Y  885   2.958   4.310  -0.520  0.3627  0.4315 -0.5198
    7SAPS   C34  886   2.839   4.417  -0.665 -0.2235 -0.9009 -0.3265
    7SAPS   H4X  887   2.769   4.503  -0.657  1.8219  0.7833  0.5823
    7SAPS   H4Y  888   2.775   4.327  -0.665  0.1927 -1.2145  0.7335
    7SAPS   C35  889   2.933   4.432  -0.784  0.1234 -0.4514  0.0403
    7SAPS   H5X  890   3.016   4.359  -0.779  1.1249  0.4135 -2.2571
    7SAPS   H5Y  891   2.972   4.535  -0.777 -1.8702  0.3275  0.4569
    7SAPS   C36  892   2.866   4.414  -0.920 -0.3299 -0.1546 -0.2369
    7SAPS   H6X  893   2.784   4.489  -0.927 -0.6980 -0.6620 -1.7201
    7SAPS   H6Y  894   2.822   4.314  -0.940 -0.7012  0.4700 -2.9533
    7SAPS   C37  895   2.963   4.455  -1.032 -0.0539 -0.8314 -0.7612
    7SAPS   H7X  896   3.062   4.407  -1.020  0.8927  1.3129  0.6266
    7SAPS   H7Y  897   2.985   4.564  -1.023  0.8732 -1.1511  1.6471
    7SAPS   C38  898   2.906   4.428  -1.170  0.5052  0.5213  0.3443
    7SAPS   H8X  899   2.883   4.319  -1.163  1.3089  0.4121  1.6926
    7SAPS   H8Y  900   2.992   4.442  -1.239  2.4604  0.2265  2.6188
    7SAPS   C39  901   2.794   4.530  -1.207 -0.5723  0.1047  0.2365
    7SAPS   H9X  902   2.826   4.634  -1.191  0.0132  0.4322 -2.5843
    7SAPS   H9Y  903   2.700   4.518  -1.149 -0.2793 -1.6936  0.4117
    7SAPS  C310  904   2.719   4.505  -1.340  0.3132  0.5460  0.8536
    7SAPS  H10X  905   2.628   4.569  -1.333 -0.4467 -0.3847 -0.1185
    7SAPS  H10Y  906   2.686   4.399  -1.344  1.0245  0.3580 -1.3573
    7SAPS  C311  907   2.812   4.540  -1.453  0.5450  0.3664 -0.0221
    7SAPS  H11X  908   2.894   4.467  -1.469  1.0391  1.2574 -1.8278
    7SAPS  H11Y  909   2.855   4.637  -1.421  1.8790 -0.4729  0.7987
    7SAPS  C312  910   2.740   4.543  -1.594 -0.1526 -0.0276  0.7466
    7SAPS  H12X  911   2.813   4.582  -1.669 -0.5419  1.5167  1.1240
    7SAPS  H12Y  912   2.661   4.620  -1.581 -0.1398  0.1270 -0.0365
    7SAPS  C313  913   2.666   4.417  -1.621 -0.6464 -0.4769 -0.0067
    7SAPS  H13X  914   2.569   4.424  -1.567 -1.2598  0.0940 -1.1507
    7SAPS  H13Y  915   2.723   4.330  -1.581 -0.0228 -1.3181 -2.5351
    7SAPS  C314  916   2.644   4.388  -1.767  0.0760 -0.0602 -0.1674
    7SAPS  H14X  917   2.565   4.455  -1.808 -0.5504 -1.2412 -0.9632
    7SAPS  H14Y  918   2.597   4.288  -1.764 -2.1906  0.9472  2.2934
    7SAPS  C315  919   2.780   4.388  -1.844 -0.1462  0.2302 -0.2951
    7SAPS  H15X  920   2.837   4.324  -1.773 -0.9393  0.3465  0.4517
    7SAPS  H15Y  921   2.821   4.491  -1.847 -0.7249  0.4489 -1.3734
    7SAPS  C316  922   2.771   4.335  -1.988  0.2820 -0.0844  0.0966
    7SAPS  H16X  923   2.730   4.411  -2.058 -0.5817 -1.8047 -1.3496
    7SAPS  H16Y  924   2.710   4.242  -1.994 -1.2363  0.7133  2.0291
    7SAPS  C317  925   2.909   4.297  -2.033  0.0868  0.1801 -0.1906
    7SAPS  H17X  926   2.957   4.218  -1.972  2.2640  0.7604 -1.0771
    7SAPS  H17Y  927   2.963   4.394  -2.025 -1.0549  0.6798  2.3501
    7SAPS  C318  928   2.929   4.233  -2.173  1.0806 -0.9626 -0.1781
    7SAPS  H18X  929   3.029   4.188  -2.193  1.6716  1.1522 -2.6389
    7SAPS  H18Y  930   2.927   4.311  -2.253 -0.8285 -1.9631 -1.1771
    7SAPS  H18Z  931   2.846   4.163  -2.196 -0.2876 -0.2437  2.2684
    8SAPS     N  932   5.892   6.538   0.570  0.3586  0.4251 -0.4174
    8SAPS   HN1  933   5.877   6.489   0.661 -0.1738  1.0916 -0.1422
    8SAPS   HN2  934   5.975   6.601   0.579  1.7930 -1.2452 -1.1709
    8SAPS   HN3  935   5.812   6.597   0.541  0.1953  0.0440 -0.7483
    8SAPS   C12  936   5.914   6.430   0.461  0.2276  0.1982  0.4094
    8SAPS  H12A  937   6.005   6.455   0.407  0.6560 -0.6358  0.7268
    8SAPS   C13  938   5.948   6.290   0.518 -0.5131  0.0647 -0.6865
    8SAPS  O13A  939   5.954   6.278   0.643  0.2291 -0.2284 -0.1022
    8SAPS  O13B  940   5.965   6.190   0.443  0.3921 -0.0127  0.0794
    8SAPS   C11  941   5.798   6.424   0.359  0.5621 -0.5353  0.2405
    8SAPS  H11A  942   5.703   6.403   0.412  1.2499 -1.7239  1.0564
    8SAPS  H11B  943   5.821   6.334   0.297  1.7902 -0.6728  0.8584
    8SAPS     P  944   5.867   6.580   0.148  0.3817 -0.0218 -0.2708
    8SAPS   O13  945   6.008   6.576   0.186 -0.3698 -0.6727  0.5260
    8SAPS   O14  946   5.823   6.505   0.030  0.3333 -0.1589 -0.1130
    8SAPS   O12  947   5.785   6.542   0.279 -0.0441 -0.2485  0.1771
    8SAPS   O11  948   5.812   6.726   0.117  0.3558  0.1494  0.0549
    8SAPS    C1  949   5.671   6.743   0.098  0.5118  0.3825 -0.4646
    8SAPS    HA  950   5.610   6.659   0.136  0.7742  0.8793  1.1144
    8SAPS    HB  951   5.631   6.829   0.155 -0.1031  1.5529 -2.5682
    8SAPS    C2  952   5.636   6.760  -0.050  0.2529  0.1994  0.5437
    8SAPS    HS  953   5.681   6.680  -0.113  0.7759  0.3686  0.7021
    8SAPS   O21  954   5.692   6.883  -0.095  0.8717  0.2318  0.2944
    8SAPS   C21  955   5.687   6.908  -0.229 -0.1544 -0.2068 -0.5871
    8SAPS   O22  956   5.657   6.824  -0.313  0.5256  0.2160 -0.2408
    8SAPS   C22  957   5.769   7.035  -0.255 -0.1162  0.3739 -0.7881
    8SAPS   H2R  958   5.710   7.113  -0.203  0.0484  0.3577 -0.5733
    8SAPS   H2S  959   5.870   7.020  -0.209 -1.2802 -0.3009  1.7220
    8SAPS    C3  960   5.480   6.748  -0.083 -0.0564  0.6660 -0.2829
    8SAPS    HX  961   5.443   6.658  -0.029 -2.3732  0.6147 -1.8247
    8SAPS    HY  962   5.481   6.729  -0.192  1.5226 -0.4167 -0.1081
    8SAPS   O31  963   5.414   6.869  -0.037  0.1391  0.2527 -0.1981
    8SAPS   C31  964   5.287   6.886  -0.081  0.9182 -0.7905  0.0001
    8SAPS   O32  965   5.233   6.805  -0.153  0.2330  0.1738  0.6498
    8SAPS   C32  966   5.227   7.022  -0.041 -0.0323 -0.5215 -0.2607
    8SAPS   H2X  967   5.303   7.097  -0.073 -1.3955  2.0490  2.1154
    8SAPS   H2Y  968   5.224   7.023   0.070  0.4934 -1.7042 -0.2241
    8SAPS   C23  969   5.774   7.082  -0.397  0.4707  0.1197  0.7889
    8SAPS   H3R  970   5.821   7.183  -0.397 -0.0933  0.3889  0.2647
    8SAPS   H3S  971   5.673   7.103  -0.438  1.0032 -0.2558 -0.8108
    8SAPS   C24  972   5.844   6.990  -0.496 -0.3861  0.0244  0.6404
    8SAPS   H4R  973   5.815   7.005  -0.602  0.7068  1.9351  0.5746
    8SAPS   H4S  974   5.811   6.889  -0.462 -0.7766  0.5617  1.9128
    8SAPS   C25  975   5.997   6.995  -0.484  0.4912  0.2700 -0.1935
    8SAPS   H5R  976   6.026   6.958  -0.384 -2.5493 -2.4027 -0.1255
    8SAPS   C26  977   6.090   7.034  -0.565 -0.2698  0.1791  0.3785
    8SAPS   H6R  978   6.193   7.016  -0.532 -0.6487 -1.8454  0.5826
    8SAPS   C27  979   6.069   7.085  -0.704 -0.6487 -0.2057  0.9987
    8SAPS   H7R  980   6.021   7.005  -0.764  1.4364 -0.6916 -0.0951
    8SAPS   H7S  981   6.161   7.095  -0.765 -1.7194  0.1418 -0.6422
    8SAPS   C28  982   5.991   7.215  -0.717 -0.0328  0.2603 -0.6421
    8SAPS   H8R  983   5.943   7.244  -0.622  0.1245 -0.9717 -0.1558
    8SAPS   C29  984   5.977   7.290  -0.821  0.0548 -0.0540 -0.1595
    8SAPS   H9R  985   5.895   7.363  -0.816  0.4192  0.3637 -0.2396
    8SAPS  C210  986   6.028   7.260  -0.962 -0.0962 -0.0557 -0.3756
    8SAPS  H10R  987   5.947   7.266  -1.037 -1.5012 -0.4233  1.0544
    8SAPS  H10S  988   6.077   7.161  -0.972 -1.3909 -1.0153  1.9359
    8SAPS  C211  989   6.137   7.357  -0.994  0.3408  0.1078 -0.2028
    8SAPS  H11R  990   6.185   7.411  -0.911  0.3489 -0.0625 -0.0966
    8SAPS  C212  991   6.182   7.387  -1.118  0.1130  0.4788 -0.5965
    8SAPS  H12R  992   6.264   7.461  -1.117 -0.3471  1.0303  1.8747
    8SAPS  C213  993   6.135   7.336  -1.254  0.1322 -0.2062 -0.1807
    8SAPS  H13R  994   6.130   7.225  -1.251  0.2963 -0.3233 -2.5190
    8SAPS  H13S  995   6.213   7.361  -1.329  0.7158  1.4321  0.9079
    8SAPS  C214  996   6.009   7.408  -1.294  0.3080  0.2305 -0.0002
    8SAPS  H14R  997   5.938   7.390  -1.212  0.0828 -0.8768 -0.4187
    8SAPS  C215  998   5.975   7.478  -1.408 -0.5171 -0.3167  1.1110
    8SAPS  H15R  999   5.879   7.529  -1.426 -1.2778 -2.3389 -1.1933
    8SAPS  C216 1000   6.071   7.477  -1.530 -0.4450  0.2156 -0.0107
    8SAPS  H16R 1001   6.177   7.451  -1.506 -0.4230 -3.9620 -3.4623
    8SAPS  H16S 1002   6.060   7.578  -1.574 -0.6868  0.0385 -0.3548
    8SAPS  C217 1003   6.019   7.373  -1.631 -0.7401 -0.1318 -0.2332
    8SAPS  H17R 1004   5.917   7.392  -1.671 -1.3362 -2.2510  0.1602
    8SAPS  H17S 1005   6.023   7.271  -1.587  1.2871  0.8129  2.0297
    8SAPS  C218 1006   6.103   7.376  -1.765  0.6821 -0.0278 -0.1453
    8SAPS  H18R 1007   6.208   7.346  -1.744  0.3304 -1.5071 -0.3709
    8SAPS  H18S 1008   6.102   7.479  -1.806 -2.9861 -0.4245 -1.4801
    8SAPS  C219 1009   6.055   7.274  -1.872 -0.3495  0.6681  0.2563
    8SAPS  H19R 1010   6.030   7.175  -1.828 -0.2926 -0.3776 -1.9558
    8SAPS  H19S 1011   6.142   7.256  -1.938  0.4175  2.1065  0.8189
    8SAPS  C220 1012   5.936   7.322  -1.966  1.0014  0.6729  0.0663
    8SAPS  H20R 1013   5.857   7.369  -1.904 -2.3472 -2.2321 -1.6446
    8SAPS  H20S 1014   5.886   7.239  -2.020 -2.0909  1.8978  0.8787
    8SAPS  H20T 1015   5.975   7.387  -2.048 -0.2124 -1.9861 -2.8110
    8SAPS   C33 1016   5.090   7.055  -0.101  0.3022 -0.4204  0.5480
    8SAPS   H3X 1017   5.056   7.155  -0.066  2.5089  0.9882 -1.0138
    8SAPS   H3Y 1018   5.019   6.974  -0.075 -0.2565 -0.3753 -0.7572
    8SAPS   C34 1019   5.103   7.090  -0.251  0.2757  0.3706  0.0912
    8SAPS   H4X 1020   4.998   7.107  -0.281  0.0195 -0.3805  0.5320
    8SAPS   H4Y 1021   5.139   7.000  -0.304  1.0166  0.7765 -0.1209
    8SAPS   C35 1022   5.184   7.218  -0.290 -0.3827 -0.2518  0.5094
    8SAPS   H5X 1023   5.282   7.228  -0.238  0.1923  0.4778 -0.6653
    8SAPS   H5Y 1024   5.137   7.313  -0.258  0.4173  0.8259 -1.3181
    8SAPS   C36 1025   5.197   7.245  -0.442  0.3345 -0.3167  0.0792
    8SAPS   H6X 1026   5.173   7.351  -0.465  3.0565  0.0100 -1.7069
    8SAPS   H6Y 1027   5.115   7.187  -0.490  0.3991  2.1412 -3.4632
    8SAPS   C37 1028   5.337   7.200  -0.501  0.1241 -0.0594 -0.0892
    8SAPS   H7X 1029   5.347   7.093  -0.473  2.7113  0.2873  0.5704
    8SAPS   H7Y 1030   5.411   7.246  -0.433  1.2703  1.3617 -2.1635
    8SAPS   C38 1031   5.368   7.233  -0.643 -0.2663  0.5736  0.0832
    8SAPS   H8X 1032   5.346   7.342  -0.651 -4.1049  0.0653  1.4502
    8SAPS   H8Y 1033   5.301   7.183  -0.716 -1.0470  1.0799  0.4307
    8SAPS   C39 1034   5.522   7.210  -0.671  0.5305 -0.0287 -0.2302
    8SAPS   H9X 1035   5.539   7.102  -0.648 -4.1211 -0.8328  0.6181
    8SAPS   H9Y 1036   5.595   7.266  -0.609 -0.3457 -0.8399  1.6144
    8SAPS  C310 1037   5.562   7.239  -0.819  0.0192  0.1942 -0.3372
    8SAPS  H10X 1038   5.494   7.202  -0.899  0.1019  0.3747 -0.4907
    8SAPS  H10Y 1039   5.660   7.191  -0.837 -0.8289 -1.3957 -0.9072
    8SAPS  C311 1040   5.574   7.391  -0.850  0.4287  0.8602  0.1347
    8SAPS  H11X 1041   5.631   7.429  -0.761  1.8518  1.6915 -1.0788
    8SAPS  H11Y 1042   5.474   7.439  -0.848 -1.1340 -2.1636  2.2402
    8SAPS  C312 1043   5.637   7.417  -0.983  0.0149 -1.1848 -0.7704
    8SAPS  H12X 1044   5.730   7.357  -0.978  0.6158 -0.2125  0.5011
    8SAPS  H12Y 1045   5.669   7.524  -0.987 -0.4144 -1.0818 -3.3346
    8SAPS  C313 1046   5.556   7.389  -1.109  0.2659  0.1054  0.1484
    8SAPS  H13X 1047   5.459   7.443  -1.111  0.3480  0.3772  2.0011
    8SAPS  H13Y 1048   5.538   7.279  -1.098  2.0876 -0.0385  2.7385
    8SAPS  C314 1049   5.630   7.429  -1.237 -0.2782  0.5207  0.2388
    8SAPS  H14X 1050   5.710   7.354  -1.259 -1.4868 -0.4524 -1.0252
    8SAPS  H14Y 1051   5.674   7.531  -1.244 -0.7097  0.6117 -1.6367
    8SAPS  C315 1052   5.534   7.428  -1.352  0.4954 -0.1720 -0.1388
    8SAPS  H15X 1053   5.452   7.502  -1.341 -0.8462 -1.3929 -1.5390
    8SAPS  H15Y 1054   5.483   7.330  -1.360  1.7986 -1.0659  1.8260
    8SAPS  C316 1055   5.594   7.458  -1.488  0.2632 -0.0269 -0.1731
    8SAPS  H16X 1056   5.664   7.372  -1.490  0.7430  0.3533  0.1588
    8SAPS  H16Y 1057   5.655   7.550  -1.473 -0.1542  0.2650 -0.2379
    8SAPS  C317 1058   5.498   7.451  -1.607 -0.4301  0.3680  0.3464
    8SAPS  H17X 1059   5.415   7.524  -1.602 -0.4787  0.4189 -1.0032
    8SAPS  H17Y 1060   5.451   7.350  -1.598 -3.3275  1.7014  1.5405
    8SAPS  C318 1061   5.553   7.445  -1.749  0.6025 -0.3888 -0.2508
    8SAPS  H18X 1062   5.587   7.547  -1.777  2.4360 -0.9712 -0.2672
    8SAPS  H18Y 1063   5.479   7.403  -1.820  1.4949 -3.5013  0.4882
    8SAPS  H18Z 1064   5.641   7.377  -1.743  1.5213  0.7720 -0.1904
    9SAPS     N 1065   0.561   0.557   0.215  0.1997  0.1845  0.2865
    9SAPS   HN1 1066   0.564   0.658   0.189 -0.8056  0.1676  0.0653
    9SAPS   HN2 1067   0.649   0.522   0.257 -1.9115 -3.0299  2.5240
    9SAPS   HN3 1068   0.544   0.506   0.126 -1.1117  0.0445  0.6023
    9SAPS   C12 1069   0.468   0.550   0.324  0.6319 -0.1611  0.6199
    9SAPS  H12A 1070   0.463   0.447   0.355 -0.8188 -0.8216 -1.5302
    9SAPS   C13 1071   0.504   0.643   0.443 -0.7596  0.6151 -0.2706
    9SAPS  O13A 1072   0.620   0.698   0.442 -0.0247 -0.1549 -0.3733
    9SAPS  O13B 1073   0.448   0.631   0.556 -0.1718  0.0606 -0.4591
    9SAPS   C11 1074   0.340   0.607   0.254  0.4359 -0.4408 -0.5026
    9SAPS  H11A 1075   0.359   0.710   0.217 -1.8738 -0.4747 -1.9661
    9SAPS  H11B 1076   0.267   0.624   0.336  2.6825 -0.9397  1.7658
    9SAPS     P 1077   0.161   0.542   0.065 -0.0209 -0.2729 -0.0413
    9SAPS   O13 1078   0.140   0.429  -0.032 -0.4938  0.0596 -0.4268
    9SAPS   O14 1079   0.047   0.576   0.151 -0.1221  0.1829 -0.0031
    9SAPS   O12 1080   0.287   0.522   0.160 -0.1319 -0.1774 -0.3380
    9SAPS   O11 1081   0.195   0.671  -0.019  0.2944 -0.6088  0.5552
    9SAPS    C1 1082   0.288   0.668  -0.122 -0.5078 -0.2213 -0.0622
    9SAPS    HA 1083   0.339   0.767  -0.123 -0.9752  0.1002  2.0615
    9SAPS    HB 1084   0.366   0.593  -0.101 -2.3421 -2.3791 -0.6210
    9SAPS    C2 1085   0.235   0.643  -0.263  1.4369  0.2722  1.4081
    9SAPS    HS 1086   0.204   0.536  -0.267  0.0381  0.6668  1.2384
    9SAPS   O21 1087   0.329   0.688  -0.360 -0.4189  0.6884  0.3943
    9SAPS   C21 1088   0.440   0.619  -0.382 -0.7322  0.1492  0.3289
    9SAPS   O22 1089   0.481   0.526  -0.314  0.0073 -0.2067  0.0910
    9SAPS   C22 1090   0.509   0.668  -0.511  0.9785 -0.8117 -0.2440
    9SAPS   H2R 1091   0.522   0.778  -0.503 -0.0725 -0.7511  1.1213
    9SAPS   H2S 1092   0.605   0.612  -0.510  1.0725 -0.6448  0.6527
    9SAPS    C3 1093   0.099   0.725  -0.283 -0.4310  0.2806  0.0761
    9SAPS    HX 1094   0.131   0.829  -0.261  0.2775  0.2009 -0.5578
    9SAPS    HY 1095   0.022   0.698  -0.207  0.4197 -0.0404  0.8371
    9SAPS   O31 1096   0.049   0.722  -0.422  0.8906 -0.4467  0.2580
    9SAPS   C31 1097  -0.027   0.621  -0.445 -0.9778  0.6654 -0.9028
    9SAPS   O32 1098  -0.053   0.529  -0.372  0.3766  0.6180 -0.2244
    9SAPS   C32 1099  -0.089   0.640  -0.576  0.1666 -1.2313  1.0354
    9SAPS   H2X 1100  -0.152   0.731  -0.575  1.0759 -0.5932  1.3044
    9SAPS   H2Y 1101  -0.149   0.553  -0.611  3.2889 -2.5710 -1.4340
    9SAPS   C23 1102   0.418   0.633  -0.632 -0.0811 -0.9598  0.3377
    9SAPS   H3R 1103   0.440   0.698  -0.719  1.3356  0.2838  1.5735
    9SAPS   H3S 1104   0.312   0.654  -0.608 -0.1561 -0.3674 -0.4972
    9SAPS   C24 1105   0.425   0.484  -0.671 -0.3086 -0.6188 -1.2331
    9SAPS   H4R 1106   0.335   0.458  -0.732 -2.8886 -0.0834  2.0150
    9SAPS   H4S 1107   0.403   0.427  -0.578 -0.1696 -0.0566 -0.8559
    9SAPS   C25 1108   0.553   0.415  -0.722  0.3517  0.1131  0.0040
    9SAPS   H5R 1109   0.599   0.341  -0.654 -0.2457  0.3080  0.6388
    9SAPS   C26 1110   0.607   0.441  -0.844 -0.3944  0.2223 -0.3562
    9SAPS   H6R 1111   0.685   0.367  -0.870  0.2584  0.5445  0.6161
    9SAPS   C27 1112   0.557   0.528  -0.953 -0.0494  0.7031 -0.0941
    9SAPS   H7R 1113   0.524   0.626  -0.911 -1.9612  0.6272 -1.2695
    9SAPS   H7S 1114   0.464   0.480  -0.991 -1.2084  1.0789  2.1298
    9SAPS   C28 1115   0.674   0.541  -1.045 -0.4004 -0.2489 -0.1045
    9SAPS   H8R 1116   0.760   0.599  -1.007 -2.1415  3.0957 -0.9144
    9SAPS   C29 1117   0.683   0.486  -1.171 -0.4313 -0.4418  0.6354
    9SAPS   H9R 1118   0.774   0.510  -1.228 -0.4260 -2.2054 -0.1830
    9SAPS  C210 1119   0.587   0.397  -1.243 -0.0109 -0.5030  0.0622
    9SAPS  H10R 1120   0.498   0.379  -1.178 -1.1599 -0.7932 -1.5295
    9SAPS  H10S 1121   0.640   0.300  -1.248  0.3995 -0.2294 -1.1082
    9SAPS  C211 1122   0.535   0.465  -1.375 -0.3556 -0.0700  0.0862
    9SAPS  H11R 1123   0.458   0.542  -1.358 -0.1966  0.6081 -1.9461
    9SAPS  C212 1124   0.556   0.427  -1.504  0.1165 -0.3532  0.6393
    9SAPS  H12R 1125   0.501   0.486  -1.579  1.5640  2.9274  1.9497
    9SAPS  C213 1126   0.651   0.324  -1.562  0.3816 -0.0209  0.4078
    9SAPS  H13R 1127   0.699   0.265  -1.480  0.9683  0.1296  0.1763
    9SAPS  H13S 1128   0.742   0.361  -1.614 -0.1852 -0.5324 -0.9922
    9SAPS  C214 1129   0.570   0.241  -1.656 -0.2657  0.1748  0.2162
    9SAPS  H14R 1130   0.515   0.163  -1.600  1.5884 -0.8730  0.6475
    9SAPS  C215 1131   0.562   0.246  -1.787 -0.4015  0.4151  0.4403
    9SAPS  H15R 1132   0.492   0.176  -1.836 -0.3074 -1.2365  2.4864
    9SAPS  C216 1133   0.623   0.351  -1.881  0.1645 -0.1335 -0.1153
    9SAPS  H16R 1134   0.678   0.289  -1.956  1.2242 -2.9960  2.7634
    9SAPS  H16S 1135   0.703   0.410  -1.832  1.4330 -1.9584  0.1579
    9SAPS  C217 1136   0.531   0.445  -1.950  0.4742 -0.4470 -0.7057
    9SAPS  H17R 1137   0.463   0.391  -2.019 -2.4879  0.6299  1.2081
    9SAPS  H17S 1138   0.584   0.517  -2.016 -0.3175  0.9166  0.0853
    9SAPS  C218 1139   0.439   0.538  -1.866  0.3076  0.0255 -0.1960
    9SAPS  H18R 1140   0.488   0.562  -1.769 -0.8891  2.4124 -0.1231
    9SAPS  H18S 1141   0.354   0.474  -1.834 -0.2566  1.1704  0.6691
    9SAPS  C219 1142   0.384   0.660  -1.935 -0.2171  0.0075  0.0176
    9SAPS  H19R 1143   0.345   0.643  -2.038  1.4826 -0.9107 -0.5016
    9SAPS  H19S 1144   0.472   0.727  -1.948  0.5931 -0.4216  2.6910
    9SAPS  C220 1145   0.268   0.726  -1.854  0.0028  0.0924  0.0791
    9SAPS  H20R 1146   0.302   0.758  -1.753  0.7348  2.6481 -0.9092
    9SAPS  H20S 1147   0.182   0.656  -1.844  0.3091 -0.2173  0.6164
    9SAPS  H20T 1148   0.230   0.814  -1.910  1.9451 -0.5011 -2.3528
    9SAPS   C33 1149   0.031   0.651  -0.678 -0.2067 -0.1165  0.6610
    9SAPS   H3X 1150   0.111   0.573  -0.681 -0.3446 -0.3285  1.8281
    9SAPS   H3Y 1151   0.094   0.738  -0.649  2.8082 -2.5303  1.9952
    9SAPS   C34 1152  -0.001   0.646  -0.834 -0.6739  0.3111  0.3795
    9SAPS   H4X 1153  -0.054   0.742  -0.855  0.0551  0.9259  1.2673
    9SAPS   H4Y 1154  -0.063   0.556  -0.850 -0.3280  0.1453 -0.0651
    9SAPS   C35 1155   0.120   0.626  -0.924  0.4376 -0.9042 -0.7133
    9SAPS   H5X 1156   0.170   0.533  -0.889 -0.8155 -0.4470  2.7008
    9SAPS   H5Y 1157   0.189   0.707  -0.894  0.5950 -1.3346  0.1479
    9SAPS   C36 1158   0.100   0.621  -1.077 -0.5571  0.1124 -0.4967
    9SAPS   H6X 1159   0.022   0.543  -1.093 -0.2857 -0.3658  0.4133
    9SAPS   H6Y 1160   0.197   0.588  -1.118 -0.7772 -1.3232  0.0788
    9SAPS   C37 1161   0.050   0.752  -1.139  0.3352 -0.7543  0.0671
    9SAPS   H7X 1162   0.116   0.837  -1.112  3.1918 -1.5389 -3.5738
    9SAPS   H7Y 1163  -0.059   0.767  -1.128  0.0415 -1.4958 -1.4661
    9SAPS   C38 1164   0.075   0.744  -1.295 -0.5437  0.7886  0.1518
    9SAPS   H8X 1165   0.048   0.653  -1.352  0.3471  0.8223 -0.3353
    9SAPS   H8Y 1166   0.185   0.743  -1.309 -0.4672  1.4095  0.6515
    9SAPS   C39 1167   0.003   0.868  -1.361 -0.7436  1.1080  0.3122
    9SAPS   H9X 1168   0.047   0.955  -1.309 -1.7084  1.6091  0.2975
    9SAPS   H9Y 1169  -0.105   0.877  -1.337 -0.4693 -0.1209  2.1979
    9SAPS  C310 1170   0.038   0.869  -1.507  0.1698 -0.7309  0.3276
    9SAPS  H10X 1171  -0.019   0.798  -1.572 -0.6648  0.5583 -0.3802
    9SAPS  H10Y 1172   0.148   0.863  -1.517  0.3077  2.3492 -0.8377
    9SAPS  C311 1173  -0.004   1.002  -1.581  0.2282 -0.7556  0.4537
    9SAPS  H11X 1174   0.030   1.084  -1.515  1.4080 -0.8113 -0.0497
    9SAPS  H11Y 1175  -0.114   1.015  -1.592  0.1915 -0.1881  1.4196
    9SAPS  C312 1176   0.062   1.021  -1.723 -0.0461  0.1086  0.0357
    9SAPS  H12X 1177   0.036   0.927  -1.777  1.9124  0.1454 -1.0639
    9SAPS  H12Y 1178   0.170   1.027  -1.696 -0.0259 -1.3759  0.4011
    9SAPS  C313 1179  -0.005   1.137  -1.801  0.6052  0.5742 -0.9083
    9SAPS  H13X 1180   0.012   1.229  -1.742 -3.5906  1.3234 -0.5652
    9SAPS  H13Y 1181  -0.115   1.122  -1.809  0.8461 -3.0397  0.6519
    9SAPS  C314 1182   0.057   1.167  -1.942  1.0000 -0.2924 -0.1724
    9SAPS  H14X 1183   0.077   1.071  -1.995 -0.2804 -3.0391  3.8178
    9SAPS  H14Y 1184   0.153   1.221  -1.929  0.1110  1.3648 -0.2287
    9SAPS  C315 1185  -0.032   1.264  -2.024 -0.5486 -0.2909  0.4489
    9SAPS  H15X 1186  -0.111   1.198  -2.065  0.2689  0.1637 -1.9997
    9SAPS  H15Y 1187   0.025   1.313  -2.106 -3.6454  0.0741 -1.6862
    9SAPS  C316 1188  -0.096   1.376  -1.934  0.0696 -0.0408 -0.6992
    9SAPS  H16X 1189  -0.020   1.442  -1.887 -0.7498  0.6985 -0.3983
    9SAPS  H16Y 1190  -0.157   1.328  -1.854 -0.8622  0.1899 -1.2530
    9SAPS  C317 1191  -0.183   1.473  -2.012  0.3611 -0.3298 -0.4229
    9SAPS  H17X 1192  -0.268   1.417  -2.057 -1.6314  2.6337 -0.6608
    9SAPS  H17Y 1193  -0.139   1.522  -2.102 -1.5400  0.4818 -0.9602
    9SAPS  C318 1194  -0.244   1.594  -1.929  0.2019 -0.6641  0.0131
    9SAPS  H18X 1195  -0.153   1.648  -1.894  0.3478 -1.0156  0.1766
    9SAPS  H18Y 1196  -0.319   1.563  -1.853 -2.4407  2.7299 -0.9838
    9SAPS  H18Z 1197  -0.304   1.639  -2.010 -1.6926 -3.1010 -0.0545
   10SAPS     N 1198   3.098   0.568   0.488  0.1075 -0.8187  0.3251
   10SAPS   HN1 1199   2.996   0.586   0.474 -0.1528 -0.6597  2.1447
   10SAPS   HN2 1200   3.107   0.504   0.570 -0.6479  0.0249  1.0915
   10SAPS   HN3 1201   3.145   0.658   0.511 -0.3800 -0.4944  0.0475
   10SAPS   C12 1202   3.160   0.507   0.364  0.3286  0.2838 -0.5650
   10SAPS  H12A 1203   3.248   0.453   0.394 -0.4623 -0.9040 -0.2938
   10SAPS   C13 1204   3.069   0.414   0.287 -0.4147  0.3444  0.4728
   10SAPS  O13A 1205   2.960   0.383   0.335  0.2470  0.5256  0.0150
   10SAPS  O13B 1206   3.104   0.381   0.167  0.7451  0.6174  0.0410
   10SAPS   C11 1207   3.212   0.627   0.282 -0.0220  0.2631 -0.3084
   10SAPS  H11A 1208   3.119   0.687   0.269 -2.0080 -2.4483  0.4810
   10SAPS  H11B 1209   3.245   0.589   0.183  0.7401  0.1468 -0.0136
   10SAPS     P 1210   3.429   0.775   0.279 -0.1347 -0.4131  0.1348
   10SAPS   O13 1211   3.462   0.895   0.357  0.3003  0.7762 -0.7403
   10SAPS   O14 1212   3.544   0.703   0.223  0.6799 -0.4553  0.1659
   10SAPS   O12 1213   3.320   0.690   0.354 -0.4285  0.3451 -0.3348
   10SAPS   O11 1214   3.358   0.831   0.154  0.7178 -0.1996 -0.1460
   10SAPS    C1 1215   3.267   0.940   0.153  0.4595  0.3519  0.8195
   10SAPS    HA 1216   3.173   0.924   0.097 -0.5532  0.0137  2.5380
   10SAPS    HB 1217   3.243   0.978   0.255  0.8189 -0.7345  1.3238
   10SAPS    C2 1218   3.327   1.061   0.068  1.0793  0.4850 -0.7290
   10SAPS    HS 1219   3.242   1.131   0.052  0.8307  0.0959 -1.1353
   10SAPS   O21 1220   3.386   1.012  -0.054 -0.1061 -0.2780  0.5710
   10SAPS   C21 1221   3.302   0.964  -0.144  0.8604 -0.4999 -0.8737
   10SAPS   O22 1222   3.177   0.959  -0.140 -0.2117 -0.1308 -0.0718
   10SAPS   C22 1223   3.387   0.922  -0.263  0.1148 -0.5178  0.6108
   10SAPS   H2R 1224   3.479   0.981  -0.284 -0.4627  0.0285 -0.5434
   10SAPS   H2S 1225   3.419   0.818  -0.242  1.2924  0.1852  2.5692
   10SAPS    C3 1226   3.435   1.143   0.135 -0.1598 -0.3237  0.2544
   10SAPS    HX 1227   3.514   1.070   0.160 -0.1326 -0.3911 -0.0298
   10SAPS    HY 1228   3.390   1.187   0.227 -0.5597  0.3636 -0.2591
   10SAPS   O31 1229   3.485   1.246   0.046 -0.1986 -0.2592 -0.0860
   10SAPS   C31 1230   3.404   1.358   0.025  0.9123 -0.4938  0.1094
   10SAPS   O32 1231   3.298   1.377   0.082 -0.0065  0.2720 -0.0927
   10SAPS   C32 1232   3.477   1.437  -0.085 -0.2683  0.0115  1.1189
   10SAPS   H2X 1233   3.527   1.362  -0.150 -1.6726  0.3882 -0.4685
   10SAPS   H2Y 1234   3.555   1.498  -0.034 -1.2647  1.7248  0.6753
   10SAPS   C23 1235   3.296   0.929  -0.390 -0.3195  0.4845 -1.0713
   10SAPS   H3R 1236   3.271   1.034  -0.414 -5.0464 -0.2395 -0.3810
   10SAPS   H3S 1237   3.197   0.881  -0.376 -0.2517  0.2332 -1.4453
   10SAPS   C24 1238   3.365   0.878  -0.517 -0.0295  0.4630 -0.2998
   10SAPS   H4R 1239   3.292   0.887  -0.600 -0.2286  1.3623 -0.0338
   10SAPS   H4S 1240   3.374   0.769  -0.496  1.0377  1.0378  2.7593
   10SAPS   C25 1241   3.501   0.947  -0.543  0.4991  0.3861  0.1692
   10SAPS   H5R 1242   3.582   0.896  -0.489 -1.0545 -1.4412  0.8845
   10SAPS   C26 1243   3.511   1.049  -0.623  0.4218 -0.2575  0.2412
   10SAPS   H6R 1244   3.607   1.101  -0.632  0.4047 -0.2557  0.0664
   10SAPS   C27 1245   3.400   1.123  -0.693  0.7776 -0.2980  0.2137
   10SAPS   H7R 1246   3.377   1.219  -0.641 -1.9523  0.5857 -2.3857
   10SAPS   H7S 1247   3.299   1.077  -0.689  0.3675  0.6519  1.9216
   10SAPS   C28 1248   3.427   1.162  -0.845 -0.1815 -0.4732  0.1376
   10SAPS   H8R 1249   3.431   1.087  -0.926 -0.0027  0.8375 -1.1117
   10SAPS   C29 1250   3.440   1.290  -0.897 -0.2777  0.8205  0.4081
   10SAPS   H9R 1251   3.452   1.312  -1.004  2.3880  2.9228  1.0339
   10SAPS  C210 1252   3.444   1.421  -0.823  0.2187  0.4143 -0.0134
   10SAPS  H10R 1253   3.437   1.415  -0.712  1.8980 -0.7255  0.0588
   10SAPS  H10S 1254   3.350   1.476  -0.844  0.8902  1.3886 -0.5100
   10SAPS  C211 1255   3.562   1.510  -0.850 -0.0404  0.1960 -0.1339
   10SAPS  H11R 1256   3.644   1.488  -0.780  0.3610  2.4784  0.2034
   10SAPS  C212 1257   3.574   1.619  -0.932  0.3060  0.0704 -0.6070
   10SAPS  H12R 1258   3.679   1.651  -0.935  1.2961 -2.7276  0.6564
   10SAPS  C213 1259   3.468   1.673  -1.019  0.5360 -0.2056  0.1832
   10SAPS  H13R 1260   3.479   1.783  -1.029 -1.9301  0.0362 -0.4127
   10SAPS  H13S 1261   3.371   1.655  -0.968  0.1630  0.9842 -0.0792
   10SAPS  C214 1262   3.472   1.604  -1.155  0.0333  0.1917 -0.0397
   10SAPS  H14R 1263   3.463   1.495  -1.155  0.8836  0.1109 -0.7131
   10SAPS  C215 1264   3.492   1.656  -1.274 -0.4485 -0.1358  0.4393
   10SAPS  H15R 1265   3.488   1.590  -1.362  3.3205  0.6066 -0.4687
   10SAPS  C216 1266   3.525   1.804  -1.286  0.0501  0.1914  0.1124
   10SAPS  H16R 1267   3.590   1.848  -1.208  0.4003  0.6164 -0.4168
   10SAPS  H16S 1268   3.430   1.862  -1.288 -0.9420 -1.0085  3.5939
   10SAPS  C217 1269   3.605   1.814  -1.419 -0.0560 -0.0577 -0.4964
   10SAPS  H17R 1270   3.557   1.754  -1.499  2.3784 -1.4562 -1.0198
   10SAPS  H17S 1271   3.707   1.771  -1.409  0.5629  1.5337  0.2095
   10SAPS  C218 1272   3.627   1.960  -1.465 -0.0035 -0.3855 -0.0537
   10SAPS  H18R 1273   3.656   2.020  -1.376  0.6262 -1.7284  0.6781
   10SAPS  H18S 1274   3.528   1.995  -1.500  0.7717  0.4002 -1.5603
   10SAPS  C219 1275   3.740   1.990  -1.570  0.0177  0.5672 -0.2069
   10SAPS  H19R 1276   3.762   2.099  -1.579  2.2885  0.3402  1.5463
   10SAPS  H19S 1277   3.705   1.950  -1.667  2.1892  0.1088 -0.8535
   10SAPS  C220 1278   3.877   1.918  -1.555  1.1721 -0.3758 -0.0164
   10SAPS  H20R 1279   3.916   1.955  -1.458  1.6733 -0.1513 -0.2996
   10SAPS  H20S 1280   3.940   1.945  -1.643  0.5019  0.0483 -0.3745
   10SAPS  H20T 1281   3.863   1.807  -1.552 -1.8343 -0.0370  1.6778
   10SAPS   C33 1282   3.380   1.531  -0.163  0.2755 -0.2776  0.0283
   10SAPS   H3X 1283   3.341   1.607  -0.091  1.0903  1.7162 -1.5141
   10SAPS   H3Y 1284   3.295   1.481  -0.213  0.5126 -0.3160 -0.3372
   10SAPS   C34 1285   3.454   1.600  -0.277 -0.1097  0.1355 -0.2100
   10SAPS   H4X 1286   3.543   1.655  -0.240 -0.1219 -0.2412  0.4033
   10SAPS   H4Y 1287   3.382   1.673  -0.320 -1.3747 -0.4229  0.8627
   10SAPS   C35 1288   3.499   1.515  -0.390  0.6291  0.2328 -0.0975
   10SAPS   H5X 1289   3.420   1.448  -0.430  1.6043 -0.0962 -1.5573
   10SAPS   H5Y 1290   3.576   1.444  -0.351  1.1466  1.9956  2.3360
   10SAPS   C36 1291   3.563   1.591  -0.497  0.0303  0.4654  0.1053
   10SAPS   H6X 1292   3.501   1.668  -0.548 -0.6431  0.5961  1.0898
   10SAPS   H6Y 1293   3.596   1.516  -0.572 -1.6213  1.3888 -1.6106
   10SAPS   C37 1294   3.696   1.651  -0.458  0.5435  0.0665 -0.6377
   10SAPS   H7X 1295   3.753   1.566  -0.416 -0.7547 -0.1955  0.6786
   10SAPS   H7Y 1296   3.673   1.725  -0.378 -1.1559  0.4608 -1.4414
   10SAPS   C38 1297   3.782   1.717  -0.566 -0.0613  0.7679 -0.3944
   10SAPS   H8X 1298   3.712   1.768  -0.636  1.4200  0.5478 -2.1125
   10SAPS   H8Y 1299   3.827   1.641  -0.633  1.2044  0.9969  0.1684
   10SAPS   C39 1300   3.888   1.799  -0.508  0.3455  0.3931  0.4390
   10SAPS   H9X 1301   3.931   1.754  -0.417  1.0625 -3.2124 -1.5075
   10SAPS   H9Y 1302   3.855   1.904  -0.489  1.0999  0.7838 -0.3496
   10SAPS  C310 1303   4.004   1.823  -0.613  0.3587 -0.1327  0.6044
   10SAPS  H10X 1304   4.048   1.724  -0.640 -0.3268 -0.1562 -0.5027
   10SAPS  H10Y 1305   4.085   1.881  -0.564  0.9753 -0.9499  0.5773
   10SAPS  C311 1306   3.956   1.903  -0.738  0.0776  0.2334  0.9845
   10SAPS  H11X 1307   4.033   1.981  -0.759  0.8261 -1.0327 -1.4190
   10SAPS  H11Y 1308   3.862   1.959  -0.719  0.1715  0.2583  1.3748
   10SAPS  C312 1309   3.929   1.807  -0.854  0.2410 -0.6673  0.0474
   10SAPS  H12X 1310   3.839   1.743  -0.848 -0.8623  0.6722 -1.4266
   10SAPS  H12Y 1311   4.020   1.744  -0.865  0.0921 -0.5770 -2.0852
   10SAPS  C313 1312   3.938   1.876  -0.992 -0.4194  0.0503 -0.5734
   10SAPS  H13X 1313   3.899   1.809  -1.071  1.4809 -2.5971  0.5669
   10SAPS  H13Y 1314   4.045   1.897  -1.011 -0.2709 -0.0214  0.1437
   10SAPS  C314 1315   3.873   2.017  -1.003 -0.2085  0.5036  0.1410
   10SAPS  H14X 1316   3.912   2.082  -0.921  1.5054  0.2462 -0.4302
   10SAPS  H14Y 1317   3.763   2.004  -0.999 -0.1597 -0.9139 -1.7196
   10SAPS  C315 1318   3.907   2.097  -1.126 -0.2350  0.0848  1.0011
   10SAPS  H15X 1319   3.853   2.192  -1.107 -0.1963  0.1970  0.5768
   10SAPS  H15Y 1320   3.871   2.051  -1.221  3.2686  0.7198 -0.7887
   10SAPS  C316 1321   4.058   2.118  -1.152 -0.0177 -0.0761 -1.0576
   10SAPS  H16X 1322   4.098   2.020  -1.186 -0.5476 -1.2350  1.4192
   10SAPS  H16Y 1323   4.108   2.149  -1.057 -2.6419  0.7452  0.1438
   10SAPS  C317 1324   4.087   2.241  -1.241 -0.3107 -1.2476  0.1924
   10SAPS  H17X 1325   4.194   2.241  -1.270 -0.0070  1.4282  1.0101
   10SAPS  H17Y 1326   4.073   2.336  -1.184  0.9834 -0.5655 -0.5729
   10SAPS  C318 1327   3.997   2.252  -1.369 -0.8058 -0.0275 -0.6294
   10SAPS  H18X 1328   3.887   2.246  -1.357 -0.6680 -1.7114  0.2124
   10SAPS  H18Y 1329   4.033   2.174  -1.440 -1.8745  0.5604 -1.8287
   10SAPS  H18Z 1330   4.015   2.352  -1.414 -0.5074  1.0322  1.6938
   11SAPS     N 1331   2.850   2.619   3.858 -0.2908  0.4661 -0.4935
   11SAPS   HN1 1332   2.764   2.561   3.870  0.3710 -0.7027 -1.1576
   11SAPS   HN2 1333   2.901   2.618   3.949 -2.0479 -1.3230  0.5605
   11SAPS   HN3 1334   2.833   2.719   3.836 -1.1161  0.6582  0.8745
   11SAPS   C12 1335   2.934   2.576   3.746 -0.0269  0.0188  0.0994
   11SAPS  H12A 1336   2.874   2.587   3.657 -2.2203 -1.2088  1.3224
   11SAPS   C13 1337   3.072   2.654   3.724  0.3904  0.2974 -0.0542
   11SAPS  O13A 1338   3.095   2.746   3.811 -0.3301  0.3902  0.5551
   11SAPS  O13B 1339   3.122   2.653   3.610  0.7901 -0.6276  0.7323
   11SAPS   C11 1340   2.966   2.427   3.750  0.6225  0.5314 -0.5389
   11SAPS  H11A 1341   3.028   2.401   3.838 -0.8048 -2.8234 -0.3615
   11SAPS  H11B 1342   3.002   2.388   3.653 -0.5848  0.7790 -1.1130
   11SAPS     P 1343   2.832   2.195   3.779  0.4061 -0.0185  0.3985
   11SAPS   O13 1344   2.706   2.149   3.718 -0.1957  0.3702 -0.5582
   11SAPS   O14 1345   2.947   2.123   3.723  0.2358  0.3183  0.1269
   11SAPS   O12 1346   2.841   2.355   3.768 -0.0675 -0.0610  0.1963
   11SAPS   O11 1347   2.832   2.167   3.933 -0.4575 -0.2110  0.2474
   11SAPS    C1 1348   2.739   2.235   4.015  0.2571  0.7902 -0.2977
   11SAPS    HA 1349   2.773   2.340   4.026 -0.1811  0.9194 -0.1395
   11SAPS    HB 1350   2.640   2.239   3.965 -0.9133 -2.7003  1.4127
   11SAPS    C2 1351   2.720   2.173   4.161 -0.8409 -0.5146 -0.8036
   11SAPS    HS 1352   2.658   2.244   4.220  1.8533  1.4745 -0.1618
   11SAPS   O21 1353   2.850   2.153   4.233 -0.6254 -0.1073  0.2106
   11SAPS   C21 1354   2.907   2.266   4.273 -0.7132  0.0630 -0.0516
   11SAPS   O22 1355   2.862   2.375   4.263  0.3728 -0.1643 -0.0750
   11SAPS   C22 1356   3.048   2.232   4.323 -0.4373 -0.2397 -0.4000
   11SAPS   H2R 1357   3.061   2.126   4.293  2.1052  0.3489 -1.6897
   11SAPS   H2S 1358   3.125   2.287   4.264 -0.2454 -0.4148 -0.3145
   11SAPS    C3 1359   2.637   2.043   4.152 -0.2657 -0.8515 -0.4384
   11SAPS    HX 1360   2.680   1.982   4.070 -1.6614 -0.3960 -1.5674
   11SAPS    HY 1361   2.542   2.072   4.102  0.3320  1.2981 -0.3987
   11SAPS   O31 1362   2.621   1.966   4.273 -0.8390  0.1572  0.2953
   11SAPS   C31 1363   2.719   1.885   4.315 -0.3848  0.4530 -0.3804
   11SAPS   O32 1364   2.816   1.865   4.242  0.3934  0.5768 -0.3270
   11SAPS   C32 1365   2.695   1.842   4.461  0.0403 -0.0654 -0.2932
   11SAPS   H2X 1366   2.766   1.765   4.498  0.5321  0.4548 -0.1372
   11SAPS   H2Y 1367   2.594   1.797   4.467  0.5379 -1.1801 -0.0707
   11SAPS   C23 1368   3.076   2.256   4.478  0.0157 -0.0777 -1.0543
   11SAPS   H3R 1369   2.978   2.271   4.529 -0.3273 -0.0112 -1.7159
   11SAPS   H3S 1370   3.133   2.349   4.499  2.5465 -1.8639  0.5726
   11SAPS   C24 1371   3.163   2.146   4.541 -0.4114  0.2139 -0.4016
   11SAPS   H4R 1372   3.204   2.186   4.636 -1.3238  0.0105  0.0970
   11SAPS   H4S 1373   3.253   2.134   4.478 -0.2572 -0.2003 -0.1063
   11SAPS   C25 1374   3.094   2.013   4.565 -0.4611 -0.0164 -0.3120
   11SAPS   H5R 1375   3.041   1.982   4.474 -0.7319  1.7484 -0.7840
   11SAPS   C26 1376   3.091   1.935   4.678 -0.1269  0.3706  0.7144
   11SAPS   H6R 1377   3.040   1.838   4.677  0.3266  0.1267  1.1686
   11SAPS   C27 1378   3.140   1.955   4.820  0.2845  0.1576  0.2696
   11SAPS   H7R 1379   3.251   1.959   4.816  0.5000 -2.9289  0.6743
   11SAPS   H7S 1380   3.112   1.861   4.873  0.5558 -0.5050 -0.7415
   11SAPS   C28 1381   3.083   2.076   4.882 -0.4950 -0.8327 -0.6469
   11SAPS   H8R 1382   3.064   2.165   4.820 -1.5677  0.4813  1.4316
   11SAPS   C29 1383   3.038   2.074   5.008  0.5828  0.3405 -1.1068
   11SAPS   H9R 1384   2.984   2.163   5.044 -1.1880 -1.3299  0.5484
   11SAPS  C210 1385   3.057   1.970   5.110  0.9493  0.7291 -0.4626
   11SAPS  H10R 1386   3.066   2.025   5.206 -1.3677 -0.5643  0.5734
   11SAPS  H10S 1387   3.154   1.918   5.096 -0.3912 -1.3855 -2.7536
   11SAPS  C211 1388   2.949   1.859   5.119 -0.6630  0.7857 -0.0469
   11SAPS  H11R 1389   2.865   1.878   5.050 -0.0915 -0.3571 -1.1067
   11SAPS  C212 1390   2.939   1.763   5.217 -0.6256  0.6545  0.0525
   11SAPS  H12R 1391   2.854   1.694   5.210 -0.5088  0.3870  1.0979
   11SAPS  C213 1392   3.050   1.730   5.318 -0.0949  0.4538  0.1177
   11SAPS  H13R 1393   3.088   1.831   5.345 -0.1069  0.3097  0.7042
   11SAPS  H13S 1394   3.136   1.680   5.270 -0.8969 -1.2411  0.3635
   11SAPS  C214 1395   3.018   1.662   5.446  0.2011  0.0456  0.6435
   11SAPS  H14R 1396   2.912   1.662   5.476 -0.2424 -0.4863 -0.8245
   11SAPS  C215 1397   3.107   1.610   5.537  0.3348  0.0520  0.3844
   11SAPS  H15R 1398   3.070   1.560   5.628 -2.7443  0.7409 -0.3620
   11SAPS  C216 1399   3.259   1.604   5.524 -0.5799  0.3080 -0.3549
   11SAPS  H16R 1400   3.299   1.684   5.458 -0.0705  0.4413  0.1062
   11SAPS  H16S 1401   3.276   1.507   5.472 -2.8493  0.0378 -0.6877
   11SAPS  C217 1402   3.336   1.615   5.649 -0.2608  0.2120  0.3174
   11SAPS  H17R 1403   3.442   1.588   5.628 -0.7424 -0.3136 -1.6028
   11SAPS  H17S 1404   3.321   1.532   5.721  1.0373 -0.8142 -0.5330
   11SAPS  C218 1405   3.321   1.755   5.720  0.2851  0.5188 -0.1711
   11SAPS  H18R 1406   3.214   1.765   5.751  0.3212 -1.9247  0.9938
   11SAPS  H18S 1407   3.345   1.831   5.643  0.6198 -0.2465 -0.8268
   11SAPS  C219 1408   3.412   1.769   5.845 -0.5406  0.1182  0.0239
   11SAPS  H19R 1409   3.518   1.757   5.813 -0.6520  1.5145 -0.9275
   11SAPS  H19S 1410   3.388   1.698   5.927 -1.0000 -1.0253 -1.0828
   11SAPS  C220 1411   3.423   1.914   5.905 -0.0237 -0.0205  0.1084
   11SAPS  H20R 1412   3.493   1.919   5.992 -0.7844 -4.0259  1.1603
   11SAPS  H20S 1413   3.324   1.951   5.938  0.0451 -1.9348  2.8420
   11SAPS  H20T 1414   3.473   1.984   5.836  0.1320 -1.6803 -1.5382
   11SAPS   C33 1415   2.689   1.954   4.563  0.5297 -0.2370 -0.0038
   11SAPS   H3X 1416   2.604   2.022   4.540 -0.0743 -0.3827  1.6388
   11SAPS   H3Y 1417   2.777   2.022   4.565 -0.8921  1.7456  2.7087
   11SAPS   C34 1418   2.697   1.921   4.715  0.3515  0.3885  0.5051
   11SAPS   H4X 1419   2.696   2.019   4.769 -1.0372  0.3471  0.5853
   11SAPS   H4Y 1420   2.799   1.878   4.724 -0.6689 -2.3803 -0.1602
   11SAPS   C35 1421   2.598   1.819   4.765 -0.1400 -0.2518 -0.1061
   11SAPS   H5X 1422   2.614   1.718   4.720 -0.6746  0.0718 -1.0506
   11SAPS   H5Y 1423   2.497   1.855   4.737  1.5850  2.5619 -3.4983
   11SAPS   C36 1424   2.599   1.808   4.917 -0.4979  0.3255  0.6550
   11SAPS   H6X 1425   2.630   1.902   4.967  1.6564 -0.2167  0.4434
   11SAPS   H6Y 1426   2.685   1.743   4.946 -0.2581 -0.1089 -0.9657
   11SAPS   C37 1427   2.468   1.767   4.981 -0.1076 -0.3617  0.1289
   11SAPS   H7X 1428   2.417   1.680   4.934 -3.6635  1.0707  0.9828
   11SAPS   H7Y 1429   2.399   1.854   4.976 -2.4677 -2.1571 -0.4295
   11SAPS   C38 1430   2.492   1.726   5.121 -0.3659 -0.2434  0.8916
   11SAPS   H8X 1431   2.561   1.640   5.130 -0.7552 -0.4870  1.6202
   11SAPS   H8Y 1432   2.396   1.688   5.162 -1.0488 -1.5332 -1.7310
   11SAPS   C39 1433   2.552   1.844   5.209  0.7207  0.1732  0.1470
   11SAPS   H9X 1434   2.479   1.920   5.174  1.1995 -0.1448 -1.6241
   11SAPS   H9Y 1435   2.653   1.878   5.178 -0.0633  1.3722 -1.2510
   11SAPS  C310 1436   2.528   1.818   5.356 -0.0201 -0.5103 -0.2071
   11SAPS  H10X 1437   2.418   1.822   5.373  0.0865  0.6399  0.3593
   11SAPS  H10Y 1438   2.565   1.902   5.419 -0.8882 -0.4105  0.1918
   11SAPS  C311 1439   2.583   1.681   5.410  0.6555 -0.7506 -0.5809
   11SAPS  H11X 1440   2.693   1.677   5.397  1.3837  0.4581  3.6610
   11SAPS  H11Y 1441   2.529   1.599   5.358 -0.5181  0.7936 -1.9126
   11SAPS  C312 1442   2.552   1.671   5.560  0.5550  0.3285 -0.6336
   11SAPS  H12X 1443   2.555   1.567   5.598  0.1959 -0.1397 -1.8174
   11SAPS  H12Y 1444   2.444   1.694   5.576  1.1631  1.9610  1.6372
   11SAPS  C313 1445   2.630   1.766   5.643  0.2366  0.7419  1.0020
   11SAPS  H13X 1446   2.578   1.865   5.648 -0.1814  0.5653  0.3096
   11SAPS  H13Y 1447   2.732   1.779   5.602  0.2181 -0.3739  0.5741
   11SAPS  C314 1448   2.657   1.718   5.781 -0.1244 -0.0955 -0.4187
   11SAPS  H14X 1449   2.716   1.624   5.779  0.0354 -0.0069 -0.0289
   11SAPS  H14Y 1450   2.565   1.675   5.828  0.0867  0.0557  0.1483
   11SAPS  C315 1451   2.730   1.820   5.869  0.0780  0.6407 -0.3686
   11SAPS  H15X 1452   2.681   1.913   5.832 -1.4407 -1.0524 -2.9591
   11SAPS  H15Y 1453   2.839   1.814   5.847 -0.0673  0.5326 -1.0721
   11SAPS  C316 1454   2.726   1.797   6.021  0.1537 -0.6480  0.4756
   11SAPS  H16X 1455   2.791   1.882   6.055  0.2787 -0.5626  0.0267
   11SAPS  H16Y 1456   2.766   1.697   6.049  0.4179 -0.7109 -0.1239
   11SAPS  C317 1457   2.591   1.805   6.096 -0.8037 -0.3744 -0.2007
   11SAPS  H17X 1458   2.621   1.800   6.203 -0.7738  1.2183 -0.1129
   11SAPS  H17Y 1459   2.536   1.711   6.076 -0.4493 -0.8096  0.8044
   11SAPS  C318 1460   2.505   1.927   6.064 -0.4221 -0.2342  0.1504
   11SAPS  H18X 1461   2.420   1.941   6.135  0.1937 -1.5648  1.1840
   11SAPS  H18Y 1462   2.464   1.937   5.961  1.5831  0.8167 -0.6001
   11SAPS  H18Z 1463   2.566   2.019   6.077  1.8498 -1.7349  0.5762
   12SAPS     N 1464   5.551   0.248   3.588  0.4830 -0.0630 -0.0223
   12SAPS   HN1 1465   5.607   0.333   3.565  0.5048 -0.1814 -0.4203
   12SAPS   HN2 1466   5.504   0.263   3.679  2.4867 -0.4537  1.1142
   12SAPS   HN3 1467   5.619   0.171   3.596  1.6798  0.8964 -0.5676
   12SAPS   C12 1468   5.439   0.214   3.499  0.1992 -0.3106 -0.2559
   12SAPS  H12A 1469   5.361   0.278   3.537  1.1947  0.8565 -0.0945
   12SAPS   C13 1470   5.445   0.246   3.351 -0.4624  0.3955  0.1915
   12SAPS  O13A 1471   5.559   0.288   3.310  0.2815 -0.2792 -0.0087
   12SAPS  O13B 1472   5.346   0.228   3.278 -0.6967  0.9189 -0.1445
   12SAPS   C11 1473   5.387   0.073   3.513  0.2111 -0.5419 -0.2816
   12SAPS  H11A 1474   5.458   0.005   3.461 -0.3500 -2.0326  0.8297
   12SAPS  H11B 1475   5.299   0.057   3.448  0.4422 -0.9529 -0.4972
   12SAPS     P 1476   5.229   0.046   3.733  0.0275 -0.4092  0.6688
   12SAPS   O13 1477   5.134   0.143   3.678  0.8219 -0.3761 -0.5096
   12SAPS   O14 1478   5.175  -0.092   3.743 -0.1953  0.2982 -0.1580
   12SAPS   O12 1479   5.361   0.037   3.647  0.7703  0.0160 -0.2792
   12SAPS   O11 1480   5.281   0.085   3.877 -0.3914  0.6210 -0.1024
   12SAPS    C1 1481   5.393   0.018   3.940 -0.3518 -0.5720  0.0343
   12SAPS    HA 1482   5.373  -0.090   3.931 -0.2532 -0.6732  0.8966
   12SAPS    HB 1483   5.486   0.036   3.881 -0.6045  1.4797  0.1635
   12SAPS    C2 1484   5.416   0.066   4.089  0.3718 -0.2231 -0.8514
   12SAPS    HS 1485   5.327   0.026   4.141 -0.0130  1.1220 -0.4179
   12SAPS   O21 1486   5.427   0.212   4.087  0.5799 -0.4273 -0.0039
   12SAPS   C21 1487   5.375   0.268   4.193 -0.0612 -0.6344 -0.2004
   12SAPS   O22 1488   5.354   0.203   4.295  0.2610 -0.1018  0.1295
   12SAPS   C22 1489   5.341   0.422   4.169 -0.2383 -0.0566 -0.4986
   12SAPS   H2R 1490   5.425   0.479   4.125  0.6520  0.4038  1.6358
   12SAPS   H2S 1491   5.251   0.429   4.105 -0.8797 -1.1980  0.2403
   12SAPS    C3 1492   5.545   0.008   4.150 -0.3599 -1.0083 -0.2400
   12SAPS    HX 1493   5.635   0.054   4.105 -1.3276  2.1307  0.7794
   12SAPS    HY 1494   5.534  -0.101   4.130 -0.1634 -0.8176 -1.4866
   12SAPS   O31 1495   5.557   0.014   4.295  0.2360  0.5607  0.5326
   12SAPS   C31 1496   5.472  -0.055   4.370  0.1240 -0.8369 -0.4710
   12SAPS   O32 1497   5.390  -0.138   4.333 -0.7450 -0.1674 -0.0486
   12SAPS   C32 1498   5.486  -0.006   4.513 -0.2685 -0.6154 -0.5900
   12SAPS   H2X 1499   5.407   0.069   4.537  1.4525  1.3364 -0.7200
   12SAPS   H2Y 1500   5.581   0.051   4.519 -1.8386  2.2051 -0.6631
   12SAPS   C23 1501   5.308   0.481   4.303 -0.3626 -0.4159 -0.1248
   12SAPS   H3R 1502   5.337   0.588   4.293  1.1950 -0.8185 -0.1428
   12SAPS   H3S 1503   5.375   0.442   4.382 -1.8816  1.4836  2.2549
   12SAPS   C24 1504   5.162   0.467   4.341  0.4769 -0.7174 -0.5612
   12SAPS   H4R 1505   5.139   0.359   4.355 -0.6476 -0.3201  0.8786
   12SAPS   H4S 1506   5.093   0.495   4.258  0.5713 -0.9405 -0.7183
   12SAPS   C25 1507   5.126   0.553   4.456  0.0458  0.6834 -0.0181
   12SAPS   H5R 1508   5.071   0.645   4.429  0.3377  0.0620 -3.0705
   12SAPS   C26 1509   5.148   0.526   4.585 -0.1426  0.2708 -0.2913
   12SAPS   H6R 1510   5.108   0.600   4.657 -0.3784  0.2736 -0.4253
   12SAPS   C27 1511   5.222   0.408   4.644 -0.2670  0.1257  0.1921
   12SAPS   H7R 1512   5.262   0.439   4.743 -1.8174  2.8489  0.0649
   12SAPS   H7S 1513   5.315   0.388   4.587 -0.6260  1.5503 -0.9531
   12SAPS   C28 1514   5.141   0.277   4.654 -0.2433 -0.6961 -0.0937
   12SAPS   H8R 1515   5.121   0.231   4.556  1.2636  0.3980 -0.9561
   12SAPS   C29 1516   5.085   0.224   4.770  0.1859 -0.8981  0.7672
   12SAPS   H9R 1517   5.028   0.132   4.753 -3.1352  0.9991  0.6949
   12SAPS  C210 1518   5.091   0.282   4.913 -0.6792 -0.1010 -0.5914
   12SAPS  H10R 1519   4.983   0.289   4.941 -0.2497  1.3532  0.9176
   12SAPS  H10S 1520   5.134   0.384   4.913  0.4354 -0.5382  0.4695
   12SAPS  C211 1521   5.160   0.194   5.015 -0.3654  0.6102 -0.0234
   12SAPS  H11R 1522   5.184   0.094   4.976  0.3931  1.4410 -1.7996
   12SAPS  C212 1523   5.205   0.219   5.139  0.4891 -1.0302 -0.5489
   12SAPS  H12R 1524   5.259   0.144   5.199  0.5234 -0.0864  0.6455
   12SAPS  C213 1525   5.183   0.359   5.191 -0.5147  0.2254  0.4858
   12SAPS  H13R 1526   5.090   0.367   5.251 -0.1890  1.6407  0.8473
   12SAPS  H13S 1527   5.172   0.430   5.106  0.8853 -0.2136 -0.0957
   12SAPS  C214 1528   5.308   0.403   5.267 -0.2511  0.2873  0.2819
   12SAPS  H14R 1529   5.378   0.451   5.197  2.0770  0.2337  2.3977
   12SAPS  C215 1530   5.335   0.387   5.394 -0.0323  0.2944 -0.0141
   12SAPS  H15R 1531   5.439   0.409   5.423  0.4800 -1.3201 -0.5593
   12SAPS  C216 1532   5.248   0.310   5.491  0.4847  0.0158  0.4894
   12SAPS  H16R 1533   5.306   0.232   5.544 -1.1864 -0.8600  1.0916
   12SAPS  H16S 1534   5.166   0.252   5.445  0.6302 -0.5882  0.9856
   12SAPS  C217 1535   5.201   0.402   5.612 -0.0912 -0.0600 -0.0781
   12SAPS  H17R 1536   5.105   0.452   5.587 -2.0210 -2.9666  0.9115
   12SAPS  H17S 1537   5.278   0.474   5.646 -1.4282  0.7755  1.2621
   12SAPS  C218 1538   5.149   0.317   5.727 -0.2532  0.3245 -0.2623
   12SAPS  H18R 1539   5.220   0.235   5.751 -1.0125 -1.0466 -2.3982
   12SAPS  H18S 1540   5.058   0.259   5.701  1.2598 -1.9264 -0.7393
   12SAPS  C219 1541   5.116   0.406   5.846 -0.9394 -0.1191 -0.7317
   12SAPS  H19R 1542   5.033   0.470   5.811 -0.7845  0.6314  0.2277
   12SAPS  H19S 1543   5.207   0.463   5.874  0.4872 -2.2826 -0.6907
   12SAPS  C220 1544   5.055   0.343   5.970  0.6909  0.6046  0.0542
   12SAPS  H20R 1545   5.003   0.422   6.028 -0.7434 -1.7391  2.1994
   12SAPS  H20S 1546   5.131   0.287   6.028 -0.8182 -0.4028  1.1362
   12SAPS  H20T 1547   4.969   0.278   5.945 -1.4125  2.3882  2.2481
   12SAPS   C33 1548   5.480  -0.116   4.624 -0.5530  0.0399  0.7148
   12SAPS   H3X 1549   5.552  -0.200   4.610  0.2099  0.7798  0.1023
   12SAPS   H3Y 1550   5.384  -0.169   4.610  0.4583 -1.1951 -2.1742
   12SAPS   C34 1551   5.485  -0.049   4.761  0.3846  0.5756  0.0204
   12SAPS   H4X 1552   5.427   0.045   4.751 -1.5634 -0.6805 -1.2248
   12SAPS   H4Y 1553   5.591  -0.033   4.790  1.4064 -3.0518 -1.2008
   12SAPS   C35 1554   5.428  -0.138   4.877 -0.6368  0.4015 -0.1718
   12SAPS   H5X 1555   5.461  -0.244   4.877 -2.9664 -0.3997 -1.1235
   12SAPS   H5Y 1556   5.317  -0.137   4.870 -0.7571 -0.7248  1.2435
   12SAPS   C36 1557   5.458  -0.074   5.009  0.0568  0.1848  0.0003
   12SAPS   H6X 1558   5.415   0.027   5.024 -0.8507  0.0007 -1.1616
   12SAPS   H6Y 1559   5.567  -0.066   5.025  0.5696 -0.7073 -2.5071
   12SAPS   C37 1560   5.400  -0.157   5.128  0.4336 -0.3852  0.1761
   12SAPS   H7X 1561   5.424  -0.266   5.121 -1.8648 -0.9402  0.2338
   12SAPS   H7Y 1562   5.292  -0.140   5.112  0.7757  0.8152 -0.9934
   12SAPS   C38 1563   5.437  -0.113   5.269  0.2385  0.2869  0.1888
   12SAPS   H8X 1564   5.433  -0.002   5.258 -0.2855  0.2777  0.2625
   12SAPS   H8Y 1565   5.545  -0.137   5.279  0.4284  0.7853 -0.5639
   12SAPS   C39 1566   5.345  -0.171   5.369  0.7118  0.1450 -0.2041
   12SAPS   H9X 1567   5.329  -0.276   5.338 -2.2535  0.2547  0.6623
   12SAPS   H9Y 1568   5.247  -0.123   5.351  1.0620  0.6928 -0.6958
   12SAPS  C310 1569   5.401  -0.159   5.511 -1.3043  0.4984  0.2568
   12SAPS  H10X 1570   5.426  -0.051   5.517  0.2441  0.3696 -2.2423
   12SAPS  H10Y 1571   5.494  -0.220   5.514 -0.6173  1.5593  0.9440
   12SAPS  C311 1572   5.308  -0.183   5.622 -0.1089 -0.5045  0.0271
   12SAPS  H11X 1573   5.294  -0.292   5.638 -0.4058 -0.1682  2.4536
   12SAPS  H11Y 1574   5.211  -0.136   5.599 -0.8323 -1.5426  0.8483
   12SAPS  C312 1575   5.349  -0.111   5.748  0.6943 -0.0305 -0.0776
   12SAPS  H12X 1576   5.313  -0.008   5.728 -1.4297 -1.0085 -1.6132
   12SAPS  H12Y 1577   5.459  -0.125   5.744  0.6826 -0.1212 -3.7313
   12SAPS  C313 1578   5.287  -0.173   5.873  0.1663 -0.3797  0.3933
   12SAPS  H13X 1579   5.346  -0.261   5.907  0.4558  0.5952  2.6053
   12SAPS  H13Y 1580   5.180  -0.198   5.857  0.1612  0.6710 -1.4545
   12SAPS  C314 1581   5.301  -0.072   5.996 -0.3123  0.4742 -0.0853
   12SAPS  H14X 1582   5.256  -0.115   6.088 -1.5902  0.0020 -0.8990
   12SAPS  H14Y 1583   5.245   0.019   5.968  0.3087  0.7659 -0.3902
   12SAPS  C315 1584   5.448  -0.040   6.032 -0.3746  0.3558  0.0170
   12SAPS  H15X 1585   5.485   0.016   5.944 -2.1521 -1.0627 -1.7329
   12SAPS  H15Y 1586   5.510  -0.132   6.044 -0.4298  0.2160 -0.7113
   12SAPS  C316 1587   5.450   0.055   6.157  0.2793  0.2392  0.1272
   12SAPS  H16X 1588   5.398   0.003   6.240  1.4184 -2.2339 -0.6104
   12SAPS  H16Y 1589   5.397   0.149   6.130  0.2121 -0.1329 -1.0974
   12SAPS  C317 1590   5.588   0.087   6.206 -0.4293  0.1013  0.6019
   12SAPS  H17X 1591   5.641   0.152   6.134  0.0305 -0.6252  0.2674
   12SAPS  H17Y 1592   5.644  -0.009   6.206 -1.3223 -0.6788 -3.9877
   12SAPS  C318 1593   5.598   0.147   6.346  0.9238  0.1332  0.0178
   12SAPS  H18X 1594   5.554   0.075   6.419  0.7260  0.2930  0.0571
   12SAPS  H18Y 1595   5.540   0.241   6.359  1.7069  0.3102  3.0382
   12SAPS  H18Z 1596   5.705   0.165   6.367  1.3925 -0.6536 -1.5962
   13SAPS     N 1597   5.926   6.033   3.778 -0.1211 -0.0385  0.6428
   13SAPS   HN1 1598   5.890   6.014   3.874 -0.9966 -0.5018  0.2333
   13SAPS   HN2 1599   6.011   5.976   3.766 -0.3723 -0.4563  0.8235
   13SAPS   HN3 1600   5.952   6.134   3.770 -0.9387  0.0339 -1.9651
   13SAPS   C12 1601   5.816   6.003   3.679  1.1257 -0.1660 -0.6115
   13SAPS  H12A 1602   5.744   6.083   3.687 -1.1521 -2.2247  0.9935
   13SAPS   C13 1603   5.851   5.984   3.527  0.5982  0.3258 -0.7374
   13SAPS  O13A 1604   5.969   6.005   3.491 -0.0448  0.2508  0.2067
   13SAPS  O13B 1605   5.764   5.945   3.439 -0.7684  0.0140 -0.0048
   13SAPS   C11 1606   5.746   5.870   3.737 -0.5915 -0.3889  0.0725
   13SAPS  H11A 1607   5.819   5.786   3.725  0.6939  0.7092 -0.0523
   13SAPS  H11B 1608   5.665   5.848   3.665 -0.8820 -0.0064  0.2793
   13SAPS     P 1609   5.606   5.789   3.938  0.1465 -0.2008 -0.3980
   13SAPS   O13 1610   5.515   5.735   3.831  0.1863 -0.7974  0.0015
   13SAPS   O14 1611   5.668   5.689   4.030 -0.4188  0.0513  0.0106
   13SAPS   O12 1612   5.710   5.883   3.872 -0.2638 -0.7360 -0.3224
   13SAPS   O11 1613   5.521   5.882   4.020  0.1212 -0.0323  0.1801
   13SAPS    C1 1614   5.448   5.995   3.988  0.0401 -0.2217 -0.0479
   13SAPS    HA 1615   5.505   6.065   3.923 -0.6939 -0.2263 -0.7096
   13SAPS    HB 1616   5.355   5.967   3.934  0.4639  1.4942 -1.7912
   13SAPS    C2 1617   5.415   6.074   4.113 -0.6644  0.2593 -0.6486
   13SAPS    HS 1618   5.508   6.104   4.165  0.6005 -3.0009 -0.7681
   13SAPS   O21 1619   5.331   5.999   4.200 -0.2284 -0.5305 -0.3487
   13SAPS   C21 1620   5.392   5.946   4.300  0.9869 -0.2107  0.5163
   13SAPS   O22 1621   5.513   5.951   4.327  0.2891 -0.3138 -0.0367
   13SAPS   C22 1622   5.291   5.863   4.378 -0.2940 -0.6358 -0.2173
   13SAPS   H2R 1623   5.200   5.854   4.315 -0.4752  2.1504 -0.4631
   13SAPS   H2S 1624   5.339   5.763   4.386  1.7249  0.3706  1.3128
   13SAPS    C3 1625   5.346   6.212   4.072 -0.7986  0.7124 -0.0203
   13SAPS    HX 1626   5.271   6.190   3.993 -0.8119  1.5317 -0.2440
   13SAPS    HY 1627   5.428   6.268   4.022 -0.3752  0.1848  0.0709
   13SAPS   O31 1628   5.291   6.276   4.192 -0.3189 -0.2080  0.1763
   13SAPS   C31 1629   5.161   6.263   4.215  0.3713  0.6904  0.5301
   13SAPS   O32 1630   5.086   6.181   4.157 -0.8244  0.2716  1.1751
   13SAPS   C32 1631   5.107   6.343   4.337  0.4176  0.2492 -0.7029
   13SAPS   H2X 1632   5.008   6.380   4.305  0.0964  1.9823  1.9608
   13SAPS   H2Y 1633   5.164   6.439   4.340 -0.8076  0.9822 -0.2591
   13SAPS   C23 1634   5.249   5.912   4.516 -0.8960 -0.3594  0.3075
   13SAPS   H3R 1635   5.155   5.859   4.543 -1.6925 -0.8481 -3.0426
   13SAPS   H3S 1636   5.212   6.016   4.500 -1.5081  0.0418  3.6351
   13SAPS   C24 1637   5.361   5.906   4.625 -0.0443  0.2653 -1.0669
   13SAPS   H4R 1638   5.455   5.943   4.579  0.6339  0.8196  0.6656
   13SAPS   H4S 1639   5.373   5.797   4.641 -1.5220  0.4745  2.4612
   13SAPS   C25 1640   5.319   5.980   4.748 -0.0731 -0.0111 -0.5490
   13SAPS   H5R 1641   5.330   6.089   4.748  0.8389 -0.0728  0.8205
   13SAPS   C26 1642   5.280   5.924   4.867  0.5703  0.1886 -0.3086
   13SAPS   H6R 1643   5.246   5.989   4.949 -1.4567 -2.1861  0.8669
   13SAPS   C27 1644   5.258   5.778   4.908  0.3810  0.0372 -0.0947
   13SAPS   H7R 1645   5.286   5.781   5.016  1.2314  0.8928 -0.3177
   13SAPS   H7S 1646   5.332   5.711   4.859  0.6388  0.8589 -0.8559
   13SAPS   C28 1647   5.119   5.731   4.879 -0.2290  0.4142  0.4446
   13SAPS   H8R 1648   5.074   5.779   4.791 -0.5386 -0.3753  0.1660
   13SAPS   C29 1649   5.041   5.638   4.945 -0.1585 -0.9201  0.0074
   13SAPS   H9R 1650   4.938   5.627   4.908 -0.1292  2.7848 -1.5501
   13SAPS  C210 1651   5.080   5.569   5.066 -0.0980  0.1119 -0.1533
   13SAPS  H10R 1652   5.191   5.574   5.072 -0.1917  0.8785  1.3651
   13SAPS  H10S 1653   5.050   5.463   5.053  3.1282 -0.7884 -1.2374
   13SAPS  C211 1654   5.034   5.626   5.200 -0.0475 -0.3306  0.6859
   13SAPS  H11R 1655   5.030   5.735   5.190  0.1448 -0.2876  1.0722
   13SAPS  C212 1656   5.013   5.570   5.315 -0.0691  0.5647 -0.5954
   13SAPS  H12R 1657   4.991   5.634   5.402 -1.8231  0.3310 -0.8383
   13SAPS  C213 1658   5.020   5.422   5.353  0.9376  0.0146 -0.0367
   13SAPS  H13R 1659   5.117   5.392   5.397  1.6736  1.4748 -0.5913
   13SAPS  H13S 1660   4.997   5.356   5.266 -0.9800 -0.1285  0.5325
   13SAPS  C214 1661   4.895   5.399   5.426  0.2003 -0.5924 -0.4457
   13SAPS  H14R 1662   4.812   5.392   5.355  1.5580  0.0781 -2.1577
   13SAPS  C215 1663   4.872   5.382   5.555  0.0100 -0.1728 -0.4614
   13SAPS  H15R 1664   4.769   5.358   5.587 -0.3645  1.6912 -0.1128
   13SAPS  C216 1665   4.964   5.390   5.665 -0.7199 -0.3628 -0.4950
   13SAPS  H16R 1666   5.013   5.490   5.670 -1.7879  0.1230  0.8096
   13SAPS  H16S 1667   5.051   5.321   5.659  0.6127  1.1544  0.4730
   13SAPS  C217 1668   4.889   5.392   5.798  0.7236  0.4516  0.1072
   13SAPS  H17R 1669   4.836   5.297   5.817 -2.7353  2.7095  3.5150
   13SAPS  H17S 1670   4.806   5.466   5.797 -1.7315 -2.1382  0.5285
   13SAPS  C218 1671   5.001   5.409   5.910  1.0695 -0.1840 -0.3750
   13SAPS  H18R 1672   5.069   5.493   5.886 -0.5881  0.8225 -1.7698
   13SAPS  H18S 1673   5.056   5.312   5.903  2.8318  0.7269  0.3891
   13SAPS  C219 1674   4.945   5.414   6.051 -0.0869 -0.0477 -0.3494
   13SAPS  H19R 1675   4.879   5.503   6.058 -1.3403 -0.9561 -0.2972
   13SAPS  H19S 1676   5.031   5.428   6.120 -0.1701  0.3456 -0.3241
   13SAPS  C220 1677   4.860   5.298   6.094  0.2488 -0.2642 -1.5415
   13SAPS  H20R 1678   4.911   5.203   6.066  0.5271 -0.2863 -0.9848
   13SAPS  H20S 1679   4.772   5.293   6.027 -0.7548 -1.5530 -0.1949
   13SAPS  H20T 1680   4.825   5.300   6.199 -0.5314 -1.5658 -1.7514
   13SAPS   C33 1681   5.103   6.276   4.475 -0.6556  0.1485 -0.1251
   13SAPS   H3X 1682   5.084   6.350   4.556 -1.7516 -0.3821  0.1225
   13SAPS   H3Y 1683   5.188   6.208   4.498 -1.4306 -1.4560 -1.7687
   13SAPS   C34 1684   4.965   6.209   4.490 -0.4992 -0.1512 -0.0680
   13SAPS   H4X 1685   4.947   6.135   4.408 -3.0503  1.0648 -0.7219
   13SAPS   H4Y 1686   4.882   6.282   4.481 -0.9448 -0.3872  1.7050
   13SAPS   C35 1687   4.942   6.135   4.624 -0.3039  0.3753  0.7925
   13SAPS   H5X 1688   5.002   6.043   4.609 -1.6028 -0.3943  0.1066
   13SAPS   H5Y 1689   4.839   6.094   4.638  0.8150 -1.6730  4.1779
   13SAPS   C36 1690   4.981   6.207   4.756 -0.2447 -0.3722 -0.0592
   13SAPS   H6X 1691   4.925   6.303   4.758  2.7337  1.5074 -0.7038
   13SAPS   H6Y 1692   5.088   6.230   4.740 -0.6222  3.0701  1.4807
   13SAPS   C37 1693   4.964   6.120   4.877  0.4010 -0.3690  0.3299
   13SAPS   H7X 1694   5.029   6.032   4.857 -0.4602 -0.8118 -0.6030
   13SAPS   H7Y 1695   4.861   6.078   4.882  0.1035  0.4214  1.0517
   13SAPS   C38 1696   5.001   6.200   5.004  0.0969  1.0531 -0.3724
   13SAPS   H8X 1697   4.929   6.281   5.026  0.1926  0.9089  0.5323
   13SAPS   H8Y 1698   5.100   6.247   4.987 -0.4345  1.8895 -1.2594
   13SAPS   C39 1699   5.020   6.110   5.128  0.8395  0.5179  0.2703
   13SAPS   H9X 1700   5.094   6.142   5.204  1.7913 -0.9942  0.0214
   13SAPS   H9Y 1701   5.063   6.015   5.090 -0.5369  0.0658 -0.2226
   13SAPS  C310 1702   4.887   6.083   5.205 -0.8655 -0.3067  0.8319
   13SAPS  H10X 1703   4.812   6.034   5.139 -0.6344  1.5508 -0.9121
   13SAPS  H10Y 1704   4.851   6.183   5.238  1.3773 -0.1309  3.0399
   13SAPS  C311 1705   4.884   5.999   5.339  0.8544 -0.7626 -0.5604
   13SAPS  H11X 1706   4.955   6.043   5.412  1.9380 -2.4094 -0.5792
   13SAPS  H11Y 1707   4.919   5.897   5.315  0.1547 -0.8981 -1.0422
   13SAPS  C312 1708   4.742   5.989   5.407  0.8446 -0.4947 -0.2970
   13SAPS  H12X 1709   4.691   5.900   5.364  1.3407 -1.2632  0.6730
   13SAPS  H12Y 1710   4.699   6.090   5.387  2.2607  0.0906 -0.5070
   13SAPS  C313 1711   4.759   5.974   5.559  0.0872 -0.9298 -0.3532
   13SAPS  H13X 1712   4.660   5.988   5.607  0.4034 -0.0827  0.0703
   13SAPS  H13Y 1713   4.816   6.059   5.602  1.2344 -1.9283  0.1726
   13SAPS  C314 1714   4.819   5.841   5.610 -0.2870  0.0967  0.8699
   13SAPS  H14X 1715   4.914   5.821   5.555  0.0241  3.0007  0.1823
   13SAPS  H14Y 1716   4.768   5.746   5.583 -1.0312  0.8118 -0.3360
   13SAPS  C315 1717   4.837   5.847   5.764  0.2290  0.5404 -0.0478
   13SAPS  H15X 1718   4.908   5.923   5.803 -0.4798  1.1879  0.0054
   13SAPS  H15Y 1719   4.881   5.750   5.797  0.5123  0.4861 -0.5654
   13SAPS  C316 1720   4.706   5.864   5.849  1.0119  0.3128 -0.2863
   13SAPS  H16X 1721   4.625   5.800   5.806  1.6110 -1.3299  0.9387
   13SAPS  H16Y 1722   4.664   5.967   5.835 -1.1659 -0.6389 -1.3152
   13SAPS  C317 1723   4.719   5.826   6.005 -0.6813  0.1386 -0.1787
   13SAPS  H17X 1724   4.802   5.893   6.037  0.8979 -1.8218  0.0448
   13SAPS  H17Y 1725   4.739   5.718   6.021 -1.5617 -0.2040 -1.2604
   13SAPS  C318 1726   4.593   5.855   6.080 -0.0658 -0.5667 -0.3309
   13SAPS  H18X 1727   4.512   5.791   6.040 -2.7214  1.2394  1.7874
   13SAPS  H18Y 1728   4.562   5.957   6.051  0.3596 -0.6219 -1.0202
   13SAPS  H18Z 1729   4.603   5.853   6.191  1.9938  3.0438 -0.2974
   14SAPS     N 1730   4.003   5.969   3.575  0.4541  0.5997 -0.4232
   14SAPS   HN1 1731   3.929   5.903   3.544  0.2481  0.3546  0.5777
   14SAPS   HN2 1732   4.083   5.918   3.617 -1.1517 -1.7636 -0.0209
   14SAPS   HN3 1733   3.964   6.037   3.643 -3.3470 -0.4625 -1.2972
   14SAPS   C12 1734   4.062   6.045   3.460 -0.0436 -0.4915 -0.1052
   14SAPS  H12A 1735   4.080   5.984   3.373 -0.5995  0.2869 -0.7765
   14SAPS   C13 1736   3.978   6.159   3.404 -0.0438 -0.0432  0.1240
   14SAPS  O13A 1737   3.885   6.211   3.468  0.5652  0.0998 -0.1696
   14SAPS  O13B 1738   4.032   6.219   3.307 -0.4928  0.8144 -0.2816
   14SAPS   C11 1739   4.196   6.099   3.522  0.1277 -0.3524 -0.1131
   14SAPS  H11A 1740   4.178   6.152   3.619  0.8212 -0.1472 -0.0906
   14SAPS  H11B 1741   4.225   6.181   3.454 -1.3961 -0.0200 -0.4085
   14SAPS     P 1742   4.337   5.927   3.667  0.2544  0.0824 -0.1380
   14SAPS   O13 1743   4.213   5.845   3.691 -0.0332 -0.5156  0.4259
   14SAPS   O14 1744   4.462   5.856   3.669  0.3073  0.3851  0.8261
   14SAPS   O12 1745   4.303   5.998   3.522  0.1757 -0.0509 -0.1043
   14SAPS   O11 1746   4.344   6.042   3.770 -0.0383 -0.2625 -0.0864
   14SAPS    C1 1747   4.432   6.151   3.753  0.0861 -0.2010  0.0350
   14SAPS    HA 1748   4.537   6.124   3.775  0.6626  1.6392 -0.2731
   14SAPS    HB 1749   4.426   6.200   3.653  2.0415 -0.3143 -0.1740
   14SAPS    C2 1750   4.415   6.261   3.865  0.5917  0.0075 -0.5869
   14SAPS    HS 1751   4.517   6.302   3.884  0.7948 -0.3882 -0.8004
   14SAPS   O21 1752   4.353   6.201   3.981  0.3239 -0.3885  0.2321
   14SAPS   C21 1753   4.434   6.128   4.059 -0.2286 -0.5713  0.1473
   14SAPS   O22 1754   4.554   6.121   4.041  0.0794 -0.1479  0.6397
   14SAPS   C22 1755   4.366   6.077   4.188  0.2219  0.2913 -0.3234
   14SAPS   H2R 1756   4.423   6.113   4.276  1.3330  2.1338 -1.7367
   14SAPS   H2S 1757   4.262   6.114   4.200 -0.1508 -1.3433  2.4441
   14SAPS    C3 1758   4.319   6.363   3.811  0.2010  0.5275  0.5304
   14SAPS    HX 1759   4.225   6.306   3.793  0.9014 -1.0357  1.5942
   14SAPS    HY 1760   4.360   6.415   3.723  0.7094  1.1869  1.1491
   14SAPS   O31 1761   4.302   6.467   3.903  0.0743  0.0743  0.0871
   14SAPS   C31 1762   4.187   6.479   3.978 -0.2353 -0.6372  0.0893
   14SAPS   O32 1763   4.091   6.402   3.964 -0.3783  0.5010 -0.3718
   14SAPS   C32 1764   4.192   6.597   4.074  0.2658 -0.3005 -0.2121
   14SAPS   H2X 1765   4.160   6.691   4.024  0.2126  1.6994  3.2797
   14SAPS   H2Y 1766   4.295   6.613   4.109  0.1409  1.2969 -0.4929
   14SAPS   C23 1767   4.367   5.920   4.194  0.0282 -0.1988 -0.5477
   14SAPS   H3R 1768   4.474   5.889   4.188  0.1147 -0.1580  0.6174
   14SAPS   H3S 1769   4.301   5.881   4.113 -0.9246  0.3578 -0.0558
   14SAPS   C24 1770   4.319   5.860   4.324  0.6537  0.2771 -0.1608
   14SAPS   H4R 1771   4.389   5.895   4.403 -1.1423  0.8130  1.2772
   14SAPS   H4S 1772   4.338   5.753   4.298  0.6941 -0.2690  1.9138
   14SAPS   C25 1773   4.172   5.875   4.356  0.1108 -0.0063 -0.1499
   14SAPS   H5R 1774   4.116   5.845   4.266 -1.2412  0.6471  0.4472
   14SAPS   C26 1775   4.115   5.925   4.470 -0.1876  0.7233 -0.3724
   14SAPS   H6R 1776   4.009   5.951   4.480 -0.3713 -0.3246  0.5225
   14SAPS   C27 1777   4.183   5.952   4.600 -0.1982 -0.1138  0.6173
   14SAPS   H7R 1778   4.282   5.996   4.576 -1.6096  2.4298 -1.0216
   14SAPS   H7S 1779   4.195   5.867   4.670 -0.5597 -1.5363 -0.9818
   14SAPS   C28 1780   4.114   6.063   4.682  0.1084  0.1589 -0.1433
   14SAPS   H8R 1781   4.057   6.136   4.623 -0.2961 -0.8715 -1.0386
   14SAPS   C29 1782   4.104   6.072   4.820  1.1050 -0.3685  0.3709
   14SAPS   H9R 1783   4.056   6.164   4.857  1.9972  0.7542 -1.1126
   14SAPS  C210 1784   4.161   5.975   4.925 -0.8258 -0.8818  0.2669
   14SAPS  H10R 1785   4.211   6.035   5.004  0.5474 -2.5123  0.6769
   14SAPS  H10S 1786   4.240   5.911   4.879 -1.4350 -0.6321 -1.1752
   14SAPS  C211 1787   4.057   5.890   4.993  0.3736  0.3068  0.0549
   14SAPS  H11R 1788   3.980   5.852   4.924 -0.3108 -1.0410  1.5001
   14SAPS  C212 1789   4.043   5.856   5.119  0.3153  0.1865  0.4191
   14SAPS  H12R 1790   3.944   5.833   5.162  0.5559 -0.3470  0.6911
   14SAPS  C213 1791   4.146   5.895   5.221 -0.1165  0.5222  0.4990
   14SAPS  H13R 1792   4.241   5.887   5.163 -0.3569  0.5872  0.0891
   14SAPS  H13S 1793   4.142   5.816   5.299 -2.3874 -2.1439 -2.0608
   14SAPS  C214 1794   4.120   6.024   5.288  0.2534 -0.3893 -0.2836
   14SAPS  H14R 1795   4.036   6.087   5.253  0.5085  0.9955  1.4701
   14SAPS  C215 1796   4.201   6.070   5.378  0.1809 -0.1062 -0.5968
   14SAPS  H15R 1797   4.177   6.169   5.421 -0.6731 -0.0565 -1.1559
   14SAPS  C216 1798   4.328   6.009   5.432  0.4317  0.4436  0.0978
   14SAPS  H16R 1799   4.406   6.087   5.424  3.4155 -2.4035 -1.0000
   14SAPS  H16S 1800   4.364   5.926   5.369  0.6599 -0.7041  1.6625
   14SAPS  C217 1801   4.311   5.967   5.582 -0.4974  0.6041  0.5474
   14SAPS  H17R 1802   4.392   5.899   5.615 -0.4945  0.6077  0.5474
   14SAPS  H17S 1803   4.215   5.916   5.606 -0.7355  0.7829 -0.0075
   14SAPS  C218 1804   4.328   6.086   5.667 -0.3456  0.0240  0.2646
   14SAPS  H18R 1805   4.279   6.175   5.621 -2.9087 -2.0418 -1.2952
   14SAPS  H18S 1806   4.436   6.108   5.681  0.0575 -0.9037 -1.2021
   14SAPS  C219 1807   4.267   6.074   5.810 -0.5609 -0.6764 -0.3333
   14SAPS  H19R 1808   4.325   5.999   5.868 -0.8644 -0.3260  0.4407
   14SAPS  H19S 1809   4.160   6.046   5.803 -0.5124 -1.0907  0.4554
   14SAPS  C220 1810   4.281   6.213   5.878  0.5813 -1.0288 -0.0093
   14SAPS  H20R 1811   4.208   6.272   5.819  1.8674 -1.8746 -2.6143
   14SAPS  H20S 1812   4.385   6.253   5.874 -0.0176  0.6836  0.5674
   14SAPS  H20T 1813   4.244   6.212   5.982  0.1641 -0.3557 -0.1401
   14SAPS   C33 1814   4.103   6.580   4.199 -0.1376  0.3452  0.6191
   14SAPS   H3X 1815   4.001   6.584   4.155  1.2402  2.9583 -2.8331
   14SAPS   H3Y 1816   4.118   6.666   4.268 -1.1213  0.7350  0.3707
   14SAPS   C34 1817   4.132   6.457   4.281  1.0421 -0.3665  0.4592
   14SAPS   H4X 1818   4.119   6.362   4.225  0.1855  0.7079 -1.2625
   14SAPS   H4Y 1819   4.069   6.470   4.372  3.4509 -0.7481  2.2777
   14SAPS   C35 1820   4.279   6.462   4.340  0.1592  0.5264 -0.2203
   14SAPS   H5X 1821   4.279   6.565   4.382  0.9570  0.3545  0.2179
   14SAPS   H5Y 1822   4.339   6.450   4.248  0.1765 -1.7330  0.0372
   14SAPS   C36 1823   4.305   6.359   4.449  0.5555  0.3384 -0.4057
   14SAPS   H6X 1824   4.270   6.260   4.412  2.4171 -0.5792  0.1701
   14SAPS   H6Y 1825   4.244   6.390   4.537 -1.1550 -0.8280 -1.1326
   14SAPS   C37 1826   4.454   6.356   4.484  0.5502  0.0354  0.1274
   14SAPS   H7X 1827   4.482   6.460   4.510  0.8878 -0.6857  2.9926
   14SAPS   H7Y 1828   4.512   6.320   4.396 -1.0501 -0.4502 -0.7595
   14SAPS   C38 1829   4.490   6.266   4.602 -0.6287  0.1482 -0.5222
   14SAPS   H8X 1830   4.600   6.257   4.611 -0.3576  0.0955 -3.2035
   14SAPS   H8Y 1831   4.443   6.168   4.583  1.0300 -0.2370 -3.1161
   14SAPS   C39 1832   4.442   6.330   4.731 -0.6227 -0.6235 -0.5886
   14SAPS   H9X 1833   4.333   6.347   4.718 -0.3885 -0.5386 -2.8381
   14SAPS   H9Y 1834   4.481   6.434   4.721 -0.4263 -0.8448 -2.5346
   14SAPS  C310 1835   4.473   6.247   4.856 -0.6117  0.2193  0.0365
   14SAPS  H10X 1836   4.580   6.264   4.881 -0.7389 -1.9839  2.4794
   14SAPS  H10Y 1837   4.462   6.139   4.834 -2.3563  0.3018  0.3370
   14SAPS  C311 1838   4.383   6.286   4.981  0.5856  0.3142  0.1440
   14SAPS  H11X 1839   4.275   6.267   4.964  0.3152  0.8263  1.2248
   14SAPS  H11Y 1840   4.396   6.395   4.996  1.1080  0.1071  1.2825
   14SAPS  C312 1841   4.408   6.207   5.110 -0.2750  0.6882 -0.0545
   14SAPS  H12X 1842   4.452   6.107   5.089  0.8190  1.2805 -0.6886
   14SAPS  H12Y 1843   4.313   6.184   5.163  0.7791 -0.4031  1.4458
   14SAPS  C313 1844   4.506   6.276   5.208 -0.1530  0.0150 -0.1067
   14SAPS  H13X 1845   4.583   6.323   5.143 -0.9574 -0.1627 -1.2169
   14SAPS  H13Y 1846   4.543   6.197   5.277 -2.8060 -0.8958  0.3984
   14SAPS  C314 1847   4.429   6.377   5.286 -0.1993 -0.2699 -0.2464
   14SAPS  H14X 1848   4.350   6.326   5.344 -1.1267  0.8358 -0.5135
   14SAPS  H14Y 1849   4.372   6.443   5.217  1.0974 -0.8847 -1.9907
   14SAPS  C315 1850   4.513   6.473   5.381  0.3202  0.0394 -0.1854
   14SAPS  H15X 1851   4.570   6.543   5.316  0.2252  0.7425  0.4758
   14SAPS  H15Y 1852   4.588   6.402   5.423  0.3848  0.6603  0.7695
   14SAPS  C316 1853   4.438   6.532   5.501 -0.2554 -0.1483  0.0775
   14SAPS  H16X 1854   4.396   6.447   5.558  1.7798 -1.0398  0.3490
   14SAPS  H16Y 1855   4.356   6.597   5.463  1.7272  1.9766 -0.8232
   14SAPS  C317 1856   4.531   6.606   5.598 -0.1767  0.3088 -0.0947
   14SAPS  H17X 1857   4.565   6.700   5.550 -1.4231  0.4265 -0.7869
   14SAPS  H17Y 1858   4.622   6.542   5.591 -0.2762 -0.0185  1.3403
   14SAPS  C318 1859   4.482   6.619   5.744  0.3762 -0.0945 -0.1132
   14SAPS  H18X 1860   4.552   6.666   5.816  1.0357  0.9719 -1.4155
   14SAPS  H18Y 1861   4.461   6.522   5.793 -0.9779 -0.1244 -0.7127
   14SAPS  H18Z 1862   4.387   6.676   5.750  1.1648  1.1146  3.6135
   15SAPS     N 1863   5.018   0.635   3.343 -0.0913  0.6759 -0.1805
   15SAPS   HN1 1864   5.038   0.699   3.263  0.9531 -1.9056 -2.1527
   15SAPS   HN2 1865   5.106   0.590   3.376  0.9942  1.5298 -1.7354
   15SAPS   HN3 1866   4.958   0.564   3.297 -3.5408  2.1798  1.6545
   15SAPS   C12 1867   4.947   0.707   3.446  0.0106 -0.6743 -0.7165
   15SAPS  H12A 1868   5.023   0.767   3.493 -1.8446  0.1263  1.4592
   15SAPS   C13 1869   4.829   0.797   3.394  0.4284  0.1082 -0.2230
   15SAPS  O13A 1870   4.781   0.771   3.283  0.2525  0.4648  0.2493
   15SAPS  O13B 1871   4.781   0.869   3.484 -0.9689 -0.3304 -0.0007
   15SAPS   C11 1872   4.909   0.606   3.557  0.5692 -0.2005  0.4210
   15SAPS  H11A 1873   4.826   0.540   3.525 -0.2011 -0.2876  2.5037
   15SAPS  H11B 1874   4.859   0.664   3.637  2.9579  2.9929 -0.1926
   15SAPS     P 1875   5.086   0.557   3.739 -0.4412  0.0062 -0.4047
   15SAPS   O13 1876   5.203   0.476   3.750 -0.1004  0.0954 -0.3365
   15SAPS   O14 1877   5.110   0.702   3.753 -0.3566 -0.1811  0.0962
   15SAPS   O12 1878   5.020   0.526   3.596 -0.2033 -0.0460  0.5955
   15SAPS   O11 1879   4.986   0.514   3.848  0.1156 -0.7215  0.1852
   15SAPS    C1 1880   4.883   0.412   3.853 -0.4367 -0.2147  0.1608
   15SAPS    HA 1881   4.779   0.452   3.850 -0.2974  0.8303  3.7229
   15SAPS    HB 1882   4.911   0.345   3.769  4.2436 -1.8236  2.6522
   15SAPS    C2 1883   4.888   0.339   3.991 -0.1076 -0.1858  0.8298
   15SAPS    HS 1884   4.803   0.269   3.997  0.5546 -0.9565  1.4014
   15SAPS   O21 1885   4.882   0.423   4.104 -0.0059 -1.0701  0.5848
   15SAPS   C21 1886   4.763   0.466   4.132  0.7823 -0.4638 -0.2255
   15SAPS   O22 1887   4.665   0.465   4.056  0.1758  0.7703  0.2589
   15SAPS   C22 1888   4.763   0.524   4.278  0.8327 -0.3696 -0.5078
   15SAPS   H2R 1889   4.869   0.533   4.308  0.4246  1.9850  0.4194
   15SAPS   H2S 1890   4.712   0.623   4.279  1.5072 -0.0233 -0.3939
   15SAPS    C3 1891   5.008   0.243   4.012 -0.3696  0.8867 -0.2799
   15SAPS    HX 1892   5.098   0.301   3.982  0.5926 -0.3870  0.0340
   15SAPS    HY 1893   5.004   0.154   3.945 -1.0729  1.1909 -0.6469
   15SAPS   O31 1894   5.012   0.205   4.151 -0.2059 -0.3515 -0.3028
   15SAPS   C31 1895   4.981   0.084   4.185  0.3337  0.5687 -0.9557
   15SAPS   O32 1896   4.946  -0.010   4.115 -0.0058 -0.0551 -0.1521
   15SAPS   C32 1897   5.007   0.073   4.334  0.0073  0.6869 -0.3625
   15SAPS   H2X 1898   4.972   0.163   4.389  0.2757  0.8902 -0.5183
   15SAPS   H2Y 1899   5.116   0.061   4.357 -0.0366  2.4632  0.9903
   15SAPS   C23 1900   4.695   0.442   4.383 -0.7118 -0.3272 -0.6412
   15SAPS   H3R 1901   4.715   0.335   4.364 -1.5326 -0.1874 -2.5160
   15SAPS   H3S 1902   4.584   0.452   4.380 -0.7072  1.0123  1.3846
   15SAPS   C24 1903   4.734   0.477   4.531  0.4225  0.6491  0.1684
   15SAPS   H4R 1904   4.845   0.468   4.543  0.5170  0.7993 -0.5719
   15SAPS   H4S 1905   4.698   0.382   4.576 -0.4156  1.2361  0.7484
   15SAPS   C25 1906   4.685   0.603   4.587  0.1466  0.1088  0.1560
   15SAPS   H5R 1907   4.689   0.678   4.506  1.0728 -0.8250 -0.6885
   15SAPS   C26 1908   4.637   0.626   4.709  0.3461 -0.3963  0.1585
   15SAPS   H6R 1909   4.584   0.720   4.730  1.3578 -0.1138  1.5705
   15SAPS   C27 1910   4.625   0.532   4.825 -0.2970  0.0276 -0.0859
   15SAPS   H7R 1911   4.592   0.431   4.794 -0.2539 -0.3048  0.9194
   15SAPS   H7S 1912   4.551   0.574   4.896  2.4052  1.1502  2.2936
   15SAPS   C28 1913   4.748   0.501   4.892 -0.0684 -0.0714 -0.3098
   15SAPS   H8R 1914   4.838   0.501   4.829 -0.3164 -0.8687 -0.6670
   15SAPS   C29 1915   4.764   0.468   5.021  0.0047 -0.3392 -0.4956
   15SAPS   H9R 1916   4.865   0.444   5.058 -0.4866 -0.1963  0.9960
   15SAPS  C210 1917   4.656   0.444   5.121  0.3201  0.2925 -0.7775
   15SAPS  H10R 1918   4.677   0.368   5.200  0.4311  1.9222  0.8350
   15SAPS  H10S 1919   4.561   0.416   5.071  0.4335 -0.3603 -0.6426
   15SAPS  C211 1920   4.612   0.571   5.196 -0.3406  0.1193 -0.0368
   15SAPS  H11R 1921   4.583   0.661   5.141 -0.2914 -0.0509 -0.3445
   15SAPS  C212 1922   4.646   0.603   5.324  0.5655  0.6728 -0.4865
   15SAPS  H12R 1923   4.595   0.691   5.364 -2.7541 -0.8962 -0.9410
   15SAPS  C213 1924   4.703   0.511   5.435 -0.0758  0.2364 -0.3621
   15SAPS  H13R 1925   4.744   0.414   5.400  1.0909  0.5283  0.1775
   15SAPS  H13S 1926   4.619   0.471   5.496  0.3791  1.1728  0.9061
   15SAPS  C214 1927   4.810   0.572   5.525  0.2575 -0.1835  0.5581
   15SAPS  H14R 1928   4.906   0.576   5.472  0.4991  2.9515  1.0567
   15SAPS  C215 1929   4.801   0.608   5.651 -0.1686  0.7015  1.0847
   15SAPS  H15R 1930   4.897   0.634   5.696  0.5086  0.7934 -0.3568
   15SAPS  C216 1931   4.685   0.618   5.743 -0.6559 -0.0676 -0.4570
   15SAPS  H16R 1932   4.583   0.597   5.707 -0.9784 -2.0882  1.4287
   15SAPS  H16S 1933   4.687   0.723   5.780 -2.1009 -0.5543  1.1207
   15SAPS  C217 1934   4.724   0.540   5.868  0.0541 -0.2344  0.3384
   15SAPS  H17R 1935   4.814   0.590   5.907  1.2417 -1.3856 -0.8195
   15SAPS  H17S 1936   4.756   0.435   5.848  1.7001  0.3495 -0.2390
   15SAPS  C218 1937   4.605   0.548   5.971 -0.3244  0.3595  0.0133
   15SAPS  H18R 1938   4.535   0.465   5.949 -0.9072  0.1834  2.2752
   15SAPS  H18S 1939   4.556   0.647   5.962  0.4749  0.5705 -2.7792
   15SAPS  C219 1940   4.639   0.519   6.116 -0.0468 -0.4733  0.5939
   15SAPS  H19R 1941   4.557   0.567   6.175  1.2235  0.4889  1.6240
   15SAPS  H19S 1942   4.725   0.578   6.155 -1.2461  0.7975  1.4298
   15SAPS  C220 1943   4.671   0.373   6.138  0.2832  0.1623  0.0202
   15SAPS  H20R 1944   4.679   0.345   6.246  0.5035 -1.2875 -0.3509
   15SAPS  H20S 1945   4.766   0.345   6.089 -0.0344 -0.2855 -0.3412
   15SAPS  H20T 1946   4.590   0.312   6.092  1.4028 -2.8617  1.7400
   15SAPS   C33 1947   4.934  -0.049   4.402  0.2065  0.3084  0.3229
   15SAPS   H3X 1948   4.830  -0.053   4.365  0.4412  1.2453 -0.5115
   15SAPS   H3Y 1949   4.949  -0.049   4.512  1.0053 -1.3896  0.2351
   15SAPS   C34 1950   5.012  -0.178   4.378 -0.5346  0.3381 -0.0785
   15SAPS   H4X 1951   5.110  -0.173   4.430 -0.5031 -1.1215  0.0653
   15SAPS   H4Y 1952   5.036  -0.176   4.269 -1.9126  0.3093 -0.4025
   15SAPS   C35 1953   4.942  -0.306   4.419 -0.1662  0.2325 -0.1354
   15SAPS   H5X 1954   5.013  -0.384   4.384  1.5022  1.0690  1.2865
   15SAPS   H5Y 1955   4.846  -0.330   4.367 -0.7180  0.4070  0.7693
   15SAPS   C36 1956   4.913  -0.326   4.569 -1.0098  0.1107  0.7217
   15SAPS   H6X 1957   4.892  -0.433   4.586  0.7442 -0.3842 -0.0213
   15SAPS   H6Y 1958   4.816  -0.277   4.595 -0.3750  1.2257  1.0906
   15SAPS   C37 1959   5.024  -0.295   4.663 -0.1260  0.0676 -0.2689
   15SAPS   H7X 1960   5.035  -0.185   4.664  0.8535 -0.0186 -0.4208
   15SAPS   H7Y 1961   5.118  -0.351   4.641  0.3724 -0.3746  2.5505
   15SAPS   C38 1962   4.983  -0.341   4.801 -0.4330 -0.2054  0.3584
   15SAPS   H8X 1963   4.981  -0.452   4.797  0.7278 -0.2284  0.0170
   15SAPS   H8Y 1964   4.882  -0.297   4.815  0.2482  1.6042 -0.1406
   15SAPS   C39 1965   5.064  -0.289   4.920 -0.1358 -0.3892  0.7705
   15SAPS   H9X 1966   5.059  -0.179   4.924  2.5613  0.1132 -3.5023
   15SAPS   H9Y 1967   5.172  -0.316   4.914  0.1852  0.5228  1.9702
   15SAPS  C310 1968   5.010  -0.360   5.047 -0.5779 -0.3330  0.1900
   15SAPS  H10X 1969   5.026  -0.470   5.045  1.2405 -0.1156 -1.7381
   15SAPS  H10Y 1970   4.901  -0.343   5.044 -0.7187 -1.2345 -0.0607
   15SAPS  C311 1971   5.048  -0.284   5.178 -0.2448  0.6988  0.6950
   15SAPS  H11X 1972   5.040  -0.175   5.156 -0.3133  0.2779 -1.6816
   15SAPS  H11Y 1973   5.155  -0.294   5.204  0.0907  1.2814 -0.4068
   15SAPS  C312 1974   4.968  -0.325   5.302 -0.3599  0.2795 -0.2474
   15SAPS  H12X 1975   4.864  -0.290   5.286 -0.7418 -0.8096 -0.2659
   15SAPS  H12Y 1976   4.998  -0.257   5.384 -3.4002  1.9924 -0.3960
   15SAPS  C313 1977   4.990  -0.469   5.341  0.3361 -0.6237 -0.1735
   15SAPS  H13X 1978   5.099  -0.491   5.344  0.0265 -2.2491  0.1698
   15SAPS  H13Y 1979   4.947  -0.535   5.262 -1.0951 -0.0109  0.0542
   15SAPS  C314 1980   4.923  -0.501   5.477 -0.2638  0.0323 -0.6354
   15SAPS  H14X 1981   4.813  -0.508   5.471 -0.4638 -0.2697  2.0173
   15SAPS  H14Y 1982   4.941  -0.417   5.548  0.4141 -1.3039  0.8438
   15SAPS  C315 1983   4.983  -0.625   5.549 -0.4372  0.1442 -0.3871
   15SAPS  H15X 1984   5.092  -0.632   5.529 -0.0849 -0.4891  1.5168
   15SAPS  H15Y 1985   4.948  -0.716   5.495 -0.5189 -0.1529  0.1534
   15SAPS  C316 1986   4.982  -0.629   5.705  0.1288  0.4431 -0.8555
   15SAPS  H16X 1987   5.053  -0.553   5.744  0.5605 -0.7665  0.8091
   15SAPS  H16Y 1988   5.016  -0.732   5.725  0.8967  0.7259 -0.6876
   15SAPS  C317 1989   4.840  -0.612   5.765 -0.7531 -0.1398 -0.4572
   15SAPS  H17X 1990   4.766  -0.618   5.683 -1.3782  1.1295 -0.0186
   15SAPS  H17Y 1991   4.826  -0.507   5.799 -0.9968 -0.5579  0.7894
   15SAPS  C318 1992   4.807  -0.722   5.871 -0.8145  0.4130  0.2263
   15SAPS  H18X 1993   4.697  -0.738   5.881 -0.8822  0.5844 -0.2345
   15SAPS  H18Y 1994   4.849  -0.697   5.971  1.2653 -3.8046  0.6013
   15SAPS  H18Z 1995   4.849  -0.818   5.835 -1.1520  1.3817 -3.1219
   16SAPS     N 1996   6.529   1.639   4.273  0.0717 -0.8900 -0.1614
   16SAPS   HN1 1997   6.612   1.626   4.335 -0.3378  2.8952  1.4296
   16SAPS   HN2 1998   6.516   1.741   4.281  1.4086 -0.7264  0.2027
   16SAPS   HN3 1999   6.441   1.592   4.302 -2.0681  2.1427 -1.2986
   16SAPS   C12 2000   6.571   1.606   4.135 -0.2226  0.1040  0.1568
   16SAPS  H12A 2001   6.501   1.662   4.075 -1.8637 -0.8055  1.1771
   16SAPS   C13 2002   6.706   1.668   4.084 -0.1379 -0.5415  0.0346
   16SAPS  O13A 2003   6.777   1.734   4.162  0.4232  0.1089  0.0906
   16SAPS  O13B 2004   6.739   1.647   3.964  0.4969  0.4005  0.3951
   16SAPS   C11 2005   6.561   1.452   4.100  0.1020 -0.2670  0.8310
   16SAPS  H11A 2006   6.547   1.438   3.991 -1.4096 -1.2534  1.1176
   16SAPS  H11B 2007   6.461   1.420   4.136  0.1935 -3.3621 -1.3030
   16SAPS     P 2008   6.703   1.241   4.109 -0.5308 -0.1926 -0.0710
   16SAPS   O13 2009   6.788   1.267   3.991 -0.0464  0.0877  0.6509
   16SAPS   O14 2010   6.772   1.168   4.216 -0.0925 -0.6133 -0.3071
   16SAPS   O12 2011   6.658   1.380   4.167 -0.0815 -0.0224 -0.0338
   16SAPS   O11 2012   6.568   1.171   4.058  0.7950  0.3080 -0.5099
   16SAPS    C1 2013   6.510   1.073   4.150 -0.1486 -0.2414 -0.0634
   16SAPS    HA 2014   6.436   1.008   4.098 -0.3141 -0.5262  0.5175
   16SAPS    HB 2015   6.585   1.003   4.194 -1.1059 -2.0787 -1.2141
   16SAPS    C2 2016   6.435   1.137   4.271  0.3801 -0.1323  0.2370
   16SAPS    HS 2017   6.406   1.242   4.249  1.9598  0.7137  1.9886
   16SAPS   O21 2018   6.528   1.139   4.390  0.2212  0.1331  0.5688
   16SAPS   C21 2019   6.495   1.229   4.476 -0.1395 -0.7749 -0.1302
   16SAPS   O22 2020   6.403   1.307   4.472 -0.4173 -0.1501 -0.1018
   16SAPS   C22 2021   6.594   1.218   4.593  0.2204  0.0374 -0.4939
   16SAPS   H2R 2022   6.578   1.124   4.650  1.8989  0.3541  0.5580
   16SAPS   H2S 2023   6.698   1.216   4.555  1.0715  4.9815  0.8751
   16SAPS    C3 2024   6.311   1.046   4.299  0.0126  0.5449  0.1689
   16SAPS    HX 2025   6.350   0.946   4.326 -4.3079 -1.8995 -1.6414
   16SAPS    HY 2026   6.250   1.029   4.208 -1.8350 -0.0304  1.4667
   16SAPS   O31 2027   6.228   1.082   4.409 -0.4867 -0.2470  0.1732
   16SAPS   C31 2028   6.136   1.177   4.386  0.4251  0.4191  0.2707
   16SAPS   O32 2029   6.106   1.223   4.278 -0.3974 -0.0327  0.2171
   16SAPS   C32 2030   6.054   1.210   4.517  0.0274  0.2314 -0.4454
   16SAPS   H2X 2031   5.960   1.152   4.510  0.5940 -1.3147  2.7081
   16SAPS   H2Y 2032   6.030   1.318   4.523 -0.9550  0.0164 -0.3611
   16SAPS   C23 2033   6.578   1.334   4.701  0.4343 -0.1105 -0.0439
   16SAPS   H3R 2034   6.574   1.429   4.644  1.0164 -0.0490  0.0155
   16SAPS   H3S 2035   6.676   1.338   4.753  0.3731 -2.3708  0.3865
   16SAPS   C24 2036   6.458   1.328   4.802  0.5974  0.4178 -0.2104
   16SAPS   H4R 2037   6.437   1.224   4.834  0.4035  0.8463  1.1348
   16SAPS   H4S 2038   6.367   1.362   4.748  0.6929 -1.1978 -1.4687
   16SAPS   C25 2039   6.479   1.408   4.930  0.6110  0.1551  0.4422
   16SAPS   H5R 2040   6.455   1.515   4.920  0.7873  0.3327  1.7937
   16SAPS   C26 2041   6.507   1.356   5.053 -0.1573  0.5735  0.4062
   16SAPS   H6R 2042   6.523   1.421   5.140  3.4393  0.1017  0.2329
   16SAPS   C27 2043   6.538   1.214   5.081 -0.2054 -0.1459  0.3255
   16SAPS   H7R 2044   6.618   1.197   5.156 -2.1305 -0.8880  2.3135
   16SAPS   H7S 2045   6.566   1.160   4.988  0.8155  0.5680  0.1992
   16SAPS   C28 2046   6.420   1.134   5.142 -0.5507 -0.4179 -0.8648
   16SAPS   H8R 2047   6.378   1.053   5.080 -1.2344 -1.1358  0.4947
   16SAPS   C29 2048   6.358   1.138   5.264  0.2976 -0.7196  0.6063
   16SAPS   H9R 2049   6.284   1.060   5.284  1.1263 -2.1293 -1.5005
   16SAPS  C210 2050   6.379   1.240   5.369  0.4194  0.1550 -0.4259
   16SAPS  H10R 2051   6.478   1.286   5.346  0.8570 -0.2205  0.6413
   16SAPS  H10S 2052   6.386   1.196   5.471  2.8242  0.6576 -0.3062
   16SAPS  C211 2053   6.276   1.351   5.352  0.4613  1.1394  0.2951
   16SAPS  H11R 2054   6.277   1.411   5.260 -1.6257  1.5202  0.4633
   16SAPS  C212 2055   6.187   1.383   5.451  0.1424  0.4057  0.5407
   16SAPS  H12R 2056   6.116   1.461   5.421 -0.3654 -0.7916 -1.6178
   16SAPS  C213 2057   6.170   1.317   5.586  0.4837  0.3091 -0.5293
   16SAPS  H13R 2058   6.205   1.212   5.583 -2.1195 -0.6141 -2.2842
   16SAPS  H13S 2059   6.063   1.287   5.590 -0.0238  2.0604  0.9338
   16SAPS  C214 2060   6.222   1.387   5.708  0.1509  0.0385 -1.0052
   16SAPS  H14R 2061   6.317   1.442   5.703 -0.1454  0.5340 -1.1739
   16SAPS  C215 2062   6.164   1.380   5.829  0.0891  0.2549  0.9217
   16SAPS  H15R 2063   6.209   1.436   5.912 -2.1084 -0.5002  2.7076
   16SAPS  C216 2064   6.035   1.309   5.871  0.1657  0.5557  0.7079
   16SAPS  H16R 2065   6.009   1.233   5.795 -0.3001 -0.6603  2.0423
   16SAPS  H16S 2066   5.956   1.388   5.877 -0.7666 -0.2408 -0.6145
   16SAPS  C217 2067   6.052   1.237   6.007 -0.1755 -0.1285 -0.2521
   16SAPS  H17R 2068   5.952   1.224   6.053  0.7139  0.4283  1.9369
   16SAPS  H17S 2069   6.103   1.306   6.077 -0.9583  0.3719 -0.1636
   16SAPS  C218 2070   6.121   1.095   6.001 -0.2869 -0.5013 -0.3487
   16SAPS  H18R 2071   6.217   1.095   5.944 -0.6686 -2.4925 -1.1080
   16SAPS  H18S 2072   6.042   1.026   5.962 -0.7870 -0.4348  0.5351
   16SAPS  C219 2073   6.149   1.045   6.148  0.5024  0.0110  0.2639
   16SAPS  H19R 2074   6.060   1.082   6.202  0.5164  1.7868 -0.8529
   16SAPS  H19S 2075   6.247   1.075   6.190  0.7085 -0.7660  0.3644
   16SAPS  C220 2076   6.156   0.884   6.166 -0.3001  0.7178  0.6272
   16SAPS  H20R 2077   6.063   0.841   6.123  1.8406 -1.6704 -1.9236
   16SAPS  H20S 2078   6.166   0.863   6.275 -0.0749  0.6732  0.5973
   16SAPS  H20T 2079   6.242   0.845   6.109 -0.8103 -0.0739  0.3882
   16SAPS   C33 2080   6.117   1.171   4.650  0.0834 -0.9379 -0.5250
   16SAPS   H3X 2081   6.208   1.226   4.683 -1.6057  0.8215  1.5586
   16SAPS   H3Y 2082   6.115   1.061   4.661  1.7430 -1.1566 -1.9961
   16SAPS   C34 2083   6.022   1.233   4.760 -0.3391  0.5130  0.5738
   16SAPS   H4X 2084   5.918   1.198   4.744 -1.2275  1.4242  3.7249
   16SAPS   H4Y 2085   6.024   1.343   4.747 -1.0124  0.2408 -2.9365
   16SAPS   C35 2086   6.048   1.188   4.904 -0.3481 -0.2743 -0.5391
   16SAPS   H5X 2087   6.148   1.217   4.942 -0.3788 -0.9061  0.0377
   16SAPS   H5Y 2088   6.058   1.078   4.897 -0.7935 -0.3995  0.5714
   16SAPS   C36 2089   5.946   1.232   5.008  0.2822  0.8681 -0.2323
   16SAPS   H6X 2090   5.841   1.208   4.980  1.1737 -0.9959 -2.3168
   16SAPS   H6Y 2091   5.960   1.339   5.035  1.6511  0.5864  0.2507
   16SAPS   C37 2092   5.957   1.151   5.136 -0.2308  0.2177 -0.0376
   16SAPS   H7X 2093   6.054   1.178   5.184 -0.0632  0.6381 -0.5998
   16SAPS   H7Y 2094   5.965   1.042   5.112 -1.2106 -0.5737  2.8940
   16SAPS   C38 2095   5.845   1.178   5.234 -0.7245  0.2325  0.5401
   16SAPS   H8X 2096   5.750   1.143   5.190  0.4853 -1.4963 -0.8214
   16SAPS   H8Y 2097   5.851   1.288   5.251 -0.5897  0.2960  0.1111
   16SAPS   C39 2098   5.869   1.102   5.365  0.0692  0.0244 -0.0421
   16SAPS   H9X 2099   5.955   1.151   5.416 -2.7702  1.4870  3.9254
   16SAPS   H9Y 2100   5.891   0.994   5.354  1.3177  0.2130  0.4122
   16SAPS  C310 2101   5.752   1.113   5.456 -0.0125  0.0530 -0.0391
   16SAPS  H10X 2102   5.676   1.038   5.426 -0.4361  0.9481 -1.2864
   16SAPS  H10Y 2103   5.707   1.214   5.440  0.8487  0.2541 -1.3426
   16SAPS  C311 2104   5.771   1.105   5.612  0.3532 -0.6460  0.0264
   16SAPS  H11X 2105   5.835   1.187   5.650 -0.8017 -1.0530  3.2138
   16SAPS  H11Y 2106   5.807   1.006   5.647  2.2057 -1.2853 -3.3287
   16SAPS  C312 2107   5.636   1.135   5.691 -0.6185 -0.2948  0.3392
   16SAPS  H12X 2108   5.574   1.043   5.682  0.5328 -0.9675 -1.3473
   16SAPS  H12Y 2109   5.608   1.224   5.631 -2.1489 -1.0709 -0.1387
   16SAPS  C313 2110   5.658   1.182   5.835  0.7284 -0.0146  0.3800
   16SAPS  H13X 2111   5.562   1.222   5.874 -0.5343  0.2458 -2.6962
   16SAPS  H13Y 2112   5.731   1.265   5.846  0.5527  0.2032 -0.0661
   16SAPS  C314 2113   5.706   1.075   5.924 -0.2359 -0.4434 -0.0697
   16SAPS  H14X 2114   5.816   1.062   5.925 -0.3530 -1.5812 -0.1626
   16SAPS  H14Y 2115   5.663   0.976   5.898 -1.4475 -0.2478  1.0638
   16SAPS  C315 2116   5.668   1.113   6.073  0.1071 -0.1842 -0.0934
   16SAPS  H15X 2117   5.562   1.081   6.077  0.3150 -0.7928  0.6983
   16SAPS  H15Y 2118   5.692   1.222   6.073 -0.8212  0.0328 -0.6481
   16SAPS  C316 2119   5.743   1.028   6.178 -0.0442  0.2423  0.4683
   16SAPS  H16X 2120   5.841   1.072   6.206  0.8288 -1.5379  0.3392
   16SAPS  H16Y 2121   5.761   0.933   6.123 -0.7952  0.9029 -0.9648
   16SAPS  C317 2122   5.659   1.003   6.304 -0.7025 -0.0271 -0.4292
   16SAPS  H17X 2123   5.709   0.929   6.370 -0.4870  0.6978  0.2392
   16SAPS  H17Y 2124   5.561   0.965   6.269 -1.6522  1.6478  0.3113
   16SAPS  C318 2125   5.642   1.129   6.391 -0.0104 -0.6464  0.0633
   16SAPS  H18X 2126   5.563   1.121   6.469  0.8768  0.5131  1.1315
   16SAPS  H18Y 2127   5.604   1.209   6.325  2.3241  2.7855  2.5448
   16SAPS  H18Z 2128   5.734   1.174   6.433  0.2197  0.6552 -1.7664
   17SAPS     N 2129   0.774   2.426   4.273 -0.1914 -0.2236 -0.4651
   17SAPS   HN1 2130   0.690   2.435   4.333  1.4470  0.5240  1.8238
   17SAPS   HN2 2131   0.863   2.455   4.317  0.8459 -1.2617 -1.7568
   17SAPS   HN3 2132   0.760   2.490   4.192  0.5644 -2.5822 -2.6200
   17SAPS   C12 2133   0.780   2.287   4.216 -0.2252 -0.1124  0.3270
   17SAPS  H12A 2134   0.759   2.219   4.298 -0.4256  2.7343  2.8380
   17SAPS   C13 2135   0.674   2.254   4.113  0.1981  0.4092  0.4792
   17SAPS  O13A 2136   0.573   2.324   4.093 -0.5254  0.0087  0.5593
   17SAPS  O13B 2137   0.662   2.132   4.082  0.3488 -0.2652 -0.3632
   17SAPS   C11 2138   0.914   2.269   4.134  0.0123 -0.2647 -0.2555
   17SAPS  H11A 2139   0.897   2.324   4.039 -2.4203  1.6163  1.1595
   17SAPS  H11B 2140   0.908   2.160   4.112 -1.2774 -0.0632 -0.9725
   17SAPS     P 2141   1.157   2.229   4.213 -0.0318 -0.0383  0.2404
   17SAPS   O13 2142   1.143   2.147   4.338 -0.3109  0.3179  0.0308
   17SAPS   O14 2143   1.175   2.161   4.079  0.0566  0.8006  0.6358
   17SAPS   O12 2144   1.029   2.318   4.206  0.0608 -0.1342 -0.8371
   17SAPS   O11 2145   1.267   2.339   4.247  0.0216  0.5096 -0.2628
   17SAPS    C1 2146   1.403   2.290   4.268 -0.7766 -0.8874 -0.0621
   17SAPS    HA 2147   1.408   2.189   4.314 -1.0037 -0.8806 -0.0219
   17SAPS    HB 2148   1.468   2.290   4.178  1.7873  0.9109  1.6310
   17SAPS    C2 2149   1.476   2.388   4.374 -0.4888 -0.4138 -1.2007
   17SAPS    HS 2150   1.583   2.359   4.364 -0.3487  0.3964 -2.2452
   17SAPS   O21 2151   1.418   2.381   4.513  0.6590 -0.1913  0.2926
   17SAPS   C21 2152   1.463   2.265   4.576  0.3706 -0.3743 -0.3198
   17SAPS   O22 2153   1.527   2.179   4.518 -0.2313  0.2221  0.3214
   17SAPS   C22 2154   1.435   2.277   4.723  0.1686  0.4308 -0.2301
   17SAPS   H2R 2155   1.480   2.374   4.753  3.1408 -0.8536 -0.2385
   17SAPS   H2S 2156   1.328   2.253   4.744  0.1135  0.3962 -0.5484
   17SAPS    C3 2157   1.461   2.538   4.341  0.0876 -0.1589 -0.3041
   17SAPS    HX 2158   1.354   2.567   4.327 -0.5102 -2.0149  0.1940
   17SAPS    HY 2159   1.518   2.556   4.248  2.5457  0.3138  1.2064
   17SAPS   O31 2160   1.507   2.639   4.448 -0.3240 -0.0903 -0.3860
   17SAPS   C31 2161   1.633   2.642   4.468 -0.4474  0.2630  0.3370
   17SAPS   O32 2162   1.713   2.591   4.389  0.0381  0.2159  0.4195
   17SAPS   C32 2163   1.678   2.704   4.596  0.3152 -0.6163  0.0496
   17SAPS   H2X 2164   1.697   2.812   4.580 -0.7953 -0.3737  0.2902
   17SAPS   H2Y 2165   1.772   2.651   4.625 -0.3968 -2.8867 -1.5181
   17SAPS   C23 2166   1.511   2.166   4.805 -0.9607  0.4400  0.2049
   17SAPS   H3R 2167   1.618   2.189   4.823 -0.7611  0.9069 -1.4319
   17SAPS   H3S 2168   1.512   2.077   4.738 -1.1123 -0.3493  1.2317
   17SAPS   C24 2169   1.447   2.124   4.939 -0.0256  0.3978  0.3076
   17SAPS   H4R 2170   1.486   2.021   4.952  3.7704  1.6753  0.3926
   17SAPS   H4S 2171   1.337   2.115   4.930  0.0574 -0.6268  0.2341
   17SAPS   C25 2172   1.474   2.213   5.065 -0.2736  0.2955 -0.5437
   17SAPS   H5R 2173   1.578   2.203   5.101  0.0783 -1.4752 -1.9343
   17SAPS   C26 2174   1.391   2.304   5.115 -0.9895 -0.0120  0.3129
   17SAPS   H6R 2175   1.425   2.357   5.205 -1.3141 -1.3555  1.2674
   17SAPS   C27 2176   1.252   2.342   5.074 -0.1436  0.1578  0.5304
   17SAPS   H7R 2177   1.176   2.340   5.155 -0.9814  2.9257 -0.0830
   17SAPS   H7S 2178   1.214   2.268   5.000 -0.5031  1.1919 -0.3350
   17SAPS   C28 2179   1.234   2.476   5.008  0.0609  0.3471  0.6833
   17SAPS   H8R 2180   1.303   2.557   5.035 -1.6518  2.4124 -0.7539
   17SAPS   C29 2181   1.142   2.506   4.908  0.1332 -0.6692  0.2910
   17SAPS   H9R 2182   1.128   2.604   4.860  0.5835  0.5832  2.5420
   17SAPS  C210 2183   1.027   2.413   4.870  0.6145 -0.0023  0.3335
   17SAPS  H10R 2184   1.017   2.346   4.957 -0.3399  1.2738  1.2545
   17SAPS  H10S 2185   1.057   2.366   4.774  1.9439  0.0878  0.6804
   17SAPS  C211 2186   0.906   2.505   4.869 -0.4750 -0.1925  0.4398
   17SAPS  H11R 2187   0.888   2.576   4.787 -1.2759 -1.5894 -0.6404
   17SAPS  C212 2188   0.808   2.504   4.957 -0.1830 -0.2055 -0.0649
   17SAPS  H12R 2189   0.716   2.558   4.929 -0.5364 -1.3712 -1.2377
   17SAPS  C213 2190   0.784   2.412   5.076  0.3689  0.0095 -0.4389
   17SAPS  H13R 2191   0.855   2.327   5.083  1.0828  0.6476  0.2271
   17SAPS  H13S 2192   0.685   2.362   5.065  0.6886 -1.3147  2.0194
   17SAPS  C214 2193   0.790   2.473   5.214  0.3299 -0.0534  0.5992
   17SAPS  H14R 2194   0.893   2.468   5.253  0.9103 -2.1532 -1.0112
   17SAPS  C215 2195   0.690   2.538   5.279 -0.3085  0.2889 -0.6654
   17SAPS  H15R 2196   0.713   2.558   5.385  0.7215  0.2301 -0.8642
   17SAPS  C216 2197   0.552   2.580   5.224 -0.5221 -0.0551 -0.4533
   17SAPS  H16R 2198   0.472   2.517   5.269 -1.4276  0.5913 -1.1249
   17SAPS  H16S 2199   0.542   2.541   5.120 -1.3750 -3.7126  0.8403
   17SAPS  C217 2200   0.523   2.725   5.248  0.1592 -0.0734  0.5490
   17SAPS  H17R 2201   0.433   2.754   5.191 -0.3549  1.2681  1.9500
   17SAPS  H17S 2202   0.616   2.777   5.216  0.5932 -0.3168  1.3770
   17SAPS  C218 2203   0.497   2.763   5.397  0.4949  0.0573 -1.4092
   17SAPS  H18R 2204   0.574   2.731   5.471 -0.1063  0.4404 -0.5970
   17SAPS  H18S 2205   0.401   2.719   5.430  0.5001  1.6816  1.0865
   17SAPS  C219 2206   0.460   2.916   5.407  0.2564  0.0934 -0.7880
   17SAPS  H19R 2207   0.379   2.934   5.333  0.5998 -0.3149 -1.2706
   17SAPS  H19S 2208   0.545   2.979   5.375  1.2536  0.7998  2.8357
   17SAPS  C220 2209   0.414   2.960   5.549 -0.1530  0.2092 -0.4706
   17SAPS  H20R 2210   0.346   2.882   5.589 -0.6122  0.8353 -0.0013
   17SAPS  H20S 2211   0.363   3.058   5.566  2.0696  1.0211  2.3749
   17SAPS  H20T 2212   0.500   2.958   5.619 -0.3033 -0.7226 -0.3025
   17SAPS   C33 2213   1.570   2.694   4.703 -0.0856 -0.0245 -0.0149
   17SAPS   H3X 2214   1.531   2.590   4.717 -3.1235  1.0957  0.5023
   17SAPS   H3Y 2215   1.479   2.748   4.670  0.4471  0.8465 -0.0887
   17SAPS   C34 2216   1.628   2.750   4.836  0.9207 -0.3618  0.2400
   17SAPS   H4X 2217   1.630   2.861   4.829 -0.1243 -0.3231  0.3079
   17SAPS   H4Y 2218   1.736   2.726   4.838  1.1283  0.5896  0.6577
   17SAPS   C35 2219   1.546   2.701   4.960 -0.3526 -0.6532 -0.2783
   17SAPS   H5X 2220   1.551   2.590   4.965 -1.9872 -0.7743 -0.5486
   17SAPS   H5Y 2221   1.440   2.730   4.940 -0.8761 -0.6614  2.1951
   17SAPS   C36 2222   1.608   2.754   5.090 -0.1022 -0.9260  0.2242
   17SAPS   H6X 2223   1.610   2.865   5.081 -1.1214 -0.3970  4.4197
   17SAPS   H6Y 2224   1.708   2.708   5.103 -0.8100 -1.9422  2.4927
   17SAPS   C37 2225   1.525   2.728   5.218  0.2607 -0.0332 -0.3786
   17SAPS   H7X 2226   1.494   2.621   5.220  0.4600 -0.2846 -3.9660
   17SAPS   H7Y 2227   1.424   2.774   5.208  0.4264  0.0839 -1.6591
   17SAPS   C38 2228   1.572   2.768   5.354 -0.2542 -0.4300 -0.5036
   17SAPS   H8X 2229   1.597   2.876   5.351 -0.1080 -0.4677 -0.6762
   17SAPS   H8Y 2230   1.676   2.728   5.365 -0.2178 -0.5971 -1.3483
   17SAPS   C39 2231   1.478   2.732   5.463 -0.6600  0.5320  0.5250
   17SAPS   H9X 2232   1.424   2.635   5.455 -0.9859  0.5092  2.4270
   17SAPS   H9Y 2233   1.400   2.811   5.468 -1.1348  0.0662  0.5710
   17SAPS  C310 2234   1.555   2.739   5.597 -0.3788  0.2700  0.4748
   17SAPS  H10X 2235   1.547   2.843   5.635  3.0738  0.2605  1.5703
   17SAPS  H10Y 2236   1.664   2.720   5.588 -0.1763  1.8961 -1.0938
   17SAPS  C311 2237   1.499   2.636   5.699  0.1301  1.0461  0.1310
   17SAPS  H11X 2238   1.545   2.540   5.668 -1.1607  1.3348 -3.0474
   17SAPS  H11Y 2239   1.389   2.637   5.688  0.2157  2.2787 -0.8111
   17SAPS  C312 2240   1.535   2.675   5.842  0.0924  0.0053 -0.4323
   17SAPS  H12X 2241   1.461   2.615   5.899 -0.0130  0.5161 -0.0305
   17SAPS  H12Y 2242   1.520   2.780   5.875  2.6453  0.2159  0.2833
   17SAPS  C313 2243   1.671   2.634   5.879 -0.1552 -0.0366  0.0961
   17SAPS  H13X 2244   1.741   2.650   5.795  0.4683 -0.9827  0.4205
   17SAPS  H13Y 2245   1.679   2.526   5.903  1.3609 -0.8618 -3.4857
   17SAPS  C314 2246   1.726   2.727   5.990  0.0672 -0.2914 -0.7111
   17SAPS  H14X 2247   1.676   2.722   6.089  1.2678  1.8074  0.0638
   17SAPS  H14Y 2248   1.726   2.830   5.949  2.1785 -0.5321 -1.4344
   17SAPS  C315 2249   1.881   2.708   6.012  0.0479  0.4231  0.1034
   17SAPS  H15X 2250   1.922   2.687   5.911 -0.7911  1.2923 -0.4316
   17SAPS  H15Y 2251   1.885   2.615   6.073 -0.8328 -1.4945 -2.5784
   17SAPS  C316 2252   1.954   2.817   6.079  0.1273 -0.7506 -0.1372
   17SAPS  H16X 2253   1.932   2.909   6.021 -2.7258 -1.1964  0.1173
   17SAPS  H16Y 2254   2.065   2.805   6.074  0.0681 -1.4980  0.1995
   17SAPS  C317 2255   1.899   2.851   6.224  0.1890  0.1306  0.4328
   17SAPS  H17X 2256   1.896   2.761   6.289  2.7993  0.1564  0.6662
   17SAPS  H17Y 2257   1.800   2.899   6.207  0.0265 -0.6555 -1.0274
   17SAPS  C318 2258   1.980   2.955   6.292 -0.1058  0.2091 -0.1855
   17SAPS  H18X 2259   1.969   3.056   6.248  0.4570 -0.4009 -1.8052
   17SAPS  H18Y 2260   2.087   2.927   6.294 -0.5263 -1.5330  2.2303
   17SAPS  H18Z 2261   1.955   2.954   6.400 -0.0579 -0.6664 -0.1701
   18SAPS     N 2262   5.790   6.555   3.459 -0.0216  0.1910  0.7977
   18SAPS   HN1 2263   5.784   6.536   3.561 -1.0704 -2.2456  0.3519
   18SAPS   HN2 2264   5.713   6.620   3.434 -2.0349 -1.8547  1.4298
   18SAPS   HN3 2265   5.796   6.473   3.396  0.3776  1.3784 -0.7773
   18SAPS   C12 2266   5.918   6.633   3.437 -0.6221 -0.2948  0.5230
   18SAPS  H12A 2267   5.967   6.584   3.354 -1.2453  0.3941 -0.2667
   18SAPS   C13 2268   5.899   6.785   3.387 -0.3269  0.0703 -0.1846
   18SAPS  O13A 2269   5.786   6.825   3.385 -0.0223 -0.5684  0.2578
   18SAPS  O13B 2270   5.996   6.841   3.337  0.0818  0.0850 -0.0164
   18SAPS   C11 2271   5.989   6.631   3.571 -0.5132  0.1670  0.1662
   18SAPS  H11A 2272   5.951   6.699   3.650 -0.5285  0.2100  0.1215
   18SAPS  H11B 2273   6.088   6.679   3.556 -0.5962  0.7300  1.3173
   18SAPS     P 2274   5.933   6.440   3.746 -0.4115 -0.4406 -0.2504
   18SAPS   O13 2275   5.785   6.456   3.721 -0.7899  0.3430  0.3172
   18SAPS   O14 2276   5.975   6.302   3.785 -0.6651  0.1696 -0.1236
   18SAPS   O12 2277   6.009   6.492   3.617  0.8177 -0.2043  0.4944
   18SAPS   O11 2278   5.969   6.535   3.862 -0.0675  0.2938 -0.4898
   18SAPS    C1 2279   6.108   6.564   3.911 -1.1496 -0.8397  0.0461
   18SAPS    HA 2280   6.186   6.559   3.832  1.4320  0.9167  2.2842
   18SAPS    HB 2281   6.116   6.670   3.943 -2.1554 -0.7534  0.0343
   18SAPS    C2 2282   6.135   6.474   4.036 -0.6523 -0.0317 -0.7990
   18SAPS    HS 2283   6.149   6.373   3.992 -1.1274 -0.0208 -0.9787
   18SAPS   O21 2284   6.025   6.496   4.125 -0.6131  0.1793 -0.3611
   18SAPS   C21 2285   5.963   6.377   4.156 -0.0936  0.5937  1.0705
   18SAPS   O22 2286   6.014   6.267   4.134 -0.1421  0.0099 -0.7233
   18SAPS   C22 2287   5.835   6.403   4.222 -1.0440  0.5050  0.6934
   18SAPS   H2R 2288   5.859   6.472   4.306 -0.8696  1.7965 -0.3837
   18SAPS   H2S 2289   5.774   6.461   4.149 -2.7176  1.4194  2.6899
   18SAPS    C3 2290   6.256   6.521   4.116  0.1698  0.2813  0.4669
   18SAPS    HX 2291   6.235   6.622   4.156 -2.2696 -0.3434  0.9482
   18SAPS    HY 2292   6.348   6.536   4.056 -1.1420  0.3294 -1.6522
   18SAPS   O31 2293   6.275   6.435   4.230 -0.3025  0.1478  0.1331
   18SAPS   C31 2294   6.386   6.371   4.233  0.0033  0.5833  0.0130
   18SAPS   O32 2295   6.471   6.361   4.151 -0.4194 -0.3074  0.2585
   18SAPS   C32 2296   6.402   6.310   4.369 -0.4483 -0.2007 -0.2122
   18SAPS   H2X 2297   6.459   6.381   4.432 -2.1763  0.4036  0.7507
   18SAPS   H2Y 2298   6.454   6.213   4.354 -1.6497 -1.3491  2.3835
   18SAPS   C23 2299   5.765   6.271   4.269  0.0554  0.9345 -0.5445
   18SAPS   H3R 2300   5.841   6.202   4.311 -0.7254 -0.0919 -0.8101
   18SAPS   H3S 2301   5.723   6.212   4.186 -0.2758 -1.0987  0.9979
   18SAPS   C24 2302   5.662   6.281   4.388 -0.0065  0.3215  0.6659
   18SAPS   H4R 2303   5.707   6.288   4.489  0.1863  2.4495  0.4677
   18SAPS   H4S 2304   5.611   6.182   4.383  0.0336  0.3371 -0.2380
   18SAPS   C25 2305   5.564   6.393   4.367 -0.3931 -0.9188 -0.4537
   18SAPS   H5R 2306   5.539   6.416   4.262  1.0423  1.1580 -0.4114
   18SAPS   C26 2307   5.498   6.463   4.465  0.4614 -0.0989  0.2810
   18SAPS   H6R 2308   5.436   6.549   4.435  0.3169  0.3893  1.8415
   18SAPS   C27 2309   5.503   6.432   4.611 -0.8909 -0.2934 -0.2663
   18SAPS   H7R 2310   5.578   6.500   4.655  0.0514 -1.7508  0.4348
   18SAPS   H7S 2311   5.532   6.325   4.619  0.0005  0.0302  1.1445
   18SAPS   C28 2312   5.371   6.455   4.679  0.1880  0.1652  0.9203
   18SAPS   H8R 2313   5.290   6.476   4.608  0.1673 -1.8685  0.2631
   18SAPS   C29 2314   5.355   6.441   4.811 -0.0122 -0.0446 -0.3278
   18SAPS   H9R 2315   5.258   6.464   4.857  0.6601  1.2783  0.4736
   18SAPS  C210 2316   5.462   6.397   4.907 -0.1467 -0.3241 -0.4239
   18SAPS  H10R 2317   5.479   6.481   4.977  0.3022 -0.3291 -0.5272
   18SAPS  H10S 2318   5.563   6.392   4.862  1.3586  0.1977  2.6672
   18SAPS  C211 2319   5.428   6.269   4.986  0.4390 -0.7116  0.4601
   18SAPS  H11R 2320   5.446   6.177   4.928  1.3872  0.2470 -0.8392
   18SAPS  C212 2321   5.393   6.258   5.119 -0.1936 -0.5340  0.5222
   18SAPS  H12R 2322   5.354   6.166   5.166  0.9463 -1.2425  0.1120
   18SAPS  C213 2323   5.380   6.380   5.208  0.2045  0.4653  0.9805
   18SAPS  H13R 2324   5.289   6.373   5.273 -0.5861  0.4600 -0.0995
   18SAPS  H13S 2325   5.355   6.472   5.152  0.0609  0.8119  1.5947
   18SAPS  C214 2326   5.495   6.408   5.303 -0.2624  0.6643  0.8231
   18SAPS  H14R 2327   5.581   6.430   5.237 -1.2641  0.4723 -0.5923
   18SAPS  C215 2328   5.501   6.406   5.437 -0.0969 -0.1190  0.8779
   18SAPS  H15R 2329   5.595   6.434   5.487 -0.0067  0.2464  0.5110
   18SAPS  C216 2330   5.387   6.390   5.531 -0.2359  0.5520 -0.0105
   18SAPS  H16R 2331   5.288   6.435   5.507  0.2583  1.2054 -0.8715
   18SAPS  H16S 2332   5.404   6.437   5.631  0.4374 -1.2832  0.7881
   18SAPS  C217 2333   5.363   6.245   5.573 -1.0120  0.8564 -0.7656
   18SAPS  H17R 2334   5.291   6.236   5.657  0.5474  2.0469  0.7718
   18SAPS  H17S 2335   5.458   6.197   5.606 -0.2904  0.5452 -3.1082
   18SAPS  C218 2336   5.315   6.147   5.463  0.4007 -0.2054 -0.0297
   18SAPS  H18R 2337   5.389   6.149   5.380  3.6486  0.8143  2.6699
   18SAPS  H18S 2338   5.223   6.183   5.413  1.6933  1.8092 -1.1126
   18SAPS  C219 2339   5.309   6.006   5.513  1.0803  0.6756  0.6391
   18SAPS  H19R 2340   5.233   5.997   5.594 -0.6206  1.3389 -0.8177
   18SAPS  H19S 2341   5.404   5.962   5.551 -0.2556 -1.5246  1.5999
   18SAPS  C220 2342   5.248   5.904   5.406  0.2279 -0.4408 -0.3325
   18SAPS  H20R 2343   5.144   5.921   5.371  0.1535  0.1788  0.1810
   18SAPS  H20S 2344   5.239   5.804   5.454  0.3237 -0.9928 -1.4364
   18SAPS  H20T 2345   5.303   5.898   5.310  3.6081  0.8900  1.3782
   18SAPS   C33 2346   6.269   6.292   4.452  0.2126 -0.0181 -0.5293
   18SAPS   H3X 2347   6.194   6.235   4.395 -1.3834  1.5137 -0.0370
   18SAPS   H3Y 2348   6.225   6.393   4.466 -2.2041 -1.1549  0.6306
   18SAPS   C34 2349   6.293   6.232   4.589 -0.1650 -0.0910  0.6254
   18SAPS   H4X 2350   6.404   6.219   4.593  0.6627  3.2360 -3.8611
   18SAPS   H4Y 2351   6.235   6.138   4.581  0.8107 -0.6873  0.2731
   18SAPS   C35 2352   6.240   6.326   4.693  0.0308  0.1584 -0.1726
   18SAPS   H5X 2353   6.131   6.342   4.684 -0.3343 -2.4741 -1.6060
   18SAPS   H5Y 2354   6.291   6.424   4.680  1.5795 -0.6392 -0.4034
   18SAPS   C36 2355   6.281   6.267   4.825  0.0765 -0.3838  0.7624
   18SAPS   H6X 2356   6.387   6.236   4.835 -0.1629 -1.3126  0.5175
   18SAPS   H6Y 2357   6.214   6.180   4.847  0.7166 -1.5122 -1.5205
   18SAPS   C37 2358   6.266   6.368   4.940 -0.5074  0.0378  0.5062
   18SAPS   H7X 2359   6.166   6.415   4.938 -0.3510  0.3898 -1.3164
   18SAPS   H7Y 2360   6.344   6.445   4.921  1.7557 -2.0459  0.8704
   18SAPS   C38 2361   6.294   6.294   5.073  0.4578  0.3949 -0.1654
   18SAPS   H8X 2362   6.394   6.245   5.077 -0.0820 -0.7166  0.0503
   18SAPS   H8Y 2363   6.213   6.220   5.088 -0.6617  1.1114 -2.3316
   18SAPS   C39 2364   6.289   6.393   5.187  0.4829 -0.2711 -0.5093
   18SAPS   H9X 2365   6.196   6.453   5.194 -0.5322 -1.6798 -1.5512
   18SAPS   H9Y 2366   6.375   6.463   5.176  0.3988 -0.3569 -1.8526
   18SAPS  C310 2367   6.288   6.324   5.319 -0.5402  0.4436 -0.4108
   18SAPS  H10X 2368   6.388   6.282   5.339 -0.4210  0.7660 -0.3276
   18SAPS  H10Y 2369   6.209   6.246   5.316  1.2686 -1.4092 -1.4361
   18SAPS  C311 2370   6.251   6.417   5.436  0.2100 -0.0243  0.1080
   18SAPS  H11X 2371   6.143   6.432   5.415  0.2800 -0.0487 -0.2666
   18SAPS  H11Y 2372   6.308   6.511   5.441 -0.2111  0.1880  1.3371
   18SAPS  C312 2373   6.266   6.340   5.568 -0.4277 -0.0043  0.3327
   18SAPS  H12X 2374   6.372   6.309   5.582 -1.4935 -2.6793  3.8709
   18SAPS  H12Y 2375   6.193   6.256   5.570 -0.3988 -0.0192  1.4475
   18SAPS  C313 2376   6.234   6.424   5.691  0.4585  0.0923 -0.3449
   18SAPS  H13X 2377   6.132   6.467   5.683  0.5707  0.1750 -1.3976
   18SAPS  H13Y 2378   6.309   6.505   5.703  0.1638  0.2502  0.5596
   18SAPS  C314 2379   6.244   6.345   5.821  0.1704  0.0396 -0.0517
   18SAPS  H14X 2380   6.343   6.299   5.842  0.4772 -0.0285 -1.5245
   18SAPS  H14Y 2381   6.174   6.262   5.800  1.0159 -0.2371 -1.9720
   18SAPS  C315 2382   6.188   6.407   5.944 -0.3728 -0.1457  0.3371
   18SAPS  H15X 2383   6.081   6.431   5.930 -0.8620 -2.7361 -0.9101
   18SAPS  H15Y 2384   6.242   6.502   5.965 -0.8989  0.6483 -1.6736
   18SAPS  C316 2385   6.198   6.313   6.063 -0.3197 -0.1673 -0.4147
   18SAPS  H16X 2386   6.307   6.295   6.071 -0.3674  0.5461  3.1386
   18SAPS  H16Y 2387   6.141   6.221   6.034 -0.5732  0.1496 -0.9492
   18SAPS  C317 2388   6.134   6.372   6.189  0.0935  0.4958 -0.1324
   18SAPS  H17X 2389   6.023   6.359   6.193  0.1201 -0.0510 -0.8585
   18SAPS  H17Y 2390   6.156   6.481   6.187 -0.7227  0.7201  1.5433
   18SAPS  C318 2391   6.182   6.302   6.318  0.2379 -0.1482 -0.3726
   18SAPS  H18X 2392   6.123   6.328   6.408 -0.1117 -2.5703  0.1503
   18SAPS  H18Y 2393   6.289   6.329   6.337 -0.1375  1.7674 -0.7957
   18SAPS  H18Z 2394   6.173   6.192   6.303 -0.4040 -0.2040  0.3569
   19SAPS     N 2395   5.744   2.510   4.093  0.1992  0.6504 -0.7026
   19SAPS   HN1 2396   5.679   2.435   4.124  1.6033 -2.0180 -3.5913
   19SAPS   HN2 2397   5.816   2.536   4.164  0.2268  1.0190 -0.8602
   19SAPS   HN3 2398   5.701   2.596   4.054  0.9642  2.1245  1.5270
   19SAPS   C12 2399   5.816   2.454   3.973  0.1923 -0.0299 -0.3669
   19SAPS  H12A 2400   5.738   2.422   3.905 -2.8659  0.4405  2.6618
   19SAPS   C13 2401   5.912   2.549   3.902  0.0134 -0.3511  0.1834
   19SAPS  O13A 2402   5.962   2.651   3.954 -0.3377 -0.8909  0.5327
   19SAPS  O13B 2403   5.948   2.509   3.788 -0.1142 -0.1632  0.6797
   19SAPS   C11 2404   5.899   2.338   4.030 -0.8450  0.4309  0.0054
   19SAPS  H11A 2405   5.987   2.381   4.082  1.2496 -2.4297 -0.9404
   19SAPS  H11B 2406   5.938   2.284   3.942  1.7087 -0.6074  1.6698
   19SAPS     P 2407   5.883   2.125   4.179 -0.2996  0.2175  0.1031
   19SAPS   O13 2408   5.847   2.002   4.103  0.3366 -0.6083 -0.4581
   19SAPS   O14 2409   6.029   2.154   4.189 -0.0874  0.1961 -0.1080
   19SAPS   O12 2410   5.818   2.248   4.108  0.6144 -0.1256  0.2822
   19SAPS   O11 2411   5.817   2.120   4.320  0.4539 -0.4892 -0.6753
   19SAPS    C1 2412   5.686   2.176   4.341 -0.0749 -0.0183  0.2056
   19SAPS    HA 2413   5.676   2.282   4.307 -1.3294 -0.6794 -1.6302
   19SAPS    HB 2414   5.607   2.133   4.276  0.5083 -1.1495  0.2281
   19SAPS    C2 2415   5.632   2.160   4.486  0.0270  0.0392  0.5060
   19SAPS    HS 2416   5.525   2.186   4.488  0.5738  2.7578 -0.9119
   19SAPS   O21 2417   5.711   2.239   4.578  0.3111  0.4617  0.1988
   19SAPS   C21 2418   5.666   2.360   4.589  0.3037 -0.0459  0.2412
   19SAPS   O22 2419   5.567   2.405   4.534  0.0779 -0.2748  0.4287
   19SAPS   C22 2420   5.753   2.432   4.697 -0.3115  0.3832 -0.1622
   19SAPS   H2R 2421   5.724   2.387   4.794 -0.5901  1.7245  0.3939
   19SAPS   H2S 2422   5.862   2.414   4.681  0.1841  0.6397  2.4753
   19SAPS    C3 2423   5.640   2.011   4.532 -0.2334 -0.2827  0.0586
   19SAPS    HX 2424   5.744   1.971   4.534 -0.1949 -0.3875 -2.0263
   19SAPS    HY 2425   5.585   1.955   4.454 -0.7485 -0.0499  0.2528
   19SAPS   O31 2426   5.573   1.996   4.658 -0.3738  0.3816 -0.0159
   19SAPS   C31 2427   5.534   1.865   4.682  0.3413  0.1926 -0.3053
   19SAPS   O32 2428   5.549   1.774   4.606  0.6868 -0.2890  0.4227
   19SAPS   C32 2429   5.455   1.856   4.811  0.4975  0.3502 -0.3843
   19SAPS   H2X 2430   5.353   1.890   4.784 -0.1386 -0.9892  0.2466
   19SAPS   H2Y 2431   5.498   1.927   4.884 -1.0919  1.9729 -0.9488
   19SAPS   C23 2432   5.737   2.591   4.700  0.1026  0.7195  0.4915
   19SAPS   H3R 2433   5.728   2.634   4.598 -2.0447 -0.0347  0.3089
   19SAPS   H3S 2434   5.837   2.626   4.734  1.9948 -1.1985 -2.5622
   19SAPS   C24 2435   5.624   2.641   4.800  0.2098  0.4201  0.6415
   19SAPS   H4R 2436   5.630   2.599   4.903 -1.0495  0.4073  0.7233
   19SAPS   H4S 2437   5.537   2.591   4.753 -0.1838  2.5688 -1.1130
   19SAPS   C25 2438   5.593   2.790   4.788 -0.2905  0.5061  0.2033
   19SAPS   H5R 2439   5.572   2.807   4.681  1.2431 -0.0469 -0.2065
   19SAPS   C26 2440   5.582   2.879   4.885  0.2746 -0.4213  0.2443
   19SAPS   H6R 2441   5.536   2.975   4.856  0.3860 -0.5779 -0.4691
   19SAPS   C27 2442   5.638   2.876   5.023  1.0034  0.0892  0.7606
   19SAPS   H7R 2443   5.616   2.783   5.079  2.6605 -0.0361  1.2659
   19SAPS   H7S 2444   5.583   2.956   5.078  1.0083 -0.7989  2.1152
   19SAPS   C28 2445   5.782   2.902   5.031  0.0160  0.0879  0.1701
   19SAPS   H8R 2446   5.830   2.901   4.932  0.9416 -2.6717  0.5734
   19SAPS   C29 2447   5.850   2.948   5.139  0.7127 -0.2398 -0.5189
   19SAPS   H9R 2448   5.953   2.984   5.127  0.9755 -0.5106  0.7701
   19SAPS  C210 2449   5.791   2.973   5.278 -0.4004  0.4435 -0.3809
   19SAPS  H10R 2450   5.877   2.964   5.348 -1.4238 -0.3604  0.8142
   19SAPS  H10S 2451   5.723   2.890   5.305  0.6665  0.0706  1.3434
   19SAPS  C211 2452   5.721   3.106   5.289 -0.3778  0.7690  1.0443
   19SAPS  H11R 2453   5.646   3.125   5.211 -0.4895 -1.0663  0.6640
   19SAPS  C212 2454   5.746   3.210   5.371  0.2069  0.3775  0.1421
   19SAPS  H12R 2455   5.674   3.293   5.364  0.3642  0.3770 -2.2129
   19SAPS  C213 2456   5.838   3.208   5.488  0.2352  0.1857  0.6456
   19SAPS  H13R 2457   5.894   3.304   5.497  1.5287 -0.3413 -1.3445
   19SAPS  H13S 2458   5.928   3.144   5.475  0.2161  0.4860 -1.2263
   19SAPS  C214 2459   5.777   3.156   5.609 -0.5276  0.1807  0.0097
   19SAPS  H14R 2460   5.731   3.057   5.599  0.6887 -0.4049  0.0002
   19SAPS  C215 2461   5.759   3.223   5.721  0.2879  0.3951  0.1175
   19SAPS  H15R 2462   5.704   3.168   5.799  1.5571  1.5197  1.8871
   19SAPS  C216 2463   5.781   3.369   5.769 -0.0973 -0.1159 -0.2914
   19SAPS  H16R 2464   5.689   3.429   5.788  0.1408  0.6619 -1.4801
   19SAPS  H16S 2465   5.845   3.425   5.697 -1.2352  1.9617  0.2340
   19SAPS  C217 2466   5.857   3.371   5.904  0.3133  1.0694 -0.9107
   19SAPS  H17R 2467   5.949   3.313   5.882  0.3549  0.9614 -0.4585
   19SAPS  H17S 2468   5.801   3.319   5.985  1.7286  1.0941  0.1252
   19SAPS  C218 2469   5.897   3.515   5.950  0.8931 -0.9990 -0.7011
   19SAPS  H18R 2470   5.799   3.561   5.976  0.5011 -1.8986 -0.5223
   19SAPS  H18S 2471   5.947   3.568   5.866 -2.5956  3.0784 -0.5360
   19SAPS  C219 2472   5.986   3.519   6.075  0.1675 -0.2644  0.1869
   19SAPS  H19R 2473   6.081   3.467   6.052 -0.5479 -1.1152 -0.9640
   19SAPS  H19S 2474   5.930   3.475   6.160  0.3191  0.7852  0.8468
   19SAPS  C220 2475   6.032   3.664   6.127  0.0702  0.0389  0.7442
   19SAPS  H20R 2476   6.092   3.647   6.220 -0.3274  1.2233  1.2289
   19SAPS  H20S 2477   5.947   3.728   6.157 -0.1303  1.1111 -1.9030
   19SAPS  H20T 2478   6.092   3.718   6.051 -0.2224 -1.4227 -0.5667
   19SAPS   C33 2479   5.452   1.714   4.882  0.3185 -0.1819  0.0122
   19SAPS   H3X 2480   5.555   1.675   4.894 -0.1955 -2.3721 -2.1072
   19SAPS   H3Y 2481   5.402   1.643   4.813  0.4068  0.3138 -0.5690
   19SAPS   C34 2482   5.355   1.717   5.001  0.4064 -0.7054 -0.1961
   19SAPS   H4X 2483   5.330   1.610   5.017  0.6298 -0.4979  1.7540
   19SAPS   H4Y 2484   5.265   1.768   4.962 -0.9251 -0.6168  2.7190
   19SAPS   C35 2485   5.404   1.782   5.130  0.6873 -0.2396 -0.5906
   19SAPS   H5X 2486   5.430   1.887   5.103  1.4017 -0.2038  0.2120
   19SAPS   H5Y 2487   5.496   1.733   5.167 -0.1826 -0.7598  0.9882
   19SAPS   C36 2488   5.291   1.773   5.237 -0.4380  0.0099  0.6187
   19SAPS   H6X 2489   5.246   1.672   5.248  0.0812 -0.2910  0.0221
   19SAPS   H6Y 2490   5.211   1.845   5.209 -1.4722 -1.0384  0.7568
   19SAPS   C37 2491   5.345   1.814   5.379  0.4174 -0.1163 -0.0214
   19SAPS   H7X 2492   5.361   1.924   5.385  0.6905 -0.0489 -1.6054
   19SAPS   H7Y 2493   5.444   1.772   5.406 -0.2599 -1.9892 -0.2653
   19SAPS   C38 2494   5.251   1.770   5.501  0.0678 -0.9449 -0.7931
   19SAPS   H8X 2495   5.221   1.664   5.483 -0.6880 -0.9482  0.4218
   19SAPS   H8Y 2496   5.160   1.832   5.488  1.8784  1.5689 -2.6022
   19SAPS   C39 2497   5.307   1.812   5.638 -0.6276 -0.5385 -0.6817
   19SAPS   H9X 2498   5.410   1.771   5.645 -1.0698 -1.3943  2.2835
   19SAPS   H9Y 2499   5.255   1.753   5.717 -0.2000  0.7600  0.6164
   19SAPS  C310 2500   5.317   1.969   5.650 -0.7219  0.4172 -0.2363
   19SAPS  H10X 2501   5.224   2.011   5.605 -1.0137 -2.9842 -3.2657
   19SAPS  H10Y 2502   5.403   2.018   5.600  0.3833 -0.0603  1.1230
   19SAPS  C311 2503   5.332   2.011   5.798 -0.7178  0.1199 -0.8831
   19SAPS  H11X 2504   5.439   2.018   5.827 -1.0080  2.5808 -0.1342
   19SAPS  H11Y 2505   5.291   1.922   5.850 -0.1637 -0.2398 -1.0573
   19SAPS  C312 2506   5.261   2.145   5.831 -0.6416  0.6025 -0.2461
   19SAPS  H12X 2507   5.154   2.133   5.803 -0.5850  0.7980 -0.5554
   19SAPS  H12Y 2508   5.309   2.234   5.785  0.6450  0.3903  0.6263
   19SAPS  C313 2509   5.256   2.168   5.979 -0.2500  0.5220  0.1332
   19SAPS  H13X 2510   5.363   2.165   6.010  0.1121  1.2707 -0.9813
   19SAPS  H13Y 2511   5.207   2.078   6.022  0.0093  0.4311  0.2402
   19SAPS  C314 2512   5.200   2.301   6.025 -0.2192  0.0122  0.2812
   19SAPS  H14X 2513   5.099   2.307   5.978  0.7784 -0.6608 -2.1065
   19SAPS  H14Y 2514   5.264   2.375   5.972 -0.2760 -0.0218  0.1643
   19SAPS  C315 2515   5.210   2.321   6.172  0.2029 -0.4702  0.2613
   19SAPS  H15X 2516   5.313   2.300   6.207  1.4809  0.3782 -2.6728
   19SAPS  H15Y 2517   5.133   2.260   6.223 -0.0084  0.2442  0.8160
   19SAPS  C316 2518   5.193   2.470   6.212 -0.4495 -0.5771 -0.1144
   19SAPS  H16X 2519   5.106   2.522   6.168 -0.4896 -0.9633 -0.4966
   19SAPS  H16Y 2520   5.281   2.524   6.172  0.7093 -0.9190  1.8224
   19SAPS  C317 2521   5.187   2.483   6.367 -0.6700 -0.4862 -0.4298
   19SAPS  H17X 2522   5.282   2.436   6.401 -0.8054  0.5448  1.4872
   19SAPS  H17Y 2523   5.111   2.422   6.421 -0.6988 -0.1697 -0.1089
   19SAPS  C318 2524   5.189   2.627   6.415  0.8098  0.5411  0.3762
   19SAPS  H18X 2525   5.154   2.646   6.518 -3.1753 -0.0287 -0.6910
   19SAPS  H18Y 2526   5.110   2.681   6.360  0.0136  0.0132  0.9833
   19SAPS  H18Z 2527   5.284   2.671   6.378  1.7307 -0.5466  1.3789
   20SAPS     N 2528   6.454   4.787   3.611 -0.1780  0.5230 -0.5874
   20SAPS   HN1 2529   6.363   4.793   3.662  0.1885 -2.3794  0.6064
   20SAPS   HN2 2530   6.528   4.772   3.682  0.2376 -3.6198 -1.6871
   20SAPS   HN3 2531   6.460   4.874   3.554 -0.0203  0.9786  0.1018
   20SAPS   C12 2532   6.450   4.665   3.535 -0.5769 -0.4584 -0.1002
   20SAPS  H12A 2533   6.376   4.671   3.457  0.2320 -1.7966 -1.0197
   20SAPS   C13 2534   6.583   4.643   3.454  0.6579  0.2457  0.9354
   20SAPS  O13A 2535   6.660   4.736   3.432  0.1768 -0.1669 -0.5679
   20SAPS  O13B 2536   6.585   4.545   3.371  0.0902 -0.0615 -0.3343
   20SAPS   C11 2537   6.417   4.538   3.619  0.5354  0.9146  0.6797
   20SAPS  H11A 2538   6.504   4.496   3.674 -1.3277 -2.1000  1.6056
   20SAPS  H11B 2539   6.395   4.460   3.542  1.1144  1.5082 -0.1037
   20SAPS     P 2540   6.296   4.446   3.833 -0.6361 -0.1165 -0.2224
   20SAPS   O13 2541   6.158   4.396   3.841 -0.5604  0.3209 -0.2705
   20SAPS   O14 2542   6.405   4.355   3.837 -0.0382  0.0182  0.0515
   20SAPS   O12 2543   6.309   4.550   3.715 -0.1848 -0.1094 -0.0025
   20SAPS   O11 2544   6.305   4.549   3.961 -0.4810  0.2047  0.5837
   20SAPS    C1 2545   6.184   4.614   4.001  0.1522 -0.3626 -0.0646
   20SAPS    HA 2546   6.189   4.720   3.968  5.0860 -1.1875 -3.0148
   20SAPS    HB 2547   6.086   4.586   3.959 -0.6645  1.2055  0.7336
   20SAPS    C2 2548   6.172   4.601   4.158 -0.7994  0.6958  0.2778
   20SAPS    HS 2549   6.167   4.496   4.193 -2.2421  0.8035  0.4243
   20SAPS   O21 2550   6.061   4.666   4.207 -0.1445 -0.2486 -0.7704
   20SAPS   C21 2551   5.942   4.615   4.181  0.5107 -0.6490 -0.0492
   20SAPS   O22 2552   5.912   4.528   4.100 -0.3261  0.4665  0.0141
   20SAPS   C22 2553   5.838   4.708   4.250  0.6031  0.1618 -0.0345
   20SAPS   H2R 2554   5.859   4.708   4.359 -0.1488  1.1120  0.1236
   20SAPS   H2S 2555   5.853   4.805   4.197  2.0535 -0.0890 -0.1248
   20SAPS    C3 2556   6.301   4.666   4.219 -0.5138  0.0223 -0.0813
   20SAPS    HX 2557   6.296   4.777   4.225 -1.7691 -0.0236 -0.1479
   20SAPS    HY 2558   6.384   4.646   4.148 -1.1053 -0.0214 -0.7669
   20SAPS   O31 2559   6.339   4.628   4.352  0.2522  0.5487  0.3796
   20SAPS   C31 2560   6.456   4.616   4.386 -0.0182  0.4665  0.0864
   20SAPS   O32 2561   6.557   4.631   4.309  0.7401  0.1082 -0.3307
   20SAPS   C32 2562   6.472   4.559   4.532 -0.2950  0.5101  0.6190
   20SAPS   H2X 2563   6.580   4.542   4.551  0.0256  0.3896 -1.1309
   20SAPS   H2Y 2564   6.413   4.465   4.531  3.2266 -1.8688  0.3894
   20SAPS   C23 2565   5.693   4.675   4.218 -0.0643 -0.5445 -1.0765
   20SAPS   H3R 2566   5.683   4.642   4.112  0.7842 -0.6668 -1.1225
   20SAPS   H3S 2567   5.623   4.762   4.223  0.3146 -0.2203 -1.3597
   20SAPS   C24 2568   5.633   4.581   4.317 -0.1730  0.3061  0.6045
   20SAPS   H4R 2569   5.532   4.553   4.281  0.5041 -1.7189  0.1257
   20SAPS   H4S 2570   5.622   4.636   4.413  0.3889  0.6941  0.4533
   20SAPS   C25 2571   5.706   4.457   4.365 -0.2187  0.0395  0.2284
   20SAPS   H5R 2572   5.749   4.412   4.274 -1.2075  2.5967 -1.6331
   20SAPS   C26 2573   5.724   4.412   4.487  0.6045  0.2499  0.7965
   20SAPS   H6R 2574   5.784   4.320   4.488 -1.6468 -1.4071 -2.1262
   20SAPS   C27 2575   5.671   4.471   4.616 -0.0411  0.2464  0.2599
   20SAPS   H7R 2576   5.653   4.580   4.609 -0.2371  0.2412  0.6770
   20SAPS   H7S 2577   5.753   4.462   4.691 -0.0916  0.7463  0.3755
   20SAPS   C28 2578   5.540   4.402   4.656  0.1179  0.3494  0.0625
   20SAPS   H8R 2579   5.469   4.368   4.579 -0.0239 -0.7094  0.6519
   20SAPS   C29 2580   5.512   4.348   4.778 -0.2209 -0.2269  0.6024
   20SAPS   H9R 2581   5.422   4.287   4.794 -1.6079  1.5583 -0.0017
   20SAPS  C210 2582   5.596   4.368   4.898  0.1989  0.2316 -0.2809
   20SAPS  H10R 2583   5.542   4.431   4.973 -0.1373 -2.8986  2.3418
   20SAPS  H10S 2584   5.691   4.421   4.877  0.7490 -0.3535  0.6436
   20SAPS  C211 2585   5.639   4.230   4.957 -0.1309 -0.5817  0.2938
   20SAPS  H11R 2586   5.674   4.153   4.887  1.7463 -0.1408  0.6910
   20SAPS  C212 2587   5.642   4.200   5.087 -0.0716 -0.2641 -0.3715
   20SAPS  H12R 2588   5.658   4.097   5.120 -1.1064 -1.1230 -2.4137
   20SAPS  C213 2589   5.610   4.300   5.200 -0.0510  0.2351  0.5153
   20SAPS  H13R 2590   5.533   4.251   5.264 -0.8911  1.7658  0.7241
   20SAPS  H13S 2591   5.562   4.393   5.164  1.4497 -0.1925 -2.9294
   20SAPS  C214 2592   5.732   4.340   5.280 -0.2500  0.1707  0.4245
   20SAPS  H14R 2593   5.797   4.417   5.235 -2.7727  2.4103  0.3490
   20SAPS  C215 2594   5.769   4.286   5.394  0.6230  0.0146 -0.2262
   20SAPS  H15R 2595   5.867   4.309   5.437  1.0080 -1.1706 -0.4381
   20SAPS  C216 2596   5.700   4.173   5.466  0.3105 -0.0746 -0.7484
   20SAPS  H16R 2597   5.770   4.087   5.473 -2.0393 -1.9779  1.1507
   20SAPS  H16S 2598   5.609   4.131   5.418  0.8557 -3.8298  1.1775
   20SAPS  C217 2599   5.677   4.209   5.614 -0.0427 -0.2331 -0.5002
   20SAPS  H17R 2600   5.632   4.311   5.618  0.1509 -0.1771  0.8896
   20SAPS  H17S 2601   5.779   4.226   5.654 -0.9434  1.3953  1.2989
   20SAPS  C218 2602   5.605   4.107   5.704 -0.2235  0.0153  1.3060
   20SAPS  H18R 2603   5.662   4.012   5.707  1.1609  0.7363 -0.4660
   20SAPS  H18S 2604   5.505   4.088   5.659  0.6083  0.2054 -0.7202
   20SAPS  C219 2605   5.580   4.148   5.844 -0.9587 -0.7204  0.1070
   20SAPS  H19R 2606   5.497   4.080   5.874 -2.1604 -0.5782 -2.6375
   20SAPS  H19S 2607   5.530   4.247   5.846  3.3378  1.7326 -0.6699
   20SAPS  C220 2608   5.692   4.146   5.938 -0.1000 -0.0236  0.2500
   20SAPS  H20R 2609   5.662   4.170   6.042  0.3337  1.3941  0.0634
   20SAPS  H20S 2610   5.757   4.235   5.922 -1.9111  1.1433 -0.9812
   20SAPS  H20T 2611   5.755   4.054   5.927  2.2104  1.5768 -0.7118
   20SAPS   C33 2612   6.418   4.656   4.632 -0.4785  0.1965  0.5134
   20SAPS   H3X 2613   6.309   4.664   4.613 -0.3858 -1.7672 -1.1998
   20SAPS   H3Y 2614   6.451   4.762   4.619 -1.0666  0.1788 -1.6310
   20SAPS   C34 2615   6.440   4.604   4.778  0.0746 -0.7787 -0.6492
   20SAPS   H4X 2616   6.546   4.575   4.796 -0.1087 -1.7940 -1.1229
   20SAPS   H4Y 2617   6.385   4.507   4.775 -0.4007 -0.5658  0.6351
   20SAPS   C35 2618   6.402   4.713   4.884  0.2590  0.3546 -0.8729
   20SAPS   H5X 2619   6.293   4.731   4.894  0.3713  0.1634  1.1176
   20SAPS   H5Y 2620   6.444   4.812   4.857 -1.0279  0.5439 -2.3249
   20SAPS   C36 2621   6.451   4.665   5.019  0.2449  0.1323 -0.8693
   20SAPS   H6X 2622   6.554   4.623   5.014  0.1325 -0.3767  0.5495
   20SAPS   H6Y 2623   6.391   4.582   5.062  2.1848  0.2966  2.5682
   20SAPS   C37 2624   6.453   4.778   5.121 -0.1841 -0.3496  0.1174
   20SAPS   H7X 2625   6.353   4.827   5.120 -0.0810 -0.1376 -1.1567
   20SAPS   H7Y 2626   6.535   4.849   5.096  0.7747 -2.2904 -2.7570
   20SAPS   C38 2627   6.476   4.722   5.257 -0.2760  0.0363 -0.6177
   20SAPS   H8X 2628   6.571   4.664   5.259 -0.5709 -0.5272 -1.8043
   20SAPS   H8Y 2629   6.396   4.649   5.282 -1.7657  1.5058 -0.8862
   20SAPS   C39 2630   6.471   4.827   5.374 -0.1291  0.2227  0.4511
   20SAPS   H9X 2631   6.365   4.851   5.397 -0.6295 -1.3087 -0.0719
   20SAPS   H9Y 2632   6.509   4.928   5.347 -2.8143  1.1512 -0.1876
   20SAPS  C310 2633   6.540   4.778   5.499 -0.2618 -0.3104 -0.1272
   20SAPS  H10X 2634   6.646   4.750   5.480  0.3044  0.6372  1.4295
   20SAPS  H10Y 2635   6.476   4.698   5.542 -2.4481  1.3534 -0.0976
   20SAPS  C311 2636   6.546   4.895   5.594  0.3412  0.5473  0.4762
   20SAPS  H11X 2637   6.442   4.931   5.608 -0.1640  0.0891 -1.7371
   20SAPS  H11Y 2638   6.602   4.980   5.548 -0.5751  0.0160 -1.7261
   20SAPS  C312 2639   6.612   4.868   5.728  0.3357  1.0241 -0.3745
   20SAPS  H12X 2640   6.716   4.842   5.699  0.7108  1.8185  0.2053
   20SAPS  H12Y 2641   6.555   4.787   5.779 -2.1797  2.0191 -1.4585
   20SAPS  C313 2642   6.614   4.982   5.826 -0.0952 -0.8236 -0.3983
   20SAPS  H13X 2643   6.508   5.015   5.838 -0.2060  0.0654 -3.2202
   20SAPS  H13Y 2644   6.663   5.065   5.771 -2.0937  1.4187  0.9483
   20SAPS  C314 2645   6.665   4.957   5.970  0.5187 -0.0862  0.5540
   20SAPS  H14X 2646   6.773   4.929   5.966  0.4795 -0.1372 -0.4509
   20SAPS  H14Y 2647   6.602   4.878   6.014  0.2400  0.6004  1.4142
   20SAPS  C315 2648   6.649   5.080   6.066 -0.0733  0.5081  0.0670
   20SAPS  H15X 2649   6.644   5.042   6.171 -0.1559 -0.2610 -0.2051
   20SAPS  H15Y 2650   6.548   5.123   6.049 -0.0512  0.8340  0.7418
   20SAPS  C316 2651   6.760   5.182   6.059  0.6056  0.5660  0.0807
   20SAPS  H16X 2652   6.756   5.235   5.962  1.5695 -0.3268 -0.4740
   20SAPS  H16Y 2653   6.855   5.125   6.064  0.2386 -0.0377  0.2932
   20SAPS  C317 2654   6.768   5.291   6.172  0.5853 -0.4678  0.3432
   20SAPS  H17X 2655   6.681   5.360   6.169  0.4695 -0.6226  0.0916
   20SAPS  H17Y 2656   6.853   5.359   6.151  0.3272 -0.2697 -0.0599
   20SAPS  C318 2657   6.769   5.227   6.313 -0.4692  0.1919 -0.8004
   20SAPS  H18X 2658   6.839   5.141   6.310 -0.4419  0.1993 -0.5037
   20SAPS  H18Y 2659   6.675   5.177   6.346 -0.5067  0.2627 -0.8002
   20SAPS  H18Z 2660   6.796   5.301   6.392  0.9822 -0.6954 -0.4349
   21CHL1    C3 2661   2.643   6.365   7.682  0.0857  0.1205 -0.2198
   21CHL1    H3 2662   2.677   6.287   7.611  1.3270  0.6663 -0.2485
   21CHL1    O3 2663   2.608   6.307   7.807  0.7258  0.0421  0.2730
   21CHL1   H3' 2664   2.519   6.341   7.819 -0.0209 -1.1985 -1.2524
   21CHL1    C4 2665   2.761   6.459   7.694  0.7766 -0.4460  0.1604
   21CHL1   H4A 2666   2.748   6.524   7.784  1.0382 -1.2273  0.7755
   21CHL1   H4B 2667   2.851   6.397   7.714  0.7181  0.0195  2.1534
   21CHL1    C5 2668   2.787   6.544   7.570  0.2168  0.3772  0.7745
   21CHL1    C6 2669   2.913   6.554   7.513 -0.0328 -0.1546 -0.2576
   21CHL1    H6 2670   3.001   6.513   7.564  1.3115  1.9041 -0.8111
   21CHL1    C7 2671   2.932   6.633   7.385  0.7595 -0.1755 -0.1429
   21CHL1   H7A 2672   3.029   6.686   7.386  0.4991  0.3094 -0.4047
   21CHL1   H7B 2673   2.951   6.562   7.301  1.3765 -0.1720 -0.0121
   21CHL1    C8 2674   2.815   6.726   7.344  0.3841 -0.0755  1.0652
   21CHL1    H8 2675   2.816   6.818   7.407  2.4765 -0.0962  1.1438
   21CHL1   C14 2676   2.841   6.773   7.197 -0.1187 -0.8771  0.2087
   21CHL1   H14 2677   2.831   6.678   7.139 -0.5944 -0.7411  0.0704
   21CHL1   C15 2678   2.973   6.836   7.170 -0.2826  0.3484  0.1220
   21CHL1  H15A 2679   3.008   6.905   7.249  0.5545 -2.5127  2.4319
   21CHL1  H15B 2680   3.059   6.769   7.188 -0.7439 -0.1476  0.5470
   21CHL1   C16 2681   2.954   6.895   7.028  0.2290 -0.1512  0.0412
   21CHL1  H16A 2682   2.990   7.000   7.025 -0.6951  0.2423  1.5099
   21CHL1  H16B 2683   2.999   6.831   6.949  2.2711  0.6988  0.4594
   21CHL1   C17 2684   2.802   6.891   7.004  0.6536  0.2386 -0.6889
   21CHL1   H17 2685   2.790   6.797   6.946  1.1204  1.3992 -2.7848
   21CHL1   C13 2686   2.738   6.866   7.137  0.6816  0.6521  0.1851
   21CHL1   C18 2687   2.721   6.990   7.224  0.3973  0.0851 -0.1009
   21CHL1  H18A 2688   2.642   7.054   7.180  1.6889  0.3810 -2.1279
   21CHL1  H18B 2689   2.684   6.972   7.327 -1.2913 -0.6750 -0.8006
   21CHL1  H18C 2690   2.808   7.058   7.221  0.3553  0.1164 -0.6937
   21CHL1   C12 2691   2.598   6.781   7.145 -0.2465 -0.6702  0.1451
   21CHL1  H12A 2692   2.512   6.847   7.120  1.2751  1.4602  0.3088
   21CHL1  H12B 2693   2.601   6.691   7.079  1.6906 -2.1956  2.1478
   21CHL1   C11 2694   2.574   6.730   7.286  0.3610 -0.2239  0.5110
   21CHL1  H11A 2695   2.560   6.818   7.352 -1.2231 -0.6493  0.7736
   21CHL1  H11B 2696   2.485   6.663   7.280 -0.2793  0.6766 -0.6464
   21CHL1    C9 2697   2.686   6.653   7.355 -0.1815 -0.2377 -0.0459
   21CHL1    H9 2698   2.688   6.557   7.298 -0.7293  0.7736 -1.8507
   21CHL1   C10 2699   2.672   6.607   7.500  0.6867 -0.0176 -0.2330
   21CHL1   C19 2700   2.637   6.733   7.582  0.5806 -0.4192 -0.0312
   21CHL1  H19A 2701   2.706   6.820   7.575 -0.5264  0.6806  1.9740
   21CHL1  H19B 2702   2.539   6.775   7.554  0.3038 -1.1907 -0.2612
   21CHL1  H19C 2703   2.634   6.705   7.690 -1.9984 -0.2717 -0.0174
   21CHL1    C1 2704   2.547   6.518   7.502  0.2522 -0.4293 -0.1372
   21CHL1   H1A 2705   2.451   6.573   7.484 -0.2264 -1.4738 -0.9113
   21CHL1   H1B 2706   2.569   6.448   7.418  2.0949 -1.0261  0.7947
   21CHL1    C2 2707   2.520   6.450   7.633 -0.2642  0.3773  0.2012
   21CHL1   H2A 2708   2.433   6.381   7.626  0.0152  0.0594 -0.2372
   21CHL1   H2B 2709   2.504   6.523   7.715 -1.5513 -1.4981  1.7045
   21CHL1   C20 2710   2.753   7.012   6.918 -0.2157  0.6355  0.1906
   21CHL1   H20 2711   2.753   7.100   6.985 -1.4488  1.5037 -0.8848
   21CHL1   C21 2712   2.608   6.991   6.881 -0.0180 -0.0641  0.7166
   21CHL1  H21A 2713   2.543   7.009   6.970  0.7633  0.6075  1.1672
   21CHL1  H21B 2714   2.593   6.890   6.837 -2.3712  1.4893 -2.4863
   21CHL1  H21C 2715   2.554   7.054   6.806  0.8846 -0.6225 -0.4209
   21CHL1   C22 2716   2.844   7.046   6.793 -0.5783  0.0018  0.0253
   21CHL1  H22A 2717   2.934   7.107   6.814 -2.0115  2.9233 -1.6946
   21CHL1  H22B 2718   2.864   6.954   6.734  0.4612 -0.6719  1.3758
   21CHL1   C23 2719   2.775   7.135   6.681 -0.4155 -0.4376 -0.0261
   21CHL1  H23A 2720   2.672   7.108   6.648 -0.5658 -0.0906  0.1485
   21CHL1  H23B 2721   2.744   7.218   6.747 -1.0876 -1.6102  1.1948
   21CHL1   C24 2722   2.868   7.189   6.568  0.2952  0.3192  0.4842
   21CHL1  H24A 2723   2.936   7.256   6.626 -1.4262  2.2185  0.4497
   21CHL1  H24B 2724   2.913   7.094   6.533 -3.6937 -1.4393 -0.3463
   21CHL1   C25 2725   2.811   7.271   6.456 -0.1128 -0.1465 -0.4575
   21CHL1   H25 2726   2.880   7.286   6.371 -0.0541 -0.5205 -0.4757
   21CHL1   C26 2727   2.701   7.196   6.386  0.8122 -0.0148 -0.3343
   21CHL1  H26A 2728   2.723   7.088   6.369 -1.7436 -0.6629  0.0579
   21CHL1  H26B 2729   2.606   7.201   6.444  0.6351 -0.7057 -0.5500
   21CHL1  H26C 2730   2.694   7.243   6.286 -1.2574  1.2857  0.3655
   21CHL1   C27 2731   2.750   7.411   6.497  0.0285  0.7843  0.1475
   21CHL1  H27A 2732   2.838   7.471   6.531  2.9804 -3.2585  0.4829
   21CHL1  H27B 2733   2.697   7.449   6.407 -1.3600  0.0921  0.6484
   21CHL1  H27C 2734   2.682   7.386   6.581  0.9889 -0.6336  0.5488
   22CHL1    C3 2735   4.918   6.169   7.713  0.4689 -0.0869  0.9306
   22CHL1    H3 2736   4.893   6.063   7.693 -1.2780  0.5029 -0.2277
   22CHL1    O3 2737   4.883   6.185   7.845  0.8325  0.3487  0.0399
   22CHL1   H3' 2738   4.907   6.274   7.873  1.0428 -0.6265  3.4415
   22CHL1    C4 2739   5.072   6.190   7.700  0.4729 -0.2661  0.1143
   22CHL1   H4A 2740   5.104   6.290   7.736  0.6523  0.0866 -1.0079
   22CHL1   H4B 2741   5.117   6.114   7.767  1.8711  0.4059 -0.0402
   22CHL1    C5 2742   5.117   6.179   7.554 -0.1776  0.2718 -0.1448
   22CHL1    C6 2743   5.213   6.090   7.521 -0.0008 -0.6355  0.0638
   22CHL1    H6 2744   5.252   6.023   7.599 -0.7199 -1.7894 -0.5296
   22CHL1    C7 2745   5.250   6.055   7.379  0.2491 -0.7364  0.3019
   22CHL1   H7A 2746   5.361   6.048   7.367  0.4261  1.7960 -0.1035
   22CHL1   H7B 2747   5.194   5.962   7.356 -1.1985 -0.6584  3.1772
   22CHL1    C8 2748   5.201   6.167   7.284 -0.5482  0.5588 -0.2290
   22CHL1    H8 2749   5.271   6.251   7.303  0.2902 -0.3151  0.6778
   22CHL1   C14 2750   5.225   6.118   7.137  0.2929  0.3260  0.1190
   22CHL1   H14 2751   5.159   6.031   7.116 -0.2128  1.0363 -1.4068
   22CHL1   C15 2752   5.369   6.062   7.098  0.8523  0.1561 -0.1028
   22CHL1  H15A 2753   5.439   6.136   7.142  0.5360 -0.0858  0.8517
   22CHL1  H15B 2754   5.384   5.959   7.136 -2.4450 -1.0126 -1.5898
   22CHL1   C16 2755   5.366   6.079   6.945  0.1627 -0.6162  0.2843
   22CHL1  H16A 2756   5.439   6.151   6.903 -1.6535  0.0513 -1.9419
   22CHL1  H16B 2757   5.387   5.982   6.896 -1.0425 -0.0160 -1.5285
   22CHL1   C17 2758   5.221   6.139   6.904 -0.3482 -0.3765  0.1364
   22CHL1   H17 2759   5.159   6.048   6.895  0.2775 -1.0382  1.9487
   22CHL1   C13 2760   5.181   6.213   7.032  0.1225  0.2097 -0.4636
   22CHL1   C18 2761   5.262   6.341   7.023  0.2969  0.1075 -0.2490
   22CHL1  H18A 2762   5.257   6.395   7.121  0.6230 -0.3768  0.0395
   22CHL1  H18B 2763   5.371   6.325   7.010  0.4799  0.1295  1.0927
   22CHL1  H18C 2764   5.235   6.408   6.939  1.0563 -1.8579 -2.1426
   22CHL1   C12 2765   5.031   6.236   7.052  0.5011  0.6660  0.3705
   22CHL1  H12A 2766   4.995   6.319   6.988 -0.9444  2.0174  2.7926
   22CHL1  H12B 2767   4.980   6.138   7.042 -0.9434  1.2131  2.0447
   22CHL1   C11 2768   4.996   6.285   7.198  0.3492  0.2201  0.4270
   22CHL1  H11A 2769   5.050   6.382   7.207  2.0752 -0.7561  1.0342
   22CHL1  H11B 2770   4.887   6.309   7.201  0.4299  1.2504 -2.0716
   22CHL1    C9 2771   5.059   6.196   7.313  0.7718  0.0273  0.2118
   22CHL1    H9 2772   5.013   6.096   7.306  2.5314 -0.8988  1.2147
   22CHL1   C10 2773   5.032   6.254   7.453  0.1755 -0.1315 -0.0783
   22CHL1   C19 2774   5.067   6.408   7.460  0.3402  0.3938 -0.5099
   22CHL1  H19A 2775   5.108   6.436   7.560 -3.0730  0.2258  1.0672
   22CHL1  H19B 2776   5.141   6.448   7.388 -1.3340 -1.0583 -3.2060
   22CHL1  H19C 2777   4.979   6.474   7.451  1.9653  2.4779 -1.9975
   22CHL1    C1 2778   4.877   6.242   7.476 -0.1953 -0.1239  0.4202
   22CHL1   H1A 2779   4.821   6.312   7.410  1.0439  1.8223  1.3449
   22CHL1   H1B 2780   4.833   6.145   7.442 -3.6476 -0.4394  4.7869
   22CHL1    C2 2781   4.839   6.263   7.625 -0.2493  0.4727 -0.4306
   22CHL1   H2A 2782   4.733   6.246   7.653 -0.2358 -0.0073 -0.6458
   22CHL1   H2B 2783   4.874   6.365   7.652 -2.0875  1.0750 -0.2111
   22CHL1   C20 2784   5.224   6.209   6.768  0.6685 -0.4745 -0.6669
   22CHL1   H20 2785   5.293   6.297   6.774  1.7537 -1.2048 -1.8924
   22CHL1   C21 2786   5.087   6.275   6.730 -0.2594 -0.2877  0.2743
   22CHL1  H21A 2787   5.006   6.202   6.752 -2.1000  1.4914 -0.2388
   22CHL1  H21B 2788   5.084   6.318   6.627 -1.8500  0.1690  0.4849
   22CHL1  H21C 2789   5.059   6.360   6.796 -1.8700 -0.1325 -0.5515
   22CHL1   C22 2790   5.300   6.132   6.655  0.2037 -0.4724 -0.1738
   22CHL1  H22A 2791   5.305   6.200   6.567 -1.2555  0.0265  0.1072
   22CHL1  H22B 2792   5.402   6.106   6.692  0.1036  1.2520  1.4347
   22CHL1   C23 2793   5.227   6.005   6.624  0.1522  1.1656  0.3392
   22CHL1  H23A 2794   5.233   5.933   6.709  2.5310 -0.2928 -0.9506
   22CHL1  H23B 2795   5.118   6.021   6.610 -0.4328 -2.6051 -0.4056
   22CHL1   C24 2796   5.277   5.932   6.498 -0.6217  0.0805  0.0550
   22CHL1  H24A 2797   5.387   5.928   6.506 -0.4711  1.5359 -0.8430
   22CHL1  H24B 2798   5.233   5.831   6.488 -0.3661  0.0695 -1.0703
   22CHL1   C25 2799   5.254   6.005   6.365 -0.1963 -0.8217 -0.0781
   22CHL1   H25 2800   5.318   6.095   6.371 -1.3884  0.1237 -0.9840
   22CHL1   C26 2801   5.309   5.916   6.255 -0.1167  0.1240 -0.4105
   22CHL1  H26A 2802   5.417   5.897   6.270 -0.0748  0.6229 -0.0570
   22CHL1  H26B 2803   5.266   5.814   6.262  1.0758 -0.3220  1.1037
   22CHL1  H26C 2804   5.293   5.961   6.155  0.0605 -0.2748 -0.6165
   22CHL1   C27 2805   5.112   6.052   6.341  0.4925 -0.2703 -0.1901
   22CHL1  H27A 2806   5.096   6.090   6.238 -1.1476  0.4567  0.2972
   22CHL1  H27B 2807   5.043   5.965   6.353  0.7144 -0.5536 -0.9281
   22CHL1  H27C 2808   5.088   6.136   6.410 -0.7927 -0.4126 -0.4376
   23CHL1    C3 2809   1.842   6.577   7.984  0.2737  0.4559 -0.0904
   23CHL1    H3 2810   1.865   6.470   7.966  0.0903  0.2677  0.7856
   23CHL1    O3 2811   1.800   6.602   8.113 -0.5361  0.3115  0.1034
   23CHL1   H3' 2812   1.871   6.561   8.163 -0.6310 -0.4881 -0.4102
   23CHL1    C4 2813   1.967   6.661   7.942 -0.4524  0.3650 -0.2648
   23CHL1   H4A 2814   1.962   6.767   7.975  0.4348  0.2919  0.1343
   23CHL1   H4B 2815   2.049   6.617   8.004 -1.0893  1.2163  1.2280
   23CHL1    C5 2816   2.006   6.660   7.792 -0.4591 -0.2321 -0.7811
   23CHL1    C6 2817   2.130   6.629   7.754  0.4888  0.0292  0.2273
   23CHL1    H6 2818   2.209   6.608   7.828 -2.4263 -2.3296  2.9769
   23CHL1    C7 2819   2.170   6.655   7.613  0.2073 -0.0747 -0.2455
   23CHL1   H7A 2820   2.272   6.699   7.619  1.4998 -2.9444  1.3429
   23CHL1   H7B 2821   2.182   6.551   7.574 -0.3145 -0.7390  1.2853
   23CHL1    C8 2822   2.061   6.732   7.532  0.1975 -0.2476  0.3378
   23CHL1    H8 2823   2.069   6.840   7.558 -0.7486 -0.2524  0.7028
   23CHL1   C14 2824   2.087   6.724   7.377 -0.2031  0.0362  0.5419
   23CHL1   H14 2825   2.071   6.615   7.362  0.7531 -0.1242  0.6050
   23CHL1   C15 2826   2.229   6.746   7.314  0.4546  0.1874 -0.9742
   23CHL1  H15A 2827   2.293   6.826   7.357  1.2762  0.5618 -2.7949
   23CHL1  H15B 2828   2.286   6.651   7.311 -0.0718 -0.3187  1.9676
   23CHL1   C16 2829   2.193   6.782   7.164 -0.3963 -0.8107 -0.3601
   23CHL1  H16A 2830   2.228   6.887   7.157 -0.6732 -0.7128 -0.2701
   23CHL1  H16B 2831   2.251   6.717   7.094  0.5405 -0.8984  0.4678
   23CHL1   C17 2832   2.039   6.780   7.151 -0.4485  0.6858 -0.3679
   23CHL1   H17 2833   2.023   6.673   7.122 -0.4034  0.1985  1.3143
   23CHL1   C13 2834   1.986   6.800   7.290  0.2928 -0.4983 -0.4381
   23CHL1   C18 2835   1.997   6.953   7.327  0.7584  0.3116  0.4302
   23CHL1  H18A 2836   1.981   6.960   7.436  2.7985  1.2339  0.7072
   23CHL1  H18B 2837   2.101   6.988   7.311  0.5816  0.3750 -0.6611
   23CHL1  H18C 2838   1.914   7.009   7.279  1.6851  0.7156 -0.7523
   23CHL1   C12 2839   1.844   6.748   7.319 -0.1492 -0.2207  0.3286
   23CHL1  H12A 2840   1.761   6.794   7.260  1.5152  0.9900 -1.1567
   23CHL1  H12B 2841   1.857   6.645   7.279  3.1208 -0.1574  0.9983
   23CHL1   C11 2842   1.808   6.753   7.468 -0.0473  0.0158 -0.8066
   23CHL1  H11A 2843   1.816   6.860   7.498  2.4866 -0.7892  1.7575
   23CHL1  H11B 2844   1.712   6.700   7.486  0.4304 -1.2736 -1.9264
   23CHL1    C9 2845   1.917   6.686   7.561  0.6723 -1.0984 -0.6360
   23CHL1    H9 2846   1.916   6.576   7.544 -2.0871 -1.6748  2.2865
   23CHL1   C10 2847   1.882   6.710   7.712  0.4525 -0.2606 -0.0021
   23CHL1   C19 2848   1.846   6.852   7.739 -1.2972 -0.2821 -0.4290
   23CHL1  H19A 2849   1.833   6.888   7.843 -0.5721 -0.3431 -0.3114
   23CHL1  H19B 2850   1.928   6.910   7.691 -1.8863  0.2669 -0.7743
   23CHL1  H19C 2851   1.752   6.871   7.683 -0.0034  0.2645 -2.5544
   23CHL1    C1 2852   1.764   6.610   7.743  0.3878 -0.2119  0.3398
   23CHL1   H1A 2853   1.672   6.642   7.689 -0.3757 -0.1325  1.6442
   23CHL1   H1B 2854   1.791   6.511   7.700  0.8080  0.7061 -1.6033
   23CHL1    C2 2855   1.721   6.604   7.888 -0.7086 -0.5266 -0.1013
   23CHL1   H2A 2856   1.646   6.524   7.910  0.8538 -1.7885  0.9591
   23CHL1   H2B 2857   1.659   6.692   7.913  1.4925  1.7098 -2.0177
   23CHL1   C20 2858   1.992   6.874   7.030  0.3503 -0.4746  0.0110
   23CHL1   H20 2859   1.984   6.979   7.067  1.7566 -0.9466  1.8494
   23CHL1   C21 2860   1.851   6.841   6.985  0.2690 -0.2863  0.0100
   23CHL1  H21A 2861   1.813   6.929   6.928  2.7517  0.5758 -0.4399
   23CHL1  H21B 2862   1.781   6.809   7.065 -0.9088 -0.2485 -0.9815
   23CHL1  H21C 2863   1.851   6.757   6.913 -1.9428 -1.4979  1.3408
   23CHL1   C22 2864   2.086   6.855   6.916 -1.0600  0.0980  0.1042
   23CHL1  H22A 2865   2.184   6.892   6.954 -0.3755  0.1529 -1.6384
   23CHL1  H22B 2866   2.100   6.750   6.885  0.5374  0.4495 -0.4312
   23CHL1   C23 2867   2.048   6.928   6.781  0.5720  0.1186 -0.3596
   23CHL1  H23A 2868   1.958   6.889   6.728  0.4952 -1.2814  0.7376
   23CHL1  H23B 2869   2.028   7.035   6.801 -0.9970 -0.5395  2.0287
   23CHL1   C24 2870   2.172   6.926   6.686  0.1872 -0.2364  0.8076
   23CHL1  H24A 2871   2.263   6.943   6.748  1.3017 -2.8186  0.0087
   23CHL1  H24B 2872   2.174   6.827   6.636 -1.3931 -0.0099  0.2294
   23CHL1   C25 2873   2.173   7.009   6.552  0.1676 -0.6548 -0.4945
   23CHL1   H25 2874   2.105   6.973   6.471  0.3631  0.8389 -1.3683
   23CHL1   C26 2875   2.131   7.158   6.587 -0.4455 -0.4103  0.6207
   23CHL1  H26A 2876   2.183   7.191   6.679  1.8689  0.7212 -1.0123
   23CHL1  H26B 2877   2.181   7.210   6.503 -0.0925 -1.1025  0.3892
   23CHL1  H26C 2878   2.020   7.163   6.592 -0.5951 -1.0326 -1.2474
   23CHL1   C27 2879   2.319   7.012   6.498  0.0694 -1.0064 -0.3456
   23CHL1  H27A 2880   2.325   7.082   6.412  2.0584  1.0683  1.3437
   23CHL1  H27B 2881   2.389   7.053   6.574  0.7629  0.1096 -1.5461
   23CHL1  H27C 2882   2.353   6.912   6.464  0.4147 -1.1342  0.3752
   24CHL1    C3 2883   0.333   1.006   7.948 -0.4887  0.8877  0.1925
   24CHL1    H3 2884   0.336   0.901   7.984  1.1338  1.7533  2.9113
   24CHL1    O3 2885   0.304   1.057   8.080  0.4017  0.5481 -0.0339
   24CHL1   H3' 2886   0.209   1.068   8.086  0.5089  0.7532  2.6003
   24CHL1    C4 2887   0.462   1.064   7.900 -0.2543 -0.0143 -0.5039
   24CHL1   H4A 2888   0.457   1.175   7.904  0.4623  0.0647 -1.5615
   24CHL1   H4B 2889   0.536   1.023   7.972  0.5447 -1.6505 -2.1820
   24CHL1    C5 2890   0.499   1.020   7.763 -0.8962  0.3092 -0.5597
   24CHL1    C6 2891   0.623   0.948   7.749 -0.5051 -0.1515 -0.0998
   24CHL1    H6 2892   0.695   0.931   7.830 -0.4187  1.2838  0.1483
   24CHL1    C7 2893   0.665   0.891   7.617 -0.3659 -0.2699 -0.3463
   24CHL1   H7A 2894   0.773   0.902   7.595 -0.2290  0.1639  0.5359
   24CHL1   H7B 2895   0.646   0.781   7.621 -3.1282  0.1628  1.1826
   24CHL1    C8 2896   0.584   0.957   7.503  0.5333  0.4417  0.3221
   24CHL1    H8 2897   0.625   1.060   7.497  0.7458  0.3137 -0.5215
   24CHL1   C14 2898   0.611   0.888   7.373  0.2749  0.7283  0.6231
   24CHL1   H14 2899   0.568   0.785   7.379  0.6325  0.3988 -1.5549
   24CHL1   C15 2900   0.759   0.866   7.337 -0.5401  0.5431  0.0328
   24CHL1  H15A 2901   0.814   0.957   7.369  1.1940 -0.2975 -0.4467
   24CHL1  H15B 2902   0.804   0.776   7.384 -1.9520 -0.1659  0.0756
   24CHL1   C16 2903   0.764   0.840   7.192 -0.2457  0.8206 -0.0326
   24CHL1  H16A 2904   0.820   0.922   7.142 -0.4546  0.8374 -0.2398
   24CHL1  H16B 2905   0.822   0.747   7.172 -0.0575  1.2630 -1.6923
   24CHL1   C17 2906   0.612   0.848   7.140 -0.0907 -0.2165 -0.2774
   24CHL1   H17 2907   0.569   0.747   7.157  1.0807 -0.7671 -0.4548
   24CHL1   C13 2908   0.538   0.939   7.245 -0.1938 -0.2046 -0.2993
   24CHL1   C18 2909   0.575   1.086   7.219  0.1678  0.4084 -0.2584
   24CHL1  H18A 2910   0.552   1.140   7.313  0.7232  1.3662 -0.6546
   24CHL1  H18B 2911   0.686   1.091   7.220  0.1334  4.2410  0.7045
   24CHL1  H18C 2912   0.527   1.130   7.128  0.2839 -0.4770 -0.7644
   24CHL1   C12 2913   0.390   0.924   7.263  0.2783  0.1515  0.2580
   24CHL1  H12A 2914   0.341   0.984   7.184 -1.5698 -2.6836 -0.9109
   24CHL1  H12B 2915   0.366   0.815   7.260 -0.9278  0.4240 -0.3988
   24CHL1   C11 2916   0.349   0.988   7.401  0.3572  0.7351  0.1229
   24CHL1  H11A 2917   0.353   1.097   7.382  1.2717  0.4685 -1.2795
   24CHL1  H11B 2918   0.242   0.967   7.425  0.4243  0.5920  0.3023
   24CHL1    C9 2919   0.427   0.951   7.527 -0.4421 -0.0852  0.0746
   24CHL1    H9 2920   0.400   0.845   7.541 -3.1448  0.7128  1.5267
   24CHL1   C10 2921   0.391   1.026   7.654  0.3463  0.2890  0.1181
   24CHL1   C19 2922   0.382   1.179   7.622  0.6073  0.0327 -0.3397
   24CHL1  H19A 2923   0.484   1.209   7.590  0.7619 -2.1084 -2.1625
   24CHL1  H19B 2924   0.315   1.219   7.543 -1.0216  2.1989  1.9932
   24CHL1  H19C 2925   0.354   1.230   7.716  0.5968  0.2048 -0.4360
   24CHL1    C1 2926   0.259   0.970   7.717 -0.4078  0.3861 -0.1751
   24CHL1   H1A 2927   0.171   0.993   7.653 -0.6656 -0.0235  0.0292
   24CHL1   H1B 2928   0.271   0.859   7.712 -0.3535  0.3998 -0.3969
   24CHL1    C2 2929   0.224   1.022   7.852  0.2837 -0.2332  0.3032
   24CHL1   H2A 2930   0.136   0.966   7.890  0.6996 -1.3429 -0.3249
   24CHL1   H2B 2931   0.205   1.132   7.852  2.2778  0.1458  0.8119
   24CHL1   C20 2932   0.605   0.873   6.990  0.0983 -0.3614  0.9533
   24CHL1   H20 2933   0.643   0.974   6.962 -1.9475  0.7720  2.0158
   24CHL1   C21 2934   0.466   0.860   6.933  0.0479  0.6013 -0.4618
   24CHL1  H21A 2935   0.415   0.766   6.962 -1.8104  1.7363  0.1500
   24CHL1  H21B 2936   0.461   0.876   6.823  0.2535  0.3565 -0.5075
   24CHL1  H21C 2937   0.424   0.943   6.993 -0.6571 -0.0025 -0.1109
   24CHL1   C22 2938   0.699   0.791   6.906  1.1839  0.3257  0.0109
   24CHL1  H22A 2939   0.800   0.809   6.950  0.4566  2.0131  1.0942
   24CHL1  H22B 2940   0.673   0.687   6.936  1.9555  0.6726  2.0380
   24CHL1   C23 2941   0.713   0.822   6.757  0.1232 -0.0715  0.2787
   24CHL1  H23A 2942   0.624   0.786   6.702 -0.6955  0.6738  1.0719
   24CHL1  H23B 2943   0.711   0.930   6.731  1.2897  0.1018  0.8394
   24CHL1   C24 2944   0.835   0.761   6.695 -0.4750  0.0619  0.4970
   24CHL1  H24A 2945   0.929   0.758   6.754 -0.8930 -1.1002  1.1421
   24CHL1  H24B 2946   0.812   0.652   6.691  0.6912 -0.4432  4.2462
   24CHL1   C25 2947   0.862   0.824   6.554  0.2761 -0.0152  0.1682
   24CHL1   H25 2948   0.768   0.838   6.496  0.6839  0.4430 -0.3948
   24CHL1   C26 2949   0.925   0.964   6.569 -0.2322  0.5536 -0.4150
   24CHL1  H26A 2950   1.007   0.971   6.643  0.9715  3.7410 -1.8756
   24CHL1  H26B 2951   0.969   1.005   6.475 -0.5742  3.4072  0.5882
   24CHL1  H26C 2952   0.846   1.033   6.603 -0.4063  0.8655 -1.4049
   24CHL1   C27 2953   0.961   0.739   6.478  0.6523 -1.5021 -0.1764
   24CHL1  H27A 2954   1.051   0.720   6.540  0.2454 -1.9453  0.2889
   24CHL1  H27B 2955   0.923   0.636   6.460  1.5802 -1.7934 -0.5088
   24CHL1  H27C 2956   1.003   0.784   6.386  4.7141 -2.2761  1.0802
   25CHL1    C3 2957   0.658   2.169   8.001  0.1352  0.3102 -0.3199
   25CHL1    H3 2958   0.597   2.260   8.024  0.0044  0.5695 -1.5849
   25CHL1    O3 2959   0.702   2.111   8.129  0.3374 -0.5880  0.0940
   25CHL1   H3' 2960   0.750   2.029   8.114 -0.1751 -0.6254 -1.5330
   25CHL1    C4 2961   0.597   2.060   7.913 -0.0469 -0.0962 -0.2885
   25CHL1   H4A 2962   0.680   1.987   7.903 -0.2963 -0.5644  0.9826
   25CHL1   H4B 2963   0.524   1.994   7.964  0.1417 -0.5526 -0.5962
   25CHL1    C5 2964   0.540   2.114   7.781  0.4918 -0.3287 -0.2070
   25CHL1    C6 2965   0.407   2.102   7.753  0.1316 -0.3160  0.0624
   25CHL1    H6 2966   0.340   2.062   7.831 -0.1642 -2.5775 -1.2885
   25CHL1    C7 2967   0.345   2.139   7.626 -0.0194 -0.0198  0.0068
   25CHL1   H7A 2968   0.269   2.068   7.588 -1.8277  0.4959  2.4000
   25CHL1   H7B 2969   0.293   2.237   7.634 -1.5373 -0.9164  1.7271
   25CHL1    C8 2970   0.460   2.169   7.515  0.1962  0.1033  0.3367
   25CHL1    H8 2971   0.492   2.066   7.490 -0.4350 -0.6113  2.2628
   25CHL1   C14 2972   0.404   2.235   7.391  1.0435 -0.3667 -0.1299
   25CHL1   H14 2973   0.362   2.330   7.431  0.0119 -0.3032 -1.3217
   25CHL1   C15 2974   0.289   2.166   7.325 -0.2318 -0.5727  0.1412
   25CHL1  H15A 2975   0.305   2.056   7.325 -0.6142 -0.6322 -0.3730
   25CHL1  H15B 2976   0.186   2.176   7.366 -1.1088 -0.9636 -1.8416
   25CHL1   C16 2977   0.297   2.226   7.175 -0.6026  0.2875 -0.2910
   25CHL1  H16A 2978   0.312   2.138   7.109  1.5719  0.4437 -0.0570
   25CHL1  H16B 2979   0.203   2.285   7.167  0.1278  1.5673  0.2814
   25CHL1   C17 2980   0.419   2.326   7.171 -0.4601  0.1087  0.6441
   25CHL1   H17 2981   0.373   2.424   7.196 -0.5821 -0.0399  1.0040
   25CHL1   C13 2982   0.512   2.279   7.288  0.8376  0.4075  1.2191
   25CHL1   C18 2983   0.578   2.148   7.238 -0.7403 -0.6570  0.2822
   25CHL1  H18A 2984   0.519   2.070   7.185 -0.5569  0.1746 -1.1987
   25CHL1  H18B 2985   0.672   2.158   7.179  0.5247  1.2674  2.4600
   25CHL1  H18C 2986   0.615   2.101   7.332  1.8391 -0.3505 -0.5030
   25CHL1   C12 2987   0.605   2.382   7.361 -0.3211  0.4904  0.5811
   25CHL1  H12A 2988   0.676   2.419   7.284 -2.2889 -0.6287 -1.9414
   25CHL1  H12B 2989   0.547   2.475   7.381  1.7319  2.5806 -2.3499
   25CHL1   C11 2990   0.667   2.319   7.478  0.2522  0.4280 -0.4275
   25CHL1  H11A 2991   0.740   2.246   7.438  0.7420  0.4121  0.4689
   25CHL1  H11B 2992   0.738   2.385   7.533 -0.0293  0.0121  0.4501
   25CHL1    C9 2993   0.569   2.255   7.577 -0.2323  0.5185  0.1078
   25CHL1    H9 2994   0.513   2.339   7.623  0.0363  1.5527 -1.3893
   25CHL1   C10 2995   0.640   2.175   7.689  0.7936 -0.9599  0.4769
   25CHL1   C19 2996   0.722   2.066   7.634  0.3118  0.2852  0.1702
   25CHL1  H19A 2997   0.670   2.006   7.556  3.3337 -0.9589 -1.0471
   25CHL1  H19B 2998   0.816   2.095   7.582  1.2813 -1.2045  1.0257
   25CHL1  H19C 2999   0.751   1.990   7.709 -0.8870  0.6348  1.0004
   25CHL1    C1 3000   0.721   2.273   7.785  0.1727  0.1659  0.9782
   25CHL1   H1A 3001   0.800   2.301   7.713 -2.7342  1.0770 -2.1323
   25CHL1   H1B 3002   0.665   2.367   7.803  3.6888  2.6047  0.1024
   25CHL1    C2 3003   0.777   2.216   7.915  0.1282 -0.0892 -0.0982
   25CHL1   H2A 3004   0.832   2.302   7.960 -0.3592 -0.5772  1.4975
   25CHL1   H2B 3005   0.831   2.120   7.908 -2.6855 -1.8003  0.1692
   25CHL1   C20 3006   0.475   2.338   7.029  0.5255 -0.0347 -0.0560
   25CHL1   H20 3007   0.529   2.247   6.994  0.0813  0.3496 -1.8436
   25CHL1   C21 3008   0.582   2.452   7.015 -0.0232 -0.1242  0.1750
   25CHL1  H21A 3009   0.541   2.551   7.044  0.3979  0.0280  0.2549
   25CHL1  H21B 3010   0.631   2.455   6.916 -0.0908 -0.8013  0.1163
   25CHL1  H21C 3011   0.667   2.419   7.079  0.6594  2.4733  0.7414
   25CHL1   C22 3012   0.357   2.372   6.920 -0.0496 -0.2544 -0.2535
   25CHL1  H22A 3013   0.261   2.326   6.953  1.0498 -1.3877  1.5712
   25CHL1  H22B 3014   0.333   2.480   6.920 -0.9154 -0.4412 -0.2266
   25CHL1   C23 3015   0.387   2.327   6.781 -0.2496 -0.3223  0.6512
   25CHL1  H23A 3016   0.484   2.376   6.758 -0.4870 -0.5614 -0.9378
   25CHL1  H23B 3017   0.399   2.216   6.788 -2.4484 -0.6330  0.2467
   25CHL1   C24 3018   0.271   2.354   6.692  0.2981 -0.5884  1.2120
   25CHL1  H24A 3019   0.177   2.330   6.747 -0.0088 -1.0452  0.4997
   25CHL1  H24B 3020   0.263   2.463   6.672 -0.6091 -0.9144 -0.2857
   25CHL1   C25 3021   0.263   2.286   6.554 -0.0653  0.9687  0.0828
   25CHL1   H25 3022   0.168   2.316   6.505 -0.8677 -0.0305  0.9960
   25CHL1   C26 3023   0.379   2.327   6.472 -1.1923 -0.4662 -0.0010
   25CHL1  H26A 3024   0.381   2.278   6.373 -0.8941 -0.4850  0.0138
   25CHL1  H26B 3025   0.388   2.437   6.466  2.2607 -0.7215 -2.8977
   25CHL1  H26C 3026   0.474   2.315   6.529 -1.4262  0.7322  0.6689
   25CHL1   C27 3027   0.258   2.130   6.569  0.4263  0.6679 -0.3654
   25CHL1  H27A 3028   0.345   2.091   6.625 -0.8573  0.7021  1.7576
   25CHL1  H27B 3029   0.171   2.108   6.635  1.4665  2.2066  1.6195
   25CHL1  H27C 3030   0.245   2.079   6.471  0.3536  0.5555 -0.2974
   26CHL1    C3 3031   1.777   0.992   8.202  0.3020 -0.1804 -1.3137
   26CHL1    H3 3032   1.705   1.065   8.160 -1.2337  0.3520  1.9461
   26CHL1    O3 3033   1.773   1.004   8.344  0.2080 -0.0940  0.9561
   26CHL1   H3' 3034   1.849   0.950   8.368  1.6655  0.7494 -1.4534
   26CHL1    C4 3035   1.735   0.852   8.163 -0.3470  0.9672  0.3226
   26CHL1   H4A 3036   1.813   0.787   8.207 -0.2952 -0.1703 -1.3581
   26CHL1   H4B 3037   1.635   0.818   8.200 -1.2173 -0.4098 -2.9531
   26CHL1    C5 3038   1.738   0.841   8.013  1.4231  0.0613 -0.4233
   26CHL1    C6 3039   1.627   0.795   7.948  1.0049  0.2557 -0.4282
   26CHL1    H6 3040   1.539   0.759   8.004  0.4230  0.1278 -1.3958
   26CHL1    C7 3041   1.619   0.787   7.797 -0.7155  0.0006 -0.2176
   26CHL1   H7A 3042   1.573   0.691   7.765 -0.8106 -0.1795  0.4433
   26CHL1   H7B 3043   1.543   0.866   7.779 -2.8161 -2.1141 -1.1857
   26CHL1    C8 3044   1.758   0.814   7.727  0.2340 -0.0170 -0.0959
   26CHL1    H8 3045   1.816   0.720   7.737  0.9298  0.3175 -0.8330
   26CHL1   C14 3046   1.729   0.853   7.580  0.4493  0.4401 -0.7207
   26CHL1   H14 3047   1.674   0.949   7.594 -0.7003 -0.2232 -0.5902
   26CHL1   C15 3048   1.626   0.775   7.499 -0.5551 -0.8535  0.5049
   26CHL1  H15A 3049   1.648   0.666   7.505  3.9825 -0.2029 -0.6031
   26CHL1  H15B 3050   1.524   0.802   7.533 -0.8355 -1.7986  0.4230
   26CHL1   C16 3051   1.649   0.809   7.351  0.3389 -0.2628  0.3333
   26CHL1  H16A 3052   1.670   0.718   7.292  1.2092  0.8445 -1.1411
   26CHL1  H16B 3053   1.567   0.854   7.291  0.8992 -0.1688 -0.3853
   26CHL1   C17 3054   1.776   0.912   7.360 -0.0610  0.0991 -1.0925
   26CHL1   H17 3055   1.733   1.014   7.371 -0.4820 -0.0888 -0.9420
   26CHL1   C13 3056   1.851   0.876   7.497  0.1742  0.7872 -0.4219
   26CHL1   C18 3057   1.930   0.738   7.483 -0.3197 -0.1449 -1.0990
   26CHL1  H18A 3058   1.969   0.701   7.581  3.0457  0.4302 -2.0690
   26CHL1  H18B 3059   1.864   0.663   7.435 -2.1349  0.1372  0.7816
   26CHL1  H18C 3060   2.019   0.742   7.416  1.0392  2.3601  0.6580
   26CHL1   C12 3061   1.932   0.985   7.568 -0.3297 -0.6080 -0.2070
   26CHL1  H12A 3062   2.027   0.992   7.511  0.0331 -0.4314  0.4086
   26CHL1  H12B 3063   1.896   1.087   7.544  1.1780  0.0749  0.2736
   26CHL1   C11 3064   1.962   0.963   7.719  0.1038  0.4470 -0.0396
   26CHL1  H11A 3065   2.043   0.888   7.726  0.0365  0.2536 -1.1603
   26CHL1  H11B 3066   2.006   1.061   7.748  0.7740  0.6948 -1.7685
   26CHL1    C9 3067   1.838   0.920   7.801  0.0938 -0.5332 -0.3466
   26CHL1    H9 3068   1.774   1.011   7.799 -1.0381 -1.2783  0.7378
   26CHL1   C10 3069   1.861   0.897   7.947  0.6860  0.0311  0.0176
   26CHL1   C19 3070   1.963   0.781   7.956  0.1544  0.0357  0.0289
   26CHL1  H19A 3071   1.930   0.683   7.917  2.2590 -0.1801 -1.3461
   26CHL1  H19B 3072   2.054   0.792   7.892  0.7983 -1.0017  0.7388
   26CHL1  H19C 3073   1.997   0.764   8.061 -1.3949 -1.6012  0.3043
   26CHL1    C1 3074   1.915   1.032   8.002 -0.2659 -0.5251  0.3167
   26CHL1   H1A 3075   2.013   1.070   7.968 -1.1897  1.9691  0.2277
   26CHL1   H1B 3076   1.839   1.109   7.976 -2.0886 -1.3632  2.7469
   26CHL1    C2 3077   1.905   1.047   8.151 -0.5850  0.1507 -0.4376
   26CHL1   H2A 3078   1.925   1.153   8.176 -2.7685  0.2834  1.1040
   26CHL1   H2B 3079   1.986   0.989   8.201 -0.8189 -0.8025 -1.1296
   26CHL1   C20 3080   1.859   0.920   7.236  0.1477  0.0958 -0.1390
   26CHL1   H20 3081   1.916   0.825   7.232  0.5791  0.3593 -0.3194
   26CHL1   C21 3082   1.948   1.045   7.258  0.1864  0.5646 -0.0700
   26CHL1  H21A 3083   1.896   1.116   7.325 -0.8414 -1.9026  1.8835
   26CHL1  H21B 3084   1.980   1.098   7.165 -1.6685  1.2448 -0.3653
   26CHL1  H21C 3085   2.045   1.018   7.305 -0.2813  1.7986  1.6862
   26CHL1   C22 3086   1.779   0.941   7.106  0.4366  0.0338 -0.9496
   26CHL1  H22A 3087   1.719   0.848   7.094  1.6811 -0.5454 -3.1312
   26CHL1  H22B 3088   1.713   1.029   7.122 -0.1547 -0.5701  0.1051
   26CHL1   C23 3089   1.866   0.934   6.988  1.3318 -0.0858 -0.0951
   26CHL1  H23A 3090   1.929   1.025   6.979  2.4223 -0.5979  1.8312
   26CHL1  H23B 3091   1.925   0.840   6.986  0.7436 -0.5051  1.0538
   26CHL1   C24 3092   1.772   0.938   6.862  0.5424  0.0698 -0.1720
   26CHL1  H24A 3093   1.727   0.839   6.841 -0.2937  0.2821  0.5403
   26CHL1  H24B 3094   1.696   1.016   6.885  0.1254 -0.8330  1.6462
   26CHL1   C25 3095   1.853   0.975   6.733  0.4826 -0.3867  0.0477
   26CHL1   H25 3096   1.916   1.061   6.766 -1.6149  0.7705  1.2986
   26CHL1   C26 3097   1.936   0.863   6.672  0.0089  0.1128  0.5006
   26CHL1  H26A 3098   1.883   0.766   6.660 -1.6903  1.2528 -2.7157
   26CHL1  H26B 3099   1.965   0.897   6.570 -1.4008 -0.5688 -0.1580
   26CHL1  H26C 3100   2.017   0.847   6.745 -0.4157  1.4607  1.3050
   26CHL1   C27 3101   1.765   1.030   6.623  0.4192  0.0639  0.3041
   26CHL1  H27A 3102   1.812   1.038   6.522  1.1071  0.5801  0.6525
   26CHL1  H27B 3103   1.676   0.965   6.620  1.7126 -1.7603 -1.7837
   26CHL1  H27C 3104   1.736   1.132   6.656 -2.4714  0.0556 -1.8259
   27CHL1    C3 3105   3.071   5.848   7.645  0.7472  0.1056 -0.3298
   27CHL1    H3 3106   3.165   5.906   7.652  0.0280  1.4336 -1.3222
   27CHL1    O3 3107   3.035   5.786   7.772 -0.1100 -0.5645  0.7025
   27CHL1   H3' 3108   2.941   5.765   7.765 -0.1173 -0.6237  0.9523
   27CHL1    C4 3109   2.952   5.946   7.605  0.4795 -0.2729 -0.5451
   27CHL1   H4A 3110   2.853   5.896   7.615  1.2029 -1.9102 -1.1408
   27CHL1   H4B 3111   2.953   6.029   7.678  0.9868 -1.6137  1.0441
   27CHL1    C5 3112   2.952   5.997   7.464  0.6503  0.0726 -0.3332
   27CHL1    C6 3113   2.940   6.129   7.442  0.0848  0.5562 -0.7809
   27CHL1    H6 3114   2.925   6.201   7.523  0.3166 -0.4771  0.1997
   27CHL1    C7 3115   2.931   6.185   7.304  0.3618  0.2432  0.1109
   27CHL1   H7A 3116   2.834   6.240   7.300  0.5093  0.5370  0.5594
   27CHL1   H7B 3117   3.022   6.246   7.284  0.8184 -0.2266  0.7432
   27CHL1    C8 3118   2.922   6.078   7.192 -0.3133  0.1464 -0.1934
   27CHL1    H8 3119   2.819   6.038   7.187  0.5680 -2.1019 -2.2009
   27CHL1   C14 3120   2.952   6.132   7.053  0.0605 -0.0072  0.2065
   27CHL1   H14 3121   3.060   6.158   7.059  0.1340 -0.3864  0.6279
   27CHL1   C15 3122   2.873   6.260   7.012 -0.5129  0.2712  0.4597
   27CHL1  H15A 3123   2.772   6.235   7.050 -0.6383  0.6847  0.4062
   27CHL1  H15B 3124   2.904   6.357   7.058 -0.0536  0.5191 -0.3549
   27CHL1   C16 3125   2.878   6.261   6.860  0.5970  0.1879  0.2950
   27CHL1  H16A 3126   2.777   6.268   6.815  1.2102 -2.2184 -1.6349
   27CHL1  H16B 3127   2.933   6.352   6.826  0.6919 -0.3979 -1.1866
   27CHL1   C17 3128   2.956   6.130   6.823  0.2279 -0.4306  0.1446
   27CHL1   H17 3129   3.063   6.160   6.828 -0.4624  2.3560 -0.0795
   27CHL1   C13 3130   2.937   6.035   6.938 -0.1780  0.1318  0.4581
   27CHL1   C18 3131   2.790   5.987   6.928  0.0992 -0.7416  0.5112
   27CHL1  H18A 3132   2.750   5.936   7.018 -0.8245 -0.5804  0.2052
   27CHL1  H18B 3133   2.720   6.071   6.909 -0.1731 -0.9924  0.3969
   27CHL1  H18C 3134   2.788   5.912   6.846  0.8041 -0.8586  0.5952
   27CHL1   C12 3135   3.044   5.922   6.964 -0.6463  0.5988 -0.3795
   27CHL1  H12A 3136   3.042   5.839   6.890  0.8971  0.8405 -0.7312
   27CHL1  H12B 3137   3.149   5.958   6.962  0.0123 -1.2264 -0.2558
   27CHL1   C11 3138   3.024   5.861   7.102  0.5554 -0.5114  0.0355
   27CHL1  H11A 3139   2.928   5.804   7.101  0.8181 -0.9840  0.8283
   27CHL1  H11B 3140   3.106   5.789   7.121  0.8740 -0.0509  0.4226
   27CHL1    C9 3141   3.008   5.956   7.224  0.1372 -0.7370  0.6984
   27CHL1    H9 3142   3.107   6.002   7.249 -1.0784  0.9299  2.7495
   27CHL1   C10 3143   2.972   5.890   7.357 -0.5398  0.0165  0.2114
   27CHL1   C19 3144   2.841   5.807   7.345 -0.1171 -0.4555  0.1479
   27CHL1  H19A 3145   2.795   5.767   7.438 -2.0671  0.5737 -0.3035
   27CHL1  H19B 3146   2.769   5.879   7.302  0.2552  0.2441  0.6801
   27CHL1  H19C 3147   2.859   5.722   7.275 -0.0321 -0.1616 -0.1864
   27CHL1    C1 3148   3.088   5.790   7.396  0.4638 -0.5480  0.1058
   27CHL1   H1A 3149   3.109   5.708   7.323  2.7710  1.6803 -1.9351
   27CHL1   H1B 3150   3.185   5.844   7.400 -0.1477  0.5167  1.0798
   27CHL1    C2 3151   3.088   5.739   7.539 -0.4460 -0.5373 -0.4747
   27CHL1   H2A 3152   3.183   5.683   7.548 -0.8694 -1.2249 -0.2620
   27CHL1   H2B 3153   3.018   5.653   7.545  1.3980 -2.1137 -0.5830
   27CHL1   C20 3154   2.939   6.084   6.676 -0.9248  0.2842 -0.0824
   27CHL1   H20 3155   2.846   6.023   6.676  1.0226 -2.9497 -0.4519
   27CHL1   C21 3156   3.048   5.983   6.629  0.2494 -0.1284 -0.1213
   27CHL1  H21A 3157   3.007   5.922   6.546 -0.1187  0.4632 -0.3799
   27CHL1  H21B 3158   3.077   5.908   6.705  3.4211 -0.2282 -1.2511
   27CHL1  H21C 3159   3.146   6.029   6.600 -1.7535  3.2694 -2.2752
   27CHL1   C22 3160   2.929   6.205   6.581  0.0398  0.1378  0.6467
   27CHL1  H22A 3161   2.878   6.296   6.620 -0.0172  1.6072 -2.5186
   27CHL1  H22B 3162   3.038   6.225   6.575  0.1474 -0.5621  0.1052
   27CHL1   C23 3163   2.874   6.172   6.441  0.3611  0.1416 -0.7947
   27CHL1  H23A 3164   2.956   6.132   6.377  0.0675 -1.5988 -0.1347
   27CHL1  H23B 3165   2.790   6.100   6.438 -0.1936  0.8167 -2.2094
   27CHL1   C24 3166   2.797   6.301   6.385  0.5506 -0.1752 -0.1324
   27CHL1  H24A 3167   2.706   6.310   6.448  0.5441  1.4137 -0.3324
   27CHL1  H24B 3168   2.865   6.389   6.392 -0.8941  1.0224 -0.6206
   27CHL1   C25 3169   2.765   6.288   6.234  0.2510 -0.3113  0.4752
   27CHL1   H25 3170   2.698   6.200   6.222  0.1244 -0.1168 -0.3227
   27CHL1   C26 3171   2.676   6.414   6.192  0.1317 -0.1853  0.2695
   27CHL1  H26A 3172   2.740   6.505   6.187 -0.3849  0.1829  0.3022
   27CHL1  H26B 3173   2.633   6.395   6.091 -3.2087 -1.5080  1.8148
   27CHL1  H26C 3174   2.587   6.430   6.255 -0.3082 -0.7935 -0.1895
   27CHL1   C27 3175   2.892   6.272   6.135 -0.0471 -0.2992 -0.1497
   27CHL1  H27A 3176   2.942   6.175   6.159 -1.3748 -1.1806 -0.8255
   27CHL1  H27B 3177   2.971   6.346   6.159  0.8664 -1.6265  1.1249
   27CHL1  H27C 3178   2.866   6.273   6.027  0.8406  0.7576 -0.3765
   28CHL1    C3 3179   0.536   4.814   7.805 -0.0499 -0.2245 -0.4009
   28CHL1    H3 3180   0.482   4.911   7.798 -0.5335 -0.2145  2.3556
   28CHL1    O3 3181   0.533   4.781   7.946 -0.0516  0.4948 -0.5222
   28CHL1   H3' 3182   0.515   4.864   7.989  0.3968 -0.6479  2.0298
   28CHL1    C4 3183   0.464   4.705   7.728  0.2119  0.2611 -0.1787
   28CHL1   H4A 3184   0.526   4.613   7.738  0.4918  0.4643 -0.0417
   28CHL1   H4B 3185   0.366   4.685   7.775  0.5864  2.2660  1.5829
   28CHL1    C5 3186   0.460   4.747   7.580 -0.3772  0.3123  0.3487
   28CHL1    C6 3187   0.344   4.759   7.522 -0.4710  0.6743  0.1610
   28CHL1    H6 3188   0.250   4.734   7.573 -0.7163  0.0806 -0.5547
   28CHL1    C7 3189   0.333   4.817   7.380  0.7545 -0.4987 -1.1254
   28CHL1   H7A 3190   0.253   4.769   7.320 -0.6220  0.7957 -0.3884
   28CHL1   H7B 3191   0.304   4.923   7.392  0.1422 -0.7429 -0.3618
   28CHL1    C8 3192   0.467   4.826   7.307  0.6748  0.9228 -0.0251
   28CHL1    H8 3193   0.490   4.721   7.279  2.7070  0.7975  1.8328
   28CHL1   C14 3194   0.457   4.913   7.182 -0.5452  0.0527 -0.7706
   28CHL1   H14 3195   0.442   5.018   7.214 -2.0543  0.6268 -3.1492
   28CHL1   C15 3196   0.337   4.878   7.083 -0.0461  0.1181 -0.5059
   28CHL1  H15A 3197   0.320   4.769   7.089  0.9201  0.0407  2.2274
   28CHL1  H15B 3198   0.240   4.925   7.108 -1.0323 -1.5358 -1.0813
   28CHL1   C16 3199   0.379   4.932   6.945  0.4061  0.5105 -0.4322
   28CHL1  H16A 3200   0.381   4.844   6.876 -1.1530 -0.3634  0.5744
   28CHL1  H16B 3201   0.301   5.007   6.918  0.4579  0.2555 -1.3427
   28CHL1   C17 3202   0.517   5.000   6.975 -0.3926 -0.3286  0.1266
   28CHL1   H17 3203   0.500   5.100   7.020  1.4627 -0.2848  0.7953
   28CHL1   C13 3204   0.577   4.920   7.092  0.0129  0.2905 -0.5700
   28CHL1   C18 3205   0.619   4.781   7.044  0.2220  0.3014  0.2789
   28CHL1  H18A 3206   0.698   4.786   6.966 -0.7497 -1.4414 -0.8904
   28CHL1  H18B 3207   0.637   4.711   7.128 -0.3585 -0.5017 -0.2458
   28CHL1  H18C 3208   0.539   4.738   6.980  0.5890  2.2249 -1.5755
   28CHL1   C12 3209   0.689   4.993   7.175 -0.0132  0.2983 -0.2175
   28CHL1  H12A 3210   0.779   4.980   7.110 -1.7009 -0.8321 -2.4494
   28CHL1  H12B 3211   0.664   5.098   7.201  0.0072  0.5567 -1.2100
   28CHL1   C11 3212   0.711   4.909   7.306 -0.1951 -0.0452 -0.2665
   28CHL1  H11A 3213   0.772   4.817   7.295 -0.4120 -0.4488  1.5620
   28CHL1  H11B 3214   0.770   4.981   7.367 -0.1409 -0.5621  0.2934
   28CHL1    C9 3215   0.579   4.880   7.385 -0.4148  0.1645 -0.7779
   28CHL1    H9 3216   0.544   4.976   7.429  3.5793  1.1447  0.6789
   28CHL1   C10 3217   0.598   4.794   7.522  0.0391 -0.8675  1.1961
   28CHL1   C19 3218   0.672   4.669   7.476 -0.5446  0.3470  0.3621
   28CHL1  H19A 3219   0.674   4.586   7.549 -3.8964 -1.7721 -1.6804
   28CHL1  H19B 3220   0.636   4.638   7.375 -0.1115  0.2040  0.2461
   28CHL1  H19C 3221   0.779   4.697   7.475  0.4116 -2.8171 -1.0521
   28CHL1    C1 3222   0.685   4.885   7.617  0.5710 -0.3252 -0.9671
   28CHL1   H1A 3223   0.788   4.891   7.577 -0.4810  1.5103 -3.7162
   28CHL1   H1B 3224   0.650   4.990   7.620 -1.9186 -1.0360  2.8830
   28CHL1    C2 3225   0.682   4.830   7.757 -0.1593  0.1493 -0.2665
   28CHL1   H2A 3226   0.745   4.891   7.825 -1.6728  1.3545  0.1021
   28CHL1   H2B 3227   0.733   4.731   7.757  1.6287  0.9792  1.7142
   28CHL1   C20 3228   0.605   5.009   6.849  0.3535 -0.0437  0.2956
   28CHL1   H20 3229   0.713   5.018   6.872  0.5591  0.7400 -0.8914
   28CHL1   C21 3230   0.563   5.141   6.776 -0.0617 -1.4435 -0.2160
   28CHL1  H21A 3231   0.453   5.154   6.776  0.1043  0.3299 -0.5700
   28CHL1  H21B 3232   0.607   5.140   6.674  1.9412 -0.5328  0.5810
   28CHL1  H21C 3233   0.600   5.222   6.843 -0.5214 -1.0646 -0.4175
   28CHL1   C22 3234   0.585   4.900   6.743  0.3785 -0.5401 -0.2432
   28CHL1  H22A 3235   0.594   4.799   6.790  2.7788 -0.8893 -1.3329
   28CHL1  H22B 3236   0.494   4.911   6.680 -0.7221  0.2025  1.3923
   28CHL1   C23 3237   0.708   4.892   6.649 -0.4684  0.6852 -0.3391
   28CHL1  H23A 3238   0.710   4.983   6.586  1.2888  1.8983  1.3499
   28CHL1  H23B 3239   0.804   4.897   6.705 -1.5977 -1.3640  1.9786
   28CHL1   C24 3240   0.712   4.772   6.553 -0.7116  0.5318  0.5720
   28CHL1  H24A 3241   0.705   4.677   6.609  3.3462 -1.0193 -1.1447
   28CHL1  H24B 3242   0.620   4.778   6.490 -0.9393 -1.2416  0.6813
   28CHL1   C25 3243   0.838   4.771   6.465  0.1975  0.2207 -0.9141
   28CHL1   H25 3244   0.919   4.738   6.534 -1.3348  0.4550  1.0772
   28CHL1   C26 3245   0.818   4.671   6.354  0.7484 -0.8455 -0.0753
   28CHL1  H26A 3246   0.821   4.572   6.404  3.4819 -1.4148 -1.1876
   28CHL1  H26B 3247   0.734   4.699   6.288 -1.5670  0.4651  3.1770
   28CHL1  H26C 3248   0.908   4.672   6.288  0.6003 -0.1335 -0.2762
   28CHL1   C27 3249   0.871   4.905   6.404  0.0533 -0.0852 -0.9374
   28CHL1  H27A 3250   0.957   4.896   6.334  0.1941 -1.0608 -0.6469
   28CHL1  H27B 3251   0.787   4.947   6.344 -1.4969 -0.6336  0.7516
   28CHL1  H27C 3252   0.894   4.977   6.485 -1.7498  3.2074 -3.1026
   29CHL1    C3 3253   0.585   5.672   7.719  0.0625 -0.6650  0.2140
   29CHL1    H3 3254   0.640   5.608   7.646 -0.3175  0.3797 -1.0126
   29CHL1    O3 3255   0.658   5.683   7.837 -0.3456  0.2176 -0.5798
   29CHL1   H3' 3256   0.591   5.654   7.899 -2.7273 -0.3974 -3.2480
   29CHL1    C4 3257   0.579   5.816   7.654  0.1554  0.2504 -0.3597
   29CHL1   H4A 3258   0.535   5.878   7.735  1.9257  0.4440  0.5164
   29CHL1   H4B 3259   0.686   5.846   7.653  0.5797 -1.1314  0.6401
   29CHL1    C5 3260   0.506   5.825   7.527 -0.5232 -0.8087 -0.0783
   29CHL1    C6 3261   0.568   5.884   7.420  0.1095  0.8779  0.5695
   29CHL1    H6 3262   0.663   5.938   7.429 -0.7312  2.3046  1.0941
   29CHL1    C7 3263   0.501   5.892   7.284  0.1507  0.4888 -0.7115
   29CHL1   H7A 3264   0.508   5.996   7.246  2.1101  0.0942 -1.5351
   29CHL1   H7B 3265   0.539   5.821   7.208 -0.1587  1.4701 -1.8133
   29CHL1    C8 3266   0.349   5.855   7.289  0.3270 -0.4264  0.4122
   29CHL1    H8 3267   0.308   5.950   7.329  0.5120 -1.4268  3.2112
   29CHL1   C14 3268   0.297   5.826   7.151  0.3471 -0.3184  0.7012
   29CHL1   H14 3269   0.354   5.735   7.123  2.1081  0.5365  1.3528
   29CHL1   C15 3270   0.331   5.921   7.032  0.0298  0.1256 -0.2526
   29CHL1  H15A 3271   0.313   6.020   7.080  1.5678 -0.1846  1.0436
   29CHL1  H15B 3272   0.438   5.920   7.002  0.5647  0.7404  1.4902
   29CHL1   C16 3273   0.230   5.883   6.926  0.1228  0.7166  0.1742
   29CHL1  H16A 3274   0.175   5.971   6.887 -1.5678  0.2797  1.4623
   29CHL1  H16B 3275   0.270   5.832   6.835 -1.6376 -1.5506  0.5812
   29CHL1   C17 3276   0.126   5.783   6.991  0.0990 -0.0850 -0.0490
   29CHL1   H17 3277   0.171   5.684   6.966  0.7848 -0.6454  3.0451
   29CHL1   C13 3278   0.146   5.802   7.143  0.3771 -0.2984 -0.0638
   29CHL1   C18 3279   0.073   5.938   7.188  0.2158  0.2355  0.2775
   29CHL1  H18A 3280  -0.038   5.934   7.182  0.0947  0.4894  1.9369
   29CHL1  H18B 3281   0.099   5.959   7.293 -0.4695  1.7719  0.1636
   29CHL1  H18C 3282   0.098   6.028   7.129 -1.7527  0.6554 -0.0019
   29CHL1   C12 3283   0.115   5.685   7.246  0.3268 -0.1634 -0.8388
   29CHL1  H12A 3284   0.006   5.687   7.267  0.5473 -2.3836  1.0254
   29CHL1  H12B 3285   0.151   5.589   7.203  1.8251  0.4760 -1.0644
   29CHL1   C11 3286   0.167   5.709   7.385  0.9428 -0.4701  0.0711
   29CHL1  H11A 3287   0.110   5.797   7.423 -1.0332 -1.3555 -0.7452
   29CHL1  H11B 3288   0.144   5.627   7.456  1.1239 -0.3067  0.3245
   29CHL1    C9 3289   0.317   5.741   7.391 -0.4775 -0.5317  0.6275
   29CHL1    H9 3290   0.379   5.660   7.345  1.2746  1.6297 -1.0815
   29CHL1   C10 3291   0.363   5.766   7.535  0.7205 -0.1667 -0.2413
   29CHL1   C19 3292   0.278   5.872   7.604 -0.3337  0.1698  0.3564
   29CHL1  H19A 3293   0.318   5.904   7.703 -0.0758  1.2984 -0.1023
   29CHL1  H19B 3294   0.262   5.959   7.537  0.1356  0.0645  0.1010
   29CHL1  H19C 3295   0.179   5.830   7.629 -0.1207 -0.3145  0.3975
   29CHL1    C1 3296   0.359   5.639   7.612  0.2793 -0.0558  0.4818
   29CHL1   H1A 3297   0.252   5.622   7.636  0.9466 -1.3520  2.9279
   29CHL1   H1B 3298   0.395   5.555   7.549  0.3694 -1.3331  2.1681
   29CHL1    C2 3299   0.435   5.627   7.740  0.0702  0.2057 -0.0261
   29CHL1   H2A 3300   0.427   5.530   7.792 -2.3755 -0.2340 -1.0608
   29CHL1   H2B 3301   0.389   5.688   7.821 -0.9181  0.1319 -0.5203
   29CHL1   C20 3302  -0.010   5.789   6.921 -0.2882  0.3144 -0.1932
   29CHL1   H20 3303  -0.049   5.890   6.944  0.6701  0.6531 -0.0193
   29CHL1   C21 3304  -0.107   5.687   6.983  0.1274 -0.1633 -0.9236
   29CHL1  H21A 3305  -0.203   5.675   6.929 -0.8174 -0.8818  0.8141
   29CHL1  H21B 3306  -0.133   5.717   7.087 -1.4872 -3.1572 -0.3593
   29CHL1  H21C 3307  -0.056   5.589   6.987 -0.5756 -0.5047  2.1175
   29CHL1   C22 3308   0.010   5.769   6.768 -1.1107 -0.6845  0.1523
   29CHL1  H22A 3309   0.063   5.862   6.739 -1.8665 -0.1549  0.4213
   29CHL1  H22B 3310   0.084   5.687   6.756  1.2566  1.2274  1.0263
   29CHL1   C23 3311  -0.108   5.755   6.688 -0.2788  0.4687 -0.2510
   29CHL1  H23A 3312  -0.148   5.659   6.728 -1.2004  1.3648  1.0830
   29CHL1  H23B 3313  -0.186   5.832   6.707 -1.3769 -0.5936 -0.3116
   29CHL1   C24 3314  -0.097   5.744   6.539  0.3163 -0.0319  0.2766
   29CHL1  H24A 3315  -0.065   5.846   6.508 -0.5000  0.0059 -0.5087
   29CHL1  H24B 3316  -0.013   5.681   6.502 -1.5541 -1.2725 -2.1758
   29CHL1   C25 3317  -0.233   5.724   6.465  0.2834 -0.1021  0.0531
   29CHL1   H25 3318  -0.309   5.793   6.506 -0.3558 -0.2378 -0.8683
   29CHL1   C26 3319  -0.228   5.740   6.314  0.1154  0.0378  0.2063
   29CHL1  H26A 3320  -0.139   5.689   6.271 -0.3748 -0.5530 -0.1181
   29CHL1  H26B 3321  -0.320   5.708   6.261  0.4298 -1.0479  0.3011
   29CHL1  H26C 3322  -0.196   5.843   6.286  0.7707  0.3348  1.8856
   29CHL1   C27 3323  -0.295   5.586   6.498 -0.3152  0.6609  0.2767
   29CHL1  H27A 3324  -0.221   5.525   6.442 -1.6712  0.8070 -1.7640
   29CHL1  H27B 3325  -0.308   5.564   6.606  1.0377 -0.7515  0.1894
   29CHL1  H27C 3326  -0.391   5.576   6.444  0.0073  0.0563 -0.2041
   30CHL1    C3 3327   2.911   0.636   7.938 -0.2021  0.5171  0.1594
   30CHL1    H3 3328   2.869   0.552   7.879  0.0895  0.1141  0.5213
   30CHL1    O3 3329   2.925   0.603   8.077 -0.0703  0.2452  0.6974
   30CHL1   H3' 3330   2.838   0.633   8.104  0.4634  1.2915  1.3317
   30CHL1    C4 3331   3.053   0.655   7.883  0.2920  0.2772 -0.2112
   30CHL1   H4A 3332   3.110   0.730   7.942  0.4840  1.7392 -2.1350
   30CHL1   H4B 3333   3.101   0.555   7.889 -0.1025  0.0248 -1.1221
   30CHL1    C5 3334   3.038   0.704   7.737  0.6216 -0.0144  0.6369
   30CHL1    C6 3335   3.113   0.654   7.642 -0.3025 -0.2407  1.2198
   30CHL1    H6 3336   3.178   0.568   7.663  0.5083 -0.8224 -2.8812
   30CHL1    C7 3337   3.109   0.710   7.497 -0.1499 -0.2498  0.8435
   30CHL1   H7A 3338   3.211   0.723   7.456 -0.6779  0.9102 -0.1841
   30CHL1   H7B 3339   3.056   0.635   7.433 -3.7783  1.4557  1.5970
   30CHL1    C8 3340   3.043   0.848   7.481  0.4019  0.3157 -0.9781
   30CHL1    H8 3341   3.121   0.919   7.516  0.7766 -1.7581  2.9721
   30CHL1   C14 3342   3.000   0.884   7.340 -0.0031  0.3243  0.1702
   30CHL1   H14 3343   2.920   0.812   7.315  0.4306 -0.3699  0.7563
   30CHL1   C15 3344   3.110   0.870   7.230 -0.4648  0.0251 -0.7488
   30CHL1  H15A 3345   3.205   0.906   7.275 -0.3187 -1.6896  0.3971
   30CHL1  H15B 3346   3.134   0.768   7.195 -0.4892 -0.0590 -0.5223
   30CHL1   C16 3347   3.062   0.958   7.111  0.1773 -0.5056 -0.6073
   30CHL1  H16A 3348   3.136   1.040   7.103  2.2866 -2.1773  0.7862
   30CHL1  H16B 3349   3.061   0.896   7.019  0.5313 -1.4100 -0.0154
   30CHL1   C17 3350   2.925   1.018   7.159 -0.1707 -0.0687  0.4925
   30CHL1   H17 3351   2.853   0.936   7.136 -0.7770 -0.1615  2.4673
   30CHL1   C13 3352   2.936   1.016   7.311 -0.1183 -0.4691 -0.3018
   30CHL1   C18 3353   3.039   1.132   7.343 -0.3113 -0.1514 -0.7015
   30CHL1  H18A 3354   3.122   1.154   7.273  0.6388  3.0394  1.2144
   30CHL1  H18B 3355   2.983   1.228   7.355 -1.9116 -0.7443 -2.8022
   30CHL1  H18C 3356   3.088   1.114   7.441  0.4824 -2.1290 -1.4104
   30CHL1   C12 3357   2.804   1.022   7.385  0.2003 -0.1589  0.0397
   30CHL1  H12A 3358   2.757   1.123   7.380  0.3648 -0.0764  0.1838
   30CHL1  H12B 3359   2.731   0.949   7.343  0.4614 -0.5763  0.3090
   30CHL1   C11 3360   2.846   0.993   7.533  0.0923 -0.3605 -0.3043
   30CHL1  H11A 3361   2.910   1.078   7.565  0.3429 -1.6854  3.1707
   30CHL1  H11B 3362   2.755   0.997   7.596 -0.0791  2.1553 -0.6253
   30CHL1    C9 3363   2.926   0.859   7.570 -0.2862  0.2357  0.0550
   30CHL1    H9 3364   2.854   0.778   7.545 -0.1072  0.5485 -1.5680
   30CHL1   C10 3365   2.953   0.836   7.719  0.3017  0.3162  0.4059
   30CHL1   C19 3366   3.016   0.963   7.791 -0.2549 -0.8801  0.0340
   30CHL1  H19A 3367   3.047   0.951   7.897 -0.1795 -1.0238 -0.0041
   30CHL1  H19B 3368   3.094   1.008   7.726  1.1840 -1.2570  1.4224
   30CHL1  H19C 3369   2.945   1.048   7.799  1.8789  0.8386  3.1864
   30CHL1    C1 3370   2.814   0.810   7.783 -0.4174 -0.2212 -0.4361
   30CHL1   H1A 3371   2.759   0.906   7.779 -0.4761 -0.1735  0.9305
   30CHL1   H1B 3372   2.756   0.734   7.726  0.0294 -0.1397 -1.0055
   30CHL1    C2 3373   2.826   0.761   7.928 -0.2707 -0.1042 -0.2194
   30CHL1   H2A 3374   2.727   0.726   7.966 -0.8638  0.0527 -1.5526
   30CHL1   H2B 3375   2.866   0.842   7.991 -1.5072  0.6088 -0.3186
   30CHL1   C20 3376   2.883   1.146   7.080 -0.0130 -0.2749  0.1360
   30CHL1   H20 3377   2.916   1.238   7.133  1.7624 -1.4436  1.1587
   30CHL1   C21 3378   2.727   1.150   7.071 -1.0077 -0.2873 -1.0399
   30CHL1  H21A 3379   2.689   1.255   7.078 -1.0447 -0.3000 -1.0512
   30CHL1  H21B 3380   2.678   1.086   7.147  0.6937  0.0869  0.4380
   30CHL1  H21C 3381   2.697   1.109   6.973 -1.0751 -0.3310 -1.0013
   30CHL1   C22 3382   2.956   1.150   6.946 -0.4450  0.3501  0.0315
   30CHL1  H22A 3383   3.065   1.151   6.968 -0.5559 -0.7459  0.7442
   30CHL1  H22B 3384   2.928   1.057   6.891 -0.1687  1.3841 -1.9349
   30CHL1   C23 3385   2.931   1.274   6.863  1.1037 -0.1326  0.3041
   30CHL1  H23A 3386   2.821   1.275   6.848  0.8895 -0.2714  1.7718
   30CHL1  H23B 3387   2.955   1.351   6.939 -0.8266 -0.6731  1.5244
   30CHL1   C24 3388   3.014   1.277   6.733  0.8884 -0.2930  0.1107
   30CHL1  H24A 3389   3.123   1.283   6.753  1.0302  3.1427 -1.0150
   30CHL1  H24B 3390   2.982   1.190   6.672 -0.5481  0.6340 -0.5168
   30CHL1   C25 3391   2.987   1.407   6.651  0.2763 -1.1647  0.6515
   30CHL1   H25 3392   2.879   1.410   6.629  0.4348  1.2503 -0.0453
   30CHL1   C26 3393   3.012   1.537   6.714 -0.6697 -0.2509 -0.0886
   30CHL1  H26A 3394   3.011   1.619   6.639 -0.1762  1.0355  1.2518
   30CHL1  H26B 3395   2.939   1.565   6.793  0.6810 -2.3968  2.0653
   30CHL1  H26C 3396   3.111   1.528   6.762 -0.5883 -0.1121 -0.2274
   30CHL1   C27 3397   3.065   1.403   6.524  0.0456  0.2313  0.2978
   30CHL1  H27A 3398   3.042   1.491   6.459 -1.6275 -2.4885 -3.1044
   30CHL1  H27B 3399   3.172   1.397   6.552  0.5443 -0.8600 -1.7028
   30CHL1  H27C 3400   3.035   1.307   6.476 -0.3983  1.0659 -1.1810
   31CHL1    C3 3401   1.709   0.425   7.840  0.1964 -0.4137  0.5090
   31CHL1    H3 3402   1.707   0.536   7.839  0.5388 -0.3965  1.0888
   31CHL1    O3 3403   1.696   0.391   7.980 -1.1813  0.2800  0.1952
   31CHL1   H3' 3404   1.699   0.295   7.977  0.9240  0.3167 -0.9232
   31CHL1    C4 3405   1.590   0.367   7.762  0.3734 -0.2977  0.5494
   31CHL1   H4A 3406   1.572   0.261   7.789 -1.0917  0.3419  2.3317
   31CHL1   H4B 3407   1.497   0.415   7.801  0.4187  0.8196 -0.6340
   31CHL1    C5 3408   1.595   0.377   7.610 -0.2762  0.5621 -0.2523
   31CHL1    C6 3409   1.485   0.422   7.545 -0.0814 -0.1508 -0.2842
   31CHL1    H6 3410   1.391   0.445   7.598 -0.2281 -0.2393 -0.5081
   31CHL1    C7 3411   1.472   0.437   7.398  0.2002  0.6048  0.0221
   31CHL1   H7A 3412   1.373   0.399   7.366  1.1143  0.1398 -2.5653
   31CHL1   H7B 3413   1.482   0.545   7.375  1.2111  0.7033  0.8705
   31CHL1    C8 3414   1.594   0.376   7.318 -0.6037 -0.1187  0.8477
   31CHL1    H8 3415   1.572   0.268   7.303 -0.7396 -0.4257  2.9919
   31CHL1   C14 3416   1.610   0.426   7.183  0.3272  0.2390  0.4318
   31CHL1   H14 3417   1.627   0.535   7.196 -0.6850  0.3376  1.0389
   31CHL1   C15 3418   1.484   0.423   7.092  0.2149 -0.0733  0.6011
   31CHL1  H15A 3419   1.432   0.325   7.097 -1.4596  0.6245 -1.5161
   31CHL1  H15B 3420   1.416   0.509   7.111  0.2705  0.0374  0.3043
   31CHL1   C16 3421   1.546   0.444   6.953 -0.1819  0.1308 -0.2421
   31CHL1  H16A 3422   1.508   0.373   6.877 -0.0367 -1.0958  0.8041
   31CHL1  H16B 3423   1.510   0.548   6.938  0.4177  0.5582  1.1258
   31CHL1   C17 3424   1.697   0.445   6.968 -0.6528  0.1293  0.0740
   31CHL1   H17 3425   1.717   0.552   6.988 -0.4924  0.3635 -1.2517
   31CHL1   C13 3426   1.725   0.371   7.103 -0.0863 -0.9676 -0.4030
   31CHL1   C18 3427   1.715   0.226   7.074 -0.2032  0.5033 -0.6022
   31CHL1  H18A 3428   1.732   0.176   7.172 -0.2861  1.3326 -0.1577
   31CHL1  H18B 3429   1.626   0.177   7.029  1.7087 -2.6141 -1.3639
   31CHL1  H18C 3430   1.793   0.185   7.005 -1.2933 -1.1879 -0.9045
   31CHL1   C12 3431   1.851   0.408   7.179  0.2463  0.3106 -0.1239
   31CHL1  H12A 3432   1.940   0.364   7.128  0.1909  2.7301 -2.4864
   31CHL1  H12B 3433   1.858   0.519   7.183  0.1760  0.2965  2.3293
   31CHL1   C11 3434   1.842   0.344   7.325 -0.7751  0.2305  0.6638
   31CHL1  H11A 3435   1.858   0.234   7.326 -0.8974  0.2137  1.4073
   31CHL1  H11B 3436   1.925   0.375   7.391  0.0815 -3.0987  1.3223
   31CHL1    C9 3437   1.723   0.388   7.399 -0.5332 -0.7618  0.1164
   31CHL1    H9 3438   1.738   0.496   7.421  0.6751 -1.4333  3.1459
   31CHL1   C10 3439   1.724   0.337   7.546  0.3860  0.5027  0.2522
   31CHL1   C19 3440   1.734   0.183   7.542 -0.1314 -0.0607 -0.4770
   31CHL1  H19A 3441   1.709   0.151   7.645 -0.7885  1.7215 -0.0369
   31CHL1  H19B 3442   1.662   0.145   7.466  0.1551 -1.0758 -0.2515
   31CHL1  H19C 3443   1.838   0.154   7.514 -0.5439  1.2392 -3.7621
   31CHL1    C1 3444   1.844   0.393   7.624 -0.9518  0.4146  0.0120
   31CHL1   H1A 3445   1.932   0.332   7.592 -1.3060  0.3689 -0.8949
   31CHL1   H1B 3446   1.858   0.500   7.600 -1.7997  0.2428 -1.3521
   31CHL1    C2 3447   1.842   0.373   7.777  0.0671 -0.1605 -0.1569
   31CHL1   H2A 3448   1.918   0.431   7.834 -1.7342 -0.4871  2.8308
   31CHL1   H2B 3449   1.854   0.273   7.823  2.1301  0.5102  0.8774
   31CHL1   C20 3450   1.776   0.403   6.841 -0.8530  0.4192 -0.8106
   31CHL1   H20 3451   1.762   0.295   6.822  0.9527  0.4999 -3.1663
   31CHL1   C21 3452   1.926   0.425   6.855 -0.0362  0.4899  0.0856
   31CHL1  H21A 3453   1.969   0.371   6.942  1.6110  2.3476  0.4768
   31CHL1  H21B 3454   1.963   0.528   6.870  2.1857 -0.2148 -0.1380
   31CHL1  H21C 3455   1.975   0.380   6.766  1.5999  2.3907 -0.0488
   31CHL1   C22 3456   1.714   0.471   6.713 -0.0889  0.2579  0.1273
   31CHL1  H22A 3457   1.604   0.457   6.716 -0.0865  0.4186  1.1469
   31CHL1  H22B 3458   1.725   0.581   6.728  3.1493 -0.1238  1.2909
   31CHL1   C23 3459   1.772   0.421   6.577  0.5068  0.1300 -0.3793
   31CHL1  H23A 3460   1.875   0.460   6.564  0.7130  0.5225  2.0365
   31CHL1  H23B 3461   1.767   0.311   6.586  0.2772  0.2562  1.5054
   31CHL1   C24 3462   1.684   0.460   6.449  0.3162  0.2863  0.5478
   31CHL1  H24A 3463   1.610   0.382   6.421  0.2561  1.2122 -2.2535
   31CHL1  H24B 3464   1.623   0.549   6.478 -1.2480 -0.9887  1.3285
   31CHL1   C25 3465   1.764   0.465   6.313 -0.2648 -0.1941 -0.2833
   31CHL1   H25 3466   1.701   0.507   6.231  0.7826  0.6609 -0.6828
   31CHL1   C26 3467   1.887   0.557   6.319 -0.2564 -0.1361 -0.1056
   31CHL1  H26A 3468   1.907   0.587   6.215  0.6789 -0.5144 -0.0521
   31CHL1  H26B 3469   1.864   0.643   6.385  2.9268  1.7504 -1.2410
   31CHL1  H26C 3470   1.981   0.514   6.360 -0.0418 -1.1027 -1.5520
   31CHL1   C27 3471   1.805   0.327   6.256  0.0431  0.1182 -0.5849
   31CHL1  H27A 3472   1.723   0.252   6.242  0.5533 -0.7365  0.7880
   31CHL1  H27B 3473   1.867   0.339   6.165 -1.5355 -1.2553 -1.9185
   31CHL1  H27C 3474   1.870   0.286   6.336 -0.1735  0.6397 -0.1357
   32CHL1    C3 3475   6.295   4.859   7.663  0.1051  0.3973 -0.7792
   32CHL1    H3 3476   6.399   4.832   7.637 -0.1476 -2.6250  0.9101
   32CHL1    O3 3477   6.293   4.907   7.794 -0.1439  0.3822 -0.1376
   32CHL1   H3' 3478   6.208   4.881   7.831  0.5158 -0.5136  0.8136
   32CHL1    C4 3479   6.243   4.970   7.578 -0.2554  0.1298 -0.2734
   32CHL1   H4A 3480   6.143   4.999   7.618  0.2451  0.2794  0.9208
   32CHL1   H4B 3481   6.298   5.066   7.589 -1.7809  1.4138 -2.8525
   32CHL1    C5 3482   6.232   4.938   7.428 -0.0392  1.0758 -0.0470
   32CHL1    C6 3483   6.299   5.007   7.335  0.1345  0.5802 -0.1239
   32CHL1    H6 3484   6.370   5.086   7.364  0.5083 -0.3423  1.5610
   32CHL1    C7 3485   6.289   4.979   7.188  0.5490 -0.1681 -0.3660
   32CHL1   H7A 3486   6.283   5.070   7.125  0.9698  0.6643  0.7533
   32CHL1   H7B 3487   6.378   4.917   7.162  1.4439  0.4570  1.0590
   32CHL1    C8 3488   6.164   4.886   7.156  0.1303  0.2439 -0.4097
   32CHL1    H8 3489   6.075   4.951   7.172  1.2272  1.1681  2.4517
   32CHL1   C14 3490   6.168   4.825   7.015 -0.6394  0.8328 -0.5879
   32CHL1   H14 3491   6.263   4.768   7.019 -0.6511  0.7067 -1.8464
   32CHL1   C15 3492   6.181   4.916   6.892 -0.9297  0.6933 -0.4881
   32CHL1  H15A 3493   6.108   5.000   6.890 -5.0043 -2.4488  0.3546
   32CHL1  H15B 3494   6.278   4.969   6.897 -0.1489 -0.6593 -0.8498
   32CHL1   C16 3495   6.155   4.836   6.767 -0.4952 -0.3038 -0.4105
   32CHL1  H16A 3496   6.079   4.879   6.699 -0.9153 -0.1574  0.1461
   32CHL1  H16B 3497   6.241   4.825   6.697  0.1486 -2.1158  0.5949
   32CHL1   C17 3498   6.110   4.695   6.827 -0.7133  0.6974 -0.2762
   32CHL1   H17 3499   6.203   4.635   6.832 -1.3430 -0.1824  1.6375
   32CHL1   C13 3500   6.058   4.726   6.968  1.0981 -0.3027 -0.2052
   32CHL1   C18 3501   5.928   4.801   6.953 -0.4115 -0.1270 -0.8931
   32CHL1  H18A 3502   5.847   4.727   6.976 -1.0482  0.9327  0.4635
   32CHL1  H18B 3503   5.918   4.880   7.031  1.5286 -0.2616 -0.4611
   32CHL1  H18C 3504   5.902   4.846   6.855 -0.5071  0.2844 -0.6808
   32CHL1   C12 3505   6.059   4.618   7.065  0.4709  0.1483  0.1785
   32CHL1  H12A 3506   5.969   4.557   7.043  0.1694 -0.0663  1.8271
   32CHL1  H12B 3507   6.146   4.550   7.056 -0.2586 -0.5568 -2.2505
   32CHL1   C11 3508   6.047   4.663   7.214 -0.4474 -0.1300 -0.0624
   32CHL1  H11A 3509   5.945   4.707   7.210  0.0940  1.1102 -0.4843
   32CHL1  H11B 3510   6.032   4.580   7.287  2.7983  1.5983  2.8055
   32CHL1    C9 3511   6.155   4.769   7.257 -0.0700  0.5185 -0.1333
   32CHL1    H9 3512   6.242   4.701   7.248 -0.5917  0.0722 -2.3423
   32CHL1   C10 3513   6.144   4.818   7.404  0.0904  0.0519  0.4985
   32CHL1   C19 3514   5.999   4.854   7.426  0.0146 -0.1286 -0.1663
   32CHL1  H19A 3515   5.949   4.916   7.348 -0.2047  0.5156  0.4753
   32CHL1  H19B 3516   5.930   4.768   7.439 -0.6830  0.6251  1.4747
   32CHL1  H19C 3517   5.992   4.910   7.521  1.1073  1.3158 -0.8938
   32CHL1    C1 3518   6.178   4.705   7.496 -0.3913 -0.4864  0.1971
   32CHL1   H1A 3519   6.107   4.620   7.492  1.1706 -2.0270  2.5849
   32CHL1   H1B 3520   6.275   4.660   7.463  0.1707  0.9676 -0.2121
   32CHL1    C2 3521   6.195   4.739   7.641 -0.2308  0.4119 -0.5868
   32CHL1   H2A 3522   6.232   4.651   7.699 -1.8906  0.9168  1.3312
   32CHL1   H2B 3523   6.098   4.767   7.687 -0.6013 -3.2292  1.1855
   32CHL1   C20 3524   6.017   4.622   6.732  0.1200  0.1262  0.3632
   32CHL1   H20 3525   5.915   4.666   6.741 -1.0830 -2.5400  0.8384
   32CHL1   C21 3526   6.012   4.478   6.766  0.1469 -0.5220  0.0312
   32CHL1  H21A 3527   5.957   4.410   6.698 -2.9919  0.0401  1.7994
   32CHL1  H21B 3528   5.962   4.459   6.863 -1.8998 -1.4294 -1.1453
   32CHL1  H21C 3529   6.115   4.440   6.785  1.0414  0.3923 -2.5341
   32CHL1   C22 3530   6.042   4.649   6.578 -0.0215  0.3171  0.0162
   32CHL1  H22A 3531   5.969   4.582   6.529 -0.3505  1.6140 -1.3297
   32CHL1  H22B 3532   6.017   4.747   6.533  0.6256 -0.3601 -1.8900
   32CHL1   C23 3533   6.175   4.590   6.527  0.2756 -0.2167 -0.2208
   32CHL1  H23A 3534   6.242   4.639   6.600 -0.2284  1.7408 -1.0216
   32CHL1  H23B 3535   6.177   4.479   6.532 -0.9125 -0.4857 -3.4694
   32CHL1   C24 3536   6.211   4.622   6.381 -0.3356  0.5331 -0.2537
   32CHL1  H24A 3537   6.188   4.538   6.312 -2.7060  0.6767  0.2556
   32CHL1  H24B 3538   6.153   4.711   6.347 -0.9147  0.1740 -0.2140
   32CHL1   C25 3539   6.364   4.644   6.377 -0.5817 -0.1162 -0.9502
   32CHL1   H25 3540   6.388   4.741   6.426 -2.0162  0.8646 -2.1036
   32CHL1   C26 3541   6.451   4.537   6.465  0.5871  0.2816  0.4869
   32CHL1  H26A 3542   6.554   4.576   6.460 -0.5526  3.5390 -0.2122
   32CHL1  H26B 3543   6.419   4.531   6.572 -0.4022 -0.2514  0.1696
   32CHL1  H26C 3544   6.450   4.439   6.414 -2.2683 -0.5304  1.8573
   32CHL1   C27 3545   6.418   4.656   6.233  0.1300  0.2955 -0.0380
   32CHL1  H27A 3546   6.529   4.660   6.231  0.0824  2.5229 -0.8530
   32CHL1  H27B 3547   6.396   4.563   6.177  2.7170 -1.5887  1.8364
   32CHL1  H27C 3548   6.368   4.739   6.178 -1.2514 -0.7524 -0.4340
   33CHL1    C3 3549   4.372   5.816   7.521  0.4795  0.3216 -0.0201
   33CHL1    H3 3550   4.471   5.769   7.503  1.1324  1.5704  0.2390
   33CHL1    O3 3551   4.325   5.780   7.646 -0.0830  0.3288 -0.0865
   33CHL1   H3' 3552   4.385   5.807   7.715 -1.4847  2.2092  0.4893
   33CHL1    C4 3553   4.381   5.969   7.506 -0.3074  0.1892 -0.3720
   33CHL1   H4A 3554   4.278   6.007   7.521 -0.1000  0.6671 -0.1216
   33CHL1   H4B 3555   4.445   6.009   7.588 -0.2707  1.0315 -0.8048
   33CHL1    C5 3556   4.439   6.004   7.372  0.3935 -0.0285 -0.1116
   33CHL1    C6 3557   4.558   6.073   7.365  0.5020 -0.0222  0.1671
   33CHL1    H6 3558   4.614   6.106   7.454  1.7308  1.3898 -1.0825
   33CHL1    C7 3559   4.609   6.124   7.233  0.0294 -0.2836 -0.0248
   33CHL1   H7A 3560   4.627   6.233   7.246 -1.1902 -0.0994  0.3180
   33CHL1   H7B 3561   4.699   6.071   7.197 -0.6594 -0.5279 -1.4641
   33CHL1    C8 3562   4.501   6.111   7.122 -0.4927  0.3068  0.4404
   33CHL1    H8 3563   4.426   6.193   7.127  0.0095  0.7707  0.3611
   33CHL1   C14 3564   4.569   6.128   6.985  0.1949  0.4639 -0.8137
   33CHL1   H14 3565   4.650   6.052   6.979  2.3189  2.4577  0.7197
   33CHL1   C15 3566   4.647   6.260   6.965  0.4844  0.9746  0.3429
   33CHL1  H15A 3567   4.590   6.347   7.004 -0.0737  0.6405  0.2918
   33CHL1  H15B 3568   4.744   6.246   7.017  0.6007 -0.0141 -0.1140
   33CHL1   C16 3569   4.661   6.264   6.813 -0.5867 -1.5279 -0.4387
   33CHL1  H16A 3570   4.609   6.356   6.778  0.1893 -0.7121  0.5235
   33CHL1  H16B 3571   4.768   6.259   6.786 -0.4763 -1.4015 -0.0309
   33CHL1   C17 3572   4.584   6.143   6.752 -0.6048 -0.1969  0.4844
   33CHL1   H17 3573   4.654   6.057   6.741 -0.7491 -0.3375  0.6577
   33CHL1   C13 3574   4.490   6.101   6.862  0.0792 -0.1841  0.3683
   33CHL1   C18 3575   4.379   6.207   6.855  0.2979  0.6758  0.0957
   33CHL1  H18A 3576   4.324   6.206   6.951  1.0665  1.0749  0.5542
   33CHL1  H18B 3577   4.423   6.309   6.848  0.3385  0.6312 -0.3296
   33CHL1  H18C 3578   4.303   6.192   6.775  1.3827 -2.7404 -0.4816
   33CHL1   C12 3579   4.431   5.958   6.867  0.1213 -0.1078 -0.0356
   33CHL1  H12A 3580   4.365   5.945   6.778 -0.8166 -1.2242  0.7961
   33CHL1  H12B 3581   4.517   5.887   6.865 -0.8870 -1.3698 -0.6423
   33CHL1   C11 3582   4.348   5.937   6.995 -0.2669  0.5188 -0.3514
   33CHL1  H11A 3583   4.253   5.992   6.979 -1.6680 -0.8040  2.7030
   33CHL1  H11B 3584   4.324   5.829   7.003  1.9632 -0.1829 -1.9731
   33CHL1    C9 3585   4.435   5.971   7.123  0.4965 -0.4305 -0.2061
   33CHL1    H9 3586   4.523   5.903   7.119  1.3864  0.7343 -2.2508
   33CHL1   C10 3587   4.358   5.946   7.255  0.1252  0.1979  0.0350
   33CHL1   C19 3588   4.223   6.019   7.236 -0.8147  0.5468 -1.0610
   33CHL1  H19A 3589   4.166   6.020   7.331  0.0457  0.1280 -0.5256
   33CHL1  H19B 3590   4.224   6.129   7.218 -0.6698  0.5755 -0.8775
   33CHL1  H19C 3591   4.156   5.973   7.161 -2.2198 -0.6626  0.8545
   33CHL1    C1 3592   4.323   5.794   7.275  0.0077 -0.3622 -1.0546
   33CHL1   H1A 3593   4.251   5.768   7.195  1.0986 -2.4008 -1.4387
   33CHL1   H1B 3594   4.417   5.737   7.262  1.4631  1.4717  0.6513
   33CHL1    C2 3595   4.271   5.768   7.416 -0.6510  0.6487  0.2182
   33CHL1   H2A 3596   4.255   5.660   7.435  0.5849  0.3425 -0.4156
   33CHL1   H2B 3597   4.171   5.812   7.439 -0.6079  1.3872 -0.8840
   33CHL1   C20 3598   4.534   6.173   6.613 -0.3700  0.0054 -0.7273
   33CHL1   H20 3599   4.439   6.230   6.619 -0.8151 -0.8396  3.6232
   33CHL1   C21 3600   4.481   6.037   6.548 -0.7514  0.9226  0.0625
   33CHL1  H21A 3601   4.371   6.033   6.560 -0.7443 -0.7306 -0.1606
   33CHL1  H21B 3602   4.535   5.946   6.583 -2.1850  0.3099  0.7663
   33CHL1  H21C 3603   4.503   6.037   6.440  0.3246  0.3472  0.2694
   33CHL1   C22 3604   4.638   6.245   6.515 -0.3139 -0.0012 -0.3529
   33CHL1  H22A 3605   4.672   6.344   6.551  2.2012 -0.6279 -0.8597
   33CHL1  H22B 3606   4.729   6.182   6.521 -1.0680 -1.0901  0.0961
   33CHL1   C23 3607   4.602   6.258   6.369  0.3150  0.0208  0.0944
   33CHL1  H23A 3608   4.696   6.288   6.319 -0.0027  1.6919  0.4406
   33CHL1  H23B 3609   4.580   6.163   6.316 -0.9116 -0.2420  1.0279
   33CHL1   C24 3610   4.501   6.365   6.350  0.2064  0.1800  0.0448
   33CHL1  H24A 3611   4.415   6.339   6.416  0.8171 -1.4335  0.2483
   33CHL1  H24B 3612   4.541   6.465   6.376  0.1868  0.5455 -1.2600
   33CHL1   C25 3613   4.451   6.385   6.203  0.8777  0.1171 -0.0548
   33CHL1   H25 3614   4.411   6.292   6.160  0.2789 -0.0016  0.7318
   33CHL1   C26 3615   4.325   6.476   6.215 -0.1225 -0.4927  0.1628
   33CHL1  H26A 3616   4.248   6.423   6.276 -0.3343  0.9030  1.1468
   33CHL1  H26B 3617   4.350   6.577   6.255 -0.0069 -0.8369  0.9920
   33CHL1  H26C 3618   4.277   6.484   6.115  0.5407  1.8822 -0.0130
   33CHL1   C27 3619   4.551   6.452   6.112  0.4282  0.3939  0.9545
   33CHL1  H27A 3620   4.510   6.461   6.009  1.3984 -4.3605 -0.0874
   33CHL1  H27B 3621   4.576   6.552   6.153  1.1759 -0.3102  2.2645
   33CHL1  H27C 3622   4.648   6.402   6.092 -0.1722  0.4597 -2.8822
   34CHL1    C3 3623   3.884   0.080   7.702  0.0574 -0.8589 -0.3718
   34CHL1    H3 3624   3.780   0.088   7.664  0.9408  0.9487 -2.6263
   34CHL1    O3 3625   3.888   0.021   7.832 -0.2265 -0.0750 -0.0688
   34CHL1   H3' 3626   3.952   0.075   7.879  1.0039  0.9971 -2.7681
   34CHL1    C4 3627   3.961  -0.018   7.611 -0.4241  0.7854 -0.3796
   34CHL1   H4A 3628   4.061  -0.037   7.654  0.2389  1.3523 -1.6073
   34CHL1   H4B 3629   3.919  -0.121   7.614  0.3380  0.4345 -1.2042
   34CHL1    C5 3630   3.979   0.035   7.468  0.6886  0.1713 -0.1641
   34CHL1    C6 3631   3.930  -0.035   7.365  0.4955 -0.4137 -0.0795
   34CHL1    H6 3632   3.888  -0.133   7.393 -1.2410  0.6464  1.2805
   34CHL1    C7 3633   3.932   0.025   7.223  0.1792  0.2591 -0.2006
   34CHL1   H7A 3634   3.955  -0.055   7.150 -0.5971  0.3187 -0.5196
   34CHL1   H7B 3635   3.834   0.072   7.201  0.7309  0.8175 -1.5093
   34CHL1    C8 3636   4.039   0.142   7.197 -0.3384 -0.1464 -0.6588
   34CHL1    H8 3637   4.139   0.097   7.216  0.8727  3.1466  1.6611
   34CHL1   C14 3638   4.019   0.211   7.063  0.3309  0.8733  0.3010
   34CHL1   H14 3639   3.917   0.255   7.063 -0.3423 -0.3978 -2.7792
   34CHL1   C15 3640   4.026   0.125   6.933 -0.0473 -0.4763 -0.5231
   34CHL1  H15A 3641   4.102   0.044   6.937  1.3903  0.8813  1.3337
   34CHL1  H15B 3642   3.932   0.075   6.901 -0.4872  0.0880 -0.1369
   34CHL1   C16 3643   4.059   0.230   6.824  0.3371  0.0092 -0.0236
   34CHL1  H16A 3644   4.152   0.193   6.775 -0.4669 -1.8250 -0.2521
   34CHL1  H16B 3645   3.980   0.250   6.749 -0.8746  0.2604  1.2690
   34CHL1   C17 3646   4.080   0.361   6.904 -0.1993 -0.5063  0.5730
   34CHL1   H17 3647   3.977   0.400   6.914 -0.0340 -0.2941  1.6528
   34CHL1   C13 3648   4.118   0.319   7.046 -0.2384  0.0907  0.4543
   34CHL1   C18 3649   4.260   0.261   7.048 -0.1279  0.1932 -0.1872
   34CHL1  H18A 3650   4.290   0.212   7.143  0.9035  0.3852 -0.4075
   34CHL1  H18B 3651   4.264   0.174   6.979 -5.1862 -0.4522 -0.0815
   34CHL1  H18C 3652   4.338   0.337   7.026 -0.7590  0.7996 -0.3831
   34CHL1   C12 3653   4.097   0.437   7.148  0.0152  0.5761  0.5310
   34CHL1  H12A 3654   4.186   0.501   7.129 -0.7385  1.0932 -1.5248
   34CHL1  H12B 3655   4.001   0.492   7.144 -0.0478  0.4106 -0.5276
   34CHL1   C11 3656   4.116   0.369   7.290  0.3080  0.1114  0.0853
   34CHL1  H11A 3657   4.225   0.346   7.292  0.7920  2.1672  0.6503
   34CHL1  H11B 3658   4.090   0.444   7.369 -1.0147  0.5321 -0.7280
   34CHL1    C9 3659   4.027   0.245   7.319  0.3102  0.1412  0.2565
   34CHL1    H9 3660   3.924   0.285   7.313  0.5412  0.5334 -2.4762
   34CHL1   C10 3661   4.035   0.178   7.460 -0.7427 -0.2916  0.7192
   34CHL1   C19 3662   4.185   0.165   7.494 -0.1594 -0.5847  0.0824
   34CHL1  H19A 3663   4.234   0.113   7.409 -0.7414  1.5265 -1.6345
   34CHL1  H19B 3664   4.234   0.265   7.497 -2.5721  0.7078  3.2493
   34CHL1  H19C 3665   4.217   0.121   7.591  2.1871  1.0278  0.1383
   34CHL1    C1 3666   3.958   0.267   7.565 -0.1906  0.5853  0.2963
   34CHL1   H1A 3667   4.004   0.367   7.549  3.3709 -0.8060  1.0868
   34CHL1   H1B 3668   3.852   0.267   7.532 -0.1077 -1.1051 -0.0177
   34CHL1    C2 3669   3.954   0.216   7.710  0.4290  0.4160 -0.2923
   34CHL1   H2A 3670   3.900   0.295   7.768  0.2897  0.6334 -0.7183
   34CHL1   H2B 3671   4.055   0.200   7.755  0.1500 -1.2001 -0.1961
   34CHL1   C20 3672   4.157   0.478   6.838 -1.1089  0.4478 -0.2949
   34CHL1   H20 3673   4.240   0.508   6.905 -1.1931  1.2406 -0.5379
   34CHL1   C21 3674   4.052   0.598   6.829  0.4571 -0.0038 -0.1144
   34CHL1  H21A 3675   3.979   0.584   6.747  0.9653  0.9625 -0.7529
   34CHL1  H21B 3676   4.110   0.692   6.828 -0.7322  0.7455 -0.5588
   34CHL1  H21C 3677   3.995   0.609   6.923  0.8088 -2.3463  0.4393
   34CHL1   C22 3678   4.200   0.444   6.699 -0.4507  0.5106  0.7265
   34CHL1  H22A 3679   4.277   0.365   6.711 -0.4077  0.1194 -1.5864
   34CHL1  H22B 3680   4.114   0.397   6.647 -0.2471 -1.4312  2.0354
   34CHL1   C23 3681   4.268   0.554   6.612 -0.0604  0.0708  0.4497
   34CHL1  H23A 3682   4.190   0.632   6.603  2.3586  2.5629 -0.2004
   34CHL1  H23B 3683   4.345   0.596   6.681 -0.4816  0.7690  0.4990
   34CHL1   C24 3684   4.326   0.512   6.473  0.0399 -0.1499 -0.4364
   34CHL1  H24A 3685   4.347   0.603   6.412 -0.3351  0.1961 -0.0539
   34CHL1  H24B 3686   4.418   0.454   6.499 -0.1628  0.4403  1.8029
   34CHL1   C25 3687   4.237   0.418   6.388  0.4515 -0.1535  0.4844
   34CHL1   H25 3688   4.236   0.321   6.442  0.6646 -0.0649  0.6499
   34CHL1   C26 3689   4.095   0.466   6.361 -0.1110  0.2665 -0.3313
   34CHL1  H26A 3690   4.041   0.387   6.306 -1.5621  0.7942  0.3022
   34CHL1  H26B 3691   4.033   0.477   6.452  1.1438 -0.7723  0.6864
   34CHL1  H26C 3692   4.092   0.552   6.289  2.3846 -1.3454 -2.5700
   34CHL1   C27 3693   4.304   0.375   6.254  0.0909 -0.6923 -0.2412
   34CHL1  H27A 3694   4.391   0.314   6.285 -0.2685  0.5850  3.9819
   34CHL1  H27B 3695   4.226   0.323   6.194 -0.6687  1.7167 -1.4786
   34CHL1  H27C 3696   4.349   0.462   6.202 -0.5206  0.0784  0.4744
   35CHL1    C3 3697   3.919   1.150   8.180 -0.3323 -0.2026  0.0187
   35CHL1    H3 3698   3.817   1.110   8.161 -0.4445 -0.1716  0.5478
   35CHL1    O3 3699   3.944   1.124   8.317 -0.5510  0.3613  0.1470
   35CHL1   H3' 3700   3.874   1.164   8.370 -0.1227 -0.8633  1.7096
   35CHL1    C4 3701   4.019   1.068   8.098 -0.4349 -0.0495  0.6380
   35CHL1   H4A 3702   4.121   1.098   8.130  0.1279 -1.5997  0.3835
   35CHL1   H4B 3703   4.008   0.962   8.128  1.1208 -0.2400  0.6496
   35CHL1    C5 3704   4.005   1.089   7.947  0.6134 -0.8031  0.3205
   35CHL1    C6 3705   3.976   0.987   7.862  0.0445 -0.5889  0.1504
   35CHL1    H6 3706   3.981   0.888   7.911  0.9415  1.0839  3.8113
   35CHL1    C7 3707   3.947   0.999   7.712 -1.0009  0.8343  0.0650
   35CHL1   H7A 3708   4.000   0.913   7.667  0.6451  0.8536  1.8053
   35CHL1   H7B 3709   3.839   0.991   7.690 -1.4799  1.6002  1.9376
   35CHL1    C8 3710   3.995   1.140   7.658 -0.6255 -0.2526  0.5391
   35CHL1    H8 3711   4.101   1.119   7.634 -0.9960  0.2200 -1.7423
   35CHL1   C14 3712   3.914   1.183   7.535 -0.6956  0.4300  0.2554
   35CHL1   H14 3713   3.809   1.196   7.571 -0.4997 -0.8558  1.3697
   35CHL1   C15 3714   3.897   1.078   7.429 -0.1687  0.4223 -0.1262
   35CHL1  H15A 3715   3.993   1.030   7.400  0.5387  3.0988 -2.7079
   35CHL1  H15B 3716   3.824   0.999   7.460  1.7566 -2.0603 -1.5125
   35CHL1   C16 3717   3.847   1.160   7.311  0.7926 -0.2834 -0.2089
   35CHL1  H16A 3718   3.902   1.125   7.221 -0.6718  0.0203 -1.2540
   35CHL1  H16B 3719   3.743   1.140   7.277  1.6325 -2.0628 -1.9654
   35CHL1   C17 3720   3.867   1.307   7.340 -0.3469 -0.7101  0.1675
   35CHL1   H17 3721   3.772   1.351   7.375 -0.2683 -0.2096 -0.2479
   35CHL1   C13 3722   3.964   1.309   7.459 -0.5307  0.1141  0.4178
   35CHL1   C18 3723   4.112   1.298   7.411 -0.0112 -0.1119  0.3496
   35CHL1  H18A 3724   4.182   1.274   7.493  2.2416 -1.2527 -1.7768
   35CHL1  H18B 3725   4.124   1.221   7.332  1.6221  1.5598 -1.1397
   35CHL1  H18C 3726   4.144   1.384   7.349 -0.1597 -2.8529 -3.9294
   35CHL1   C12 3727   3.949   1.421   7.564 -0.3845  0.1926  0.0817
   35CHL1  H12A 3728   3.985   1.514   7.515 -1.6396 -0.4899 -2.2677
   35CHL1  H12B 3729   3.841   1.436   7.585 -0.7151  0.4686 -1.6479
   35CHL1   C11 3730   4.020   1.391   7.693  0.4413  0.6037 -0.0186
   35CHL1  H11A 3731   4.130   1.382   7.679  0.3083 -2.7831  0.1286
   35CHL1  H11B 3732   4.007   1.476   7.763  0.1204  0.5679 -0.0330
   35CHL1    C9 3733   3.975   1.261   7.757  0.4332  0.6079  0.2648
   35CHL1    H9 3734   3.864   1.264   7.764  0.1844 -0.1091 -2.2037
   35CHL1   C10 3735   4.015   1.234   7.903 -0.1034  0.0142 -0.7075
   35CHL1   C19 3736   4.160   1.294   7.923 -0.0296 -0.2430  0.1337
   35CHL1  H19A 3737   4.243   1.253   7.860 -0.9839 -1.0551 -0.6231
   35CHL1  H19B 3738   4.146   1.403   7.910 -1.7838 -0.4590  0.0394
   35CHL1  H19C 3739   4.195   1.264   8.024  1.6370  0.3517 -0.2207
   35CHL1    C1 3740   3.913   1.317   7.999  0.4532  0.3908 -1.0455
   35CHL1   H1A 3741   3.901   1.422   7.964 -0.1139  0.5942 -0.2629
   35CHL1   H1B 3742   3.815   1.272   7.973  0.4092  0.8550 -1.7138
   35CHL1    C2 3743   3.933   1.298   8.149  0.4743 -0.2191  0.3186
   35CHL1   H2A 3744   3.864   1.358   8.212  0.0288 -2.1137  1.7190
   35CHL1   H2B 3745   4.030   1.336   8.186 -0.7612  0.1155  3.4778
   35CHL1   C20 3746   3.905   1.385   7.220  0.7737 -0.5151  0.1774
   35CHL1   H20 3747   4.004   1.365   7.174  2.0426  0.8070  2.1876
   35CHL1   C21 3748   3.920   1.538   7.251 -0.0129  0.0985  0.1906
   35CHL1  H21A 3749   3.932   1.604   7.163 -1.4921  1.6461  1.0979
   35CHL1  H21B 3750   4.016   1.549   7.307 -0.0878 -0.3161  0.4126
   35CHL1  H21C 3751   3.836   1.572   7.315  0.6305  0.1922  1.0006
   35CHL1   C22 3752   3.803   1.366   7.104 -0.2073 -0.5784 -0.3026
   35CHL1  H22A 3753   3.826   1.271   7.052  1.6857  1.4586 -3.5097
   35CHL1  H22B 3754   3.699   1.349   7.141  0.5768 -0.9239  1.8842
   35CHL1   C23 3755   3.808   1.455   6.984  0.0018 -0.8112  0.3783
   35CHL1  H23A 3756   3.817   1.564   7.002  1.3510 -1.2124  2.4367
   35CHL1  H23B 3757   3.899   1.430   6.925  0.6662  2.2011 -0.0485
   35CHL1   C24 3758   3.687   1.440   6.891  0.9177 -0.1166  1.0839
   35CHL1  H24A 3759   3.645   1.339   6.906 -0.1958  0.0325 -0.6713
   35CHL1  H24B 3760   3.609   1.517   6.911 -1.0174 -0.7224 -3.0104
   35CHL1   C25 3761   3.737   1.469   6.745  0.2443 -0.0651  0.4813
   35CHL1   H25 3762   3.801   1.384   6.712 -0.4420 -1.5193  2.6316
   35CHL1   C26 3763   3.618   1.468   6.635 -0.4519  0.1244 -0.7612
   35CHL1  H26A 3764   3.567   1.371   6.654  1.4115 -0.4995  1.5381
   35CHL1  H26B 3765   3.556   1.558   6.648 -1.1021 -0.4896  0.5474
   35CHL1  H26C 3766   3.663   1.466   6.533 -1.9676 -1.0659 -1.4427
   35CHL1   C27 3767   3.815   1.598   6.729 -0.0225  0.1006  0.1434
   35CHL1  H27A 3768   3.850   1.617   6.625  0.6191  1.4336  0.5905
   35CHL1  H27B 3769   3.752   1.686   6.754  1.8696  1.5895 -0.0583
   35CHL1  H27C 3770   3.906   1.602   6.792 -0.6055 -0.2667  1.0160
   36CHL1    C3 3771   1.170   5.594   7.765  0.5324  0.3302  0.4969
   36CHL1    H3 3772   1.126   5.496   7.735 -0.2769  0.9529 -0.4369
   36CHL1    O3 3773   1.227   5.581   7.890  0.4819  0.3861  0.2931
   36CHL1   H3' 3774   1.236   5.671   7.921  0.5564  0.7922 -0.8846
   36CHL1    C4 3775   1.290   5.613   7.669  0.1254 -0.5447 -0.8216
   36CHL1   H4A 3776   1.328   5.717   7.675 -2.1808  0.2636  2.0005
   36CHL1   H4B 3777   1.362   5.530   7.687 -0.6625 -1.1631 -0.5166
   36CHL1    C5 3778   1.230   5.623   7.527  0.4704 -0.6469  0.0555
   36CHL1    C6 3779   1.274   5.547   7.424  0.4614  0.6640 -0.0864
   36CHL1    H6 3780   1.348   5.467   7.437 -1.5661 -1.7589 -2.4674
   36CHL1    C7 3781   1.239   5.571   7.282 -0.6967 -0.3568  0.5244
   36CHL1   H7A 3782   1.328   5.568   7.216 -0.8212 -0.2881  0.3514
   36CHL1   H7B 3783   1.167   5.492   7.251 -0.4885 -0.4501  0.2701
   36CHL1    C8 3784   1.155   5.701   7.257 -0.0231  0.3071 -0.3891
   36CHL1    H8 3785   1.223   5.789   7.265 -0.6580  0.7538  0.0945
   36CHL1   C14 3786   1.088   5.690   7.121  0.1629 -0.0507  0.7066
   36CHL1   H14 3787   1.019   5.603   7.118  1.0893 -0.7635 -0.4484
   36CHL1   C15 3788   1.182   5.678   7.005  0.5494  0.3969 -0.4323
   36CHL1  H15A 3789   1.269   5.748   7.008 -0.5676  1.8496  1.8236
   36CHL1  H15B 3790   1.227   5.577   7.008 -0.3848 -0.0341 -0.7801
   36CHL1   C16 3791   1.089   5.713   6.891  0.3784  0.8577  0.5766
   36CHL1  H16A 3792   1.131   5.799   6.835 -0.9246  0.3463 -1.2716
   36CHL1  H16B 3793   1.074   5.621   6.830  1.5558 -0.1681  1.7667
   36CHL1   C17 3794   0.952   5.762   6.946  0.3318  0.2967 -0.0632
   36CHL1   H17 3795   0.882   5.680   6.973  0.8734  0.1346  0.9028
   36CHL1   C13 3796   0.990   5.808   7.089  0.0066  1.0230  0.1128
   36CHL1   C18 3797   1.074   5.937   7.073 -0.4117 -0.0032 -0.3568
   36CHL1  H18A 3798   1.134   5.938   6.979 -0.5501 -0.0147 -0.4457
   36CHL1  H18B 3799   1.002   6.022   7.069  1.6940  1.9721  1.1196
   36CHL1  H18C 3800   1.150   5.942   7.154  1.1762 -1.1441 -1.6937
   36CHL1   C12 3801   0.888   5.817   7.201  0.4224  0.3788  0.4515
   36CHL1  H12A 3802   0.822   5.901   7.167  0.9144  0.0048 -1.6026
   36CHL1  H12B 3803   0.823   5.726   7.199 -0.4773  0.9917  0.9569
   36CHL1   C11 3804   0.951   5.834   7.344  0.7311 -0.5213  0.4697
   36CHL1  H11A 3805   1.003   5.932   7.332 -1.7921  0.8387 -0.1228
   36CHL1  H11B 3806   0.883   5.844   7.431  0.5816 -2.0267  0.5506
   36CHL1    C9 3807   1.056   5.720   7.373  0.4763 -0.0924  0.1453
   36CHL1    H9 3808   0.995   5.628   7.368  1.0224 -0.4840  0.5467
   36CHL1   C10 3809   1.116   5.734   7.515  0.3149  0.3469 -0.5330
   36CHL1   C19 3810   1.180   5.875   7.541 -0.1494 -0.2268  0.4705
   36CHL1  H19A 3811   1.272   5.894   7.482 -1.3596 -0.9810 -1.7819
   36CHL1  H19B 3812   1.108   5.958   7.524 -0.7571 -0.9430 -0.6078
   36CHL1  H19C 3813   1.212   5.883   7.647 -1.3736 -1.7340  0.9946
   36CHL1    C1 3814   1.008   5.719   7.623  0.0927  0.6633  0.6169
   36CHL1   H1A 3815   0.941   5.807   7.621  0.9970  1.4136 -2.4764
   36CHL1   H1B 3816   0.955   5.625   7.597 -0.2215  1.6472 -2.7508
   36CHL1    C2 3817   1.066   5.704   7.763  0.2812  0.2967 -0.3364
   36CHL1   H2A 3818   0.979   5.672   7.825 -0.3825  2.8808  0.1744
   36CHL1   H2B 3819   1.108   5.797   7.806  1.5385 -0.2821 -0.2690
   36CHL1   C20 3820   0.878   5.860   6.854  0.7683 -0.0607  0.3708
   36CHL1   H20 3821   0.945   5.948   6.843 -0.1940  0.6751  0.3513
   36CHL1   C21 3822   0.751   5.905   6.928  0.7229  0.1184  0.5525
   36CHL1  H21A 3823   0.700   5.976   6.858  1.9655 -0.3638 -0.8826
   36CHL1  H21B 3824   0.788   5.974   7.007 -2.6357  0.5818  1.8960
   36CHL1  H21C 3825   0.698   5.819   6.972  1.6748 -0.5582  0.4041
   36CHL1   C22 3826   0.836   5.795   6.713  0.1555  0.4520 -0.1909
   36CHL1  H22A 3827   0.916   5.728   6.674  0.0123 -1.0709  1.9687
   36CHL1  H22B 3828   0.750   5.735   6.751  1.2829 -0.7833  0.4828
   36CHL1   C23 3829   0.792   5.893   6.610  0.5730  0.5657 -0.2842
   36CHL1  H23A 3830   0.704   5.952   6.644  0.6285 -0.3852  1.6416
   36CHL1  H23B 3831   0.872   5.970   6.601 -0.7964  1.9531 -1.2046
   36CHL1   C24 3832   0.766   5.829   6.470  0.0925  0.4015  1.1037
   36CHL1  H24A 3833   0.844   5.758   6.435 -2.1953 -1.3105 -0.8575
   36CHL1  H24B 3834   0.670   5.774   6.480  0.0067  0.2963 -0.1533
   36CHL1   C25 3835   0.738   5.937   6.360 -0.6088 -0.0425  0.2899
   36CHL1   H25 3836   0.703   5.880   6.271 -1.2442 -0.0498  0.5410
   36CHL1   C26 3837   0.628   6.040   6.405 -0.7332  0.2500  0.1898
   36CHL1  H26A 3838   0.598   6.110   6.323  1.3345 -0.0826 -0.9034
   36CHL1  H26B 3839   0.540   5.982   6.439  0.0113 -0.7463  0.4485
   36CHL1  H26C 3840   0.667   6.108   6.483 -0.4275 -0.0019  0.2572
   36CHL1   C27 3841   0.866   6.005   6.321 -0.1496 -0.5310  1.0312
   36CHL1  H27A 3842   0.915   6.049   6.410  1.0211 -1.1090  0.6880
   36CHL1  H27B 3843   0.938   5.934   6.276 -2.1038 -0.5852 -2.3405
   36CHL1  H27C 3844   0.839   6.084   6.248  0.1718 -1.2926  0.0745
   37CHL1    C3 3845   4.061   4.931   7.701 -0.7180 -0.0698 -0.4279
   37CHL1    H3 3846   3.977   5.005   7.705 -0.4384  0.1925  1.2669
   37CHL1    O3 3847   4.119   4.891   7.826 -0.2126 -0.0142  0.1631
   37CHL1   H3' 3848   4.070   4.812   7.850 -0.5961  0.4013  0.7672
   37CHL1    C4 3849   4.028   4.800   7.635 -0.0113  0.0221 -0.3970
   37CHL1   H4A 3850   4.110   4.726   7.643 -0.0355 -0.0148 -0.4865
   37CHL1   H4B 3851   3.931   4.768   7.679 -0.0879 -2.5028 -2.2093
   37CHL1    C5 3852   3.998   4.807   7.486 -0.5281 -0.4900  0.1215
   37CHL1    C6 3853   3.883   4.773   7.432  0.1026 -0.4497 -0.0313
   37CHL1    H6 3854   3.812   4.720   7.497  0.5788 -1.3305 -0.2113
   37CHL1    C7 3855   3.853   4.779   7.285  0.3530  0.5928  0.3735
   37CHL1   H7A 3856   3.817   4.680   7.252  1.0293  0.3392  0.3677
   37CHL1   H7B 3857   3.779   4.861   7.271 -0.7299 -0.3491  0.4502
   37CHL1    C8 3858   3.977   4.794   7.197 -0.1245  0.0231 -0.3502
   37CHL1    H8 3859   4.039   4.702   7.201  0.4800  0.4434  1.9451
   37CHL1   C14 3860   3.943   4.828   7.053 -0.8899 -1.0766 -0.5691
   37CHL1   H14 3861   3.887   4.923   7.066  0.3141 -0.5525  1.2276
   37CHL1   C15 3862   3.841   4.736   6.976 -0.4924 -0.2075 -0.1951
   37CHL1  H15A 3863   3.868   4.629   6.986 -0.5024 -0.1271  0.7043
   37CHL1  H15B 3864   3.738   4.733   7.017 -0.4193  2.9654  0.4305
   37CHL1   C16 3865   3.864   4.790   6.837  0.1655  0.7727  0.4762
   37CHL1  H16A 3866   3.872   4.702   6.769  0.9524  1.4350 -0.3113
   37CHL1  H16B 3867   3.785   4.864   6.812 -1.3655 -0.3396  1.7933
   37CHL1   C17 3868   3.994   4.866   6.825 -0.3051 -0.1197 -0.0729
   37CHL1   H17 3869   3.957   4.970   6.840  1.0326  0.2445  1.0206
   37CHL1   C13 3870   4.060   4.843   6.965 -0.2039 -0.0257  0.7238
   37CHL1   C18 3871   4.144   4.718   6.945 -0.0133 -0.1096  0.0594
   37CHL1  H18A 3872   4.207   4.707   6.853 -0.7538 -3.6636 -0.1955
   37CHL1  H18B 3873   4.205   4.700   7.036 -1.6054  2.0592  1.6353
   37CHL1  H18C 3874   4.085   4.624   6.951  1.1081 -0.9206 -1.0805
   37CHL1   C12 3875   4.139   4.965   7.011 -0.1220  0.0747  0.7758
   37CHL1  H12A 3876   4.229   4.970   6.947  0.2799  1.7354  1.4113
   37CHL1  H12B 3877   4.084   5.062   7.008  0.5833  0.4599 -0.2425
   37CHL1   C11 3878   4.181   4.948   7.160  0.7218 -0.4206  0.1863
   37CHL1  H11A 3879   4.262   4.872   7.163 -0.4884 -1.7536 -0.0796
   37CHL1  H11B 3880   4.220   5.048   7.188  0.0712 -0.2521  0.5130
   37CHL1    C9 3881   4.062   4.905   7.255 -1.2034 -0.4133 -0.5632
   37CHL1    H9 3882   4.000   4.996   7.267  1.6955  2.4263 -4.3960
   37CHL1   C10 3883   4.112   4.874   7.402  0.8212 -0.3473 -0.1970
   37CHL1   C19 3884   4.240   4.782   7.390  0.0085  0.4644  0.0866
   37CHL1  H19A 3885   4.274   4.746   7.489 -1.2622 -1.1019  0.0038
   37CHL1  H19B 3886   4.218   4.693   7.328 -0.2965 -0.6552  1.7330
   37CHL1  H19C 3887   4.323   4.839   7.343  1.1034 -0.1341  1.2271
   37CHL1    C1 3888   4.146   5.011   7.475  0.1101 -0.7899 -0.2287
   37CHL1   H1A 3889   4.229   5.062   7.420 -0.4256  0.1693 -0.1674
   37CHL1   H1B 3890   4.054   5.072   7.462  0.5924  0.0265  0.0700
   37CHL1    C2 3891   4.178   5.003   7.626  0.2356 -0.1087  0.1104
   37CHL1   H2A 3892   4.190   5.108   7.658  2.4225 -0.3232  0.1654
   37CHL1   H2B 3893   4.274   4.949   7.640 -1.1643 -2.6112  0.6938
   37CHL1   C20 3894   4.081   4.872   6.698  0.4271 -0.1099  0.0107
   37CHL1   H20 3895   4.180   4.915   6.723  0.2923 -0.1823  0.6684
   37CHL1   C21 3896   4.017   4.980   6.610  0.3086 -0.1294 -0.2675
   37CHL1  H21A 3897   4.027   5.079   6.659 -2.8564 -1.0196  2.5920
   37CHL1  H21B 3898   3.907   4.965   6.611 -0.1062  2.4759 -1.0961
   37CHL1  H21C 3899   4.056   4.964   6.507 -0.3592 -1.6425 -0.3189
   37CHL1   C22 3900   4.083   4.741   6.621 -0.1167  0.0196  0.6317
   37CHL1  H22A 3901   4.082   4.646   6.679 -0.6414  0.3836  1.2399
   37CHL1  H22B 3902   3.999   4.732   6.549 -1.0087 -0.8360  1.7523
   37CHL1   C23 3903   4.209   4.721   6.536 -0.0823 -0.4882 -0.6816
   37CHL1  H23A 3904   4.250   4.817   6.497 -1.0009  0.6119  0.9295
   37CHL1  H23B 3905   4.288   4.675   6.598  1.3118  0.0734 -1.9792
   37CHL1   C24 3906   4.174   4.628   6.417 -0.8934  0.2117 -0.7816
   37CHL1  H24A 3907   4.127   4.537   6.459 -3.1764  1.5558 -0.2292
   37CHL1  H24B 3908   4.099   4.686   6.359 -2.1184 -1.6607 -1.1411
   37CHL1   C25 3909   4.299   4.609   6.330 -0.5240  0.3532 -0.1424
   37CHL1   H25 3910   4.277   4.538   6.247  0.5453 -3.7015  2.7180
   37CHL1   C26 3911   4.349   4.740   6.275  0.4631 -0.8540 -0.3897
   37CHL1  H26A 3912   4.397   4.800   6.356 -0.7399  1.1953 -1.1188
   37CHL1  H26B 3913   4.428   4.725   6.197  0.4816  0.4421 -0.6461
   37CHL1  H26C 3914   4.270   4.801   6.227 -1.0239 -1.1413  1.5972
   37CHL1   C27 3915   4.421   4.540   6.409  0.3291  0.0005 -0.0331
   37CHL1  H27A 3916   4.384   4.457   6.473 -1.7013  0.6484 -0.3012
   37CHL1  H27B 3917   4.503   4.506   6.342 -0.4657 -0.1895 -0.9315
   37CHL1  H27C 3918   4.466   4.609   6.483  1.4390 -0.5563 -0.1723
   38CHL1    C3 3919   5.553   3.981   7.856  0.3350  0.2329  0.2878
   38CHL1    H3 3920   5.613   3.893   7.824 -0.8610 -0.4189 -0.2244
   38CHL1    O3 3921   5.523   3.960   7.990 -0.1340  0.0217  0.2042
   38CHL1   H3' 3922   5.532   4.044   8.036  0.7128 -0.3234  0.7041
   38CHL1    C4 3923   5.630   4.115   7.834  0.0170  0.4763 -0.0877
   38CHL1   H4A 3924   5.574   4.200   7.878 -2.5258 -0.6301 -1.0138
   38CHL1   H4B 3925   5.721   4.120   7.898 -1.3253 -0.9713  2.0838
   38CHL1    C5 3926   5.649   4.151   7.683 -0.0993  0.1561 -0.7689
   38CHL1    C6 3927   5.770   4.177   7.619  0.4447  0.4321  0.3189
   38CHL1    H6 3928   5.859   4.175   7.682  0.2112  1.3425  0.6870
   38CHL1    C7 3929   5.799   4.229   7.471 -0.0924  0.2559 -0.3622
   38CHL1   H7A 3930   5.868   4.315   7.458  0.9367 -0.6073 -0.7826
   38CHL1   H7B 3931   5.836   4.136   7.423 -1.2717 -0.8389  0.7589
   38CHL1    C8 3932   5.665   4.262   7.408 -0.3346  0.2490  0.0346
   38CHL1    H8 3933   5.632   4.357   7.455 -3.4038 -0.7972  0.1777
   38CHL1   C14 3934   5.680   4.281   7.262 -0.3830 -0.1898  0.2871
   38CHL1   H14 3935   5.703   4.179   7.222  0.1157 -0.4759  1.2784
   38CHL1   C15 3936   5.784   4.390   7.219  0.0638 -0.5751  0.2939
   38CHL1  H15A 3937   5.759   4.486   7.270  2.0469 -0.8918  1.9729
   38CHL1  H15B 3938   5.893   4.372   7.224  0.6459  2.2969 -0.0985
   38CHL1   C16 3939   5.741   4.419   7.072  0.3142  1.0611  0.6662
   38CHL1  H16A 3940   5.720   4.528   7.063  3.1945  1.5453 -2.2634
   38CHL1  H16B 3941   5.825   4.401   7.002  1.1590 -0.0341  1.9062
   38CHL1   C17 3942   5.615   4.337   7.043  0.4674  1.1092  0.2907
   38CHL1   H17 3943   5.636   4.239   6.996 -3.0417 -0.0466  0.7895
   38CHL1   C13 3944   5.553   4.304   7.180 -0.0408 -0.4071  0.2137
   38CHL1   C18 3945   5.489   4.435   7.230  0.3571  0.1785  0.0136
   38CHL1  H18A 3946   5.493   4.446   7.340 -0.3252 -0.8474  0.1520
   38CHL1  H18B 3947   5.538   4.526   7.189  0.7834  0.1995  0.5623
   38CHL1  H18C 3948   5.381   4.444   7.203  0.0377 -1.4796  0.6300
   38CHL1   C12 3949   5.445   4.191   7.197  0.3787  0.0751  0.9548
   38CHL1  H12A 3950   5.349   4.197   7.142  1.3389 -0.5746 -0.8792
   38CHL1  H12B 3951   5.493   4.099   7.156  1.0593  1.4806 -1.5423
   38CHL1   C11 3952   5.420   4.174   7.350 -0.2124  0.5949  0.3200
   38CHL1  H11A 3953   5.355   4.258   7.384  0.0240 -0.2602  3.1230
   38CHL1  H11B 3954   5.363   4.079   7.346  0.8848 -0.0287 -2.0449
   38CHL1    C9 3955   5.546   4.159   7.442 -0.9603  0.6623  0.5421
   38CHL1    H9 3956   5.598   4.068   7.406  0.2008  1.2278  0.7240
   38CHL1   C10 3957   5.521   4.149   7.601 -0.3850  0.0625  0.1250
   38CHL1   C19 3958   5.434   4.274   7.640 -0.2100 -0.1373  0.2575
   38CHL1  H19A 3959   5.328   4.261   7.607 -1.1783  1.4997  2.4374
   38CHL1  H19B 3960   5.426   4.290   7.750 -0.9331  0.5248  0.1176
   38CHL1  H19C 3961   5.457   4.375   7.599 -2.6652  0.0690 -0.8156
   38CHL1    C1 3962   5.441   4.022   7.630  0.2918 -0.0872 -0.2681
   38CHL1   H1A 3963   5.343   4.034   7.578  1.2125  1.6905 -1.6815
   38CHL1   H1B 3964   5.493   3.936   7.582  0.5680  1.6197 -3.2606
   38CHL1    C2 3965   5.423   3.985   7.780 -0.3733 -0.4502 -0.1592
   38CHL1   H2A 3966   5.383   3.881   7.785 -0.4842 -0.4851 -1.4450
   38CHL1   H2B 3967   5.348   4.053   7.827 -0.4934  0.5008 -1.6778
   38CHL1   C20 3968   5.538   4.403   6.931 -0.2293  0.3932 -0.1656
   38CHL1   H20 3969   5.493   4.499   6.966  0.9987  1.2768 -0.9377
   38CHL1   C21 3970   5.418   4.313   6.893 -0.5357 -0.2922 -0.0374
   38CHL1  H21A 3971   5.353   4.363   6.817  0.9189  1.8334  0.0322
   38CHL1  H21B 3972   5.355   4.305   6.984 -0.3802  2.0261  0.3514
   38CHL1  H21C 3973   5.442   4.212   6.854 -2.4858 -0.1174 -1.8849
   38CHL1   C22 3974   5.623   4.438   6.803  0.4876  0.7790 -0.8172
   38CHL1  H22A 3975   5.708   4.508   6.821  0.5271  0.3904  0.6325
   38CHL1  H22B 3976   5.662   4.341   6.766 -1.2388 -1.3152  2.3360
   38CHL1   C23 3977   5.536   4.505   6.696 -0.5504 -0.6810  0.1287
   38CHL1  H23A 3978   5.467   4.424   6.662  1.0860 -1.4665 -1.5398
   38CHL1  H23B 3979   5.503   4.604   6.732  1.8264 -0.8812  3.3389
   38CHL1   C24 3980   5.638   4.527   6.579  0.6555  0.3724  0.8434
   38CHL1  H24A 3981   5.722   4.589   6.617 -1.4069  1.9145  3.2483
   38CHL1  H24B 3982   5.682   4.426   6.561 -1.5800 -1.2768  3.6613
   38CHL1   C25 3983   5.587   4.594   6.452 -0.1386 -0.0874 -0.2528
   38CHL1   H25 3984   5.544   4.694   6.473  0.1613 -0.1363  0.6101
   38CHL1   C26 3985   5.698   4.624   6.353 -0.3142 -0.6894  0.0286
   38CHL1  H26A 3986   5.673   4.700   6.276  1.6523 -0.6957 -0.6758
   38CHL1  H26B 3987   5.778   4.663   6.418 -1.5738  0.9564  0.6601
   38CHL1  H26C 3988   5.729   4.527   6.308  0.1264  0.0556 -1.3251
   38CHL1   C27 3989   5.471   4.507   6.388  0.4919  0.3549 -0.2608
   38CHL1  H27A 3990   5.385   4.503   6.458 -0.7853  0.7192 -1.7426
   38CHL1  H27B 3991   5.434   4.559   6.297 -1.2489  2.5225  1.5718
   38CHL1  H27C 3992   5.519   4.409   6.368 -0.0491 -0.0858  0.5411
   39CHL1    C3 3993   2.054   4.102   7.943 -0.0644 -0.2520  0.8539
   39CHL1    H3 3994   2.150   4.124   7.892 -1.1727  0.3654 -1.0915
   39CHL1    O3 3995   2.078   4.084   8.081  0.2906  0.2442 -0.5196
   39CHL1   H3' 3996   2.149   4.140   8.113 -0.8413 -0.2420  3.2501
   39CHL1    C4 3997   1.965   4.226   7.924  0.1266 -0.3197 -0.0480
   39CHL1   H4A 3998   1.869   4.222   7.980 -1.0726 -0.2058 -1.9821
   39CHL1   H4B 3999   2.027   4.310   7.962 -2.8080  2.2389 -0.5011
   39CHL1    C5 4000   1.942   4.247   7.777 -0.2132  0.2502  0.1796
   39CHL1    C6 4001   1.982   4.361   7.717 -0.0870  0.4653 -0.5290
   39CHL1    H6 4002   2.025   4.434   7.787  1.7759 -0.0805 -1.0199
   39CHL1    C7 4003   1.965   4.386   7.573  0.3348 -0.0248  0.3056
   39CHL1   H7A 4004   1.919   4.485   7.556 -0.1340 -0.6824 -2.7513
   39CHL1   H7B 4005   2.067   4.378   7.529  0.1161 -1.9722  0.0656
   39CHL1    C8 4006   1.867   4.291   7.499 -0.6049  0.1991 -0.6551
   39CHL1    H8 4007   1.766   4.321   7.536 -0.7360 -1.4372  0.4049
   39CHL1   C14 4008   1.872   4.305   7.350  0.0305 -0.7358 -0.2732
   39CHL1   H14 4009   1.974   4.281   7.315  0.0496 -0.7469 -0.2107
   39CHL1   C15 4010   1.850   4.447   7.293  0.0562  0.4080 -0.1650
   39CHL1  H15A 4011   1.760   4.490   7.343 -1.2722 -1.2654 -1.0038
   39CHL1  H15B 4012   1.936   4.515   7.312  0.3487  0.4370 -1.4757
   39CHL1   C16 4013   1.814   4.420   7.147  0.4186  0.0599  0.2077
   39CHL1  H16A 4014   1.716   4.468   7.131  0.2999  1.3781  3.9998
   39CHL1  H16B 4015   1.885   4.454   7.069  1.3936 -0.8384  0.6762
   39CHL1   C17 4016   1.798   4.264   7.128 -0.3680  0.9397 -0.8995
   39CHL1   H17 4017   1.895   4.221   7.095 -1.4297 -2.4158  0.0329
   39CHL1   C13 4018   1.788   4.207   7.278  0.4206 -0.2043 -0.5604
   39CHL1   C18 4019   1.639   4.238   7.310 -0.2469  0.7136  0.4052
   39CHL1  H18A 4020   1.606   4.222   7.415  1.2376 -1.6981  0.5932
   39CHL1  H18B 4021   1.626   4.348   7.308 -2.0639  0.5871  2.1380
   39CHL1  H18C 4022   1.567   4.181   7.248 -0.2082 -0.3027  1.2535
   39CHL1   C12 4023   1.826   4.065   7.306 -0.1339  0.8572 -0.4895
   39CHL1  H12A 4024   1.772   3.990   7.244  1.1067 -0.2088 -0.3216
   39CHL1  H12B 4025   1.935   4.060   7.285  0.3700  1.0463  1.7930
   39CHL1   C11 4026   1.821   4.037   7.462  0.4810  0.3106 -0.4283
   39CHL1  H11A 4027   1.713   4.033   7.488  0.6869  1.3207  0.7192
   39CHL1  H11B 4028   1.873   3.941   7.483 -3.1653 -1.6960  0.2780
   39CHL1    C9 4029   1.897   4.147   7.549  0.3655  0.7835 -0.2428
   39CHL1    H9 4030   2.004   4.124   7.530 -0.6698 -2.7097 -2.9098
   39CHL1   C10 4031   1.886   4.122   7.701 -0.2425  1.2416 -0.0991
   39CHL1   C19 4032   1.736   4.111   7.729  0.7741 -1.0147 -1.2821
   39CHL1  H19A 4033   1.672   4.180   7.671 -1.2243 -2.2321 -0.6233
   39CHL1  H19B 4034   1.713   4.004   7.711 -0.8688 -0.4156 -3.0645
   39CHL1  H19C 4035   1.727   4.122   7.839  0.5213 -3.6443 -0.9674
   39CHL1    C1 4036   1.954   3.988   7.741  0.0932 -0.4064 -0.4405
   39CHL1   H1A 4037   1.889   3.903   7.711  0.1081 -0.3431 -0.6595
   39CHL1   H1B 4038   2.048   3.984   7.682 -0.2303  1.5116 -1.1533
   39CHL1    C2 4039   1.971   3.980   7.891 -0.2109 -0.9865 -1.0346
   39CHL1   H2A 4040   2.035   3.893   7.917  2.5587  0.9416 -0.8392
   39CHL1   H2B 4041   1.874   3.976   7.944  1.7013  0.5509  3.0841
   39CHL1   C20 4042   1.710   4.229   7.011 -0.0717  0.0909 -0.1266
   39CHL1   H20 4043   1.609   4.276   7.016 -0.9476 -1.7869  0.4851
   39CHL1   C21 4044   1.676   4.077   7.010  0.2864  0.3209 -0.3069
   39CHL1  H21A 4045   1.619   4.042   7.098 -0.3075 -2.1792 -1.5691
   39CHL1  H21B 4046   1.770   4.017   7.004  0.4169  0.4848  0.0646
   39CHL1  H21C 4047   1.620   4.045   6.919  2.5268  0.4623 -1.8316
   39CHL1   C22 4048   1.775   4.273   6.881 -0.3580 -0.0333  0.6649
   39CHL1  H22A 4049   1.806   4.379   6.892  2.2191 -0.6967  0.4074
   39CHL1  H22B 4050   1.875   4.229   6.862  0.2609  1.4687  0.3016
   39CHL1   C23 4051   1.682   4.250   6.757 -0.1767 -0.5462 -0.8069
   39CHL1  H23A 4052   1.692   4.147   6.716  1.4276 -0.9114  0.3951
   39CHL1  H23B 4053   1.580   4.264   6.799  0.8002  2.5827  0.8663
   39CHL1   C24 4054   1.702   4.347   6.638 -0.0090  0.0350  0.4377
   39CHL1  H24A 4055   1.646   4.439   6.661 -0.4424  0.5502 -2.3010
   39CHL1  H24B 4056   1.809   4.373   6.621  0.1850 -1.0589 -0.1655
   39CHL1   C25 4057   1.645   4.291   6.509 -0.2541  0.1728  0.1298
   39CHL1   H25 4058   1.699   4.196   6.490 -1.7122 -0.8604  1.0223
   39CHL1   C26 4059   1.500   4.240   6.503  0.8787  0.4660  0.2168
   39CHL1  H26A 4060   1.433   4.328   6.505  1.1724  0.6900  0.3125
   39CHL1  H26B 4061   1.493   4.176   6.412 -0.6770  0.6836  0.1681
   39CHL1  H26C 4062   1.476   4.168   6.584 -1.1346 -1.0726 -1.6213
   39CHL1   C27 4063   1.671   4.382   6.385 -0.2449  0.5448 -0.5078
   39CHL1  H27A 4064   1.624   4.483   6.388 -0.6064  0.3726 -0.3230
   39CHL1  H27B 4065   1.779   4.398   6.366 -0.4030 -0.9384 -3.0483
   39CHL1  H27C 4066   1.633   4.332   6.293  0.3295  1.9192 -1.5300
   40CHL1    C3 4067   6.312   2.259   7.728 -0.1704 -0.3513 -0.2550
   40CHL1    H3 4068   6.351   2.347   7.673 -1.0119 -0.1819 -0.5983
   40CHL1    O3 4069   6.300   2.278   7.872  0.7673  0.1460 -0.5184
   40CHL1   H3' 4070   6.388   2.310   7.896 -0.0782  1.1768  1.3957
   40CHL1    C4 4071   6.169   2.225   7.670  0.1985  0.2951 -0.0410
   40CHL1   H4A 4072   6.122   2.150   7.738  0.4335  0.0071 -0.1938
   40CHL1   H4B 4073   6.117   2.321   7.686 -3.6033 -1.6276  0.4545
   40CHL1    C5 4074   6.160   2.176   7.523 -0.2346  0.5882 -1.1932
   40CHL1    C6 4075   6.066   2.233   7.443  0.6162 -0.6112  0.1425
   40CHL1    H6 4076   5.991   2.301   7.486  1.4286 -0.6128  1.6157
   40CHL1    C7 4077   6.045   2.183   7.300 -0.7404 -0.1445  0.0878
   40CHL1   H7A 4078   5.941   2.150   7.278 -0.0976 -1.0080 -1.8478
   40CHL1   H7B 4079   6.080   2.266   7.236  0.2668 -1.9057 -1.7786
   40CHL1    C8 4080   6.137   2.069   7.255 -0.0207  0.2361  0.4751
   40CHL1    H8 4081   6.093   1.971   7.283  2.6259 -1.3769 -0.6574
   40CHL1   C14 4082   6.151   2.077   7.104  0.4384 -0.0399  0.3502
   40CHL1   H14 4083   6.197   2.177   7.089 -2.5194  1.3399 -0.1746
   40CHL1   C15 4084   6.027   2.099   7.013 -0.3674  0.4011 -0.0143
   40CHL1  H15A 4085   5.934   2.054   7.052  0.4587  0.6500  2.4646
   40CHL1  H15B 4086   6.000   2.207   7.012 -0.1794  0.4987  1.7535
   40CHL1   C16 4087   6.074   2.053   6.876 -0.3475  0.3882 -0.2917
   40CHL1  H16A 4088   6.028   1.955   6.849 -0.2438 -0.0404  0.9783
   40CHL1  H16B 4089   6.039   2.114   6.791 -0.0685 -0.7431 -1.2389
   40CHL1   C17 4090   6.223   2.009   6.890  1.0402  0.4209 -0.9994
   40CHL1   H17 4091   6.286   2.101   6.883  0.9913  0.5704  0.3032
   40CHL1   C13 4092   6.234   1.979   7.042  0.3524  0.4881 -0.2968
   40CHL1   C18 4093   6.170   1.837   7.060 -0.1102 -0.0175 -0.3686
   40CHL1  H18A 4094   6.164   1.812   7.168  1.0624  0.8345 -0.0857
   40CHL1  H18B 4095   6.081   1.817   6.997 -1.1284  2.9258 -0.0200
   40CHL1  H18C 4096   6.247   1.764   7.027  0.6362 -1.3559  3.7931
   40CHL1   C12 4097   6.379   1.988   7.103 -0.2666 -0.1775 -0.3685
   40CHL1  H12A 4098   6.445   1.907   7.064  0.5046  0.1778  0.1725
   40CHL1  H12B 4099   6.432   2.081   7.075 -0.1130 -0.7976 -2.3371
   40CHL1   C11 4100   6.372   1.978   7.256  0.5280  0.2548 -0.3810
   40CHL1  H11A 4101   6.346   1.871   7.276  0.6934  0.3181  0.1678
   40CHL1  H11B 4102   6.473   2.003   7.295  0.9909  1.6668 -2.3318
   40CHL1    C9 4103   6.271   2.072   7.324  0.2625  0.2518 -0.0212
   40CHL1    H9 4104   6.309   2.173   7.299  1.3360  0.5275  2.4712
   40CHL1   C10 4105   6.266   2.073   7.479  0.4763  0.3283  0.5332
   40CHL1   C19 4106   6.227   1.936   7.537  0.1713  0.7261 -0.4954
   40CHL1  H19A 4107   6.128   1.900   7.502 -0.1773 -0.4393  1.5041
   40CHL1  H19B 4108   6.304   1.858   7.520  0.4287  0.9621 -0.4253
   40CHL1  H19C 4109   6.214   1.936   7.648 -1.1717 -0.3567 -0.6290
   40CHL1    C1 4110   6.406   2.114   7.546 -1.0243 -0.7205 -0.2633
   40CHL1   H1A 4111   6.480   2.037   7.514 -2.0269 -1.2184 -1.4623
   40CHL1   H1B 4112   6.439   2.206   7.494  1.2488 -2.3539 -1.9181
   40CHL1    C2 4113   6.405   2.150   7.693 -0.0016  0.5453 -1.0898
   40CHL1   H2A 4114   6.506   2.186   7.720  0.2711 -0.7773 -0.2598
   40CHL1   H2B 4115   6.400   2.056   7.752 -1.4628 -0.1420 -2.2139
   40CHL1   C20 4116   6.263   1.907   6.786  0.1999  0.9403  0.4884
   40CHL1   H20 4117   6.209   1.811   6.802  0.6280  0.6059 -0.0423
   40CHL1   C21 4118   6.414   1.883   6.796 -0.3404 -0.2146  0.2479
   40CHL1  H21A 4119   6.435   1.803   6.871 -0.5336 -1.0161 -0.5380
   40CHL1  H21B 4120   6.474   1.974   6.817 -0.3208 -0.4189  1.1206
   40CHL1  H21C 4121   6.445   1.835   6.701 -0.7529 -1.3915  0.6859
   40CHL1   C22 4122   6.229   1.949   6.643  0.1020 -0.2578  0.0597
   40CHL1  H22A 4123   6.283   1.890   6.566 -0.9314 -0.7268 -0.3101
   40CHL1  H22B 4124   6.120   1.950   6.623  0.2496  0.6970 -0.7598
   40CHL1   C23 4125   6.283   2.090   6.595 -0.3015  0.4605 -0.2694
   40CHL1  H23A 4126   6.258   2.173   6.664  2.4117 -0.2796  1.7793
   40CHL1  H23B 4127   6.393   2.077   6.582 -0.3686  0.9625 -1.5345
   40CHL1   C24 4128   6.246   2.131   6.456  0.7693  0.5828  0.4123
   40CHL1  H24A 4129   6.318   2.077   6.390  1.8086  0.1742  1.8271
   40CHL1  H24B 4130   6.141   2.099   6.439  0.3942  1.3133  1.2615
   40CHL1   C25 4131   6.269   2.277   6.414  0.1695 -0.3498  0.1419
   40CHL1   H25 4132   6.215   2.343   6.485  2.1115 -1.2602  2.6204
   40CHL1   C26 4133   6.421   2.312   6.425 -0.3684  0.7430 -0.1372
   40CHL1  H26A 4134   6.460   2.223   6.370 -0.5098  0.9272 -0.5427
   40CHL1  H26B 4135   6.460   2.407   6.383  0.1596  0.9790  0.8532
   40CHL1  H26C 4136   6.452   2.294   6.530  1.9546 -1.5586 -1.0765
   40CHL1   C27 4137   6.214   2.310   6.275  0.2046 -0.7067 -0.1613
   40CHL1  H27A 4138   6.231   2.415   6.245  3.5204 -1.6603 -2.0878
   40CHL1  H27B 4139   6.240   2.240   6.193 -1.8734 -1.7413 -0.0113
   40CHL1  H27C 4140   6.103   2.305   6.289 -0.2192 -2.3377 -3.1840
   41CHL1    C3 4141   2.101   1.413   8.013 -0.2040  0.1824  0.5174
   41CHL1    H3 4142   2.011   1.348   8.003  1.1140 -1.6281  0.0102
   41CHL1    O3 4143   2.166   1.405   8.134  0.5014 -0.2072  0.5471
   41CHL1   H3' 4144   2.103   1.446   8.194 -1.7501  0.0746 -1.8188
   41CHL1    C4 4145   2.197   1.371   7.901  0.1153  0.1340 -0.2171
   41CHL1   H4A 4146   2.297   1.414   7.921 -0.4461  1.3081  0.1539
   41CHL1   H4B 4147   2.206   1.263   7.923  0.3021  0.0174 -0.8342
   41CHL1    C5 4148   2.151   1.407   7.757 -0.8009 -0.7165 -0.2689
   41CHL1    C6 4149   2.130   1.314   7.666 -1.1604 -0.3731  0.9456
   41CHL1    H6 4150   2.150   1.209   7.691  0.1331 -0.5559 -0.6813
   41CHL1    C7 4151   2.086   1.341   7.523 -0.5367 -0.5923 -0.6440
   41CHL1   H7A 4152   2.156   1.296   7.450 -0.0879  0.9621 -1.2163
   41CHL1   H7B 4153   1.981   1.310   7.504 -0.8051  0.4140 -0.8622
   41CHL1    C8 4154   2.100   1.493   7.492  0.1288  0.0332  0.1297
   41CHL1    H8 4155   2.206   1.519   7.475 -0.0241  0.3259 -0.4039
   41CHL1   C14 4156   2.017   1.524   7.363 -0.3510  0.1821 -0.4967
   41CHL1   H14 4157   1.911   1.511   7.391  0.3456 -0.1511  2.2288
   41CHL1   C15 4158   2.040   1.440   7.244 -0.3410 -0.3080 -0.3719
   41CHL1  H15A 4159   2.146   1.409   7.232 -0.5723 -1.7437  1.0086
   41CHL1  H15B 4160   1.983   1.344   7.245  0.9005 -1.1202  2.6934
   41CHL1   C16 4161   1.992   1.526   7.128  0.5910 -0.6581 -1.1167
   41CHL1  H16A 4162   2.082   1.561   7.073  1.6664  1.4677  1.7272
   41CHL1  H16B 4163   1.909   1.488   7.064 -0.3623 -2.7641  1.2059
   41CHL1   C17 4164   1.949   1.668   7.183 -0.1297 -0.0562 -0.9231
   41CHL1   H17 4165   1.838   1.666   7.190 -0.2038  2.7905 -0.0717
   41CHL1   C13 4166   2.024   1.672   7.313  0.7967 -0.2630  0.1466
   41CHL1   C18 4167   2.167   1.726   7.296 -0.7826 -0.3051  0.9601
   41CHL1  H18A 4168   2.233   1.728   7.386 -2.0675 -1.6292  1.9931
   41CHL1  H18B 4169   2.224   1.674   7.216 -0.0718 -0.1318  1.3430
   41CHL1  H18C 4170   2.163   1.831   7.259 -0.8340 -0.1315  1.4453
   41CHL1   C12 4171   1.960   1.752   7.427 -0.4519  1.0267 -0.2401
   41CHL1  H12A 4172   1.959   1.860   7.403  0.8104  0.8919 -0.9928
   41CHL1  H12B 4173   1.854   1.717   7.429 -0.5618  1.2559 -1.3088
   41CHL1   C11 4174   2.020   1.730   7.566 -0.4966 -0.5787 -0.4905
   41CHL1  H11A 4175   2.115   1.787   7.568 -0.9430  0.1971  1.7967
   41CHL1  H11B 4176   1.955   1.768   7.647 -0.4076  0.1761 -0.7655
   41CHL1    C9 4177   2.041   1.578   7.608  0.1640  0.2142  0.0062
   41CHL1    H9 4178   1.941   1.533   7.625  0.2078  0.5325  1.2511
   41CHL1   C10 4179   2.114   1.555   7.741 -0.0826 -0.3958 -0.4728
   41CHL1   C19 4180   2.243   1.641   7.739  0.5486 -0.6848  0.0400
   41CHL1  H19A 4181   2.218   1.748   7.761 -1.4298 -1.3805  1.4930
   41CHL1  H19B 4182   2.298   1.611   7.831  0.8186  1.6718  0.7428
   41CHL1  H19C 4183   2.301   1.622   7.647  3.6159  2.9593  0.9458
   41CHL1    C1 4184   2.013   1.596   7.857 -0.1581  0.1813 -0.2394
   41CHL1   H1A 4185   2.009   1.707   7.862 -0.0332  0.1510  0.7774
   41CHL1   H1B 4186   1.910   1.562   7.835  0.2814 -0.6728 -1.0746
   41CHL1    C2 4187   2.067   1.559   7.997  0.6021  0.0695  0.4976
   41CHL1   H2A 4188   1.983   1.593   8.063 -2.9268  1.1838 -4.0427
   41CHL1   H2B 4189   2.155   1.624   8.019  2.6470 -1.4465 -2.4970
   41CHL1   C20 4190   1.974   1.774   7.082 -0.3555 -0.4763 -0.3645
   41CHL1   H20 4191   2.081   1.799   7.067  0.2433 -2.3435  0.5356
   41CHL1   C21 4192   1.903   1.905   7.119  0.8659  0.7029 -0.4122
   41CHL1  H21A 4193   1.944   1.991   7.062  0.6911  1.5913  0.7662
   41CHL1  H21B 4194   1.934   1.930   7.222 -1.2682 -1.6626  0.9311
   41CHL1  H21C 4195   1.792   1.909   7.122  0.8992  1.5835 -0.1726
   41CHL1   C22 4196   1.933   1.723   6.941  0.4200 -0.5801  0.1803
   41CHL1  H22A 4197   1.999   1.639   6.909 -0.6548 -1.6956  0.8312
   41CHL1  H22B 4198   1.828   1.687   6.938  1.0632 -2.6468  0.7659
   41CHL1   C23 4199   1.944   1.831   6.834 -0.1620  0.0255 -0.5328
   41CHL1  H23A 4200   1.879   1.917   6.864 -0.0848 -0.4031  0.9482
   41CHL1  H23B 4201   2.042   1.882   6.844 -1.4538  2.3497  1.3515
   41CHL1   C24 4202   1.927   1.775   6.692  0.0550  0.3504  0.5601
   41CHL1  H24A 4203   1.966   1.671   6.686 -0.2014  0.3149 -0.9928
   41CHL1  H24B 4204   1.825   1.763   6.651  0.6490 -1.8681 -0.4003
   41CHL1   C25 4205   1.994   1.846   6.576 -0.0799  0.0781 -0.0936
   41CHL1   H25 4206   2.103   1.863   6.585 -0.1025  1.4735 -1.9187
   41CHL1   C26 4207   1.967   1.772   6.449  0.1921  0.4748 -0.0916
   41CHL1  H26A 4208   1.859   1.781   6.424  0.5335 -0.0586 -1.9075
   41CHL1  H26B 4209   2.025   1.820   6.367  0.6274  0.4120  0.1798
   41CHL1  H26C 4210   1.990   1.664   6.454 -2.1168 -0.0547  0.2796
   41CHL1   C27 4211   1.930   1.988   6.570 -0.4255  0.1129 -0.1032
   41CHL1  H27A 4212   1.819   1.994   6.572 -0.3593  1.2660  1.6151
   41CHL1  H27B 4213   1.966   2.045   6.659 -2.1987  0.3778  0.4814
   41CHL1  H27C 4214   1.963   2.034   6.474  1.0786  0.8622  0.7357
   42CHL1    C3 4215   1.616   1.914   8.216  0.6235 -0.5202 -0.0357
   42CHL1    H3 4216   1.524   1.972   8.238  0.0684 -1.1782 -0.5453
   42CHL1    O3 4217   1.666   1.863   8.342  0.0684 -0.6451 -0.6351
   42CHL1   H3' 4218   1.758   1.848   8.321  0.3525 -1.8595  1.2017
   42CHL1    C4 4219   1.582   1.803   8.114 -0.5740 -0.1523  0.0935
   42CHL1   H4A 4220   1.668   1.735   8.098  0.5352  1.4309 -0.8591
   42CHL1   H4B 4221   1.507   1.738   8.165 -0.3321 -2.2184 -1.9777
   42CHL1    C5 4222   1.530   1.851   7.982  0.2297 -0.9013  0.3166
   42CHL1    C6 4223   1.416   1.802   7.935  0.1084 -0.7038 -0.4209
   42CHL1    H6 4224   1.365   1.717   7.982  3.8805 -2.0079  1.7748
   42CHL1    C7 4225   1.366   1.843   7.793  0.4011  0.5945 -0.3393
   42CHL1   H7A 4226   1.310   1.758   7.748 -3.4447  1.2115  2.6582
   42CHL1   H7B 4227   1.285   1.919   7.793  0.5906  0.8091 -1.5105
   42CHL1    C8 4228   1.484   1.893   7.706 -0.7607 -0.4479  0.2632
   42CHL1    H8 4229   1.560   1.817   7.680 -0.3927 -0.1087  0.3408
   42CHL1   C14 4230   1.433   1.951   7.578  0.3884  0.1762 -0.2009
   42CHL1   H14 4231   1.359   2.030   7.603  2.1359  2.4225 -1.7077
   42CHL1   C15 4232   1.351   1.853   7.490  0.3120  0.4039 -0.4247
   42CHL1  H15A 4233   1.410   1.759   7.481  0.5668  0.6259 -1.1304
   42CHL1  H15B 4234   1.247   1.843   7.528 -0.0460  0.1525 -1.4496
   42CHL1   C16 4235   1.351   1.924   7.348  0.8507 -1.3355  0.4921
   42CHL1  H16A 4236   1.393   1.841   7.287 -0.7637 -2.0354  0.2645
   42CHL1  H16B 4237   1.253   1.956   7.307  2.0564 -1.5304 -2.8483
   42CHL1   C17 4238   1.446   2.043   7.362 -0.0141 -0.7016  0.0004
   42CHL1   H17 4239   1.380   2.128   7.389  0.9438  0.7493 -1.9830
   42CHL1   C13 4240   1.541   2.019   7.481  0.0025 -0.2986  0.6277
   42CHL1   C18 4241   1.652   1.922   7.435 -0.3397  0.8190  0.4542
   42CHL1  H18A 4242   1.611   1.845   7.367  1.4321 -2.2118  2.5545
   42CHL1  H18B 4243   1.725   1.984   7.378  0.0029  0.4489  0.4901
   42CHL1  H18C 4244   1.706   1.869   7.517  0.0701  2.7331  1.4911
   42CHL1   C12 4245   1.597   2.129   7.568  0.7042 -0.6655 -0.1111
   42CHL1  H12A 4246   1.673   2.184   7.509 -1.6662  2.2465 -0.7371
   42CHL1  H12B 4247   1.514   2.201   7.584  0.5531 -1.3160  2.5753
   42CHL1   C11 4248   1.658   2.089   7.699 -0.1487 -0.0325 -0.1257
   42CHL1  H11A 4249   1.743   2.024   7.668 -0.4140 -1.3498  1.7284
   42CHL1  H11B 4250   1.698   2.176   7.755 -0.4418  0.4168 -0.6161
   42CHL1    C9 4251   1.556   2.012   7.781 -0.1405  0.8247 -1.0117
   42CHL1    H9 4252   1.473   2.085   7.796  1.2745  2.2651  0.1413
   42CHL1   C10 4253   1.617   1.960   7.913 -0.7587  0.2794 -0.2003
   42CHL1   C19 4254   1.758   1.893   7.876 -0.0236  0.2464  0.5637
   42CHL1  H19A 4255   1.750   1.842   7.777 -0.1456 -2.5061  1.8924
   42CHL1  H19B 4256   1.831   1.971   7.848 -0.1895 -0.4490 -2.1855
   42CHL1  H19C 4257   1.785   1.832   7.965 -0.9003  0.4782  1.0013
   42CHL1    C1 4258   1.636   2.067   8.020  0.2299 -0.8147  0.3971
   42CHL1   H1A 4259   1.708   2.141   7.981 -0.8048 -0.7940 -1.5745
   42CHL1   H1B 4260   1.539   2.117   8.039 -0.1460  0.4877 -3.9512
   42CHL1    C2 4261   1.701   2.026   8.151  0.6988 -0.4266  0.6333
   42CHL1   H2A 4262   1.716   2.106   8.226 -0.1638  0.6794 -0.3264
   42CHL1   H2B 4263   1.807   1.996   8.137  1.1044  1.1817  0.0020
   42CHL1   C20 4264   1.512   2.073   7.220  0.4944 -0.4927 -0.9162
   42CHL1   H20 4265   1.603   2.013   7.198  1.1820  0.2951 -0.2840
   42CHL1   C21 4266   1.572   2.210   7.230 -0.3441 -0.1881 -0.1844
   42CHL1  H21A 4267   1.500   2.294   7.221 -0.4728 -0.1296  1.1296
   42CHL1  H21B 4268   1.654   2.208   7.155  0.2359 -0.5300  0.4363
   42CHL1  H21C 4269   1.640   2.227   7.317  2.2879 -3.4436 -1.3768
   42CHL1   C22 4270   1.417   2.055   7.096 -0.3534 -0.4832 -0.5846
   42CHL1  H22A 4271   1.395   1.946   7.100  1.8488 -0.9410  1.7980
   42CHL1  H22B 4272   1.326   2.117   7.088  0.6021  0.8637 -1.5496
   42CHL1   C23 4273   1.489   2.069   6.957 -0.2105 -0.4185  0.1106
   42CHL1  H23A 4274   1.535   2.168   6.933 -1.0123 -0.3241 -1.1232
   42CHL1  H23B 4275   1.565   1.992   6.980  0.8558  0.5522 -0.0753
   42CHL1   C24 4276   1.400   2.025   6.835  0.4853 -0.3956 -0.3249
   42CHL1  H24A 4277   1.390   1.916   6.854  0.9138 -0.1990  1.1858
   42CHL1  H24B 4278   1.296   2.063   6.838  0.2169 -0.9521  3.7806
   42CHL1   C25 4279   1.479   2.039   6.699 -0.3423  0.1226 -0.4944
   42CHL1   H25 4280   1.532   2.136   6.702 -0.6120  0.2574  0.2445
   42CHL1   C26 4281   1.583   1.923   6.691 -0.7172 -0.7157  0.1601
   42CHL1  H26A 4282   1.524   1.835   6.724  1.6658 -2.4097  0.1160
   42CHL1  H26B 4283   1.625   1.916   6.589  1.1587  1.9658  0.6516
   42CHL1  H26C 4284   1.666   1.929   6.765 -0.8471 -0.6190  0.2991
   42CHL1   C27 4285   1.385   2.030   6.576 -0.3307 -0.1102 -0.2923
   42CHL1  H27A 4286   1.447   2.051   6.486  0.0928 -1.3278 -0.3070
   42CHL1  H27B 4287   1.338   1.930   6.571 -1.6397  0.4245  0.8247
   42CHL1  H27C 4288   1.312   2.114   6.577 -2.0813 -1.5936  0.7525
   43CHL1    C3 4289   6.443   0.264   8.047 -0.1270 -0.1762 -0.1858
   43CHL1    H3 4290   6.407   0.162   8.073 -0.9350  0.0680 -0.3250
   43CHL1    O3 4291   6.406   0.333   8.167  0.3338 -0.1839 -0.4946
   43CHL1   H3' 4292   6.316   0.304   8.188  0.7860 -2.6724 -1.6512
   43CHL1    C4 4293   6.591   0.262   8.016 -0.5689 -0.0353  0.0076
   43CHL1   H4A 4294   6.643   0.360   8.008 -0.8902  0.0813 -0.6944
   43CHL1   H4B 4295   6.649   0.223   8.102  1.2744  1.2025 -0.6090
   43CHL1    C5 4296   6.623   0.187   7.885  0.2319 -0.2272  0.0529
   43CHL1    C6 4297   6.697   0.081   7.881  0.1110  0.3568 -0.0362
   43CHL1    H6 4298   6.739   0.042   7.975  1.0079  0.6756 -0.2943
   43CHL1    C7 4299   6.730   0.009   7.756  0.5197 -0.4329  0.8172
   43CHL1   H7A 4300   6.837  -0.019   7.758  0.5405 -0.4996 -0.3814
   43CHL1   H7B 4301   6.669  -0.084   7.752 -2.2398  1.2965 -1.7371
   43CHL1    C8 4302   6.702   0.087   7.629 -0.1113  0.2093  0.4152
   43CHL1    H8 4303   6.780   0.165   7.628 -0.1141  0.2132  0.4971
   43CHL1   C14 4304   6.711  -0.003   7.501 -0.6086  0.0179 -0.5383
   43CHL1   H14 4305   6.637  -0.085   7.509  0.0098 -0.4580  0.5044
   43CHL1   C15 4306   6.849  -0.069   7.486 -0.6100  0.5567  0.1142
   43CHL1  H15A 4307   6.927   0.009   7.498  0.9988 -0.3663 -3.0883
   43CHL1  H15B 4308   6.865  -0.148   7.562  1.7542  0.4286 -0.4375
   43CHL1   C16 4309   6.846  -0.120   7.344  0.1315 -0.4914  0.1256
   43CHL1  H16A 4310   6.942  -0.086   7.301  0.0836  0.5972  0.8517
   43CHL1  H16B 4311   6.833  -0.229   7.323 -0.2589 -0.0922 -1.9969
   43CHL1   C17 4312   6.726  -0.041   7.272  0.1717 -0.4376 -1.0892
   43CHL1   H17 4313   6.638  -0.108   7.282 -1.7056  1.9635 -0.5544
   43CHL1   C13 4314   6.683   0.067   7.371 -0.5689 -1.0187  0.2392
   43CHL1   C18 4315   6.778   0.192   7.371 -0.0837 -0.0803 -0.0661
   43CHL1  H18A 4316   6.773   0.231   7.267 -0.3792 -0.8174 -0.3357
   43CHL1  H18B 4317   6.745   0.272   7.441  0.3905  0.5511 -0.5555
   43CHL1  H18C 4318   6.885   0.176   7.394 -0.3031 -0.0340  1.0377
   43CHL1   C12 4319   6.536   0.116   7.378 -0.3242 -0.2897 -0.4334
   43CHL1  H12A 4320   6.505   0.169   7.285  0.3144 -0.1722 -0.5832
   43CHL1  H12B 4321   6.466   0.031   7.388 -0.3797 -0.0952  1.1247
   43CHL1   C11 4322   6.515   0.203   7.504  0.6600  0.4026 -0.2158
   43CHL1  H11A 4323   6.560   0.302   7.481 -0.4005  0.4206 -2.4557
   43CHL1  H11B 4324   6.407   0.225   7.516  0.9593  1.2500  1.1926
   43CHL1    C9 4325   6.567   0.149   7.639  0.0100 -0.2298 -0.5055
   43CHL1    H9 4326   6.495   0.068   7.662  0.6079 -0.2514  1.4984
   43CHL1   C10 4327   6.547   0.246   7.759 -0.5230 -0.2306 -0.8901
   43CHL1   C19 4328   6.593   0.398   7.727  0.5445 -0.3673  0.2646
   43CHL1  H19A 4329   6.602   0.460   7.819 -0.3364 -0.1424  0.2119
   43CHL1  H19B 4330   6.686   0.401   7.667 -0.4548  1.6346 -1.3015
   43CHL1  H19C 4331   6.512   0.435   7.660  1.5131 -1.9903 -1.9339
   43CHL1    C1 4332   6.399   0.238   7.802  0.2414  0.1811  0.2203
   43CHL1   H1A 4333   6.338   0.262   7.712 -0.1617 -2.1435 -0.1916
   43CHL1   H1B 4334   6.367   0.135   7.829 -0.5471  0.6806  1.3245
   43CHL1    C2 4335   6.361   0.323   7.929  0.4255  0.1344  0.3802
   43CHL1   H2A 4336   6.254   0.307   7.955 -0.5614  1.6274 -2.4024
   43CHL1   H2B 4337   6.387   0.429   7.910 -0.1462 -0.1999 -2.6823
   43CHL1   C20 4338   6.752  -0.011   7.131  0.1173  0.3857 -0.7363
   43CHL1   H20 4339   6.845   0.049   7.127 -0.2969  1.0292 -0.8600
   43CHL1   C21 4340   6.623   0.059   7.066 -0.3773  0.3256 -0.0529
   43CHL1  H21A 4341   6.648   0.084   6.961  2.0853 -0.3222  0.3143
   43CHL1  H21B 4342   6.587   0.151   7.117 -1.1474 -1.0334  1.9988
   43CHL1  H21C 4343   6.547  -0.022   7.061  0.3884 -0.3443 -1.0855
   43CHL1   C22 4344   6.785  -0.143   7.055 -0.2910  0.5815  0.8881
   43CHL1  H22A 4345   6.881  -0.178   7.098 -0.2930  0.8086  1.0755
   43CHL1  H22B 4346   6.698  -0.211   7.066  0.4977 -0.9667 -1.7105
   43CHL1   C23 4347   6.798  -0.120   6.904 -0.3595  0.3675 -1.0801
   43CHL1  H23A 4348   6.703  -0.082   6.862  0.1496  0.6844 -1.9698
   43CHL1  H23B 4349   6.880  -0.046   6.891  0.0527  0.5793  1.9040
   43CHL1   C24 4350   6.859  -0.254   6.836  0.6815  0.4677  0.6012
   43CHL1  H24A 4351   6.945  -0.284   6.900  1.1428 -1.9561 -1.0138
   43CHL1  H24B 4352   6.784  -0.334   6.855  0.1025  1.2086  1.5240
   43CHL1   C25 4353   6.882  -0.256   6.686 -0.0363  0.1676  0.2698
   43CHL1   H25 4354   6.937  -0.351   6.665 -0.5624 -0.1390  0.2606
   43CHL1   C26 4355   6.758  -0.260   6.598  0.9256  0.2965 -0.1889
   43CHL1  H26A 4356   6.698  -0.169   6.623  0.3955  0.6169 -2.4561
   43CHL1  H26B 4357   6.788  -0.238   6.494  2.2504  2.0781  0.5270
   43CHL1  H26C 4358   6.710  -0.361   6.597 -0.3804  0.8954 -0.8268
   43CHL1   C27 4359   6.972  -0.142   6.634 -0.0768 -0.2475  0.1353
   43CHL1  H27A 4360   7.063  -0.126   6.696 -1.3746  1.6514  1.6627
   43CHL1  H27B 4361   7.016  -0.171   6.536  1.5785 -1.3875  1.1613
   43CHL1  H27C 4362   6.914  -0.047   6.631 -0.6596 -0.5757 -3.0807
   44CHL1    C3 4363   1.489   6.307   7.617 -0.0167 -0.3393 -0.0467
   44CHL1    H3 4364   1.557   6.222   7.593  0.8607  0.6861 -1.3119
   44CHL1    O3 4365   1.493   6.335   7.756 -0.1897  0.7726 -0.0319
   44CHL1   H3' 4366   1.420   6.389   7.784  0.9419  2.3837 -0.0525
   44CHL1    C4 4367   1.523   6.434   7.540  0.3596  0.1956 -0.0186
   44CHL1   H4A 4368   1.471   6.513   7.597  0.5807  0.2136  0.1584
   44CHL1   H4B 4369   1.632   6.449   7.554  0.4920  0.4846 -1.2366
   44CHL1    C5 4370   1.490   6.435   7.391  0.6266  1.0130 -0.2697
   44CHL1    C6 4371   1.577   6.468   7.297 -0.3898  0.0952 -0.0619
   44CHL1    H6 4372   1.668   6.516   7.335 -0.8295 -0.1432  1.3356
   44CHL1    C7 4373   1.544   6.482   7.149 -0.1711  0.0332 -0.6669
   44CHL1   H7A 4374   1.579   6.580   7.110 -1.1325  0.6755  0.0307
   44CHL1   H7B 4375   1.603   6.402   7.100  1.9507  1.8579 -1.2192
   44CHL1    C8 4376   1.390   6.456   7.116 -0.1911 -0.1942 -0.1489
   44CHL1    H8 4377   1.347   6.556   7.136 -2.1797 -1.1404  0.5412
   44CHL1   C14 4378   1.377   6.414   6.975  0.5439 -0.3108 -0.0663
   44CHL1   H14 4379   1.412   6.309   6.982  1.3094 -0.0690 -0.0665
   44CHL1   C15 4380   1.461   6.482   6.863 -0.7017 -0.3542 -0.1497
   44CHL1  H15A 4381   1.436   6.586   6.892 -0.1495 -0.7649  1.9555
   44CHL1  H15B 4382   1.568   6.456   6.876 -0.9619 -1.8628 -0.7676
   44CHL1   C16 4383   1.381   6.435   6.732  0.2387  0.0335  0.6453
   44CHL1  H16A 4384   1.354   6.530   6.680  2.9248 -0.2332 -1.4726
   44CHL1  H16B 4385   1.454   6.383   6.667  0.0706 -0.2230  0.6619
   44CHL1   C17 4386   1.260   6.351   6.764  0.5663 -0.2092  0.4539
   44CHL1   H17 4387   1.293   6.246   6.773  2.4909  0.2402 -0.8613
   44CHL1   C13 4388   1.230   6.397   6.913 -0.0774 -0.1334  0.6147
   44CHL1   C18 4389   1.167   6.538   6.908  0.3968 -0.8060 -0.1361
   44CHL1  H18A 4390   1.161   6.589   7.007 -3.0122 -1.5700  0.1849
   44CHL1  H18B 4391   1.208   6.607   6.831  2.4681 -1.2492  0.5114
   44CHL1  H18C 4392   1.062   6.522   6.876  0.1208 -0.2238  0.4506
   44CHL1   C12 4393   1.168   6.291   7.010  0.1586 -0.7251  0.7486
   44CHL1  H12A 4394   1.060   6.274   6.993  0.2920 -2.2572  1.2551
   44CHL1  H12B 4395   1.232   6.202   6.993  0.5557 -0.4199  0.6183
   44CHL1   C11 4396   1.177   6.335   7.164 -0.8505 -0.5644  0.8187
   44CHL1  H11A 4397   1.108   6.420   7.182  0.5403  0.6425  0.6834
   44CHL1  H11B 4398   1.123   6.254   7.217 -1.1233 -0.9613 -0.0629
   44CHL1    C9 4399   1.324   6.354   7.200 -0.0741  0.1860 -0.1857
   44CHL1    H9 4400   1.377   6.258   7.182  1.3063  0.2191  3.0352
   44CHL1   C10 4401   1.348   6.383   7.349 -0.6439 -0.8221 -0.7962
   44CHL1   C19 4402   1.252   6.491   7.406  0.4111  0.7710  0.6379
   44CHL1  H19A 4403   1.261   6.513   7.514  1.9467  1.6588  0.3529
   44CHL1  H19B 4404   1.257   6.587   7.350  0.5162  0.6470  0.4327
   44CHL1  H19C 4405   1.149   6.449   7.399  0.1746  1.5808 -2.7866
   44CHL1    C1 4406   1.313   6.256   7.425  0.2511  0.5877 -0.2171
   44CHL1   H1A 4407   1.203   6.247   7.410 -0.0354  0.5830  1.6649
   44CHL1   H1B 4408   1.364   6.165   7.388 -1.1948  0.1778 -1.2927
   44CHL1    C2 4409   1.343   6.258   7.579 -0.4975  0.2623  0.1434
   44CHL1   H2A 4410   1.327   6.157   7.621  1.1792  0.1926  0.6457
   44CHL1   H2B 4411   1.269   6.323   7.632  0.4528 -0.8037  2.9196
   44CHL1   C20 4412   1.147   6.363   6.664  0.1605 -0.5697  0.3056
   44CHL1   H20 4413   1.101   6.463   6.677  1.7078  0.0779  1.0039
   44CHL1   C21 4414   1.042   6.261   6.695  0.2409  0.2987  0.0905
   44CHL1  H21A 4415   1.081   6.157   6.703 -1.8006 -0.5122  0.2732
   44CHL1  H21B 4416   0.982   6.258   6.601  1.2128 -0.0768 -0.5288
   44CHL1  H21C 4417   0.981   6.285   6.785  1.9517  0.2982  1.2871
   44CHL1   C22 4418   1.199   6.346   6.521 -0.5445  0.0235  0.3514
   44CHL1  H22A 4419   1.298   6.395   6.506 -0.8431  0.1276 -1.6093
   44CHL1  H22B 4420   1.239   6.245   6.498  2.5449  1.0444  0.7767
   44CHL1   C23 4421   1.117   6.410   6.404 -0.1535  0.2710 -0.9633
   44CHL1  H23A 4422   1.025   6.348   6.401  0.5949 -1.1595  2.1514
   44CHL1  H23B 4423   1.106   6.519   6.422  3.6507  0.5267  0.9133
   44CHL1   C24 4424   1.186   6.404   6.264  0.2719  0.3546  1.1233
   44CHL1  H24A 4425   1.256   6.490   6.256  2.1293 -1.2524 -1.0776
   44CHL1  H24B 4426   1.244   6.310   6.260 -1.1098 -0.4677 -0.6481
   44CHL1   C25 4427   1.094   6.402   6.140 -0.2349 -1.6328  0.5929
   44CHL1   H25 4428   1.012   6.329   6.154 -3.6959  1.8201  0.1531
   44CHL1   C26 4429   1.021   6.541   6.124 -0.4159 -0.1697 -0.4751
   44CHL1  H26A 4430   0.972   6.552   6.026  0.6985 -1.1235 -1.1669
   44CHL1  H26B 4431   0.949   6.559   6.207  0.1103  2.0650 -0.4529
   44CHL1  H26C 4432   1.096   6.623   6.129  1.8938 -2.0487 -1.9595
   44CHL1   C27 4433   1.168   6.370   6.008 -0.2680 -0.4990 -0.4665
   44CHL1  H27A 4434   1.094   6.326   5.938 -1.6741  0.5011  0.3472
   44CHL1  H27B 4435   1.226   6.449   5.956 -0.0526 -2.6484 -3.7543
   44CHL1  H27C 4436   1.247   6.293   6.023  0.3795  0.3293  0.4464
   45CHL1    C3 4437   6.052   5.164   7.937 -0.0583 -0.3922  0.2338
   45CHL1    H3 4438   6.117   5.080   7.905  0.9593 -0.7018  2.8321
   45CHL1    O3 4439   6.076   5.163   8.077 -0.0577  0.4650  0.0536
   45CHL1   H3' 4440   6.068   5.255   8.104 -1.9398  0.0949  0.8980
   45CHL1    C4 4441   6.099   5.295   7.872 -0.3500  0.7437 -0.4054
   45CHL1   H4A 4442   6.028   5.364   7.923 -1.6394 -1.3055  0.6681
   45CHL1   H4B 4443   6.199   5.328   7.905 -0.3094  1.1554 -0.9192
   45CHL1    C5 4444   6.077   5.305   7.726 -0.1242 -0.1413  0.3278
   45CHL1    C6 4445   6.175   5.331   7.640  0.6949 -0.7955 -0.2134
   45CHL1    H6 4446   6.277   5.353   7.676  1.3466 -2.1101 -1.1453
   45CHL1    C7 4447   6.165   5.330   7.490  0.0315 -0.5329 -0.3492
   45CHL1   H7A 4448   6.201   5.429   7.455 -2.2803  0.0964 -1.1087
   45CHL1   H7B 4449   6.226   5.252   7.440  0.3685  0.9123 -2.2822
   45CHL1    C8 4450   6.026   5.322   7.431 -0.1217 -0.1932  0.0100
   45CHL1    H8 4451   5.985   5.424   7.443  0.2426  0.0650 -0.9032
   45CHL1   C14 4452   6.023   5.290   7.280  0.1622  0.3897  0.4946
   45CHL1   H14 4453   6.070   5.189   7.274 -0.2208  0.2914 -2.2856
   45CHL1   C15 4454   6.093   5.384   7.191  0.6692 -0.2158 -0.3678
   45CHL1  H15A 4455   6.058   5.489   7.200  1.5877  0.1494 -0.9867
   45CHL1  H15B 4456   6.203   5.376   7.205  0.4445  0.2216  2.1701
   45CHL1   C16 4457   6.046   5.340   7.046 -0.5358 -0.2881  0.0691
   45CHL1  H16A 4458   6.032   5.431   6.985 -0.6884 -1.1558 -1.2180
   45CHL1  H16B 4459   6.135   5.289   7.003  0.8621  1.7942  0.3681
   45CHL1   C17 4460   5.923   5.241   7.067  0.3894  0.1296 -0.2869
   45CHL1   H17 4461   5.964   5.138   7.066 -1.1622 -0.5209 -0.2496
   45CHL1   C13 4462   5.884   5.271   7.217  0.0512  0.6337  0.3920
   45CHL1   C18 4463   5.799   5.406   7.210  0.2149  0.2031  0.3560
   45CHL1  H18A 4464   5.829   5.483   7.135  1.3575  0.4381  1.0327
   45CHL1  H18B 4465   5.694   5.380   7.184 -0.3624  1.3235  1.4807
   45CHL1  H18C 4466   5.806   5.450   7.312 -0.3675  1.3838 -0.0935
   45CHL1   C12 4467   5.807   5.168   7.293  1.0063  0.6164  0.7610
   45CHL1  H12A 4468   5.699   5.165   7.267  1.1974 -0.1036  0.0165
   45CHL1  H12B 4469   5.850   5.066   7.284 -0.9001 -0.0584 -1.9555
   45CHL1   C11 4470   5.794   5.210   7.442 -0.4645  0.2226  0.0810
   45CHL1  H11A 4471   5.740   5.307   7.447  1.2519  1.3511 -1.8084
   45CHL1  H11B 4472   5.735   5.133   7.497 -0.3320 -0.8055 -1.1818
   45CHL1    C9 4473   5.937   5.224   7.510  0.0927  0.6301 -0.1588
   45CHL1    H9 4474   5.977   5.122   7.490  0.1499  0.3289  1.3513
   45CHL1   C10 4475   5.939   5.253   7.665 -0.1572  0.1822 -0.5385
   45CHL1   C19 4476   5.834   5.370   7.695  1.5324 -0.5740 -0.1675
   45CHL1  H19A 4477   5.835   5.401   7.802  1.3089  1.1305 -0.6352
   45CHL1  H19B 4478   5.852   5.464   7.638 -0.4810 -0.4204 -0.6267
   45CHL1  H19C 4479   5.733   5.336   7.665  1.3412  1.5201 -2.1500
   45CHL1    C1 4480   5.885   5.128   7.745 -0.8077 -0.5691 -0.0371
   45CHL1   H1A 4481   5.778   5.107   7.722 -1.7474  1.8806  1.6492
   45CHL1   H1B 4482   5.950   5.042   7.719 -1.8855 -1.3805 -0.1271
   45CHL1    C2 4483   5.906   5.142   7.897  0.1575  0.0988 -0.4036
   45CHL1   H2A 4484   5.875   5.044   7.938 -1.0746  0.5374 -0.2263
   45CHL1   H2B 4485   5.839   5.209   7.956 -2.9344 -1.9920 -1.3074
   45CHL1   C20 4486   5.823   5.255   6.955  0.4775  0.4290 -0.6908
   45CHL1   H20 4487   5.796   5.363   6.960  0.6830  0.4288  1.3846
   45CHL1   C21 4488   5.691   5.173   6.984 -0.1462 -0.5365 -0.1256
   45CHL1  H21A 4489   5.712   5.065   6.997  0.9510 -0.0883  2.5937
   45CHL1  H21B 4490   5.615   5.190   6.904  1.0650  1.5589 -0.9154
   45CHL1  H21C 4491   5.644   5.219   7.074 -0.3678  1.6373 -1.3021
   45CHL1   C22 4492   5.885   5.219   6.820  0.9670 -0.3867  0.5578
   45CHL1  H22A 4493   5.982   5.270   6.799  1.0949 -0.5293  0.8052
   45CHL1  H22B 4494   5.899   5.110   6.807  0.2834 -0.3375 -0.8150
   45CHL1   C23 4495   5.787   5.261   6.703 -0.0512 -0.2588  0.2854
   45CHL1  H23A 4496   5.684   5.224   6.719 -0.8636  1.3536 -0.9528
   45CHL1  H23B 4497   5.776   5.372   6.702  1.1077 -0.1249 -1.3015
   45CHL1   C24 4498   5.852   5.226   6.567  0.1174 -0.1004 -0.0849
   45CHL1  H24A 4499   5.927   5.304   6.543  1.8945 -1.1792  1.6209
   45CHL1  H24B 4500   5.908   5.131   6.582 -1.6078 -1.0704  0.4522
   45CHL1   C25 4501   5.750   5.219   6.458 -0.2921  0.2614 -0.3011
   45CHL1   H25 4502   5.690   5.313   6.456  0.9842  1.1183  0.5249
   45CHL1   C26 4503   5.819   5.192   6.321  0.2759  0.4317  0.4238
   45CHL1  H26A 4504   5.867   5.092   6.327 -2.0589 -0.9438 -1.7452
   45CHL1  H26B 4505   5.733   5.194   6.250 -0.1006 -1.1738  0.7940
   45CHL1  H26C 4506   5.894   5.266   6.287 -0.3419  0.2469 -1.4729
   45CHL1   C27 4507   5.645   5.104   6.496  0.4871 -0.2280  0.3145
   45CHL1  H27A 4508   5.699   5.010   6.521  1.5202 -0.7118 -3.1571
   45CHL1  H27B 4509   5.586   5.125   6.587  1.3020 -1.2226  1.0975
   45CHL1  H27C 4510   5.570   5.078   6.417  1.7213  0.0612 -0.9999
   46CHL1    C3 4511   3.021   1.365   8.190  0.1702  0.0144  0.4428
   46CHL1    H3 4512   3.131   1.356   8.175  0.6073  0.3743  2.9750
   46CHL1    O3 4513   2.981   1.324   8.318  0.6009 -0.5794  0.1544
   46CHL1   H3' 4514   2.971   1.403   8.372 -2.9063 -0.1524 -0.8813
   46CHL1    C4 4515   2.983   1.513   8.173 -0.7090 -0.3972  0.0839
   46CHL1   H4A 4516   2.876   1.537   8.191 -0.8756 -1.9075  1.2431
   46CHL1   H4B 4517   3.048   1.576   8.237 -0.5281 -0.1402 -0.3413
   46CHL1    C5 4518   3.021   1.552   8.025  0.1930 -0.4839  0.6476
   46CHL1    C6 4519   3.096   1.664   8.002  0.5012  0.5622 -0.1509
   46CHL1    H6 4520   3.137   1.717   8.089 -0.8373  2.8193 -0.7973
   46CHL1    C7 4521   3.136   1.716   7.870  0.0492 -0.0499  0.9681
   46CHL1   H7A 4522   3.138   1.827   7.865  0.0353  0.0053  2.0171
   46CHL1   H7B 4523   3.239   1.677   7.858 -0.2010 -0.8357  1.2882
   46CHL1    C8 4524   3.051   1.658   7.762  0.2649 -0.2828  0.2381
   46CHL1    H8 4525   2.953   1.711   7.767  0.1908 -0.0203 -2.3436
   46CHL1   C14 4526   3.113   1.688   7.623  0.5033  0.0837 -0.2051
   46CHL1   H14 4527   3.214   1.640   7.628  1.3912  1.7987 -0.6783
   46CHL1   C15 4528   3.144   1.838   7.573 -0.8304  0.7814 -0.1253
   46CHL1  H15A 4529   3.058   1.892   7.617 -0.3918  1.0969  0.3625
   46CHL1  H15B 4530   3.230   1.892   7.617 -1.0478  0.1898  1.0514
   46CHL1   C16 4531   3.137   1.838   7.416  0.1391 -0.5575 -0.6707
   46CHL1  H16A 4532   3.068   1.920   7.388 -0.6804 -0.7190  0.7862
   46CHL1  H16B 4533   3.236   1.860   7.372  0.1896  1.5941  0.4045
   46CHL1   C17 4534   3.102   1.690   7.381 -0.7269  0.2495  0.3643
   46CHL1   H17 4535   3.193   1.627   7.376 -0.5954  0.4813 -0.1980
   46CHL1   C13 4536   3.031   1.630   7.505 -0.7446  0.3876 -0.1190
   46CHL1   C18 4537   2.879   1.674   7.505 -0.4578  0.0636 -0.0727
   46CHL1  H18A 4538   2.823   1.645   7.597 -0.0044  0.4061  0.3206
   46CHL1  H18B 4539   2.870   1.780   7.474 -1.1331 -0.5329 -2.0154
   46CHL1  H18C 4540   2.838   1.608   7.426 -0.4279 -0.5469  0.4160
   46CHL1   C12 4541   3.045   1.477   7.525  0.2418 -0.0407  0.4424
   46CHL1  H12A 4542   3.008   1.421   7.437  1.0169 -0.5985  0.4558
   46CHL1  H12B 4543   3.156   1.470   7.525  0.2808  0.2875 -0.9415
   46CHL1   C11 4544   2.978   1.433   7.655  0.7192 -0.1216 -0.5180
   46CHL1  H11A 4545   2.871   1.455   7.635  0.2481  0.2947  2.0183
   46CHL1  H11B 4546   2.983   1.325   7.679  0.9321  0.3356  1.7930
   46CHL1    C9 4547   3.035   1.507   7.779 -0.4909  0.2957 -0.2172
   46CHL1    H9 4548   3.135   1.458   7.784 -1.0256 -0.7760  0.4904
   46CHL1   C10 4549   2.971   1.467   7.913 -0.3319 -0.1695  0.0743
   46CHL1   C19 4550   2.820   1.493   7.896 -0.4956  0.0432  0.0127
   46CHL1  H19A 4551   2.771   1.416   7.832  0.9406  0.3841 -1.5911
   46CHL1  H19B 4552   2.758   1.487   7.988 -0.5987 -0.4252 -0.0819
   46CHL1  H19C 4553   2.808   1.594   7.852 -3.1479 -1.1048 -2.2573
   46CHL1    C1 4554   3.004   1.317   7.952  0.3345 -0.7925 -0.3648
   46CHL1   H1A 4555   2.957   1.261   7.868  0.6292 -0.9436 -0.4330
   46CHL1   H1B 4556   3.114   1.304   7.945  0.6299  1.8291 -1.6054
   46CHL1    C2 4557   2.949   1.278   8.086 -0.5017  0.2836 -0.5339
   46CHL1   H2A 4558   2.979   1.175   8.115  3.3959  1.2450 -0.5944
   46CHL1   H2B 4559   2.838   1.284   8.084 -0.5850 -1.0596 -1.0843
   46CHL1   C20 4560   3.034   1.675   7.244  0.6688  0.4445 -0.1735
   46CHL1   H20 4561   2.931   1.716   7.256  1.0731  0.6432  4.6312
   46CHL1   C21 4562   3.017   1.529   7.194  0.3745  0.0896  0.1301
   46CHL1  H21A 4563   2.944   1.483   7.263  1.2206  0.7650  1.5359
   46CHL1  H21B 4564   3.116   1.479   7.187  0.9907  1.3047 -0.2476
   46CHL1  H21C 4565   2.982   1.521   7.089  1.3545 -1.1883 -0.1203
   46CHL1   C22 4566   3.102   1.759   7.128  0.0211 -0.4790 -0.1406
   46CHL1  H22A 4567   3.093   1.865   7.161 -0.9031 -0.5534 -0.1246
   46CHL1  H22B 4568   3.209   1.729   7.119  0.4465  1.2321 -1.2041
   46CHL1   C23 4569   3.035   1.764   6.998  0.3975 -0.3696 -0.0181
   46CHL1  H23A 4570   3.073   1.679   6.937 -1.3247 -1.3371  0.2013
   46CHL1  H23B 4571   2.924   1.758   7.001  0.4754 -1.5627  1.0733
   46CHL1   C24 4572   3.070   1.886   6.902  0.2603  0.4433  0.1304
   46CHL1  H24A 4573   3.024   1.883   6.801  1.2153  1.2269 -0.3486
   46CHL1  H24B 4574   3.032   1.974   6.959  0.4553 -0.7398  2.2046
   46CHL1   C25 4575   3.217   1.922   6.875  0.1236 -0.2651 -0.2575
   46CHL1   H25 4576   3.265   1.943   6.972 -0.4507 -0.9884  0.1964
   46CHL1   C26 4577   3.297   1.812   6.807  0.0772  0.5666  0.3689
   46CHL1  H26A 4578   3.404   1.839   6.794  0.2814 -0.1853  0.4323
   46CHL1  H26B 4579   3.306   1.725   6.876 -0.4471 -0.5422 -0.8922
   46CHL1  H26C 4580   3.246   1.781   6.712 -0.4636 -0.9510  1.1156
   46CHL1   C27 4581   3.223   2.055   6.793 -0.2388 -0.1385 -0.2319
   46CHL1  H27A 4582   3.309   2.070   6.725  1.3789 -0.2593  1.6997
   46CHL1  H27B 4583   3.135   2.066   6.726  0.2432  1.0460 -0.6934
   46CHL1  H27C 4584   3.221   2.134   6.871  1.8499  1.1612 -1.4005
   47CHL1    C3 4585   4.444   6.336   7.812  0.6881 -0.3457  0.5064
   47CHL1    H3 4586   4.530   6.278   7.773  0.6242 -1.4774  1.9412
   47CHL1    O3 4587   4.433   6.317   7.955 -0.0151 -0.0504 -0.0863
   47CHL1   H3' 4588   4.427   6.224   7.978  3.8947 -0.7861 -1.3276
   47CHL1    C4 4589   4.474   6.491   7.775  0.1430  0.4119  0.1073
   47CHL1   H4A 4590   4.393   6.555   7.815 -0.3631 -0.7880  1.0529
   47CHL1   H4B 4591   4.567   6.517   7.829 -1.6168  0.8546  3.1256
   47CHL1    C5 4592   4.478   6.511   7.626  0.6614 -0.7028 -0.8980
   47CHL1    C6 4593   4.585   6.547   7.560 -0.9174 -0.5295 -0.4350
   47CHL1    H6 4594   4.677   6.571   7.616  0.5634 -3.8880 -1.1873
   47CHL1    C7 4595   4.589   6.583   7.413  0.2706  0.0761 -0.0794
   47CHL1   H7A 4596   4.631   6.684   7.398  1.0866  0.2043  2.5989
   47CHL1   H7B 4597   4.638   6.496   7.364  0.0282 -0.0231 -0.1490
   47CHL1    C8 4598   4.449   6.600   7.352  0.6647 -0.0642  0.2206
   47CHL1    H8 4599   4.408   6.696   7.389  0.2412  0.6768 -1.9974
   47CHL1   C14 4600   4.473   6.595   7.198 -0.0286 -0.7221  0.0458
   47CHL1   H14 4601   4.504   6.491   7.172  0.5478 -0.6871  0.5609
   47CHL1   C15 4602   4.573   6.690   7.130  0.8988 -0.0662  1.0843
   47CHL1  H15A 4603   4.567   6.794   7.169  2.6939  0.9054 -1.0830
   47CHL1  H15B 4604   4.677   6.654   7.143  1.2792  0.4661 -0.3810
   47CHL1   C16 4605   4.526   6.689   6.986 -0.1729 -0.3616 -0.9654
   47CHL1  H16A 4606   4.514   6.795   6.952 -0.2272  0.0486  0.2906
   47CHL1  H16B 4607   4.599   6.644   6.915 -0.6525 -0.0021 -1.7123
   47CHL1   C17 4608   4.391   6.610   6.979  0.2117  0.5451 -0.5671
   47CHL1   H17 4609   4.427   6.507   6.958 -0.7325  0.2869 -0.9766
   47CHL1   C13 4610   4.338   6.607   7.124 -0.5885 -1.5484  0.3027
   47CHL1   C18 4611   4.264   6.740   7.157 -0.0494 -0.5569 -0.1100
   47CHL1  H18A 4612   4.251   6.751   7.267 -0.7842 -1.1024 -0.1384
   47CHL1  H18B 4613   4.323   6.827   7.120 -0.5636 -0.8250 -1.6198
   47CHL1  H18C 4614   4.166   6.736   7.106  0.2841  1.0040 -0.9304
   47CHL1   C12 4615   4.253   6.481   7.167  0.2745  0.4360 -0.7759
   47CHL1  H12A 4616   4.153   6.469   7.119  0.6861  2.4572 -2.2588
   47CHL1  H12B 4617   4.316   6.393   7.141 -0.5813 -0.2087 -0.7227
   47CHL1   C11 4618   4.230   6.472   7.319 -0.5329 -0.2234  0.3778
   47CHL1  H11A 4619   4.154   6.547   7.350 -1.9303 -1.4061 -0.0570
   47CHL1  H11B 4620   4.178   6.379   7.350  1.5533 -0.9572  1.9370
   47CHL1    C9 4621   4.362   6.490   7.398 -0.1926 -0.3757  0.2752
   47CHL1    H9 4622   4.419   6.398   7.374  0.8832  0.6755 -1.3639
   47CHL1   C10 4623   4.343   6.476   7.552 -0.2908  0.5081 -0.5195
   47CHL1   C19 4624   4.237   6.570   7.600 -0.6072  0.1690  0.5602
   47CHL1  H19A 4625   4.134   6.552   7.562 -1.2852 -0.6604  2.6432
   47CHL1  H19B 4626   4.236   6.561   7.711  2.7873  0.6400  0.7301
   47CHL1  H19C 4627   4.261   6.672   7.563 -0.8722  0.0716  0.1109
   47CHL1    C1 4628   4.303   6.327   7.589  0.0375 -0.2954  0.5263
   47CHL1   H1A 4629   4.199   6.309   7.555 -0.7229  0.4216  2.3539
   47CHL1   H1B 4630   4.382   6.260   7.548  1.9456  2.4534 -0.5723
   47CHL1    C2 4631   4.314   6.291   7.741  0.5835  0.2536  0.5936
   47CHL1   H2A 4632   4.316   6.180   7.754 -3.1046 -0.1735 -1.2471
   47CHL1   H2B 4633   4.228   6.330   7.800  0.6490 -0.1507  0.9605
   47CHL1   C20 4634   4.288   6.659   6.875 -0.5348  0.4414  0.1368
   47CHL1   H20 4635   4.247   6.756   6.911 -1.8905 -1.3776  4.0995
   47CHL1   C21 4636   4.159   6.580   6.872 -0.2926  0.4712  0.4477
   47CHL1  H21A 4637   4.100   6.597   6.965 -2.6020  0.8738 -1.0068
   47CHL1  H21B 4638   4.197   6.476   6.869  0.7900  0.8797 -2.0902
   47CHL1  H21C 4639   4.091   6.611   6.789 -1.5293 -0.4813  1.0763
   47CHL1   C22 4640   4.345   6.670   6.728 -0.0989  0.5942 -0.7758
   47CHL1  H22A 4641   4.443   6.723   6.723 -0.0188  0.6185  0.7581
   47CHL1  H22B 4642   4.376   6.565   6.709  1.7632  0.3868  2.5865
   47CHL1   C23 4643   4.250   6.740   6.626 -0.9425  0.2912 -0.1037
   47CHL1  H23A 4644   4.188   6.658   6.584  1.9373 -1.8640 -0.4822
   47CHL1  H23B 4645   4.181   6.811   6.677  0.7781  0.9176  1.4705
   47CHL1   C24 4646   4.332   6.816   6.513  0.1915  0.3321 -0.1347
   47CHL1  H24A 4647   4.380   6.902   6.564  0.6493 -0.8627  1.5239
   47CHL1  H24B 4648   4.420   6.758   6.477  1.3327 -1.1467  4.4078
   47CHL1   C25 4649   4.237   6.862   6.399 -1.0822  0.7127  0.1109
   47CHL1   H25 4650   4.181   6.771   6.366 -1.4973  0.3439  1.7553
   47CHL1   C26 4651   4.147   6.971   6.448 -0.1694 -0.0489 -0.2373
   47CHL1  H26A 4652   4.212   7.047   6.497  2.4936 -0.7308 -2.4582
   47CHL1  H26B 4653   4.096   7.023   6.364 -0.5782 -0.3422 -0.1705
   47CHL1  H26C 4654   4.068   6.932   6.515  1.1488 -1.9264  0.2932
   47CHL1   C27 4655   4.344   6.905   6.291 -0.9242  0.2847  1.0897
   47CHL1  H27A 4656   4.392   7.002   6.318  0.4115  0.2993 -1.1097
   47CHL1  H27B 4657   4.419   6.824   6.281  0.6694  1.7014  1.1586
   47CHL1  H27C 4658   4.288   6.927   6.198  0.6493 -3.8216 -1.1077
   48CHL1    C3 4659   1.441   1.263   7.985  0.1718 -0.2578 -0.1672
   48CHL1    H3 4660   1.337   1.270   7.947  1.2036  1.7655 -2.9270
   48CHL1    O3 4661   1.450   1.232   8.126  0.1440  0.0990 -0.2615
   48CHL1   H3' 4662   1.407   1.146   8.127 -1.5591  0.9058 -0.9397
   48CHL1    C4 4663   1.532   1.163   7.912 -0.6696 -0.6609  0.2120
   48CHL1   H4A 4664   1.631   1.182   7.959 -0.4388 -1.0140 -0.1257
   48CHL1   H4B 4665   1.517   1.056   7.937  2.5584 -1.1671  0.4337
   48CHL1    C5 4666   1.517   1.198   7.763  0.3136 -0.0265  0.2664
   48CHL1    C6 4667   1.458   1.109   7.681 -0.1423 -0.0598  0.0445
   48CHL1    H6 4668   1.419   1.014   7.721 -1.6673 -0.3892 -2.0707
   48CHL1    C7 4669   1.440   1.132   7.530  0.1738 -0.1838 -1.0947
   48CHL1   H7A 4670   1.476   1.038   7.481  1.4929 -0.5010  0.3808
   48CHL1   H7B 4671   1.334   1.155   7.510  0.4264  2.2968  0.0832
   48CHL1    C8 4672   1.518   1.256   7.481 -0.4740 -0.5500  0.0148
   48CHL1    H8 4673   1.626   1.232   7.478  0.0308  1.5989 -0.7918
   48CHL1   C14 4674   1.460   1.292   7.349 -0.1306  0.3439 -0.0882
   48CHL1   H14 4675   1.358   1.330   7.373  0.3451  1.4227  0.2774
   48CHL1   C15 4676   1.440   1.173   7.252 -0.2990  0.1382  0.3509
   48CHL1  H15A 4677   1.529   1.110   7.232  1.6859  2.0815  2.3446
   48CHL1  H15B 4678   1.356   1.106   7.279 -1.8744  1.3742 -1.2802
   48CHL1   C16 4679   1.420   1.237   7.114  1.1977  0.1955  0.4270
   48CHL1  H16A 4680   1.498   1.213   7.039 -0.9255  2.7159 -2.8754
   48CHL1  H16B 4681   1.318   1.221   7.075  0.7893  1.3259  0.9769
   48CHL1   C17 4682   1.443   1.394   7.136 -0.8706 -0.1496  0.4113
   48CHL1   H17 4683   1.349   1.447   7.160 -0.3508  0.1302  1.9798
   48CHL1   C13 4684   1.528   1.402   7.272 -0.0046 -0.1287  0.0078
   48CHL1   C18 4685   1.678   1.362   7.250 -0.9138  0.5954 -0.4596
   48CHL1  H18A 4686   1.737   1.454   7.228  0.6704 -0.3980 -0.5622
   48CHL1  H18B 4687   1.737   1.318   7.334 -2.8968  0.8542  1.1570
   48CHL1  H18C 4688   1.700   1.293   7.166 -0.9380  0.3071 -0.2326
   48CHL1   C12 4689   1.516   1.530   7.357  0.1917 -0.0928 -0.3310
   48CHL1  H12A 4690   1.570   1.615   7.309  2.4180 -0.9760  0.4903
   48CHL1  H12B 4691   1.407   1.552   7.362  0.3229  0.4883  0.1098
   48CHL1   C11 4692   1.562   1.502   7.503  0.1688  0.2557  0.1042
   48CHL1  H11A 4693   1.673   1.491   7.504  0.1237 -0.4343 -0.8266
   48CHL1  H11B 4694   1.535   1.589   7.567  1.8821  0.1907  0.9660
   48CHL1    C9 4695   1.500   1.376   7.572  0.0254  0.6478  0.2661
   48CHL1    H9 4696   1.389   1.387   7.575 -0.6434 -4.2990  1.7350
   48CHL1   C10 4697   1.559   1.341   7.714 -0.2536  0.4945  0.4896
   48CHL1   C19 4698   1.714   1.337   7.719  0.3698 -0.1819 -0.0950
   48CHL1  H19A 4699   1.759   1.258   7.655 -0.5263  0.2815 -1.3323
   48CHL1  H19B 4700   1.747   1.438   7.687 -0.6884 -0.0435 -0.7939
   48CHL1  H19C 4701   1.757   1.322   7.820  2.9359 -0.2986 -1.1432
   48CHL1    C1 4702   1.495   1.443   7.810 -0.3060  0.9335 -0.0956
   48CHL1   H1A 4703   1.545   1.540   7.789  1.5515  0.5893  2.3411
   48CHL1   H1B 4704   1.388   1.457   7.782 -0.0372  2.1372 -0.5780
   48CHL1    C2 4705   1.499   1.405   7.958  0.1236  0.7734 -0.0287
   48CHL1   H2A 4706   1.435   1.474   8.018 -0.4238 -0.2538  0.5885
   48CHL1   H2B 4707   1.607   1.417   7.983  0.4309  0.1754 -1.0142
   48CHL1   C20 4708   1.511   1.465   7.016  0.0730  0.2846 -1.2387
   48CHL1   H20 4709   1.617   1.430   7.017  0.2358  0.7345  0.4421
   48CHL1   C21 4710   1.507   1.622   7.042  0.8727  0.2582  0.1546
   48CHL1  H21A 4711   1.555   1.686   6.964  3.5400 -0.5096  1.0964
   48CHL1  H21B 4712   1.400   1.651   7.054  0.3488 -1.2831 -0.5657
   48CHL1  H21C 4713   1.561   1.663   7.130 -1.4898  3.4876  0.3153
   48CHL1   C22 4714   1.444   1.433   6.885  0.2213  0.1509  0.5061
   48CHL1  H22A 4715   1.438   1.323   6.867 -1.3549  0.3412 -0.3446
   48CHL1  H22B 4716   1.336   1.460   6.890  0.4902  1.6574 -0.9277
   48CHL1   C23 4717   1.498   1.489   6.758  0.3974 -0.7138 -0.2770
   48CHL1  H23A 4718   1.505   1.600   6.764  0.8634 -0.7965  3.1799
   48CHL1  H23B 4719   1.606   1.464   6.758  0.9360  1.4069 -0.3271
   48CHL1   C24 4720   1.440   1.443   6.621 -0.3623  0.3837  0.2285
   48CHL1  H24A 4721   1.431   1.333   6.631  0.7792  0.4211  2.2917
   48CHL1  H24B 4722   1.347   1.499   6.597  0.4802  1.2831 -1.0767
   48CHL1   C25 4723   1.534   1.461   6.498 -0.0261  0.1761 -0.0295
   48CHL1   H25 4724   1.627   1.405   6.517  0.4609  0.7598 -0.6311
   48CHL1   C26 4725   1.476   1.399   6.368  0.0667  0.2491  0.3962
   48CHL1  H26A 4726   1.373   1.439   6.357  0.7614  2.1142  0.2482
   48CHL1  H26B 4727   1.536   1.424   6.277 -0.1661 -0.0246  0.1668
   48CHL1  H26C 4728   1.468   1.289   6.381  2.2621 -0.3752 -2.4937
   48CHL1   C27 4729   1.559   1.613   6.481  0.1223 -0.4137  0.2762
   48CHL1  H27A 4730   1.614   1.617   6.384 -0.3204  1.4106  0.0609
   48CHL1  H27B 4731   1.459   1.660   6.470 -1.1517 -3.2848 -1.8845
   48CHL1  H27C 4732   1.622   1.662   6.558 -0.0211 -0.5492  0.4806
   49CHL1    C3 4733   5.255   2.158   4.776 -0.7025 -0.0796  0.0656
   49CHL1    H3 4734   5.357   2.116   4.780  0.0506  1.2042 -2.9547
   49CHL1    O3 4735   5.213   2.097   4.658 -0.1713  0.2772 -0.3813
   49CHL1   H3' 4736   5.141   2.036   4.676  1.2331 -1.0705  0.8902
   49CHL1    C4 4737   5.168   2.138   4.905  0.7141  0.6989 -0.2564
   49CHL1   H4A 4738   5.068   2.182   4.883  0.2402  0.5609  1.4296
   49CHL1   H4B 4739   5.153   2.030   4.928  1.4001  0.6760  0.0955
   49CHL1    C5 4740   5.225   2.216   5.016 -0.5555  0.3469  0.3437
   49CHL1    C6 4741   5.256   2.158   5.135 -0.0863  1.1166 -0.0040
   49CHL1    H6 4742   5.236   2.051   5.148 -0.4528  1.2616  0.6784
   49CHL1    C7 4743   5.304   2.228   5.259  0.1323  0.5177  0.1293
   49CHL1   H7A 4744   5.254   2.184   5.347  1.9662 -3.5006 -0.6166
   49CHL1   H7B 4745   5.412   2.221   5.283  0.6018  2.2380 -1.1760
   49CHL1    C8 4746   5.284   2.381   5.240  0.2548 -0.3642  0.6348
   49CHL1    H8 4747   5.176   2.408   5.248 -0.1007 -1.2596 -0.7957
   49CHL1   C14 4748   5.356   2.456   5.349 -0.2488 -0.0335 -0.6974
   49CHL1   H14 4749   5.463   2.424   5.346 -0.7064 -1.9686  1.3151
   49CHL1   C15 4750   5.328   2.412   5.492  0.2732  0.1619  0.1318
   49CHL1  H15A 4751   5.218   2.404   5.492  0.1956  0.3760 -2.0777
   49CHL1  H15B 4752   5.366   2.312   5.521 -0.5464  0.2675  1.6632
   49CHL1   C16 4753   5.375   2.532   5.573 -0.0816  0.1305  0.3105
   49CHL1  H16A 4754   5.294   2.552   5.646 -0.2541 -0.0144  0.1589
   49CHL1  H16B 4755   5.465   2.511   5.635 -0.2870  0.4726  0.7329
   49CHL1   C17 4756   5.414   2.651   5.477  1.1521  0.3995 -0.6220
   49CHL1   H17 4757   5.523   2.636   5.460  1.1753 -0.1457  0.0089
   49CHL1   C13 4758   5.354   2.608   5.343  0.1617  0.1877  0.0276
   49CHL1   C18 4759   5.206   2.653   5.351 -0.9579  0.2702  0.4710
   49CHL1  H18A 4760   5.216   2.763   5.339  0.9588  0.1802  0.9619
   49CHL1  H18B 4761   5.157   2.609   5.261 -1.5873  0.4811  0.7035
   49CHL1  H18C 4762   5.150   2.627   5.443 -0.9580 -0.3737  0.2923
   49CHL1   C12 4763   5.425   2.644   5.210 -0.2582 -0.1532  0.7217
   49CHL1  H12A 4764   5.430   2.755   5.206  1.3334 -0.2110 -2.0861
   49CHL1  H12B 4765   5.532   2.614   5.210  0.6470  2.7687  1.1345
   49CHL1   C11 4766   5.354   2.582   5.083 -0.5645  0.2782  0.0164
   49CHL1  H11A 4767   5.253   2.628   5.077 -0.7236  0.0456  0.8045
   49CHL1  H11B 4768   5.415   2.609   4.994 -0.4079  3.1983  0.9019
   49CHL1    C9 4769   5.337   2.426   5.104  0.4035  0.1685  0.6689
   49CHL1    H9 4770   5.438   2.382   5.094  0.5238  0.1575  1.7461
   49CHL1   C10 4771   5.252   2.360   4.989 -0.9999 -0.4644  0.0234
   49CHL1   C19 4772   5.126   2.446   4.969  0.3525 -0.6418 -0.3603
   49CHL1  H19A 4773   5.158   2.538   4.916 -1.0226  1.4073  2.1657
   49CHL1  H19B 4774   5.055   2.393   4.902 -0.9928  0.2257  0.3494
   49CHL1  H19C 4775   5.070   2.480   5.059  0.4801  2.1762 -1.2545
   49CHL1    C1 4776   5.340   2.371   4.866  0.1318  0.3698  0.3407
   49CHL1   H1A 4777   5.361   2.477   4.838 -0.5353  0.3937 -0.0910
   49CHL1   H1B 4778   5.438   2.321   4.878 -0.7034 -1.3184  0.3879
   49CHL1    C2 4779   5.273   2.305   4.746  0.5393 -0.4617  0.4233
   49CHL1   H2A 4780   5.337   2.310   4.656 -1.3957  1.7347 -0.9323
   49CHL1   H2B 4781   5.176   2.351   4.717  0.9687  0.1327 -0.1031
   49CHL1   C20 4782   5.382   2.789   5.535 -0.1944 -0.0679  0.2391
   49CHL1   H20 4783   5.273   2.797   5.552 -0.2693  2.1747 -0.9437
   49CHL1   C21 4784   5.423   2.900   5.439 -0.3589  0.0742 -0.2801
   49CHL1  H21A 4785   5.524   2.872   5.402 -0.0757  2.0835 -1.1852
   49CHL1  H21B 4786   5.419   3.006   5.474 -0.5432  0.4898 -1.5039
   49CHL1  H21C 4787   5.365   2.898   5.345  2.3817  1.7588 -2.1521
   49CHL1   C22 4788   5.450   2.801   5.665  0.1798  0.0899 -0.4508
   49CHL1  H22A 4789   5.481   2.710   5.721  1.6753  2.9493  3.8255
   49CHL1  H22B 4790   5.547   2.850   5.645  0.0800  0.8246  0.7701
   49CHL1   C23 4791   5.379   2.891   5.762 -0.4480 -0.4106  0.7865
   49CHL1  H23A 4792   5.352   2.985   5.709  0.2310 -1.5913 -1.7675
   49CHL1  H23B 4793   5.277   2.851   5.781 -0.8435 -0.5472 -1.3941
   49CHL1   C24 4794   5.466   2.939   5.876  0.5418  0.1387  0.4767
   49CHL1  H24A 4795   5.544   3.007   5.836 -0.8078  0.2976 -2.0837
   49CHL1  H24B 4796   5.396   3.002   5.935  0.4494  1.5484 -1.0887
   49CHL1   C25 4797   5.521   2.829   5.973  0.1647 -1.1141 -0.6381
   49CHL1   H25 4798   5.592   2.780   5.903  1.0666  0.0230 -0.5467
   49CHL1   C26 4799   5.590   2.899   6.093 -0.0642  0.0048 -0.0819
   49CHL1  H26A 4800   5.528   2.964   6.158 -0.1843 -1.0478  0.8915
   49CHL1  H26B 4801   5.639   2.823   6.157 -1.0736 -0.2814  0.3764
   49CHL1  H26C 4802   5.666   2.969   6.053  0.1013 -1.8092 -3.3104
   49CHL1   C27 4803   5.423   2.719   6.024 -1.1808 -0.3954  0.7449
   49CHL1  H27A 4804   5.378   2.658   5.943 -1.1435 -0.0556  0.4708
   49CHL1  H27B 4805   5.469   2.650   6.099 -0.1834  0.9336  1.3874
   49CHL1  H27C 4806   5.332   2.769   6.063 -3.5345 -2.0725 -2.2090
   50CHL1    C3 4807   5.996   6.808   4.337  0.2233  0.1721  0.1779
   50CHL1    H3 4808   6.073   6.729   4.338  0.3562  0.1858 -2.1627
   50CHL1    O3 4809   5.975   6.855   4.202 -0.4710  0.0461  0.2026
   50CHL1   H3' 4810   6.042   6.918   4.174  1.0755 -2.5112 -2.3553
   50CHL1    C4 4811   5.864   6.766   4.399  0.1070  0.0363 -0.6121
   50CHL1   H4A 4812   5.789   6.848   4.390 -0.1112  0.1335  1.5832
   50CHL1   H4B 4813   5.830   6.684   4.333  0.0752  0.7580 -1.5209
   50CHL1    C5 4814   5.878   6.729   4.547 -1.1718 -0.4352  0.0294
   50CHL1    C6 4815   5.855   6.611   4.597  0.0408 -0.3140  0.6749
   50CHL1    H6 4816   5.804   6.540   4.530  0.8788 -0.4645  0.1782
   50CHL1    C7 4817   5.866   6.565   4.738  0.9010 -0.0553  0.6299
   50CHL1   H7A 4818   5.774   6.515   4.775  0.1554  1.4912  0.9530
   50CHL1   H7B 4819   5.956   6.499   4.741  0.1335 -1.3749 -2.4077
   50CHL1    C8 4820   5.889   6.688   4.833 -0.2284  0.1335  0.3061
   50CHL1    H8 4821   5.791   6.739   4.836 -0.6451 -0.6094 -0.2539
   50CHL1   C14 4822   5.929   6.640   4.971 -0.4242 -0.6469  0.4040
   50CHL1   H14 4823   6.024   6.584   4.956 -0.6661 -0.6807 -1.2056
   50CHL1   C15 4824   5.823   6.547   5.035  0.7648  1.1039 -0.5761
   50CHL1  H15A 4825   5.719   6.579   5.014 -0.1433 -2.3624 -2.0682
   50CHL1  H15B 4826   5.834   6.439   5.014  0.7853  1.0466 -0.2776
   50CHL1   C16 4827   5.853   6.571   5.194 -0.3974  0.2507  0.3805
   50CHL1  H16A 4828   5.760   6.600   5.246  0.1587  0.8500  1.0586
   50CHL1  H16B 4829   5.890   6.475   5.234 -0.4947  0.1344  0.1931
   50CHL1   C17 4830   5.977   6.676   5.204  0.1490 -0.3374 -0.0206
   50CHL1   H17 4831   6.077   6.629   5.198  0.3172  0.1044 -0.9791
   50CHL1   C13 4832   5.962   6.753   5.069  0.2118 -0.1741 -0.2370
   50CHL1   C18 4833   5.847   6.854   5.080  0.7810 -0.2434 -0.1188
   50CHL1  H18A 4834   5.774   6.823   5.157  0.3108  0.6142 -0.2008
   50CHL1  H18B 4835   5.909   6.935   5.124  1.6834 -1.8199  1.6377
   50CHL1  H18C 4836   5.795   6.877   4.984 -1.7218 -2.7202  0.5181
   50CHL1   C12 4837   6.092   6.818   5.016 -0.0151 -0.2529  0.2424
   50CHL1  H12A 4838   6.131   6.901   5.078  0.0159  1.1214 -1.5489
   50CHL1  H12B 4839   6.174   6.745   5.001  0.5035  0.9348 -3.6498
   50CHL1   C11 4840   6.060   6.880   4.877  0.3251 -0.2183 -0.4883
   50CHL1  H11A 4841   5.988   6.963   4.896 -0.3454 -0.8882 -0.0372
   50CHL1  H11B 4842   6.153   6.917   4.830 -0.6744 -0.8705 -3.1325
   50CHL1    C9 4843   5.996   6.780   4.775  0.0626  0.1828 -0.0037
   50CHL1    H9 4844   6.081   6.710   4.758  0.5211  0.6207  0.4359
   50CHL1   C10 4845   5.951   6.836   4.638 -0.1377 -0.0729  0.7063
   50CHL1   C19 4846   5.858   6.964   4.655 -0.0887 -0.3815  0.1688
   50CHL1  H19A 4847   5.908   7.041   4.717 -1.4025  0.4165  0.2646
   50CHL1  H19B 4848   5.824   7.006   4.558  0.5240 -2.0259 -0.7998
   50CHL1  H19C 4849   5.764   6.937   4.708 -0.1331  1.4129  1.0742
   50CHL1    C1 4850   6.073   6.888   4.558  0.8321  0.2416 -0.2847
   50CHL1   H1A 4851   6.129   6.962   4.618  1.6267 -0.7130  0.1814
   50CHL1   H1B 4852   6.143   6.802   4.558  2.0253  1.1742 -1.4377
   50CHL1    C2 4853   6.052   6.929   4.412 -0.4311 -0.1700  0.1391
   50CHL1   H2A 4854   6.154   6.950   4.374  0.2162 -1.9196  0.8081
   50CHL1   H2B 4855   5.989   7.019   4.398  1.0326  0.6562 -1.5843
   50CHL1   C20 4856   5.977   6.762   5.331  0.6575 -0.5847 -1.2024
   50CHL1   H20 4857   5.887   6.828   5.338  1.6078  0.5743  0.8214
   50CHL1   C21 4858   6.098   6.852   5.328  0.0021 -0.3211 -0.2947
   50CHL1  H21A 4859   6.183   6.784   5.306  0.3256  0.0779 -0.2969
   50CHL1  H21B 4860   6.127   6.903   5.423  3.0387  1.8094 -2.1866
   50CHL1  H21C 4861   6.092   6.936   5.256 -0.2697  1.0149  1.2311
   50CHL1   C22 4862   5.981   6.680   5.457  0.2581  0.4378  0.7606
   50CHL1  H22A 4863   5.938   6.580   5.436  0.9832  0.3434 -0.3923
   50CHL1  H22B 4864   6.089   6.667   5.479  0.5490 -0.1047 -0.8483
   50CHL1   C23 4865   5.906   6.740   5.572  0.2336 -0.2323  0.0210
   50CHL1  H23A 4866   5.919   6.850   5.573 -0.4519 -0.1117 -1.3343
   50CHL1  H23B 4867   5.797   6.736   5.548  0.0898  1.8676  0.1507
   50CHL1   C24 4868   5.943   6.668   5.707 -0.0229  0.5335 -0.0764
   50CHL1  H24A 4869   5.909   6.562   5.708 -0.8251  0.7800  0.6334
   50CHL1  H24B 4870   6.050   6.684   5.729 -0.8792  2.3418  3.5114
   50CHL1   C25 4871   5.875   6.727   5.827  0.7268  0.4448 -1.0026
   50CHL1   H25 4872   5.909   6.832   5.843 -0.3159  0.9654 -2.0601
   50CHL1   C26 4873   5.717   6.725   5.827 -0.0466 -0.1996 -0.0600
   50CHL1  H26A 4874   5.669   6.771   5.915 -3.6121  0.2750 -2.0714
   50CHL1  H26B 4875   5.680   6.773   5.734 -3.4701 -1.1654  0.6823
   50CHL1  H26C 4876   5.670   6.625   5.814 -0.3380 -0.5047  2.7518
   50CHL1   C27 4877   5.929   6.663   5.961  0.5523  0.5614 -0.3035
   50CHL1  H27A 4878   5.889   6.559   5.960  1.9968 -0.0943 -3.4348
   50CHL1  H27B 4879   6.039   6.648   5.957  0.6583  1.1000  0.4078
   50CHL1  H27C 4880   5.907   6.710   6.059 -0.6538  1.7510 -1.1253
   51CHL1    C3 4881   2.884   1.010   4.792 -0.5359 -0.1671 -0.5864
   51CHL1    H3 4882   2.955   1.065   4.858 -0.2194 -1.8997  0.5612
   51CHL1    O3 4883   2.909   1.046   4.653 -0.0028  0.0931 -0.3389
   51CHL1   H3' 4884   2.963   0.974   4.620 -0.0645 -0.3066  0.4126
   51CHL1    C4 4885   2.908   0.860   4.806  0.3847  0.7328 -0.7943
   51CHL1   H4A 4886   2.848   0.811   4.726 -2.7635 -1.2205  2.4645
   51CHL1   H4B 4887   3.015   0.842   4.783  0.8916 -0.8103  2.2116
   51CHL1    C5 4888   2.884   0.805   4.945 -0.3594  0.1072 -0.2292
   51CHL1    C6 4889   2.986   0.744   5.006 -0.2296  0.1699  0.1500
   51CHL1    H6 4890   3.085   0.739   4.958  0.4271  0.5017  1.4222
   51CHL1    C7 4891   2.961   0.683   5.141  0.2329 -0.0609 -0.2526
   51CHL1   H7A 4892   2.985   0.575   5.140 -1.7170 -0.5790  1.6698
   51CHL1   H7B 4893   3.021   0.730   5.222  0.0288 -1.4000  0.7030
   51CHL1    C8 4894   2.810   0.697   5.201  0.3185  0.0106 -0.0736
   51CHL1    H8 4895   2.755   0.609   5.160 -1.8149  0.6007  1.3536
   51CHL1   C14 4896   2.810   0.683   5.351 -0.2310  0.0998  0.0148
   51CHL1   H14 4897   2.877   0.764   5.387 -0.5129 -0.0746  0.9670
   51CHL1   C15 4898   2.879   0.560   5.419  0.2081 -0.1126 -0.2296
   51CHL1  H15A 4899   2.838   0.473   5.363  0.8751  0.6140 -1.9212
   51CHL1  H15B 4900   2.989   0.556   5.406  0.0537  0.5031 -2.1528
   51CHL1   C16 4901   2.820   0.553   5.558 -0.1614 -0.0496  0.2354
   51CHL1  H16A 4902   2.773   0.454   5.578 -0.9795  0.1997 -0.4110
   51CHL1  H16B 4903   2.892   0.564   5.643 -2.2473  1.7299  1.8860
   51CHL1   C17 4904   2.706   0.662   5.567 -0.1830 -0.3460 -0.5306
   51CHL1   H17 4905   2.759   0.754   5.598 -1.4831  0.5284 -0.8542
   51CHL1   C13 4906   2.668   0.688   5.418 -1.0994 -0.3644  0.0796
   51CHL1   C18 4907   2.563   0.571   5.382 -0.6981 -0.4533  0.4495
   51CHL1  H18A 4908   2.598   0.469   5.405 -1.7964 -0.8186  0.5509
   51CHL1  H18B 4909   2.465   0.589   5.431  0.6641  0.7308  2.9784
   51CHL1  H18C 4910   2.559   0.569   5.271  1.1630 -1.6887  0.3712
   51CHL1   C12 4911   2.595   0.819   5.374 -0.0817  0.0903  0.2078
   51CHL1  H12A 4912   2.490   0.817   5.408 -0.2130  1.1430 -0.0973
   51CHL1  H12B 4913   2.642   0.901   5.433  1.4618  0.3715 -1.3220
   51CHL1   C11 4914   2.597   0.836   5.222  0.0075 -0.1399 -0.4904
   51CHL1  H11A 4915   2.550   0.751   5.169 -0.0344  1.1543 -2.6473
   51CHL1  H11B 4916   2.539   0.924   5.187 -0.7787 -0.7382 -0.7121
   51CHL1    C9 4917   2.741   0.826   5.159 -0.1243 -0.1887 -0.5722
   51CHL1    H9 4918   2.805   0.910   5.194 -2.0059  1.3802 -0.7140
   51CHL1   C10 4919   2.745   0.847   5.001 -0.0103 -0.4587 -0.9635
   51CHL1   C19 4920   2.636   0.769   4.935  0.3126  0.2621 -0.2656
   51CHL1  H19A 4921   2.625   0.661   4.961  0.1484 -0.0953 -1.7340
   51CHL1  H19B 4922   2.539   0.819   4.952  0.0563 -0.1958 -0.3749
   51CHL1  H19C 4923   2.641   0.780   4.825  2.8855 -2.1812 -0.5266
   51CHL1    C1 4924   2.721   1.000   4.978 -0.1299  0.3632  0.7707
   51CHL1   H1A 4925   2.618   1.020   5.015  0.0163  2.0740  0.3209
   51CHL1   H1B 4926   2.783   1.069   5.039  1.5411  0.8989 -1.4008
   51CHL1    C2 4927   2.742   1.046   4.830  0.1930 -0.7409 -0.6113
   51CHL1   H2A 4928   2.723   1.156   4.834 -1.8693 -1.1110  1.6280
   51CHL1   H2B 4929   2.672   1.001   4.757  0.9977  0.8362 -2.4533
   51CHL1   C20 4930   2.589   0.640   5.676 -0.0549 -0.7952  0.1424
   51CHL1   H20 4931   2.502   0.592   5.626  0.0651 -2.5994  1.6074
   51CHL1   C21 4932   2.522   0.780   5.705  0.1030 -0.3190 -0.5865
   51CHL1  H21A 4933   2.468   0.823   5.618 -2.6534 -2.5462 -0.1006
   51CHL1  H21B 4934   2.604   0.844   5.744  0.5996 -1.2704 -0.0291
   51CHL1  H21C 4935   2.438   0.756   5.774  0.3841  2.1026  0.6978
   51CHL1   C22 4936   2.634   0.568   5.809  0.0961  0.2815 -0.0424
   51CHL1  H22A 4937   2.557   0.538   5.883  2.0634 -1.4821  1.4285
   51CHL1  H22B 4938   2.674   0.470   5.776  1.1841  0.8533 -0.4898
   51CHL1   C23 4939   2.729   0.656   5.889  0.1534  0.5272  0.3356
   51CHL1  H23A 4940   2.803   0.714   5.829  0.0653  0.0171 -0.2652
   51CHL1  H23B 4941   2.673   0.744   5.927 -1.1312  0.4264 -1.2186
   51CHL1   C24 4942   2.805   0.591   6.003  0.0700  0.2305 -0.4331
   51CHL1  H24A 4943   2.731   0.549   6.074 -0.7865 -0.2396 -1.5586
   51CHL1  H24B 4944   2.868   0.507   5.965  1.0613  1.3058 -1.2145
   51CHL1   C25 4945   2.907   0.685   6.074 -1.0681  0.5621 -0.0513
   51CHL1   H25 4946   2.860   0.784   6.094 -1.4025  0.7312 -1.5518
   51CHL1   C26 4947   2.948   0.651   6.216  0.0850  0.4302 -0.0361
   51CHL1  H26A 4948   2.977   0.544   6.225  1.3999  0.8696  1.6709
   51CHL1  H26B 4949   3.039   0.704   6.252  0.2619 -0.2577  0.5584
   51CHL1  H26C 4950   2.861   0.657   6.285 -0.5633  1.1579 -0.9012
   51CHL1   C27 4951   3.034   0.702   5.994  0.1142 -0.1127 -0.0191
   51CHL1  H27A 4952   3.005   0.737   5.893 -3.4335  1.5268  1.3950
   51CHL1  H27B 4953   3.096   0.783   6.038 -0.4352 -0.6705  1.8933
   51CHL1  H27C 4954   3.089   0.609   5.972  0.5467  0.5472 -1.8909
   52CHL1    C3 4955   2.872   3.126   4.871  0.7951  0.2059  0.6651
   52CHL1    H3 4956   2.946   3.188   4.926  1.4454 -1.7849  2.1780
   52CHL1    O3 4957   2.865   3.182   4.739  0.1573 -0.9445 -0.0453
   52CHL1   H3' 4958   2.798   3.250   4.750  1.9618  0.6932  2.1007
   52CHL1    C4 4959   2.911   2.981   4.872 -0.5053 -0.0780  0.4039
   52CHL1   H4A 4960   2.844   2.923   4.804 -1.4313 -0.4636  1.6156
   52CHL1   H4B 4961   3.012   2.989   4.827 -1.0655  2.9094 -0.5709
   52CHL1    C5 4962   2.911   2.919   5.007  0.1577  0.0367 -0.4803
   52CHL1    C6 4963   3.015   2.856   5.063  0.1973 -0.0630 -0.3013
   52CHL1    H6 4964   3.102   2.852   4.995  0.7905  1.0923  0.3394
   52CHL1    C7 4965   3.025   2.782   5.187 -0.8272  0.0587  0.8726
   52CHL1   H7A 4966   3.070   2.682   5.173 -0.2411  0.2673  1.2386
   52CHL1   H7B 4967   3.084   2.845   5.257  0.7922  1.5104 -1.6275
   52CHL1    C8 4968   2.884   2.763   5.248  0.3762  0.7122  0.2653
   52CHL1    H8 4969   2.832   2.686   5.188 -1.6846  1.3377  1.1873
   52CHL1   C14 4970   2.897   2.726   5.389 -0.4395  0.0170  0.2012
   52CHL1   H14 4971   2.938   2.814   5.443 -0.2476 -0.2599  0.5116
   52CHL1   C15 4972   3.000   2.618   5.426 -0.6630 -0.3138  0.0075
   52CHL1  H15A 4973   3.006   2.531   5.356 -1.4100 -0.2860 -0.0999
   52CHL1  H15B 4974   3.103   2.659   5.428  1.3052 -4.3182 -2.9640
   52CHL1   C16 4975   2.956   2.564   5.566  0.8548 -0.8728  0.5169
   52CHL1  H16A 4976   2.913   2.462   5.580 -2.6633  0.6400  1.9433
   52CHL1  H16B 4977   3.038   2.577   5.639  1.3494 -1.1937  0.0254
   52CHL1   C17 4978   2.836   2.656   5.603  0.7594 -0.0092  0.2404
   52CHL1   H17 4979   2.870   2.749   5.653 -0.5028 -0.8210  2.8253
   52CHL1   C13 4980   2.769   2.701   5.464  0.0191  0.3948 -0.7300
   52CHL1   C18 4981   2.689   2.580   5.407 -0.2923 -0.1175 -0.1034
   52CHL1  H18A 4982   2.661   2.592   5.300 -1.4451 -0.4540  0.1356
   52CHL1  H18B 4983   2.746   2.487   5.426  1.5081  0.8478 -0.6531
   52CHL1  H18C 4984   2.590   2.577   5.459  0.1094 -2.1133  0.6621
   52CHL1   C12 4985   2.692   2.830   5.456 -0.0662 -0.2623 -0.3426
   52CHL1  H12A 4986   2.593   2.817   5.506 -0.3940  1.5944 -0.4326
   52CHL1  H12B 4987   2.738   2.913   5.514  1.0352 -1.8516  1.1621
   52CHL1   C11 4988   2.669   2.883   5.316 -0.4707  0.9186  0.0070
   52CHL1  H11A 4989   2.611   2.802   5.267  0.4565  0.7619 -0.8623
   52CHL1  H11B 4990   2.602   2.972   5.311 -1.2986  0.2551 -1.2066
   52CHL1    C9 4991   2.797   2.891   5.235 -0.9673  0.3903  0.0686
   52CHL1    H9 4992   2.855   2.972   5.284 -0.6857  0.4345 -0.3306
   52CHL1   C10 4993   2.776   2.930   5.088 -0.3458 -0.3119  0.4951
   52CHL1   C19 4994   2.668   2.842   5.020 -0.5175 -0.5586  0.0930
   52CHL1  H19A 4995   2.644   2.884   4.920 -1.4805 -0.7201  0.2409
   52CHL1  H19B 4996   2.692   2.734   5.010 -0.0844 -0.6137  1.5099
   52CHL1  H19C 4997   2.570   2.846   5.072  0.3495 -1.3875  1.8822
   52CHL1    C1 4998   2.729   3.077   5.075  0.3624 -0.1365 -0.2318
   52CHL1   H1A 4999   2.623   3.084   5.107  0.2457 -2.6358  0.1251
   52CHL1   H1B 5000   2.779   3.140   5.152 -1.5644  0.4667  0.5694
   52CHL1    C2 5001   2.736   3.145   4.932 -0.0523  0.2629 -0.0441
   52CHL1   H2A 5002   2.718   3.254   4.944 -0.5668  0.2158 -0.3621
   52CHL1   H2B 5003   2.656   3.098   4.871 -0.4448  1.3401 -0.3905
   52CHL1   C20 5004   2.745   2.596   5.711 -0.3351  0.4400  0.4592
   52CHL1   H20 5005   2.712   2.493   5.686  2.6792 -0.4395 -0.3616
   52CHL1   C21 5006   2.618   2.684   5.739  0.1194  0.1556  0.6298
   52CHL1  H21A 5007   2.566   2.632   5.822 -0.0593 -1.4759 -0.4357
   52CHL1  H21B 5008   2.553   2.686   5.649  3.6376  1.3978 -2.1375
   52CHL1  H21C 5009   2.667   2.779   5.766 -0.6738  0.7248  0.1078
   52CHL1   C22 5010   2.832   2.575   5.843 -0.1873 -0.2573  0.1554
   52CHL1  H22A 5011   2.881   2.476   5.834  0.6068  0.2866 -1.9824
   52CHL1  H22B 5012   2.911   2.652   5.856  0.1585 -0.7124  0.8393
   52CHL1   C23 5013   2.764   2.573   5.981  0.4967  0.1798  0.2061
   52CHL1  H23A 5014   2.707   2.669   5.991 -2.2542 -0.9596 -2.6282
   52CHL1  H23B 5015   2.691   2.490   5.973 -0.3155  0.9560 -0.8045
   52CHL1   C24 5016   2.863   2.542   6.094 -0.3641 -0.0138 -0.2146
   52CHL1  H24A 5017   2.911   2.443   6.079  0.1828  0.3409 -0.8640
   52CHL1  H24B 5018   2.936   2.625   6.088  0.2640 -0.4087  1.3902
   52CHL1   C25 5019   2.810   2.569   6.238  0.1455 -0.2102  0.0601
   52CHL1   H25 5020   2.752   2.662   6.218  0.2362 -0.4452 -1.3817
   52CHL1   C26 5021   2.711   2.468   6.289 -0.2875 -0.0639 -0.0065
   52CHL1  H26A 5022   2.619   2.453   6.229 -0.5575  0.4589  0.2759
   52CHL1  H26B 5023   2.760   2.368   6.293  0.0131 -0.1507 -3.2382
   52CHL1  H26C 5024   2.672   2.495   6.389 -2.1908 -1.2407 -0.3815
   52CHL1   C27 5025   2.916   2.625   6.334 -0.1412  0.5012 -0.3770
   52CHL1  H27A 5026   2.993   2.683   6.279  1.9938 -1.9771 -0.2119
   52CHL1  H27B 5027   2.867   2.674   6.420 -0.3484 -0.5303  0.0980
   52CHL1  H27C 5028   2.977   2.545   6.381 -3.1324 -1.3593  0.5650
   53CHL1    C3 5029   2.527   2.568   4.301  0.1904  0.1868 -0.1737
   53CHL1    H3 5030   2.454   2.491   4.272  0.2899  0.3533 -0.8721
   53CHL1    O3 5031   2.635   2.575   4.207 -0.5276 -0.0546  0.2363
   53CHL1   H3' 5032   2.696   2.645   4.231  0.2588 -0.7898  0.4680
   53CHL1    C4 5033   2.459   2.703   4.307  0.0853 -0.3553  1.0240
   53CHL1   H4A 5034   2.534   2.784   4.322  0.7843 -0.9545  0.8260
   53CHL1   H4B 5035   2.398   2.716   4.216  0.9310  0.2341  0.5214
   53CHL1    C5 5036   2.370   2.711   4.431  0.1058 -0.2143 -0.0201
   53CHL1    C6 5037   2.235   2.741   4.426 -0.2201 -0.3219  0.2597
   53CHL1    H6 5038   2.184   2.763   4.331 -0.0275 -0.0147  0.2262
   53CHL1    C7 5039   2.156   2.758   4.549 -0.1972  0.4583 -0.3340
   53CHL1   H7A 5040   2.080   2.839   4.541  0.1231  1.1326  2.4246
   53CHL1   H7B 5041   2.097   2.668   4.575 -0.7153  0.2171 -2.1778
   53CHL1    C8 5042   2.237   2.784   4.678  0.1767 -0.0234  0.8053
   53CHL1    H8 5043   2.288   2.881   4.665  1.2863 -0.9606 -2.7397
   53CHL1   C14 5044   2.152   2.780   4.807 -0.4330 -0.1994  0.5127
   53CHL1   H14 5045   2.118   2.675   4.820  1.6257 -1.2663 -1.8126
   53CHL1   C15 5046   2.029   2.871   4.803 -0.7058 -0.4453 -0.8207
   53CHL1  H15A 5047   2.055   2.971   4.762 -0.0464 -0.6716 -0.9677
   53CHL1  H15B 5048   1.961   2.816   4.735  1.3037 -2.8948 -1.0047
   53CHL1   C16 5049   1.989   2.882   4.955  0.3521  0.1188 -0.7292
   53CHL1  H16A 5050   1.980   2.988   4.986  0.1082 -0.2287  0.4246
   53CHL1  H16B 5051   1.897   2.825   4.977  0.3408 -1.1811 -3.6492
   53CHL1   C17 5052   2.106   2.821   5.035 -0.1836  0.2333  0.1542
   53CHL1   H17 5053   2.085   2.715   5.064 -1.1918 -0.0859 -1.5681
   53CHL1   C13 5054   2.229   2.808   4.933  0.6447  0.3400  0.1322
   53CHL1   C18 5055   2.294   2.948   4.927 -0.1509  0.0177 -0.4214
   53CHL1  H18A 5056   2.367   2.956   5.010 -1.6777  1.3605  0.8373
   53CHL1  H18B 5057   2.348   2.953   4.829  0.8575 -0.7208  0.0780
   53CHL1  H18C 5058   2.231   3.039   4.933  0.8678  0.6653  1.3814
   53CHL1   C12 5059   2.321   2.684   4.946 -0.6173  0.1566  0.0732
   53CHL1  H12A 5060   2.399   2.699   5.023  0.5630 -1.8163 -0.6667
   53CHL1  H12B 5061   2.262   2.598   4.982  0.0345  0.1210  1.0848
   53CHL1   C11 5062   2.413   2.663   4.826  0.6405 -0.5626  0.4236
   53CHL1  H11A 5063   2.497   2.735   4.834  0.8031 -0.5836 -0.8688
   53CHL1  H11B 5064   2.459   2.563   4.840  0.5515 -0.7307 -0.4466
   53CHL1    C9 5065   2.341   2.667   4.686 -0.8629  0.1662 -0.1593
   53CHL1    H9 5066   2.288   2.569   4.679  1.6150 -1.3171  0.6924
   53CHL1   C10 5067   2.443   2.681   4.571 -0.5598 -0.5172  0.3059
   53CHL1   C19 5068   2.546   2.796   4.597  0.1661  0.7481 -0.7420
   53CHL1  H19A 5069   2.596   2.838   4.507  0.7646 -1.1249 -1.3311
   53CHL1  H19B 5070   2.503   2.879   4.657  0.8823 -1.2352  2.8705
   53CHL1  H19C 5071   2.631   2.756   4.656  1.0114 -0.8345 -2.8877
   53CHL1    C1 5072   2.509   2.548   4.554 -0.1596 -0.5264  0.0788
   53CHL1   H1A 5073   2.582   2.552   4.638  0.4987  2.0566 -0.5109
   53CHL1   H1B 5074   2.438   2.463   4.550  0.0884 -0.7116 -0.5412
   53CHL1    C2 5075   2.599   2.541   4.429  0.1657 -0.1064 -0.7148
   53CHL1   H2A 5076   2.644   2.440   4.416 -2.3159 -1.1957 -1.4644
   53CHL1   H2B 5077   2.679   2.617   4.437  1.0479 -1.0155 -0.6431
   53CHL1   C20 5078   2.125   2.891   5.170  0.0470  0.4265 -0.1952
   53CHL1   H20 5079   2.153   2.999   5.167  1.6475  0.1832  2.6948
   53CHL1   C21 5080   2.240   2.826   5.244 -0.6058  0.0479  0.3702
   53CHL1  H21A 5081   2.333   2.811   5.186 -0.0353 -1.0875  1.5168
   53CHL1  H21B 5082   2.209   2.722   5.270 -3.0221  0.1772 -1.6539
   53CHL1  H21C 5083   2.271   2.871   5.341  1.0331  1.9436 -0.9409
   53CHL1   C22 5084   1.991   2.881   5.247 -0.1163 -0.2832 -0.6107
   53CHL1  H22A 5085   1.916   2.943   5.194 -0.8964 -0.1024  0.6702
   53CHL1  H22B 5086   1.960   2.775   5.257 -1.8930  0.2816  0.2392
   53CHL1   C23 5087   2.008   2.944   5.392 -0.4971  0.6220  0.2945
   53CHL1  H23A 5088   2.077   2.881   5.451 -0.6016  0.9860  0.8112
   53CHL1  H23B 5089   2.043   3.049   5.382  0.3084  0.3431  0.0966
   53CHL1   C24 5090   1.881   2.964   5.473 -0.0697  0.9928  0.2039
   53CHL1  H24A 5091   1.834   3.064   5.463 -0.1474  0.8330 -1.2787
   53CHL1  H24B 5092   1.796   2.897   5.446 -0.6094  1.8325 -0.2261
   53CHL1   C25 5093   1.918   2.972   5.629 -0.3100  0.3432  1.0178
   53CHL1   H25 5094   2.000   3.046   5.642  0.7897 -0.5985 -0.2533
   53CHL1   C26 5095   1.798   3.020   5.707  0.3954  0.1166  0.4713
   53CHL1  H26A 5096   1.829   3.029   5.813 -2.3878  0.1068  1.3716
   53CHL1  H26B 5097   1.761   3.123   5.687 -2.0122 -1.0551 -1.8092
   53CHL1  H26C 5098   1.719   2.942   5.697  0.1701  0.3747  0.2134
   53CHL1   C27 5099   1.976   2.838   5.686 -0.0115 -0.6107 -0.4259
   53CHL1  H27A 5100   1.898   2.759   5.677 -0.3121 -0.6933  2.1261
   53CHL1  H27B 5101   2.071   2.807   5.638 -0.3167 -1.3092 -0.5868
   53CHL1  H27C 5102   2.001   2.857   5.793  0.4851  1.1867 -0.8260
   54CHL1    C3 5103   0.870   3.568   4.443 -0.5760 -0.0186 -0.0510
   54CHL1    H3 5104   0.941   3.644   4.404  0.4750 -0.8793  0.1264
   54CHL1    O3 5105   0.812   3.519   4.326  0.1909  0.2215  0.1734
   54CHL1   H3' 5106   0.728   3.483   4.354  1.0936 -1.9514  0.2803
   54CHL1    C4 5107   0.952   3.450   4.499 -0.0002  0.4721 -0.4552
   54CHL1   H4A 5108   0.882   3.365   4.512  0.9586 -0.4598 -1.1994
   54CHL1   H4B 5109   1.027   3.414   4.426  0.3180  0.3497 -0.0718
   54CHL1    C5 5110   1.014   3.477   4.633 -0.0283 -0.2296 -0.1768
   54CHL1    C6 5111   1.145   3.468   4.638  0.8864  0.1695  0.1453
   54CHL1    H6 5112   1.198   3.417   4.556 -0.1790  1.0300 -1.1224
   54CHL1    C7 5113   1.220   3.506   4.768  0.0602  0.0244  0.4309
   54CHL1   H7A 5114   1.304   3.439   4.798 -1.1741 -2.1728 -0.7032
   54CHL1   H7B 5115   1.263   3.606   4.748  2.2695 -1.0592 -0.7087
   54CHL1    C8 5116   1.121   3.499   4.885  0.5510 -0.1588  0.4891
   54CHL1    H8 5117   1.089   3.396   4.909 -1.2983  0.4538  0.8494
   54CHL1   C14 5118   1.191   3.564   5.010  0.7170  0.2137 -0.2732
   54CHL1   H14 5119   1.229   3.663   4.979 -0.9912  0.3798 -2.0298
   54CHL1   C15 5120   1.313   3.489   5.059 -0.3661 -0.0398 -0.4007
   54CHL1  H15A 5121   1.303   3.380   5.078 -0.9771  0.0925  0.0979
   54CHL1  H15B 5122   1.403   3.503   4.996  0.5274 -0.6086  0.7166
   54CHL1   C16 5123   1.336   3.558   5.199  0.1417 -0.1121  0.5078
   54CHL1  H16A 5124   1.359   3.480   5.274  0.8287 -1.0589 -0.6582
   54CHL1  H16B 5125   1.427   3.623   5.194 -1.3120  2.0452  0.7991
   54CHL1   C17 5126   1.208   3.640   5.235 -0.2485  0.4844  0.2785
   54CHL1   H17 5127   1.231   3.742   5.195 -1.5863  0.3294 -1.0191
   54CHL1   C13 5128   1.100   3.583   5.133  0.4246 -0.0235 -0.5025
   54CHL1   C18 5129   1.044   3.450   5.193 -0.0958  0.4246 -0.0740
   54CHL1  H18A 5130   1.126   3.376   5.201 -0.2136  0.0533 -2.0406
   54CHL1  H18B 5131   1.000   3.464   5.294  0.6457 -4.0941  1.1007
   54CHL1  H18C 5132   0.970   3.419   5.117 -1.1173  0.4322  0.8925
   54CHL1   C12 5133   0.996   3.685   5.101  0.0154  0.2080  0.2705
   54CHL1  H12A 5134   0.928   3.703   5.187 -0.7912  1.3442 -0.5693
   54CHL1  H12B 5135   1.045   3.782   5.078 -0.6210  0.6539  0.7616
   54CHL1   C11 5136   0.912   3.635   4.979 -0.1312  0.3162 -0.4554
   54CHL1  H11A 5137   0.854   3.546   5.013  1.2540 -0.1608  0.7378
   54CHL1  H11B 5138   0.824   3.697   4.952  1.3591  2.3582 -0.7555
   54CHL1    C9 5139   1.002   3.593   4.853 -0.4249 -0.4030  0.2017
   54CHL1    H9 5140   1.041   3.693   4.826  2.4793 -1.5869 -0.4080
   54CHL1   C10 5141   0.918   3.542   4.733  0.2809 -0.2785 -0.5972
   54CHL1   C19 5142   0.815   3.438   4.789  0.3597  0.5450 -0.4860
   54CHL1  H19A 5143   0.861   3.362   4.856 -3.5002 -0.6616  1.0822
   54CHL1  H19B 5144   0.740   3.495   4.848  0.5507  2.1805 -1.7455
   54CHL1  H19C 5145   0.762   3.392   4.703  0.0939 -0.8960  0.4135
   54CHL1    C1 5146   0.844   3.661   4.666  0.2291 -0.2716 -0.0874
   54CHL1   H1A 5147   0.777   3.711   4.740  0.3248  0.5329 -0.5370
   54CHL1   H1B 5148   0.924   3.734   4.644 -1.9528  1.7417 -1.9538
   54CHL1    C2 5149   0.770   3.623   4.541 -0.2037  0.4312  0.3331
   54CHL1   H2A 5150   0.727   3.716   4.499 -1.8285  0.0607  1.0679
   54CHL1   H2B 5151   0.685   3.556   4.568  1.3595 -0.6240  3.0835
   54CHL1   C20 5152   1.191   3.643   5.383  1.2099 -0.6483 -0.0418
   54CHL1   H20 5153   1.136   3.555   5.423 -0.3536 -0.0357 -0.7385
   54CHL1   C21 5154   1.110   3.773   5.401  0.5133  0.3434 -0.0994
   54CHL1  H21A 5155   1.159   3.851   5.340 -2.3672  1.9110 -0.6047
   54CHL1  H21B 5156   1.106   3.806   5.507 -1.7427 -1.3055  0.4210
   54CHL1  H21C 5157   1.006   3.759   5.364  0.9751 -2.6823 -0.5237
   54CHL1   C22 5158   1.330   3.666   5.469  0.5642  0.1523  0.8818
   54CHL1  H22A 5159   1.389   3.573   5.463 -1.4997 -1.1335 -0.9326
   54CHL1  H22B 5160   1.386   3.747   5.418 -1.2439  0.7921 -0.1698
   54CHL1   C23 5161   1.307   3.683   5.617 -0.3085  0.4008  0.1226
   54CHL1  H23A 5162   1.270   3.786   5.634 -1.2747 -0.0517  0.8075
   54CHL1  H23B 5163   1.234   3.611   5.659 -3.4339  3.6620  0.7282
   54CHL1   C24 5164   1.448   3.675   5.689 -0.2284 -0.4253 -0.2285
   54CHL1  H24A 5165   1.489   3.573   5.674  1.6633  0.5292 -2.0781
   54CHL1  H24B 5166   1.513   3.736   5.622 -1.8804 -0.2578 -1.7784
   54CHL1   C25 5167   1.455   3.713   5.834 -1.0275 -0.2179  0.7221
   54CHL1   H25 5168   1.384   3.653   5.894 -1.2024 -0.3710  0.3678
   54CHL1   C26 5169   1.602   3.689   5.891  0.2097  0.2099  0.0538
   54CHL1  H26A 5170   1.678   3.758   5.849 -1.4175  3.4454  2.0485
   54CHL1  H26B 5171   1.592   3.706   6.000 -4.2237 -1.4130  0.1308
   54CHL1  H26C 5172   1.633   3.584   5.872  0.8815  0.4713 -0.2965
   54CHL1   C27 5173   1.413   3.858   5.859 -1.1352  0.5097  0.2082
   54CHL1  H27A 5174   1.311   3.881   5.823  0.2403  0.7834 -4.0162
   54CHL1  H27B 5175   1.418   3.865   5.970  1.6773  2.0544  0.0761
   54CHL1  H27C 5176   1.491   3.925   5.817 -0.0721 -0.6679  0.2491
   55CHL1    C3 5177   6.004   5.955   4.525 -0.0555 -0.0208 -0.2892
   55CHL1    H3 5178   6.109   5.976   4.552 -0.1005 -0.6317  0.4296
   55CHL1    O3 5179   5.998   5.938   4.381 -0.3815  0.1895 -0.2523
   55CHL1   H3' 5180   5.922   5.882   4.368 -0.2505 -0.0967  0.1822
   55CHL1    C4 5181   5.953   5.831   4.606 -0.5081  0.5999  0.2171
   55CHL1   H4A 5182   5.853   5.798   4.571 -0.6236  0.6892  0.4618
   55CHL1   H4B 5183   6.027   5.751   4.585  0.8105  2.2318 -1.8363
   55CHL1    C5 5184   5.956   5.856   4.761  1.0183 -0.6499  0.1503
   55CHL1    C6 5185   6.035   5.789   4.843 -0.5361  0.0276  0.7318
   55CHL1    H6 5186   6.110   5.714   4.814  0.1651  1.1068 -0.3323
   55CHL1    C7 5187   6.035   5.805   4.996 -0.2834  0.4740  0.1413
   55CHL1   H7A 5188   6.024   5.705   5.042  0.6475 -0.4676 -1.5843
   55CHL1   H7B 5189   6.131   5.840   5.040  0.2221 -0.5194 -0.1423
   55CHL1    C8 5190   5.917   5.895   5.037  0.3935  0.1610  0.4051
   55CHL1    H8 5191   5.826   5.831   5.027 -0.3790  1.2399  0.3369
   55CHL1   C14 5192   5.945   5.940   5.176 -0.2072 -0.3098 -0.3602
   55CHL1   H14 5193   6.040   5.997   5.183 -0.6492  0.3794  0.2265
   55CHL1   C15 5194   5.957   5.835   5.291 -1.3556  0.3121  0.1538
   55CHL1  H15A 5195   5.896   5.745   5.269  1.1892 -0.8527 -2.8945
   55CHL1  H15B 5196   6.063   5.802   5.282 -1.4551 -0.1718  0.6812
   55CHL1   C16 5197   5.921   5.903   5.420  0.2310 -0.2609  0.3086
   55CHL1  H16A 5198   5.835   5.851   5.467  0.0488  1.7299  2.3344
   55CHL1  H16B 5199   5.997   5.893   5.500 -0.1307  0.1485  0.7045
   55CHL1   C17 5200   5.894   6.051   5.387  0.2371 -0.4998  0.3614
   55CHL1   H17 5201   5.998   6.088   5.379  0.7779 -2.2589 -3.3622
   55CHL1   C13 5202   5.838   6.037   5.236  0.1466  0.3704 -1.3036
   55CHL1   C18 5203   5.704   5.969   5.239 -0.2680  0.4071 -0.4920
   55CHL1  H18A 5204   5.707   5.885   5.311  0.1056  1.7829  1.1469
   55CHL1  H18B 5205   5.622   6.034   5.277 -1.9710 -1.1075 -1.4367
   55CHL1  H18C 5206   5.672   5.926   5.141 -2.3526 -0.4394  0.5103
   55CHL1   C12 5207   5.831   6.170   5.161 -0.0626  0.6724  1.0846
   55CHL1  H12A 5208   5.740   6.224   5.195  0.0481  2.0687 -0.6817
   55CHL1  H12B 5209   5.920   6.236   5.164 -0.9160  1.8510  1.3650
   55CHL1   C11 5210   5.810   6.131   5.010  0.0590  0.3857 -0.3902
   55CHL1  H11A 5211   5.704   6.100   5.004  0.4377 -1.1154  0.3082
   55CHL1  H11B 5212   5.818   6.226   4.952  3.6276  0.7665  0.4755
   55CHL1    C9 5213   5.902   6.020   4.949 -0.7204 -1.0615 -0.3261
   55CHL1    H9 5214   6.005   6.060   4.950 -0.7589 -0.8601  1.9833
   55CHL1   C10 5215   5.873   5.975   4.805  0.5073 -0.0650 -0.4387
   55CHL1   C19 5216   5.721   5.945   4.795 -0.0220  0.1255 -0.5598
   55CHL1  H19A 5217   5.697   5.907   4.694 -0.4368  1.1919 -0.8819
   55CHL1  H19B 5218   5.681   5.881   4.876  0.2943  1.0100  0.3208
   55CHL1  H19C 5219   5.664   6.041   4.790  0.2635  0.5239  2.0898
   55CHL1    C1 5220   5.914   6.099   4.709  0.2841  0.0696 -0.5310
   55CHL1   H1A 5221   5.853   6.185   4.743 -3.1636 -3.2346  2.7287
   55CHL1   H1B 5222   6.017   6.131   4.734  0.4136 -0.0070 -0.9620
   55CHL1    C2 5223   5.914   6.073   4.556 -0.3964  0.2595 -0.4451
   55CHL1   H2A 5224   5.957   6.164   4.509 -0.9089  0.3068 -0.8351
   55CHL1   H2B 5225   5.812   6.055   4.515 -0.4128 -2.3928  0.5728
   55CHL1   C20 5226   5.811   6.128   5.495  0.3807  0.5312 -0.0960
   55CHL1   H20 5227   5.709   6.134   5.450 -0.1225 -2.6249  0.3829
   55CHL1   C21 5228   5.865   6.269   5.508 -0.0606  0.0555  0.7325
   55CHL1  H21A 5229   5.896   6.316   5.412 -0.8770 -1.2677 -0.2211
   55CHL1  H21B 5230   5.956   6.256   5.571 -0.2890 -0.6718  0.9264
   55CHL1  H21C 5231   5.786   6.327   5.561 -1.0235 -1.6125  1.2192
   55CHL1   C22 5232   5.810   6.053   5.630 -0.7776  0.7425 -0.7393
   55CHL1  H22A 5233   5.759   5.955   5.617  2.0157 -0.6481 -1.9179
   55CHL1  H22B 5234   5.916   6.037   5.659 -1.0491 -1.7446 -0.9156
   55CHL1   C23 5235   5.745   6.132   5.741  0.2299  0.5116  0.3514
   55CHL1  H23A 5236   5.799   6.227   5.761 -1.3392  1.1680  1.8092
   55CHL1  H23B 5237   5.645   6.163   5.703  0.3615 -0.0524 -0.4599
   55CHL1   C24 5238   5.724   6.059   5.881 -0.3036  0.2681 -0.0035
   55CHL1  H24A 5239   5.664   5.967   5.866  1.0954 -0.7963  0.7271
   55CHL1  H24B 5240   5.824   6.025   5.915 -0.2189  3.7550  4.1582
   55CHL1   C25 5241   5.659   6.146   5.990  0.4234 -0.7216 -0.2730
   55CHL1   H25 5242   5.652   6.082   6.080 -2.9939  0.4225  0.4240
   55CHL1   C26 5243   5.746   6.268   6.031 -0.1697  0.2580  0.4515
   55CHL1  H26A 5244   5.848   6.253   6.073 -0.2202  1.0760  0.8760
   55CHL1  H26B 5245   5.751   6.335   5.943 -0.1059 -1.4908 -0.9406
   55CHL1  H26C 5246   5.680   6.312   6.109 -0.8465 -0.4123  0.2762
   55CHL1   C27 5247   5.512   6.188   5.960  0.1136 -0.2078 -0.0808
   55CHL1  H27A 5248   5.510   6.284   5.905 -2.6607  1.1293  2.0691
   55CHL1  H27B 5249   5.462   6.115   5.893 -0.2173  1.8906 -2.2397
   55CHL1  H27C 5250   5.452   6.189   6.054  0.4969 -1.4507  0.1828
   56CHL1    C3 5251   6.899   0.920   4.737  0.6717  0.1915 -0.2206
   56CHL1    H3 5252   6.948   1.017   4.714  0.7100 -0.4494 -3.2980
   56CHL1    O3 5253   6.858   0.860   4.613  0.3135 -0.0548 -0.2641
   56CHL1   H3' 5254   6.853   0.930   4.547 -2.2881  1.2178  1.1368
   56CHL1    C4 5255   7.003   0.828   4.805  0.6040 -0.5513  0.0026
   56CHL1   H4A 5256   6.961   0.725   4.816  1.3639 -0.9351 -0.5805
   56CHL1   H4B 5257   7.090   0.820   4.737  0.7980  0.6390  0.0954
   56CHL1    C5 5258   7.042   0.887   4.942 -0.1672 -0.2320 -0.4362
   56CHL1    C6 5259   7.165   0.939   4.969  0.1623 -0.2988  0.7476
   56CHL1    H6 5260   7.244   0.923   4.894 -1.2019 -1.2971 -0.5225
   56CHL1    C7 5261   7.209   0.992   5.107 -0.3673 -0.2258 -0.0061
   56CHL1   H7A 5262   7.314   0.959   5.125 -0.0283 -0.2303 -1.7888
   56CHL1   H7B 5263   7.215   1.103   5.112  0.6655 -0.2354 -0.7320
   56CHL1    C8 5264   7.109   0.950   5.213 -0.2224 -0.7777 -0.9796
   56CHL1    H8 5265   7.140   0.847   5.240  0.8459 -0.6149 -1.5487
   56CHL1   C14 5266   7.146   1.036   5.337 -0.6113 -0.1518 -0.2176
   56CHL1   H14 5267   7.128   1.144   5.320 -0.8351  0.7502  4.4272
   56CHL1   C15 5268   7.288   1.024   5.394 -0.0570 -0.2712 -0.0672
   56CHL1  H15A 5269   7.303   0.915   5.405 -0.3394 -0.2575  0.5413
   56CHL1  H15B 5270   7.371   1.074   5.341 -1.2830  2.1992  0.1499
   56CHL1   C16 5271   7.271   1.068   5.539 -0.3060 -0.3456 -0.1085
   56CHL1  H16A 5272   7.311   0.989   5.606 -0.3617 -1.6504 -1.5668
   56CHL1  H16B 5273   7.314   1.167   5.565  2.8765 -1.0925 -2.0173
   56CHL1   C17 5274   7.118   1.082   5.570  0.3040 -0.8778  0.1315
   56CHL1   H17 5275   7.088   1.186   5.546 -0.8720 -1.4553 -1.0174
   56CHL1   C13 5276   7.052   1.001   5.459  0.5636  0.2759 -0.7890
   56CHL1   C18 5277   7.061   0.853   5.497  0.3480  0.2193  0.0111
   56CHL1  H18A 5278   7.167   0.829   5.522  0.7036 -0.7366 -2.1765
   56CHL1  H18B 5279   6.998   0.830   5.585 -0.4298  0.7352 -0.4022
   56CHL1  H18C 5280   7.038   0.780   5.416  0.9354 -3.0512  2.5394
   56CHL1   C12 5281   6.909   1.036   5.418  0.0846 -0.6089 -0.1838
   56CHL1  H12A 5282   6.836   1.025   5.500 -1.0291 -0.2747 -1.0990
   56CHL1  H12B 5283   6.914   1.144   5.390 -2.6344 -0.2348  0.5338
   56CHL1   C11 5284   6.866   0.957   5.296  0.1486  0.0719  0.7743
   56CHL1  H11A 5285   6.847   0.853   5.332  0.1591  0.4362  1.8591
   56CHL1  H11B 5286   6.768   0.998   5.264  1.0473 -0.2919 -3.0527
   56CHL1    C9 5287   6.963   0.966   5.173 -0.3005  0.1139 -0.2637
   56CHL1    H9 5288   6.959   1.075   5.150  0.9498  0.3333  0.4767
   56CHL1   C10 5289   6.928   0.897   5.045  0.1501 -0.0921  1.1586
   56CHL1   C19 5290   6.871   0.757   5.078 -0.2397  0.1446  0.1555
   56CHL1  H19A 5291   6.791   0.762   5.156  0.6396 -2.8703  1.4025
   56CHL1  H19B 5292   6.816   0.719   4.989 -2.6569  1.7368  0.8833
   56CHL1  H19C 5293   6.948   0.683   5.108 -0.8931 -0.5021  0.2797
   56CHL1    C1 5294   6.814   0.977   4.980  0.5565 -0.3621  0.2052
   56CHL1   H1A 5295   6.725   0.981   5.046 -0.2311 -1.0793 -0.7980
   56CHL1   H1B 5296   6.859   1.079   4.976 -1.9050  0.7951  0.3961
   56CHL1    C2 5297   6.777   0.949   4.832  0.3367  0.3063 -0.3136
   56CHL1   H2A 5298   6.716   1.031   4.788  2.2243  1.4215 -0.9405
   56CHL1   H2B 5299   6.707   0.863   4.823 -2.3947  2.3246  0.4725
   56CHL1   C20 5300   7.080   1.058   5.718  0.0007  0.2007  0.5704
   56CHL1   H20 5301   7.108   0.957   5.754  1.8391 -0.7540 -3.0485
   56CHL1   C21 5302   6.927   1.080   5.732  0.1754  0.6149 -0.0489
   56CHL1  H21A 5303   6.905   1.094   5.840  0.4563  1.2458 -0.0697
   56CHL1  H21B 5304   6.868   0.992   5.700  1.9836 -0.5638 -0.2903
   56CHL1  H21C 5305   6.889   1.170   5.679 -1.2281  0.5821  0.8496
   56CHL1   C22 5306   7.157   1.163   5.797 -0.0944 -0.2350 -0.3474
   56CHL1  H22A 5307   7.268   1.158   5.786 -0.0371 -0.2735  0.1958
   56CHL1  H22B 5308   7.128   1.265   5.765 -1.6010 -0.7550 -0.7212
   56CHL1   C23 5309   7.125   1.168   5.953 -0.0656  1.0587  0.1068
   56CHL1  H23A 5310   7.019   1.198   5.964 -0.1261  0.3326  1.7762
   56CHL1  H23B 5311   7.144   1.070   6.002  1.1518  0.1131 -2.0990
   56CHL1   C24 5312   7.210   1.274   6.011  0.4404 -0.1514 -0.6816
   56CHL1  H24A 5313   7.319   1.264   5.995  0.5786  1.6228 -1.0456
   56CHL1  H24B 5314   7.179   1.375   5.978  1.7855  0.3242 -0.5358
   56CHL1   C25 5315   7.188   1.290   6.165 -0.2186  0.0305  0.1527
   56CHL1   H25 5316   7.079   1.277   6.179 -0.2465 -1.2314 -1.0309
   56CHL1   C26 5317   7.254   1.174   6.246  0.7230 -0.0834 -1.1693
   56CHL1  H26A 5318   7.205   1.078   6.220 -1.9447  0.6432  0.7249
   56CHL1  H26B 5319   7.363   1.170   6.226  0.9973  0.8281  0.0059
   56CHL1  H26C 5320   7.240   1.209   6.351  1.8972  1.5391 -1.5127
   56CHL1   C27 5321   7.219   1.426   6.220  0.1082 -0.1475  0.1567
   56CHL1  H27A 5322   7.189   1.427   6.327 -1.3615 -1.0313 -0.2185
   56CHL1  H27B 5323   7.327   1.449   6.215  0.0878 -0.3452 -2.0173
   56CHL1  H27C 5324   7.159   1.505   6.170 -1.3271 -0.6986  0.9454
   57CHL1    C3 5325   4.724   4.595   4.690  0.1306  0.1515 -0.5516
   57CHL1    H3 5326   4.824   4.549   4.678  0.4887  1.0477 -1.0886
   57CHL1    O3 5327   4.668   4.607   4.562  0.0966  0.2841  0.5135
   57CHL1   H3' 5328   4.573   4.604   4.577  0.1726 -0.6330  0.8346
   57CHL1    C4 5329   4.637   4.492   4.768  0.2149 -0.2581 -0.0678
   57CHL1   H4A 5330   4.527   4.505   4.767 -0.5390 -4.8423  0.9014
   57CHL1   H4B 5331   4.662   4.402   4.707  1.4256  1.2729 -1.9542
   57CHL1    C5 5332   4.686   4.483   4.908  0.1285  0.7987  0.2903
   57CHL1    C6 5333   4.732   4.368   4.959 -0.2569  1.3932  0.2155
   57CHL1    H6 5334   4.737   4.272   4.906 -1.4712  1.0400  0.6783
   57CHL1    C7 5335   4.773   4.361   5.099 -0.2350  0.4194  0.3817
   57CHL1   H7A 5336   4.741   4.261   5.136 -0.1977  0.3646  0.2690
   57CHL1   H7B 5337   4.884   4.354   5.099 -0.0109  3.0145  1.0939
   57CHL1    C8 5338   4.724   4.464   5.191 -0.2794  0.2453  0.4620
   57CHL1    H8 5339   4.615   4.446   5.202 -0.4154 -1.5943 -2.6282
   57CHL1   C14 5340   4.793   4.448   5.333  0.1344  0.3979  0.0812
   57CHL1   H14 5341   4.902   4.464   5.317  0.2537 -1.2445 -0.9328
   57CHL1   C15 5342   4.789   4.302   5.394 -0.2277 -0.3440 -0.6461
   57CHL1  H15A 5343   4.692   4.250   5.408 -0.0422 -0.3998  0.5723
   57CHL1  H15B 5344   4.857   4.229   5.345 -1.4341 -0.7854 -1.6974
   57CHL1   C16 5345   4.839   4.343   5.540 -0.1103  0.2474 -0.2677
   57CHL1  H16A 5346   4.799   4.292   5.630 -0.4999  4.1441  1.9967
   57CHL1  H16B 5347   4.947   4.317   5.537 -0.2113 -0.1317 -1.6894
   57CHL1   C17 5348   4.828   4.504   5.551 -0.4710  0.5676 -0.1488
   57CHL1   H17 5349   4.931   4.541   5.536  0.3025 -0.9454  1.1217
   57CHL1   C13 5350   4.754   4.550   5.433  0.6417 -0.1197 -0.0975
   57CHL1   C18 5351   4.595   4.551   5.453 -0.3976  0.6376 -0.5418
   57CHL1  H18A 5352   4.549   4.563   5.352  1.4359  1.5562 -1.3156
   57CHL1  H18B 5353   4.569   4.446   5.477 -0.5865  0.3881 -1.7543
   57CHL1  H18C 5354   4.548   4.626   5.520 -0.4942 -0.4277  0.6089
   57CHL1   C12 5355   4.801   4.685   5.379 -0.3259  0.1515  0.1827
   57CHL1  H12A 5356   4.779   4.759   5.458  0.2174  0.6571 -0.1284
   57CHL1  H12B 5357   4.910   4.680   5.358 -0.5846 -1.5231 -0.9792
   57CHL1   C11 5358   4.727   4.710   5.239 -0.5264  0.9910  0.1990
   57CHL1  H11A 5359   4.621   4.724   5.267 -0.6168 -0.0206  0.3797
   57CHL1  H11B 5360   4.763   4.809   5.204 -1.8015  1.8481  1.2131
   57CHL1    C9 5361   4.755   4.597   5.135  0.5079 -1.9641 -0.0711
   57CHL1    H9 5362   4.866   4.598   5.124  0.6291 -1.6740  1.0393
   57CHL1   C10 5363   4.698   4.616   4.987 -0.0593  0.4029 -0.3233
   57CHL1   C19 5364   4.553   4.668   4.997  0.1840  0.4605 -0.3127
   57CHL1  H19A 5365   4.500   4.668   4.899 -3.1871 -1.3458  1.3005
   57CHL1  H19B 5366   4.499   4.594   5.061  0.8880 -1.2764 -1.6400
   57CHL1  H19C 5367   4.553   4.774   5.028 -0.3077  0.8743 -1.7016
   57CHL1    C1 5368   4.791   4.712   4.906  0.0081  0.5424  0.2960
   57CHL1   H1A 5369   4.792   4.810   4.958 -2.0842  1.2447 -0.8725
   57CHL1   H1B 5370   4.894   4.671   4.912 -0.2535 -0.0333  1.0366
   57CHL1    C2 5371   4.740   4.729   4.761  0.1561 -0.9212  0.2764
   57CHL1   H2A 5372   4.820   4.783   4.705  1.1933 -0.1819  2.3605
   57CHL1   H2B 5373   4.639   4.776   4.762 -0.6586 -2.5625 -0.5385
   57CHL1   C20 5374   4.789   4.566   5.684  0.9941 -0.0659 -0.0056
   57CHL1   H20 5375   4.762   4.671   5.657 -0.6310  0.0303  1.7410
   57CHL1   C21 5376   4.919   4.571   5.778 -0.4128  0.3234 -0.1870
   57CHL1  H21A 5377   5.006   4.617   5.727  0.7217 -0.8049  0.6654
   57CHL1  H21B 5378   4.956   4.472   5.811  2.7605  1.5653  0.2714
   57CHL1  H21C 5379   4.891   4.617   5.875 -0.5175 -0.9255  0.4043
   57CHL1   C22 5380   4.681   4.488   5.758 -0.0533 -0.1181 -0.2151
   57CHL1  H22A 5381   4.586   4.471   5.702  0.2548 -0.1036 -0.7509
   57CHL1  H22B 5382   4.729   4.391   5.781 -0.9575 -0.3928  0.6115
   57CHL1   C23 5383   4.645   4.539   5.903 -0.3116 -0.0669  0.4121
   57CHL1  H23A 5384   4.726   4.517   5.976 -1.4407 -0.3180  1.6248
   57CHL1  H23B 5385   4.632   4.648   5.887  2.2077  0.1271 -0.8898
   57CHL1   C24 5386   4.516   4.488   5.963  0.3407  0.2013  0.2966
   57CHL1  H24A 5387   4.474   4.544   6.049 -1.1370 -1.6117  0.8121
   57CHL1  H24B 5388   4.436   4.504   5.887  0.1489  1.1961  0.6868
   57CHL1   C25 5389   4.516   4.337   6.010 -0.1052  0.1039  0.3569
   57CHL1   H25 5390   4.535   4.283   5.915  0.7233  0.1561  0.4858
   57CHL1   C26 5391   4.623   4.298   6.117 -0.4743 -0.7170 -0.5794
   57CHL1  H26A 5392   4.600   4.363   6.204 -2.4817 -1.6207 -0.3716
   57CHL1  H26B 5393   4.620   4.190   6.140  0.3719 -0.7885 -0.8000
   57CHL1  H26C 5394   4.726   4.326   6.085 -0.0720 -0.5784  0.7657
   57CHL1   C27 5395   4.372   4.294   6.055  0.2602  0.2589 -0.1106
   57CHL1  H27A 5396   4.378   4.184   6.069  0.2767 -0.2190 -3.2508
   57CHL1  H27B 5397   4.351   4.354   6.147  2.9425  0.0809  0.6948
   57CHL1  H27C 5398   4.289   4.323   5.987  0.3140  1.7595  0.4143
   58CHL1    C3 5399   5.289   5.493   4.495 -0.3015  1.0517 -0.6897
   58CHL1    H3 5400   5.244   5.584   4.541 -1.7899 -0.2876  0.6043
   58CHL1    O3 5401   5.266   5.484   4.359 -0.5851  0.3835 -0.0084
   58CHL1   H3' 5402   5.341   5.528   4.319 -1.4411  0.8040 -1.2178
   58CHL1    C4 5403   5.446   5.499   4.517  0.3149  0.1763 -0.8516
   58CHL1   H4A 5404   5.491   5.402   4.484 -1.1259 -1.2562  1.1314
   58CHL1   H4B 5405   5.485   5.587   4.462 -0.8946 -0.7924 -3.3999
   58CHL1    C5 5406   5.470   5.499   4.670 -0.4453 -0.4133 -0.4360
   58CHL1    C6 5407   5.544   5.598   4.720 -0.0429 -0.2630 -0.5070
   58CHL1    H6 5408   5.595   5.674   4.659  1.3080  0.0069  0.8775
   58CHL1    C7 5409   5.596   5.602   4.863  0.3446  0.7238 -0.0969
   58CHL1   H7A 5410   5.707   5.609   4.857  0.5458 -1.9392 -0.5235
   58CHL1   H7B 5411   5.567   5.694   4.917  3.1411  0.5300  1.9467
   58CHL1    C8 5412   5.557   5.479   4.946  0.0574  0.5450 -0.4602
   58CHL1    H8 5413   5.634   5.403   4.924 -0.1733  0.2605 -0.2954
   58CHL1   C14 5414   5.550   5.507   5.103  0.4160  0.1957 -0.6084
   58CHL1   H14 5415   5.466   5.578   5.121  1.2275  0.9682  0.2402
   58CHL1   C15 5416   5.673   5.582   5.164  0.3278 -0.2029  0.1477
   58CHL1  H15A 5417   5.757   5.532   5.111  0.4439  0.4536 -0.2946
   58CHL1  H15B 5418   5.678   5.680   5.111  0.5084 -2.1866 -3.9159
   58CHL1   C16 5419   5.650   5.557   5.314  0.1748  0.6957 -0.0803
   58CHL1  H16A 5420   5.747   5.518   5.353  1.1514  2.3008 -0.7810
   58CHL1  H16B 5421   5.620   5.651   5.365 -0.7190  0.1442  0.4367
   58CHL1   C17 5422   5.536   5.445   5.334 -0.3764  0.3801 -0.1177
   58CHL1   H17 5423   5.433   5.484   5.350 -0.4681  0.9177 -1.7738
   58CHL1   C13 5424   5.532   5.380   5.196  0.0256  0.5092 -0.2181
   58CHL1   C18 5425   5.650   5.277   5.183 -0.5696  0.2095 -0.0687
   58CHL1  H18A 5426   5.746   5.320   5.219 -0.0881 -0.7469 -0.1483
   58CHL1  H18B 5427   5.633   5.183   5.241  1.2001  0.1496  0.4101
   58CHL1  H18C 5428   5.645   5.243   5.077 -1.7249  0.8802 -0.2352
   58CHL1   C12 5429   5.401   5.316   5.158  0.2047  0.0649  0.3553
   58CHL1  H12A 5430   5.367   5.227   5.215 -1.3357  0.2399 -0.2501
   58CHL1  H12B 5431   5.317   5.386   5.180 -0.6468 -0.8050 -0.0466
   58CHL1   C11 5432   5.387   5.294   5.002  0.1877 -0.0688  0.3860
   58CHL1  H11A 5433   5.464   5.216   4.983  0.0594 -0.2402  0.5506
   58CHL1  H11B 5434   5.282   5.266   4.980 -0.0837  1.2434 -0.0772
   58CHL1    C9 5435   5.426   5.416   4.905 -0.8144 -0.1891 -0.2651
   58CHL1    H9 5436   5.349   5.494   4.920 -0.1570  0.8074 -1.8533
   58CHL1   C10 5437   5.416   5.379   4.754  0.2011  0.0725 -0.7305
   58CHL1   C19 5438   5.489   5.251   4.726  0.2725  0.0407 -0.0977
   58CHL1  H19A 5439   5.424   5.168   4.762  0.2251 -1.0036 -2.3935
   58CHL1  H19B 5440   5.496   5.233   4.616 -0.8727  0.0060 -0.1734
   58CHL1  H19C 5441   5.589   5.249   4.773  0.3563  0.2314 -0.2667
   58CHL1    C1 5442   5.261   5.367   4.710 -0.9246  0.9056 -0.6933
   58CHL1   H1A 5443   5.230   5.273   4.761 -0.1299  0.1055 -1.6658
   58CHL1   H1B 5444   5.208   5.448   4.764  1.0801  0.7904  1.6356
   58CHL1    C2 5445   5.234   5.368   4.565  0.1400  0.8104  0.6370
   58CHL1   H2A 5446   5.126   5.362   4.540  0.6637 -0.4054 -1.5359
   58CHL1   H2B 5447   5.284   5.276   4.529 -2.8550 -1.0990  1.0091
   58CHL1   C20 5448   5.575   5.363   5.461  1.1798 -0.6442 -0.1319
   58CHL1   H20 5449   5.670   5.312   5.436  2.4407  1.0261  1.0647
   58CHL1   C21 5450   5.469   5.247   5.486 -0.4756 -0.3074 -0.1076
   58CHL1  H21A 5451   5.491   5.205   5.586  2.7232  1.7884  0.2207
   58CHL1  H21B 5452   5.487   5.166   5.412  0.6366  1.4292 -1.8421
   58CHL1  H21C 5453   5.367   5.289   5.473 -0.6394 -0.0718  1.6601
   58CHL1   C22 5454   5.596   5.446   5.594 -0.1948 -0.2602  0.3285
   58CHL1  H22A 5455   5.644   5.375   5.665 -0.3596  1.0097  1.7699
   58CHL1  H22B 5456   5.668   5.528   5.576 -0.7770  0.2451  0.2657
   58CHL1   C23 5457   5.465   5.492   5.653 -0.4112 -0.2914 -0.3695
   58CHL1  H23A 5458   5.429   5.571   5.583 -2.9203 -1.2512 -0.2588
   58CHL1  H23B 5459   5.379   5.425   5.675 -1.4455  0.8854 -0.7011
   58CHL1   C24 5460   5.492   5.573   5.779  0.8972  0.2232 -0.1798
   58CHL1  H24A 5461   5.545   5.510   5.855 -1.8417  0.6354  2.2646
   58CHL1  H24B 5462   5.560   5.660   5.761  1.5213 -0.0383  0.7874
   58CHL1   C25 5463   5.360   5.614   5.854  0.1490  0.2438 -0.8052
   58CHL1   H25 5464   5.291   5.535   5.891  1.4861 -0.8776 -0.6399
   58CHL1   C26 5465   5.408   5.691   5.981  0.6985  0.0968  0.3055
   58CHL1  H26A 5466   5.325   5.723   6.048  0.3648  0.0841 -0.0948
   58CHL1  H26B 5467   5.475   5.626   6.042 -1.4702 -0.0220  2.7710
   58CHL1  H26C 5468   5.480   5.775   5.970  1.7483 -0.7954  0.1327
   58CHL1   C27 5469   5.265   5.704   5.762 -0.3581 -0.1320  0.5212
   58CHL1  H27A 5470   5.243   5.648   5.669 -0.0181 -0.5364  0.6835
   58CHL1  H27B 5471   5.174   5.724   5.823 -0.0356 -1.0430  1.3086
   58CHL1  H27C 5472   5.324   5.797   5.745  0.8637 -1.0924 -0.7141
   59CHL1    C3 5473   5.896   2.106   4.906 -0.7728 -0.0618 -0.3393
   59CHL1    H3 5474   5.946   2.205   4.898  1.9899 -1.3236  0.0885
   59CHL1    O3 5475   5.894   2.046   4.774  0.7144 -0.2549 -0.1509
   59CHL1   H3' 5476   5.832   1.973   4.785  0.4860 -0.1494 -0.7266
   59CHL1    C4 5477   5.970   2.012   5.005 -0.2229 -0.2946  0.2245
   59CHL1   H4A 5478   5.918   1.914   5.002  1.7017 -1.3629 -2.3830
   59CHL1   H4B 5479   6.076   2.011   4.970  0.0952  1.9907  0.9024
   59CHL1    C5 5480   5.959   2.070   5.147 -0.5392  0.0889 -0.2257
   59CHL1    C6 5481   6.071   2.090   5.219 -0.5349  0.8504  0.9879
   59CHL1    H6 5482   6.169   2.068   5.173 -1.5053  0.9233 -1.2418
   59CHL1    C7 5483   6.080   2.148   5.352  0.3350 -0.6464 -0.3874
   59CHL1   H7A 5484   6.164   2.119   5.419  1.2895  1.7261 -0.4345
   59CHL1   H7B 5485   6.105   2.256   5.344 -1.3145  0.1179  2.8588
   59CHL1    C8 5486   5.941   2.131   5.415  0.2118 -0.0163  0.8658
   59CHL1    H8 5487   5.926   2.028   5.454  0.4651 -0.6107 -0.5145
   59CHL1   C14 5488   5.934   2.216   5.541 -0.1865 -0.4918 -0.1913
   59CHL1   H14 5489   5.958   2.317   5.502  0.6922  0.3048  2.1918
   59CHL1   C15 5490   6.048   2.205   5.652 -0.4800  0.8861  0.0149
   59CHL1  H15A 5491   6.077   2.102   5.680  3.5578  2.0343  0.6439
   59CHL1  H15B 5492   6.140   2.256   5.618  0.8274 -1.2579  0.1485
   59CHL1   C16 5493   5.987   2.276   5.771 -0.8703  0.0206 -0.2016
   59CHL1  H16A 5494   5.996   2.220   5.867 -4.6659 -0.9550 -0.2300
   59CHL1  H16B 5495   6.027   2.379   5.774  0.2365 -0.3504 -1.2580
   59CHL1   C17 5496   5.828   2.292   5.746 -0.3682 -0.0692 -0.4107
   59CHL1   H17 5497   5.814   2.400   5.726  0.0722  0.1611  0.4795
   59CHL1   C13 5498   5.799   2.214   5.621 -0.1425 -0.1825  0.2009
   59CHL1   C18 5499   5.765   2.068   5.665 -0.1382 -0.4678 -0.0390
   59CHL1  H18A 5500   5.672   2.055   5.725 -1.4682  0.0320 -1.9014
   59CHL1  H18B 5501   5.755   2.006   5.573 -1.3562 -0.8042  0.2994
   59CHL1  H18C 5502   5.851   2.013   5.708  0.0919  0.3568  0.5773
   59CHL1   C12 5503   5.690   2.271   5.529  0.1721 -0.1726  0.3790
   59CHL1  H12A 5504   5.588   2.258   5.572 -0.3121 -1.6192 -1.0742
   59CHL1  H12B 5505   5.705   2.380   5.520  0.3055 -0.2477 -0.3912
   59CHL1   C11 5506   5.693   2.197   5.396 -0.2096 -0.5756 -0.0879
   59CHL1  H11A 5507   5.649   2.097   5.416 -3.6402  1.1450  2.1703
   59CHL1  H11B 5508   5.629   2.252   5.324  0.2072 -1.0166 -0.8009
   59CHL1    C9 5509   5.831   2.185   5.324  0.1087 -0.0711 -0.6310
   59CHL1    H9 5510   5.867   2.288   5.305  0.5799 -0.2827 -0.9155
   59CHL1   C10 5511   5.825   2.103   5.197 -0.1789 -0.2894  0.0930
   59CHL1   C19 5512   5.757   1.970   5.232  0.0427 -0.4289  0.1668
   59CHL1  H19A 5513   5.758   1.903   5.143 -1.8058  1.2142 -1.1547
   59CHL1  H19B 5514   5.792   1.929   5.330 -1.0224  1.0492  1.2056
   59CHL1  H19C 5515   5.648   1.984   5.245 -0.0954 -0.5641 -0.7997
   59CHL1    C1 5516   5.738   2.173   5.090 -0.0395  0.9633 -0.0075
   59CHL1   H1A 5517   5.634   2.165   5.128 -1.4123  1.7774 -3.2059
   59CHL1   H1B 5518   5.754   2.283   5.096 -1.6414  1.2331 -0.2095
   59CHL1    C2 5519   5.748   2.117   4.947  0.0712 -1.3348 -0.2419
   59CHL1   H2A 5520   5.703   2.192   4.879  1.1086  0.4086  0.9077
   59CHL1   H2B 5521   5.700   2.017   4.937 -2.1352 -0.1801 -2.0202
   59CHL1   C20 5522   5.752   2.274   5.874  0.2449 -0.0472  0.7230
   59CHL1   H20 5523   5.742   2.169   5.909 -1.0285 -0.2755 -0.2310
   59CHL1   C21 5524   5.601   2.323   5.847 -0.5169 -0.8576 -1.0346
   59CHL1  H21A 5525   5.539   2.308   5.939  0.3641  2.4210  0.2086
   59CHL1  H21B 5526   5.549   2.271   5.763 -0.1922 -3.0891  0.0666
   59CHL1  H21C 5527   5.593   2.432   5.830  1.1901 -0.6886 -0.8821
   59CHL1   C22 5528   5.815   2.359   5.991  0.6732 -0.3404 -0.0874
   59CHL1  H22A 5529   5.911   2.319   6.029  3.1923  3.4380 -1.8299
   59CHL1  H22B 5530   5.826   2.466   5.963 -1.8187  0.3241  1.1783
   59CHL1   C23 5531   5.730   2.371   6.125 -0.1881  0.4339 -0.2720
   59CHL1  H23A 5532   5.639   2.434   6.113 -0.1017  0.6581  0.2020
   59CHL1  H23B 5533   5.693   2.273   6.161 -1.5825  0.8710 -0.4553
   59CHL1   C24 5534   5.801   2.419   6.246 -0.1020 -0.5877 -0.5723
   59CHL1  H24A 5535   5.889   2.352   6.245 -0.9811 -1.8410  0.8810
   59CHL1  H24B 5536   5.819   2.528   6.235  0.6567 -0.4047  1.8226
   59CHL1   C25 5537   5.702   2.399   6.368  0.3205 -0.0478  0.3879
   59CHL1   H25 5538   5.657   2.299   6.347  1.0717 -0.2906 -0.1245
   59CHL1   C26 5539   5.790   2.399   6.497  0.8409 -0.8047 -0.0297
   59CHL1  H26A 5540   5.852   2.491   6.503  0.2504 -0.4615  1.0228
   59CHL1  H26B 5541   5.730   2.390   6.590  0.7569  1.1503  0.1363
   59CHL1  H26C 5542   5.857   2.310   6.501 -1.0297 -2.2319  0.9021
   59CHL1   C27 5543   5.587   2.501   6.386 -0.5694  0.2045 -0.6693
   59CHL1  H27A 5544   5.521   2.522   6.299  1.2869  0.2689 -2.1399
   59CHL1  H27B 5545   5.541   2.481   6.485 -0.7323  4.3738  0.2887
   59CHL1  H27C 5546   5.636   2.599   6.401  0.8798 -0.5540 -0.2084
   60CHL1    C3 5547   3.978   1.635   4.543 -0.7826  0.0695  0.4948
   60CHL1    H3 5548   4.012   1.539   4.590 -1.1953 -0.2496  0.1539
   60CHL1    O3 5549   3.929   1.605   4.409 -0.2169  0.5214 -0.1907
   60CHL1   H3' 5550   3.919   1.695   4.376  1.7524  0.9399  0.2065
   60CHL1    C4 5551   3.859   1.692   4.627 -0.2719  0.3057  0.3143
   60CHL1   H4A 5552   3.807   1.777   4.579 -1.1715 -2.2020 -3.6460
   60CHL1   H4B 5553   3.780   1.614   4.620 -1.0450  1.0814  0.3446
   60CHL1    C5 5554   3.924   1.721   4.768 -0.1540 -0.3074  0.4022
   60CHL1    C6 5555   3.875   1.670   4.883  0.3089 -0.4701 -0.4552
   60CHL1    H6 5556   3.791   1.599   4.892 -1.1331  1.1039 -1.0636
   60CHL1    C7 5557   3.925   1.715   5.023  0.2194  0.0226 -0.2349
   60CHL1   H7A 5558   3.840   1.770   5.070  0.3226 -0.2647  0.3037
   60CHL1   H7B 5559   3.964   1.632   5.085 -0.9184  0.7766  1.5863
   60CHL1    C8 5560   4.024   1.838   5.022  0.0005  0.4117  0.0700
   60CHL1    H8 5561   3.962   1.930   5.017 -0.9429 -0.2726 -1.8648
   60CHL1   C14 5562   4.094   1.845   5.160 -0.6459  0.0765  0.2688
   60CHL1   H14 5563   4.149   1.750   5.176  1.8850  1.7233  1.9950
   60CHL1   C15 5564   4.014   1.876   5.286  0.0377  0.0940  0.7609
   60CHL1  H15A 5565   3.931   1.948   5.267 -0.4085 -0.5300  0.3170
   60CHL1  H15B 5566   3.976   1.778   5.322 -2.1605  0.5073 -0.2472
   60CHL1   C16 5567   4.110   1.946   5.381 -0.6480  0.3277 -0.4576
   60CHL1  H16A 5568   4.074   2.049   5.403  1.8717  1.1171  0.2873
   60CHL1  H16B 5569   4.114   1.896   5.480  1.2452 -2.1667 -1.6978
   60CHL1   C17 5570   4.249   1.962   5.315 -0.1569  0.8812 -0.3175
   60CHL1   H17 5571   4.304   1.866   5.326  1.3848  1.5885 -1.5346
   60CHL1   C13 5572   4.214   1.953   5.157 -0.3578  0.5735 -0.5087
   60CHL1   C18 5573   4.156   2.087   5.115  0.4412 -0.6253  0.0940
   60CHL1  H18A 5574   4.091   2.131   5.194  1.3257 -0.0904  0.5321
   60CHL1  H18B 5575   4.242   2.157   5.107 -0.8329  1.4652  2.7267
   60CHL1  H18C 5576   4.091   2.083   5.025 -0.3130 -2.0023  0.6648
   60CHL1   C12 5577   4.318   1.906   5.067  0.7312  0.0651  0.6189
   60CHL1  H12A 5578   4.393   1.986   5.052 -0.3702  0.9092 -0.6196
   60CHL1  H12B 5579   4.367   1.817   5.114  1.2728  1.8759  3.7613
   60CHL1   C11 5580   4.256   1.901   4.926 -0.3000  0.3668  0.1988
   60CHL1  H11A 5581   4.255   2.005   4.885  1.8342  0.2062 -0.3548
   60CHL1  H11B 5582   4.331   1.850   4.862  0.2677  2.5385 -0.9847
   60CHL1    C9 5583   4.129   1.808   4.915  0.3677 -0.8570  0.3696
   60CHL1    H9 5584   4.170   1.707   4.936 -1.1901 -1.6989 -0.4525
   60CHL1   C10 5585   4.060   1.805   4.768 -0.6028  0.1708 -0.3223
   60CHL1   C19 5586   4.027   1.950   4.729  0.2657  0.8075  0.2218
   60CHL1  H19A 5587   4.114   2.012   4.700  1.0684 -0.3810  0.0079
   60CHL1  H19B 5588   3.953   1.951   4.646  0.2744  0.5725  0.2098
   60CHL1  H19C 5589   3.970   1.986   4.817 -1.0323  0.4510 -0.4444
   60CHL1    C1 5590   4.158   1.743   4.669 -0.2126  0.1964 -0.1818
   60CHL1   H1A 5591   4.250   1.800   4.646 -1.4330  2.5420  0.4246
   60CHL1   H1B 5592   4.196   1.642   4.695 -0.7477 -0.3854 -1.5820
   60CHL1    C2 5593   4.098   1.729   4.531  0.0207 -0.6039  0.8167
   60CHL1   H2A 5594   4.166   1.686   4.455 -0.1537  4.0461 -2.4091
   60CHL1   H2B 5595   4.054   1.823   4.492 -0.7093 -0.6529  1.4805
   60CHL1   C20 5596   4.332   2.079   5.371 -0.0545 -0.4482  0.8565
   60CHL1   H20 5597   4.276   2.173   5.353  2.0056  1.0601  2.0264
   60CHL1   C21 5598   4.469   2.088   5.298 -0.2621  0.0101 -0.2359
   60CHL1  H21A 5599   4.496   1.984   5.270 -2.0926 -0.4556 -0.3395
   60CHL1  H21B 5600   4.556   2.123   5.359 -0.0915 -0.5887 -0.1334
   60CHL1  H21C 5601   4.456   2.158   5.212  1.7920  1.1361  0.2859
   60CHL1   C22 5602   4.361   2.071   5.527  0.5021 -0.7072  0.0618
   60CHL1  H22A 5603   4.438   2.142   5.563 -1.0038  0.3281  1.4306
   60CHL1  H22B 5604   4.270   2.107   5.580 -0.3898  1.3858 -2.6893
   60CHL1   C23 5605   4.396   1.932   5.587 -0.1738  0.0791 -0.3424
   60CHL1  H23A 5606   4.308   1.868   5.568  0.5572 -1.4742  1.2571
   60CHL1  H23B 5607   4.484   1.896   5.530 -0.2309 -0.8966  0.1657
   60CHL1   C24 5608   4.413   1.923   5.736  0.4991 -0.0099 -0.6103
   60CHL1  H24A 5609   4.522   1.916   5.753  0.6210  2.8557  0.3528
   60CHL1  H24B 5610   4.384   2.023   5.775 -0.7729 -0.0483 -1.3882
   60CHL1   C25 5611   4.346   1.806   5.809  0.6177 -0.1872  0.0567
   60CHL1   H25 5612   4.237   1.804   5.792  0.6711  0.8272 -0.5095
   60CHL1   C26 5613   4.402   1.672   5.767 -0.1363 -0.7081  0.3047
   60CHL1  H26A 5614   4.401   1.660   5.656 -0.8954 -0.3820  0.2704
   60CHL1  H26B 5615   4.509   1.672   5.797 -0.3261  0.8484  1.1019
   60CHL1  H26C 5616   4.351   1.589   5.821  0.0730  0.6324  2.7074
   60CHL1   C27 5617   4.361   1.812   5.960 -0.0049  0.0679 -0.0256
   60CHL1  H27A 5618   4.328   1.912   5.995 -2.9340  0.2543 -2.8901
   60CHL1  H27B 5619   4.293   1.734   6.001 -0.1786  0.0488 -0.3460
   60CHL1  H27C 5620   4.464   1.795   5.997 -0.5725 -0.8028  1.2303
   61CHL1    C3 5621   2.222   5.066   4.494 -0.7165  0.1935  0.5753
   61CHL1    H3 5622   2.138   5.021   4.551  0.6591 -2.1657  0.8735
   61CHL1    O3 5623   2.181   5.104   4.362 -0.3235  0.2263 -0.2558
   61CHL1   H3' 5624   2.160   5.023   4.314  1.1678 -0.5180  0.2770
   61CHL1    C4 5625   2.273   5.202   4.558 -0.1164  0.6362  0.1887
   61CHL1   H4A 5626   2.357   5.242   4.497  0.5730  0.2800  0.8770
   61CHL1   H4B 5627   2.194   5.279   4.551  0.2662  0.9481 -0.7065
   61CHL1    C5 5628   2.322   5.167   4.695  0.2405  0.0303 -0.0615
   61CHL1    C6 5629   2.264   5.229   4.803 -0.4132  1.0540  0.4301
   61CHL1    H6 5630   2.181   5.301   4.792 -1.1693  0.2361  0.6919
   61CHL1    C7 5631   2.285   5.207   4.949  0.0200  0.4740  0.5229
   61CHL1   H7A 5632   2.299   5.296   5.013  2.3776  0.0262  0.7343
   61CHL1   H7B 5633   2.202   5.142   4.985  0.3261 -0.7162 -0.8045
   61CHL1    C8 5634   2.415   5.124   4.961  0.4272 -0.2910  0.4456
   61CHL1    H8 5635   2.498   5.198   4.953 -1.5454  2.0874  1.0476
   61CHL1   C14 5636   2.433   5.069   5.111  0.3103  0.7190  0.6496
   61CHL1   H14 5637   2.339   5.011   5.121 -0.8946  2.5423  0.5577
   61CHL1   C15 5638   2.434   5.166   5.222 -0.0835 -0.3831  0.1749
   61CHL1  H15A 5639   2.503   5.243   5.181 -0.1496  0.7691  2.1434
   61CHL1  H15B 5640   2.332   5.204   5.243 -1.5213 -1.7282 -3.4569
   61CHL1   C16 5641   2.510   5.089   5.337 -0.1248 -0.2093 -0.7984
   61CHL1  H16A 5642   2.597   5.156   5.357 -2.3155  2.7294 -0.3347
   61CHL1  H16B 5643   2.450   5.081   5.431 -1.3228 -1.3147 -1.6339
   61CHL1   C17 5644   2.551   4.956   5.288  0.3873 -0.1609 -0.1534
   61CHL1   H17 5645   2.467   4.888   5.313 -1.6369  1.9569 -0.8917
   61CHL1   C13 5646   2.558   4.974   5.129  0.5799 -0.7844 -0.4871
   61CHL1   C18 5647   2.683   5.050   5.093 -0.0943 -0.1231 -0.2931
   61CHL1  H18A 5648   2.778   4.995   5.108 -1.4452 -2.3292  0.4839
   61CHL1  H18B 5649   2.675   5.098   4.993 -0.5424  0.7046  0.1274
   61CHL1  H18C 5650   2.689   5.140   5.158 -2.4795  0.2119 -0.4419
   61CHL1   C12 5651   2.540   4.854   5.045  0.4265  0.5501 -0.0073
   61CHL1  H12A 5652   2.629   4.788   5.038 -0.5710 -0.6890 -1.8770
   61CHL1  H12B 5653   2.445   4.804   5.074 -0.2398  0.0708 -2.7586
   61CHL1   C11 5654   2.529   4.893   4.897 -0.1690  1.0023 -0.1668
   61CHL1  H11A 5655   2.630   4.926   4.864  1.3882 -0.0130  3.0882
   61CHL1  H11B 5656   2.513   4.795   4.846 -1.0907  2.3630 -2.6266
   61CHL1    C9 5657   2.420   5.002   4.863  0.5099 -0.5263  0.0381
   61CHL1    H9 5658   2.323   4.953   4.883 -0.4773  1.2730 -0.1571
   61CHL1   C10 5659   2.417   5.049   4.714  0.7366 -0.4977  0.6076
   61CHL1   C19 5660   2.554   5.103   4.671 -0.7133  0.6887 -0.5325
   61CHL1  H19A 5661   2.632   5.024   4.678  0.1135  1.4458 -0.8663
   61CHL1  H19B 5662   2.550   5.140   4.567 -1.4351  0.0864 -0.7250
   61CHL1  H19C 5663   2.587   5.186   4.739  1.6986 -2.1482  2.0974
   61CHL1    C1 5664   2.382   4.920   4.629 -0.0337  0.2350 -0.5306
   61CHL1   H1A 5665   2.466   4.846   4.623 -0.2945 -0.0739 -0.3758
   61CHL1   H1B 5666   2.293   4.877   4.678  0.4237  0.6480  0.6961
   61CHL1    C2 5667   2.328   4.951   4.489  0.6294 -1.0724 -0.6298
   61CHL1   H2A 5668   2.287   4.853   4.455 -2.0343  0.2078 -1.3483
   61CHL1   H2B 5669   2.420   4.972   4.431  1.0654 -0.8512  0.1228
   61CHL1   C20 5670   2.677   4.904   5.356  0.1383  0.4154  0.3165
   61CHL1   H20 5671   2.758   4.971   5.321  1.7347 -0.7731  1.6138
   61CHL1   C21 5672   2.706   4.763   5.314 -0.2456  0.1174 -0.4875
   61CHL1  H21A 5673   2.740   4.756   5.208 -0.1163 -0.8379 -0.3983
   61CHL1  H21B 5674   2.611   4.707   5.324 -0.5090  0.5724 -0.4650
   61CHL1  H21C 5675   2.790   4.718   5.371  0.5300  2.1723  0.0608
   61CHL1   C22 5676   2.679   4.917   5.511 -0.1035  0.4423 -0.1741
   61CHL1  H22A 5677   2.772   4.876   5.557 -1.2126 -1.7598  0.2183
   61CHL1  H22B 5678   2.678   5.020   5.554  1.8232 -0.5119  2.3927
   61CHL1   C23 5679   2.561   4.836   5.585 -0.0212 -1.0969 -0.4857
   61CHL1  H23A 5680   2.470   4.900   5.578  2.1293  3.3019  4.5106
   61CHL1  H23B 5681   2.553   4.740   5.531 -0.2826 -0.1636 -2.1767
   61CHL1   C24 5682   2.590   4.819   5.735 -0.2713  0.4356 -0.1508
   61CHL1  H24A 5683   2.689   4.773   5.753  0.6282  2.0807 -0.7192
   61CHL1  H24B 5684   2.599   4.923   5.772 -0.5615  0.9788 -1.5419
   61CHL1   C25 5685   2.476   4.751   5.811  0.4735  0.5549  0.1241
   61CHL1   H25 5686   2.475   4.643   5.787 -0.1318  0.4269  0.6711
   61CHL1   C26 5687   2.494   4.754   5.965 -0.4234 -0.1265  0.2111
   61CHL1  H26A 5688   2.587   4.699   5.991 -1.1703 -1.0473  0.9988
   61CHL1  H26B 5689   2.504   4.860   5.995 -2.0447  0.4801 -1.2355
   61CHL1  H26C 5690   2.411   4.711   6.024  1.9642 -2.7114  1.9264
   61CHL1   C27 5691   2.334   4.805   5.772  0.2938 -0.0822  0.2240
   61CHL1  H27A 5692   2.338   4.915   5.757 -0.7583  0.2555  2.1200
   61CHL1  H27B 5693   2.307   4.764   5.673 -1.5484 -0.5019  0.8679
   61CHL1  H27C 5694   2.258   4.779   5.849  0.1125 -2.0997 -0.5783
   62CHL1    C3 5695   6.933   4.919   4.470 -0.1247  0.1495 -0.2934
   62CHL1    H3 5696   7.041   4.943   4.472  0.0448 -0.4019 -1.6432
   62CHL1    O3 5697   6.897   4.906   4.336  0.0064  0.3407  0.4096
   62CHL1   H3' 5698   6.929   4.983   4.288  0.1305  0.1031  0.1025
   62CHL1    C4 5699   6.927   4.778   4.528 -0.1405 -0.7506  0.3438
   62CHL1   H4A 5700   6.827   4.733   4.510 -0.1497 -0.3507 -0.6762
   62CHL1   H4B 5701   7.001   4.722   4.467 -0.7658 -0.1677 -1.0050
   62CHL1    C5 5702   6.968   4.789   4.673  0.6897 -0.1938 -0.4107
   62CHL1    C6 5703   7.081   4.726   4.720 -0.1234  0.1038 -1.1574
   62CHL1    H6 5704   7.132   4.661   4.648 -1.4512 -5.2944  2.2347
   62CHL1    C7 5705   7.108   4.719   4.872  0.4377  0.4357 -0.5532
   62CHL1   H7A 5706   7.108   4.612   4.900  0.6579  0.1892 -1.4586
   62CHL1   H7B 5707   7.202   4.774   4.893  0.5708  0.3768 -0.9791
   62CHL1    C8 5708   6.996   4.780   4.959 -0.1898  0.1700  0.3112
   62CHL1    H8 5709   6.919   4.701   4.970  0.2141 -0.1833  0.6425
   62CHL1   C14 5710   7.058   4.811   5.098  0.4460  0.1740  0.4073
   62CHL1   H14 5711   7.133   4.889   5.072 -1.2692  0.9592 -2.7869
   62CHL1   C15 5712   7.137   4.702   5.164  0.4431 -0.2486 -0.5232
   62CHL1  H15A 5713   7.077   4.609   5.155  0.5148 -0.3317 -0.1877
   62CHL1  H15B 5714   7.240   4.680   5.129  0.2563 -2.1331 -0.0606
   62CHL1   C16 5715   7.130   4.741   5.313  0.3256  0.0512 -0.2315
   62CHL1  H16A 5716   7.084   4.656   5.368  1.7152 -1.2387 -0.9917
   62CHL1  H16B 5717   7.230   4.765   5.356  0.1567  1.0250 -0.3464
   62CHL1   C17 5718   7.040   4.872   5.318 -0.6269 -0.1254  0.1636
   62CHL1   H17 5719   7.103   4.961   5.299 -0.6849 -0.4936 -2.0376
   62CHL1   C13 5720   6.951   4.858   5.199  0.6789  0.4272 -0.2579
   62CHL1   C18 5721   6.846   4.746   5.225  0.2071 -0.2799  0.0180
   62CHL1  H18A 5722   6.769   4.783   5.296 -1.1408 -0.9454 -1.0543
   62CHL1  H18B 5723   6.787   4.719   5.134  1.4831 -1.0979 -0.5969
   62CHL1  H18C 5724   6.894   4.652   5.260  0.2426 -0.9445 -1.7187
   62CHL1   C12 5725   6.890   4.990   5.140  0.3849 -0.7641 -0.1556
   62CHL1  H12A 5726   6.809   5.030   5.205 -0.4032 -0.8236 -1.0840
   62CHL1  H12B 5727   6.968   5.069   5.134  0.0791 -0.5021 -0.7859
   62CHL1   C11 5728   6.835   4.964   4.999  0.9033 -0.8802  0.2058
   62CHL1  H11A 5729   6.738   4.908   5.000  0.5033 -0.2469 -0.8916
   62CHL1  H11B 5730   6.791   5.055   4.952  0.1534 -1.7963 -0.9345
   62CHL1    C9 5731   6.932   4.904   4.898  0.4946  0.1326  0.0901
   62CHL1    H9 5732   7.007   4.986   4.895  0.1296  0.4634 -0.1393
   62CHL1   C10 5733   6.881   4.890   4.751 -0.8497  0.2461  0.6450
   62CHL1   C19 5734   6.739   4.824   4.759 -0.0546  0.4545 -0.0963
   62CHL1  H19A 5735   6.673   4.907   4.793  1.3296  1.0258  1.3507
   62CHL1  H19B 5736   6.698   4.800   4.659 -0.2121 -1.7508  0.4426
   62CHL1  H19C 5737   6.739   4.733   4.823 -0.2758 -1.1992 -2.3464
   62CHL1    C1 5738   6.864   5.036   4.689 -0.2652 -0.3243 -0.4298
   62CHL1   H1A 5739   6.773   5.078   4.738 -1.0983 -0.9618 -1.3938
   62CHL1   H1B 5740   6.954   5.096   4.716 -0.0933 -0.1873 -1.2556
   62CHL1    C2 5741   6.844   5.018   4.539  0.8403  0.2884 -0.3330
   62CHL1   H2A 5742   6.848   5.114   4.483 -0.2995  0.7875  0.4139
   62CHL1   H2B 5743   6.737   4.995   4.519  0.8711  1.2962 -1.8043
   62CHL1   C20 5744   6.975   4.895   5.457 -1.0944 -0.2453 -0.0654
   62CHL1   H20 5745   6.904   4.813   5.482 -1.6018 -0.3042 -1.6228
   62CHL1   C21 5746   6.901   5.026   5.463  0.0284 -0.8419 -0.7107
   62CHL1  H21A 5747   6.961   5.115   5.434 -0.9598  1.0833  2.5734
   62CHL1  H21B 5748   6.874   5.047   5.569 -0.7431  2.6383 -1.4865
   62CHL1  H21C 5749   6.804   5.018   5.409 -0.6516 -1.7310  0.5600
   62CHL1   C22 5750   7.081   4.896   5.570  0.7986 -0.4205  0.3948
   62CHL1  H22A 5751   7.149   4.812   5.547 -0.7907 -1.0586 -2.4393
   62CHL1  H22B 5752   7.129   4.996   5.576 -2.0627  1.3642 -2.8966
   62CHL1   C23 5753   7.024   4.888   5.711  0.6172  0.3548  0.1512
   62CHL1  H23A 5754   6.959   4.977   5.728  2.0013  2.1808 -3.1406
   62CHL1  H23B 5755   6.967   4.794   5.725  0.8805  0.5133  2.6226
   62CHL1   C24 5756   7.139   4.888   5.810  0.1664  0.9712  0.2343
   62CHL1  H24A 5757   7.197   4.795   5.794 -3.0869 -1.1363 -0.3508
   62CHL1  H24B 5758   7.204   4.974   5.782  1.4556 -0.5625 -1.6726
   62CHL1   C25 5759   7.092   4.894   5.949  0.0705  0.6117 -0.8755
   62CHL1   H25 5760   7.036   4.989   5.966 -1.2565 -0.4018  0.6514
   62CHL1   C26 5761   7.017   4.769   5.984 -0.4599 -0.0238 -0.0705
   62CHL1  H26A 5762   6.988   4.766   6.092 -1.7801 -2.3453 -0.4398
   62CHL1  H26B 5763   6.928   4.768   5.918  1.2382  1.3552 -2.5632
   62CHL1  H26C 5764   7.077   4.679   5.959 -0.1906  0.8232 -2.8135
   62CHL1   C27 5765   7.204   4.905   6.057  0.4651 -0.3058 -0.3948
   62CHL1  H27A 5766   7.191   4.829   6.137 -1.4998  0.2047 -0.1857
   62CHL1  H27B 5767   7.305   4.886   6.014  1.5601 -0.6008  2.1190
   62CHL1  H27C 5768   7.197   5.005   6.104 -0.6566 -0.7932  0.5091
   63CHL1    C3 5769   6.096   2.471   5.015  0.0097  0.4587 -0.3254
   63CHL1    H3 5770   6.050   2.374   5.044 -1.0116  0.9371 -0.2999
   63CHL1    O3 5771   6.127   2.467   4.873 -0.0753 -0.8355 -0.3345
   63CHL1   H3' 5772   6.143   2.561   4.864 -0.3556 -0.6115  1.2070
   63CHL1    C4 5773   6.004   2.591   5.043  0.2699  0.7376 -0.1285
   63CHL1   H4A 5774   6.033   2.692   5.007 -0.4442  0.8456 -0.4172
   63CHL1   H4B 5775   5.917   2.558   4.983  1.5606 -1.3985 -0.9353
   63CHL1    C5 5776   5.980   2.616   5.191 -0.5034  0.4028  0.3971
   63CHL1    C6 5777   5.858   2.614   5.242  0.1119  0.0115  0.1057
   63CHL1    H6 5778   5.762   2.594   5.192  0.0853 -1.0351  0.5410
   63CHL1    C7 5779   5.828   2.644   5.389 -0.7724 -0.0777  0.8279
   63CHL1   H7A 5780   5.741   2.711   5.405 -1.0160  0.3294 -1.7531
   63CHL1   H7B 5781   5.802   2.545   5.432  0.9530 -0.0253  2.0810
   63CHL1    C8 5782   5.955   2.690   5.469 -0.2958 -0.0202  0.0043
   63CHL1    H8 5783   5.960   2.801   5.459  0.5975 -0.0894 -0.4136
   63CHL1   C14 5784   5.942   2.667   5.623 -0.3320 -0.0340  0.0819
   63CHL1   H14 5785   5.926   2.559   5.639  0.1095 -0.2657 -0.9694
   63CHL1   C15 5786   5.822   2.740   5.688  0.0651  0.1459 -0.0018
   63CHL1  H15A 5787   5.815   2.847   5.662  0.9018  0.5105  1.1943
   63CHL1  H15B 5788   5.719   2.707   5.664  0.5462  0.0277 -2.1386
   63CHL1   C16 5789   5.865   2.742   5.840  0.4888 -0.3656  0.3556
   63CHL1  H16A 5790   5.866   2.843   5.886  0.7388  0.7989 -2.0800
   63CHL1  H16B 5791   5.795   2.678   5.898  0.0615 -0.6163 -0.4248
   63CHL1   C17 5792   6.008   2.692   5.842  0.4462 -0.8861  0.2303
   63CHL1   H17 5793   6.005   2.581   5.849  1.5814 -1.1079 -1.9617
   63CHL1   C13 5794   6.061   2.720   5.704  0.4101  0.1827  0.2275
   63CHL1   C18 5795   6.107   2.864   5.681  1.0977  0.7960  0.1315
   63CHL1  H18A 5796   6.140   2.888   5.577  1.9155 -1.0904 -0.0805
   63CHL1  H18B 5797   6.025   2.936   5.702  0.5845 -0.0341  1.0206
   63CHL1  H18C 5798   6.190   2.883   5.752  1.1541 -0.0708  0.3077
   63CHL1   C12 5799   6.183   2.633   5.667 -0.3285 -0.1000  0.6567
   63CHL1  H12A 5800   6.272   2.673   5.720  0.9790  1.9243 -2.7377
   63CHL1  H12B 5801   6.162   2.526   5.689 -2.0093  0.6283  2.8545
   63CHL1   C11 5802   6.211   2.645   5.514 -0.0801  0.6856 -0.8454
   63CHL1  H11A 5803   6.267   2.739   5.496 -1.2773  1.7285  0.6193
   63CHL1  H11B 5804   6.277   2.557   5.501 -1.0675 -0.2752  0.3764
   63CHL1    C9 5805   6.083   2.619   5.423  0.4384  0.4838 -0.6173
   63CHL1    H9 5806   6.070   2.511   5.442  0.1253  0.4669 -0.9133
   63CHL1   C10 5807   6.109   2.624   5.274 -0.1817 -0.3707  0.4434
   63CHL1   C19 5808   6.175   2.762   5.254 -0.1356  0.6251 -0.2567
   63CHL1  H19A 5809   6.118   2.838   5.312 -0.3218  0.2905  0.0022
   63CHL1  H19B 5810   6.280   2.773   5.289  0.0382  1.8890 -1.0916
   63CHL1  H19C 5811   6.178   2.790   5.147 -1.9244  0.7462 -0.2978
   63CHL1    C1 5812   6.219   2.521   5.237 -0.0947 -0.0053 -0.1784
   63CHL1   H1A 5813   6.321   2.551   5.268  0.1093 -1.2858  0.4469
   63CHL1   H1B 5814   6.193   2.431   5.297 -2.8262 -0.2192 -1.5349
   63CHL1    C2 5815   6.231   2.485   5.086  0.0526 -0.5812 -0.5235
   63CHL1   H2A 5816   6.290   2.392   5.078  0.4479 -0.5808  1.8064
   63CHL1   H2B 5817   6.287   2.568   5.036  1.7907 -1.1743  0.3614
   63CHL1   C20 5818   6.105   2.736   5.960  0.3002 -0.7139  0.7063
   63CHL1   H20 5819   6.208   2.716   5.926  0.3470  2.4071 -1.3106
   63CHL1   C21 5820   6.071   2.640   6.072 -0.0459  0.2733 -0.2469
   63CHL1  H21A 5821   6.140   2.654   6.158  0.2070 -1.9229 -0.0418
   63CHL1  H21B 5822   6.082   2.536   6.035 -2.7906  0.1499 -0.9836
   63CHL1  H21C 5823   5.967   2.640   6.111  0.8004  0.3219  2.2304
   63CHL1   C22 5824   6.102   2.881   6.007 -0.0842  0.0655  0.0838
   63CHL1  H22A 5825   6.090   2.959   5.928  0.1214  0.7591  0.7273
   63CHL1  H22B 5826   6.007   2.896   6.062 -0.6313  0.9681 -1.0422
   63CHL1   C23 5827   6.206   2.922   6.100 -0.6832 -0.5039 -0.5410
   63CHL1  H23A 5828   6.226   2.854   6.186  0.7453 -0.8616 -1.1268
   63CHL1  H23B 5829   6.301   2.925   6.043 -0.6121 -2.1664 -0.5663
   63CHL1   C24 5830   6.182   3.061   6.169  0.0605  0.0439 -0.4273
   63CHL1  H24A 5831   6.172   3.131   6.083  0.5931 -1.0715 -1.4398
   63CHL1  H24B 5832   6.085   3.061   6.222 -0.7225 -1.7553 -1.7458
   63CHL1   C25 5833   6.298   3.109   6.253  0.0097  0.0630 -0.2212
   63CHL1   H25 5834   6.344   3.026   6.310  0.3314  1.7525  2.1032
   63CHL1   C26 5835   6.411   3.162   6.156 -0.9358 -0.4358  0.3028
   63CHL1  H26A 5836   6.431   3.078   6.086  1.6608  0.2719  0.0888
   63CHL1  H26B 5837   6.374   3.259   6.117 -0.5655 -0.2072  0.5161
   63CHL1  H26C 5838   6.500   3.182   6.219 -0.1556  0.2120 -0.9665
   63CHL1   C27 5839   6.246   3.226   6.337 -0.1086 -0.5210 -0.6687
   63CHL1  H27A 5840   6.201   3.306   6.275  0.7622 -0.5682 -1.3681
   63CHL1  H27B 5841   6.165   3.199   6.409 -0.3838 -0.3822 -0.9269
   63CHL1  H27C 5842   6.327   3.270   6.400 -0.6954  0.9125 -0.8956
   64CHL1    C3 5843   1.517   3.708   4.556 -0.0228  0.5656 -1.2183
   64CHL1    H3 5844   1.420   3.655   4.567  0.7654 -1.2278 -2.4770
   64CHL1    O3 5845   1.572   3.676   4.425  0.1156 -0.0474  0.1607
   64CHL1   H3' 5846   1.531   3.739   4.365 -0.7814  1.1880  1.9499
   64CHL1    C4 5847   1.479   3.864   4.560  0.0713  0.3755 -0.0989
   64CHL1   H4A 5848   1.574   3.918   4.540  0.6455 -0.5453  0.0911
   64CHL1   H4B 5849   1.407   3.889   4.479  2.9324  0.4810 -2.7933
   64CHL1    C5 5850   1.442   3.899   4.699  0.6721 -0.4627 -0.0323
   64CHL1    C6 5851   1.318   3.950   4.724 -0.3697 -0.0362  0.4090
   64CHL1    H6 5852   1.249   3.978   4.642 -2.6574 -2.4319  1.3761
   64CHL1    C7 5853   1.276   3.985   4.866 -0.1994  0.6727  0.3266
   64CHL1   H7A 5854   1.214   4.077   4.858 -1.0285  0.1009  0.1165
   64CHL1   H7B 5855   1.214   3.905   4.910  2.0054 -1.3669 -0.0324
   64CHL1    C8 5856   1.394   4.014   4.957 -0.2636  0.0485 -0.4167
   64CHL1    H8 5857   1.449   4.102   4.917  1.4845 -1.0486 -0.5341
   64CHL1   C14 5858   1.344   4.050   5.095 -0.3293  0.0390  0.0882
   64CHL1   H14 5859   1.277   3.965   5.119  1.5106 -2.4846 -2.8655
   64CHL1   C15 5860   1.254   4.176   5.108 -0.1889  0.1749  0.2794
   64CHL1  H15A 5861   1.298   4.266   5.060  0.3508 -0.4647 -0.4459
   64CHL1  H15B 5862   1.146   4.164   5.089  0.0707 -1.1218 -0.5212
   64CHL1   C16 5863   1.260   4.202   5.260  0.3749  0.0995  0.2128
   64CHL1  H16A 5864   1.282   4.310   5.280  0.7485  0.2114 -0.7708
   64CHL1  H16B 5865   1.158   4.186   5.302 -0.4780  1.5989 -1.1609
   64CHL1   C17 5866   1.374   4.112   5.322 -0.1139 -0.2875 -0.0837
   64CHL1   H17 5867   1.327   4.021   5.364  0.5271  0.1255  1.6009
   64CHL1   C13 5868   1.458   4.067   5.199  0.2359 -0.2956  0.2389
   64CHL1   C18 5869   1.550   4.181   5.155 -0.3609 -0.3498 -0.4747
   64CHL1  H18A 5870   1.591   4.155   5.055  2.6685  2.1880 -0.0389
   64CHL1  H18B 5871   1.511   4.285   5.152  0.9648  0.1612 -0.7146
   64CHL1  H18C 5872   1.637   4.180   5.224 -2.3870  0.4374  2.2534
   64CHL1   C12 5873   1.532   3.931   5.207 -0.0926 -0.0665 -0.0332
   64CHL1  H12A 5874   1.624   3.935   5.269  1.7758  0.9868 -2.6869
   64CHL1  H12B 5875   1.456   3.857   5.241 -1.7735  2.7698  3.0132
   64CHL1   C11 5876   1.586   3.879   5.073 -0.5460  0.1868  0.2427
   64CHL1  H11A 5877   1.679   3.938   5.058  1.0486 -1.2881  3.3188
   64CHL1  H11B 5878   1.624   3.776   5.090 -0.3023  0.3215  0.5207
   64CHL1    C9 5879   1.483   3.885   4.957 -0.5239 -0.8968  0.3255
   64CHL1    H9 5880   1.415   3.801   4.985  0.8585 -2.9214 -2.0413
   64CHL1   C10 5881   1.540   3.860   4.812 -0.2928 -0.6387  0.4509
   64CHL1   C19 5882   1.662   3.950   4.802  0.1612  0.0159 -0.1035
   64CHL1  H19A 5883   1.744   3.906   4.863  0.4001 -0.0210 -0.4547
   64CHL1  H19B 5884   1.684   3.958   4.694  0.0779  0.1633 -0.1087
   64CHL1  H19C 5885   1.637   4.050   4.843  0.8757  0.8308 -1.5845
   64CHL1    C1 5886   1.575   3.710   4.815  0.0844 -0.0282  0.0464
   64CHL1   H1A 5887   1.657   3.706   4.889 -0.2428  2.3692  0.6369
   64CHL1   H1B 5888   1.491   3.652   4.859  0.7779 -0.3940  0.9054
   64CHL1    C2 5889   1.610   3.661   4.673 -0.0166  0.3198  0.5875
   64CHL1   H2A 5890   1.619   3.550   4.677 -2.8714 -0.1540 -2.1393
   64CHL1   H2B 5891   1.711   3.698   4.646 -0.0352  1.4187  1.9284
   64CHL1   C20 5892   1.437   4.173   5.453 -0.3509 -0.1942  0.0638
   64CHL1   H20 5893   1.483   4.273   5.442  0.4947 -0.2816  2.3051
   64CHL1   C21 5894   1.558   4.093   5.512  0.0215  0.0254 -0.6094
   64CHL1  H21A 5895   1.520   3.996   5.552 -1.6724  0.8844 -0.0668
   64CHL1  H21B 5896   1.614   4.132   5.600 -0.7392 -2.6364  1.2206
   64CHL1  H21C 5897   1.631   4.073   5.431  0.5916 -1.2457  0.1831
   64CHL1   C22 5898   1.322   4.189   5.557 -0.0677  0.4337 -1.1073
   64CHL1  H22A 5899   1.239   4.250   5.516  0.3288  0.5611 -1.7439
   64CHL1  H22B 5900   1.281   4.087   5.575  0.7894  0.2347 -0.1234
   64CHL1   C23 5901   1.359   4.255   5.693 -0.0139 -0.7722 -0.1789
   64CHL1  H23A 5902   1.433   4.189   5.744  1.8255 -0.8385 -2.7447
   64CHL1  H23B 5903   1.415   4.348   5.670 -0.6607  0.4366  2.6868
   64CHL1   C24 5904   1.235   4.291   5.792 -0.4768  0.0877  0.4063
   64CHL1  H24A 5905   1.202   4.390   5.752 -1.0582 -0.3811 -0.2939
   64CHL1  H24B 5906   1.152   4.219   5.776 -1.9255  1.4125  1.5105
   64CHL1   C25 5907   1.276   4.284   5.939  0.8698  0.4240  0.6349
   64CHL1   H25 5908   1.292   4.176   5.960  1.0820  0.3128 -0.0502
   64CHL1   C26 5909   1.398   4.361   5.968  0.0727  0.1999 -0.4908
   64CHL1  H26A 5910   1.428   4.337   6.072 -0.9009 -1.0446 -0.4631
   64CHL1  H26B 5911   1.486   4.337   5.905 -0.1282  0.6567 -0.9453
   64CHL1  H26C 5912   1.379   4.470   5.961 -1.6951 -0.0335  0.0654
   64CHL1   C27 5913   1.158   4.331   6.026 -0.1340  0.1870  0.1073
   64CHL1  H27A 5914   1.144   4.441   6.031  1.8081  0.4172  1.4441
   64CHL1  H27B 5915   1.063   4.276   6.008  1.1016 -1.7054 -0.9389
   64CHL1  H27C 5916   1.174   4.306   6.133 -1.8828 -1.7311 -0.0039
   65CHL1    C3 5917   1.868   1.139   4.808 -0.1488  0.2402  1.0873
   65CHL1    H3 5918   1.968   1.099   4.832  0.9989  1.4179 -1.3636
   65CHL1    O3 5919   1.846   1.130   4.666 -0.2377 -0.2438 -0.1108
   65CHL1   H3' 5920   1.751   1.115   4.656 -0.0085 -3.0376  0.9346
   65CHL1    C4 5921   1.741   1.069   4.870 -0.6293 -0.1329  0.6744
   65CHL1   H4A 5922   1.657   1.124   4.822 -0.6421 -0.3806  0.4081
   65CHL1   H4B 5923   1.745   0.961   4.843 -0.5653 -0.2093  0.9827
   65CHL1    C5 5924   1.749   1.089   5.019  0.3834 -0.2144  0.3907
   65CHL1    C6 5925   1.763   0.977   5.098  0.4501 -0.4931  0.5932
   65CHL1    H6 5926   1.766   0.877   5.051 -0.6672 -0.4904  0.4922
   65CHL1    C7 5927   1.777   0.984   5.246  0.4550 -0.1883 -0.2321
   65CHL1   H7A 5928   1.721   0.902   5.295  1.0449 -0.1293  0.5748
   65CHL1   H7B 5929   1.887   0.980   5.266  0.7586 -2.3070 -2.0317
   65CHL1    C8 5930   1.726   1.121   5.303  0.1520  0.1591 -1.0470
   65CHL1    H8 5931   1.615   1.120   5.298  0.1585 -0.0340 -1.1541
   65CHL1   C14 5932   1.764   1.135   5.454  0.5353 -0.3660  0.5666
   65CHL1   H14 5933   1.875   1.124   5.448  0.9005  0.8784  3.6104
   65CHL1   C15 5934   1.714   1.028   5.555  0.3799  0.1108  0.2498
   65CHL1  H15A 5935   1.606   1.029   5.529  0.4914 -2.1163 -0.4542
   65CHL1  H15B 5936   1.763   0.929   5.546  1.1541  0.6438 -2.2761
   65CHL1   C16 5937   1.727   1.099   5.690 -0.2311  0.7872 -0.2149
   65CHL1  H16A 5938   1.629   1.102   5.744  0.0243 -0.3237  0.3355
   65CHL1  H16B 5939   1.806   1.047   5.748 -1.0867 -3.0130 -2.1357
   65CHL1   C17 5940   1.770   1.245   5.659 -0.0595  0.2610 -0.4077
   65CHL1   H17 5941   1.881   1.246   5.651 -0.1206  1.2537 -1.3845
   65CHL1   C13 5942   1.736   1.276   5.513  0.1913  0.2126 -0.0903
   65CHL1   C18 5943   1.590   1.318   5.507 -0.2179 -0.3646 -0.4110
   65CHL1  H18A 5944   1.523   1.245   5.558 -0.3013  0.8246  1.2674
   65CHL1  H18B 5945   1.567   1.415   5.555 -0.7312 -0.6089 -0.1529
   65CHL1  H18C 5946   1.558   1.329   5.402  1.7218  0.2859 -0.9726
   65CHL1   C12 5947   1.814   1.383   5.440  0.6204 -0.4143  0.5128
   65CHL1  H12A 5948   1.798   1.487   5.474  1.6871 -0.3973  0.9914
   65CHL1  H12B 5949   1.924   1.374   5.454  0.4252 -1.7309  1.3900
   65CHL1   C11 5950   1.779   1.383   5.289 -0.2865  0.7484  0.4364
   65CHL1  H11A 5951   1.676   1.419   5.269 -0.1392  1.6808  1.2836
   65CHL1  H11B 5952   1.848   1.448   5.231  0.9271 -1.8480 -1.2195
   65CHL1    C9 5953   1.793   1.238   5.221  0.0388 -0.2783  0.6574
   65CHL1    H9 5954   1.902   1.221   5.239  0.3863  0.7562 -0.3722
   65CHL1   C10 5955   1.766   1.233   5.069  0.0730  0.1931 -0.4201
   65CHL1   C19 5956   1.632   1.308   5.045 -0.8955  1.1026 -0.2231
   65CHL1  H19A 5957   1.639   1.417   5.065 -1.1106  1.3560 -1.4704
   65CHL1  H19B 5958   1.601   1.304   4.939  1.6133  0.9414 -1.0086
   65CHL1  H19C 5959   1.553   1.261   5.109 -0.1109  0.2323  0.1271
   65CHL1    C1 5960   1.873   1.304   4.990 -0.4413 -0.1572 -0.2810
   65CHL1   H1A 5961   1.868   1.411   5.018  0.6197 -0.2807  0.4111
   65CHL1   H1B 5962   1.971   1.265   5.025 -0.2201  0.6834  0.0623
   65CHL1    C2 5963   1.866   1.288   4.839 -0.1406 -0.5580 -0.2844
   65CHL1   H2A 5964   1.954   1.337   4.793  0.1656 -1.7518 -1.0300
   65CHL1   H2B 5965   1.780   1.343   4.795 -0.0701 -0.3267 -0.1314
   65CHL1   C20 5966   1.732   1.341   5.770  0.2213 -0.5148  0.6326
   65CHL1   H20 5967   1.622   1.339   5.787  0.1292 -0.3859  0.0904
   65CHL1   C21 5968   1.775   1.492   5.753 -0.0474  0.2409 -0.0864
   65CHL1  H21A 5969   1.884   1.501   5.733  0.3024  2.6975  2.2962
   65CHL1  H21B 5970   1.757   1.543   5.850 -0.7947 -0.1107 -0.0295
   65CHL1  H21C 5971   1.726   1.543   5.667  0.0464 -1.4610 -1.1943
   65CHL1   C22 5972   1.802   1.292   5.903 -0.8236 -0.2281  0.1860
   65CHL1  H22A 5973   1.789   1.182   5.913  0.3081 -0.2538  1.7894
   65CHL1  H22B 5974   1.909   1.319   5.892  0.1181 -2.8098  1.9961
   65CHL1   C23 5975   1.745   1.355   6.034  1.0374  0.1388  0.9989
   65CHL1  H23A 5976   1.707   1.458   6.018  1.4028 -0.0740 -1.7029
   65CHL1  H23B 5977   1.650   1.303   6.060 -1.0374  1.7550 -2.5398
   65CHL1   C24 5978   1.845   1.353   6.148  0.2492  0.0240  0.2166
   65CHL1  H24A 5979   1.941   1.398   6.115  0.4129  1.8512  2.9830
   65CHL1  H24B 5980   1.809   1.412   6.234 -2.2409 -0.6225 -0.2931
   65CHL1   C25 5981   1.881   1.203   6.190  1.0536 -0.4493 -0.3770
   65CHL1   H25 5982   1.907   1.158   6.092  0.0401  0.0189 -0.8747
   65CHL1   C26 5983   2.007   1.193   6.278  0.5574 -0.0387 -0.1326
   65CHL1  H26A 5984   2.092   1.238   6.223  0.4756  0.0164 -0.2153
   65CHL1  H26B 5985   1.991   1.239   6.378 -0.7856  1.8526 -1.1530
   65CHL1  H26C 5986   2.037   1.088   6.299  1.8694  0.4049  0.3254
   65CHL1   C27 5987   1.769   1.121   6.250  0.3938 -0.1334  0.7148
   65CHL1  H27A 5988   1.805   1.018   6.271 -3.0580 -2.1908 -2.2893
   65CHL1  H27B 5989   1.725   1.171   6.339 -1.0638 -0.2289  0.0798
   65CHL1  H27C 5990   1.688   1.110   6.174 -1.8856 -0.3038  3.0408
   66CHL1    C3 5991   6.534   5.901   4.533 -0.1553  0.2303 -0.0859
   66CHL1    H3 5992   6.562   6.008   4.543 -2.4593  0.7563  1.4158
   66CHL1    O3 5993   6.531   5.871   4.403 -0.2692 -0.6568 -0.0238
   66CHL1   H3' 5994   6.496   5.782   4.405  0.3109 -0.8917  0.0488
   66CHL1    C4 5995   6.641   5.822   4.597  0.3479  0.2941 -0.9906
   66CHL1   H4A 5996   6.620   5.715   4.573 -0.5159 -0.1474  1.4769
   66CHL1   H4B 5997   6.743   5.844   4.558  0.6517 -0.7364 -0.7997
   66CHL1    C5 5998   6.645   5.837   4.748 -0.6708  0.0985  0.4512
   66CHL1    C6 5999   6.758   5.876   4.810  0.4231  0.1151  0.2455
   66CHL1    H6 6000   6.850   5.895   4.753 -0.1853  0.4143 -0.6575
   66CHL1    C7 6001   6.764   5.895   4.961  1.2936  0.4083  0.3594
   66CHL1   H7A 6002   6.844   5.831   5.003  2.1610  0.0528 -1.6863
   66CHL1   H7B 6003   6.775   6.004   4.980 -1.3710  1.2497 -2.0505
   66CHL1    C8 6004   6.633   5.851   5.030 -0.2690  0.4871  0.1877
   66CHL1    H8 6005   6.633   5.740   5.026 -1.7044  0.4526 -3.4960
   66CHL1   C14 6006   6.633   5.902   5.169  0.3786  0.5534 -0.3208
   66CHL1   H14 6007   6.645   6.012   5.166 -2.5308  0.9291 -1.7228
   66CHL1   C15 6008   6.749   5.857   5.262  0.3021  0.0628 -0.3104
   66CHL1  H15A 6009   6.754   5.746   5.259 -1.3009 -0.0244 -0.4521
   66CHL1  H15B 6010   6.842   5.906   5.226 -0.1688 -0.4516 -2.3591
   66CHL1   C16 6011   6.698   5.895   5.402  0.0411 -0.0537  0.6142
   66CHL1  H16A 6012   6.694   5.811   5.475 -0.2004 -0.5158  0.0801
   66CHL1  H16B 6013   6.771   5.963   5.450  1.8592 -0.5154 -1.3414
   66CHL1   C17 6014   6.550   5.948   5.388 -0.8742 -0.0374 -0.7500
   66CHL1   H17 6015   6.561   6.058   5.373 -2.0360  0.3515  0.9144
   66CHL1   C13 6016   6.506   5.886   5.252  0.6615  0.1533 -0.0094
   66CHL1   C18 6017   6.465   5.738   5.288  0.1832  0.5612 -0.0584
   66CHL1  H18A 6018   6.455   5.675   5.197 -1.2688 -0.1012  0.5312
   66CHL1  H18B 6019   6.544   5.687   5.347  1.6120  0.4462 -1.9778
   66CHL1  H18C 6020   6.362   5.743   5.330  0.5189  1.3807  0.6881
   66CHL1   C12 6021   6.391   5.956   5.167  0.9720  0.5566 -0.2087
   66CHL1  H12A 6022   6.292   5.934   5.213  1.0290  1.5495  0.4255
   66CHL1  H12B 6023   6.398   6.067   5.181 -1.2697  0.7062  0.1500
   66CHL1   C11 6024   6.378   5.897   5.032  0.6087 -0.4705 -0.2554
   66CHL1  H11A 6025   6.342   5.792   5.031 -0.1023 -0.3377 -3.9769
   66CHL1  H11B 6026   6.313   5.955   4.964  0.5707  2.2211  1.8930
   66CHL1    C9 6027   6.511   5.894   4.950  0.2872  0.1643 -0.3660
   66CHL1    H9 6028   6.533   6.000   4.928  0.6409 -0.1322 -1.5291
   66CHL1   C10 6029   6.503   5.832   4.810  0.5197  0.4361  0.1141
   66CHL1   C19 6030   6.460   5.684   4.818 -0.7439 -0.7988  0.1991
   66CHL1  H19A 6031   6.447   5.637   4.718  0.0865  0.4250 -0.5161
   66CHL1  H19B 6032   6.533   5.626   4.878 -2.5876 -1.5397  1.8397
   66CHL1  H19C 6033   6.363   5.675   4.871 -0.7924 -0.5922  0.1474
   66CHL1    C1 6034   6.390   5.901   4.729 -0.1188 -0.1016 -0.3356
   66CHL1   H1A 6035   6.295   5.856   4.763 -0.6919 -0.0335 -1.7747
   66CHL1   H1B 6036   6.407   6.009   4.752 -0.1518 -0.6664  2.6208
   66CHL1    C2 6037   6.393   5.872   4.578  0.1886 -0.4517 -0.6014
   66CHL1   H2A 6038   6.319   5.946   4.541  0.9612  1.1129  0.8178
   66CHL1   H2B 6039   6.371   5.764   4.565  0.6865 -0.7796  1.0112
   66CHL1   C20 6040   6.468   5.926   5.516  0.1910  0.6892 -0.1413
   66CHL1   H20 6041   6.461   5.817   5.539  1.7377  0.1497 -1.9683
   66CHL1   C21 6042   6.323   5.993   5.487 -0.5090 -0.2929 -0.0230
   66CHL1  H21A 6043   6.266   5.947   5.404 -1.9206  3.2847 -1.2105
   66CHL1  H21B 6044   6.349   6.097   5.457 -2.8206  0.0953 -0.8796
   66CHL1  H21C 6045   6.262   5.991   5.579  1.3531  1.5167  1.3413
   66CHL1   C22 6046   6.545   5.984   5.639  0.5572  0.4952  0.2171
   66CHL1  H22A 6047   6.645   5.939   5.656  0.6938  0.1813 -1.2903
   66CHL1  H22B 6048   6.562   6.093   5.631  1.3003  0.3529 -0.2472
   66CHL1   C23 6049   6.471   5.946   5.772  0.0420  0.2391  0.6026
   66CHL1  H23A 6050   6.371   5.993   5.767 -0.8134 -1.3442  1.9338
   66CHL1  H23B 6051   6.457   5.837   5.788  0.9223  0.0748  0.2927
   66CHL1   C24 6052   6.539   6.011   5.894  0.5077  0.1538  0.2174
   66CHL1  H24A 6053   6.644   5.974   5.900  0.3093 -0.4097  0.2674
   66CHL1  H24B 6054   6.539   6.118   5.865  3.2523  0.1598 -0.0374
   66CHL1   C25 6055   6.474   5.993   6.029 -0.3336  0.3707  0.1854
   66CHL1   H25 6056   6.364   6.011   6.031 -0.4723 -0.4292  2.2979
   66CHL1   C26 6057   6.480   5.841   6.065  0.1740 -0.0969  0.5834
   66CHL1  H26A 6058   6.588   5.819   6.060  0.4179  0.6935  1.9527
   66CHL1  H26B 6059   6.443   5.821   6.167  0.7487 -1.4267  0.5408
   66CHL1  H26C 6060   6.436   5.771   5.990  2.4737  0.2824 -1.2288
   66CHL1   C27 6061   6.540   6.088   6.133 -0.6936 -0.1927 -0.1678
   66CHL1  H27A 6062   6.645   6.058   6.154 -0.1735  0.9994 -0.9941
   66CHL1  H27B 6063   6.491   6.077   6.233  1.0195 -2.1891  0.5325
   66CHL1  H27C 6064   6.527   6.195   6.109 -1.5395  0.0974  1.4730
   67CHL1    C3 6065   0.518   4.060   4.497  0.1699 -0.4674  0.4302
   67CHL1    H3 6066   0.616   4.030   4.541  0.9172 -1.1093 -1.5504
   67CHL1    O3 6067   0.519   4.043   4.356  0.1652  0.6737  0.5869
   67CHL1   H3' 6068   0.536   4.131   4.321  0.4526  0.3683 -0.0528
   67CHL1    C4 6069   0.411   3.966   4.569 -0.0488 -0.4599 -0.0032
   67CHL1   H4A 6070   0.310   3.989   4.528 -0.6012 -0.0109  1.5623
   67CHL1   H4B 6071   0.436   3.861   4.543  0.2123 -0.1773 -0.9531
   67CHL1    C5 6072   0.408   3.994   4.719  0.0820 -0.5768  0.3140
   67CHL1    C6 6073   0.429   3.898   4.809 -0.3503  0.1657 -0.5166
   67CHL1    H6 6074   0.455   3.798   4.773 -1.1035  0.5440 -2.2459
   67CHL1    C7 6075   0.423   3.920   4.962  0.1782 -0.3565  0.0923
   67CHL1   H7A 6076   0.366   3.837   5.008 -1.1302  0.4760  0.0169
   67CHL1   H7B 6077   0.525   3.924   5.005 -0.0596 -0.4268  0.6704
   67CHL1    C8 6078   0.346   4.044   4.991  0.2761 -0.7087 -0.4432
   67CHL1    H8 6079   0.238   4.028   4.971 -0.5466  2.6653  0.5576
   67CHL1   C14 6080   0.369   4.073   5.139 -0.2340  0.0863 -0.6337
   67CHL1   H14 6081   0.478   4.094   5.146 -0.1616 -0.5833  0.4608
   67CHL1   C15 6082   0.343   3.966   5.250  0.4673  0.2949  0.3172
   67CHL1  H15A 6083   0.261   3.895   5.225 -0.2009 -0.0662  3.1920
   67CHL1  H15B 6084   0.435   3.904   5.252  0.9815  1.0229 -0.4541
   67CHL1   C16 6085   0.320   4.038   5.378  0.0413 -0.7030  0.2627
   67CHL1  H16A 6086   0.223   4.011   5.425 -0.4125  1.1463  0.4805
   67CHL1  H16B 6087   0.406   4.024   5.447  1.9047 -0.4844 -1.8999
   67CHL1   C17 6088   0.327   4.189   5.344 -0.5110 -0.0742  0.8062
   67CHL1   H17 6089   0.433   4.217   5.358 -0.6811  1.0126  0.1005
   67CHL1   C13 6090   0.303   4.200   5.187  0.5444  0.2172 -0.0203
   67CHL1   C18 6091   0.153   4.191   5.169 -0.0569  0.3401  0.3585
   67CHL1  H18A 6092   0.110   4.110   5.231 -1.3509  1.1632  0.5744
   67CHL1  H18B 6093   0.104   4.286   5.197  0.2965  1.0009 -1.1278
   67CHL1  H18C 6094   0.117   4.167   5.066 -0.9856 -1.0710  0.9857
   67CHL1   C12 6095   0.370   4.316   5.115  0.7898 -0.0391  0.3827
   67CHL1  H12A 6096   0.313   4.403   5.154 -1.0103 -1.7080  1.6719
   67CHL1  H12B 6097   0.479   4.306   5.135  0.7510 -1.4222  0.0151
   67CHL1   C11 6098   0.351   4.300   4.967  0.1985 -0.0636  0.2578
   67CHL1  H11A 6099   0.245   4.321   4.940  0.8446  0.7610 -1.7814
   67CHL1  H11B 6100   0.409   4.384   4.924  0.6580 -1.7147 -2.5934
   67CHL1    C9 6101   0.403   4.162   4.908  0.4121 -0.4256  0.2496
   67CHL1    H9 6102   0.512   4.173   4.924  0.3925 -1.8033  1.5019
   67CHL1   C10 6103   0.374   4.136   4.759 -0.4223  0.1134  0.3086
   67CHL1   C19 6104   0.229   4.184   4.722 -0.3942 -0.1439  0.2340
   67CHL1  H19A 6105   0.205   4.166   4.615  0.0738  1.3932 -0.1600
   67CHL1  H19B 6106   0.153   4.135   4.787  0.6045  0.1349  1.6676
   67CHL1  H19C 6107   0.224   4.295   4.727  0.6018 -0.1196  1.0273
   67CHL1    C1 6108   0.465   4.234   4.684 -0.2106 -0.0348  0.3624
   67CHL1   H1A 6109   0.443   4.341   4.703  0.7447  0.2832 -0.2124
   67CHL1   H1B 6110   0.563   4.223   4.735 -1.4436  1.2592  3.1975
   67CHL1    C2 6111   0.486   4.205   4.529 -0.1041  0.0583 -0.3777
   67CHL1   H2A 6112   0.555   4.282   4.486 -0.4371  1.6836  1.8147
   67CHL1   H2B 6113   0.386   4.220   4.483 -0.1067  3.0425  0.3966
   67CHL1   C20 6114   0.252   4.286   5.433  0.3975  0.4562  0.6367
   67CHL1   H20 6115   0.146   4.291   5.400  0.8663 -0.3358 -1.1373
   67CHL1   C21 6116   0.314   4.426   5.416  0.0899  0.3942  0.1151
   67CHL1  H21A 6117   0.425   4.421   5.404 -0.1557 -0.6341 -2.3197
   67CHL1  H21B 6118   0.283   4.486   5.504 -2.9482 -0.3379 -0.3544
   67CHL1  H21C 6119   0.277   4.472   5.322  0.7214 -1.4166 -1.0643
   67CHL1   C22 6120   0.240   4.245   5.579  0.0450 -0.2062  0.2853
   67CHL1  H22A 6121   0.190   4.328   5.634  0.6607  1.2944 -1.3098
   67CHL1  H22B 6122   0.179   4.154   5.597  2.0997 -1.5783  0.6953
   67CHL1   C23 6123   0.376   4.230   5.650  0.1326  0.0787  0.7281
   67CHL1  H23A 6124   0.443   4.162   5.592 -0.3642  0.1666  0.0383
   67CHL1  H23B 6125   0.426   4.329   5.654  1.9077 -0.7527  0.4220
   67CHL1   C24 6126   0.367   4.178   5.789 -0.1026 -0.1159 -1.0273
   67CHL1  H24A 6127   0.334   4.072   5.791  1.3052 -0.5727 -1.4093
   67CHL1  H24B 6128   0.475   4.163   5.811 -0.2183 -1.9729 -1.5680
   67CHL1   C25 6129   0.299   4.271   5.887  0.0571  0.2397 -0.1488
   67CHL1   H25 6130   0.192   4.293   5.866 -0.3856 -0.7155  1.0002
   67CHL1   C26 6131   0.265   4.193   6.017 -0.4256 -0.5891 -0.4245
   67CHL1  H26A 6132   0.179   4.127   5.994 -0.7692  0.2332 -1.6305
   67CHL1  H26B 6133   0.355   4.134   6.045 -1.1344 -0.2024  3.1774
   67CHL1  H26C 6134   0.218   4.263   6.089 -0.4926  0.4980 -1.4865
   67CHL1   C27 6135   0.386   4.392   5.927  0.6410  0.5021 -0.0156
   67CHL1  H27A 6136   0.382   4.471   5.849 -2.0487 -0.0974 -0.5754
   67CHL1  H27B 6137   0.362   4.442   6.023 -1.5175 -1.7173  0.7037
   67CHL1  H27C 6138   0.492   4.364   5.946  0.2954 -0.3925  0.6555
   68CHL1    C3 6139   3.422   2.573   4.866  0.5084 -0.0335  0.3322
   68CHL1    H3 6140   3.442   2.467   4.840 -1.7082 -1.1091  2.6035
   68CHL1    O3 6141   3.395   2.640   4.738 -0.5756  0.3216 -0.3544
   68CHL1   H3' 6142   3.415   2.576   4.669  0.4175 -0.4394  0.6208
   68CHL1    C4 6143   3.288   2.574   4.950  0.1848 -0.3094  0.8784
   68CHL1   H4A 6144   3.271   2.683   4.964  0.1157 -0.2304  0.2309
   68CHL1   H4B 6145   3.199   2.541   4.892  0.3719  0.3286  0.2127
   68CHL1    C5 6146   3.317   2.521   5.088 -0.0257  0.2358 -0.0945
   68CHL1    C6 6147   3.236   2.423   5.130 -0.4640  0.6072  0.3930
   68CHL1    H6 6148   3.167   2.384   5.054  1.5071  0.3956 -1.3651
   68CHL1    C7 6149   3.237   2.350   5.260 -0.0996 -0.0738  0.5203
   68CHL1   H7A 6150   3.134   2.330   5.297 -0.8604  1.1716 -0.8103
   68CHL1   H7B 6151   3.277   2.247   5.247 -2.2021 -0.8655 -0.1032
   68CHL1    C8 6152   3.329   2.436   5.359 -0.4812 -0.1040 -0.1261
   68CHL1    H8 6153   3.259   2.518   5.388 -2.1077 -1.7625  0.8760
   68CHL1   C14 6154   3.360   2.356   5.484 -0.5104  0.4894  0.6341
   68CHL1   H14 6155   3.436   2.279   5.458 -1.4403  0.0780 -0.9852
   68CHL1   C15 6156   3.251   2.271   5.550  0.1327 -0.4608 -0.1709
   68CHL1  H15A 6157   3.168   2.345   5.548  1.0258  0.5535 -1.6888
   68CHL1  H15B 6158   3.232   2.172   5.503 -0.6660 -0.2118 -0.3801
   68CHL1   C16 6159   3.290   2.245   5.691  0.2574 -0.0794  0.5843
   68CHL1  H16A 6160   3.209   2.274   5.761 -0.3466 -1.0726  0.3107
   68CHL1  H16B 6161   3.301   2.134   5.691 -3.1150 -0.5080  1.0560
   68CHL1   C17 6162   3.422   2.327   5.714 -0.5856  0.3501 -1.5339
   68CHL1   H17 6163   3.501   2.253   5.690 -0.0191  0.3224  0.2724
   68CHL1   C13 6164   3.425   2.430   5.599 -0.2806  0.1049 -0.0664
   68CHL1   C18 6165   3.345   2.551   5.632 -0.6003 -0.1475  0.5889
   68CHL1  H18A 6166   3.237   2.523   5.635 -1.3149  2.1984 -0.7491
   68CHL1  H18B 6167   3.365   2.596   5.731  0.8880  0.1114  0.1884
   68CHL1  H18C 6168   3.364   2.619   5.546 -0.8868 -1.0842 -0.2418
   68CHL1   C12 6169   3.565   2.470   5.545 -1.0178  0.3738  0.1551
   68CHL1  H12A 6170   3.631   2.523   5.617 -1.1548  1.4503 -0.4841
   68CHL1  H12B 6171   3.608   2.369   5.527  0.0904  1.1014 -1.5514
   68CHL1   C11 6172   3.560   2.542   5.410 -0.6603  0.1748 -0.1677
   68CHL1  H11A 6173   3.526   2.644   5.436 -1.6659  0.5795 -2.7310
   68CHL1  H11B 6174   3.658   2.552   5.357 -1.2056  0.0985 -1.2285
   68CHL1    C9 6175   3.460   2.486   5.302 -0.2979  0.7133  1.0548
   68CHL1    H9 6176   3.513   2.395   5.268 -1.2410 -0.5440  2.7946
   68CHL1   C10 6177   3.438   2.578   5.172 -0.1863 -0.1816  0.2113
   68CHL1   C19 6178   3.400   2.720   5.213  0.2808  0.2126 -0.3623
   68CHL1  H19A 6179   3.368   2.789   5.133 -0.4066  0.4086  0.0724
   68CHL1  H19B 6180   3.320   2.727   5.290  0.8586  2.1448  0.1151
   68CHL1  H19C 6181   3.497   2.756   5.253  0.8288 -2.3262  0.8076
   68CHL1    C1 6182   3.554   2.568   5.070 -0.0427 -0.3407 -0.1052
   68CHL1   H1A 6183   3.644   2.605   5.124  0.4484 -1.1170 -0.3738
   68CHL1   H1B 6184   3.587   2.463   5.055  3.6368  0.6175  0.4394
   68CHL1    C2 6185   3.540   2.640   4.939  0.2907  0.2115 -0.1946
   68CHL1   H2A 6186   3.628   2.644   4.872  1.3856 -1.4100  1.0376
   68CHL1   H2B 6187   3.510   2.747   4.939 -1.0796 -0.1448 -0.3494
   68CHL1   C20 6188   3.431   2.380   5.852  0.2383  0.4346 -0.0467
   68CHL1   H20 6189   3.354   2.457   5.875 -0.7671 -1.5820  4.3373
   68CHL1   C21 6190   3.570   2.435   5.891 -1.1316 -0.8066  0.6115
   68CHL1  H21A 6191   3.603   2.424   5.997 -2.1272  2.0951  1.3272
   68CHL1  H21B 6192   3.584   2.544   5.879  0.3645 -0.9595  0.7420
   68CHL1  H21C 6193   3.645   2.383   5.828 -2.0722  0.3264 -1.5167
   68CHL1   C22 6194   3.405   2.274   5.966  0.3830  0.6300 -0.2938
   68CHL1  H22A 6195   3.338   2.194   5.926 -0.2554 -0.3040  2.4366
   68CHL1  H22B 6196   3.500   2.221   5.988 -0.2966 -1.7104 -2.4421
   68CHL1   C23 6197   3.351   2.335   6.099  0.7925  0.1563  0.8552
   68CHL1  H23A 6198   3.427   2.404   6.140  0.0097  1.6631 -0.1474
   68CHL1  H23B 6199   3.263   2.396   6.069  0.9061  0.7737  1.7456
   68CHL1   C24 6200   3.307   2.217   6.191  0.8473 -0.3461  0.4751
   68CHL1  H24A 6201   3.221   2.166   6.143 -0.8592  0.3080  2.6773
   68CHL1  H24B 6202   3.388   2.140   6.194  1.0725 -0.2310 -1.3792
   68CHL1   C25 6203   3.245   2.272   6.327  1.1198  0.1660 -0.4208
   68CHL1   H25 6204   3.150   2.326   6.305 -0.0524 -1.1362  1.2240
   68CHL1   C26 6205   3.191   2.158   6.424  0.0571  0.1751 -0.0326
   68CHL1  H26A 6206   3.132   2.200   6.508 -0.7133  0.7412 -0.8304
   68CHL1  H26B 6207   3.123   2.085   6.374  0.9586 -0.1213 -0.8426
   68CHL1  H26C 6208   3.282   2.105   6.457  1.1500  2.4788  0.8245
   68CHL1   C27 6209   3.343   2.358   6.403  0.4283 -0.1749  0.4913
   68CHL1  H27A 6210   3.429   2.289   6.419  0.4010 -0.6780 -1.3188
   68CHL1  H27B 6211   3.376   2.440   6.335 -1.6851  0.3515  0.0231
   68CHL1  H27C 6212   3.315   2.394   6.504  0.4162  0.5305  0.2477
   69CHL1    C3 6213   6.891   4.217   4.414  0.2947 -0.7268  0.8018
   69CHL1    H3 6214   6.992   4.213   4.461  0.4183  0.2619  0.6530
   69CHL1    O3 6215   6.903   4.211   4.272  0.2098 -0.0035 -0.0989
   69CHL1   H3' 6216   6.936   4.297   4.245 -1.7885  0.1943 -2.2377
   69CHL1    C4 6217   6.808   4.092   4.462 -0.6076 -0.3069  0.0937
   69CHL1   H4A 6218   6.708   4.090   4.413 -0.1168  1.7235 -1.0936
   69CHL1   H4B 6219   6.856   4.001   4.419 -0.1189  0.8119 -1.8532
   69CHL1    C5 6220   6.800   4.097   4.614  0.1914 -0.1037  0.1135
   69CHL1    C6 6221   6.845   3.996   4.690  0.2246 -0.1244 -0.5258
   69CHL1    H6 6222   6.891   3.906   4.647  1.1836  0.1232 -0.0304
   69CHL1    C7 6223   6.836   3.995   4.839  0.3196  0.1629 -0.5898
   69CHL1   H7A 6224   6.795   3.895   4.865 -1.5965  1.4542  1.6894
   69CHL1   H7B 6225   6.933   4.018   4.888 -0.1390  1.8459 -0.4231
   69CHL1    C8 6226   6.740   4.104   4.901  0.1710  0.6450 -0.0796
   69CHL1    H8 6227   6.638   4.075   4.871 -0.0345  1.1111  0.1606
   69CHL1   C14 6228   6.763   4.126   5.043  0.2085  0.2376  0.4254
   69CHL1   H14 6229   6.863   4.172   5.051  0.5046  0.4455 -3.1908
   69CHL1   C15 6230   6.754   4.003   5.138 -0.1294 -0.6895 -0.0010
   69CHL1  H15A 6231   6.670   3.936   5.111  0.4481 -0.1072 -3.9988
   69CHL1  H15B 6232   6.844   3.937   5.137  1.4595  1.3261 -1.5336
   69CHL1   C16 6233   6.738   4.065   5.279  0.2789  0.7529  0.3553
   69CHL1  H16A 6234   6.664   4.016   5.346 -1.5818  1.5284 -1.0179
   69CHL1  H16B 6235   6.841   4.051   5.318  0.2269  0.7016  0.4720
   69CHL1   C17 6236   6.706   4.212   5.261 -0.0484  0.0174  0.0865
   69CHL1   H17 6237   6.801   4.265   5.281 -0.0198 -0.6505  1.8831
   69CHL1   C13 6238   6.663   4.226   5.109  0.2663  0.0520 -0.4485
   69CHL1   C18 6239   6.511   4.203   5.087  0.1143 -0.3013  0.5921
   69CHL1  H18A 6240   6.494   4.179   4.980  0.9973  0.6529  0.2232
   69CHL1  H18B 6241   6.478   4.115   5.146  2.1907 -1.1883  0.4921
   69CHL1  H18C 6242   6.459   4.299   5.110  1.8943  0.9708 -0.4897
   69CHL1   C12 6243   6.694   4.361   5.047 -0.6943  0.2812 -0.6181
   69CHL1  H12A 6244   6.638   4.446   5.092  1.2540  1.9048 -1.0684
   69CHL1  H12B 6245   6.799   4.391   5.066 -0.7318 -1.0824  2.2410
   69CHL1   C11 6246   6.689   4.358   4.892  0.2746  0.3221 -0.6323
   69CHL1  H11A 6247   6.583   4.383   4.868  0.0768  2.7582  2.2128
   69CHL1  H11B 6248   6.740   4.448   4.850  0.5509  0.8721  0.8269
   69CHL1    C9 6249   6.760   4.239   4.827 -0.3944 -0.2427 -0.1702
   69CHL1    H9 6250   6.866   4.263   4.847 -0.1594 -0.7396 -0.7610
   69CHL1   C10 6251   6.741   4.226   4.672  0.0134  0.3483  0.4008
   69CHL1   C19 6252   6.586   4.209   4.641 -0.8197 -0.7686 -0.2698
   69CHL1  H19A 6253   6.552   4.106   4.666  0.3762 -0.9721  0.6454
   69CHL1  H19B 6254   6.527   4.278   4.705  1.8322  0.0036  1.5228
   69CHL1  H19C 6255   6.562   4.232   4.535 -0.0336  0.9515 -0.1047
   69CHL1    C1 6256   6.803   4.361   4.613  0.3610  0.2294  0.7784
   69CHL1   H1A 6257   6.743   4.450   4.641  0.7299  0.5385  0.5935
   69CHL1   H1B 6258   6.903   4.380   4.659 -0.6013  1.1719  2.5886
   69CHL1    C2 6259   6.817   4.349   4.460 -0.0750 -0.5196 -0.7621
   69CHL1   H2A 6260   6.875   4.439   4.434 -0.2990  0.0849  0.7319
   69CHL1   H2B 6261   6.714   4.355   4.419 -0.5577 -1.4871  0.2250
   69CHL1   C20 6262   6.611   4.263   5.378  0.1867 -0.2226 -0.2715
   69CHL1   H20 6263   6.515   4.208   5.367 -0.4616  0.2326  2.4337
   69CHL1   C21 6264   6.591   4.417   5.356 -0.1184 -0.3179 -0.4944
   69CHL1  H21A 6265   6.539   4.433   5.260  0.5446 -0.4439 -0.8816
   69CHL1  H21B 6266   6.687   4.472   5.347 -0.3418  0.1287 -0.2070
   69CHL1  H21C 6267   6.530   4.458   5.440 -0.7956  2.6694 -2.3028
   69CHL1   C22 6268   6.659   4.237   5.525 -0.4266  0.2160 -0.3102
   69CHL1  H22A 6269   6.585   4.291   5.588 -1.1640  0.4071 -1.3183
   69CHL1  H22B 6270   6.662   4.129   5.551 -0.7370  0.1779 -0.4322
   69CHL1   C23 6271   6.802   4.285   5.550 -0.8983  0.0129 -0.1592
   69CHL1  H23A 6272   6.864   4.215   5.490 -0.8935  0.9582 -1.2807
   69CHL1  H23B 6273   6.827   4.383   5.505  4.4976  0.1661  2.3275
   69CHL1   C24 6274   6.838   4.284   5.696  0.3619 -0.6376  0.2389
   69CHL1  H24A 6275   6.809   4.189   5.746  1.7014 -0.9480  0.4845
   69CHL1  H24B 6276   6.948   4.289   5.711  0.5182  1.4988 -1.2425
   69CHL1   C25 6277   6.780   4.398   5.768 -1.2947 -0.5654 -0.7010
   69CHL1   H25 6278   6.670   4.386   5.774 -1.6593  2.4783  0.6086
   69CHL1   C26 6279   6.832   4.401   5.910  0.3655  0.3346  0.4760
   69CHL1  H26A 6280   6.936   4.434   5.924  0.3221  0.6162  0.1594
   69CHL1  H26B 6281   6.770   4.473   5.967 -0.8773  0.7974 -1.3343
   69CHL1  H26C 6282   6.838   4.300   5.957  2.4934  0.6847  1.0077
   69CHL1   C27 6283   6.799   4.537   5.703 -0.8700 -0.6360  0.2411
   69CHL1  H27A 6284   6.787   4.620   5.775  1.6426 -0.9054  1.0730
   69CHL1  H27B 6285   6.905   4.544   5.669 -0.9215 -3.0033 -0.6123
   69CHL1  H27C 6286   6.734   4.559   5.615 -1.4348  0.8273  0.9825
   70CHL1    C3 6287   2.051   1.795   4.656  0.3633 -0.1351 -0.6367
   70CHL1    H3 6288   2.162   1.796   4.660  0.3459  0.5034  0.1184
   70CHL1    O3 6289   2.022   1.791   4.515  0.9552 -0.8304  0.0055
   70CHL1   H3' 6290   1.932   1.759   4.507  0.4500  0.8555 -1.5547
   70CHL1    C4 6291   1.992   1.668   4.727  0.1389  0.1479  0.1107
   70CHL1   H4A 6292   1.886   1.671   4.694  0.8781 -1.2967 -2.6369
   70CHL1   H4B 6293   2.035   1.574   4.686  0.6029 -0.4402  1.8267
   70CHL1    C5 6294   2.019   1.676   4.877  0.2439  0.1357  0.0736
   70CHL1    C6 6295   2.085   1.577   4.943 -0.5314  0.4559  0.2662
   70CHL1    H6 6296   2.127   1.493   4.887 -0.7973 -0.3973  1.3320
   70CHL1    C7 6297   2.111   1.576   5.087  0.2470  0.2041 -0.8417
   70CHL1   H7A 6298   2.071   1.480   5.126 -0.2761  0.7819  0.0897
   70CHL1   H7B 6299   2.221   1.586   5.102 -0.0225  0.2910  1.5542
   70CHL1    C8 6300   2.043   1.692   5.164 -0.2903  0.2725 -0.1943
   70CHL1    H8 6301   1.938   1.664   5.184 -0.1903  1.3313  2.0574
   70CHL1   C14 6302   2.116   1.722   5.299 -0.3487 -0.3044  0.3594
   70CHL1   H14 6303   2.214   1.765   5.269 -0.7721 -0.7617 -1.9003
   70CHL1   C15 6304   2.155   1.597   5.389 -0.3098 -0.1611 -0.7346
   70CHL1  H15A 6305   2.067   1.529   5.388 -0.5173  0.0978 -2.4976
   70CHL1  H15B 6306   2.256   1.554   5.369  0.6290  0.4844  2.1153
   70CHL1   C16 6307   2.155   1.655   5.530 -0.8792 -0.2218 -0.0474
   70CHL1  H16A 6308   2.076   1.600   5.586 -1.3069 -1.1163 -1.4948
   70CHL1  H16B 6309   2.249   1.633   5.585 -0.0796 -2.0685 -2.0003
   70CHL1   C17 6310   2.136   1.810   5.513  0.0917  0.0403  0.0387
   70CHL1   H17 6311   2.234   1.853   5.484  0.0157  0.8023  0.8400
   70CHL1   C13 6312   2.050   1.825   5.388 -0.7501  0.0163 -0.0241
   70CHL1   C18 6313   1.902   1.788   5.422 -0.3094  0.2869  0.5567
   70CHL1  H18A 6314   1.902   1.684   5.462  0.6028  0.1812  0.2908
   70CHL1  H18B 6315   1.857   1.862   5.492 -0.1368  0.9296 -0.0093
   70CHL1  H18C 6316   1.842   1.790   5.329 -0.2381 -0.5882  0.4868
   70CHL1   C12 6317   2.059   1.962   5.312  0.0394  0.6125 -0.5898
   70CHL1  H12A 6318   2.015   2.044   5.372 -1.4972  0.4337 -1.4432
   70CHL1  H12B 6319   2.168   1.982   5.296  0.2162 -1.1151 -1.8615
   70CHL1   C11 6320   1.989   1.939   5.173 -0.3291 -0.1023  0.0544
   70CHL1  H11A 6321   1.880   1.935   5.190 -0.7072  3.4326 -0.7282
   70CHL1  H11B 6322   2.012   2.030   5.113  0.6570 -1.1158 -1.1545
   70CHL1    C9 6323   2.038   1.817   5.091 -0.4845 -0.3515  0.7639
   70CHL1    H9 6324   2.144   1.842   5.072 -0.5408 -1.8047 -1.7876
   70CHL1   C10 6325   1.974   1.800   4.949 -0.0913 -1.0579 -0.2111
   70CHL1   C19 6326   1.818   1.793   4.962 -0.2853  0.8621  0.0256
   70CHL1  H19A 6327   1.756   1.771   4.873 -0.0583 -1.4559  0.3754
   70CHL1  H19B 6328   1.780   1.723   5.040 -0.0613  2.2001  1.3968
   70CHL1  H19C 6329   1.788   1.895   4.996  1.9256  1.4527  0.4012
   70CHL1    C1 6330   2.013   1.934   4.870  0.2839  0.0513  0.4782
   70CHL1   H1A 6331   1.955   2.018   4.912  0.1711  1.3112 -2.0227
   70CHL1   H1B 6332   2.120   1.948   4.896  0.7984 -0.3380 -1.3216
   70CHL1    C2 6333   1.985   1.917   4.722 -0.2416  0.9162  0.2722
   70CHL1   H2A 6334   2.016   2.014   4.677 -2.0616  1.6786  0.5499
   70CHL1   H2B 6335   1.876   1.901   4.706  0.3690 -4.5972 -0.2733
   70CHL1   C20 6336   2.100   1.882   5.645  0.8489  0.3847  0.8189
   70CHL1   H20 6337   2.028   1.962   5.620  0.3948 -0.3483 -0.3541
   70CHL1   C21 6338   2.236   1.931   5.708 -0.2204  0.7225  0.1466
   70CHL1  H21A 6339   2.280   2.008   5.641  1.1279 -1.4224 -1.6077
   70CHL1  H21B 6340   2.305   1.844   5.715 -0.3409  0.6099 -0.0556
   70CHL1  H21C 6341   2.230   1.974   5.810  2.4898 -1.7816  1.5317
   70CHL1   C22 6342   2.021   1.790   5.753  0.3390 -0.3176 -0.0999
   70CHL1  H22A 6343   1.927   1.766   5.699 -0.3763  3.0559 -0.5449
   70CHL1  H22B 6344   2.078   1.705   5.795  1.5094  1.4429  2.0971
   70CHL1   C23 6345   1.968   1.866   5.880  0.3394 -0.3282  0.1264
   70CHL1  H23A 6346   2.050   1.883   5.953  0.2933 -0.8646  0.3067
   70CHL1  H23B 6347   1.937   1.965   5.840  4.9680  1.1485 -0.3860
   70CHL1   C24 6348   1.853   1.789   5.957  0.8870 -0.0371 -0.3048
   70CHL1  H24A 6349   1.773   1.769   5.883  1.3580 -0.0856 -0.8119
   70CHL1  H24B 6350   1.884   1.687   5.990  0.3777  0.3931  1.5842
   70CHL1   C25 6351   1.786   1.855   6.086  0.7709 -0.3840  0.0508
   70CHL1   H25 6352   1.871   1.904   6.138  2.8536 -0.0604 -3.3301
   70CHL1   C26 6353   1.686   1.976   6.055 -0.4552  0.1898  0.0915
   70CHL1  H26A 6354   1.587   1.944   6.015 -1.2246 -1.5612  3.0448
   70CHL1  H26B 6355   1.674   2.027   6.153  0.4909 -0.0843  0.3599
   70CHL1  H26C 6356   1.736   2.046   5.985  2.5470 -0.3420  1.5560
   70CHL1   C27 6357   1.716   1.751   6.173  0.4796 -0.7590 -0.9161
   70CHL1  H27A 6358   1.622   1.710   6.130 -0.3016 -0.0899  0.0983
   70CHL1  H27B 6359   1.780   1.662   6.191  0.2352 -0.9533 -0.9911
   70CHL1  H27C 6360   1.685   1.798   6.269  0.0068 -0.4379 -1.2200
   71CHL1    C3 6361   2.780   6.677   4.750 -0.0752 -0.0997  0.1533
   71CHL1    H3 6362   2.749   6.783   4.761 -0.0836  0.3234 -3.0367
   71CHL1    O3 6363   2.747   6.646   4.616  0.4083 -0.2127 -0.0438
   71CHL1   H3' 6364   2.778   6.556   4.608 -0.0322 -0.2270 -2.0147
   71CHL1    C4 6365   2.929   6.655   4.773  0.1436 -0.8013  0.1610
   71CHL1   H4A 6366   2.953   6.555   4.731  0.8330  0.1747 -1.9204
   71CHL1   H4B 6367   2.979   6.729   4.706 -1.2244  0.5166  0.5503
   71CHL1    C5 6368   2.965   6.678   4.918  0.5545  0.5290  0.3573
   71CHL1    C6 6369   3.057   6.769   4.950 -0.1454  0.4002  1.0848
   71CHL1    H6 6370   3.107   6.826   4.871 -1.3684 -1.3165 -1.0593
   71CHL1    C7 6371   3.108   6.787   5.090  0.1930 -0.3741  0.5224
   71CHL1   H7A 6372   3.219   6.795   5.097  0.0941  0.1802  1.7425
   71CHL1   H7B 6373   3.051   6.879   5.117  0.7771 -0.1467  0.9889
   71CHL1    C8 6374   3.069   6.678   5.188 -0.2432 -0.0220 -0.6231
   71CHL1    H8 6375   3.143   6.598   5.165  1.3318  1.9342 -2.7992
   71CHL1   C14 6376   3.086   6.717   5.335 -0.1495  0.3820  0.7477
   71CHL1   H14 6377   3.016   6.803   5.342 -1.1355 -0.4202  0.8858
   71CHL1   C15 6378   3.215   6.772   5.394  0.0995  0.1822  0.2754
   71CHL1  H15A 6379   3.298   6.702   5.372 -0.5960 -0.8985  1.0113
   71CHL1  H15B 6380   3.245   6.866   5.342  3.0983 -1.2775 -0.8419
   71CHL1   C16 6381   3.200   6.765   5.552 -0.7097 -1.0198 -0.1893
   71CHL1  H16A 6382   3.297   6.744   5.601  0.1591  0.6282 -1.0870
   71CHL1  H16B 6383   3.171   6.868   5.585  1.2871  0.0291 -1.5073
   71CHL1   C17 6384   3.073   6.680   5.573 -0.5505  0.4221  0.0605
   71CHL1   H17 6385   2.994   6.758   5.584  1.3574  2.3339  0.8975
   71CHL1   C13 6386   3.041   6.615   5.439 -0.3237  0.0088  0.1244
   71CHL1   C18 6387   3.109   6.472   5.420 -0.2016 -0.4066  0.3815
   71CHL1  H18A 6388   3.212   6.485   5.458 -0.5239  0.2977  1.0373
   71CHL1  H18B 6389   3.048   6.399   5.477 -0.9124 -1.8020 -2.0323
   71CHL1  H18C 6390   3.098   6.431   5.318  0.1904 -1.1181  0.6151
   71CHL1   C12 6391   2.891   6.587   5.420  0.3560 -0.1842  0.1248
   71CHL1  H12A 6392   2.851   6.522   5.501  1.4048 -0.0559  0.7614
   71CHL1  H12B 6393   2.844   6.684   5.442  2.6347  0.6602  1.6448
   71CHL1   C11 6394   2.863   6.535   5.280  0.9922 -0.7910 -0.3543
   71CHL1  H11A 6395   2.905   6.435   5.257  3.2537  0.6752 -3.3537
   71CHL1  H11B 6396   2.752   6.532   5.271  0.8387 -0.5338  1.2196
   71CHL1    C9 6397   2.922   6.627   5.161 -0.0004 -0.1291  0.1060
   71CHL1    H9 6398   2.862   6.720   5.173 -0.2928  0.1292 -2.6920
   71CHL1   C10 6399   2.893   6.581   5.017 -0.2870 -0.2424 -0.2507
   71CHL1   C19 6400   2.937   6.433   4.990 -0.2043  0.4218 -0.0647
   71CHL1  H19A 6401   2.876   6.364   5.052  0.4363 -0.9151 -0.8769
   71CHL1  H19B 6402   2.924   6.404   4.883 -0.1877 -0.7594  0.2400
   71CHL1  H19C 6403   3.043   6.432   5.025 -0.6724  0.2169  1.4064
   71CHL1    C1 6404   2.738   6.600   4.990 -0.0038  0.1348  0.5302
   71CHL1   H1A 6405   2.679   6.519   5.037  1.9016  0.3711  3.5795
   71CHL1   H1B 6406   2.705   6.693   5.041  1.7523  0.6730  0.7499
   71CHL1    C2 6407   2.693   6.582   4.841  0.5182 -0.0677 -0.3635
   71CHL1   H2A 6408   2.587   6.615   4.838  1.1022  2.0879  0.6259
   71CHL1   H2B 6409   2.716   6.482   4.799  4.6701  0.6013 -0.0669
   71CHL1   C20 6410   3.080   6.601   5.705  0.4262 -0.1702  0.5401
   71CHL1   H20 6411   3.168   6.537   5.684 -0.1543 -0.2285 -2.0510
   71CHL1   C21 6412   2.957   6.513   5.747 -0.3479  0.2678  0.3507
   71CHL1  H21A 6413   2.869   6.581   5.757 -0.4114  0.5006 -1.5153
   71CHL1  H21B 6414   2.981   6.452   5.837  0.8520 -0.4295 -0.4160
   71CHL1  H21C 6415   2.942   6.448   5.659  1.4400 -0.4462  0.5256
   71CHL1   C22 6416   3.127   6.692   5.827 -0.0257  0.6510  0.9421
   71CHL1  H22A 6417   3.225   6.738   5.807 -0.1222  0.2384 -0.6273
   71CHL1  H22B 6418   3.039   6.760   5.832 -1.4011 -0.3831 -3.5746
   71CHL1   C23 6419   3.150   6.612   5.957  0.3971 -0.5730  0.4271
   71CHL1  H23A 6420   3.056   6.605   6.016 -0.2453  0.6062 -0.4293
   71CHL1  H23B 6421   3.189   6.510   5.935 -0.8937 -1.3299  1.4851
   71CHL1   C24 6422   3.256   6.688   6.041 -0.6091 -0.0207  0.2712
   71CHL1  H24A 6423   3.353   6.648   6.007 -0.0590  1.0028  0.5837
   71CHL1  H24B 6424   3.241   6.797   6.023  0.7861  0.1747  0.2315
   71CHL1   C25 6425   3.243   6.666   6.194 -0.0419 -0.8889 -0.8822
   71CHL1   H25 6426   3.137   6.680   6.224  0.4545  1.2567  0.0598
   71CHL1   C26 6427   3.285   6.521   6.229  0.0440  0.6091  0.4465
   71CHL1  H26A 6428   3.394   6.498   6.233  0.1366  0.5032 -1.6453
   71CHL1  H26B 6429   3.257   6.502   6.335 -0.6462 -0.1859  0.1272
   71CHL1  H26C 6430   3.233   6.448   6.164  1.5550  0.8414 -1.1119
   71CHL1   C27 6431   3.319   6.774   6.266  0.4017 -0.5386  0.6669
   71CHL1  H27A 6432   3.318   6.760   6.377  0.9483  0.9148  0.8881
   71CHL1  H27B 6433   3.427   6.764   6.241  0.2486 -2.8795  0.7405
   71CHL1  H27C 6434   3.276   6.872   6.237 -2.5623 -0.8289  3.5244
   72CHL1    C3 6435   0.062   3.027   4.950 -0.3725  0.0816  0.1348
   72CHL1    H3 6436   0.046   3.135   4.931 -1.8414 -0.2758 -0.8248
   72CHL1    O3 6437   0.095   2.968   4.829  0.2200 -0.0389 -0.5548
   72CHL1   H3' 6438   0.063   3.027   4.761 -3.7748  0.6684  1.6088
   72CHL1    C4 6439   0.176   3.017   5.049 -0.1539 -0.3219  0.1224
   72CHL1   H4A 6440   0.211   2.914   5.069 -0.5580 -0.1723  1.7432
   72CHL1   H4B 6441   0.259   3.073   5.001 -0.0263  0.7140  1.4944
   72CHL1    C5 6442   0.149   3.080   5.188  0.1899  0.7344  0.0524
   72CHL1    C6 6443   0.228   3.181   5.233  0.6374  0.5818  0.1163
   72CHL1    H6 6444   0.325   3.207   5.188  0.1346  1.2674 -0.6006
   72CHL1    C7 6445   0.212   3.240   5.371 -0.4944 -1.0041 -0.4091
   72CHL1   H7A 6446   0.307   3.248   5.427 -1.1833 -0.3469  0.7014
   72CHL1   H7B 6447   0.179   3.345   5.355  2.9761  0.3167  0.2720
   72CHL1    C8 6448   0.106   3.169   5.449  0.3340 -0.0863 -0.3978
   72CHL1    H8 6449   0.152   3.074   5.484  2.0310  0.4369 -1.1172
   72CHL1   C14 6450   0.065   3.252   5.568 -0.3445  0.5582 -0.4390
   72CHL1   H14 6451   0.027   3.349   5.531 -1.1864  0.5804  0.4327
   72CHL1   C15 6452   0.182   3.289   5.663  0.1374  0.8288 -0.1624
   72CHL1  H15A 6453   0.246   3.198   5.661 -1.0104  0.0220 -1.3223
   72CHL1  H15B 6454   0.237   3.378   5.623 -0.2279  0.7726 -0.8083
   72CHL1   C16 6455   0.121   3.316   5.800  0.4683 -0.3425  0.0321
   72CHL1  H16A 6456   0.158   3.238   5.871 -2.1790  0.1176  2.0830
   72CHL1  H16B 6457   0.146   3.414   5.846  1.5573  0.5661 -2.3226
   72CHL1   C17 6458  -0.030   3.282   5.784 -0.1055 -0.4210 -0.7555
   72CHL1   H17 6459  -0.075   3.371   5.736  0.5425  0.9850  1.1142
   72CHL1   C13 6460  -0.033   3.188   5.660 -0.1233  0.6244  0.7479
   72CHL1   C18 6461   0.017   3.046   5.711 -0.7973  0.0141 -0.2520
   72CHL1  H18A 6462   0.026   2.973   5.628 -0.3427 -0.0925 -0.1073
   72CHL1  H18B 6463   0.113   3.065   5.763 -0.4854  1.3561 -1.2730
   72CHL1  H18C 6464  -0.057   3.004   5.784  1.6298 -1.7553  1.3326
   72CHL1   C12 6465  -0.165   3.175   5.587  0.2959 -0.3598 -0.4887
   72CHL1  H12A 6466  -0.238   3.122   5.652 -1.2746  0.0955 -1.8159
   72CHL1  H12B 6467  -0.205   3.276   5.566 -0.1149 -0.3631  0.2575
   72CHL1   C11 6468  -0.146   3.090   5.454 -0.2750 -0.3225 -0.2492
   72CHL1  H11A 6469  -0.144   2.983   5.484  3.8655 -0.9692 -2.1729
   72CHL1  H11B 6470  -0.229   3.109   5.383 -0.8954 -1.6860  0.0785
   72CHL1    C9 6471  -0.018   3.125   5.367 -0.2514 -0.2772  0.3532
   72CHL1    H9 6472  -0.047   3.224   5.326  0.5043 -0.1529  0.1109
   72CHL1   C10 6473   0.018   3.036   5.248  0.7820 -0.4296  0.7798
   72CHL1   C19 6474   0.042   2.888   5.299  0.0598  0.0255 -0.4453
   72CHL1  H19A 6475   0.128   2.870   5.366  1.0257 -2.8002 -2.2523
   72CHL1  H19B 6476  -0.050   2.861   5.355  1.8028 -1.8030  1.6965
   72CHL1  H19C 6477   0.049   2.820   5.211  0.6919  1.0832 -1.2367
   72CHL1    C1 6478  -0.095   3.041   5.146  0.0770 -0.4038 -0.7432
   72CHL1   H1A 6479  -0.181   2.991   5.196  0.8033 -0.6717  0.2672
   72CHL1   H1B 6480  -0.116   3.149   5.132  0.4053  0.0081  1.6171
   72CHL1    C2 6481  -0.065   2.973   5.005 -0.0177  0.0951 -0.6864
   72CHL1   H2A 6482  -0.144   2.998   4.932 -0.7244  1.0685  0.3670
   72CHL1   H2B 6483  -0.071   2.863   5.006  2.0727 -0.1403  2.4307
   72CHL1   C20 6484  -0.090   3.234   5.918  0.2919  0.6097 -0.3818
   72CHL1   H20 6485  -0.025   3.154   5.960  0.6898  1.8669  1.5530
   72CHL1   C21 6486  -0.230   3.169   5.906  0.3124  0.4314 -0.9928
   72CHL1  H21A 6487  -0.282   3.219   5.821  1.2112 -0.8495 -2.3623
   72CHL1  H21B 6488  -0.286   3.177   6.001  0.7764 -0.1336 -0.6684
   72CHL1  H21C 6489  -0.226   3.063   5.874 -2.0824  0.0209 -0.1393
   72CHL1   C22 6490  -0.083   3.346   6.024  0.1285  0.1753  0.2390
   72CHL1  H22A 6491   0.020   3.380   6.048 -0.0880  0.5311  0.6751
   72CHL1  H22B 6492  -0.149   3.426   5.985  1.1843  1.1532  0.4359
   72CHL1   C23 6493  -0.131   3.311   6.171 -0.9828 -0.1089  0.7905
   72CHL1  H23A 6494  -0.130   3.406   6.228  2.1342 -1.4226  3.1909
   72CHL1  H23B 6495  -0.239   3.287   6.162 -1.4893  2.3198 -0.4974
   72CHL1   C24 6496  -0.044   3.205   6.238  0.4103 -0.3204 -0.0117
   72CHL1  H24A 6497  -0.040   3.106   6.188 -2.5941 -0.4200 -0.2604
   72CHL1  H24B 6498   0.060   3.241   6.252  0.7905 -1.6996  0.8862
   72CHL1   C25 6499  -0.106   3.177   6.378  0.1666  0.3021  0.5346
   72CHL1   H25 6500  -0.210   3.144   6.359 -0.4924  1.0310  2.5653
   72CHL1   C26 6501  -0.041   3.057   6.443 -0.4596  0.2393 -0.1156
   72CHL1  H26A 6502  -0.053   2.971   6.373  0.2129 -1.1006  1.3541
   72CHL1  H26B 6503   0.066   3.066   6.471 -0.3252  0.4043 -0.6657
   72CHL1  H26C 6504  -0.085   3.024   6.539  1.6087 -0.6781  0.5647
   72CHL1   C27 6505  -0.100   3.295   6.479 -0.5915  0.2258  0.3319
   72CHL1  H27A 6506  -0.151   3.265   6.573 -1.0545  0.3707  0.1297
   72CHL1  H27B 6507   0.003   3.322   6.508 -0.6295  2.2411 -1.2201
   72CHL1  H27C 6508  -0.148   3.390   6.447  2.1778  2.8048  3.1693
   73CHL1    C3 6509   2.034   6.642   4.591  0.0856  0.2771 -0.1588
   73CHL1    H3 6510   1.927   6.669   4.586  0.1290  0.3130 -1.0853
   73CHL1    O3 6511   2.086   6.625   4.454 -0.0574 -0.0435 -0.2883
   73CHL1   H3' 6512   2.052   6.543   4.419  0.4337  0.0932 -1.1320
   73CHL1    C4 6513   2.113   6.756   4.662 -0.7399 -0.4776  0.9035
   73CHL1   H4A 6514   2.222   6.737   4.653 -0.7147  0.3659 -0.9579
   73CHL1   H4B 6515   2.105   6.855   4.612 -1.3473 -1.2674 -0.6133
   73CHL1    C5 6516   2.090   6.769   4.808  0.1977  0.3489 -0.1899
   73CHL1    C6 6517   2.057   6.889   4.863  0.5040 -0.1227 -0.0613
   73CHL1    H6 6518   2.044   6.984   4.809 -2.0980 -0.6973 -0.5562
   73CHL1    C7 6519   2.018   6.899   5.008 -0.5817  1.1127  0.0893
   73CHL1   H7A 6520   2.083   6.979   5.051 -0.0978  0.1236  1.2631
   73CHL1   H7B 6521   1.913   6.933   5.023 -0.8544  0.5812 -0.5366
   73CHL1    C8 6522   2.046   6.783   5.101 -0.1055  0.6994 -0.0356
   73CHL1    H8 6523   2.156   6.775   5.119  0.0045  3.0677  0.6602
   73CHL1   C14 6524   1.973   6.786   5.237 -0.0359 -0.1214 -0.2228
   73CHL1   H14 6525   1.865   6.793   5.215 -0.1280 -0.0520  0.2596
   73CHL1   C15 6526   2.009   6.917   5.317 -0.2929  0.3956 -0.1793
   73CHL1  H15A 6527   2.115   6.943   5.297  0.2741 -2.2326 -0.8820
   73CHL1  H15B 6528   1.935   6.995   5.289 -1.1577 -0.1160  0.5945
   73CHL1   C16 6529   1.981   6.869   5.463  0.0641 -0.5409 -0.4182
   73CHL1  H16A 6530   2.065   6.893   5.531 -0.7350 -1.1694  0.8162
   73CHL1  H16B 6531   1.888   6.919   5.499 -0.2997 -1.5121  0.0365
   73CHL1   C17 6532   1.942   6.719   5.463  0.2047  0.2163 -0.1582
   73CHL1   H17 6533   1.832   6.716   5.456  0.1801 -1.0535  0.4376
   73CHL1   C13 6534   2.000   6.667   5.329 -0.1536 -0.2173  0.1632
   73CHL1   C18 6535   2.152   6.643   5.343 -0.2711 -0.2050 -0.4695
   73CHL1  H18A 6536   2.202   6.631   5.245  0.7705 -0.7734  0.1184
   73CHL1  H18B 6537   2.190   6.718   5.416 -2.9132 -0.3956  1.2354
   73CHL1  H18C 6538   2.171   6.546   5.394 -0.2779  0.5233  0.9951
   73CHL1   C12 6539   1.936   6.548   5.259  0.5976 -0.2564 -0.3635
   73CHL1  H12A 6540   1.944   6.455   5.318 -1.9029 -2.1810 -2.7703
   73CHL1  H12B 6541   1.825   6.562   5.261  0.5129 -0.9187 -0.0957
   73CHL1   C11 6542   1.993   6.526   5.122  0.0608  0.0314  0.2679
   73CHL1  H11A 6543   2.093   6.482   5.141 -0.2227 -0.6507  0.1961
   73CHL1  H11B 6544   1.938   6.450   5.063 -1.9489  1.1749  0.5936
   73CHL1    C9 6545   2.000   6.655   5.031  0.7177  0.2348 -0.2650
   73CHL1    H9 6546   1.893   6.663   5.004  0.4508 -1.7258  0.0378
   73CHL1   C10 6547   2.077   6.634   4.893  0.0777 -0.7693  1.4850
   73CHL1   C19 6548   2.220   6.584   4.917  0.1748  0.5614 -0.3266
   73CHL1  H19A 6549   2.273   6.660   4.977 -0.2509  1.0365 -0.5472
   73CHL1  H19B 6550   2.213   6.489   4.976  0.9112  0.5093 -0.3157
   73CHL1  H19C 6551   2.274   6.560   4.823  0.3150  0.0403 -0.1211
   73CHL1    C1 6552   2.000   6.529   4.803 -0.1565 -0.2187 -0.1167
   73CHL1   H1A 6553   2.002   6.428   4.849  1.4512  0.1061  0.5944
   73CHL1   H1B 6554   1.898   6.573   4.807  0.4747  1.1983  2.2081
   73CHL1    C2 6555   2.049   6.509   4.661 -0.5297 -0.1640 -0.5348
   73CHL1   H2A 6556   1.977   6.432   4.625 -0.7284  0.1131 -0.7379
   73CHL1   H2B 6557   2.145   6.457   4.644 -0.0369  0.4456  0.3061
   73CHL1   C20 6558   1.990   6.644   5.590 -0.2699  0.0687 -0.1744
   73CHL1   H20 6559   2.101   6.635   5.585 -0.1385  1.7010 -3.6571
   73CHL1   C21 6560   1.917   6.510   5.600 -0.0200  0.4172  0.5798
   73CHL1  H21A 6561   1.807   6.521   5.587 -0.2151  0.0805  1.8235
   73CHL1  H21B 6562   1.940   6.446   5.688 -1.6168 -1.5642 -0.3405
   73CHL1  H21C 6563   1.956   6.453   5.513  1.0015  3.1753 -0.8730
   73CHL1   C22 6564   1.951   6.710   5.732 -0.3198 -0.1758  0.3989
   73CHL1  H22A 6565   1.961   6.632   5.811  1.0128  0.0840  0.5109
   73CHL1  H22B 6566   2.032   6.783   5.756  0.2970 -0.2839 -1.2186
   73CHL1   C23 6567   1.819   6.781   5.736  0.8338  0.2350 -0.6217
   73CHL1  H23A 6568   1.829   6.868   5.667 -0.4156  1.0988  0.2412
   73CHL1  H23B 6569   1.752   6.703   5.694  0.0616  1.8817 -2.6586
   73CHL1   C24 6570   1.780   6.827   5.878 -0.0617 -0.1085  0.3278
   73CHL1  H24A 6571   1.673   6.857   5.880 -0.4791 -1.5689  2.0916
   73CHL1  H24B 6572   1.779   6.741   5.948 -1.0853 -0.7392 -0.4184
   73CHL1   C25 6573   1.862   6.937   5.943  0.2104  0.9817  0.0234
   73CHL1   H25 6574   1.968   6.905   5.956 -0.2569 -0.5863  0.1718
   73CHL1   C26 6575   1.870   7.077   5.858 -0.5414 -0.3258 -0.1216
   73CHL1  H26A 6576   1.905   7.063   5.754  1.5277 -2.3531  0.7488
   73CHL1  H26B 6577   1.775   7.132   5.872 -1.9922 -2.5514 -0.7551
   73CHL1  H26C 6578   1.958   7.135   5.895  0.8516 -1.0760 -2.0647
   73CHL1   C27 6579   1.812   6.954   6.084  0.3509 -0.0344  0.3026
   73CHL1  H27A 6580   1.878   7.028   6.134 -0.1456  1.3597 -1.0133
   73CHL1  H27B 6581   1.711   7.000   6.090  0.3912  0.2050 -0.6535
   73CHL1  H27C 6582   1.793   6.857   6.135 -0.8143  0.7301  1.3683
   74CHL1    C3 6583   4.345   4.039   4.452  0.0091  0.0197 -0.1395
   74CHL1    H3 6584   4.249   3.984   4.454 -0.1197  0.2398  2.0290
   74CHL1    O3 6585   4.395   4.057   4.322 -1.0696 -0.6375  0.0136
   74CHL1   H3' 6586   4.480   4.101   4.331 -2.5759  3.0042 -1.9535
   74CHL1    C4 6587   4.299   4.175   4.514 -1.1828  0.5084  1.0482
   74CHL1   H4A 6588   4.387   4.239   4.491  1.2275 -2.9252 -0.1243
   74CHL1   H4B 6589   4.218   4.207   4.444 -0.0941  2.8746  0.7622
   74CHL1    C5 6590   4.266   4.175   4.662 -0.0695 -0.5267 -0.2006
   74CHL1    C6 6591   4.141   4.200   4.704 -0.5087 -0.2612  0.4215
   74CHL1    H6 6592   4.068   4.228   4.627  0.5656 -0.3932 -0.6621
   74CHL1    C7 6593   4.099   4.206   4.849  0.2517 -0.2633 -0.5705
   74CHL1   H7A 6594   4.040   4.298   4.868  1.9041  0.7303 -0.0352
   74CHL1   H7B 6595   4.034   4.119   4.874 -1.0285  0.2401 -2.0108
   74CHL1    C8 6596   4.225   4.201   4.940  0.3706  0.2606  0.1983
   74CHL1    H8 6597   4.270   4.302   4.938  1.8604 -0.3713 -1.7101
   74CHL1   C14 6598   4.184   4.175   5.079  0.3428 -0.2196 -0.5378
   74CHL1   H14 6599   4.143   4.072   5.078  1.0515 -0.5029 -0.8219
   74CHL1   C15 6600   4.079   4.266   5.140 -0.8589 -0.1359 -0.5194
   74CHL1  H15A 6601   4.108   4.373   5.126 -0.9397 -0.3276 -2.4296
   74CHL1  H15B 6602   3.978   4.260   5.095 -1.1451  0.2298  0.0634
   74CHL1   C16 6603   4.083   4.223   5.286 -0.6517  0.5278 -0.0963
   74CHL1  H16A 6604   4.070   4.309   5.355  0.5014  2.0927 -1.7122
   74CHL1  H16B 6605   3.997   4.156   5.308 -0.5747  0.9054  1.4852
   74CHL1   C17 6606   4.217   4.154   5.319  0.2246  0.5847  0.4386
   74CHL1   H17 6607   4.181   4.051   5.341 -0.0297  0.1607 -1.7387
   74CHL1   C13 6608   4.298   4.164   5.189  0.4027  0.4417  0.3625
   74CHL1   C18 6609   4.377   4.296   5.191 -0.1034 -0.6502 -0.5376
   74CHL1  H18A 6610   4.446   4.315   5.107  0.8393 -0.9300  0.1489
   74CHL1  H18B 6611   4.301   4.376   5.199  0.0563 -0.4967 -0.5443
   74CHL1  H18C 6612   4.447   4.317   5.275 -2.2686  1.1940  0.9115
   74CHL1   C12 6613   4.387   4.047   5.149  0.5558  0.4790 -0.1696
   74CHL1  H12A 6614   4.471   4.028   5.219 -0.4602 -3.9278  0.1477
   74CHL1  H12B 6615   4.345   3.946   5.166  4.0864 -1.4587 -1.7528
   74CHL1   C11 6616   4.423   4.061   5.003  0.3730  0.1677  0.0234
   74CHL1  H11A 6617   4.490   4.149   4.997  1.0093 -0.3422 -0.3596
   74CHL1  H11B 6618   4.482   3.971   4.976  1.1189  0.4560  0.6794
   74CHL1    C9 6619   4.313   4.088   4.895 -0.7319  0.1546  0.0940
   74CHL1    H9 6620   4.239   4.005   4.891  2.1177 -2.5670 -0.4061
   74CHL1   C10 6621   4.373   4.108   4.747  0.9947  0.2391 -0.7223
   74CHL1   C19 6622   4.496   4.199   4.757 -0.0639  0.2035  0.1995
   74CHL1  H19A 6623   4.587   4.147   4.793  0.2022 -1.1163 -2.1354
   74CHL1  H19B 6624   4.534   4.241   4.661  1.9276 -1.3430  0.2560
   74CHL1  H19C 6625   4.468   4.282   4.825  1.9626  0.3368  0.9237
   74CHL1    C1 6626   4.408   3.975   4.690 -0.2614  0.0498  0.2853
   74CHL1   H1A 6627   4.494   3.941   4.751 -1.0303  0.1009  1.4305
   74CHL1   H1B 6628   4.321   3.907   4.693 -1.6898  1.8110  0.6615
   74CHL1    C2 6629   4.450   3.963   4.538 -0.1228 -0.3038 -0.5285
   74CHL1   H2A 6630   4.472   3.858   4.509  0.6936 -0.3984  0.4026
   74CHL1   H2B 6631   4.545   4.019   4.525 -0.5917  0.3943 -1.0097
   74CHL1   C20 6632   4.284   4.210   5.456 -0.0089 -0.1732 -0.2791
   74CHL1   H20 6633   4.309   4.316   5.439  0.2065 -0.3357 -1.0259
   74CHL1   C21 6634   4.418   4.134   5.490 -0.5463 -0.2204  0.5389
   74CHL1  H21A 6635   4.394   4.026   5.499 -0.4794 -0.3449 -0.6386
   74CHL1  H21B 6636   4.458   4.175   5.585  0.6428 -1.8364  0.7739
   74CHL1  H21C 6637   4.489   4.155   5.408 -2.0865  2.1376 -0.2805
   74CHL1   C22 6638   4.188   4.201   5.581  0.4402 -0.8030  0.3306
   74CHL1  H22A 6639   4.231   4.256   5.667  0.8546 -2.8996  1.5272
   74CHL1  H22B 6640   4.086   4.241   5.561  0.5114 -0.8938 -0.2536
   74CHL1   C23 6641   4.150   4.055   5.636  0.3209  0.0000  0.2640
   74CHL1  H23A 6642   4.128   3.984   5.553 -0.6602 -1.8241  2.0028
   74CHL1  H23B 6643   4.242   4.022   5.688 -0.0562 -0.0217  0.9354
   74CHL1   C24 6644   4.034   4.061   5.743 -0.4232 -0.0365  0.7609
   74CHL1  H24A 6645   4.055   4.144   5.814  1.0168  1.6774 -1.5141
   74CHL1  H24B 6646   3.946   4.096   5.685  0.1480  0.6403  0.2728
   74CHL1   C25 6647   4.011   3.937   5.833  0.1814 -0.1243  0.2400
   74CHL1   H25 6648   4.107   3.909   5.880 -0.1442 -0.5549  0.6552
   74CHL1   C26 6649   3.912   3.977   5.946 -0.2779  0.2636 -0.3121
   74CHL1  H26A 6650   3.809   3.999   5.909 -0.4288  0.4354  0.1938
   74CHL1  H26B 6651   3.908   3.901   6.027  2.2209  0.7995  0.3891
   74CHL1  H26C 6652   3.949   4.072   5.989 -0.5559  0.0418  0.4419
   74CHL1   C27 6653   3.955   3.825   5.741 -0.5601 -0.2259 -1.0211
   74CHL1  H27A 6654   3.942   3.725   5.788  1.2436 -1.0441 -2.1509
   74CHL1  H27B 6655   3.865   3.862   5.688 -0.0828 -0.9380 -2.3749
   74CHL1  H27C 6656   4.041   3.804   5.673 -0.9773  0.1473 -1.6786
   75CHL1    C3 6657   2.426   3.884   5.105 -1.2057  0.4182  0.0857
   75CHL1    H3 6658   2.436   3.783   5.062 -0.4050  0.4914  0.0840
   75CHL1    O3 6659   2.384   3.970   5.000  0.0147 -0.4487  0.3751
   75CHL1   H3' 6660   2.452   3.979   4.933  1.2941 -0.1981  1.6426
   75CHL1    C4 6661   2.323   3.885   5.214  0.2386  0.3136 -0.2348
   75CHL1   H4A 6662   2.293   3.990   5.233 -1.0116 -0.2240  0.9137
   75CHL1   H4B 6663   2.236   3.830   5.171 -0.9758 -0.3736  2.8106
   75CHL1    C5 6664   2.365   3.819   5.344 -0.0719 -0.0239 -0.1806
   75CHL1    C6 6665   2.293   3.721   5.404 -0.4919 -0.1497 -0.1359
   75CHL1    H6 6666   2.197   3.695   5.358 -2.5265  2.7001  2.1097
   75CHL1    C7 6667   2.330   3.653   5.536 -0.0563 -0.4227  0.1310
   75CHL1   H7A 6668   2.243   3.663   5.605 -1.0979 -0.4499 -1.1309
   75CHL1   H7B 6669   2.344   3.543   5.521 -0.7190 -0.7847  1.8464
   75CHL1    C8 6670   2.451   3.716   5.609 -0.1264 -0.4229 -0.2251
   75CHL1    H8 6671   2.420   3.806   5.666  2.1964 -0.4305  1.1756
   75CHL1   C14 6672   2.517   3.611   5.697 -0.4701  0.0819  0.5247
   75CHL1   H14 6673   2.560   3.535   5.628 -2.6152  0.6761 -1.5979
   75CHL1   C15 6674   2.424   3.521   5.784 -0.1226 -0.1269 -0.1764
   75CHL1  H15A 6675   2.368   3.583   5.858  0.8548  0.1474  0.3419
   75CHL1  H15B 6676   2.363   3.445   5.730  0.0415 -0.4160  0.0426
   75CHL1   C16 6677   2.530   3.438   5.872 -0.4935 -0.6700  0.3531
   75CHL1  H16A 6678   2.508   3.423   5.980  0.6115 -1.9840  0.4295
   75CHL1  H16B 6679   2.550   3.337   5.829  1.6285  0.2852 -1.0574
   75CHL1   C17 6680   2.666   3.516   5.864 -0.2233 -0.1454  0.5436
   75CHL1   H17 6681   2.726   3.455   5.793 -3.0401 -2.3940 -0.0895
   75CHL1   C13 6682   2.635   3.650   5.775 -0.2423 -0.3153 -0.2073
   75CHL1   C18 6683   2.594   3.762   5.875 -0.8594 -0.4070  0.0637
   75CHL1  H18A 6684   2.682   3.789   5.938 -0.7221 -1.9074  0.5681
   75CHL1  H18B 6685   2.564   3.853   5.821  0.1219  1.1491  2.0064
   75CHL1  H18C 6686   2.506   3.734   5.937 -0.2299 -3.1656 -0.1156
   75CHL1   C12 6687   2.740   3.692   5.667 -0.4676 -0.0662 -0.1934
   75CHL1  H12A 6688   2.829   3.711   5.732 -0.1074 -1.6571 -0.1629
   75CHL1  H12B 6689   2.764   3.607   5.600 -1.1045  0.7776 -1.5121
   75CHL1   C11 6690   2.689   3.807   5.579  0.0218 -0.3890  0.1089
   75CHL1  H11A 6691   2.678   3.899   5.640  1.9767 -0.6054  0.8585
   75CHL1  H11B 6692   2.776   3.823   5.512  0.6678  0.4085  1.1021
   75CHL1    C9 6693   2.555   3.766   5.508 -0.5849 -0.0567  0.0783
   75CHL1    H9 6694   2.590   3.679   5.449  1.7103 -1.5269  3.3841
   75CHL1   C10 6695   2.500   3.858   5.400 -0.2048 -0.0428 -0.5724
   75CHL1   C19 6696   2.494   3.996   5.455  0.1511 -0.6277 -0.2064
   75CHL1  H19A 6697   2.431   4.007   5.545  0.1199  1.0928 -0.4049
   75CHL1  H19B 6698   2.598   4.023   5.484  0.2104 -0.1065 -0.8823
   75CHL1  H19C 6699   2.448   4.062   5.378  0.9861  1.0445  0.6860
   75CHL1    C1 6700   2.603   3.850   5.280  0.3155  0.9089  0.5700
   75CHL1   H1A 6701   2.700   3.888   5.318 -0.1385  0.1557  2.6395
   75CHL1   H1B 6702   2.628   3.745   5.255 -0.7492  0.6967  0.3166
   75CHL1    C2 6703   2.569   3.934   5.163  1.0818 -0.7188  0.3297
   75CHL1   H2A 6704   2.650   3.930   5.087 -0.2073  0.6524 -1.1932
   75CHL1   H2B 6705   2.570   4.044   5.179 -0.3193  0.0472 -3.5742
   75CHL1   C20 6706   2.747   3.534   6.001  0.2548  0.3930  0.5033
   75CHL1   H20 6707   2.677   3.598   6.059  0.7010  2.3984 -1.0758
   75CHL1   C21 6708   2.884   3.599   5.976  0.0517  0.2802  0.4050
   75CHL1  H21A 6709   2.939   3.533   5.905  1.7209 -0.7133  2.5303
   75CHL1  H21B 6710   2.943   3.602   6.069 -1.2338  1.7634  1.2365
   75CHL1  H21C 6711   2.884   3.704   5.939  0.6742  0.2193  0.2321
   75CHL1   C22 6712   2.769   3.394   6.080  0.1312 -0.1466  0.2457
   75CHL1  H22A 6713   2.679   3.330   6.067 -0.8797  0.8977  1.7094
   75CHL1  H22B 6714   2.847   3.335   6.027 -1.5553 -0.7352 -1.6999
   75CHL1   C23 6715   2.789   3.412   6.227 -0.3748 -0.1019 -0.6799
   75CHL1  H23A 6716   2.892   3.451   6.243 -0.3261 -0.8165  0.9404
   75CHL1  H23B 6717   2.719   3.491   6.263  1.1154  0.8457  0.3082
   75CHL1   C24 6718   2.784   3.280   6.297  0.3480  0.2598  0.1712
   75CHL1  H24A 6719   2.683   3.236   6.288 -0.1475  1.5681 -0.9961
   75CHL1  H24B 6720   2.847   3.207   6.241 -0.7494 -0.7698  0.2392
   75CHL1   C25 6721   2.817   3.271   6.446 -0.2753 -0.5592 -0.0919
   75CHL1   H25 6722   2.916   3.320   6.462 -0.9309  1.4067 -1.5914
   75CHL1   C26 6723   2.717   3.361   6.524  0.3764  0.8155 -0.2987
   75CHL1  H26A 6724   2.732   3.351   6.634 -1.7984  0.8065  0.0457
   75CHL1  H26B 6725   2.739   3.461   6.482 -0.6746  0.5240 -1.5996
   75CHL1  H26C 6726   2.611   3.333   6.503  0.6492  0.1103 -0.7964
   75CHL1   C27 6727   2.802   3.129   6.495 -0.0200  0.5050 -0.5056
   75CHL1  H27A 6728   2.856   3.115   6.591 -1.2077  1.0141  0.2579
   75CHL1  H27B 6729   2.698   3.098   6.520  0.9830 -1.2059  1.9260
   75CHL1  H27C 6730   2.840   3.054   6.423  1.2567  0.2366  0.4152
   76CHL1    C3 6731   2.435   4.412   4.608 -0.4026  0.8572  0.9590
   76CHL1    H3 6732   2.330   4.384   4.583 -0.4334  1.6363  0.1951
   76CHL1    O3 6733   2.495   4.441   4.484  0.4852  0.1913 -0.0476
   76CHL1   H3' 6734   2.429   4.500   4.447 -1.2838 -1.4215  0.3741
   76CHL1    C4 6735   2.431   4.544   4.686 -0.2692 -0.1356  0.7044
   76CHL1   H4A 6736   2.537   4.578   4.681 -0.1207 -0.7473 -2.7170
   76CHL1   H4B 6737   2.371   4.617   4.627  1.2528 -0.0702 -0.8333
   76CHL1    C5 6738   2.373   4.536   4.830  0.6408  0.6809  0.6497
   76CHL1    C6 6739   2.275   4.618   4.866  0.6615  0.2590 -0.4683
   76CHL1    H6 6740   2.243   4.690   4.790  0.1396 -1.1888 -1.6656
   76CHL1    C7 6741   2.197   4.616   4.995 -0.0694 -0.1531  0.1404
   76CHL1   H7A 6742   2.189   4.721   5.031 -1.4142 -0.4651  0.8269
   76CHL1   H7B 6743   2.096   4.573   4.976 -0.2824  0.5861 -0.4633
   76CHL1    C8 6744   2.281   4.538   5.098 -0.3202  0.0244 -0.0437
   76CHL1    H8 6745   2.370   4.602   5.118 -0.0665 -0.5980  0.8864
   76CHL1   C14 6746   2.193   4.511   5.225 -0.3843  1.0779  0.2761
   76CHL1   H14 6747   2.118   4.437   5.190  1.3039 -0.2388 -0.7501
   76CHL1   C15 6748   2.130   4.638   5.288 -0.3899  0.2093 -0.3369
   76CHL1  H15A 6749   2.208   4.717   5.290  1.0523 -1.1403  2.3862
   76CHL1  H15B 6750   2.053   4.681   5.221  1.4892  0.9668 -2.1195
   76CHL1   C16 6751   2.096   4.582   5.429  0.2480 -1.3385 -0.2605
   76CHL1  H16A 6752   2.144   4.655   5.497  0.5285 -1.2873 -0.5089
   76CHL1  H16B 6753   1.989   4.581   5.456 -0.2117  0.2187 -1.8329
   76CHL1   C17 6754   2.158   4.445   5.454  0.3341 -0.1957  0.1151
   76CHL1   H17 6755   2.080   4.379   5.410  0.1083  0.7652 -1.0048
   76CHL1   C13 6756   2.262   4.438   5.346 -0.1141  0.1518  0.1411
   76CHL1   C18 6757   2.392   4.515   5.391  0.1573 -0.1654 -0.1986
   76CHL1  H18A 6758   2.460   4.542   5.307  0.1346 -0.9240 -0.4620
   76CHL1  H18B 6759   2.354   4.606   5.443 -2.1244 -1.5684  0.7221
   76CHL1  H18C 6760   2.450   4.461   5.469 -1.9165 -0.2770  1.3640
   76CHL1   C12 6761   2.320   4.306   5.293  0.4485 -0.0274 -0.0332
   76CHL1  H12A 6762   2.370   4.247   5.373  1.5847  1.3865  0.3429
   76CHL1  H12B 6763   2.226   4.257   5.260 -1.0783  2.7077  0.0257
   76CHL1   C11 6764   2.408   4.323   5.166 -0.0624  0.3281  0.2489
   76CHL1  H11A 6765   2.498   4.376   5.204  0.8582 -1.7999  1.2050
   76CHL1  H11B 6766   2.443   4.228   5.119 -0.2259  1.4734 -2.3271
   76CHL1    C9 6767   2.341   4.403   5.053 -0.2668  0.5613 -0.2591
   76CHL1    H9 6768   2.253   4.340   5.026 -1.2473  1.6135  0.4166
   76CHL1   C10 6769   2.433   4.422   4.921 -0.1981  0.1676 -0.0165
   76CHL1   C19 6770   2.572   4.457   4.960 -0.5509 -0.4011 -0.1861
   76CHL1  H19A 6771   2.576   4.560   5.002  1.7638 -0.5950  0.1729
   76CHL1  H19B 6772   2.624   4.391   5.032  1.0414  2.2693  1.2591
   76CHL1  H19C 6773   2.643   4.461   4.875  1.0116  1.1966  1.1088
   76CHL1    C1 6774   2.442   4.287   4.832 -0.3373 -0.4373 -0.0617
   76CHL1   H1A 6775   2.492   4.207   4.890 -1.3598 -1.2318 -0.2324
   76CHL1   H1B 6776   2.343   4.241   4.810 -1.9400  3.5352 -2.1883
   76CHL1    C2 6777   2.501   4.302   4.687 -0.0349 -0.0263 -0.8012
   76CHL1   H2A 6778   2.484   4.209   4.629 -0.6734  0.3839 -1.2874
   76CHL1   H2B 6779   2.610   4.321   4.684  0.1905 -0.1675  2.6619
   76CHL1   C20 6780   2.200   4.429   5.599  0.2201  0.8834 -0.8294
   76CHL1   H20 6781   2.289   4.490   5.626 -2.1114  4.1738  0.1476
   76CHL1   C21 6782   2.234   4.289   5.634 -0.3606 -0.2575  0.2689
   76CHL1  H21A 6783   2.247   4.284   5.744  2.4810  0.0814  0.0184
   76CHL1  H21B 6784   2.332   4.263   5.591 -1.0423 -1.9945 -0.3070
   76CHL1  H21C 6785   2.157   4.225   5.586 -2.4280  2.5354 -0.4730
   76CHL1   C22 6786   2.069   4.455   5.695 -1.3511  0.1007  0.0996
   76CHL1  H22A 6787   2.015   4.549   5.671 -1.1166  0.5646  1.3314
   76CHL1  H22B 6788   2.006   4.364   5.683 -1.5826  0.3732 -0.8771
   76CHL1   C23 6789   2.099   4.479   5.847  0.3923 -0.2108 -0.3791
   76CHL1  H23A 6790   2.149   4.384   5.877  2.2645  0.7778 -0.2861
   76CHL1  H23B 6791   2.154   4.575   5.853 -0.8723  0.4185  2.1160
   76CHL1   C24 6792   1.965   4.505   5.918 -0.1587  0.3320  0.3120
   76CHL1  H24A 6793   1.923   4.601   5.882  1.1204  0.8452  0.1144
   76CHL1  H24B 6794   1.893   4.426   5.888  1.9553 -1.1500 -1.1581
   76CHL1   C25 6795   1.971   4.520   6.074  0.7148  0.7434 -0.5714
   76CHL1   H25 6796   1.967   4.413   6.102 -1.4405  0.5248 -1.4814
   76CHL1   C26 6797   2.094   4.589   6.125  0.1451 -0.4865  0.1850
   76CHL1  H26A 6798   2.078   4.692   6.084 -0.2201 -1.1202 -1.3364
   76CHL1  H26B 6799   2.103   4.592   6.236 -0.4891 -0.6668  0.2485
   76CHL1  H26C 6800   2.186   4.543   6.084 -0.2497 -1.5045  0.4219
   76CHL1   C27 6801   1.842   4.580   6.123  0.0207  0.6875 -0.4026
   76CHL1  H27A 6802   1.752   4.521   6.095 -0.6664  0.4946  2.0031
   76CHL1  H27B 6803   1.846   4.560   6.232 -2.0761  0.7321 -0.2849
   76CHL1  H27C 6804   1.831   4.689   6.101  2.0458  0.5142 -2.6123
   77SOPE     N 6805   3.639   0.196   0.286 -0.0235 -0.4862 -0.0639
   77SOPE   HN1 6806   3.542   0.208   0.320 -0.4207  2.5474 -1.8788
   77SOPE   HN2 6807   3.695   0.264   0.341  1.3807  0.3338 -2.3425
   77SOPE   HN3 6808   3.629   0.224   0.186 -1.1106 -1.8638 -0.3582
   77SOPE   C12 6809   3.687   0.061   0.310 -0.7528  0.6338  0.0418
   77SOPE  H12A 6810   3.707   0.041   0.417 -0.6178 -1.0904 -0.2769
   77SOPE  H12B 6811   3.783   0.047   0.257 -0.0764  0.8120  1.1955
   77SOPE   C11 6812   3.590  -0.043   0.246 -0.0669 -0.3601  0.1521
   77SOPE  H11A 6813   3.486  -0.035   0.283 -1.0402 -1.2931 -2.1854
   77SOPE  H11B 6814   3.630  -0.143   0.274  0.3767  0.2553  1.8580
   77SOPE     P 6815   3.477  -0.101   0.007  0.4287 -0.3618 -0.1533
   77SOPE   O13 6816   3.344  -0.036   0.016 -0.8192 -0.5520  0.0540
   77SOPE   O14 6817   3.490  -0.245   0.040 -0.0496 -0.3725  0.4086
   77SOPE   O12 6818   3.585  -0.027   0.105  0.4699 -1.1366  0.1471
   77SOPE   O11 6819   3.532  -0.067  -0.139  0.0725  0.2381 -0.1181
   77SOPE    C1 6820   3.659  -0.112  -0.179 -0.4079 -0.4399 -0.4580
   77SOPE    HA 6821   3.683  -0.209  -0.129  2.3489  1.1298  1.5687
   77SOPE    HB 6822   3.745  -0.051  -0.144 -0.5407 -1.2176  1.3604
   77SOPE    C2 6823   3.665  -0.138  -0.334 -0.5328 -0.0637 -0.1898
   77SOPE    HS 6824   3.773  -0.136  -0.357 -0.4954 -0.0917 -0.0128
   77SOPE   O21 6825   3.594  -0.032  -0.399  0.3811  0.0864  0.5768
   77SOPE   C21 6826   3.640   0.097  -0.381  0.0905 -0.0666  0.4199
   77SOPE   O22 6827   3.747   0.125  -0.332 -0.2325 -0.5575 -0.2803
   77SOPE   C22 6828   3.538   0.197  -0.444 -0.3241  0.7323  0.9447
   77SOPE   H2R 6829   3.589   0.292  -0.470 -1.0996  0.8696 -0.1154
   77SOPE   H2S 6830   3.465   0.218  -0.363 -1.8622  1.1547 -0.5013
   77SOPE    C3 6831   3.610  -0.284  -0.361  0.3107  0.0395  0.4966
   77SOPE    HX 6832   3.514  -0.290  -0.305  1.0617  0.9499  1.9414
   77SOPE    HY 6833   3.679  -0.359  -0.317  2.6517  0.3502 -2.3236
   77SOPE   O31 6834   3.608  -0.302  -0.505  0.3850  0.4097 -0.1706
   77SOPE   C31 6835   3.484  -0.302  -0.559  0.0185  0.4482 -0.5677
   77SOPE   O32 6836   3.382  -0.304  -0.490 -0.6471  0.4768  0.1189
   77SOPE   C32 6837   3.487  -0.328  -0.712 -0.0226  0.4067  0.2520
   77SOPE   H2X 6838   3.479  -0.437  -0.727 -1.4012  0.1815  2.2511
   77SOPE   H2Y 6839   3.577  -0.281  -0.756 -0.2886  0.4132 -0.3004
   77SOPE   C23 6840   3.460   0.147  -0.573 -0.3275  0.1397 -0.1170
   77SOPE   H3R 6841   3.395   0.067  -0.532  1.7325 -0.8876  1.3252
   77SOPE   H3S 6842   3.520   0.108  -0.657 -0.8243  0.3692 -0.5803
   77SOPE   C24 6843   3.378   0.262  -0.632 -0.0466 -0.0367  0.6685
   77SOPE   H4R 6844   3.315   0.221  -0.714  1.9246 -1.2116 -0.3235
   77SOPE   H4S 6845   3.320   0.298  -0.544 -3.4634 -2.8364 -0.2181
   77SOPE   C25 6846   3.460   0.380  -0.698 -0.5185 -0.1981  0.6148
   77SOPE   H5R 6847   3.390   0.466  -0.709 -1.2727 -0.6976  1.3388
   77SOPE   H5S 6848   3.541   0.413  -0.629 -0.5611  1.5311 -0.1113
   77SOPE   C26 6849   3.509   0.336  -0.841  0.1517 -0.6505 -0.1699
   77SOPE   H6R 6850   3.525   0.226  -0.848 -1.1383 -0.7967 -0.9860
   77SOPE   H6S 6851   3.425   0.359  -0.910  0.7272 -2.0244 -1.3723
   77SOPE   C27 6852   3.641   0.408  -0.891 -0.1858 -0.1745  0.0482
   77SOPE   H7R 6853   3.721   0.393  -0.815 -0.3130  0.2658  0.2700
   77SOPE   H7S 6854   3.671   0.366  -0.990 -0.6097 -1.1193  0.3097
   77SOPE   C28 6855   3.625   0.557  -0.910  0.4855  0.2871  0.3842
   77SOPE   H8R 6856   3.601   0.597  -0.810 -1.0095  2.5558 -0.8115
   77SOPE   H8S 6857   3.731   0.584  -0.930  1.1427 -0.8863  2.0620
   77SOPE   C29 6858   3.515   0.609  -1.000  0.5065 -0.9291  0.2671
   77SOPE   H91 6859   3.413   0.583  -0.966  0.4406  0.5800  1.3539
   77SOPE  C210 6860   3.523   0.697  -1.097 -0.0542  0.0496 -0.6621
   77SOPE  H101 6861   3.432   0.719  -1.155  0.8345  0.8997 -1.7961
   77SOPE  C211 6862   3.659   0.737  -1.164  0.0774 -0.2701 -1.0114
   77SOPE  H11R 6863   3.747   0.676  -1.135 -1.9605 -2.7659  0.2696
   77SOPE  H11S 6864   3.667   0.837  -1.114 -0.2010 -1.8226  2.4513
   77SOPE  C212 6865   3.673   0.758  -1.316 -0.2273 -0.7164  0.0842
   77SOPE  H12R 6866   3.660   0.662  -1.371 -2.7649  1.3106 -3.2427
   77SOPE  H12S 6867   3.767   0.811  -1.346  0.2869 -1.4030  0.4587
   77SOPE  C213 6868   3.564   0.843  -1.380 -0.6518 -1.2423  0.0488
   77SOPE  H13R 6869   3.551   0.936  -1.321 -2.7477 -1.6428  0.3025
   77SOPE  H13S 6870   3.465   0.792  -1.378 -2.8961  2.5644 -1.8133
   77SOPE  C214 6871   3.593   0.888  -1.524 -0.3546 -0.4205 -0.1151
   77SOPE  H14R 6872   3.642   0.798  -1.569  0.5314 -0.6362  1.2278
   77SOPE  H14S 6873   3.679   0.958  -1.517 -0.8661  0.1796  0.2778
   77SOPE  C215 6874   3.473   0.939  -1.610 -0.0548  0.1714  0.7315
   77SOPE  H15R 6875   3.425   0.840  -1.625 -0.9356  0.2502  2.7065
   77SOPE  H15S 6876   3.506   0.979  -1.708  1.6585 -0.4543  1.0216
   77SOPE  C216 6877   3.382   1.040  -1.540 -0.0715  0.0944 -0.3364
   77SOPE  H16R 6878   3.359   0.997  -1.440 -0.4993 -1.0603 -0.9126
   77SOPE  H16S 6879   3.285   1.059  -1.590 -0.5129  1.6827  1.0224
   77SOPE  C217 6880   3.443   1.188  -1.524 -0.2282  0.5508 -0.2835
   77SOPE  H17R 6881   3.487   1.212  -1.624 -2.6683  0.0404 -1.5683
   77SOPE  H17S 6882   3.525   1.175  -1.450 -1.2102 -2.5717  0.3669
   77SOPE  C218 6883   3.347   1.302  -1.490 -0.2274  0.0208 -0.1586
   77SOPE  H18R 6884   3.402   1.398  -1.497  1.3066 -0.7149  0.9944
   77SOPE  H18S 6885   3.311   1.298  -1.385  1.0520  0.3697  0.3106
   77SOPE  H18T 6886   3.258   1.298  -1.556 -0.4288 -0.8555  0.1556
   77SOPE   C33 6887   3.369  -0.252  -0.788  0.2311  0.5789  0.2959
   77SOPE   H3X 6888   3.364  -0.142  -0.773  1.3944  0.7365 -0.3701
   77SOPE   H3Y 6889   3.275  -0.296  -0.749  0.7370 -0.7702  0.0504
   77SOPE   C34 6890   3.355  -0.293  -0.942 -0.1480  0.2228 -0.5223
   77SOPE   H4X 6891   3.251  -0.286  -0.982  0.3030 -2.4754 -2.4711
   77SOPE   H4Y 6892   3.372  -0.403  -0.941  1.1866  0.4004 -1.4697
   77SOPE   C35 6893   3.453  -0.225  -1.027  0.3018  0.6463  0.6359
   77SOPE   H5X 6894   3.480  -0.278  -1.121  2.2950  1.5772  0.6263
   77SOPE   H5Y 6895   3.545  -0.217  -0.965 -0.0019 -0.0123  1.1726
   77SOPE   C36 6896   3.394  -0.092  -1.079 -0.0499  0.0806 -0.3203
   77SOPE   H6X 6897   3.371  -0.024  -0.995  0.4260  1.6364 -1.4148
   77SOPE   H6Y 6898   3.295  -0.107  -1.128 -0.5243  2.0600 -0.0466
   77SOPE   C37 6899   3.481  -0.009  -1.170  0.5046 -0.3295  0.7481
   77SOPE   H7X 6900   3.470  -0.048  -1.274 -2.2026  2.0462  0.0158
   77SOPE   H7Y 6901   3.589  -0.016  -1.144  1.3793  0.3736 -2.2322
   77SOPE   C38 6902   3.448   0.143  -1.173 -0.1706  0.4787 -0.0931
   77SOPE   H8X 6903   3.450   0.168  -1.065 -2.6225  1.4772 -0.2192
   77SOPE   H8Y 6904   3.347   0.152  -1.219  0.1982  1.5460 -0.7226
   77SOPE   C39 6905   3.542   0.242  -1.244  0.0051  0.1368  0.4439
   77SOPE   H9X 6906   3.650   0.224  -1.223  0.1654 -0.7635 -0.9950
   77SOPE   H9Y 6907   3.507   0.346  -1.225 -0.0956 -0.1467  2.0228
   77SOPE  C310 6908   3.524   0.237  -1.399  0.0299 -0.7214 -0.1663
   77SOPE  H10X 6909   3.415   0.235  -1.422 -0.0388 -0.1446  0.1024
   77SOPE  H10Y 6910   3.566   0.142  -1.438  0.9098  0.0945 -1.2517
   77SOPE  C311 6911   3.597   0.350  -1.476 -0.5530 -0.4254 -0.0207
   77SOPE  H11X 6912   3.700   0.312  -1.496 -0.6827  0.3856 -2.6164
   77SOPE  H11Y 6913   3.621   0.435  -1.407  0.3205  0.3272 -1.2030
   77SOPE  C312 6914   3.554   0.391  -1.617  0.4531 -0.0221  0.1453
   77SOPE  H12X 6915   3.453   0.440  -1.615 -0.0877 -0.9866 -1.6625
   77SOPE  H12Y 6916   3.533   0.297  -1.673 -0.6916 -0.1522  0.7504
   77SOPE  C313 6917   3.659   0.466  -1.705 -0.6400 -0.0856 -0.2954
   77SOPE  H13X 6918   3.715   0.386  -1.757  0.0961 -1.1932  2.0490
   77SOPE  H13Y 6919   3.721   0.536  -1.644 -3.4510  1.1999  1.2992
   77SOPE  C314 6920   3.584   0.549  -1.817 -0.2766  0.0782  0.1169
   77SOPE  H14X 6921   3.504   0.621  -1.789 -0.0665  2.6053 -4.7331
   77SOPE  H14Y 6922   3.529   0.472  -1.877  1.8340  0.3191 -2.3232
   77SOPE  C315 6923   3.683   0.628  -1.903 -0.0627  0.1328 -0.2094
   77SOPE  H15X 6924   3.751   0.560  -1.960  1.3156 -0.7724  2.3864
   77SOPE  H15Y 6925   3.740   0.688  -1.830 -0.0040  0.4967 -0.5492
   77SOPE  C316 6926   3.625   0.720  -2.010 -0.2340 -0.1366  0.2693
   77SOPE  H16X 6927   3.695   0.798  -2.046  0.5620 -0.8445  0.2422
   77SOPE  H16Y 6928   3.543   0.779  -1.965  0.5034  1.5203 -0.4830
   77SOPE  C317 6929   3.551   0.656  -2.137 -0.1608 -0.2004 -0.1695
   77SOPE  H17X 6930   3.475   0.583  -2.102 -0.1474  0.8625  2.2866
   77SOPE  H17Y 6931   3.627   0.589  -2.181 -0.9549 -0.3870 -1.3019
   77SOPE  C318 6932   3.492   0.765  -2.230  0.6333  0.6470 -0.1358
   77SOPE  H18X 6933   3.403   0.809  -2.179  0.7277 -1.8662  2.4305
   77SOPE  H18Y 6934   3.466   0.714  -2.325 -1.7729 -2.4081  1.9465
   77SOPE  H18Z 6935   3.563   0.846  -2.255  1.0707  0.4258  0.3862
   78SOPE     N 6936   3.202   6.016   8.388 -0.2434 -0.5214  0.2023
   78SOPE   HN1 6937   3.115   6.072   8.399 -0.7605 -1.5966  2.2462
   78SOPE   HN2 6938   3.231   6.004   8.289 -1.6477  2.9043 -0.7482
   78SOPE   HN3 6939   3.186   5.925   8.436 -0.6306 -0.3346  0.4376
   78SOPE   C12 6940   3.323   6.087   8.451 -0.7013 -0.2629  0.2983
   78SOPE  H12A 6941   3.308   6.088   8.561  1.7240 -1.1308  0.6839
   78SOPE  H12B 6942   3.331   6.188   8.406 -0.2519 -1.1836 -1.8562
   78SOPE   C11 6943   3.447   5.996   8.428  0.5915 -0.0480 -0.3453
   78SOPE  H11A 6944   3.475   5.989   8.320  0.3908 -0.3186 -0.3810
   78SOPE  H11B 6945   3.418   5.895   8.462 -1.3525  0.1966 -1.1363
   78SOPE     P 6946   3.661   6.163   8.483  0.1047  0.2421 -0.2150
   78SOPE   O13 6947   3.786   6.156   8.571  0.5993 -0.0812  0.5063
   78SOPE   O14 6948   3.593   6.299   8.472 -0.5256  0.0516  0.2983
   78SOPE   O12 6949   3.561   6.045   8.507  0.2424  0.0368  0.4838
   78SOPE   O11 6950   3.713   6.122   8.338 -0.4929 -0.1220 -0.6282
   78SOPE    C1 6951   3.640   6.178   8.226 -0.4242  0.1407  0.1376
   78SOPE    HA 6952   3.672   6.283   8.207  2.0919 -0.3161  1.3125
   78SOPE    HB 6953   3.530   6.174   8.232 -0.4660  1.8444  1.6721
   78SOPE    C2 6954   3.683   6.111   8.090  0.2675 -0.6815 -0.5502
   78SOPE    HS 6955   3.791   6.085   8.100  0.0025 -2.1304 -1.1355
   78SOPE   O21 6956   3.659   6.202   7.980  0.0181 -0.3944  0.0707
   78SOPE   C21 6957   3.761   6.283   7.952  0.3163 -0.5407 -0.3211
   78SOPE   O22 6958   3.866   6.293   8.013  0.3095 -0.3323 -0.0636
   78SOPE   C22 6959   3.727   6.369   7.827 -0.0403 -0.1284  0.2962
   78SOPE   H2R 6960   3.642   6.431   7.865 -0.2053 -1.6583  2.5832
   78SOPE   H2S 6961   3.682   6.299   7.753 -1.1826 -1.5446  2.2400
   78SOPE    C3 6962   3.601   5.977   8.067 -0.7248  0.1031  0.0819
   78SOPE    HX 6963   3.494   6.006   8.070 -0.0863  2.9918 -1.8824
   78SOPE    HY 6964   3.634   5.906   8.147 -1.8427 -1.8469 -1.0938
   78SOPE   O31 6965   3.654   5.908   7.945  0.1351 -0.1811  0.5995
   78SOPE   C31 6966   3.556   5.859   7.866 -0.1820 -0.1002  0.0322
   78SOPE   O32 6967   3.439   5.867   7.885 -0.2512 -0.4935 -0.5953
   78SOPE   C32 6968   3.627   5.778   7.754  0.4687 -0.1477 -0.0859
   78SOPE   H2X 6969   3.693   5.700   7.799  1.2259  0.8521  0.5847
   78SOPE   H2Y 6970   3.699   5.849   7.709  1.7865 -1.5092 -0.2037
   78SOPE   C23 6971   3.853   6.456   7.777 -0.4416  0.3447  0.1663
   78SOPE   H3R 6972   3.940   6.390   7.760  0.2198  1.0012  0.9335
   78SOPE   H3S 6973   3.884   6.520   7.862 -1.7361 -0.9106  1.6491
   78SOPE   C24 6974   3.830   6.543   7.653 -0.2492  0.8725 -0.9887
   78SOPE   H4R 6975   3.768   6.633   7.677  0.1831  1.0862 -0.6669
   78SOPE   H4S 6976   3.930   6.590   7.644 -0.9351  1.9696 -4.0629
   78SOPE   C25 6977   3.786   6.470   7.526  0.3780  0.3988 -0.1300
   78SOPE   H5R 6978   3.836   6.372   7.510  0.7755  1.0868 -4.1801
   78SOPE   H5S 6979   3.681   6.444   7.550  0.8313 -0.2772  1.2177
   78SOPE   C26 6980   3.796   6.562   7.396 -0.2226 -0.1894  0.4788
   78SOPE   H6R 6981   3.726   6.647   7.413  1.2577  1.5442 -1.5748
   78SOPE   H6S 6982   3.894   6.613   7.397 -0.4978  0.3568  1.4742
   78SOPE   C27 6983   3.764   6.494   7.268 -0.4231  0.3734  0.3834
   78SOPE   H7R 6984   3.837   6.411   7.261  1.4449  2.0114 -0.9336
   78SOPE   H7S 6985   3.669   6.437   7.275 -0.5998  0.8141  1.8964
   78SOPE   C28 6986   3.780   6.587   7.144 -0.0743  0.1125  0.1004
   78SOPE   H8R 6987   3.889   6.604   7.127  0.0637 -0.3693  0.4948
   78SOPE   H8S 6988   3.772   6.522   7.054  2.5072  1.6793 -1.3979
   78SOPE   C29 6989   3.696   6.709   7.127 -0.1627  0.5433  0.0073
   78SOPE   H91 6990   3.653   6.748   7.220  2.2658  1.8883  0.6457
   78SOPE  C210 6991   3.692   6.775   7.012 -1.1417  0.1387 -0.0909
   78SOPE  H101 6992   3.621   6.858   7.001 -1.5800  0.1629  2.3643
   78SOPE  C211 6993   3.759   6.730   6.885 -0.5981 -0.0423  0.4955
   78SOPE  H11R 6994   3.857   6.687   6.914 -0.8350  0.5387  2.2815
   78SOPE  H11S 6995   3.771   6.810   6.809  0.1488  1.3802  2.0415
   78SOPE  C212 6996   3.674   6.624   6.808 -0.6299  0.1204 -0.2022
   78SOPE  H12R 6997   3.572   6.665   6.794 -1.8407 -2.3150  0.8817
   78SOPE  H12S 6998   3.656   6.537   6.874 -2.2937  0.5082 -0.0961
   78SOPE  C213 6999   3.728   6.556   6.681 -0.3431 -0.1248 -0.2503
   78SOPE  H13R 7000   3.790   6.634   6.632 -1.6874  0.4452 -1.1111
   78SOPE  H13S 7001   3.631   6.528   6.634 -1.0467  0.9395  0.5247
   78SOPE  C214 7002   3.826   6.442   6.717  0.1393  0.3517 -0.3535
   78SOPE  H14R 7003   3.769   6.360   6.767 -0.2522 -0.1150 -1.5125
   78SOPE  H14S 7004   3.905   6.469   6.789  0.6012 -1.7135  0.0015
   78SOPE  C215 7005   3.872   6.371   6.589  0.2911  0.6382 -0.1647
   78SOPE  H15R 7006   3.944   6.436   6.536 -0.2721  1.9094  0.5798
   78SOPE  H15S 7007   3.784   6.356   6.523  0.5685 -0.9806 -0.2057
   78SOPE  C216 7008   3.937   6.240   6.634 -0.4778  0.0006  0.0147
   78SOPE  H16R 7009   3.874   6.185   6.708  0.1856 -2.2283 -0.9851
   78SOPE  H16S 7010   4.036   6.265   6.678  0.0696 -2.0271  0.0257
   78SOPE  C217 7011   3.955   6.139   6.522  0.1837 -0.0480 -0.1136
   78SOPE  H17R 7012   3.975   6.201   6.431  1.4897 -1.0645 -0.5631
   78SOPE  H17S 7013   3.864   6.082   6.496 -1.5275  3.5514 -2.8928
   78SOPE  C218 7014   4.084   6.045   6.533  0.2946 -0.0810  0.0660
   78SOPE  H18R 7015   4.069   5.998   6.633  0.7595  0.4608  0.3998
   78SOPE  H18S 7016   4.173   6.111   6.532  0.1982  0.0363 -0.5915
   78SOPE  H18T 7017   4.090   5.967   6.455 -0.6530  0.5602 -0.6674
   78SOPE   C33 7018   3.523   5.737   7.652  0.6036  0.3258  0.3559
   78SOPE   H3X 7019   3.468   5.824   7.608  0.8217 -0.0126 -0.6209
   78SOPE   H3Y 7020   3.445   5.668   7.690 -0.8565  0.9854 -1.2796
   78SOPE   C34 7021   3.583   5.663   7.532 -0.1858  0.1647  0.1848
   78SOPE   H4X 7022   3.633   5.568   7.561 -0.5083 -0.1209 -0.1663
   78SOPE   H4Y 7023   3.659   5.732   7.490  0.3184 -0.0866  0.6853
   78SOPE   C35 7024   3.479   5.641   7.423  0.7139 -0.0062  0.2074
   78SOPE   H5X 7025   3.421   5.734   7.406 -1.8771 -1.9176 -2.2581
   78SOPE   H5Y 7026   3.410   5.565   7.465  0.5750 -1.2090 -2.0357
   78SOPE   C36 7027   3.555   5.598   7.302  0.0308  0.5497  0.4621
   78SOPE   H6X 7028   3.606   5.500   7.309 -0.5075  0.3265  1.6982
   78SOPE   H6Y 7029   3.638   5.670   7.287  0.0390  0.3266 -0.6024
   78SOPE   C37 7030   3.458   5.606   7.186  0.6471  0.6950  0.0904
   78SOPE   H7X 7031   3.516   5.591   7.092 -1.3069 -0.9327 -0.9128
   78SOPE   H7Y 7032   3.399   5.699   7.176 -2.0132 -0.7411  1.2629
   78SOPE   C38 7033   3.353   5.492   7.184  0.4165  0.5071  0.6870
   78SOPE   H8X 7034   3.284   5.508   7.269  0.8535 -1.2445  1.4259
   78SOPE   H8Y 7035   3.396   5.390   7.198  0.2778 -0.1725 -2.8602
   78SOPE   C39 7036   3.283   5.493   7.049 -0.3603  0.1135  0.5525
   78SOPE   H9X 7037   3.364   5.488   6.973 -0.2742 -1.2844  0.6956
   78SOPE   H9Y 7038   3.228   5.589   7.040 -0.8438 -0.0525  1.5650
   78SOPE  C310 7039   3.191   5.367   7.016 -0.6518 -0.1942 -0.3369
   78SOPE  H10X 7040   3.123   5.367   7.104  0.4991 -0.3773  0.5963
   78SOPE  H10Y 7041   3.257   5.279   7.001  0.7617  0.5835  0.9108
   78SOPE  C311 7042   3.105   5.383   6.896 -0.0881  0.0200 -0.2382
   78SOPE  H11X 7043   3.164   5.365   6.803  1.2454  0.7945  0.4149
   78SOPE  H11Y 7044   3.070   5.487   6.915  1.7223  0.5669  0.3371
   78SOPE  C312 7045   2.983   5.283   6.901  0.1891 -0.4841  0.1014
   78SOPE  H12X 7046   2.938   5.290   7.002  0.5482  2.0657  0.1560
   78SOPE  H12Y 7047   3.023   5.180   6.889  0.4097 -0.4154  0.2392
   78SOPE  C313 7048   2.866   5.327   6.812  0.2706 -0.8632  0.0940
   78SOPE  H13X 7049   2.843   5.434   6.834  1.4902 -1.1219  3.1608
   78SOPE  H13Y 7050   2.764   5.285   6.824 -1.8203  3.6913  0.6456
   78SOPE  C314 7051   2.900   5.326   6.659  0.2876  0.5994  0.0638
   78SOPE  H14X 7052   2.943   5.226   6.638  2.9993  1.7951 -0.4963
   78SOPE  H14Y 7053   2.983   5.396   6.635 -0.8713  1.6941 -0.9061
   78SOPE  C315 7054   2.776   5.348   6.571  0.4653 -0.5222  0.3277
   78SOPE  H15X 7055   2.708   5.265   6.600  0.1859 -0.4060 -0.0027
   78SOPE  H15Y 7056   2.812   5.333   6.467  0.6639  1.3313  0.1030
   78SOPE  C316 7057   2.702   5.481   6.598 -0.6801 -0.9457  0.2136
   78SOPE  H16X 7058   2.660   5.480   6.701 -1.0504 -2.0102  0.0633
   78SOPE  H16Y 7059   2.613   5.491   6.532 -0.5002  1.2730  0.2490
   78SOPE  C317 7060   2.794   5.602   6.571  0.2405 -0.7136  0.2235
   78SOPE  H17X 7061   2.825   5.603   6.464  0.4200 -2.0014  0.2551
   78SOPE  H17Y 7062   2.883   5.595   6.636  0.3288  1.0672  0.3413
   78SOPE  C318 7063   2.742   5.747   6.601  0.3678  0.4578  0.4271
   78SOPE  H18X 7064   2.823   5.822   6.591  0.3634  0.7426  2.2094
   78SOPE  H18Y 7065   2.689   5.761   6.697  0.3411 -0.5069  0.5660
   78SOPE  H18Z 7066   2.662   5.776   6.529  0.5701  1.3593  0.5619
   79SOPE     N 7067   4.521   3.188   0.355 -0.2657 -0.2631  0.0639
   79SOPE   HN1 7068   4.573   3.276   0.335  0.5093 -0.8269 -0.5219
   79SOPE   HN2 7069   4.422   3.194   0.323 -0.4778 -0.7743  0.6028
   79SOPE   HN3 7070   4.539   3.178   0.457  1.3388 -2.8205 -0.3649
   79SOPE   C12 7071   4.582   3.060   0.294 -0.0442 -0.1312 -0.4592
   79SOPE  H12A 7072   4.549   2.975   0.358  2.3489 -1.5383 -0.9770
   79SOPE  H12B 7073   4.693   3.066   0.285 -0.0878  0.5677 -0.5720
   79SOPE   C11 7074   4.541   3.042   0.149 -0.4079  0.5799 -0.0754
   79SOPE  H11A 7075   4.601   2.955   0.113 -1.5554 -0.2892  0.0593
   79SOPE  H11B 7076   4.566   3.129   0.084  1.0642  2.4983  2.8456
   79SOPE     P 7077   4.293   3.113   0.102  0.1041  0.4040 -0.2638
   79SOPE   O13 7078   4.301   3.209   0.219 -0.2493  0.0606  0.0865
   79SOPE   O14 7079   4.158   3.056   0.087  0.2147 -0.2542  0.2881
   79SOPE   O12 7080   4.406   3.002   0.126  0.2845 -0.2151 -0.3322
   79SOPE   O11 7081   4.335   3.182  -0.026 -0.3866 -0.2857 -0.4381
   79SOPE    C1 7082   4.366   3.096  -0.137 -0.0253  0.2878  0.0154
   79SOPE    HA 7083   4.282   3.026  -0.157 -0.8723  1.4074 -0.4400
   79SOPE    HB 7084   4.461   3.041  -0.115  0.2533  1.1495  1.0155
   79SOPE    C2 7085   4.390   3.175  -0.276 -0.3425 -0.3978 -0.5083
   79SOPE    HS 7086   4.412   3.104  -0.358 -0.3249 -0.4670 -0.4444
   79SOPE   O21 7087   4.496   3.268  -0.256 -0.2206 -0.3449 -0.5211
   79SOPE   C21 7088   4.614   3.215  -0.248  0.7590 -0.4909 -0.1832
   79SOPE   O22 7089   4.641   3.100  -0.238 -0.1171  0.5836  0.3072
   79SOPE   C22 7090   4.716   3.325  -0.234 -0.2605 -0.8059  0.2769
   79SOPE   H2R 7091   4.773   3.315  -0.139  0.2444 -2.1153 -0.1403
   79SOPE   H2S 7092   4.671   3.426  -0.222  2.1066  0.3004  0.4746
   79SOPE    C3 7093   4.267   3.253  -0.312 -0.0834 -0.2519 -0.8805
   79SOPE    HX 7094   4.256   3.339  -0.243 -3.2783 -1.1863 -0.0446
   79SOPE    HY 7095   4.170   3.201  -0.292  0.4598 -1.2798 -0.8375
   79SOPE   O31 7096   4.265   3.296  -0.446 -0.0831  0.0041 -0.2168
   79SOPE   C31 7097   4.241   3.202  -0.539  0.1970  0.7577 -0.1765
   79SOPE   O32 7098   4.212   3.086  -0.521 -0.0469 -0.1403  0.3553
   79SOPE   C32 7099   4.262   3.253  -0.683  1.0376  0.0991  0.4362
   79SOPE   H2X 7100   4.326   3.343  -0.669  0.7238  0.5708 -0.9778
   79SOPE   H2Y 7101   4.158   3.282  -0.710  0.7465 -0.2860  1.1042
   79SOPE   C23 7102   4.814   3.325  -0.351  0.3916 -0.2207 -0.4288
   79SOPE   H3R 7103   4.853   3.223  -0.367  1.6928  0.1639  0.1699
   79SOPE   H3S 7104   4.907   3.375  -0.314  0.2074  0.1905 -0.5081
   79SOPE   C24 7105   4.758   3.395  -0.476 -0.2944 -0.3289  0.5801
   79SOPE   H4R 7106   4.652   3.365  -0.485 -1.3526  2.8796  0.9862
   79SOPE   H4S 7107   4.772   3.506  -0.478 -1.0084 -0.1628 -3.3735
   79SOPE   C25 7108   4.825   3.347  -0.602 -0.8532 -0.1595 -0.6877
   79SOPE   H5R 7109   4.928   3.385  -0.617  0.1842 -2.4373  0.1882
   79SOPE   H5S 7110   4.839   3.237  -0.589 -0.6003 -0.0547 -0.0146
   79SOPE   C26 7111   4.747   3.386  -0.727  0.5940 -0.0405 -0.5734
   79SOPE   H6R 7112   4.639   3.362  -0.715  0.0798  1.7605 -1.2253
   79SOPE   H6S 7113   4.745   3.497  -0.719  2.6696  0.0155 -0.2788
   79SOPE   C27 7114   4.817   3.351  -0.858  0.6460  0.2787  0.3775
   79SOPE   H7R 7115   4.907   3.415  -0.870 -0.0328  1.1987  0.0869
   79SOPE   H7S 7116   4.833   3.241  -0.865 -3.0758 -0.6004  2.5755
   79SOPE   C28 7117   4.723   3.379  -0.971 -0.3551 -0.2096  0.2176
   79SOPE   H8R 7118   4.644   3.301  -0.967 -0.1559 -0.3989  3.8627
   79SOPE   H8S 7119   4.669   3.475  -0.956  1.0080  0.9067 -1.5408
   79SOPE   C29 7120   4.799   3.379  -1.103 -0.2728 -0.3910 -0.2017
   79SOPE   H91 7121   4.890   3.317  -1.091 -0.0067 -0.1910 -1.0995
   79SOPE  C210 7122   4.772   3.460  -1.209 -0.0093 -0.6903 -0.8228
   79SOPE  H101 7123   4.838   3.471  -1.296  1.5866 -0.4742  0.3628
   79SOPE  C211 7124   4.651   3.552  -1.213  0.0141  0.7724  0.8252
   79SOPE  H11R 7125   4.679   3.653  -1.251  0.0682  0.2917 -0.4376
   79SOPE  H11S 7126   4.602   3.555  -1.113  0.7845 -1.0027  1.2898
   79SOPE  C212 7127   4.522   3.503  -1.294 -0.0386  0.2466  0.3804
   79SOPE  H12R 7128   4.442   3.580  -1.286  0.2403  0.5998 -0.1535
   79SOPE  H12S 7129   4.465   3.421  -1.245 -2.0524 -0.0743 -2.2450
   79SOPE  C213 7130   4.547   3.479  -1.440  0.3508  0.3570  0.0600
   79SOPE  H13R 7131   4.453   3.434  -1.479 -0.1997  1.4658  0.0384
   79SOPE  H13S 7132   4.626   3.403  -1.457 -0.6300 -0.5263 -0.7279
   79SOPE  C214 7133   4.581   3.607  -1.523  0.4192 -0.3476  0.0427
   79SOPE  H14R 7134   4.655   3.673  -1.474 -1.0408  0.5411  1.1483
   79SOPE  H14S 7135   4.495   3.674  -1.502  2.5212  2.1221  1.2752
   79SOPE  C215 7136   4.593   3.581  -1.675  0.1345 -0.1528 -0.5650
   79SOPE  H15R 7137   4.498   3.535  -1.710 -0.2475 -0.5374  0.9135
   79SOPE  H15S 7138   4.681   3.516  -1.696 -0.4082 -1.0403 -0.1634
   79SOPE  C216 7139   4.615   3.707  -1.759 -0.0262 -0.1313 -0.5048
   79SOPE  H16R 7140   4.703   3.773  -1.746  0.3771 -0.7910  0.1871
   79SOPE  H16S 7141   4.537   3.772  -1.714  0.2919 -0.7260  0.9500
   79SOPE  C217 7142   4.568   3.671  -1.906 -0.4057  0.7343 -0.2334
   79SOPE  H17R 7143   4.465   3.629  -1.902 -0.6236  1.2816 -0.0550
   79SOPE  H17S 7144   4.623   3.586  -1.953  0.2440  1.8976 -1.6626
   79SOPE  C218 7145   4.561   3.781  -2.010 -0.3816  0.4439 -0.2723
   79SOPE  H18R 7146   4.501   3.867  -1.974  2.3530  1.4646  2.1485
   79SOPE  H18S 7147   4.522   3.739  -2.106 -1.0489 -0.9464  0.5696
   79SOPE  H18T 7148   4.662   3.813  -2.043 -0.1651  1.5631  1.3507
   79SOPE   C33 7149   4.318   3.147  -0.785  0.1239 -1.2300 -0.9392
   79SOPE   H3X 7150   4.273   3.050  -0.757  0.5358 -1.1805 -0.0801
   79SOPE   H3Y 7151   4.428   3.140  -0.769  0.3997  2.6591  0.0085
   79SOPE   C34 7152   4.276   3.165  -0.929 -0.5197  0.0676  0.0290
   79SOPE   H4X 7153   4.275   3.275  -0.941 -2.0002 -0.0649 -1.5206
   79SOPE   H4Y 7154   4.178   3.114  -0.942 -0.1041 -0.1521 -3.0538
   79SOPE   C35 7155   4.379   3.100  -1.022  0.3867 -0.2679  0.2163
   79SOPE   H5X 7156   4.383   2.989  -1.010 -2.2045 -0.4694 -0.1776
   79SOPE   H5Y 7157   4.481   3.120  -0.983  0.2430 -0.2804  0.6070
   79SOPE   C36 7158   4.371   3.155  -1.161 -0.0278 -0.2251 -0.3885
   79SOPE   H6X 7159   4.464   3.212  -1.184 -0.8406  1.2692 -0.0748
   79SOPE   H6Y 7160   4.298   3.238  -1.170  0.1715  0.6074  3.7543
   79SOPE   C37 7161   4.346   3.045  -1.265  0.2260 -0.4572 -1.0526
   79SOPE   H7X 7162   4.256   2.987  -1.235  1.3086 -1.4305  0.4569
   79SOPE   H7Y 7163   4.431   2.973  -1.258  1.8527  1.4592  0.0568
   79SOPE   C38 7164   4.344   3.088  -1.405  0.6138  0.0774  0.7076
   79SOPE   H8X 7165   4.380   3.006  -1.471 -0.4713 -0.8222  1.2043
   79SOPE   H8Y 7166   4.406   3.180  -1.412 -0.5038  0.9281  1.5469
   79SOPE   C39 7167   4.203   3.121  -1.456  0.5790 -0.2185  0.3737
   79SOPE   H9X 7168   4.144   3.170  -1.375  1.0207 -0.8119  1.0701
   79SOPE   H9Y 7169   4.139   3.036  -1.488  1.2609 -0.6055  0.0016
   79SOPE  C310 7170   4.212   3.210  -1.581 -0.5412 -0.2898 -0.2560
   79SOPE  H10X 7171   4.254   3.309  -1.550 -3.0494  1.0494 -0.8373
   79SOPE  H10Y 7172   4.115   3.224  -1.634  0.6756 -0.6224 -2.7227
   79SOPE  C311 7173   4.305   3.159  -1.687 -0.5318 -0.5493  0.2987
   79SOPE  H11X 7174   4.413   3.151  -1.661 -0.3094  0.9104 -0.0803
   79SOPE  H11Y 7175   4.298   3.233  -1.770 -0.0945  1.2612  1.8136
   79SOPE  C312 7176   4.267   3.023  -1.742  0.0709 -0.5945 -0.2217
   79SOPE  H12X 7177   4.160   3.023  -1.773 -0.7624  0.8097  2.3758
   79SOPE  H12Y 7178   4.285   2.953  -1.658  0.2116  1.5202  1.5950
   79SOPE  C313 7179   4.352   2.980  -1.853 -0.2180  0.2812  0.4630
   79SOPE  H13X 7180   4.461   2.996  -1.841 -0.4342  1.6675  0.8016
   79SOPE  H13Y 7181   4.325   3.052  -1.932  4.3219  0.9804 -0.7105
   79SOPE  C314 7182   4.335   2.835  -1.894 -1.0287  0.8979 -0.3071
   79SOPE  H14X 7183   4.228   2.806  -1.903 -0.9129  0.5703 -0.6775
   79SOPE  H14Y 7184   4.384   2.777  -1.813  0.8966  1.8589 -0.7330
   79SOPE  C315 7185   4.402   2.811  -2.031  0.3244 -0.5962  0.0033
   79SOPE  H15X 7186   4.507   2.847  -2.021 -0.4577  1.2435  2.7586
   79SOPE  H15Y 7187   4.356   2.875  -2.110  2.2644  0.7712 -0.0886
   79SOPE  C316 7188   4.380   2.667  -2.081 -0.2806  0.0306 -0.2544
   79SOPE  H16X 7189   4.273   2.652  -2.108 -0.2884 -0.6028  0.1014
   79SOPE  H16Y 7190   4.397   2.605  -1.990 -0.7303 -1.2523 -1.0249
   79SOPE  C317 7191   4.484   2.632  -2.184  0.5185  0.3128 -0.4278
   79SOPE  H17X 7192   4.463   2.526  -2.211 -0.3862  0.7335 -1.4195
   79SOPE  H17Y 7193   4.584   2.639  -2.136  1.1207  1.1688 -1.7548
   79SOPE  C318 7194   4.492   2.723  -2.313  0.2931  0.4051  0.1960
   79SOPE  H18X 7195   4.487   2.831  -2.286 -0.4963  0.9682 -2.0070
   79SOPE  H18Y 7196   4.401   2.696  -2.371  1.5461 -1.5608 -0.9514
   79SOPE  H18Z 7197   4.577   2.698  -2.379 -0.9041  1.9745 -2.0758
   80SOPE     N 7198   2.634   6.552   0.037  0.2226  0.2154  0.1633
   80SOPE   HN1 7199   2.719   6.502   0.004  0.8162 -0.8744  3.0426
   80SOPE   HN2 7200   2.645   6.656   0.031 -0.1777  0.2345 -0.3444
   80SOPE   HN3 7201   2.612   6.513   0.130 -0.3052  0.0234 -0.0414
   80SOPE   C12 7202   2.508   6.521  -0.045  0.3127  0.8937  0.9614
   80SOPE  H12A 7203   2.489   6.411  -0.038 -1.3895  1.1112  0.3833
   80SOPE  H12B 7204   2.527   6.547  -0.151 -0.5972  0.8227  0.7672
   80SOPE   C11 7205   2.381   6.599   0.013 -0.3490  1.0925 -0.0542
   80SOPE  H11A 7206   2.378   6.579   0.122  1.0060  2.3558  0.2520
   80SOPE  H11B 7207   2.296   6.549  -0.039  0.9095 -0.9383 -0.2917
   80SOPE     P 7208   2.330   6.823  -0.115 -0.1969 -0.2443  0.0937
   80SOPE   O13 7209   2.403   6.949  -0.116  0.6953  0.0206 -0.1126
   80SOPE   O14 7210   2.184   6.815  -0.099  0.0946  0.5720 -0.4979
   80SOPE   O12 7211   2.398   6.738  -0.002 -0.4128  0.0105  0.2295
   80SOPE   O11 7212   2.363   6.754  -0.248  0.6342  0.0847 -0.2239
   80SOPE    C1 7213   2.484   6.767  -0.316  0.1076 -0.3319  0.1602
   80SOPE    HA 7214   2.508   6.676  -0.373  1.1355  0.0792 -0.0722
   80SOPE    HB 7215   2.561   6.764  -0.237  1.1566 -2.2283 -0.8807
   80SOPE    C2 7216   2.498   6.889  -0.406 -0.1285 -0.2607 -0.0548
   80SOPE    HS 7217   2.490   6.979  -0.342  0.2406  0.0220 -0.3991
   80SOPE   O21 7218   2.401   6.892  -0.508 -0.2748  0.2407  0.1354
   80SOPE   C21 7219   2.337   7.002  -0.521  0.3027  0.2450  0.3990
   80SOPE   O22 7220   2.347   7.104  -0.449  0.5575  0.0522 -0.3643
   80SOPE   C22 7221   2.232   6.995  -0.636 -0.1064 -0.4836 -0.1241
   80SOPE   H2R 7222   2.136   6.959  -0.594  0.1515 -0.0773  0.8501
   80SOPE   H2S 7223   2.262   6.915  -0.707 -1.0245 -1.9465  1.0880
   80SOPE    C3 7224   2.638   6.884  -0.468  0.3286 -0.4620  0.1750
   80SOPE    HX 7225   2.658   6.785  -0.513  2.4940 -0.0980  0.2089
   80SOPE    HY 7226   2.705   6.885  -0.379  1.1358 -1.2113 -0.4070
   80SOPE   O31 7227   2.650   6.997  -0.558 -0.2803 -0.4658 -0.3670
   80SOPE   C31 7228   2.676   7.108  -0.494 -0.5213 -0.1136 -0.6622
   80SOPE   O32 7229   2.713   7.121  -0.379 -0.1021 -0.2726 -0.0008
   80SOPE   C32 7230   2.650   7.241  -0.571  0.4716  0.3699 -0.3091
   80SOPE   H2X 7231   2.714   7.317  -0.520  0.4947 -1.0557  1.9088
   80SOPE   H2Y 7232   2.543   7.256  -0.544  0.4801  1.5809 -0.8818
   80SOPE   C23 7233   2.206   7.131  -0.711 -0.1819 -0.3012 -0.7313
   80SOPE   H3R 7234   2.246   7.217  -0.653 -0.9827  0.1791 -0.8810
   80SOPE   H3S 7235   2.096   7.144  -0.722 -0.2349  0.7867  0.7658
   80SOPE   C24 7236   2.285   7.127  -0.839  0.9384 -0.4789 -0.4110
   80SOPE   H4R 7237   2.391   7.128  -0.804  0.9966 -1.7977 -0.5001
   80SOPE   H4S 7238   2.271   7.028  -0.887 -4.3061  0.1814 -0.7580
   80SOPE   C25 7239   2.252   7.237  -0.936  0.5622  0.1693  0.2282
   80SOPE   H5R 7240   2.144   7.234  -0.962  0.8390  0.2924 -1.0074
   80SOPE   H5S 7241   2.271   7.340  -0.899 -1.1163  0.2926  0.8600
   80SOPE   C26 7242   2.328   7.239  -1.067  0.0598  1.2507 -0.3114
   80SOPE   H6R 7243   2.438   7.241  -1.055  0.0894 -2.7491  1.7787
   80SOPE   H6S 7244   2.299   7.140  -1.108 -2.3647  0.6824  2.4008
   80SOPE   C27 7245   2.278   7.344  -1.164  0.3263 -0.6012 -0.1538
   80SOPE   H7R 7246   2.170   7.353  -1.139  0.5060 -1.0859  0.8473
   80SOPE   H7S 7247   2.323   7.445  -1.161 -0.7207  0.1590 -4.0313
   80SOPE   C28 7248   2.276   7.302  -1.319 -0.1466  0.0863 -0.4435
   80SOPE   H8R 7249   2.243   7.196  -1.318  2.0230 -0.6362  0.8663
   80SOPE   H8S 7250   2.200   7.369  -1.365  2.1115  2.0897 -1.4709
   80SOPE   C29 7251   2.415   7.308  -1.369  0.3083  0.3788  0.5580
   80SOPE   H91 7252   2.495   7.270  -1.304 -0.8479 -1.7146  0.8600
   80SOPE  C210 7253   2.442   7.346  -1.495 -0.0516  0.0584  0.4528
   80SOPE  H101 7254   2.545   7.319  -1.521 -0.8053 -3.6868  0.9032
   80SOPE  C211 7255   2.346   7.375  -1.609 -0.3216 -0.1649 -0.2268
   80SOPE  H11R 7256   2.264   7.301  -1.604  1.8515 -2.6603  0.6276
   80SOPE  H11S 7257   2.405   7.361  -1.702  2.1430  2.0733  0.8359
   80SOPE  C212 7258   2.285   7.513  -1.615 -0.2780  1.0018  0.1544
   80SOPE  H12R 7259   2.366   7.589  -1.606  0.7804  0.1235 -1.4599
   80SOPE  H12S 7260   2.208   7.522  -1.536  1.0551  0.2156  1.6133
   80SOPE  C213 7261   2.212   7.539  -1.749 -0.2246 -0.2802  0.0410
   80SOPE  H13R 7262   2.126   7.609  -1.731  0.1084  0.3286 -0.7009
   80SOPE  H13S 7263   2.178   7.449  -1.804 -1.6617  0.3263 -0.1132
   80SOPE  C214 7264   2.298   7.627  -1.843 -0.5762  0.1635  0.0971
   80SOPE  H14R 7265   2.375   7.556  -1.882  0.1494  2.2090 -2.4870
   80SOPE  H14S 7266   2.355   7.704  -1.788  1.6797  0.8152 -2.8839
   80SOPE  C215 7267   2.230   7.697  -1.964  0.3891 -0.8311 -0.4692
   80SOPE  H15R 7268   2.169   7.789  -1.955  1.3251 -0.2976  0.6167
   80SOPE  H15S 7269   2.157   7.623  -2.004 -2.0834  0.3612  1.5539
   80SOPE  C216 7270   2.322   7.706  -2.089  0.0898 -0.2339  0.2590
   80SOPE  H16R 7271   2.341   7.601  -2.120 -6.1369 -2.3877  2.1095
   80SOPE  H16S 7272   2.420   7.751  -2.061  0.8577 -1.8125  0.2183
   80SOPE  C217 7273   2.263   7.784  -2.207 -0.5182  0.5336  0.0546
   80SOPE  H17R 7274   2.262   7.892  -2.182 -1.2459  0.0629  2.2283
   80SOPE  H17S 7275   2.158   7.753  -2.225 -0.6114  1.1833 -0.5862
   80SOPE  C218 7276   2.336   7.756  -2.342  0.0360  0.0830 -0.0787
   80SOPE  H18R 7277   2.336   7.648  -2.368  1.9409  0.2495 -0.9863
   80SOPE  H18S 7278   2.445   7.778  -2.339  0.6139 -2.5139  1.3484
   80SOPE  H18T 7279   2.290   7.812  -2.425  0.5760  0.6942  0.0293
   80SOPE   C33 7280   2.663   7.234  -0.727  0.3274 -0.3219 -0.6248
   80SOPE   H3X 7281   2.613   7.149  -0.777  0.5976 -0.9009  0.0755
   80SOPE   H3Y 7282   2.770   7.219  -0.755 -0.3281 -2.5962 -2.1418
   80SOPE   C34 7283   2.617   7.365  -0.795  0.0296  0.6394  0.2159
   80SOPE   H4X 7284   2.651   7.455  -0.740  1.7547 -0.9179  1.8764
   80SOPE   H4Y 7285   2.506   7.369  -0.792 -0.0994 -1.6719  2.3383
   80SOPE   C35 7286   2.683   7.385  -0.936 -0.3061 -0.5320 -0.8858
   80SOPE   H5X 7287   2.682   7.296  -1.002 -1.2716 -0.9996 -0.2671
   80SOPE   H5Y 7288   2.789   7.392  -0.902 -0.7766  0.2980  0.5200
   80SOPE   C36 7289   2.636   7.501  -1.015 -0.4583  0.4602 -0.4254
   80SOPE   H6X 7290   2.653   7.598  -0.963  0.1133  0.5508 -0.7740
   80SOPE   H6Y 7291   2.525   7.488  -1.022 -0.2965 -1.2333 -0.2355
   80SOPE   C37 7292   2.705   7.487  -1.153  0.8335  0.4452 -0.7118
   80SOPE   H7X 7293   2.677   7.388  -1.194 -1.8976  1.5648 -1.7942
   80SOPE   H7Y 7294   2.815   7.480  -1.142  0.9008 -0.3632 -1.7801
   80SOPE   C38 7295   2.671   7.595  -1.253 -0.5953 -0.1586  0.7192
   80SOPE   H8X 7296   2.687   7.699  -1.220 -0.3100  0.1443 -0.3372
   80SOPE   H8Y 7297   2.562   7.601  -1.278  0.0393  3.6647 -2.0133
   80SOPE   C39 7298   2.744   7.571  -1.387  0.5413  0.1928  0.0212
   80SOPE   H9X 7299   2.738   7.462  -1.408 -3.7783 -0.3941  3.0263
   80SOPE   H9Y 7300   2.852   7.597  -1.386  0.4471  0.7822 -1.4625
   80SOPE  C310 7301   2.678   7.644  -1.506 -0.2236  0.3629  0.5675
   80SOPE  H10X 7302   2.692   7.753  -1.495 -1.8593  0.3713  3.4598
   80SOPE  H10Y 7303   2.571   7.615  -1.515 -0.0672 -0.1800  0.3783
   80SOPE  C311 7304   2.748   7.624  -1.640 -0.2985 -0.3790 -0.9869
   80SOPE  H11X 7305   2.751   7.515  -1.660  3.7622 -0.4301 -0.7648
   80SOPE  H11Y 7306   2.856   7.648  -1.634 -0.7480  1.3724  3.0837
   80SOPE  C312 7307   2.680   7.716  -1.747 -0.4972 -0.9562 -0.3270
   80SOPE  H12X 7308   2.570   7.726  -1.733 -0.0202  2.0249  2.8023
   80SOPE  H12Y 7309   2.693   7.670  -1.847 -1.6179 -0.3089 -0.7925
   80SOPE  C313 7310   2.755   7.850  -1.744  0.1016 -0.0212 -0.5574
   80SOPE  H13X 7311   2.862   7.835  -1.770 -0.0355 -1.0407 -0.5929
   80SOPE  H13Y 7312   2.753   7.883  -1.638  0.3906 -0.4299 -0.4228
   80SOPE  C314 7313   2.687   7.967  -1.825 -0.0073 -0.3103 -0.6992
   80SOPE  H14X 7314   2.733   8.063  -1.792 -1.4539 -0.3319  1.6412
   80SOPE  H14Y 7315   2.577   7.960  -1.811 -0.1154  1.9685  0.1929
   80SOPE  C315 7316   2.717   7.955  -1.977 -0.1500  0.2920 -0.0369
   80SOPE  H15X 7317   2.633   8.002  -2.032  0.6483  1.2393 -0.4783
   80SOPE  H15Y 7318   2.713   7.849  -2.012  2.1866  0.0050  0.4383
   80SOPE  C316 7319   2.856   8.006  -2.023  0.2308  0.1631  0.4828
   80SOPE  H16X 7320   2.931   7.971  -1.949 -1.4037  1.0199  2.6523
   80SOPE  H16Y 7321   2.857   8.117  -2.023  1.8127  0.2214  3.1124
   80SOPE  C317 7322   2.903   7.962  -2.166 -0.4415  0.3442 -0.6442
   80SOPE  H17X 7323   2.820   7.998  -2.230 -0.8005  2.4742  0.9025
   80SOPE  H17Y 7324   2.893   7.852  -2.173  2.7582 -0.1183  0.2366
   80SOPE  C318 7325   3.043   8.002  -2.214 -0.4257  0.1733 -0.1804
   80SOPE  H18X 7326   3.058   7.945  -2.308  2.0151 -1.1662  0.9341
   80SOPE  H18Y 7327   3.129   7.970  -2.152  0.3316 -0.1753 -1.3892
   80SOPE  H18Z 7328   3.044   8.112  -2.231  0.5829  0.2819  0.4852
   81SOPE     N 7329   1.857   2.045   0.257 -1.3413  0.4577  0.4154
   81SOPE   HN1 7330   1.856   1.942   0.270  0.9830  0.2734 -0.4277
   81SOPE   HN2 7331   1.769   2.078   0.303 -2.8272 -0.5670 -1.5310
   81SOPE   HN3 7332   1.839   2.061   0.156  1.3110  0.5853 -0.1015
   81SOPE   C12 7333   1.979   2.108   0.314  0.5094  0.7462 -0.5098
   81SOPE  H12A 7334   1.978   2.090   0.424 -1.1652 -0.1140 -0.6383
   81SOPE  H12B 7335   1.975   2.217   0.296  0.0074  1.0525  1.2232
   81SOPE   C11 7336   2.100   2.033   0.261 -0.2945  0.6107 -0.1951
   81SOPE  H11A 7337   2.184   2.088   0.308  0.0550  0.3226 -0.4850
   81SOPE  H11B 7338   2.101   2.049   0.151 -2.2698  1.2344 -0.1671
   81SOPE     P 7339   2.077   1.779   0.200 -0.5620  0.0047 -0.2793
   81SOPE   O13 7340   1.931   1.767   0.201 -0.6623  0.2703  0.7318
   81SOPE   O14 7341   2.160   1.656   0.238  0.6561  0.0088 -0.3706
   81SOPE   O12 7342   2.118   1.901   0.309 -0.3488  0.7656 -0.2086
   81SOPE   O11 7343   2.117   1.840   0.057  0.0515 -0.0226 -0.2633
   81SOPE    C1 7344   2.243   1.818  -0.011  0.3247  0.2955  0.2439
   81SOPE    HA 7345   2.233   1.741  -0.091 -2.1778 -0.4334  1.1584
   81SOPE    HB 7346   2.323   1.801   0.064 -2.2717 -1.3120  2.8742
   81SOPE    C2 7347   2.274   1.953  -0.080 -0.3681  0.1614  0.6018
   81SOPE    HS 7348   2.280   2.027   0.003  1.3123 -0.1454  0.7842
   81SOPE   O21 7349   2.164   1.980  -0.171  0.9479 -0.2632 -0.1606
   81SOPE   C21 7350   2.182   2.082  -0.254  0.0991 -0.1047 -0.0312
   81SOPE   O22 7351   2.269   2.164  -0.245  0.5662 -0.5820 -0.1448
   81SOPE   C22 7352   2.072   2.078  -0.367  0.1762 -0.4968  0.4845
   81SOPE   H2R 7353   1.981   2.125  -0.323  1.5640  2.1619  0.6428
   81SOPE   H2S 7354   2.048   1.971  -0.386  2.8805 -1.3236  1.2713
   81SOPE    C3 7355   2.420   1.949  -0.144 -0.7278  0.5740  0.3424
   81SOPE    HX 7356   2.499   1.916  -0.073  0.2925  3.1127  0.4858
   81SOPE    HY 7357   2.451   2.053  -0.167 -1.3460  0.6886  0.0129
   81SOPE   O31 7358   2.421   1.872  -0.265  0.7369 -0.2366 -0.4906
   81SOPE   C31 7359   2.545   1.857  -0.319  1.0334  0.4759 -0.1637
   81SOPE   O32 7360   2.649   1.880  -0.260 -0.4669  0.6706 -0.2698
   81SOPE   C32 7361   2.540   1.801  -0.459  0.2991  0.6606  0.8686
   81SOPE   H2X 7362   2.461   1.724  -0.475  1.9784 -0.8161 -0.7747
   81SOPE   H2Y 7363   2.641   1.756  -0.467 -0.2253 -0.4054 -0.0166
   81SOPE   C23 7364   2.118   2.165  -0.492  0.8219  1.0587  0.2126
   81SOPE   H3R 7365   2.225   2.137  -0.502  0.5286 -0.9663  2.0758
   81SOPE   H3S 7366   2.122   2.273  -0.465 -0.5095  1.1146  0.2352
   81SOPE   C24 7367   2.044   2.136  -0.627 -0.1934  0.1371  0.4247
   81SOPE   H4R 7368   2.033   2.026  -0.639  0.8926  0.0386  0.1680
   81SOPE   H4S 7369   1.941   2.175  -0.621 -0.9593 -1.7948  0.5700
   81SOPE   C25 7370   2.116   2.174  -0.764 -0.2163  0.0143 -0.5387
   81SOPE   H5R 7371   2.175   2.267  -0.749  0.0892 -0.0262 -1.4370
   81SOPE   H5S 7372   2.177   2.089  -0.799  1.1959  1.5838 -2.0581
   81SOPE   C26 7373   2.022   2.203  -0.880  0.7234 -0.1105  0.4224
   81SOPE   H6R 7374   1.965   2.113  -0.912 -1.2711  1.8195 -1.7491
   81SOPE   H6S 7375   1.937   2.266  -0.847  0.1040 -0.9743  0.5202
   81SOPE   C27 7376   2.097   2.248  -1.004 -0.0791 -0.7735 -0.3649
   81SOPE   H7R 7377   2.129   2.353  -0.991  0.7465 -0.9128 -1.1778
   81SOPE   H7S 7378   2.183   2.182  -1.028 -0.7732 -0.8315 -2.9962
   81SOPE   C28 7379   1.993   2.239  -1.126 -0.4458 -0.2813 -0.7393
   81SOPE   H8R 7380   1.945   2.140  -1.139 -1.2458 -0.0003  0.0003
   81SOPE   H8S 7381   1.914   2.309  -1.091  1.2720  0.7729  1.3167
   81SOPE   C29 7382   2.065   2.260  -1.255 -0.0201 -0.6862  0.3574
   81SOPE   H91 7383   2.160   2.205  -1.269  0.0868 -1.4768  3.3920
   81SOPE  C210 7384   2.012   2.340  -1.356 -0.1329  0.2023  0.4229
   81SOPE  H101 7385   2.060   2.339  -1.455 -1.9343  0.9471 -0.5112
   81SOPE  C211 7386   1.880   2.421  -1.348  0.0273  0.6637  0.2186
   81SOPE  H11R 7387   1.901   2.530  -1.349  1.1526  0.4627  0.2174
   81SOPE  H11S 7388   1.825   2.407  -1.252  1.2205 -1.8479  0.6270
   81SOPE  C212 7389   1.791   2.379  -1.463  0.3748  0.8965 -0.1193
   81SOPE  H12R 7390   1.687   2.412  -1.444  0.3878  0.4039  0.8500
   81SOPE  H12S 7391   1.792   2.269  -1.454 -0.0187  0.8938 -0.0711
   81SOPE  C213 7392   1.834   2.423  -1.606  0.0040  0.3193  0.0981
   81SOPE  H13R 7393   1.940   2.391  -1.620  1.1257  3.3128  0.9488
   81SOPE  H13S 7394   1.841   2.534  -1.609 -0.3125  0.3238 -0.8458
   81SOPE  C214 7395   1.752   2.368  -1.725 -0.1801 -0.7778 -0.4846
   81SOPE  H14R 7396   1.648   2.405  -1.715  0.1148  0.1703 -0.8175
   81SOPE  H14S 7397   1.747   2.257  -1.730 -0.2449 -0.9328  1.9151
   81SOPE  C215 7398   1.803   2.419  -1.864  1.0956 -0.2503 -0.4459
   81SOPE  H15R 7399   1.899   2.366  -1.874  1.2285  0.2280 -2.0380
   81SOPE  H15S 7400   1.829   2.526  -1.877  0.1838 -0.0553 -0.7466
   81SOPE  C216 7401   1.710   2.384  -1.982  0.1734  1.2182  0.4113
   81SOPE  H16R 7402   1.618   2.445  -1.977 -1.4140 -0.9606 -0.5603
   81SOPE  H16S 7403   1.680   2.277  -1.971  1.0721  1.1038  2.0914
   81SOPE  C217 7404   1.780   2.382  -2.119  0.5721  0.9494  0.5161
   81SOPE  H17R 7405   1.842   2.290  -2.129 -0.3246  0.0821  2.2698
   81SOPE  H17S 7406   1.856   2.462  -2.123  1.5796  0.0502  0.9941
   81SOPE  C218 7407   1.685   2.404  -2.238  0.0964  0.1684  0.2966
   81SOPE  H18R 7408   1.637   2.504  -2.232 -0.6852 -0.2235  0.7188
   81SOPE  H18S 7409   1.608   2.326  -2.255  0.6531 -0.3494  0.1140
   81SOPE  H18T 7410   1.747   2.401  -2.330  2.7650 -2.3866  1.9732
   81SOPE   C33 7411   2.510   1.911  -0.564  0.9889  0.2412  1.0978
   81SOPE   H3X 7412   2.572   2.003  -0.553  0.8946  0.3477  0.7614
   81SOPE   H3Y 7413   2.411   1.960  -0.561  1.3746  1.0762  0.6252
   81SOPE   C34 7414   2.531   1.873  -0.706  0.2439  0.2039 -1.4200
   81SOPE   H4X 7415   2.498   1.767  -0.713  3.6065 -0.8832 -3.1035
   81SOPE   H4Y 7416   2.638   1.877  -0.737  0.9958 -1.9475  0.6470
   81SOPE   C35 7417   2.445   1.949  -0.800 -0.1740  0.2525 -0.2964
   81SOPE   H5X 7418   2.466   2.057  -0.792  0.3745  0.3249 -2.1381
   81SOPE   H5Y 7419   2.337   1.929  -0.780  0.0675 -0.0903  0.6777
   81SOPE   C36 7420   2.472   1.910  -0.948 -0.1192 -0.3335  0.2068
   81SOPE   H6X 7421   2.453   1.802  -0.968 -1.0989 -0.0065 -0.6927
   81SOPE   H6Y 7422   2.578   1.923  -0.978 -0.3153 -1.6488 -1.1996
   81SOPE   C37 7423   2.395   1.987  -1.052  0.3891  0.2137 -0.4252
   81SOPE   H7X 7424   2.400   2.098  -1.046  0.4824  0.3617 -2.3766
   81SOPE   H7Y 7425   2.289   1.957  -1.038  0.9595 -2.0376 -0.5695
   81SOPE   C38 7426   2.436   1.953  -1.195 -0.1336 -0.0186 -0.0222
   81SOPE   H8X 7427   2.433   1.844  -1.215  2.4462 -0.1766  0.0708
   81SOPE   H8Y 7428   2.544   1.978  -1.201 -0.6736  2.8755  0.6608
   81SOPE   C39 7429   2.347   2.021  -1.295 -0.2526  0.2938  0.3301
   81SOPE   H9X 7430   2.381   2.127  -1.298 -0.2999  0.3054 -2.5134
   81SOPE   H9Y 7431   2.238   2.012  -1.276 -0.1694 -0.9153  0.2928
   81SOPE  C310 7432   2.375   1.972  -1.434 -0.1069  0.1102 -0.5015
   81SOPE  H10X 7433   2.325   1.872  -1.439  1.2763 -0.6381  0.1059
   81SOPE  H10Y 7434   2.485   1.966  -1.449  0.4617 -1.7308  3.1986
   81SOPE  C311 7435   2.311   2.064  -1.542  0.3237  0.1845  0.7443
   81SOPE  H11X 7436   2.349   2.168  -1.539 -2.5055  1.5197 -2.6055
   81SOPE  H11Y 7437   2.201   2.079  -1.530  0.3361 -0.5817  2.1443
   81SOPE  C312 7438   2.350   2.005  -1.677  0.1338 -0.1033 -0.3983
   81SOPE  H12X 7439   2.289   1.913  -1.695  2.3141 -1.2337 -2.6865
   81SOPE  H12Y 7440   2.458   1.981  -1.667  0.4033  1.8273  2.0991
   81SOPE  C313 7441   2.349   2.105  -1.797  0.5196 -0.1112 -0.2655
   81SOPE  H13X 7442   2.423   2.185  -1.781  0.8810 -0.3486 -0.7238
   81SOPE  H13Y 7443   2.247   2.149  -1.799  0.8502  0.6607 -1.6705
   81SOPE  C314 7444   2.375   2.027  -1.929 -0.2454  0.1518 -0.4749
   81SOPE  H14X 7445   2.293   1.953  -1.942 -0.7046  0.9651 -2.7357
   81SOPE  H14Y 7446   2.470   1.972  -1.922  0.2305  0.6259 -2.4846
   81SOPE  C315 7447   2.374   2.116  -2.058  0.5315 -0.3442 -0.9260
   81SOPE  H15X 7448   2.387   2.051  -2.148 -1.7354  1.3475 -2.5851
   81SOPE  H15Y 7449   2.443   2.203  -2.051  0.6791 -0.5756  1.0067
   81SOPE  C316 7450   2.234   2.178  -2.080  0.2407  0.4235 -0.2667
   81SOPE  H16X 7451   2.201   2.229  -1.987 -1.4348 -1.4346  0.2429
   81SOPE  H16Y 7452   2.169   2.089  -2.097  2.8412 -1.5087 -0.5776
   81SOPE  C317 7453   2.221   2.269  -2.202  0.6307  0.0892 -0.2273
   81SOPE  H17X 7454   2.113   2.293  -2.209  0.1018 -2.5536 -2.6023
   81SOPE  H17Y 7455   2.250   2.228  -2.301 -1.2627 -0.1742 -0.7030
   81SOPE  C318 7456   2.290   2.410  -2.194  0.6419  1.0132  0.1089
   81SOPE  H18X 7457   2.263   2.444  -2.091 -1.1787 -0.4145  0.1553
   81SOPE  H18Y 7458   2.250   2.479  -2.271  0.7241 -0.8937 -1.7341
   81SOPE  H18Z 7459   2.400   2.399  -2.207  0.5449 -0.0490  0.0647
   82SOPE     N 7460   4.202   2.072   0.119  0.7176  0.4095 -0.1376
   82SOPE   HN1 7461   4.279   2.109   0.178  1.0803 -0.5819  0.0351
   82SOPE   HN2 7462   4.181   2.152   0.056 -0.9559  0.0190 -0.1218
   82SOPE   HN3 7463   4.118   2.052   0.178  0.3262  0.2637 -0.7330
   82SOPE   C12 7464   4.232   1.959   0.025 -0.5307 -0.1549 -0.5994
   82SOPE  H12A 7465   4.308   1.993  -0.049 -1.3780  1.0272 -0.9566
   82SOPE  H12B 7466   4.140   1.931  -0.032  0.8998 -0.9407 -2.6491
   82SOPE   C11 7467   4.282   1.820   0.091 -0.3144  0.0154 -0.3345
   82SOPE  H11A 7468   4.328   1.754   0.014  0.2555 -1.7830  1.4404
   82SOPE  H11B 7469   4.184   1.774   0.114 -0.9194  1.3165 -0.2592
   82SOPE     P 7470   4.519   1.878   0.173  0.1593  0.1080  0.1829
   82SOPE   O13 7471   4.600   1.831   0.287  0.2000  0.2107  0.1381
   82SOPE   O14 7472   4.528   2.021   0.152  0.0602 -0.1056 -0.0182
   82SOPE   O12 7473   4.374   1.835   0.202  0.5600  0.6364 -0.4329
   82SOPE   O11 7474   4.553   1.791   0.044  0.6292  0.8951 -0.2043
   82SOPE    C1 7475   4.669   1.810  -0.033  0.3561  0.4969 -0.1286
   82SOPE    HA 7476   4.751   1.755   0.017  0.6003  1.1242  0.1706
   82SOPE    HB 7477   4.695   1.918  -0.030 -2.2184  1.2992 -2.2923
   82SOPE    C2 7478   4.667   1.759  -0.186  0.3193  0.2759  0.4117
   82SOPE    HS 7479   4.769   1.734  -0.222 -0.4374  0.1767 -1.8027
   82SOPE   O21 7480   4.619   1.861  -0.266 -0.4762  0.0204  0.2621
   82SOPE   C21 7481   4.700   1.963  -0.283 -1.0451  0.4715 -0.0790
   82SOPE   O22 7482   4.811   1.980  -0.238  0.1719  0.1877  0.0316
   82SOPE   C22 7483   4.637   2.061  -0.377 -0.2179 -0.5293 -0.0599
   82SOPE   H2R 7484   4.706   2.146  -0.397 -1.3694  0.2695 -0.7301
   82SOPE   H2S 7485   4.547   2.096  -0.322 -0.2529  1.8816 -1.5052
   82SOPE    C3 7486   4.575   1.633  -0.216 -0.4817  0.2492 -0.2953
   82SOPE    HX 7487   4.469   1.666  -0.201 -0.6967  0.6789 -2.3783
   82SOPE    HY 7488   4.614   1.570  -0.133 -0.9947 -1.0339 -1.0020
   82SOPE   O31 7489   4.612   1.578  -0.347  0.3071 -0.2091  0.2118
   82SOPE   C31 7490   4.518   1.618  -0.438  0.0162 -0.1224  0.5979
   82SOPE   O32 7491   4.423   1.688  -0.413 -0.5404 -0.2758 -0.2073
   82SOPE   C32 7492   4.539   1.541  -0.572 -0.0808  0.0897 -0.1930
   82SOPE   H2X 7493   4.473   1.452  -0.565  0.1676 -0.0229  0.8299
   82SOPE   H2Y 7494   4.648   1.529  -0.584  0.4728  3.8747 -0.3334
   82SOPE   C23 7495   4.606   1.996  -0.515 -0.7780  0.4363 -0.5645
   82SOPE   H3R 7496   4.551   1.900  -0.503 -0.8621  0.6399  0.8172
   82SOPE   H3S 7497   4.702   1.971  -0.567 -0.8939  0.0379 -0.5940
   82SOPE   C24 7498   4.534   2.098  -0.600  0.4730  0.2577  0.8384
   82SOPE   H4R 7499   4.429   2.102  -0.564 -0.7057 -2.3953 -1.8910
   82SOPE   H4S 7500   4.582   2.198  -0.587 -0.3093  0.4011  3.2187
   82SOPE   C25 7501   4.515   2.069  -0.758 -0.0229 -0.8138  0.0334
   82SOPE   H5R 7502   4.614   2.071  -0.808  0.6953  2.0567  1.3502
   82SOPE   H5S 7503   4.462   1.976  -0.788 -1.8030  0.2066 -0.1850
   82SOPE   C26 7504   4.432   2.186  -0.823 -0.1323 -0.2838 -0.4077
   82SOPE   H6R 7505   4.325   2.194  -0.795  0.5394  3.1938  1.8310
   82SOPE   H6S 7506   4.477   2.270  -0.765  1.5953 -1.4252  0.0065
   82SOPE   C27 7507   4.451   2.201  -0.973  0.3679 -0.1912 -0.1725
   82SOPE   H7R 7508   4.539   2.140  -1.001 -0.4730 -1.7822  0.5381
   82SOPE   H7S 7509   4.361   2.161  -1.025 -0.5319  2.3197 -0.7250
   82SOPE   C28 7510   4.477   2.343  -1.024  0.0382  0.4664  0.1371
   82SOPE   H8R 7511   4.566   2.389  -0.975  0.8380  0.2326 -1.0256
   82SOPE   H8S 7512   4.518   2.329  -1.127  1.2475 -1.6624  0.8432
   82SOPE   C29 7513   4.362   2.439  -1.023 -0.1065  0.0083 -0.0856
   82SOPE   H91 7514   4.301   2.437  -0.931  1.0860  0.4608  0.7470
   82SOPE  C210 7515   4.322   2.521  -1.132  0.2520  0.5791 -0.5889
   82SOPE  H101 7516   4.235   2.587  -1.122 -0.3363  0.2960 -3.1618
   82SOPE  C211 7517   4.383   2.528  -1.269  0.2794  0.4270 -0.5173
   82SOPE  H11R 7518   4.297   2.526  -1.340 -0.1726 -0.2767  0.0338
   82SOPE  H11S 7519   4.448   2.440  -1.284  0.7196  0.2149  2.2098
   82SOPE  C212 7520   4.450   2.665  -1.288  0.4128  0.1831  0.2245
   82SOPE  H12R 7521   4.529   2.666  -1.210  0.2403  0.5621  0.3990
   82SOPE  H12S 7522   4.380   2.749  -1.266  2.0645  2.5492 -2.8330
   82SOPE  C213 7523   4.492   2.692  -1.437 -0.2602  0.7798 -0.4041
   82SOPE  H13R 7524   4.541   2.792  -1.441  0.0727  0.6231 -0.2938
   82SOPE  H13S 7525   4.399   2.699  -1.497 -0.7680  0.2444  0.3045
   82SOPE  C214 7526   4.592   2.595  -1.494 -0.4230  0.0546 -0.8867
   82SOPE  H14R 7527   4.552   2.491  -1.491 -1.2666  0.3917 -0.1389
   82SOPE  H14S 7528   4.677   2.602  -1.423  0.7710  3.5859 -2.4384
   82SOPE  C215 7529   4.649   2.646  -1.626 -0.3877 -0.1199  0.1092
   82SOPE  H15R 7530   4.690   2.749  -1.621  0.9351 -0.2416 -4.2609
   82SOPE  H15S 7531   4.564   2.658  -1.696  1.1711 -2.3370 -2.3409
   82SOPE  C216 7532   4.758   2.562  -1.698 -0.0503 -0.1617 -0.3623
   82SOPE  H16R 7533   4.713   2.462  -1.718  0.8690 -0.8589  0.9210
   82SOPE  H16S 7534   4.843   2.533  -1.633 -2.3129 -3.3724  1.4074
   82SOPE  C217 7535   4.801   2.615  -1.837 -0.2875  0.1507  0.4350
   82SOPE  H17R 7536   4.703   2.627  -1.888 -0.4496 -2.0659  0.1218
   82SOPE  H17S 7537   4.855   2.527  -1.877 -1.7529 -1.5352  2.0007
   82SOPE  C218 7538   4.897   2.734  -1.824 -0.2991 -0.0024  0.1595
   82SOPE  H18R 7539   4.853   2.807  -1.753 -1.0720  0.6068 -0.9172
   82SOPE  H18S 7540   4.917   2.787  -1.919 -0.6405  0.5730  0.4056
   82SOPE  H18T 7541   4.996   2.707  -1.781  0.8483  3.6921  0.2020
   82SOPE   C33 7542   4.492   1.622  -0.706 -0.0344  0.3849 -0.0819
   82SOPE   H3X 7543   4.540   1.722  -0.697  0.7870  0.0325 -0.4419
   82SOPE   H3Y 7544   4.383   1.625  -0.687  0.2870  1.6241  1.8604
   82SOPE   C34 7545   4.544   1.525  -0.824  0.0439  0.2614 -0.2783
   82SOPE   H4X 7546   4.533   1.419  -0.792  3.3523 -0.8327 -2.2621
   82SOPE   H4Y 7547   4.654   1.538  -0.829  0.7329 -3.2540  2.0540
   82SOPE   C35 7548   4.476   1.542  -0.960 -0.1836 -0.4034 -0.1090
   82SOPE   H5X 7549   4.366   1.535  -0.952 -0.3249 -0.2613 -1.6213
   82SOPE   H5Y 7550   4.501   1.453  -1.022 -0.2710  0.7003 -1.7692
   82SOPE   C36 7551   4.520   1.685  -1.017  0.5534 -0.2996 -0.2640
   82SOPE   H6X 7552   4.629   1.678  -1.037  0.5430  1.1336 -0.8964
   82SOPE   H6Y 7553   4.487   1.763  -0.946 -0.1332  0.0836 -0.9887
   82SOPE   C37 7554   4.461   1.720  -1.158  0.0242 -0.6313 -0.3510
   82SOPE   H7X 7555   4.350   1.730  -1.162 -0.0719 -1.8994 -1.6602
   82SOPE   H7Y 7556   4.478   1.648  -1.241  1.4060  1.3567 -1.9041
   82SOPE   C38 7557   4.506   1.859  -1.207 -0.4964  0.5850 -0.4770
   82SOPE   H8X 7558   4.614   1.864  -1.232  0.0246 -0.4848  1.3967
   82SOPE   H8Y 7559   4.496   1.932  -1.123  3.6778  0.4621  0.3147
   82SOPE   C39 7560   4.422   1.909  -1.325  0.2257  0.2862  0.0666
   82SOPE   H9X 7561   4.312   1.891  -1.323 -0.4628  3.7650 -0.7127
   82SOPE   H9Y 7562   4.465   1.862  -1.416 -0.6247 -0.6984  0.1565
   82SOPE  C310 7563   4.426   2.066  -1.339 -0.0675  0.7429 -0.3297
   82SOPE  H10X 7564   4.421   2.102  -1.234 -1.2835 -1.9231  0.6105
   82SOPE  H10Y 7565   4.331   2.096  -1.389 -2.4973 -2.6650  1.7939
   82SOPE  C311 7566   4.541   2.125  -1.418 -0.3943 -0.1065 -0.4634
   82SOPE  H11X 7567   4.642   2.095  -1.382 -0.2538 -0.5342 -1.1950
   82SOPE  H11Y 7568   4.536   2.235  -1.405  3.3494  0.2764 -1.2268
   82SOPE  C312 7569   4.530   2.099  -1.573 -0.2191  0.5279  0.7789
   82SOPE  H12X 7570   4.437   2.154  -1.601  0.9327  1.4226 -1.5005
   82SOPE  H12Y 7571   4.517   1.991  -1.591 -0.2966  0.5384  0.7703
   82SOPE  C313 7572   4.644   2.156  -1.653 -0.2088 -0.4238 -0.4767
   82SOPE  H13X 7573   4.733   2.119  -1.597 -0.7808  0.2286  0.8931
   82SOPE  H13Y 7574   4.643   2.267  -1.647 -1.6335 -0.4725  0.6979
   82SOPE  C314 7575   4.643   2.110  -1.797  0.3396 -0.4236 -0.3352
   82SOPE  H14X 7576   4.555   2.160  -1.843 -0.1864 -1.2196 -0.2179
   82SOPE  H14Y 7577   4.613   2.003  -1.806  0.4193 -0.4184 -0.7024
   82SOPE  C315 7578   4.771   2.140  -1.879 -0.4510 -0.2532  0.1448
   82SOPE  H15X 7579   4.847   2.063  -1.851  0.8169  0.6343 -0.7363
   82SOPE  H15Y 7580   4.806   2.241  -1.850 -4.1682  1.2231 -0.0394
   82SOPE  C316 7581   4.757   2.140  -2.036  0.1873 -0.6069 -0.7283
   82SOPE  H16X 7582   4.665   2.196  -2.061  1.2556  1.9199  0.6173
   82SOPE  H16Y 7583   4.754   2.035  -2.072 -1.5344 -1.2174  1.0696
   82SOPE  C317 7584   4.868   2.203  -2.117  0.2380 -0.3208  0.0693
   82SOPE  H17X 7585   4.954   2.133  -2.113  1.2314  0.6945 -1.7742
   82SOPE  H17Y 7586   4.893   2.306  -2.082  0.1993  0.1356 -1.1900
   82SOPE  C318 7587   4.834   2.215  -2.269 -0.5229  1.1613  0.2100
   82SOPE  H18X 7588   4.751   2.287  -2.287 -1.2353 -0.4399 -4.1824
   82SOPE  H18Y 7589   4.786   2.121  -2.303  0.4325  0.0374  1.8481
   82SOPE  H18Z 7590   4.915   2.246  -2.338 -2.8482 -0.7196 -3.7288
   83SOPE     N 7591   1.652   4.618   3.886 -0.3721 -0.4648  0.5986
   83SOPE   HN1 7592   1.728   4.673   3.842 -1.1318  0.3400  0.2523
   83SOPE   HN2 7593   1.572   4.642   3.824  0.6675 -0.2683 -0.7049
   83SOPE   HN3 7594   1.642   4.658   3.982  0.7269 -0.1692  0.6052
   83SOPE   C12 7595   1.676   4.471   3.883 -0.0837  0.3808  0.3516
   83SOPE  H12A 7596   1.772   4.459   3.939 -0.3790 -0.0345  0.7757
   83SOPE  H12B 7597   1.684   4.429   3.781  0.4478 -1.5944  1.1656
   83SOPE   C11 7598   1.569   4.399   3.961  0.3985  0.0917  1.0164
   83SOPE  H11A 7599   1.569   4.436   4.066 -0.3355 -0.6013  1.2634
   83SOPE  H11B 7600   1.617   4.299   3.963 -1.1015 -0.6585  2.3870
   83SOPE     P 7601   1.385   4.303   3.802 -0.3663  0.3437  0.0592
   83SOPE   O13 7602   1.492   4.239   3.726  0.4026  0.0165  0.0217
   83SOPE   O14 7603   1.276   4.365   3.720  0.0287  0.4136 -0.2206
   83SOPE   O12 7604   1.444   4.411   3.891 -0.0696  0.0700 -0.7475
   83SOPE   O11 7605   1.321   4.198   3.902  0.1579 -0.1858 -0.2472
   83SOPE    C1 7606   1.260   4.225   4.019  0.6130 -0.2320 -0.1525
   83SOPE    HA 7607   1.316   4.295   4.085 -0.5150  0.8236 -0.2708
   83SOPE    HB 7608   1.239   4.130   4.072 -2.2103  1.0706  1.2766
   83SOPE    C2 7609   1.126   4.298   4.001 -0.0199 -0.1202 -0.5598
   83SOPE    HS 7610   1.145   4.396   3.953 -3.2245  2.1662  2.3864
   83SOPE   O21 7611   1.086   4.338   4.138  0.3736 -0.4624  0.3345
   83SOPE   C21 7612   1.000   4.431   4.126 -0.0313  0.4247  0.4728
   83SOPE   O22 7613   0.968   4.501   4.032 -0.9829  0.0105 -0.4004
   83SOPE   C22 7614   0.935   4.446   4.267  0.7097 -0.4420  0.8091
   83SOPE   H2R 7615   0.958   4.352   4.321  1.5241 -0.5655  0.2699
   83SOPE   H2S 7616   0.824   4.454   4.260  0.7276  1.0672  1.7324
   83SOPE    C3 7617   1.013   4.221   3.923  0.2685  1.1721  0.1104
   83SOPE    HX 7618   1.046   4.200   3.819 -1.1323 -0.0112 -0.1336
   83SOPE    HY 7619   0.931   4.296   3.916  0.1103  0.8640 -1.7350
   83SOPE   O31 7620   0.990   4.089   3.991  0.3725 -0.1701  0.0928
   83SOPE   C31 7621   0.891   4.088   4.076 -0.2718 -0.3561 -0.1037
   83SOPE   O32 7622   0.812   4.177   4.094 -0.5359  0.0388 -0.0041
   83SOPE   C32 7623   0.886   3.954   4.145 -0.7352  0.1810 -0.3531
   83SOPE   H2X 7624   0.871   3.866   4.078  1.2530 -0.5150  0.0386
   83SOPE   H2Y 7625   0.806   3.962   4.222  0.3561  1.7135  0.6827
   83SOPE   C23 7626   0.977   4.573   4.334  0.6038  0.1812 -0.4742
   83SOPE   H3R 7627   0.904   4.649   4.300  1.3295  0.9350 -0.3935
   83SOPE   H3S 7628   1.078   4.614   4.312  0.2392  2.1358  1.1270
   83SOPE   C24 7629   0.967   4.570   4.493 -0.3949  0.3546 -0.1584
   83SOPE   H4R 7630   0.974   4.669   4.543  2.7685  0.3903 -0.4296
   83SOPE   H4S 7631   0.868   4.526   4.515 -1.8372  3.9332  1.1888
   83SOPE   C25 7632   1.075   4.474   4.555  0.4787 -0.0299 -0.0135
   83SOPE   H5R 7633   1.077   4.375   4.505  0.4748 -0.4149  0.7352
   83SOPE   H5S 7634   1.177   4.516   4.542 -0.4727  2.4114 -0.0429
   83SOPE   C26 7635   1.048   4.442   4.708 -0.5107  0.0854  0.1884
   83SOPE   H6R 7636   0.972   4.366   4.734  1.1439 -1.2794  1.1920
   83SOPE   H6S 7637   1.150   4.405   4.727 -0.1107  1.4112  0.7831
   83SOPE   C27 7638   1.030   4.569   4.789  0.1271 -0.0224 -0.1916
   83SOPE   H7R 7639   1.108   4.642   4.758  1.0725 -2.1909 -3.4405
   83SOPE   H7S 7640   0.926   4.608   4.778  0.1562  0.4567  1.0346
   83SOPE   C28 7641   1.044   4.555   4.942 -0.2427 -0.1284 -0.4058
   83SOPE   H8R 7642   0.968   4.483   4.979  0.1388 -0.0446  0.5589
   83SOPE   H8S 7643   1.135   4.497   4.968 -0.3921 -0.1410  0.0974
   83SOPE   C29 7644   1.041   4.689   5.010 -0.2778  0.2173  0.3365
   83SOPE   H91 7645   0.978   4.763   4.958 -2.7930 -1.7380  0.4076
   83SOPE  C210 7646   1.113   4.734   5.108 -0.1248  0.1428 -0.0608
   83SOPE  H101 7647   1.123   4.841   5.129  0.9010  0.2363 -0.9634
   83SOPE  C211 7648   1.208   4.650   5.184  0.0696  0.4587  0.2660
   83SOPE  H11R 7649   1.290   4.703   5.237  0.8237 -0.5185  0.1015
   83SOPE  H11S 7650   1.253   4.575   5.115  1.4952  1.8660 -0.3898
   83SOPE  C212 7651   1.141   4.576   5.299  0.3209 -0.6448 -0.0824
   83SOPE  H12R 7652   1.216   4.503   5.336  0.9468  0.3066  0.5396
   83SOPE  H12S 7653   1.054   4.521   5.256  1.4418 -2.6742  0.1423
   83SOPE  C213 7654   1.092   4.660   5.411  0.0579 -0.2458  0.4410
   83SOPE  H13R 7655   1.018   4.739   5.383  0.2487 -0.1044  0.3318
   83SOPE  H13S 7656   1.179   4.704   5.464 -0.2844 -0.4969  1.2289
   83SOPE  C214 7657   1.027   4.583   5.518  0.0212  0.5417 -0.4416
   83SOPE  H14R 7658   1.092   4.503   5.558  1.2827  0.7278 -2.0392
   83SOPE  H14S 7659   0.929   4.541   5.485 -0.6433  0.9965  0.9021
   83SOPE  C215 7660   0.994   4.676   5.643 -0.4640  0.3599 -0.9936
   83SOPE  H15R 7661   0.895   4.661   5.691  0.7560  2.6246  2.5554
   83SOPE  H15S 7662   0.987   4.783   5.614 -2.7369  0.7798  0.7850
   83SOPE  C216 7663   1.101   4.668   5.753  0.0338  0.3565 -0.4589
   83SOPE  H16R 7664   1.202   4.685   5.710  1.2645 -1.2352  1.6004
   83SOPE  H16S 7665   1.106   4.562   5.789 -0.3908 -0.8650 -3.6858
   83SOPE  C217 7666   1.063   4.764   5.865  0.3012 -0.0599  0.0784
   83SOPE  H17R 7667   0.960   4.728   5.887 -0.4250  0.6174 -2.0159
   83SOPE  H17S 7668   1.062   4.863   5.816 -0.0605  0.0842  0.3651
   83SOPE  C218 7669   1.153   4.757   5.984  0.0080 -0.1644 -0.3485
   83SOPE  H18R 7670   1.136   4.652   6.017 -0.9425  0.5627  1.5968
   83SOPE  H18S 7671   1.109   4.817   6.066  0.8110 -0.1773  0.1083
   83SOPE  H18T 7672   1.258   4.785   5.959 -0.4130  0.1569 -1.8240
   83SOPE   C33 7673   1.019   3.925   4.233  0.3932 -0.0645  0.2747
   83SOPE   H3X 7674   1.107   3.935   4.165  1.4215  0.4710  1.6359
   83SOPE   H3Y 7675   1.019   3.819   4.266  2.8763 -0.2497 -0.1031
   83SOPE   C34 7676   1.032   4.027   4.349  0.6651 -0.7787  0.1038
   83SOPE   H4X 7677   0.996   4.128   4.320 -0.9391 -1.4163 -0.1960
   83SOPE   H4Y 7678   1.139   4.047   4.370  0.0001  1.2746  1.9867
   83SOPE   C35 7679   0.967   3.970   4.478 -0.0800  0.2693 -0.3635
   83SOPE   H5X 7680   1.022   3.875   4.495  0.3093  0.7289  1.1122
   83SOPE   H5Y 7681   0.867   3.932   4.451  1.1806 -2.7423 -1.1844
   83SOPE   C36 7682   0.971   4.073   4.587 -0.3085 -0.3337 -0.4992
   83SOPE   H6X 7683   0.933   4.172   4.557  0.5215 -0.8480 -3.5467
   83SOPE   H6Y 7684   1.073   4.101   4.621 -0.2507  0.8414 -1.5850
   83SOPE   C37 7685   0.885   4.036   4.709 -0.5343  0.0830 -0.5839
   83SOPE   H7X 7686   0.917   3.934   4.739 -0.3013  0.1289 -0.6755
   83SOPE   H7Y 7687   0.778   4.022   4.682 -0.6194 -1.5451  0.4095
   83SOPE   C38 7688   0.904   4.136   4.826  0.4096  0.4185  0.0820
   83SOPE   H8X 7689   0.848   4.226   4.792 -1.2092  0.2400  2.0828
   83SOPE   H8Y 7690   1.011   4.156   4.850  0.3994 -1.2855  1.8205
   83SOPE   C39 7691   0.837   4.081   4.953 -0.3103 -0.1661  0.1552
   83SOPE   H9X 7692   0.907   4.003   4.989 -0.2523 -0.0855  0.2165
   83SOPE   H9Y 7693   0.734   4.048   4.928 -1.2931  2.1468  0.8537
   83SOPE  C310 7694   0.816   4.191   5.056  0.1565  0.0638 -0.3310
   83SOPE  H10X 7695   0.734   4.259   5.026 -0.8906  0.2677  2.6160
   83SOPE  H10Y 7696   0.914   4.238   5.076  0.0165 -0.6764  2.5610
   83SOPE  C311 7697   0.783   4.142   5.196  0.4483 -0.3614 -0.0961
   83SOPE  H11X 7698   0.859   4.065   5.223 -0.5162 -1.0978  0.6133
   83SOPE  H11Y 7699   0.686   4.089   5.193  0.1612  0.0351  1.3751
   83SOPE  C312 7700   0.766   4.251   5.300 -0.1134  1.1216  0.3136
   83SOPE  H12X 7701   0.669   4.304   5.289  0.1170  1.4996  0.1113
   83SOPE  H12Y 7702   0.848   4.322   5.278  0.2644  0.3245 -0.9904
   83SOPE  C313 7703   0.785   4.184   5.434  0.5328  0.2694 -0.3627
   83SOPE  H13X 7704   0.878   4.123   5.431  0.5711  0.2953  0.1532
   83SOPE  H13Y 7705   0.699   4.118   5.455  0.1976  0.0550 -2.2662
   83SOPE  C314 7706   0.800   4.288   5.545  0.1583  1.0344  0.1736
   83SOPE  H14X 7707   0.725   4.367   5.521  0.1804  1.1484  0.4737
   83SOPE  H14Y 7708   0.899   4.338   5.539  0.2966  0.8682  0.9046
   83SOPE  C315 7709   0.789   4.221   5.681  0.5085  0.3469 -0.1824
   83SOPE  H15X 7710   0.867   4.142   5.688 -0.3313 -0.6784 -1.7668
   83SOPE  H15Y 7711   0.692   4.168   5.681  1.0521 -0.7202 -1.8906
   83SOPE  C316 7712   0.771   4.315   5.802 -0.3472 -0.4778 -0.4069
   83SOPE  H16X 7713   0.697   4.398   5.793  0.7925  0.6883  0.6403
   83SOPE  H16Y 7714   0.871   4.361   5.817  0.2053 -2.0730  1.1415
   83SOPE  C317 7715   0.746   4.241   5.939  0.2463 -0.3410  0.6723
   83SOPE  H17X 7716   0.830   4.169   5.941  2.7778  2.3695  0.1898
   83SOPE  H17Y 7717   0.649   4.188   5.934  0.5606 -1.0486  1.7080
   83SOPE  C318 7718   0.749   4.329   6.065 -0.6246 -0.1503  0.9682
   83SOPE  H18X 7719   0.842   4.389   6.072 -0.4933 -0.1746 -0.2448
   83SOPE  H18Y 7720   0.740   4.264   6.155 -0.7671 -0.0306  1.0409
   83SOPE  H18Z 7721   0.664   4.399   6.081  0.8777  1.5238  1.9703
   84SOPE     N 7722   1.774   0.878   4.170  0.1067 -0.2502  0.1419
   84SOPE   HN1 7723   1.828   0.890   4.082  0.2156 -3.0625 -0.2752
   84SOPE   HN2 7724   1.792   0.957   4.235  2.3069  0.3401 -1.0818
   84SOPE   HN3 7725   1.787   0.782   4.208  2.1261  0.2045  0.7051
   84SOPE   C12 7726   1.632   0.878   4.139 -0.5859  0.2419  0.4515
   84SOPE  H12A 7727   1.603   0.785   4.084 -0.7854 -0.4524  1.7082
   84SOPE  H12B 7728   1.608   0.971   4.083  0.7856 -0.3252 -1.1836
   84SOPE   C11 7729   1.573   0.864   4.280 -0.1997  0.0909  0.0955
   84SOPE  H11A 7730   1.603   0.765   4.321 -1.0841 -0.7355 -1.1914
   84SOPE  H11B 7731   1.464   0.856   4.261 -0.0056 -0.2661 -0.9165
   84SOPE     P 7732   1.509   1.024   4.477 -0.1635 -0.4389  0.1009
   84SOPE   O13 7733   1.393   1.089   4.415  0.0560  0.3946  0.1143
   84SOPE   O14 7734   1.589   1.107   4.576  0.3933  0.3343 -0.0928
   84SOPE   O12 7735   1.606   0.979   4.360 -0.7160 -0.0369  0.9145
   84SOPE   O11 7736   1.464   0.897   4.554 -0.0189  0.7374  0.0411
   84SOPE    C1 7737   1.322   0.868   4.572 -0.1657 -0.0263 -0.2434
   84SOPE    HA 7738   1.309   0.774   4.629  0.4761  1.6185  2.8400
   84SOPE    HB 7739   1.273   0.833   4.479 -1.8596 -0.6368  0.8132
   84SOPE    C2 7740   1.229   0.963   4.645 -0.1092  0.4866 -0.4038
   84SOPE    HS 7741   1.250   1.063   4.603 -1.5684  0.4907 -1.1842
   84SOPE   O21 7742   1.268   0.965   4.785 -0.1325  0.0007  0.0415
   84SOPE   C21 7743   1.241   1.074   4.853 -0.4938  0.2124 -0.8591
   84SOPE   O22 7744   1.195   1.175   4.814  0.1657  0.2145  0.6074
   84SOPE   C22 7745   1.271   1.040   5.002 -0.3422 -0.4863  0.9688
   84SOPE   H2R 7746   1.373   0.996   5.008 -0.2420 -0.3244  0.5358
   84SOPE   H2S 7747   1.202   0.958   5.031  0.8647 -1.2693  1.7326
   84SOPE    C3 7748   1.083   0.935   4.622  0.9273  0.2257 -0.3690
   84SOPE    HX 7749   1.068   0.937   4.512 -0.2419  2.6879 -0.2291
   84SOPE    HY 7750   1.037   1.031   4.653  2.7142  1.8980 -2.6079
   84SOPE   O31 7751   1.037   0.819   4.690  0.3802  0.0498 -0.1446
   84SOPE   C31 7752   0.928   0.755   4.631  0.2213  0.3481 -0.2167
   84SOPE   O32 7753   0.866   0.797   4.531 -0.5360 -0.7595 -0.2769
   84SOPE   C32 7754   0.885   0.644   4.722  0.3270 -0.6248 -0.4746
   84SOPE   H2X 7755   0.962   0.564   4.720 -0.4639 -1.4108 -0.5623
   84SOPE   H2Y 7756   0.788   0.606   4.681 -0.2863 -0.8434  1.1160
   84SOPE   C23 7757   1.282   1.168   5.083  0.7840 -0.5817 -0.2477
   84SOPE   H3R 7758   1.342   1.241   5.026  1.6060 -0.5561  0.6337
   84SOPE   H3S 7759   1.344   1.145   5.172 -0.2589 -1.5448  0.2592
   84SOPE   C24 7760   1.145   1.203   5.130  0.6710  0.2905 -0.4125
   84SOPE   H4R 7761   1.087   1.237   5.041  0.9623  2.0386  0.0221
   84SOPE   H4S 7762   1.108   1.104   5.164 -0.0706 -0.2741 -2.6794
   84SOPE   C25 7763   1.142   1.306   5.242 -0.4463  0.2479 -0.2542
   84SOPE   H5R 7764   1.038   1.336   5.267 -0.5026 -0.3759  0.2747
   84SOPE   H5S 7765   1.192   1.248   5.322  0.3859 -0.3898 -1.2174
   84SOPE   C26 7766   1.217   1.436   5.221  0.5215  0.7949  0.1891
   84SOPE   H6R 7767   1.310   1.411   5.165 -0.3500 -0.2715 -0.8258
   84SOPE   H6S 7768   1.152   1.502   5.160 -3.3281 -0.6667  2.3486
   84SOPE   C27 7769   1.265   1.498   5.355 -0.9969 -0.6942  0.5334
   84SOPE   H7R 7770   1.338   1.431   5.405  0.0685 -1.4837 -1.9410
   84SOPE   H7S 7771   1.320   1.590   5.327 -1.9156  0.1207  1.3222
   84SOPE   C28 7772   1.148   1.533   5.451 -0.3528 -0.5424  0.6301
   84SOPE   H8R 7773   1.171   1.637   5.482 -0.3953 -0.0797 -0.8410
   84SOPE   H8S 7774   1.060   1.545   5.383  0.5055  0.4574 -0.3388
   84SOPE   C29 7775   1.119   1.439   5.563 -0.3541  0.5276 -1.1217
   84SOPE   H91 7776   1.051   1.358   5.532 -0.8505  0.1926  0.7475
   84SOPE  C210 7777   1.178   1.433   5.692 -0.1980 -0.4522  0.3299
   84SOPE  H101 7778   1.158   1.351   5.762  1.2923 -0.9370  0.2179
   84SOPE  C211 7779   1.274   1.539   5.743  0.3959  0.8370 -0.2770
   84SOPE  H11R 7780   1.278   1.622   5.670  1.7637  0.3785 -0.7487
   84SOPE  H11S 7781   1.378   1.505   5.763 -0.0161 -0.0495  0.4484
   84SOPE  C212 7782   1.220   1.604   5.872 -0.3411  0.0973 -0.1951
   84SOPE  H12R 7783   1.205   1.520   5.942  2.3787 -1.1557 -0.9577
   84SOPE  H12S 7784   1.116   1.642   5.862  0.1423  1.5936  0.2328
   84SOPE  C213 7785   1.318   1.698   5.926  0.3168 -1.1131 -0.0646
   84SOPE  H13R 7786   1.339   1.780   5.854  1.9525 -0.3261  1.2422
   84SOPE  H13S 7787   1.414   1.649   5.951  1.4882  1.0215 -0.2151
   84SOPE  C214 7788   1.260   1.757   6.052  0.0282 -0.7859  0.2359
   84SOPE  H14R 7789   1.186   1.686   6.095 -4.1207  1.9126 -1.7468
   84SOPE  H14S 7790   1.196   1.846   6.032  1.7957  0.3847 -0.4315
   84SOPE  C215 7791   1.361   1.776   6.162 -0.0351 -0.8805 -0.1481
   84SOPE  H15R 7792   1.449   1.816   6.107  0.6987  0.5388  1.9565
   84SOPE  H15S 7793   1.389   1.678   6.205 -1.7268 -0.3121  2.4800
   84SOPE  C216 7794   1.316   1.856   6.289  0.7549  0.0517 -0.1699
   84SOPE  H16R 7795   1.402   1.866   6.358 -1.1681 -0.5710  2.4557
   84SOPE  H16S 7796   1.236   1.798   6.340 -1.3303  1.3604 -1.7625
   84SOPE  C217 7797   1.255   1.988   6.258 -0.3539 -0.0025 -0.2551
   84SOPE  H17R 7798   1.215   2.042   6.347  0.4239  2.5415 -1.3592
   84SOPE  H17S 7799   1.173   1.984   6.184 -1.5033 -2.0917  1.0226
   84SOPE  C218 7800   1.366   2.079   6.199  0.8148  0.0999 -0.1514
   84SOPE  H18R 7801   1.309   2.174   6.198 -1.8067 -1.4050 -0.7916
   84SOPE  H18S 7802   1.405   2.039   6.103 -0.4771 -0.0161 -0.6363
   84SOPE  H18T 7803   1.456   2.093   6.263 -0.2982 -0.2159  1.5630
   84SOPE   C33 7804   0.875   0.676   4.877 -0.0451 -0.2352 -0.6296
   84SOPE   H3X 7805   0.793   0.750   4.891 -0.0489 -0.5336  1.1312
   84SOPE   H3Y 7806   0.979   0.697   4.908 -0.1265  0.3546 -0.7345
   84SOPE   C34 7807   0.814   0.560   4.957 -0.0573  0.1820 -0.4488
   84SOPE   H4X 7808   0.716   0.523   4.920 -0.1881 -0.6042  0.6628
   84SOPE   H4Y 7809   0.799   0.588   5.063 -2.4968 -0.1338 -0.6561
   84SOPE   C35 7810   0.908   0.428   4.973 -0.1287 -0.2501  0.4092
   84SOPE   H5X 7811   0.982   0.443   5.055  4.3938 -2.4947 -2.8326
   84SOPE   H5Y 7812   0.970   0.429   4.881 -0.4763  0.6757  0.1680
   84SOPE   C36 7813   0.818   0.303   4.987  0.2168  0.9952 -0.0556
   84SOPE   H6X 7814   0.765   0.280   4.893  0.6180 -1.2762  0.2205
   84SOPE   H6Y 7815   0.756   0.317   5.078  0.1633 -3.6712  0.8615
   84SOPE   C37 7816   0.914   0.177   5.009  0.6733  0.1875  0.8026
   84SOPE   H7X 7817   0.993   0.183   4.932  0.6171 -0.6687  0.6691
   84SOPE   H7Y 7818   0.861   0.082   4.990  0.5952  0.1372  1.2644
   84SOPE   C38 7819   0.968   0.166   5.152 -0.9003  0.5497 -0.8288
   84SOPE   H8X 7820   0.882   0.133   5.213 -0.8719 -0.5089 -1.3224
   84SOPE   H8Y 7821   0.997   0.269   5.181 -1.9549  0.6897 -0.2238
   84SOPE   C39 7822   1.093   0.077   5.178 -0.1512  0.4961 -0.0402
   84SOPE   H9X 7823   1.147   0.111   5.269 -1.2345  0.9050  0.4771
   84SOPE   H9Y 7824   1.154   0.081   5.086  0.0122  1.5728  0.1002
   84SOPE  C310 7825   1.056  -0.071   5.212  0.4476  0.2814  0.1049
   84SOPE  H10X 7826   0.991  -0.104   5.128  0.2762  1.1971 -0.1236
   84SOPE  H10Y 7827   0.999  -0.063   5.307  0.4726  0.1671  0.1302
   84SOPE  C311 7828   1.182  -0.155   5.246  0.1386  0.6253 -0.3201
   84SOPE  H11X 7829   1.217  -0.124   5.347 -1.3312  3.0237 -0.4694
   84SOPE  H11Y 7830   1.258  -0.135   5.168  1.5363  2.0382  1.3293
   84SOPE  C312 7831   1.151  -0.309   5.249 -0.7985 -0.4167 -0.0191
   84SOPE  H12X 7832   1.107  -0.338   5.150  1.4629 -1.2773 -0.8417
   84SOPE  H12Y 7833   1.079  -0.334   5.330  0.0623 -0.4510  0.7427
   84SOPE  C313 7834   1.277  -0.389   5.278  0.2982  0.0039  0.4909
   84SOPE  H13X 7835   1.242  -0.487   5.315  1.8012 -0.0586  1.8257
   84SOPE  H13Y 7836   1.326  -0.338   5.363 -0.1506 -1.3638  1.5909
   84SOPE  C314 7837   1.371  -0.419   5.163  1.1538  0.2189  0.0877
   84SOPE  H14X 7838   1.433  -0.335   5.126  2.0973 -0.7088 -0.5063
   84SOPE  H14Y 7839   1.310  -0.449   5.075  2.6937  2.1525 -1.7260
   84SOPE  C315 7840   1.466  -0.542   5.181 -0.7932  0.7288  0.3512
   84SOPE  H15X 7841   1.403  -0.630   5.203 -1.1119  0.6645 -0.7355
   84SOPE  H15Y 7842   1.540  -0.526   5.262  0.5639  0.7503 -0.8480
   84SOPE  C316 7843   1.546  -0.589   5.058 -0.7962  0.8065  0.4601
   84SOPE  H16X 7844   1.614  -0.508   5.025 -0.5961 -0.1803 -1.6905
   84SOPE  H16Y 7845   1.487  -0.611   4.966  0.7144  1.9756 -0.8338
   84SOPE  C317 7846   1.616  -0.725   5.083 -0.2190 -0.4541 -0.8734
   84SOPE  H17X 7847   1.682  -0.742   4.995 -0.5700  2.1415 -1.7297
   84SOPE  H17Y 7848   1.547  -0.811   5.092  1.3117 -1.5332  1.6386
   84SOPE  C318 7849   1.709  -0.715   5.207  0.4706  0.1998 -0.7662
   84SOPE  H18X 7850   1.780  -0.630   5.198  0.4154  0.1090 -2.2651
   84SOPE  H18Y 7851   1.763  -0.810   5.193 -1.1757 -0.5128 -2.7781
   84SOPE  H18Z 7852   1.653  -0.720   5.303  0.5587 -0.7081 -0.7568
   85SOPE     N 7853   0.209   0.239   3.883  0.0787 -0.1101 -0.1408
   85SOPE   HN1 7854   0.217   0.254   3.781 -2.9140 -0.6825 -0.5393
   85SOPE   HN2 7855   0.194   0.335   3.920 -0.5133  1.5431 -4.1695
   85SOPE   HN3 7856   0.304   0.206   3.912  0.5595 -0.0249 -1.5194
   85SOPE   C12 7857   0.103   0.137   3.904  0.8396 -0.6643  0.5229
   85SOPE  H12A 7858   0.111   0.117   4.013 -1.4776 -3.5922  0.2756
   85SOPE  H12B 7859   0.121   0.042   3.849 -2.4240  0.2284 -2.3988
   85SOPE   C11 7860  -0.032   0.199   3.863  0.1045  0.2750 -0.0255
   85SOPE  H11A 7861  -0.030   0.226   3.755 -0.4704 -2.1899 -0.7229
   85SOPE  H11B 7862  -0.054   0.289   3.924  0.4006 -0.2671  0.8927
   85SOPE     P 7863  -0.256   0.090   3.786  0.5409  0.6380  0.2382
   85SOPE   O13 7864  -0.239  -0.030   3.703  0.0303 -0.2261 -0.3971
   85SOPE   O14 7865  -0.280   0.220   3.720  0.4141  0.1497 -0.1315
   85SOPE   O12 7866  -0.133   0.108   3.879 -0.2951 -0.0634 -0.8970
   85SOPE   O11 7867  -0.374   0.057   3.884  0.4970  0.1216 -0.0888
   85SOPE    C1 7868  -0.405   0.156   3.984  0.0150  0.3029  0.1024
   85SOPE    HA 7869  -0.516   0.158   3.980 -0.0072  3.3674 -0.4207
   85SOPE    HB 7870  -0.375   0.257   3.948  1.3728  0.1616  0.7738
   85SOPE    C2 7871  -0.351   0.111   4.122  0.2906  0.4757 -0.0750
   85SOPE    HS 7872  -0.250   0.069   4.102 -0.7255 -1.9363 -0.4299
   85SOPE   O21 7873  -0.433   0.005   4.178 -0.1876  0.4519 -0.3724
   85SOPE   C21 7874  -0.372  -0.070   4.269  0.1936  0.7113 -0.3945
   85SOPE   O22 7875  -0.257  -0.065   4.302  0.3466  0.1183 -0.6491
   85SOPE   C22 7876  -0.473  -0.173   4.322 -0.2795  0.4184 -0.9981
   85SOPE   H2R 7877  -0.480  -0.248   4.241 -1.5128 -0.1008 -0.4337
   85SOPE   H2S 7878  -0.573  -0.135   4.353 -0.3298 -1.2624  1.2074
   85SOPE    C3 7879  -0.343   0.231   4.220  0.5889  0.5640 -0.0195
   85SOPE    HX 7880  -0.277   0.307   4.172  0.9000  0.0274 -0.4513
   85SOPE    HY 7881  -0.278   0.206   4.306 -0.5987  0.3768  0.8584
   85SOPE   O31 7882  -0.471   0.284   4.262  0.1895  0.0555 -0.5379
   85SOPE   C31 7883  -0.513   0.255   4.389  0.4732  0.2626 -0.1418
   85SOPE   O32 7884  -0.445   0.193   4.469 -0.3198  0.4000 -0.2439
   85SOPE   C32 7885  -0.659   0.285   4.400  0.6707 -0.2130 -0.4585
   85SOPE   H2X 7886  -0.708   0.214   4.330 -0.8297 -1.7979  2.0129
   85SOPE   H2Y 7887  -0.682   0.386   4.363  1.4140 -0.3974 -1.4642
   85SOPE   C23 7888  -0.417  -0.217   4.462  0.2933  0.0189 -0.2026
   85SOPE   H3R 7889  -0.307  -0.205   4.469  0.3212  0.6514 -1.5283
   85SOPE   H3S 7890  -0.446  -0.324   4.449 -1.7972  0.4889  0.1391
   85SOPE   C24 7891  -0.482  -0.159   4.593 -1.0395  0.6066 -0.7975
   85SOPE   H4R 7892  -0.493  -0.048   4.589 -3.0185  0.4474 -0.8161
   85SOPE   H4S 7893  -0.588  -0.190   4.590 -1.2889  0.8957  2.1797
   85SOPE   C25 7894  -0.402  -0.202   4.715 -0.2429 -0.0620 -0.1269
   85SOPE   H5R 7895  -0.409  -0.312   4.728 -0.2839 -0.0790 -0.2885
   85SOPE   H5S 7896  -0.296  -0.175   4.696 -0.2220 -0.1363 -0.1150
   85SOPE   C26 7897  -0.464  -0.136   4.840  0.6877  0.5369  0.4619
   85SOPE   H6R 7898  -0.452  -0.026   4.827  0.8215  0.5656  0.8227
   85SOPE   H6S 7899  -0.566  -0.179   4.840  1.0135 -0.3290 -1.4116
   85SOPE   C27 7900  -0.388  -0.175   4.969 -0.2103  0.0204  0.1110
   85SOPE   H7R 7901  -0.390  -0.286   4.963  2.2577 -0.2235  2.0566
   85SOPE   H7S 7902  -0.284  -0.138   4.965  0.7610 -2.5598 -2.7341
   85SOPE   C28 7903  -0.454  -0.131   5.096 -0.0396  0.4545 -0.2494
   85SOPE   H8R 7904  -0.461  -0.020   5.097 -2.5917  0.3733 -0.2883
   85SOPE   H8S 7905  -0.560  -0.164   5.086  0.1275 -0.4317  0.7424
   85SOPE   C29 7906  -0.378  -0.191   5.209 -0.7467 -0.4643  0.5906
   85SOPE   H91 7907  -0.373  -0.301   5.209  2.5854 -0.3982  1.1900
   85SOPE  C210 7908  -0.335  -0.128   5.319  0.0711  0.3667 -0.0184
   85SOPE  H101 7909  -0.277  -0.173   5.400  0.7130  1.7703  0.3289
   85SOPE  C211 7910  -0.361   0.016   5.349  0.2792 -0.2276  0.0457
   85SOPE  H11R 7911  -0.371   0.070   5.252 -0.1047  0.4742  0.4674
   85SOPE  H11S 7912  -0.270   0.060   5.396  0.6734 -1.3111  0.3267
   85SOPE  C212 7913  -0.488   0.033   5.431  0.3055 -0.6253  0.2644
   85SOPE  H12R 7914  -0.571  -0.021   5.380  0.6289 -2.0965  1.2150
   85SOPE  H12S 7915  -0.514   0.140   5.445  0.2147 -0.3716 -1.6312
   85SOPE  C213 7916  -0.485  -0.022   5.567 -0.0833 -0.1830 -0.2026
   85SOPE  H13R 7917  -0.394   0.006   5.624 -0.6297  0.5298  0.3408
   85SOPE  H13S 7918  -0.478  -0.133   5.571  0.4771 -0.1187  2.2569
   85SOPE  C214 7919  -0.613   0.012   5.648  0.4242 -0.4620 -0.0517
   85SOPE  H14R 7920  -0.703  -0.045   5.616  0.0899 -0.2819  0.5534
   85SOPE  H14S 7921  -0.643   0.116   5.627 -1.2621 -0.8350  0.4093
   85SOPE  C215 7922  -0.585   0.004   5.798 -0.3966  0.2027  0.8394
   85SOPE  H15R 7923  -0.496   0.068   5.818 -0.6148 -0.1774  3.3219
   85SOPE  H15S 7924  -0.560  -0.102   5.818 -3.5948 -0.8118  0.0447
   85SOPE  C216 7925  -0.710   0.058   5.879 -0.1501  0.6404 -0.0105
   85SOPE  H16R 7926  -0.804   0.006   5.852  0.3528 -0.5423  0.4372
   85SOPE  H16S 7927  -0.723   0.161   5.840 -0.5835  1.2348  1.6203
   85SOPE  C217 7928  -0.711   0.045   6.026  0.4464 -0.4368 -0.3131
   85SOPE  H17R 7929  -0.625   0.102   6.067 -0.7694  2.2157 -1.2350
   85SOPE  H17S 7930  -0.702  -0.063   6.050  0.9218 -0.3887 -0.2560
   85SOPE  C218 7931  -0.844   0.101   6.077 -0.3096  0.6142  0.3938
   85SOPE  H18R 7932  -0.847   0.098   6.188 -0.1567  0.6799  0.4004
   85SOPE  H18S 7933  -0.927   0.042   6.035  1.3805 -0.8912 -0.9625
   85SOPE  H18T 7934  -0.861   0.201   6.032  0.1156  0.0513 -1.0844
   85SOPE   C33 7935  -0.713   0.273   4.548 -0.3702 -0.3277 -0.5073
   85SOPE   H3X 7936  -0.685   0.184   4.607  0.8107  0.2592 -0.1570
   85SOPE   H3Y 7937  -0.824   0.282   4.552 -0.4249 -1.4112  1.7576
   85SOPE   C34 7938  -0.663   0.388   4.638 -0.4596 -0.3553 -0.1309
   85SOPE   H4X 7939  -0.656   0.484   4.583  1.4365  0.5644  1.6042
   85SOPE   H4Y 7940  -0.553   0.376   4.652 -0.3399  1.9272  1.4650
   85SOPE   C35 7941  -0.721   0.377   4.776 -0.4859  0.1693 -0.1878
   85SOPE   H5X 7942  -0.830   0.396   4.763 -0.4307  1.8811  1.4563
   85SOPE   H5Y 7943  -0.689   0.463   4.838 -2.0967 -0.4622  1.6262
   85SOPE   C36 7944  -0.696   0.237   4.847 -0.1693 -0.4281 -0.4556
   85SOPE   H6X 7945  -0.602   0.196   4.804  0.4031 -0.0862  0.4369
   85SOPE   H6Y 7946  -0.774   0.173   4.802 -0.1990  0.0954 -1.1696
   85SOPE   C37 7947  -0.695   0.230   5.001  0.0332  0.3258  0.2006
   85SOPE   H7X 7948  -0.603   0.282   5.036  0.6763  1.0537 -2.3188
   85SOPE   H7Y 7949  -0.694   0.125   5.035  1.8416  0.6344  1.1958
   85SOPE   C38 7950  -0.830   0.287   5.053 -0.3520  0.6191  0.5020
   85SOPE   H8X 7951  -0.916   0.239   5.003  1.3785 -0.1973 -1.8496
   85SOPE   H8Y 7952  -0.824   0.385   5.001  3.0617 -0.5421 -1.5908
   85SOPE   C39 7953  -0.843   0.308   5.206 -0.8960 -0.2415  0.5660
   85SOPE   H9X 7954  -0.741   0.330   5.243 -1.5165  0.2544  2.0478
   85SOPE   H9Y 7955  -0.880   0.218   5.259 -0.3527  0.6366  2.5193
   85SOPE  C310 7956  -0.949   0.417   5.249  0.0849 -0.5113  0.3364
   85SOPE  H10X 7957  -1.045   0.388   5.202 -0.7218 -0.1275  1.7195
   85SOPE  H10Y 7958  -0.912   0.515   5.211  1.1084 -0.5255  1.2604
   85SOPE  C311 7959  -0.954   0.422   5.409 -0.2998 -0.0613  0.1201
   85SOPE  H11X 7960  -0.981   0.317   5.432 -2.4752  0.5435  0.5609
   85SOPE  H11Y 7961  -1.044   0.485   5.424  0.4190  1.3322 -1.1413
   85SOPE  C312 7962  -0.826   0.470   5.488  0.4681  0.1597  0.0475
   85SOPE  H12X 7963  -0.830   0.581   5.489 -3.0178  0.1252  0.0727
   85SOPE  H12Y 7964  -0.731   0.446   5.436  0.1045  0.6956 -0.8821
   85SOPE  C313 7965  -0.820   0.421   5.631 -0.4925 -0.1681 -0.5527
   85SOPE  H13X 7966  -0.732   0.458   5.686 -2.1514  1.1620  1.3055
   85SOPE  H13Y 7967  -0.807   0.310   5.634  0.7167 -0.0622 -1.1502
   85SOPE  C314 7968  -0.937   0.473   5.713  0.2152  0.1114 -0.3727
   85SOPE  H14X 7969  -1.029   0.421   5.682 -0.4137  2.1616 -2.1368
   85SOPE  H14Y 7970  -0.947   0.579   5.682 -0.0038  0.4780  0.8633
   85SOPE  C315 7971  -0.926   0.453   5.865 -0.0125  0.5895  0.3910
   85SOPE  H15X 7972  -0.826   0.476   5.909 -0.2057  3.2866 -0.3993
   85SOPE  H15Y 7973  -0.946   0.345   5.881 -0.2894 -0.0991 -3.4874
   85SOPE  C316 7974  -1.032   0.529   5.947 -0.1701  0.4178  0.3558
   85SOPE  H16X 7975  -1.127   0.538   5.892 -0.8639  0.6908  1.5663
   85SOPE  H16Y 7976  -0.992   0.628   5.979  1.3174 -0.3691  1.0839
   85SOPE  C317 7977  -1.054   0.458   6.076 -0.1651 -0.0074 -0.4063
   85SOPE  H17X 7978  -0.961   0.465   6.135  0.7506  0.4313 -1.8638
   85SOPE  H17Y 7979  -1.078   0.351   6.060 -0.1333 -0.0982  0.1408
   85SOPE  C318 7980  -1.166   0.516   6.160  0.0315 -0.1632  1.1064
   85SOPE  H18X 7981  -1.263   0.475   6.125 -0.7953  1.1508  1.7524
   85SOPE  H18Y 7982  -1.176   0.626   6.147 -0.5337 -0.1038  1.9498
   85SOPE  H18Z 7983  -1.149   0.503   6.269  2.8010  1.4627  0.9586
   86SOPE     N 7984   4.743   6.953   3.530  0.4769 -0.1257  0.1247
   86SOPE   HN1 7985   4.692   6.862   3.533 -0.1141  0.0131 -2.6760
   86SOPE   HN2 7986   4.673   7.030   3.524 -1.2090 -1.5486  0.6845
   86SOPE   HN3 7987   4.809   6.943   3.450 -0.0799  0.6625 -0.4510
   86SOPE   C12 7988   4.818   6.969   3.656  0.1236 -0.0274 -0.6441
   86SOPE  H12A 7989   4.878   7.063   3.653 -0.2186  0.2459  0.4353
   86SOPE  H12B 7990   4.889   6.886   3.673  0.4236  0.2701 -0.4084
   86SOPE   C11 7991   4.731   6.997   3.785 -0.7063  0.0721  0.3877
   86SOPE  H11A 7992   4.799   6.987   3.872 -2.5337 -0.8459  1.7594
   86SOPE  H11B 7993   4.650   6.926   3.811 -0.3256 -0.5030  0.0387
   86SOPE     P 7994   4.574   7.204   3.705  0.1105  0.1976 -0.3255
   86SOPE   O13 7995   4.599   7.188   3.560  0.6998  0.1428 -0.0922
   86SOPE   O14 7996   4.562   7.347   3.759  0.6067 -0.5450  0.1427
   86SOPE   O12 7997   4.695   7.138   3.777  0.5487 -0.5344 -0.1190
   86SOPE   O11 7998   4.446   7.121   3.753 -0.2980  0.0011 -0.2186
   86SOPE    C1 7999   4.379   7.157   3.878 -0.3914  0.3032  0.0346
   86SOPE    HA 8000   4.288   7.093   3.886 -2.0594  2.6273  0.7978
   86SOPE    HB 8001   4.340   7.261   3.865 -0.4575  0.5906  2.2340
   86SOPE    C2 8002   4.474   7.146   4.000 -0.0123  0.3273 -0.5193
   86SOPE    HS 8003   4.559   7.215   3.983  1.0094 -0.4789  1.1245
   86SOPE   O21 8004   4.513   7.010   4.017 -0.4048 -0.4041  0.2987
   86SOPE   C21 8005   4.614   6.978   4.102  0.1508 -0.1169 -0.2450
   86SOPE   O22 8006   4.686   7.060   4.156 -0.7972 -0.0121 -0.3255
   86SOPE   C22 8007   4.617   6.825   4.123  0.2386  0.2623  0.2654
   86SOPE   H2R 8008   4.724   6.799   4.139  0.7833  1.0373 -1.7770
   86SOPE   H2S 8009   4.607   6.773   4.025  0.2979 -0.9454  0.8842
   86SOPE    C3 8010   4.405   7.193   4.132  0.0754 -0.1044  0.0023
   86SOPE    HX 8011   4.362   7.292   4.108 -0.8625  0.3303  3.0230
   86SOPE    HY 8012   4.484   7.201   4.210 -1.0531 -0.2052  1.1828
   86SOPE   O31 8013   4.314   7.090   4.180 -0.0137  0.1582  0.0935
   86SOPE   C31 8014   4.205   7.132   4.235 -0.1773  0.9801  0.4900
   86SOPE   O32 8015   4.177   7.248   4.252 -0.2446  0.3942 -0.5339
   86SOPE   C32 8016   4.101   7.022   4.256  0.0369  0.3856  0.4030
   86SOPE   H2X 8017   4.129   6.927   4.206  0.2218  0.0298  1.1675
   86SOPE   H2Y 8018   4.008   7.066   4.214 -0.0571 -0.2440 -0.0721
   86SOPE   C23 8019   4.512   6.765   4.224  0.2910 -0.1637 -0.2762
   86SOPE   H3R 8020   4.503   6.656   4.206  0.6562 -0.5825  1.7970
   86SOPE   H3S 8021   4.415   6.816   4.206  0.3828  0.1117 -0.0048
   86SOPE   C24 8022   4.549   6.782   4.379  0.2249  0.2024 -0.0266
   86SOPE   H4R 8023   4.488   6.717   4.445  1.9801  0.0597  1.5251
   86SOPE   H4S 8024   4.654   6.748   4.385 -0.3795 -1.8250 -0.2644
   86SOPE   C25 8025   4.556   6.927   4.438 -0.0606 -0.4980  0.0295
   86SOPE   H5R 8026   4.634   6.979   4.378 -0.2555 -1.5358 -1.1548
   86SOPE   H5S 8027   4.457   6.974   4.420 -0.0588  0.1764  1.5872
   86SOPE   C26 8028   4.584   6.930   4.589 -0.2778 -0.0228  0.7340
   86SOPE   H6R 8029   4.490   6.927   4.648 -1.2490  2.1084 -0.6125
   86SOPE   H6S 8030   4.637   6.835   4.612  0.4521 -0.1424 -1.2726
   86SOPE   C27 8031   4.671   7.052   4.621  0.8562  1.1332 -0.0323
   86SOPE   H7R 8032   4.761   7.031   4.559 -0.1363 -1.8782 -0.6169
   86SOPE   H7S 8033   4.626   7.141   4.572  0.5193  0.1294 -1.6079
   86SOPE   C28 8034   4.705   7.078   4.763  0.0837 -0.0802 -0.4780
   86SOPE   H8R 8035   4.773   7.164   4.778 -0.6959  0.5898 -0.7655
   86SOPE   H8S 8036   4.609   7.108   4.809 -0.3489 -1.8327 -0.1400
   86SOPE   C29 8037   4.759   6.948   4.827 -0.6476 -0.2212  0.0544
   86SOPE   H91 8038   4.848   6.912   4.775 -2.7173 -0.4942 -3.6397
   86SOPE  C210 8039   4.716   6.879   4.929 -0.6200  1.3642  0.6410
   86SOPE  H101 8040   4.770   6.786   4.954  0.1760  1.2336 -1.3975
   86SOPE  C211 8041   4.603   6.898   5.021  0.1675 -0.2627 -0.1256
   86SOPE  H11R 8042   4.554   6.808   5.063 -0.4882 -0.4189 -1.2077
   86SOPE  H11S 8043   4.526   6.957   4.967  1.3690  0.1720 -1.4237
   86SOPE  C212 8044   4.646   6.988   5.137  0.3451  0.5018 -0.1531
   86SOPE  H12R 8045   4.560   7.047   5.175 -0.0734  2.0664 -3.2696
   86SOPE  H12S 8046   4.731   7.052   5.108  0.3041  1.6576  2.0848
   86SOPE  C213 8047   4.696   6.894   5.256 -0.2474  0.1647 -0.5807
   86SOPE  H13R 8048   4.797   6.861   5.222  1.1310  3.2866  0.1730
   86SOPE  H13S 8049   4.626   6.807   5.262 -0.6413  0.5623  2.6173
   86SOPE  C214 8050   4.693   6.965   5.391  0.2825 -0.0256  0.0939
   86SOPE  H14R 8051   4.690   6.887   5.470  0.1061 -0.2252 -0.1100
   86SOPE  H14S 8052   4.599   7.023   5.403  0.0872 -0.5014  0.9520
   86SOPE  C215 8053   4.818   7.043   5.410 -0.0245 -0.2968 -0.2205
   86SOPE  H15R 8054   4.836   7.132   5.347 -0.6655 -0.7959 -1.1368
   86SOPE  H15S 8055   4.904   6.974   5.393 -1.2286 -1.5075 -1.7076
   86SOPE  C216 8056   4.834   7.107   5.553 -0.1813  0.0284 -0.4665
   86SOPE  H16R 8057   4.762   7.190   5.570 -1.0771 -0.7868 -0.2223
   86SOPE  H16S 8058   4.926   7.168   5.550 -1.7611  2.5902  0.1098
   86SOPE  C217 8059   4.856   7.006   5.669  0.9041 -0.4048 -0.6145
   86SOPE  H17R 8060   4.762   6.947   5.674  0.0273  0.8143 -1.9718
   86SOPE  H17S 8061   4.869   7.072   5.758 -0.7774  0.3118 -0.8517
   86SOPE  C218 8062   4.980   6.922   5.649 -0.0899 -0.3233 -0.4752
   86SOPE  H18R 8063   5.062   6.991   5.618 -2.5165  2.4010 -1.3664
   86SOPE  H18S 8064   4.961   6.856   5.562  0.4624 -0.5696 -0.4135
   86SOPE  H18T 8065   5.003   6.861   5.738 -1.9793  1.0084  1.0287
   86SOPE   C33 8066   4.081   7.005   4.401  0.2370  0.2549  0.2287
   86SOPE   H3X 8067   4.052   7.097   4.455 -1.3456 -0.1650  0.1600
   86SOPE   H3Y 8068   4.182   6.983   4.442 -0.1312 -1.0909  0.4804
   86SOPE   C34 8069   3.984   6.890   4.443  0.4780 -0.5108 -0.0155
   86SOPE   H4X 8070   4.014   6.800   4.386  0.3503 -0.4667 -0.1550
   86SOPE   H4Y 8071   3.880   6.927   4.428  0.6175 -0.3378 -0.5700
   86SOPE   C35 8072   3.998   6.845   4.592  0.3907 -0.0064 -0.5319
   86SOPE   H5X 8073   3.911   6.790   4.634 -0.6896  3.4565  2.2527
   86SOPE   H5Y 8074   4.002   6.940   4.649  0.6966 -0.1141 -0.3779
   86SOPE   C36 8075   4.111   6.749   4.612  0.2656 -0.1301 -0.2266
   86SOPE   H6X 8076   4.201   6.782   4.554  0.0824  0.8142  0.0044
   86SOPE   H6Y 8077   4.094   6.650   4.565 -1.6449 -0.0708  0.2755
   86SOPE   C37 8078   4.128   6.731   4.764  0.3855  0.1842 -1.0114
   86SOPE   H7X 8079   4.042   6.683   4.815  1.7513 -0.5568  0.7405
   86SOPE   H7Y 8080   4.121   6.835   4.802 -1.7631  0.3343 -1.7205
   86SOPE   C38 8081   4.265   6.676   4.814  0.4694 -0.2912 -0.1234
   86SOPE   H8X 8082   4.350   6.737   4.777  0.0295  0.4154 -0.0042
   86SOPE   H8Y 8083   4.284   6.575   4.773  0.0356 -0.7665  0.8078
   86SOPE   C39 8084   4.292   6.669   4.965  0.2394 -0.6804  0.0591
   86SOPE   H9X 8085   4.396   6.638   4.986  0.8436  1.0155 -0.2628
   86SOPE   H9Y 8086   4.228   6.583   4.995 -0.6919 -1.6630 -4.0961
   86SOPE  C310 8087   4.270   6.798   5.040 -0.4458  0.3222 -0.0363
   86SOPE  H10X 8088   4.161   6.817   5.040 -0.2276  1.9355 -1.8720
   86SOPE  H10Y 8089   4.322   6.882   4.990 -1.8093  2.1238  1.4696
   86SOPE  C311 8090   4.296   6.772   5.193  0.2772  0.9023  0.1058
   86SOPE  H11X 8091   4.403   6.743   5.207  0.4120  1.4630  0.2633
   86SOPE  H11Y 8092   4.229   6.697   5.241  0.2524  1.0505  0.3039
   86SOPE  C312 8093   4.273   6.901   5.268 -0.2198  0.3614 -1.3892
   86SOPE  H12X 8094   4.169   6.931   5.245 -0.1693  0.5348 -1.3901
   86SOPE  H12Y 8095   4.350   6.976   5.238 -2.4179  2.5989 -1.7828
   86SOPE  C313 8096   4.294   6.880   5.417 -0.0096 -0.3647  0.7088
   86SOPE  H13X 8097   4.404   6.879   5.429  0.3533 -1.5508 -1.8574
   86SOPE  H13Y 8098   4.253   6.782   5.451  0.4695 -1.4702 -1.6242
   86SOPE  C314 8099   4.229   6.998   5.487 -0.3221  0.2903  0.4171
   86SOPE  H14X 8100   4.119   6.989   5.471 -0.5452  1.9660  0.7972
   86SOPE  H14Y 8101   4.263   7.089   5.433 -0.2982 -0.5313 -0.9719
   86SOPE  C315 8102   4.267   6.995   5.638 -0.0816  0.2671  0.4704
   86SOPE  H15X 8103   4.274   6.890   5.675  0.5960  0.6007  1.3305
   86SOPE  H15Y 8104   4.184   7.046   5.691 -1.1896 -0.4258 -0.5483
   86SOPE  C316 8105   4.387   7.082   5.668  0.4025 -0.0513  0.0507
   86SOPE  H16X 8106   4.373   7.184   5.627  1.5351 -0.7948 -2.3752
   86SOPE  H16Y 8107   4.481   7.043   5.622  0.3595  0.5827 -0.5882
   86SOPE  C317 8108   4.412   7.102   5.819 -1.3157 -0.9083  0.4800
   86SOPE  H17X 8109   4.321   7.128   5.877 -0.5443  0.1786  1.2343
   86SOPE  H17Y 8110   4.483   7.186   5.833 -2.3536 -0.1762  1.3896
   86SOPE  C318 8111   4.473   6.979   5.881 -0.2894  0.3751 -0.2078
   86SOPE  H18X 8112   4.571   6.954   5.834 -0.3403 -1.0632  0.4151
   86SOPE  H18Y 8113   4.412   6.887   5.871 -1.2706  1.0415 -0.5414
   86SOPE  H18Z 8114   4.486   7.004   5.989 -2.0127 -1.4163  0.4576
   87SOPE     N 8115   6.928   4.777   3.519  0.0812  0.6724 -0.2290
   87SOPE   HN1 8116   6.997   4.717   3.468  1.0499  2.2131 -0.8194
   87SOPE   HN2 8117   6.830   4.762   3.490 -0.9359  0.6841  2.8991
   87SOPE   HN3 8118   6.965   4.862   3.471  0.2228 -0.1160 -1.5812
   87SOPE   C12 8119   6.945   4.777   3.666  0.0286 -0.3844 -0.1020
   87SOPE  H12A 8120   6.906   4.680   3.704 -0.1679 -1.0066 -1.7936
   87SOPE  H12B 8121   6.887   4.862   3.708  0.4892 -1.5671  3.2202
   87SOPE   C11 8122   7.095   4.794   3.689 -0.4334  0.3255 -0.6676
   87SOPE  H11A 8123   7.148   4.699   3.663 -0.3971  0.1916 -0.1061
   87SOPE  H11B 8124   7.112   4.791   3.799  0.6820 -0.7297 -0.8364
   87SOPE     P 8125   7.302   4.944   3.676  0.3060  0.5993  0.4257
   87SOPE   O13 8126   7.350   5.061   3.595 -0.5765 -0.4288  0.1411
   87SOPE   O14 8127   7.390   4.827   3.687  0.1397  0.5138  0.2918
   87SOPE   O12 8128   7.157   4.900   3.622  0.0627  0.0346  0.4429
   87SOPE   O11 8129   7.265   4.987   3.827 -0.1633 -0.4904 -0.0013
   87SOPE    C1 8130   7.186   5.095   3.865  0.0692 -0.4983 -0.0009
   87SOPE    HA 8131   7.100   5.056   3.924  1.0001 -1.0948  1.0021
   87SOPE    HB 8132   7.145   5.151   3.778  1.3699 -0.9188 -0.9088
   87SOPE    C2 8133   7.252   5.199   3.958 -1.0467 -0.1759  0.7845
   87SOPE    HS 8134   7.355   5.208   3.918 -2.0321  0.5059 -1.8171
   87SOPE   O21 8135   7.249   5.145   4.095 -0.4352 -0.2516  0.0244
   87SOPE   C21 8136   7.366   5.115   4.158 -0.2854 -0.7370 -0.0061
   87SOPE   O22 8137   7.473   5.142   4.108 -0.2159  0.3969  0.0954
   87SOPE   C22 8138   7.341   5.033   4.289  0.0442 -0.3902  0.3535
   87SOPE   H2R 8139   7.266   4.955   4.262  0.0612 -0.5309  0.7179
   87SOPE   H2S 8140   7.294   5.111   4.352 -2.0150  0.8632 -2.4894
   87SOPE    C3 8141   7.191   5.336   3.956 -0.1406 -0.9473 -0.4399
   87SOPE    HX 8142   7.081   5.319   3.952 -0.2631 -0.5060  0.5973
   87SOPE    HY 8143   7.231   5.387   3.867 -0.5058  0.1463  0.0047
   87SOPE   O31 8144   7.230   5.413   4.074  0.3380 -0.5412  0.2425
   87SOPE   C31 8145   7.142   5.512   4.114  0.3365 -0.5810  0.3151
   87SOPE   O32 8146   7.051   5.549   4.043  0.6085  0.1602  0.1327
   87SOPE   C32 8147   7.172   5.570   4.248  0.2599  0.0408  0.3757
   87SOPE   H2X 8148   7.211   5.672   4.229  0.5459 -0.3297 -1.2186
   87SOPE   H2Y 8149   7.254   5.519   4.303  1.8940  0.9140 -1.1449
   87SOPE   C23 8150   7.464   4.948   4.343  0.3706 -0.6349  0.1885
   87SOPE   H3R 8151   7.562   5.001   4.354  0.1504  0.2068 -1.5147
   87SOPE   H3S 8152   7.488   4.864   4.274 -0.7953  0.6654 -1.9344
   87SOPE   C24 8153   7.432   4.887   4.487 -0.2144 -0.7744  0.1656
   87SOPE   H4R 8154   7.417   4.963   4.568  1.1188 -0.9381  0.5799
   87SOPE   H4S 8155   7.340   4.826   4.472 -1.0060  0.8108 -1.8855
   87SOPE   C25 8156   7.552   4.808   4.547  0.3796 -0.5836  0.8367
   87SOPE   H5R 8157   7.595   4.732   4.478 -0.3333  0.5358 -0.9264
   87SOPE   H5S 8158   7.635   4.880   4.556  0.5226 -0.4523 -1.0649
   87SOPE   C26 8159   7.503   4.736   4.673 -0.1141  0.6989 -0.1538
   87SOPE   H6R 8160   7.430   4.801   4.726 -0.7640 -0.6378  0.6591
   87SOPE   H6S 8161   7.445   4.647   4.640 -1.7877  0.8099  2.2240
   87SOPE   C27 8162   7.626   4.693   4.762  0.8151 -0.0025 -0.0281
   87SOPE   H7R 8163   7.686   4.628   4.694  1.0126  0.3625 -0.2044
   87SOPE   H7S 8164   7.676   4.786   4.796  1.0986 -0.3713  0.5739
   87SOPE   C28 8165   7.580   4.597   4.880 -0.2704 -0.4205 -0.3512
   87SOPE   H8R 8166   7.528   4.505   4.845 -1.3998  0.2303 -0.4381
   87SOPE   H8S 8167   7.668   4.560   4.937  0.1411 -1.4927 -1.6214
   87SOPE   C29 8168   7.495   4.683   4.978 -0.7232 -0.3310 -0.1585
   87SOPE   H91 8169   7.391   4.698   4.945 -0.4061 -0.5510 -1.3258
   87SOPE  C210 8170   7.524   4.737   5.099  0.0065 -0.9103  0.9295
   87SOPE  H101 8171   7.439   4.786   5.147  1.4475  0.7461  1.9208
   87SOPE  C211 8172   7.657   4.728   5.175 -0.3660  0.1347 -0.5819
   87SOPE  H11R 8173   7.698   4.831   5.185 -0.0297 -0.2090  2.7601
   87SOPE  H11S 8174   7.725   4.670   5.108 -1.2300 -1.5161 -0.0753
   87SOPE  C212 8175   7.637   4.664   5.307 -0.2095 -0.1742  0.3766
   87SOPE  H12R 8176   7.737   4.669   5.355  0.5333  0.7290 -1.1515
   87SOPE  H12S 8177   7.616   4.555   5.300  1.5331 -0.4774 -0.7758
   87SOPE  C213 8178   7.539   4.731   5.409 -0.3826 -0.1567 -0.2724
   87SOPE  H13R 8179   7.439   4.701   5.372  0.0414 -0.5344 -1.1343
   87SOPE  H13S 8180   7.544   4.842   5.411 -1.0850 -0.0804 -1.9401
   87SOPE  C214 8181   7.569   4.689   5.555 -0.9035  0.3331 -0.1279
   87SOPE  H14R 8182   7.651   4.748   5.601 -0.0298 -1.6561  0.9714
   87SOPE  H14S 8183   7.597   4.582   5.546 -0.2621  0.6309 -2.2909
   87SOPE  C215 8184   7.449   4.699   5.663 -0.5097 -0.4594  0.6017
   87SOPE  H15R 8185   7.365   4.641   5.621 -1.0678  2.6448 -3.1578
   87SOPE  H15S 8186   7.419   4.806   5.659 -1.2847 -0.7085 -1.6286
   87SOPE  C216 8187   7.492   4.665   5.806 -0.3516  0.0301 -0.5180
   87SOPE  H16R 8188   7.538   4.565   5.815  2.7245  1.5066  2.5941
   87SOPE  H16S 8189   7.399   4.662   5.867  0.5272  4.5648  1.4972
   87SOPE  C217 8190   7.575   4.765   5.883  0.4099  0.7155  0.4163
   87SOPE  H17R 8191   7.537   4.867   5.860 -2.2939  0.0224  1.5062
   87SOPE  H17S 8192   7.679   4.765   5.842 -0.1735 -3.9114 -1.6990
   87SOPE  C218 8193   7.568   4.738   6.033  0.0522 -0.5801  0.2769
   87SOPE  H18R 8194   7.460   4.727   6.059 -0.4460  0.3895 -1.2392
   87SOPE  H18S 8195   7.612   4.826   6.085  1.1501 -1.3192  0.6316
   87SOPE  H18T 8196   7.616   4.641   6.058 -0.2864 -1.0529 -0.8464
   87SOPE   C33 8197   7.052   5.588   4.339  0.7921 -0.4835  0.5826
   87SOPE   H3X 8198   6.967   5.642   4.293  2.6139  1.2273 -0.9164
   87SOPE   H3Y 8199   7.093   5.636   4.430  1.5622 -0.2985  0.1489
   87SOPE   C34 8200   6.996   5.458   4.404  1.3851  0.2819 -0.1601
   87SOPE   H4X 8201   7.085   5.408   4.446  1.9880 -1.7289 -3.4703
   87SOPE   H4Y 8202   6.963   5.404   4.312  4.7271 -0.5236 -1.0239
   87SOPE   C35 8203   6.885   5.481   4.508  0.2955 -0.2306  0.3840
   87SOPE   H5X 8204   6.852   5.376   4.518 -0.3486  0.0338  1.0590
   87SOPE   H5Y 8205   6.808   5.550   4.468  0.2679  0.3749  1.4522
   87SOPE   C36 8206   6.946   5.534   4.639  0.0300 -0.5847 -0.0210
   87SOPE   H6X 8207   6.938   5.644   4.652  1.1032 -0.5766  0.6160
   87SOPE   H6Y 8208   7.054   5.509   4.639 -0.3727 -2.4949  0.1337
   87SOPE   C37 8209   6.889   5.459   4.761  0.0856  0.1280 -0.1427
   87SOPE   H7X 8210   6.898   5.349   4.751 -1.8812  0.0738 -2.2459
   87SOPE   H7Y 8211   6.779   5.475   4.765  0.0505  0.4473 -1.5725
   87SOPE   C38 8212   6.963   5.497   4.892  0.1394 -0.5859  0.5635
   87SOPE   H8X 8213   6.936   5.603   4.909  0.8136 -0.0457 -1.4386
   87SOPE   H8Y 8214   7.073   5.499   4.877 -0.0844  0.4459 -1.3000
   87SOPE   C39 8215   6.912   5.414   5.005  0.2637  0.1782  0.0903
   87SOPE   H9X 8216   6.940   5.310   4.979 -1.1760 -0.3801  0.6846
   87SOPE   H9Y 8217   6.801   5.412   5.011  0.2211 -0.3539 -0.7750
   87SOPE  C310 8218   6.959   5.453   5.141 -0.0687 -0.1847  0.0695
   87SOPE  H10X 8219   6.888   5.527   5.182  0.0394 -0.6547  1.1254
   87SOPE  H10Y 8220   7.059   5.503   5.133  0.9687 -2.4301 -3.7294
   87SOPE  C311 8221   6.953   5.339   5.248 -0.4369  0.0695 -0.0598
   87SOPE  H11X 8222   7.021   5.255   5.224 -0.6405 -0.4839  1.1790
   87SOPE  H11Y 8223   6.848   5.301   5.247 -0.4202 -0.0897  1.4248
   87SOPE  C312 8224   6.990   5.381   5.394  0.4625 -0.2733 -0.3120
   87SOPE  H12X 8225   7.100   5.398   5.396  0.3057  0.8181 -0.2461
   87SOPE  H12Y 8226   6.966   5.302   5.468 -1.4766 -0.4389 -1.0526
   87SOPE  C313 8227   6.920   5.501   5.457  0.2882 -0.6568 -0.2263
   87SOPE  H13X 8228   6.812   5.494   5.434  0.3443 -0.2703 -0.6356
   87SOPE  H13Y 8229   6.963   5.599   5.425  1.4944 -1.2248 -0.4035
   87SOPE  C314 8230   6.937   5.509   5.609 -0.2292 -0.2850 -0.4417
   87SOPE  H14X 8231   7.042   5.540   5.627  0.0048 -1.3718  0.1409
   87SOPE  H14Y 8232   6.906   5.418   5.665 -1.3974 -0.1299 -0.8071
   87SOPE  C315 8233   6.850   5.627   5.664 -0.3226 -1.0537 -0.6430
   87SOPE  H15X 8234   6.746   5.631   5.626  0.1807  0.0748 -2.0073
   87SOPE  H15Y 8235   6.915   5.711   5.631  1.0890 -1.4800  0.9414
   87SOPE  C316 8236   6.860   5.617   5.822  0.7705  0.1686  1.2164
   87SOPE  H16X 8237   6.966   5.602   5.849  1.7802 -0.3360 -2.4660
   87SOPE  H16Y 8238   6.817   5.518   5.850  0.3646  0.0553  0.2516
   87SOPE  C317 8239   6.795   5.729   5.888  0.4051 -0.6867 -0.3661
   87SOPE  H17X 8240   6.753   5.690   5.983  0.2390 -0.8327 -0.4982
   87SOPE  H17Y 8241   6.708   5.773   5.834  0.8355 -1.0620 -1.3916
   87SOPE  C318 8242   6.898   5.841   5.924 -0.4416  0.0099 -0.3874
   87SOPE  H18X 8243   6.981   5.789   5.976 -0.1129  0.0643 -0.8512
   87SOPE  H18Y 8244   6.856   5.914   5.997 -1.2639  0.3501 -1.1832
   87SOPE  H18Z 8245   6.937   5.897   5.837  1.1869 -2.0347 -1.0593
   88SOPE     N 8246   2.380   6.586   4.339 -0.4911  0.2260 -0.2794
   88SOPE   HN1 8247   2.460   6.629   4.288 -1.2247 -0.2099 -1.8596
   88SOPE   HN2 8248   2.354   6.509   4.274 -2.3543  2.7850 -2.7921
   88SOPE   HN3 8249   2.301   6.650   4.363 -0.6323  0.0289 -0.2168
   88SOPE   C12 8250   2.422   6.532   4.476  0.5009 -0.0850  0.4854
   88SOPE  H12A 8251   2.326   6.509   4.527  0.3940 -0.3431  0.1710
   88SOPE  H12B 8252   2.460   6.614   4.541 -1.4868 -0.4994  2.3070
   88SOPE   C11 8253   2.529   6.429   4.455  0.1084 -0.1317 -0.1867
   88SOPE  H11A 8254   2.547   6.392   4.558 -0.1937  3.5747  1.3354
   88SOPE  H11B 8255   2.623   6.471   4.414  0.1112  0.8056  0.7494
   88SOPE     P 8256   2.571   6.210   4.300  0.1318  0.0942  0.1735
   88SOPE   O13 8257   2.635   6.261   4.177 -0.1057 -0.1676  0.1681
   88SOPE   O14 8258   2.480   6.097   4.273  0.3868 -0.3585  0.2534
   88SOPE   O12 8259   2.480   6.324   4.366 -0.1486 -0.4160  0.2646
   88SOPE   O11 8260   2.688   6.187   4.406  0.5674 -0.2330 -0.2551
   88SOPE    C1 8261   2.719   6.060   4.456 -0.6203 -0.1994  0.1492
   88SOPE    HA 8262   2.825   6.059   4.487 -0.5074 -1.5595 -0.1945
   88SOPE    HB 8263   2.719   5.978   4.381  1.6035 -1.4919  1.4607
   88SOPE    C2 8264   2.620   6.019   4.570 -0.3625  0.0058 -0.4463
   88SOPE    HS 8265   2.526   5.985   4.520 -0.0417 -0.4914 -0.7280
   88SOPE   O21 8266   2.599   6.132   4.657  0.0073 -0.6154 -0.2881
   88SOPE   C21 8267   2.479   6.134   4.715 -0.4678  0.7542 -0.5399
   88SOPE   O22 8268   2.385   6.059   4.689  0.0677 -0.9668 -0.2305
   88SOPE   C22 8269   2.472   6.248   4.813  0.0784 -0.2883 -0.2408
   88SOPE   H2R 8270   2.371   6.273   4.854  1.2339 -1.0105  3.3718
   88SOPE   H2S 8271   2.515   6.334   4.757 -0.3307  0.7985  1.0649
   88SOPE    C3 8272   2.685   5.903   4.649  0.5508 -0.1982 -0.2909
   88SOPE    HX 8273   2.693   5.809   4.591 -0.5366 -0.5326  0.0942
   88SOPE    HY 8274   2.615   5.877   4.730  1.0259 -0.4177  0.0567
   88SOPE   O31 8275   2.820   5.938   4.697 -0.2361  0.2152  0.1187
   88SOPE   C31 8276   2.843   5.951   4.826 -0.2243 -0.6936  0.3966
   88SOPE   O32 8277   2.758   5.949   4.909  0.0790  0.9334 -0.4008
   88SOPE   C32 8278   2.978   6.010   4.848 -0.0309  0.2790  0.3584
   88SOPE   H2X 8279   2.991   6.086   4.768 -3.3089 -0.5442 -1.1328
   88SOPE   H2Y 8280   3.053   5.929   4.834 -1.1404 -0.4149 -2.2940
   88SOPE   C23 8281   2.561   6.232   4.940 -0.4669 -0.2498 -0.3963
   88SOPE   H3R 8282   2.534   6.325   4.993 -2.5075 -1.6333  1.1471
   88SOPE   H3S 8283   2.668   6.229   4.912  0.3437  0.4810  2.4143
   88SOPE   C24 8284   2.513   6.121   5.035 -0.4354 -0.5042  0.3210
   88SOPE   H4R 8285   2.404   6.133   5.051 -0.3170 -0.7400  1.3607
   88SOPE   H4S 8286   2.543   6.028   4.982  1.5120 -1.0726  2.2722
   88SOPE   C25 8287   2.583   6.113   5.169 -0.2473 -0.3955 -0.0897
   88SOPE   H5R 8288   2.538   6.038   5.237 -0.4544  1.0745  1.4642
   88SOPE   H5S 8289   2.693   6.096   5.158 -0.6061 -2.4259 -0.8672
   88SOPE   C26 8290   2.585   6.247   5.247  0.4598  0.1299  0.3573
   88SOPE   H6R 8291   2.648   6.317   5.189  2.4330 -2.0804 -0.3715
   88SOPE   H6S 8292   2.481   6.284   5.260  0.4512  0.0027  0.6673
   88SOPE   C27 8293   2.643   6.219   5.379 -0.8187 -0.4088 -0.4973
   88SOPE   H7R 8294   2.633   6.112   5.407 -1.2599 -0.6159 -1.4141
   88SOPE   H7S 8295   2.753   6.224   5.362 -0.8662 -0.8093 -0.9329
   88SOPE   C28 8296   2.617   6.338   5.477 -0.1085  0.5676 -0.0457
   88SOPE   H8R 8297   2.648   6.435   5.434  1.0138  0.1738 -0.1498
   88SOPE   H8S 8298   2.507   6.345   5.493 -0.7516 -0.4740 -3.2863
   88SOPE   C29 8299   2.683   6.325   5.608  0.2021 -0.5207  0.2619
   88SOPE   H91 8300   2.791   6.305   5.603  0.1558 -0.6166 -0.4383
   88SOPE  C210 8301   2.631   6.325   5.735 -0.6300  0.5532  0.2696
   88SOPE  H101 8302   2.705   6.307   5.814 -0.4834  1.3362  0.3240
   88SOPE  C211 8303   2.483   6.328   5.774  0.3001 -0.3274  0.0725
   88SOPE  H11R 8304   2.420   6.363   5.689  0.0690 -1.6866 -0.3394
   88SOPE  H11S 8305   2.470   6.404   5.854  0.6115 -0.1675 -0.0285
   88SOPE  C212 8306   2.419   6.189   5.813 -0.1351 -0.3109 -0.0612
   88SOPE  H12R 8307   2.459   6.108   5.748 -2.2660  0.5111 -2.5573
   88SOPE  H12S 8308   2.310   6.191   5.795 -0.8658  3.2078  3.3012
   88SOPE  C213 8309   2.442   6.167   5.962  0.4988 -0.1753 -0.4155
   88SOPE  H13R 8310   2.393   6.252   6.015  0.5877  0.1005 -0.7733
   88SOPE  H13S 8311   2.552   6.164   5.982  0.9538  1.7535 -2.3014
   88SOPE  C214 8312   2.374   6.034   6.004 -0.1725  0.0460  0.2847
   88SOPE  H14R 8313   2.407   5.960   5.929 -0.6718 -1.6250  1.6594
   88SOPE  H14S 8314   2.263   6.034   6.007 -0.2203  1.4888 -0.4289
   88SOPE  C215 8315   2.424   5.978   6.146  0.4830 -0.8516 -0.3961
   88SOPE  H15R 8316   2.364   6.032   6.222  1.3098 -2.7108  1.6769
   88SOPE  H15S 8317   2.530   6.010   6.160  0.4768 -1.4751  1.1873
   88SOPE  C216 8318   2.399   5.826   6.152  0.4894  0.0893 -0.1841
   88SOPE  H16R 8319   2.449   5.763   6.075 -0.2984 -3.7125  2.1146
   88SOPE  H16S 8320   2.291   5.801   6.136  0.9298 -1.4174 -1.0299
   88SOPE  C217 8321   2.443   5.748   6.273 -0.3919  0.2392  0.2329
   88SOPE  H17R 8322   2.412   5.816   6.356 -0.2713 -0.8247  1.1682
   88SOPE  H17S 8323   2.554   5.756   6.284 -0.3811 -0.5691  0.8524
   88SOPE  C218 8324   2.393   5.613   6.292  0.5231 -0.1631  0.3482
   88SOPE  H18R 8325   2.282   5.608   6.294  0.5835 -1.6051  1.9629
   88SOPE  H18S 8326   2.419   5.575   6.393 -3.1959  0.2187  1.5908
   88SOPE  H18T 8327   2.438   5.546   6.217  1.2455  0.4629  0.2064
   88SOPE   C33 8328   2.989   6.069   4.992  0.1140 -0.2738  0.4174
   88SOPE   H3X 8329   2.933   6.004   5.062 -1.2068  2.5246  2.1467
   88SOPE   H3Y 8330   2.931   6.164   4.997  3.3654  1.8539  0.8070
   88SOPE   C34 8331   3.135   6.087   5.049  0.1230 -0.0291 -0.1618
   88SOPE   H4X 8332   3.195   6.159   4.989  1.6099  0.5488  1.9192
   88SOPE   H4Y 8333   3.196   5.996   5.032  0.2762 -0.5980  2.9179
   88SOPE   C35 8334   3.136   6.137   5.200  0.9839  0.3983 -0.1791
   88SOPE   H5X 8335   3.075   6.229   5.190  0.5446  0.6151  3.2362
   88SOPE   H5Y 8336   3.234   6.169   5.241  2.0991 -1.7899 -1.0286
   88SOPE   C36 8337   3.051   6.049   5.299  0.0746  0.4761  0.7378
   88SOPE   H6X 8338   3.103   5.951   5.302  2.3827  1.6170  0.6808
   88SOPE   H6Y 8339   2.947   6.040   5.262  0.3681  1.4507 -0.3851
   88SOPE   C37 8340   3.036   6.099   5.438  0.0363  0.0909  0.6239
   88SOPE   H7X 8341   2.966   6.032   5.492  0.4401 -0.8137  0.0538
   88SOPE   H7Y 8342   2.989   6.200   5.434  0.9100  0.4546 -1.1358
   88SOPE   C38 8343   3.167   6.112   5.522 -0.2663 -0.7930  1.0322
   88SOPE   H8X 8344   3.194   6.217   5.496 -0.7899 -0.2830  2.4330
   88SOPE   H8Y 8345   3.251   6.050   5.483 -1.2075 -1.4984  0.0846
   88SOPE   C39 8346   3.138   6.105   5.668 -0.5777 -0.6461 -0.2904
   88SOPE   H9X 8347   3.099   6.005   5.697  0.9010 -0.8708  1.0749
   88SOPE   H9Y 8348   3.048   6.170   5.674 -1.3468 -1.2959 -3.1339
   88SOPE  C310 8349   3.242   6.149   5.772  0.4464  1.0347 -0.3855
   88SOPE  H10X 8350   3.269   6.255   5.749  0.3339  1.0685 -0.3618
   88SOPE  H10Y 8351   3.336   6.092   5.752  1.2046  0.8887  3.0560
   88SOPE  C311 8352   3.207   6.115   5.922 -0.5095  0.5196  0.7269
   88SOPE  H11X 8353   3.182   6.009   5.941 -2.2025  0.9351  0.9329
   88SOPE  H11Y 8354   3.116   6.175   5.942  0.1367  2.0951 -0.8267
   88SOPE  C312 8355   3.312   6.164   6.021  0.2635 -0.1769  0.1296
   88SOPE  H12X 8356   3.300   6.274   6.025 -2.0630 -0.4280  2.4899
   88SOPE  H12Y 8357   3.422   6.159   6.006  0.8298 -0.4094  3.5539
   88SOPE  C313 8358   3.287   6.121   6.166  0.1759 -0.7290 -0.4893
   88SOPE  H13X 8359   3.282   6.010   6.169  1.1344 -0.7748 -0.1969
   88SOPE  H13Y 8360   3.188   6.162   6.194  1.5335  0.7666  2.6671
   88SOPE  C314 8361   3.382   6.159   6.273 -0.1004 -0.1116 -0.0895
   88SOPE  H14X 8362   3.394   6.269   6.270 -2.2381  0.1733  0.1377
   88SOPE  H14Y 8363   3.475   6.101   6.256 -0.1878 -0.2963  0.0598
   88SOPE  C315 8364   3.337   6.122   6.417 -0.3793 -0.0011  0.5580
   88SOPE  H15X 8365   3.301   6.017   6.411 -0.1869 -0.0751  0.6854
   88SOPE  H15Y 8366   3.251   6.188   6.439  1.1753  1.3487  2.8887
   88SOPE  C316 8367   3.438   6.163   6.531  0.1647  0.0736 -0.4055
   88SOPE  H16X 8368   3.486   6.260   6.506  2.2994 -0.8503 -0.1065
   88SOPE  H16Y 8369   3.517   6.085   6.543 -0.6094 -0.2709  3.9013
   88SOPE  C317 8370   3.378   6.191   6.671  0.6893 -0.2551 -0.2079
   88SOPE  H17X 8371   3.345   6.093   6.714  2.1188 -0.3989  0.6382
   88SOPE  H17Y 8372   3.290   6.258   6.667  0.2796 -0.7330  0.4323
   88SOPE  C318 8373   3.476   6.248   6.775  0.4113  0.5192  0.4798
   88SOPE  H18X 8374   3.434   6.256   6.878  0.0046  1.5951  0.2420
   88SOPE  H18Y 8375   3.516   6.348   6.749  0.0085  1.0654  1.8463
   88SOPE  H18Z 8376   3.566   6.185   6.789  0.7334  0.9547  0.4085
   89SAPC     N 8377   6.915   0.032   0.330  0.1524  0.2068 -0.3263
   89SAPC   C12 8378   6.855  -0.087   0.264  0.1000 -0.2807 -0.2557
   89SAPC  H12A 8379   6.872  -0.168   0.333 -0.4318 -0.5132 -0.3959
   89SAPC  H12B 8380   6.901  -0.102   0.168  0.7315  0.2251 -0.0425
   89SAPC   C13 8381   6.862   0.161   0.276 -0.2766  0.2453 -0.3222
   89SAPC  H13A 8382   6.756   0.164   0.297  0.0147 -2.2321  2.0735
   89SAPC  H13B 8383   6.898   0.254   0.318 -3.6480  2.3742 -1.7141
   89SAPC  H13C 8384   6.874   0.169   0.169 -0.1252 -0.6874 -0.3817
   89SAPC   C14 8385   6.881   0.054   0.472 -0.6142  0.1745 -0.3127
   89SAPC  H14A 8386   6.908  -0.032   0.533  0.5773  1.0725  0.4737
   89SAPC  H14B 8387   6.936   0.140   0.507  1.6424 -1.7914  1.4094
   89SAPC  H14C 8388   6.776   0.076   0.482 -0.6293  0.5440 -1.1887
   89SAPC   C15 8389   7.068   0.029   0.319  1.3681  0.8522  0.1214
   89SAPC  H15A 8390   7.110   0.064   0.226  0.8007  2.1079  0.3159
   89SAPC  H15B 8391   7.117   0.075   0.403  1.3933 -0.0841  0.6295
   89SAPC  H15C 8392   7.097  -0.073   0.337  0.3454  0.6445  0.6751
   89SAPC   C11 8393   6.704  -0.083   0.238 -0.2312  0.4681  0.1243
   89SAPC  H11A 8394   6.684  -0.001   0.166 -1.2919  0.6641  0.6141
   89SAPC  H11B 8395   6.648  -0.051   0.329 -0.5148 -1.6206  0.7450
   89SAPC     P 8396   6.536  -0.235   0.107  0.1664  0.1057 -0.0145
   89SAPC   O13 8397   6.516  -0.384   0.091 -0.0472 -0.8530  0.0032
   89SAPC   O14 8398   6.427  -0.158   0.177  0.0381 -0.1516 -0.3524
   89SAPC   O12 8399   6.665  -0.214   0.193 -0.0693 -0.4262  0.4726
   89SAPC   O11 8400   6.586  -0.170  -0.029  0.0180  0.2088 -0.1802
   89SAPC    C1 8401   6.540  -0.048  -0.079  0.9732  0.1346  0.5133
   89SAPC    HA 8402   6.488   0.004   0.004  0.5518 -0.5221  0.6731
   89SAPC    HB 8403   6.622   0.020  -0.107  0.8669 -0.5389 -1.6068
   89SAPC    C2 8404   6.430  -0.064  -0.200  0.1799  0.4024  0.4185
   89SAPC    HS 8405   6.376   0.033  -0.209 -2.2679 -0.8564  0.7969
   89SAPC   O21 8406   6.341  -0.174  -0.178  0.2991 -0.2638 -0.0967
   89SAPC   C21 8407   6.225  -0.148  -0.111 -0.2968 -0.6739 -0.5452
   89SAPC   O22 8408   6.183  -0.039  -0.074  0.1641  0.3574  0.5354
   89SAPC   C22 8409   6.145  -0.271  -0.104  0.6539  0.3367 -0.1216
   89SAPC   H2R 8410   6.220  -0.352  -0.094  0.4959  0.0482 -1.0721
   89SAPC   H2S 8411   6.091  -0.273  -0.007  0.1436  0.2838 -0.4033
   89SAPC    C3 8412   6.503  -0.096  -0.330  0.1005 -0.5102  0.2525
   89SAPC    HX 8413   6.556  -0.192  -0.311  0.6345 -0.4877 -1.0144
   89SAPC    HY 8414   6.589  -0.030  -0.351 -0.2775  0.9326  2.8656
   89SAPC   O31 8415   6.409  -0.092  -0.445  0.2416  0.0093 -0.4008
   89SAPC   C31 8416   6.383  -0.206  -0.512 -0.8958 -0.2089  0.3375
   89SAPC   O32 8417   6.417  -0.313  -0.477  0.7486 -0.1067 -0.0128
   89SAPC   C32 8418   6.305  -0.179  -0.643 -0.7099 -0.6872 -0.4675
   89SAPC   H2X 8419   6.342  -0.081  -0.678 -0.8934 -0.7314 -0.7867
   89SAPC   H2Y 8420   6.200  -0.175  -0.608 -0.5400  0.7674 -0.0891
   89SAPC   C23 8421   6.045  -0.283  -0.225 -0.6585 -0.1517  0.2069
   89SAPC   H3R 8422   6.061  -0.209  -0.306 -0.6552  2.1759  2.2284
   89SAPC   H3S 8423   5.946  -0.251  -0.187 -1.6071 -0.7741 -1.6181
   89SAPC   C24 8424   6.018  -0.422  -0.277 -0.3259  0.1935  0.0586
   89SAPC   H4R 8425   5.996  -0.483  -0.186 -1.2915  0.1357 -0.1957
   89SAPC   H4S 8426   6.103  -0.462  -0.335  1.0763  0.2602  1.9594
   89SAPC   C25 8427   5.889  -0.423  -0.364 -0.5522  0.0847  0.9300
   89SAPC   H5R 8428   5.804  -0.452  -0.300  0.8558 -0.6330  2.5145
   89SAPC   C26 8429   5.874  -0.417  -0.502 -0.3237  0.2395 -0.8208
   89SAPC   H6R 8430   5.773  -0.439  -0.539 -0.9854 -0.2043  1.1220
   89SAPC   C27 8431   5.979  -0.402  -0.609 -0.3808  0.2671 -0.7133
   89SAPC   H7R 8432   6.073  -0.444  -0.567  0.3970  3.6225  1.2749
   89SAPC   H7S 8433   5.996  -0.293  -0.623  0.0637  0.0876 -1.6377
   89SAPC   C28 8434   5.931  -0.473  -0.738  0.5305  0.3777  0.5215
   89SAPC   H8R 8435   5.943  -0.582  -0.729  3.3958  0.7111  2.0913
   89SAPC   C29 8436   5.898  -0.419  -0.855  0.2540  0.1025 -0.0238
   89SAPC   H9R 8437   5.854  -0.493  -0.923  0.3367 -0.9746  1.0589
   89SAPC  C210 8438   5.882  -0.271  -0.891  0.5667 -0.1837 -0.4148
   89SAPC  H10R 8439   5.868  -0.273  -1.001 -0.2115 -0.1318 -0.3244
   89SAPC  H10S 8440   5.978  -0.218  -0.869  0.2827 -0.0401  0.5363
   89SAPC  C211 8441   5.769  -0.186  -0.828 -0.0309 -0.2874 -0.2928
   89SAPC  H11R 8442   5.752  -0.204  -0.721  1.1395  0.1480 -0.0274
   89SAPC  C212 8443   5.689  -0.090  -0.888 -0.9109  0.2254  0.1022
   89SAPC  H12R 8444   5.612  -0.037  -0.831 -1.3134  0.8355 -0.9848
   89SAPC  C213 8445   5.693  -0.053  -1.035 -0.5695  0.0925 -0.0775
   89SAPC  H13R 8446   5.590  -0.032  -1.069 -0.5906 -0.4421 -0.3472
   89SAPC  H13S 8447   5.720  -0.147  -1.088  0.2527 -0.3114  0.9958
   89SAPC  C214 8448   5.786   0.049  -1.096 -0.6020  0.4161 -0.1603
   89SAPC  H14R 8449   5.871   0.070  -1.029  1.1643 -1.4747 -1.6884
   89SAPC  C215 8450   5.778   0.120  -1.214  0.4277 -0.1682 -0.0055
   89SAPC  H15R 8451   5.866   0.181  -1.239  1.4381 -0.8724  1.6319
   89SAPC  C216 8452   5.674   0.115  -1.326  0.5362 -0.0554 -0.1894
   89SAPC  H16R 8453   5.639   0.220  -1.335  0.6904 -0.0748 -1.1142
   89SAPC  H16S 8454   5.589   0.045  -1.314 -0.8610  1.6122  0.0474
   89SAPC  C217 8455   5.750   0.083  -1.455 -0.2181  0.2640  0.2203
   89SAPC  H17R 8456   5.770  -0.026  -1.453  0.1951  0.3399  0.3668
   89SAPC  H17S 8457   5.848   0.136  -1.460  1.3912 -2.6287 -1.3206
   89SAPC  C218 8458   5.667   0.112  -1.582 -0.2894  0.1786  0.2141
   89SAPC  H18R 8459   5.623   0.213  -1.566 -1.0870 -0.2010  0.4765
   89SAPC  H18S 8460   5.579   0.044  -1.582  0.3402 -0.6622  1.3232
   89SAPC  C219 8461   5.760   0.099  -1.709 -0.2624 -1.0578  0.8257
   89SAPC  H19R 8462   5.832   0.183  -1.712 -0.2587 -1.0619 -2.0836
   89SAPC  H19S 8463   5.693   0.118  -1.797 -0.2339  1.1844  1.2347
   89SAPC  C220 8464   5.854  -0.015  -1.710 -0.0267  0.7666  1.1631
   89SAPC  H20R 8465   5.781  -0.098  -1.725 -1.9057  2.7952 -2.1606
   89SAPC  H20S 8466   5.902  -0.031  -1.611  0.4710  1.5538  1.0570
   89SAPC  H20T 8467   5.928   0.001  -1.791 -0.8420  3.0093  0.7860
   89SAPC   C33 8468   6.334  -0.289  -0.748  0.0122  0.0120 -0.4157
   89SAPC   H3X 8469   6.326  -0.394  -0.712  2.5837  0.7083  2.6478
   89SAPC   H3Y 8470   6.434  -0.266  -0.791 -0.4167  0.3539 -1.2437
   89SAPC   C34 8471   6.249  -0.275  -0.872 -0.5100  0.9157  0.4367
   89SAPC   H4X 8472   6.143  -0.286  -0.841 -0.8479 -0.9205 -1.1652
   89SAPC   H4Y 8473   6.273  -0.359  -0.940  0.6575  0.4371  1.4056
   89SAPC   C35 8474   6.282  -0.142  -0.939 -1.0009 -0.6357  0.1475
   89SAPC   H5X 8475   6.387  -0.150  -0.974 -0.7072  1.0613  0.5199
   89SAPC   H5Y 8476   6.274  -0.053  -0.873  0.6932 -0.2183 -0.1735
   89SAPC   C36 8477   6.203  -0.122  -1.062  0.2462  0.1707 -0.2844
   89SAPC   H6X 8478   6.222  -0.016  -1.091  1.7238  0.0595  0.1959
   89SAPC   H6Y 8479   6.095  -0.121  -1.039  0.1594 -1.8032 -0.4500
   89SAPC   C37 8480   6.228  -0.223  -1.176 -0.1046  0.5642 -0.6110
   89SAPC   H7X 8481   6.217  -0.325  -1.134  0.9567  1.4269  1.9810
   89SAPC   H7Y 8482   6.336  -0.223  -1.202  0.2055  0.7918  0.5789
   89SAPC   C38 8483   6.127  -0.204  -1.293 -0.0696  0.4652  0.6875
   89SAPC   H8X 8484   6.029  -0.246  -1.264  0.1062 -0.6787 -0.2925
   89SAPC   H8Y 8485   6.161  -0.264  -1.380  2.0208 -0.0534  1.7926
   89SAPC   C39 8486   6.109  -0.055  -1.342 -0.1079 -0.2965  0.6561
   89SAPC   H9X 8487   6.076   0.007  -1.255  2.6187  0.9343  0.9117
   89SAPC   H9Y 8488   6.019  -0.059  -1.408 -1.7421  1.7955  2.6033
   89SAPC  C310 8489   6.234   0.005  -1.421  0.9364  0.0017  0.0018
   89SAPC  H10X 8490   6.321  -0.018  -1.356  2.2441  1.0778 -1.3073
   89SAPC  H10Y 8491   6.213   0.114  -1.418  1.3342  0.2543 -3.1064
   89SAPC  C311 8492   6.246  -0.047  -1.562  0.1500 -0.0803 -0.3444
   89SAPC  H11X 8493   6.141  -0.029  -1.593 -0.0124 -0.4793 -0.0313
   89SAPC  H11Y 8494   6.262  -0.156  -1.555 -1.0707 -0.1860  1.2293
   89SAPC  C312 8495   6.332   0.036  -1.660 -0.0066 -0.5343 -0.7534
   89SAPC  H12X 8496   6.433   0.060  -1.622  0.1889  1.4399 -2.3715
   89SAPC  H12Y 8497   6.288   0.137  -1.672  3.1936  0.8510 -1.9668
   89SAPC  C313 8498   6.345  -0.016  -1.802 -0.0578 -0.9038 -0.1858
   89SAPC  H13X 8499   6.405  -0.109  -1.811  1.0382 -0.2538  0.2218
   89SAPC  H13Y 8500   6.410   0.054  -1.859 -0.2286 -1.2649 -0.8271
   89SAPC  C314 8501   6.210  -0.034  -1.870  0.3323 -0.1106  0.2162
   89SAPC  H14X 8502   6.152   0.059  -1.855 -0.2126 -0.4681  0.3789
   89SAPC  H14Y 8503   6.156  -0.106  -1.804  0.2139  0.9656  1.3403
   89SAPC  C315 8504   6.216  -0.080  -2.016 -0.1620  0.3233 -0.2891
   89SAPC  H15X 8505   6.289  -0.164  -2.016  1.2429  1.5039  0.5800
   89SAPC  H15Y 8506   6.260  -0.003  -2.083 -1.2046  2.0714  0.9577
   89SAPC  C316 8507   6.084  -0.136  -2.073  0.7160 -0.6479  0.3724
   89SAPC  H16X 8508   6.095  -0.155  -2.182  0.0609  0.3577  0.1095
   89SAPC  H16Y 8509   6.000  -0.063  -2.068 -1.0381 -2.6070  0.9049
   89SAPC  C317 8510   6.047  -0.276  -2.010 -0.3672 -0.5456  0.7664
   89SAPC  H17X 8511   6.026  -0.267  -1.901  1.2844  2.3258  0.9585
   89SAPC  H17Y 8512   6.129  -0.349  -2.028 -1.0371 -0.8281 -1.3400
   89SAPC  C318 8513   5.916  -0.316  -2.076  1.0978 -0.5233 -0.1966
   89SAPC  H18X 8514   5.864  -0.402  -2.029 -2.3910  0.2872 -2.2152
   89SAPC  H18Y 8515   5.930  -0.336  -2.184  3.3988  1.3876 -0.3534
   89SAPC  H18Z 8516   5.837  -0.239  -2.062 -0.0993 -1.8364  0.4049
   90SAPC     N 8517   3.762   3.675   0.398  0.1516 -0.1934 -0.3347
   90SAPC   C12 8518   3.681   3.736   0.285  0.0015 -0.4677 -0.9445
   90SAPC  H12A 8519   3.647   3.834   0.313  0.8763 -0.5976  0.7153
   90SAPC  H12B 8520   3.590   3.678   0.277 -0.5739  0.1486  0.6943
   90SAPC   C13 8521   3.767   3.529   0.366  0.1886 -1.0905  0.1952
   90SAPC  H13A 8522   3.813   3.509   0.271 -2.3394 -1.9981 -0.9316
   90SAPC  H13B 8523   3.827   3.470   0.434  0.8753  0.0580  0.6135
   90SAPC  H13C 8524   3.666   3.492   0.378 -0.5633  0.7852  0.0012
   90SAPC   C14 8525   3.896   3.739   0.405 -0.2299 -0.1693 -0.2886
   90SAPC  H14A 8526   3.945   3.742   0.309  0.0405 -1.9960 -0.2507
   90SAPC  H14B 8527   3.874   3.843   0.420 -2.3274 -0.6011 -0.0243
   90SAPC  H14C 8528   3.945   3.712   0.498 -0.6512 -1.5318 -0.4361
   90SAPC   C15 8529   3.684   3.693   0.526  0.7821 -0.0141  0.5263
   90SAPC  H15A 8530   3.595   3.633   0.535 -0.0495  0.4705 -3.1028
   90SAPC  H15B 8531   3.749   3.668   0.609  1.1670 -1.3026 -0.1313
   90SAPC  H15C 8532   3.653   3.796   0.526  0.8174  0.0048 -0.4994
   90SAPC   C11 8533   3.755   3.736   0.147 -0.3165  0.2400  0.3243
   90SAPC  H11A 8534   3.686   3.745   0.061 -0.8164  1.7351  0.8487
   90SAPC  H11B 8535   3.809   3.639   0.136  1.9736  1.6778 -2.5753
   90SAPC     P 8536   3.813   3.979   0.118 -0.3944 -0.2904  0.2720
   90SAPC   O13 8537   3.685   4.004   0.190  0.4887  0.5922  0.3663
   90SAPC   O14 8538   3.924   4.078   0.128  0.4578  0.6115  0.0026
   90SAPC   O12 8539   3.865   3.834   0.136  0.3083  0.5498 -0.3355
   90SAPC   O11 8540   3.785   3.981  -0.037  0.3965 -0.1955 -0.5845
   90SAPC    C1 8541   3.654   3.948  -0.090  0.5956 -0.5794  0.0235
   90SAPC    HA 8542   3.664   3.848  -0.139  0.4735 -0.5135 -0.1359
   90SAPC    HB 8543   3.568   3.946  -0.020 -1.2610  1.3176 -2.0188
   90SAPC    C2 8544   3.609   4.042  -0.203  0.3214 -0.8593  0.0138
   90SAPC    HS 8545   3.512   4.004  -0.243 -1.3436  0.9707  2.0540
   90SAPC   O21 8546   3.720   4.053  -0.293 -0.5280 -0.1323 -0.4220
   90SAPC   C21 8547   3.706   3.979  -0.403 -0.0773 -0.7121 -0.4938
   90SAPC   O22 8548   3.624   3.890  -0.422 -0.1793  1.0342 -0.5691
   90SAPC   C22 8549   3.819   4.007  -0.507  0.0137 -0.4942  0.5944
   90SAPC   H2R 8550   3.863   4.107  -0.486  0.2735 -0.1395 -1.4423
   90SAPC   H2S 8551   3.894   3.928  -0.485 -1.8647 -2.1354  1.3545
   90SAPC    C3 8552   3.572   4.186  -0.149 -0.0754 -0.4206  0.1722
   90SAPC    HX 8553   3.668   4.223  -0.105 -1.1981  0.8492  1.6754
   90SAPC    HY 8554   3.494   4.198  -0.071  1.8366 -1.0860  2.2840
   90SAPC   O31 8555   3.519   4.270  -0.263  0.3160 -0.1387  0.7168
   90SAPC   C31 8556   3.614   4.347  -0.324 -0.1679 -0.1171  0.1303
   90SAPC   O32 8557   3.734   4.343  -0.298  0.1257 -0.1770 -0.9215
   90SAPC   C32 8558   3.543   4.440  -0.424  0.0852  0.0228 -0.0637
   90SAPC   H2X 8559   3.620   4.477  -0.494 -0.6463  0.5463 -0.6123
   90SAPC   H2Y 8560   3.503   4.526  -0.365  1.4367  0.1915  0.6422
   90SAPC   C23 8561   3.767   3.997  -0.655 -1.0081  0.2403 -0.5118
   90SAPC   H3R 8562   3.851   4.028  -0.720  0.9957  2.0123  2.6433
   90SAPC   H3S 8563   3.670   4.047  -0.675 -2.1543 -0.4273  2.7582
   90SAPC   C24 8564   3.744   3.845  -0.696 -0.4445 -0.7041 -0.5439
   90SAPC   H4R 8565   3.705   3.793  -0.606 -0.0650  0.8380  0.5467
   90SAPC   H4S 8566   3.845   3.803  -0.715 -0.7799 -0.0052 -4.9736
   90SAPC   C25 8567   3.658   3.826  -0.815 -0.7251  0.6331  0.4325
   90SAPC   H5R 8568   3.554   3.847  -0.784 -0.1654  4.0320  0.4236
   90SAPC   C26 8569   3.689   3.799  -0.944 -0.4039 -0.0809  0.2579
   90SAPC   H6R 8570   3.607   3.778  -1.016  0.4492 -0.2353 -0.6905
   90SAPC   C27 8571   3.831   3.776  -0.997 -0.0120  0.6098  0.2832
   90SAPC   H7R 8572   3.825   3.692  -1.069 -3.0504  0.7401  0.2738
   90SAPC   H7S 8573   3.898   3.733  -0.919 -1.2429 -1.6369  0.1976
   90SAPC   C28 8574   3.889   3.896  -1.066  0.0119  0.5635  0.2638
   90SAPC   H8R 8575   3.935   3.969  -0.997 -0.0614  1.4796 -0.6385
   90SAPC   C29 8576   3.860   3.928  -1.194  0.1017  0.4567  0.3644
   90SAPC   H9R 8577   3.901   4.023  -1.231 -0.1580  1.5071  2.6315
   90SAPC  C210 8578   3.773   3.857  -1.291 -0.5256  0.3104 -0.1363
   90SAPC  H10R 8579   3.690   3.804  -1.241 -2.3741  2.6025 -0.5905
   90SAPC  H10S 8580   3.841   3.784  -1.338  0.0873  1.6257 -1.3798
   90SAPC  C211 8581   3.714   3.954  -1.393  0.5105  1.0801 -0.7241
   90SAPC  H11R 8582   3.655   4.039  -1.353  2.9682  2.0119  1.1825
   90SAPC  C212 8583   3.725   3.948  -1.526 -0.6298 -0.6168  0.5603
   90SAPC  H12R 8584   3.680   4.024  -1.591  1.6255 -1.5642 -2.3162
   90SAPC  C213 8585   3.807   3.847  -1.603  0.5871  0.9935  0.3240
   90SAPC  H13R 8586   3.815   3.757  -1.537  0.3691 -0.1855 -1.1909
   90SAPC  H13S 8587   3.900   3.893  -1.642  0.2781  0.5556 -0.9807
   90SAPC  C214 8588   3.714   3.798  -1.715 -0.0985  0.3109  0.2526
   90SAPC  H14R 8589   3.669   3.701  -1.689 -0.2608  0.1464 -0.6240
   90SAPC  C215 8590   3.691   3.855  -1.833  1.1444 -0.1974 -0.0007
   90SAPC  H15R 8591   3.632   3.796  -1.905  0.1907  1.5526 -0.7035
   90SAPC  C216 8592   3.728   3.990  -1.886 -0.1216 -0.0454  0.4638
   90SAPC  H16R 8593   3.812   4.035  -1.829 -1.9283  1.8057  1.8352
   90SAPC  H16S 8594   3.645   4.060  -1.860 -0.6205 -0.7834  0.8928
   90SAPC  C217 8595   3.760   3.995  -2.037  0.1861 -0.6745  1.0633
   90SAPC  H17R 8596   3.849   3.936  -2.066  0.0130 -0.4623  0.0736
   90SAPC  H17S 8597   3.793   4.094  -2.075 -1.7429 -0.8422 -1.3198
   90SAPC  C218 8598   3.636   3.972  -2.131  0.6862 -0.1081  0.1796
   90SAPC  H18R 8599   3.565   4.052  -2.102  1.6506  0.5403  0.7892
   90SAPC  H18S 8600   3.588   3.875  -2.103 -0.4305  0.1865 -0.6388
   90SAPC  C219 8601   3.662   3.992  -2.277  0.1157  0.4076 -0.2532
   90SAPC  H19R 8602   3.722   3.905  -2.311 -1.3962 -0.6528 -0.2984
   90SAPC  H19S 8603   3.721   4.081  -2.309  1.9835 -1.2888 -1.7837
   90SAPC  C220 8604   3.530   3.989  -2.359  0.3203 -0.1372  0.3717
   90SAPC  H20R 8605   3.516   4.084  -2.415 -2.1021 -0.6640 -0.0472
   90SAPC  H20S 8606   3.449   3.989  -2.282 -0.9289  1.3975 -0.8712
   90SAPC  H20T 8607   3.533   3.899  -2.425 -2.0551  0.1711 -0.2836
   90SAPC   C33 8608   3.424   4.378  -0.507  0.4243 -0.2382  0.2598
   90SAPC   H3X 8609   3.376   4.464  -0.557  1.2159 -0.3943 -0.8150
   90SAPC   H3Y 8610   3.358   4.308  -0.451 -0.1758 -2.2102 -2.6718
   90SAPC   C34 8611   3.477   4.293  -0.622 -0.4538 -0.3809  0.2984
   90SAPC   H4X 8612   3.547   4.219  -0.578 -1.0719 -1.7312 -0.9337
   90SAPC   H4Y 8613   3.541   4.359  -0.684 -0.5775  2.3030  2.7613
   90SAPC   C35 8614   3.375   4.220  -0.712 -0.0278 -0.4049  0.5659
   90SAPC   H5X 8615   3.287   4.286  -0.730 -1.4571 -2.4736 -0.5543
   90SAPC   H5Y 8616   3.323   4.137  -0.658  0.4348 -2.1022 -1.4476
   90SAPC   C36 8617   3.432   4.179  -0.852  0.7024  0.2327 -0.3327
   90SAPC   H6X 8618   3.536   4.144  -0.837  0.7090  0.1407 -0.5757
   90SAPC   H6Y 8619   3.438   4.263  -0.924  1.9181 -0.7295 -1.3956
   90SAPC   C37 8620   3.350   4.056  -0.903 -0.4491 -0.3012 -0.5062
   90SAPC   H7X 8621   3.243   4.086  -0.899 -0.9963 -2.2687  1.1910
   90SAPC   H7Y 8622   3.370   3.973  -0.833 -2.2928 -0.3195  0.0686
   90SAPC   C38 8623   3.391   4.015  -1.049  0.1467 -0.2897  0.4446
   90SAPC   H8X 8624   3.500   3.996  -1.038 -0.2565 -1.3188  3.7673
   90SAPC   H8Y 8625   3.375   4.105  -1.112  3.4982  0.1604  0.0819
   90SAPC   C39 8626   3.318   3.888  -1.100  0.1523 -0.3410  0.5612
   90SAPC   H9X 8627   3.325   3.820  -1.012 -0.9206 -0.6942  0.3959
   90SAPC   H9Y 8628   3.369   3.849  -1.190 -2.0908  0.9908 -1.4107
   90SAPC  C310 8629   3.172   3.895  -1.145  0.2517  0.3972  0.0378
   90SAPC  H10X 8630   3.174   3.975  -1.222 -0.6430  1.1683  0.7735
   90SAPC  H10Y 8631   3.109   3.922  -1.058  0.9449  0.5774  0.4861
   90SAPC  C311 8632   3.131   3.759  -1.201 -0.4665 -0.1713 -0.9262
   90SAPC  H11X 8633   3.150   3.679  -1.126  0.2249  1.3383  0.5599
   90SAPC  H11Y 8634   3.195   3.730  -1.286  1.3307 -0.5980  0.5039
   90SAPC  C312 8635   2.985   3.748  -1.243  0.1793  0.3634  0.5036
   90SAPC  H12X 8636   2.943   3.838  -1.293  0.9170  0.6339  0.3737
   90SAPC  H12Y 8637   2.924   3.741  -1.150  0.7150  1.2712  0.9333
   90SAPC  C313 8638   2.954   3.617  -1.326 -0.6373 -0.3726  0.3072
   90SAPC  H13X 8639   2.985   3.632  -1.432  1.6979 -0.4591  0.9159
   90SAPC  H13Y 8640   2.844   3.607  -1.315 -0.7719  0.7257  0.0905
   90SAPC  C314 8641   3.017   3.485  -1.284  0.0689 -0.6024 -0.2373
   90SAPC  H14X 8642   2.998   3.478  -1.175 -1.5358  0.8060 -0.3885
   90SAPC  H14Y 8643   3.127   3.494  -1.296  0.3127 -0.5625  1.8145
   90SAPC  C315 8644   2.976   3.359  -1.352  0.1156  0.3905  0.9421
   90SAPC  H15X 8645   2.866   3.344  -1.344 -0.0469  1.4693  0.8793
   90SAPC  H15Y 8646   3.026   3.270  -1.308  0.0921 -1.3390 -2.2043
   90SAPC  C316 8647   3.016   3.361  -1.502 -0.4624  0.3589 -0.3208
   90SAPC  H16X 8648   3.123   3.389  -1.509 -0.0537 -1.0494 -0.0402
   90SAPC  H16Y 8649   2.970   3.446  -1.556  1.1261  0.3360 -1.7841
   90SAPC  C317 8650   2.998   3.223  -1.561  0.1622 -0.3943 -0.3086
   90SAPC  H17X 8651   2.889   3.205  -1.571  0.2094 -0.8288 -0.0901
   90SAPC  H17Y 8652   3.042   3.139  -1.503  1.0753  1.0362  1.1726
   90SAPC  C318 8653   3.064   3.214  -1.696 -0.1813  0.2587  0.6556
   90SAPC  H18X 8654   3.045   3.117  -1.745 -0.8731  0.0860  1.2583
   90SAPC  H18Y 8655   3.175   3.212  -1.687  0.0274  0.9376 -1.2034
   90SAPC  H18Z 8656   3.027   3.288  -1.771  0.8110 -0.5732 -0.7117
   91SAPC     N 8657   1.542   2.880   0.548  1.6134  0.8010  0.6554
   91SAPC   C12 8658   1.643   2.815   0.448 -0.3421  0.0602  0.0806
   91SAPC  H12A 8659   1.693   2.730   0.491  1.0663  0.4357 -0.7380
   91SAPC  H12B 8660   1.719   2.891   0.437 -1.9984  1.8559  0.3404
   91SAPC   C13 8661   1.493   3.004   0.498 -0.0500 -0.1592  0.1204
   91SAPC  H13A 8662   1.397   3.036   0.534  0.6211  0.1233  1.7372
   91SAPC  H13B 8663   1.562   3.082   0.528 -0.7386  0.5534 -0.0964
   91SAPC  H13C 8664   1.501   3.009   0.390  0.6036 -0.3259  0.1543
   91SAPC   C14 8665   1.417   2.792   0.564 -0.2435  0.1224  0.7551
   91SAPC  H14A 8666   1.437   2.693   0.603 -0.7368 -0.8277 -1.2630
   91SAPC  H14B 8667   1.357   2.840   0.639 -2.7697 -1.8440  0.1067
   91SAPC  H14C 8668   1.376   2.792   0.464  0.2195 -0.3851  0.5592
   91SAPC   C15 8669   1.588   2.889   0.691 -0.0178 -0.1652 -1.3924
   91SAPC  H15A 8670   1.515   2.917   0.765  1.9220  1.4243  0.0456
   91SAPC  H15B 8671   1.631   2.794   0.719  1.5979  0.6555 -0.9635
   91SAPC  H15C 8672   1.674   2.955   0.695 -0.1056 -0.0149 -1.9199
   91SAPC   C11 8673   1.596   2.774   0.301  0.4143 -0.0081 -0.3362
   91SAPC  H11A 8674   1.561   2.669   0.297 -0.1454  0.1885 -0.7851
   91SAPC  H11B 8675   1.688   2.781   0.240 -0.2986  2.1924 -1.2465
   91SAPC     P 8676   1.386   2.818   0.145  0.2568 -0.2945 -0.0043
   91SAPC   O13 8677   1.351   2.676   0.161  0.8031  0.0730  0.4758
   91SAPC   O14 8678   1.273   2.912   0.151  0.0715  0.0812 -0.1070
   91SAPC   O12 8679   1.500   2.856   0.244  0.5330 -0.1702 -0.0094
   91SAPC   O11 8680   1.452   2.831   0.009  0.1947  0.0752 -0.4293
   91SAPC    C1 8681   1.586   2.804  -0.028 -0.2494  0.1997 -0.2579
   91SAPC    HA 8682   1.646   2.897  -0.030  1.3035 -0.7781 -1.0226
   91SAPC    HB 8683   1.627   2.734   0.048  0.5668  1.6298  0.6732
   91SAPC    C2 8684   1.604   2.726  -0.158  0.2278 -0.1792  0.3453
   91SAPC    HS 8685   1.709   2.727  -0.196  0.4552  0.1918  0.9702
   91SAPC   O21 8686   1.520   2.772  -0.266  0.0456 -0.0327  0.2519
   91SAPC   C21 8687   1.530   2.892  -0.305 -0.1486 -0.5421  0.4585
   91SAPC   O22 8688   1.602   2.981  -0.263 -0.2745 -0.0604  0.3396
   91SAPC   C22 8689   1.432   2.906  -0.427 -0.1307  0.0247 -0.0470
   91SAPC   H2R 8690   1.482   2.850  -0.508 -1.5464 -1.4048  0.0204
   91SAPC   H2S 8691   1.335   2.856  -0.408 -0.2331  0.6220  1.1411
   91SAPC    C3 8692   1.568   2.576  -0.130 -0.3159 -0.2145 -0.1797
   91SAPC    HX 8693   1.485   2.581  -0.057  1.6483  0.0807  2.1610
   91SAPC    HY 8694   1.656   2.535  -0.075  1.3858  1.1758 -1.7019
   91SAPC   O31 8695   1.529   2.510  -0.252 -0.2814 -0.3295  0.0890
   91SAPC   C31 8696   1.636   2.454  -0.319 -0.4355 -0.2357 -0.3768
   91SAPC   O32 8697   1.749   2.450  -0.284 -0.1469 -0.4433 -0.1179
   91SAPC   C32 8698   1.586   2.409  -0.453 -0.5413  0.2154  0.3200
   91SAPC   H2X 8699   1.510   2.335  -0.420 -0.0290 -0.8275 -0.7564
   91SAPC   H2Y 8700   1.669   2.357  -0.505 -0.3226 -0.2249  1.1029
   91SAPC   C23 8701   1.407   3.060  -0.453 -0.2528  0.3601 -0.3866
   91SAPC   H3R 8702   1.502   3.116  -0.469 -1.8622  3.4719  0.1738
   91SAPC   H3S 8703   1.349   3.109  -0.372  0.3496 -2.9915  2.3007
   91SAPC   C24 8704   1.328   3.078  -0.592 -0.2514  0.4293 -0.1440
   91SAPC   H4R 8705   1.315   3.188  -0.604 -1.1461  0.1924 -1.5887
   91SAPC   H4S 8706   1.228   3.029  -0.584  0.5310 -1.1009  0.5269
   91SAPC   C25 8707   1.393   3.018  -0.714 -0.1521  0.0821  0.3715
   91SAPC   H5R 8708   1.497   3.046  -0.734  0.1728 -0.4569  1.2711
   91SAPC   C26 8709   1.346   2.921  -0.795  0.4608 -0.4323  0.1856
   91SAPC   H6R 8710   1.412   2.888  -0.876 -0.2669 -2.0741  0.2356
   91SAPC   C27 8711   1.210   2.853  -0.799  0.2617 -0.1990  0.0654
   91SAPC   H7R 8712   1.168   2.839  -0.697 -0.5301 -0.5444 -0.3043
   91SAPC   H7S 8713   1.217   2.757  -0.853  0.2922  0.6532 -1.5026
   91SAPC   C28 8714   1.109   2.954  -0.855 -0.2008  0.7453 -0.0010
   91SAPC   H8R 8715   1.064   3.005  -0.769 -0.8277  0.1721  0.0171
   91SAPC   C29 8716   1.054   2.962  -0.978 -0.0791  0.8877 -0.5362
   91SAPC   H9R 8717   0.970   3.032  -0.987 -2.0738 -1.2403  0.4672
   91SAPC  C210 8718   1.104   2.892  -1.102  0.1221  0.2515 -0.9539
   91SAPC  H10R 8719   1.214   2.877  -1.092 -0.1781 -1.1319  0.5043
   91SAPC  H10S 8720   1.084   2.951  -1.195 -1.4380 -1.6546 -1.8784
   91SAPC  C211 8721   1.041   2.754  -1.120  0.4241 -0.3928  0.0317
   91SAPC  H11R 8722   1.037   2.691  -1.029  2.7569 -2.6244 -1.2956
   91SAPC  C212 8723   1.027   2.684  -1.233  0.2540 -0.2700  0.3035
   91SAPC  H12R 8724   0.987   2.582  -1.227  0.1503 -0.2191  0.5043
   91SAPC  C213 8725   1.031   2.733  -1.379  0.7170 -0.2123 -0.6704
   91SAPC  H13R 8726   1.029   2.656  -1.459  1.1407 -0.8410 -0.0901
   91SAPC  H13S 8727   1.130   2.782  -1.390  1.6412 -1.9386 -0.5263
   91SAPC  C214 8728   0.917   2.829  -1.386  0.4031 -0.0868 -0.6676
   91SAPC  H14R 8729   0.916   2.907  -1.308 -0.0715 -0.8336  0.1041
   91SAPC  C215 8730   0.828   2.839  -1.488  0.0891  0.3912  0.5724
   91SAPC  H15R 8731   0.748   2.915  -1.485  0.1135  0.4379  0.1328
   91SAPC  C216 8732   0.804   2.752  -1.608  0.0579  1.2029  0.9311
   91SAPC  H16R 8733   0.722   2.681  -1.587  1.1117 -0.1863  0.5213
   91SAPC  H16S 8734   0.896   2.693  -1.630  1.0142  3.3057 -1.2062
   91SAPC  C217 8735   0.765   2.809  -1.751 -0.2908 -0.2442 -0.1436
   91SAPC  H17R 8736   0.841   2.884  -1.783 -0.2606 -0.6621 -1.0781
   91SAPC  H17S 8737   0.679   2.878  -1.737 -0.0042  0.1104 -0.1210
   91SAPC  C218 8738   0.727   2.706  -1.857  0.2372 -0.0069  0.0274
   91SAPC  H18R 8739   0.654   2.635  -1.812 -2.4558  3.2424  1.2680
   91SAPC  H18S 8740   0.815   2.652  -1.898  0.9820 -0.1051  1.6753
   91SAPC  C219 8741   0.653   2.784  -1.965  0.3428  0.5932 -0.1298
   91SAPC  H19R 8742   0.550   2.801  -1.929  0.3574  0.2908  0.0611
   91SAPC  H19S 8743   0.640   2.721  -2.056 -0.7184  3.4477 -2.1013
   91SAPC  C220 8744   0.721   2.917  -2.008  0.1414  0.3681  0.3380
   91SAPC  H20R 8745   0.700   2.997  -1.934  0.1339 -0.1019  0.8471
   91SAPC  H20S 8746   0.691   2.963  -2.105  0.2485 -1.6479 -0.7074
   91SAPC  H20T 8747   0.831   2.909  -2.009  0.0659 -2.0402  2.7124
   91SAPC   C33 8748   1.530   2.520  -0.547  0.0028 -0.4341  0.0600
   91SAPC   H3X 8749   1.598   2.605  -0.567  1.4264 -1.7000 -0.6311
   91SAPC   H3Y 8750   1.436   2.550  -0.496 -1.1411 -1.0205 -1.6026
   91SAPC   C34 8751   1.484   2.457  -0.682 -0.0559  0.5151  0.1324
   91SAPC   H4X 8752   1.418   2.374  -0.650 -0.2288  0.0160 -1.4522
   91SAPC   H4Y 8753   1.574   2.421  -0.735 -0.1879  0.9031 -0.3629
   91SAPC   C35 8754   1.412   2.561  -0.772  0.8691 -0.1126  0.5066
   91SAPC   H5X 8755   1.458   2.662  -0.775 -0.4371  0.4868 -0.1536
   91SAPC   H5Y 8756   1.304   2.583  -0.757  0.8525  0.8444 -0.8497
   91SAPC   C36 8757   1.420   2.508  -0.913  0.5910 -0.2359  0.8378
   91SAPC   H6X 8758   1.325   2.472  -0.960  0.7016  0.3622  0.1345
   91SAPC   H6Y 8759   1.495   2.426  -0.917  1.3137  0.4313  0.3937
   91SAPC   C37 8760   1.469   2.626  -1.004 -0.4776 -0.2161 -0.7078
   91SAPC   H7X 8761   1.562   2.674  -0.966  0.0221  0.4644 -2.6837
   91SAPC   H7Y 8762   1.384   2.696  -0.986 -1.8104 -1.6475 -1.1561
   91SAPC   C38 8763   1.494   2.604  -1.147  0.2870  0.3007  0.4401
   91SAPC   H8X 8764   1.590   2.548  -1.152 -1.1121 -2.2545  0.6953
   91SAPC   H8Y 8765   1.509   2.707  -1.186  0.6808  0.1552  0.1993
   91SAPC   C39 8766   1.384   2.534  -1.228 -0.3159 -0.7940  0.6624
   91SAPC   H9X 8767   1.287   2.588  -1.217 -1.3532 -1.6693 -2.8508
   91SAPC   H9Y 8768   1.373   2.437  -1.176  0.7896 -1.6370 -0.5966
   91SAPC  C310 8769   1.411   2.527  -1.379  0.1360  0.8152 -0.1978
   91SAPC  H10X 8770   1.510   2.478  -1.385 -0.0861  0.2226  0.7936
   91SAPC  H10Y 8771   1.412   2.631  -1.419  0.8863  0.9216  0.0737
   91SAPC  C311 8772   1.313   2.427  -1.447  0.8972 -0.3269  0.4079
   91SAPC  H11X 8773   1.214   2.477  -1.438 -0.4560 -2.6590 -0.5832
   91SAPC  H11Y 8774   1.319   2.332  -1.391  1.1084 -1.6370 -1.6967
   91SAPC  C312 8775   1.359   2.392  -1.589 -0.1305 -0.0338 -0.1224
   91SAPC  H12X 8776   1.310   2.294  -1.607  1.9229 -1.5061  1.7796
   91SAPC  H12Y 8777   1.468   2.368  -1.596  0.1878  1.2402  0.2301
   91SAPC  C313 8778   1.306   2.471  -1.711 -0.6119  0.8750 -1.1442
   91SAPC  H13X 8779   1.355   2.570  -1.712  1.6107 -0.0355  2.3155
   91SAPC  H13Y 8780   1.196   2.485  -1.702 -0.9443 -1.2862 -1.2114
   91SAPC  C314 8781   1.330   2.391  -1.837 -0.3537  0.3547  0.1307
   91SAPC  H14X 8782   1.275   2.295  -1.830 -0.5149  0.5599  2.3424
   91SAPC  H14Y 8783   1.429   2.343  -1.851 -1.5795 -2.4263  0.3968
   91SAPC  C315 8784   1.285   2.473  -1.962 -0.3614  0.2372  0.2549
   91SAPC  H15X 8785   1.346   2.566  -1.961 -1.5952  1.0679  0.4585
   91SAPC  H15Y 8786   1.177   2.495  -1.946 -0.0367  0.6960  2.1771
   91SAPC  C316 8787   1.315   2.397  -2.090 -0.5024  1.2219  0.3573
   91SAPC  H16X 8788   1.245   2.310  -2.097 -1.1509  1.7471  0.2561
   91SAPC  H16Y 8789   1.422   2.372  -2.101 -0.3785  0.8544  2.1572
   91SAPC  C317 8790   1.258   2.469  -2.217 -0.1868 -0.7818  0.0114
   91SAPC  H17X 8791   1.289   2.575  -2.202  2.3394 -1.5916  1.0882
   91SAPC  H17Y 8792   1.147   2.475  -2.217 -0.1773  0.6028  2.1843
   91SAPC  C318 8793   1.311   2.422  -2.356 -0.0750 -0.3583  0.5953
   91SAPC  H18X 8794   1.312   2.500  -2.435 -1.0314 -1.5948 -0.6799
   91SAPC  H18Y 8795   1.269   2.324  -2.388  1.4100 -0.6552 -0.5559
   91SAPC  H18Z 8796   1.422   2.410  -2.360 -0.1256 -0.5018 -1.5992
   92SAPC     N 8797   0.320   6.336   0.101  0.0986  0.0182 -0.8730
   92SAPC   C12 8798   0.411   6.445   0.058 -0.3437 -0.8637  1.0825
   92SAPC  H12A 8799   0.507   6.406   0.029 -1.1252 -2.0794  0.0392
   92SAPC  H12B 8800   0.434   6.512   0.140 -2.9763  1.4772  0.0835
   92SAPC   C13 8801   0.272   6.242  -0.010  0.1307  0.9935  0.8015
   92SAPC  H13A 8802   0.352   6.179  -0.047 -1.2438 -0.4838  0.2696
   92SAPC  H13B 8803   0.197   6.174   0.027  0.4232 -0.1912 -0.6818
   92SAPC  H13C 8804   0.218   6.293  -0.089 -3.1570 -2.1559  0.8079
   92SAPC   C14 8805   0.379   6.257   0.213  0.7046  0.4560 -0.1322
   92SAPC  H14A 8806   0.464   6.197   0.182  0.7913 -0.0199  0.9649
   92SAPC  H14B 8807   0.408   6.308   0.304  2.7896 -0.3883 -0.2593
   92SAPC  H14C 8808   0.312   6.178   0.243  0.0531 -0.0041 -2.5785
   92SAPC   C15 8809   0.197   6.395   0.158  0.2793 -0.3813  0.2928
   92SAPC  H15A 8810   0.113   6.329   0.141  0.4278 -0.5135  0.0641
   92SAPC  H15B 8811   0.199   6.419   0.263 -2.2560  0.1756  0.2890
   92SAPC  H15C 8812   0.185   6.489   0.106  0.3968  0.2547  1.3937
   92SAPC   C11 8813   0.365   6.542  -0.055  0.5110 -0.4851 -0.1908
   92SAPC  H11A 8814   0.346   6.492  -0.152 -2.1362 -0.4195  0.2099
   92SAPC  H11B 8815   0.441   6.622  -0.065  0.3262 -0.4665 -1.6834
   92SAPC     P 8816   0.212   6.757  -0.030  0.0772 -0.4432 -0.0865
   92SAPC   O13 8817   0.063   6.784  -0.027  0.1037  0.5581 -0.1642
   92SAPC   O14 8818   0.290   6.811   0.081  0.1285 -0.0575 -0.2450
   92SAPC   O12 8819   0.238   6.604  -0.030  0.4677 -0.3645 -0.1138
   92SAPC   O11 8820   0.267   6.807  -0.166  0.2412  0.5365  0.2952
   92SAPC    C1 8821   0.211   6.735  -0.281 -0.0515  0.0532  0.0256
   92SAPC    HA 8822   0.280   6.649  -0.295 -0.7022 -1.1147  3.1913
   92SAPC    HB 8823   0.109   6.693  -0.264  0.1679 -0.5905 -0.2255
   92SAPC    C2 8824   0.192   6.817  -0.415 -0.6303 -0.1400  0.4385
   92SAPC    HS 8825   0.140   6.758  -0.494 -2.9528  0.7517  1.2500
   92SAPC   O21 8826   0.318   6.866  -0.469  0.5993 -0.0700  0.0218
   92SAPC   C21 8827   0.379   6.774  -0.541 -0.5087  0.0205 -0.4763
   92SAPC   O22 8828   0.345   6.659  -0.545  0.1609  0.5003  0.2093
   92SAPC   C22 8829   0.508   6.814  -0.596  0.2219 -0.3958 -0.6253
   92SAPC   H2R 8830   0.551   6.880  -0.518  0.7114 -0.2080 -1.0519
   92SAPC   H2S 8831   0.565   6.718  -0.601  0.1523 -0.6034  1.5315
   92SAPC    C3 8832   0.101   6.941  -0.399  0.5228  0.3465 -0.5567
   92SAPC    HX 8833   0.142   7.003  -0.316 -0.7096 -0.9016  1.0457
   92SAPC    HY 8834   0.004   6.900  -0.365 -0.8418  2.4074 -1.7948
   92SAPC   O31 8835   0.082   7.011  -0.526 -0.2666 -0.5683 -0.0033
   92SAPC   C31 8836   0.164   7.108  -0.547 -0.1693 -1.0696  0.1615
   92SAPC   O32 8837   0.256   7.142  -0.473 -0.0582  0.2528  0.8357
   92SAPC   C32 8838   0.132   7.187  -0.680  0.3272  0.0361  0.5761
   92SAPC   H2X 8839   0.161   7.293  -0.663 -1.5433  0.8727 -1.0811
   92SAPC   H2Y 8840   0.024   7.167  -0.699  0.1261 -0.9282  2.4719
   92SAPC   C23 8841   0.502   6.891  -0.727 -0.0218 -0.3319  0.0250
   92SAPC   H3R 8842   0.607   6.913  -0.755  0.8987 -2.3586  1.6787
   92SAPC   H3S 8843   0.465   6.992  -0.699 -0.2834 -0.3878 -0.1158
   92SAPC   C24 8844   0.410   6.840  -0.835 -0.0182 -0.4182  0.5181
   92SAPC   H4R 8845   0.391   6.923  -0.905  1.7808  1.3303  1.9903
   92SAPC   H4S 8846   0.310   6.814  -0.792 -1.0442  0.4187 -1.2664
   92SAPC   C25 8847   0.472   6.716  -0.898 -0.0428 -0.1842 -0.1670
   92SAPC   H5R 8848   0.520   6.643  -0.833  0.4433  0.5068  0.2615
   92SAPC   C26 8849   0.475   6.692  -1.033  0.3427 -0.6212 -0.0731
   92SAPC   H6R 8850   0.514   6.596  -1.071  1.0580 -0.7536  0.9586
   92SAPC   C27 8851   0.404   6.772  -1.146  0.1595 -0.7137 -0.2376
   92SAPC   H7R 8852   0.485   6.811  -1.211  0.4361  2.0105  1.5571
   92SAPC   H7S 8853   0.359   6.869  -1.116  0.7238 -0.0216 -1.5376
   92SAPC   C28 8854   0.293   6.717  -1.232  0.5624 -0.6717  0.1676
   92SAPC   H8R 8855   0.226   6.662  -1.165 -0.0101 -0.9087 -0.5882
   92SAPC   C29 8856   0.290   6.708  -1.365 -0.2308 -0.3726  0.0199
   92SAPC   H9R 8857   0.201   6.661  -1.409 -1.1008  1.3793 -0.1539
   92SAPC  C210 8858   0.399   6.746  -1.462 -0.3534  0.4410  1.0419
   92SAPC  H10R 8859   0.423   6.652  -1.515 -1.6092 -0.3808  1.8688
   92SAPC  H10S 8860   0.488   6.778  -1.404  0.5709 -0.0242 -0.1014
   92SAPC  C211 8861   0.366   6.857  -1.560  0.6045 -0.2607 -0.5587
   92SAPC  H11R 8862   0.329   6.943  -1.504 -1.6918 -0.6254 -1.3896
   92SAPC  C212 8863   0.368   6.873  -1.692 -0.3671  0.9595 -0.9157
   92SAPC  H12R 8864   0.337   6.968  -1.736 -1.8708  2.0190  2.1930
   92SAPC  C213 8865   0.407   6.765  -1.793  0.1733 -0.1156  0.0340
   92SAPC  H13R 8866   0.338   6.759  -1.879  0.1354  3.0593 -0.2467
   92SAPC  H13S 8867   0.403   6.662  -1.751  0.9022 -0.5210 -0.8562
   92SAPC  C214 8868   0.546   6.791  -1.844  0.2926  0.2298  0.7736
   92SAPC  H14R 8869   0.622   6.785  -1.765 -0.5301 -0.9029  1.4974
   92SAPC  C215 8870   0.584   6.837  -1.968 -0.3875  0.0551 -0.1738
   92SAPC  H15R 8871   0.692   6.848  -1.990 -0.0105 -0.5177  1.2396
   92SAPC  C216 8872   0.500   6.855  -2.093 -0.4392  0.0287 -0.1857
   92SAPC  H16R 8873   0.416   6.784  -2.079  0.6272 -1.2538 -0.1642
   92SAPC  H16S 8874   0.549   6.806  -2.180 -1.0545 -2.2720  0.6891
   92SAPC  C217 8875   0.441   7.000  -2.108  0.6598  0.5718 -0.2780
   92SAPC  H17R 8876   0.519   7.079  -2.110  0.3655  0.8691 -0.1215
   92SAPC  H17S 8877   0.381   7.021  -2.017  2.0617 -0.4236  0.9302
   92SAPC  C218 8878   0.346   7.012  -2.231  0.5824 -0.2789 -0.4286
   92SAPC  H18R 8879   0.256   6.946  -2.225 -0.3360  0.8456 -1.3668
   92SAPC  H18S 8880   0.399   6.981  -2.323  0.4890  1.1015 -0.9739
   92SAPC  C219 8881   0.297   7.154  -2.241  0.2209 -0.3436  0.3083
   92SAPC  H19R 8882   0.384   7.223  -2.234 -0.0779  0.1762 -0.8848
   92SAPC  H19S 8883   0.250   7.170  -2.142  2.2875  2.7711  0.9385
   92SAPC  C220 8884   0.209   7.183  -2.363  0.1960 -0.1889 -0.0408
   92SAPC  H20R 8885   0.255   7.136  -2.452 -0.0250  0.1055 -0.3114
   92SAPC  H20S 8886   0.202   7.292  -2.380  0.7110 -0.4367 -2.1522
   92SAPC  H20T 8887   0.113   7.127  -2.352 -1.5112  2.4045 -0.9027
   92SAPC   C33 8888   0.232   7.136  -0.793 -0.1281  0.1181  0.7649
   92SAPC   H3X 8889   0.210   7.029  -0.814  0.4473  0.0757  0.3690
   92SAPC   H3Y 8890   0.337   7.143  -0.759  0.1146  0.5681 -0.0655
   92SAPC   C34 8891   0.221   7.216  -0.920 -0.0337 -0.0567 -0.6618
   92SAPC   H4X 8892   0.288   7.304  -0.925  2.3611 -1.7253  0.4715
   92SAPC   H4Y 8893   0.119   7.261  -0.916 -0.5864 -1.2853 -0.3795
   92SAPC   C35 8894   0.232   7.140  -1.057 -0.1518 -0.1482 -0.3900
   92SAPC   H5X 8895   0.151   7.063  -1.060  0.4628 -0.8124 -0.3324
   92SAPC   H5Y 8896   0.332   7.094  -1.071 -1.0857 -2.3910 -0.1442
   92SAPC   C36 8897   0.208   7.223  -1.181  0.1149 -0.7284  0.9156
   92SAPC   H6X 8898   0.276   7.311  -1.187 -3.8010  2.5008 -0.1391
   92SAPC   H6Y 8899   0.118   7.284  -1.159  1.0631  0.6686  1.0641
   92SAPC   C37 8900   0.185   7.133  -1.303 -1.0862  0.0898  0.2323
   92SAPC   H7X 8901   0.101   7.065  -1.275 -1.0192 -1.0012 -1.9833
   92SAPC   H7Y 8902   0.279   7.075  -1.314  0.0308  1.7616  0.6967
   92SAPC   C38 8903   0.156   7.213  -1.434 -0.2495 -0.0086 -0.2008
   92SAPC   H8X 8904   0.158   7.142  -1.519  0.1870  0.1782 -0.3513
   92SAPC   H8Y 8905   0.234   7.287  -1.464 -2.9111  3.4157  0.6733
   92SAPC   C39 8906   0.020   7.292  -1.436 -0.0195 -0.5185 -0.2725
   92SAPC   H9X 8907   0.023   7.367  -1.354  2.9370  0.6983 -1.3622
   92SAPC   H9Y 8908  -0.060   7.216  -1.423  0.7409 -1.4479 -0.8957
   92SAPC  C310 8909  -0.016   7.369  -1.563  0.0318  0.3602 -0.2645
   92SAPC  H10X 8910   0.063   7.441  -1.594 -0.3889  1.0411  0.1989
   92SAPC  H10Y 8911  -0.102   7.435  -1.537  0.3909  0.1657  1.5398
   92SAPC  C311 8912  -0.067   7.275  -1.673 -0.1650 -0.0487  0.3240
   92SAPC  H11X 8913  -0.153   7.208  -1.650 -0.3638 -0.1321 -0.6143
   92SAPC  H11Y 8914   0.018   7.205  -1.680  0.3835  0.5160  1.1760
   92SAPC  C312 8915  -0.085   7.326  -1.817 -0.3673 -0.3376 -0.0510
   92SAPC  H12X 8916  -0.100   7.233  -1.877  0.5799 -1.8562  1.9539
   92SAPC  H12Y 8917   0.008   7.384  -1.833 -0.4608  0.2579  1.4079
   92SAPC  C313 8918  -0.202   7.427  -1.846  0.3134  0.3563 -0.2329
   92SAPC  H13X 8919  -0.273   7.421  -1.761 -0.9161 -0.8721 -1.3059
   92SAPC  H13Y 8920  -0.266   7.398  -1.932 -0.3743  1.7944 -0.2318
   92SAPC  C314 8921  -0.158   7.570  -1.874  0.6815 -0.0992  0.2666
   92SAPC  H14X 8922  -0.091   7.578  -1.963  1.2823  1.7929  0.8527
   92SAPC  H14Y 8923  -0.101   7.612  -1.788  2.1214 -0.8122 -0.2904
   92SAPC  C315 8924  -0.274   7.666  -1.901  0.3364  0.5239 -0.0100
   92SAPC  H15X 8925  -0.359   7.651  -1.832  1.9642  0.7784  2.1435
   92SAPC  H15Y 8926  -0.308   7.638  -2.003  0.0371 -1.6138  0.6333
   92SAPC  C316 8927  -0.242   7.813  -1.905  0.3034 -0.4752 -0.2005
   92SAPC  H16X 8928  -0.162   7.832  -1.981  1.1724  1.5295  1.1335
   92SAPC  H16Y 8929  -0.198   7.834  -1.805  0.9277 -2.0345 -0.1116
   92SAPC  C317 8930  -0.371   7.903  -1.914  0.0466 -0.4262  0.2987
   92SAPC  H17X 8931  -0.349   8.011  -1.906  1.6290 -0.5113 -2.0553
   92SAPC  H17Y 8932  -0.440   7.881  -1.829 -1.6872 -0.3263 -1.0170
   92SAPC  C318 8933  -0.444   7.889  -2.052  0.3269 -0.0167 -0.8797
   92SAPC  H18X 8934  -0.478   7.783  -2.059  3.0161 -1.0274  0.2703
   92SAPC  H18Y 8935  -0.379   7.913  -2.139  0.5886 -0.6861 -0.8764
   92SAPC  H18Z 8936  -0.537   7.951  -2.053 -0.1125 -0.5567  1.2824
   93SAPC     N 8937   2.332   3.871   8.349  0.1897  0.1943  0.0596
   93SAPC   C12 8938   2.478   3.882   8.384  0.0354 -0.6960 -0.3180
   93SAPC  H12A 8939   2.499   3.988   8.382 -2.4726 -0.1302  0.3605
   93SAPC  H12B 8940   2.533   3.830   8.307 -0.3188 -1.4954 -0.0345
   93SAPC   C13 8941   2.278   3.729   8.339 -0.8809 -0.3810  0.1403
   93SAPC  H13A 8942   2.328   3.662   8.270 -1.7439 -0.8536 -0.0538
   93SAPC  H13B 8943   2.295   3.686   8.437 -0.9356  1.3636  0.9535
   93SAPC  H13C 8944   2.171   3.741   8.323 -1.3464  1.0175  3.4938
   93SAPC   C14 8945   2.247   3.941   8.453 -0.2465 -0.2178 -0.6472
   93SAPC  H14A 8946   2.160   3.990   8.413 -0.4533 -0.0571 -0.0101
   93SAPC  H14B 8947   2.223   3.873   8.534  0.3774 -0.3877 -0.5992
   93SAPC  H14C 8948   2.308   4.018   8.497 -1.3965  0.0801  0.4967
   93SAPC   C15 8949   2.311   3.933   8.216 -0.3171  0.0812  1.1781
   93SAPC  H15A 8950   2.207   3.925   8.191 -0.1707  1.2406  0.1316
   93SAPC  H15B 8951   2.342   4.037   8.210  0.5306 -0.2169 -0.0958
   93SAPC  H15C 8952   2.363   3.873   8.143 -1.5584 -2.1559  2.0324
   93SAPC   C11 8953   2.519   3.825   8.523 -0.3905  0.8398 -0.6120
   93SAPC  H11A 8954   2.462   3.878   8.602  0.8954 -2.3923  2.7933
   93SAPC  H11B 8955   2.628   3.843   8.540  0.2902 -2.3389 -0.8434
   93SAPC     P 8956   2.588   3.577   8.471  0.4868  0.0059  0.2058
   93SAPC   O13 8957   2.730   3.591   8.506 -0.1252 -0.1869  0.0360
   93SAPC   O14 8958   2.523   3.446   8.487 -0.5652  0.3876 -0.2601
   93SAPC   O12 8959   2.494   3.684   8.538  0.3658 -0.1195 -0.3670
   93SAPC   O11 8960   2.575   3.602   8.315 -0.4514 -0.3792 -0.3454
   93SAPC    C1 8961   2.685   3.601   8.223  0.5714 -0.4963  0.1295
   93SAPC    HA 8962   2.757   3.676   8.261  0.5594 -0.6402  0.4371
   93SAPC    HB 8963   2.726   3.499   8.211  3.1661  0.7285 -2.4791
   93SAPC    C2 8964   2.649   3.636   8.075 -0.1571 -0.3618 -0.1968
   93SAPC    HS 8965   2.725   3.592   8.008 -0.4778  0.0282 -0.8357
   93SAPC   O21 8966   2.651   3.781   8.048 -0.2665 -0.3932 -0.3203
   93SAPC   C21 8967   2.767   3.839   8.057  0.4424  0.0866  0.3643
   93SAPC   O22 8968   2.873   3.783   8.078 -0.7592  0.3039 -0.2942
   93SAPC   C22 8969   2.743   3.993   8.052 -0.1684  0.4230  0.9271
   93SAPC   H2R 8970   2.662   4.020   8.124 -0.6070  0.6138  0.3655
   93SAPC   H2S 8971   2.838   4.031   8.096  2.6085 -2.1789 -2.2776
   93SAPC    C3 8972   2.512   3.585   8.021 -0.1934  0.8513 -0.0012
   93SAPC    HX 8973   2.436   3.632   8.087 -1.0420 -2.2951  1.4220
   93SAPC    HY 8974   2.502   3.475   8.032 -0.4337  0.9427  0.7150
   93SAPC   O31 8975   2.491   3.629   7.883 -0.8925 -0.4243 -0.4678
   93SAPC   C31 8976   2.446   3.752   7.850 -0.4990  0.4067 -0.5889
   93SAPC   O32 8977   2.418   3.838   7.937  0.3310  0.0902  0.2433
   93SAPC   C32 8978   2.421   3.769   7.704  0.5118  0.4517  0.4051
   93SAPC   H2X 8979   2.464   3.692   7.637  0.7255  1.2894 -0.4405
   93SAPC   H2Y 8980   2.472   3.865   7.680 -1.4621  1.3758 -0.3480
   93SAPC   C23 8981   2.714   4.044   7.911  0.2452  0.1641 -0.5803
   93SAPC   H3R 8982   2.691   4.153   7.909 -0.9525 -0.0559  0.1740
   93SAPC   H3S 8983   2.619   4.004   7.871  0.4843  1.3236 -2.4362
   93SAPC   C24 8984   2.832   4.038   7.805 -0.4799  0.6057  0.0123
   93SAPC   H4R 8985   2.927   4.061   7.858 -0.8779  0.5048  0.7794
   93SAPC   H4S 8986   2.825   4.110   7.721  0.6909  0.0303 -0.5999
   93SAPC   C25 8987   2.831   3.898   7.754  0.1755  0.0007 -0.7617
   93SAPC   H5R 8988   2.893   3.823   7.806 -0.1265 -0.8874 -1.6492
   93SAPC   C26 8989   2.771   3.850   7.642  0.2391 -0.0444  0.6756
   93SAPC   H6R 8990   2.779   3.742   7.623 -0.1710  0.1828 -0.9565
   93SAPC   C27 8991   2.690   3.934   7.545 -0.1601  0.0345 -0.2922
   93SAPC   H7R 8992   2.630   4.009   7.601  0.6684 -0.7662  1.7512
   93SAPC   H7S 8993   2.615   3.874   7.490 -2.3696  1.2215  1.2882
   93SAPC   C28 8994   2.780   4.012   7.454  0.1774 -0.3172  0.3389
   93SAPC   H8R 8995   2.877   4.049   7.492  1.3475 -0.7006 -2.0849
   93SAPC   C29 8996   2.763   4.036   7.324  0.0868  0.1792 -0.2832
   93SAPC   H9R 8997   2.839   4.104   7.281  0.8717  0.2926  1.2035
   93SAPC  C210 8998   2.654   3.996   7.229  0.2105 -0.3534  0.4162
   93SAPC  H10R 8999   2.575   3.944   7.287  0.1121  0.7563  1.3184
   93SAPC  H10S 9000   2.701   3.935   7.149  1.9458  0.8275  0.4676
   93SAPC  C211 9001   2.590   4.120   7.177  0.5837  0.4526 -0.0432
   93SAPC  H11R 9002   2.600   4.210   7.239 -1.0132  1.8169 -1.6450
   93SAPC  C212 9003   2.546   4.132   7.045  0.4028 -0.2777  0.0444
   93SAPC  H12R 9004   2.478   4.216   7.028 -0.8133 -1.0893  0.7371
   93SAPC  C213 9005   2.543   4.017   6.948  0.0329 -0.1516  0.0008
   93SAPC  H13R 9006   2.447   4.045   6.900 -1.6908  0.0932  3.3036
   93SAPC  H13S 9007   2.539   3.919   6.999 -0.4900 -0.2234 -0.1804
   93SAPC  C214 9008   2.660   4.030   6.851 -0.5301  0.0165  0.8479
   93SAPC  H14R 9009   2.745   4.080   6.900  1.2250 -1.8343 -0.1617
   93SAPC  C215 9010   2.667   3.970   6.727  0.0545  0.2773 -0.3797
   93SAPC  H15R 9011   2.760   3.973   6.669  1.2711 -1.0274  1.3873
   93SAPC  C216 9012   2.546   3.924   6.652  0.3558 -0.2632  0.7145
   93SAPC  H16R 9013   2.451   3.965   6.691  0.3191  2.0457 -1.5653
   93SAPC  H16S 9014   2.546   3.813   6.642  0.9673 -0.2413  0.3934
   93SAPC  C217 9015   2.555   3.989   6.512 -0.6833 -0.5976 -0.0101
   93SAPC  H17R 9016   2.532   4.097   6.523  0.5998 -0.4682  1.8104
   93SAPC  H17S 9017   2.468   3.955   6.452  0.4129 -1.0396 -1.3886
   93SAPC  C218 9018   2.686   3.965   6.428 -0.1298 -0.5597 -0.9304
   93SAPC  H18R 9019   2.766   4.022   6.479 -1.6420  1.2789 -0.5265
   93SAPC  H18S 9020   2.666   4.021   6.333  1.3486  0.0787 -0.8864
   93SAPC  C219 9021   2.712   3.818   6.398 -0.0499  0.9928  0.4253
   93SAPC  H19R 9022   2.614   3.767   6.384  0.8883 -0.3932 -1.6402
   93SAPC  H19S 9023   2.758   3.782   6.493  1.1039 -2.6363 -1.3185
   93SAPC  C220 9024   2.809   3.787   6.276 -0.0734 -0.4196 -0.5818
   93SAPC  H20R 9025   2.763   3.814   6.178 -1.7897  3.0914  1.0261
   93SAPC  H20S 9026   2.846   3.682   6.275  0.3364 -0.2761 -0.4265
   93SAPC  H20T 9027   2.900   3.848   6.292 -1.1070  1.4988 -1.6223
   93SAPC   C33 9028   2.273   3.787   7.674  0.3588 -0.0366  0.0141
   93SAPC   H3X 9029   2.229   3.873   7.729 -1.4736 -0.6764 -0.3662
   93SAPC   H3Y 9030   2.222   3.695   7.711 -3.1090  2.0633  0.9047
   93SAPC   C34 9031   2.234   3.815   7.528 -0.3183 -0.0804  0.0762
   93SAPC   H4X 9032   2.123   3.823   7.531 -0.1877  2.1140  0.4106
   93SAPC   H4Y 9033   2.276   3.733   7.465 -0.3931 -0.1558  0.1248
   93SAPC   C35 9034   2.294   3.950   7.478 -0.0054  0.9376  0.2533
   93SAPC   H5X 9035   2.404   3.940   7.465 -0.2197  0.7164 -1.7532
   93SAPC   H5Y 9036   2.267   4.031   7.548 -0.6100 -1.7479  3.3685
   93SAPC   C36 9037   2.231   3.976   7.341  0.5818  0.0241  0.0891
   93SAPC   H6X 9038   2.270   4.071   7.297 -0.3130 -1.1778 -3.7141
   93SAPC   H6Y 9039   2.121   3.993   7.342  0.3213 -1.2769 -1.6568
   93SAPC   C37 9040   2.262   3.878   7.224  0.0065 -0.8320 -0.2939
   93SAPC   H7X 9041   2.214   3.781   7.249 -2.3345  0.3368  0.0464
   93SAPC   H7Y 9042   2.372   3.865   7.227  0.3710  1.8986  0.2685
   93SAPC   C38 9043   2.205   3.924   7.088  0.7082  0.4211  0.7127
   93SAPC   H8X 9044   2.262   4.010   7.046 -0.1954 -0.1905 -1.9292
   93SAPC   H8Y 9045   2.100   3.957   7.106  0.1936 -0.6940 -0.1542
   93SAPC   C39 9046   2.221   3.816   6.983 -0.1731  0.3581 -0.4882
   93SAPC   H9X 9047   2.190   3.714   7.013 -0.1138  0.2541 -0.7801
   93SAPC   H9Y 9048   2.329   3.818   6.956  0.3464 -4.1551  0.4485
   93SAPC  C310 9049   2.140   3.838   6.852  0.3801 -0.1670  0.6062
   93SAPC  H10X 9050   2.167   3.754   6.785  0.5983  0.9921 -0.8037
   93SAPC  H10Y 9051   2.163   3.930   6.794 -0.3376 -1.2810 -1.5179
   93SAPC  C311 9052   1.988   3.839   6.873  0.3523 -0.4157 -0.1508
   93SAPC  H11X 9053   1.964   3.894   6.967  1.0531 -1.2799  0.5517
   93SAPC  H11Y 9054   1.957   3.735   6.893 -4.7126  0.6304 -0.9739
   93SAPC  C312 9055   1.910   3.899   6.754 -0.0066  0.6288  0.2477
   93SAPC  H12X 9056   1.951   3.996   6.717  1.1549  0.0158 -0.1380
   93SAPC  H12Y 9057   1.804   3.910   6.786 -0.6793 -1.5734 -1.0049
   93SAPC  C313 9058   1.898   3.810   6.632  0.4469  0.2703 -0.0206
   93SAPC  H13X 9059   1.843   3.717   6.656  0.7598 -0.2384 -1.1605
   93SAPC  H13Y 9060   1.995   3.765   6.601 -1.2496 -1.8610 -2.7847
   93SAPC  C314 9061   1.840   3.875   6.512 -0.1244  0.3971 -0.4831
   93SAPC  H14X 9062   1.908   3.961   6.492  1.4435 -0.9829 -1.3307
   93SAPC  H14Y 9063   1.738   3.909   6.540 -0.4220  0.2333 -1.3363
   93SAPC  C315 9064   1.838   3.780   6.386  0.0725 -0.4111  0.7614
   93SAPC  H15X 9065   1.765   3.697   6.385  2.0616 -2.2552 -0.5610
   93SAPC  H15Y 9066   1.936   3.726   6.391  0.1444 -0.3434  0.0937
   93SAPC  C316 9067   1.826   3.861   6.255 -0.7696  0.0506  0.3781
   93SAPC  H16X 9068   1.853   3.796   6.169  0.7431  0.3456  0.6092
   93SAPC  H16Y 9069   1.910   3.933   6.261  1.1176 -2.1084  1.1073
   93SAPC  C317 9070   1.693   3.941   6.241 -0.4545  0.1283  0.2442
   93SAPC  H17X 9071   1.682   4.015   6.323  0.6637  0.8430 -0.2273
   93SAPC  H17Y 9072   1.594   3.891   6.249 -1.0804  1.5448  1.9501
   93SAPC  C318 9073   1.683   4.028   6.110 -0.1335 -1.0478  0.1914
   93SAPC  H18X 9074   1.651   3.952   6.035 -0.4094 -1.2750  0.5366
   93SAPC  H18Y 9075   1.773   4.083   6.077 -0.1933 -0.7516  0.5172
   93SAPC  H18Z 9076   1.598   4.100   6.110  0.3549 -0.2922  3.8100
   94SAPC     N 9077   2.586   0.894   0.015  0.4597 -0.0429  0.1200
   94SAPC   C12 9078   2.590   1.035   0.074  0.0845 -0.4514 -0.5244
   94SAPC  H12A 9079   2.558   1.101  -0.005  0.6423  1.9420  1.1126
   94SAPC  H12B 9080   2.694   1.054   0.096 -0.3310  0.6346  0.6657
   94SAPC   C13 9081   2.653   0.801   0.107  0.2536 -0.4553  0.1332
   94SAPC  H13A 9082   2.752   0.838   0.128 -0.8678  2.5290  0.5652
   94SAPC  H13B 9083   2.605   0.794   0.204  2.4911 -2.6943  1.2011
   94SAPC  H13C 9084   2.653   0.700   0.069 -3.1998 -0.9798  1.1293
   94SAPC   C14 9085   2.437   0.858  -0.000  0.2685  0.6075  0.4464
   94SAPC  H14A 9086   2.370   0.916  -0.063  0.0876 -0.2107 -0.1262
   94SAPC  H14B 9087   2.437   0.754  -0.028 -0.1983  0.5908  0.4928
   94SAPC  H14C 9088   2.397   0.875   0.098  1.0034  0.2827  0.8096
   94SAPC   C15 9089   2.644   0.890  -0.120  0.3172  0.1790 -0.3767
   94SAPC  H15A 9090   2.603   0.969  -0.182 -0.4022  1.9524  2.1854
   94SAPC  H15B 9091   2.751   0.902  -0.131  0.1330  0.8265 -1.6169
   94SAPC  H15C 9092   2.629   0.795  -0.168  0.5395  0.2607 -0.6119
   94SAPC   C11 9093   2.511   1.075   0.205 -0.2876 -0.5250  0.4125
   94SAPC  H11A 9094   2.522   1.182   0.230 -1.0351  0.2040 -2.1532
   94SAPC  H11B 9095   2.568   1.021   0.284  1.1555 -0.1050 -0.3134
   94SAPC     P 9096   2.252   1.108   0.143  0.1028 -0.1089 -0.0763
   94SAPC   O13 9097   2.133   1.020   0.145 -0.0104 -0.6468 -0.1785
   94SAPC   O14 9098   2.251   1.243   0.204  0.0638 -0.1932  0.1741
   94SAPC   O12 9099   2.370   1.029   0.208  0.1540 -0.2188 -0.2815
   94SAPC   O11 9100   2.307   1.117  -0.003  0.0682 -0.2941  0.3401
   94SAPC    C1 9101   2.207   1.139  -0.109  0.0526  0.5324 -0.1806
   94SAPC    HA 9102   2.107   1.092  -0.096  0.1373 -0.0380 -1.4513
   94SAPC    HB 9103   2.179   1.245  -0.127 -3.7173 -0.6605 -2.5349
   94SAPC    C2 9104   2.276   1.087  -0.245  0.0933 -0.3432  0.4848
   94SAPC    HS 9105   2.208   1.123  -0.325  0.7234  1.2060  0.6152
   94SAPC   O21 9106   2.286   0.941  -0.245 -0.0960  0.2695  0.8185
   94SAPC   C21 9107   2.274   0.883  -0.369 -0.1175 -0.0898  0.5485
   94SAPC   O22 9108   2.247   0.943  -0.472 -0.0938  0.5334  0.0022
   94SAPC   C22 9109   2.287   0.730  -0.363 -0.0305  0.5889  0.1155
   94SAPC   H2R 9110   2.329   0.702  -0.264 -0.7336  1.4188  0.6620
   94SAPC   H2S 9111   2.193   0.678  -0.393 -0.0357  1.1306 -0.8339
   94SAPC    C3 9112   2.409   1.162  -0.265  0.1674  0.5511 -1.0390
   94SAPC    HX 9113   2.466   1.158  -0.170 -0.9854  0.7927 -0.3101
   94SAPC    HY 9114   2.383   1.270  -0.277  0.8939  0.8311 -0.2388
   94SAPC   O31 9115   2.490   1.096  -0.364 -0.0871  0.9644  0.4954
   94SAPC   C31 9116   2.535   1.188  -0.457  1.0015 -0.2362 -0.3808
   94SAPC   O32 9117   2.526   1.309  -0.439 -0.7294  0.2359 -0.1042
   94SAPC   C32 9118   2.594   1.113  -0.576 -0.4493  0.1584  0.4633
   94SAPC   H2X 9119   2.581   1.004  -0.561 -0.4677  0.0001 -0.6479
   94SAPC   H2Y 9120   2.703   1.133  -0.587 -0.9517  1.8125 -2.5877
   94SAPC   C23 9121   2.392   0.681  -0.467  0.0360  0.0002  0.3694
   94SAPC   H3R 9122   2.488   0.664  -0.413  0.7552 -1.1038 -1.1623
   94SAPC   H3S 9123   2.393   0.755  -0.550 -1.2264  0.0925  0.4153
   94SAPC   C24 9124   2.347   0.553  -0.537 -0.2830  0.3413 -0.0180
   94SAPC   H4R 9125   2.328   0.482  -0.454 -0.5889  0.7922  0.3000
   94SAPC   H4S 9126   2.429   0.506  -0.596  1.9665  0.0825  3.0520
   94SAPC   C25 9127   2.232   0.555  -0.630  0.0243  0.3551  0.3499
   94SAPC   H5R 9128   2.132   0.519  -0.601 -0.0178 -0.0850 -0.3254
   94SAPC   C26 9129   2.224   0.623  -0.746 -0.9806 -0.1505 -0.3009
   94SAPC   H6R 9130   2.125   0.632  -0.792 -0.6944  0.2116 -0.8542
   94SAPC   C27 9131   2.346   0.683  -0.817  0.6832 -0.1835 -0.4225
   94SAPC   H7R 9132   2.358   0.626  -0.911 -1.0420 -0.6983 -0.3629
   94SAPC   H7S 9133   2.439   0.659  -0.761 -0.2375 -0.5794  1.0131
   94SAPC   C28 9134   2.330   0.836  -0.842 -0.7027 -0.1119 -0.2785
   94SAPC   H8R 9135   2.296   0.887  -0.750  2.4120 -1.4002  1.7464
   94SAPC   C29 9136   2.349   0.908  -0.963 -0.0005 -0.3592 -0.2837
   94SAPC   H9R 9137   2.317   1.013  -0.954 -0.8740 -0.7130  1.1763
   94SAPC  C210 9138   2.399   0.850  -1.097  0.0997 -0.5315 -0.6104
   94SAPC  H10R 9139   2.434   0.745  -1.090 -0.7664 -1.0547 -3.0948
   94SAPC  H10S 9140   2.486   0.912  -1.127  0.6227 -1.2587 -0.6267
   94SAPC  C211 9141   2.289   0.837  -1.193 -0.3990 -0.4717  0.4616
   94SAPC  H11R 9142   2.198   0.784  -1.159 -0.7418 -1.0639 -1.2795
   94SAPC  C212 9143   2.281   0.883  -1.320 -0.8150  0.0143 -0.9713
   94SAPC  H12R 9144   2.194   0.849  -1.378 -1.2821  0.6381 -0.6464
   94SAPC  C213 9145   2.384   0.944  -1.406 -0.0287 -1.3838  0.3244
   94SAPC  H13R 9146   2.470   0.879  -1.431  3.3978  2.5351  0.8401
   94SAPC  H13S 9147   2.426   1.032  -1.355  0.6827 -2.6527  1.9944
   94SAPC  C214 9148   2.325   0.981  -1.544  1.1350  0.1817 -0.2615
   94SAPC  H14R 9149   2.350   0.915  -1.628  3.8985  1.8460 -0.8745
   94SAPC  C215 9150   2.237   1.082  -1.572  0.2054  1.2014  0.2169
   94SAPC  H15R 9151   2.201   1.097  -1.675 -0.3205  1.2951  0.4071
   94SAPC  C216 9152   2.205   1.199  -1.476  0.6235 -0.2465 -0.2643
   94SAPC  H16R 9153   2.258   1.193  -1.379 -0.2324  3.9630  0.6732
   94SAPC  H16S 9154   2.098   1.193  -1.449  0.3217 -0.4623 -1.4399
   94SAPC  C217 9155   2.240   1.334  -1.537  0.2697 -0.3184  0.5117
   94SAPC  H17R 9156   2.348   1.358  -1.547 -0.0827  0.9581 -0.5119
   94SAPC  H17S 9157   2.205   1.408  -1.461  0.0422 -0.0150  0.1172
   94SAPC  C218 9158   2.182   1.376  -1.676  0.1356  0.4898  0.3721
   94SAPC  H18R 9159   2.224   1.316  -1.759 -3.0431 -0.2111 -0.9090
   94SAPC  H18S 9160   2.209   1.482  -1.691  3.0534 -0.0462  1.1936
   94SAPC  C219 9161   2.031   1.360  -1.678  0.3311  0.1902  0.1055
   94SAPC  H19R 9162   1.998   1.444  -1.613  4.2457  0.6728  1.7454
   94SAPC  H19S 9163   2.002   1.263  -1.634 -0.6386  0.1735 -0.5425
   94SAPC  C220 9164   1.961   1.371  -1.822  0.3138 -0.8001 -0.8779
   94SAPC  H20R 9165   1.987   1.466  -1.873 -1.6937  2.1220  3.0413
   94SAPC  H20S 9166   1.851   1.369  -1.813  0.2411 -1.2265 -1.7516
   94SAPC  H20T 9167   1.980   1.278  -1.881  2.1889 -0.2309 -1.2397
   94SAPC   C33 9168   2.518   1.139  -0.710 -0.7551 -0.2655 -0.6172
   94SAPC   H3X 9169   2.409   1.141  -0.689 -0.3189 -0.3462  1.9597
   94SAPC   H3Y 9170   2.537   1.052  -0.776  2.3589 -0.5369  0.4778
   94SAPC   C34 9171   2.575   1.257  -0.785  0.1749 -0.7236  0.1590
   94SAPC   H4X 9172   2.686   1.253  -0.792  0.1530 -0.5166 -0.3207
   94SAPC   H4Y 9173   2.535   1.354  -0.747 -1.1314 -1.4360  0.6384
   94SAPC   C35 9174   2.524   1.259  -0.926 -0.6176  0.4223  0.6497
   94SAPC   H5X 9175   2.414   1.269  -0.935 -0.6411  0.0921  0.5492
   94SAPC   H5Y 9176   2.569   1.165  -0.963  0.9299  1.1387  0.6397
   94SAPC   C36 9177   2.593   1.374  -1.007 -0.2634  0.5184  0.7252
   94SAPC   H6X 9178   2.703   1.392  -1.011 -0.4585  1.6806 -1.4548
   94SAPC   H6Y 9179   2.554   1.468  -0.962  0.6319  0.1376  2.3729
   94SAPC   C37 9180   2.550   1.378  -1.151  0.7299 -0.3282 -0.5006
   94SAPC   H7X 9181   2.439   1.379  -1.157  0.5793  1.3927  1.4653
   94SAPC   H7Y 9182   2.585   1.283  -1.195  1.5582 -0.3419  0.1669
   94SAPC   C38 9183   2.610   1.496  -1.236  0.2581  0.8581 -0.6020
   94SAPC   H8X 9184   2.714   1.468  -1.260 -0.7957 -2.6340 -1.6070
   94SAPC   H8Y 9185   2.613   1.596  -1.186  2.5494  0.4315  0.2057
   94SAPC   C39 9186   2.544   1.517  -1.368  0.0299 -0.0600  0.5119
   94SAPC   H9X 9187   2.437   1.544  -1.358  0.3897  1.8094 -0.2571
   94SAPC   H9Y 9188   2.555   1.421  -1.422 -1.8113 -0.0590  0.0740
   94SAPC  C310 9189   2.617   1.629  -1.448  0.3360 -0.0441 -1.2893
   94SAPC  H10X 9190   2.725   1.602  -1.448 -0.0184 -1.5630 -1.6024
   94SAPC  H10Y 9191   2.617   1.726  -1.395 -1.2969  0.1164 -1.5479
   94SAPC  C311 9192   2.573   1.640  -1.592 -0.0770  0.1461  0.2952
   94SAPC  H11X 9193   2.470   1.680  -1.604 -0.5175 -1.0557 -0.0629
   94SAPC  H11Y 9194   2.581   1.540  -1.640 -1.9838 -0.0731  0.3518
   94SAPC  C312 9195   2.659   1.741  -1.667 -0.5416  0.1387 -0.9883
   94SAPC  H12X 9196   2.767   1.717  -1.679  0.0887  2.9309 -1.5016
   94SAPC  H12Y 9197   2.654   1.841  -1.619  2.4732  0.3979 -1.0408
   94SAPC  C313 9198   2.614   1.752  -1.809  0.1261 -0.6503  0.5404
   94SAPC  H13X 9199   2.668   1.832  -1.863  1.0077 -0.8062  1.1751
   94SAPC  H13Y 9200   2.511   1.795  -1.812  1.3376  2.4811 -1.0327
   94SAPC  C314 9201   2.636   1.622  -1.888  0.2849 -0.3811  0.1436
   94SAPC  H14X 9202   2.591   1.537  -1.833 -0.1711 -0.5747 -0.5192
   94SAPC  H14Y 9203   2.746   1.610  -1.900  0.3323  0.6905 -0.7015
   94SAPC  C315 9204   2.567   1.623  -2.024 -0.0373 -0.1692  0.1828
   94SAPC  H15X 9205   2.608   1.707  -2.084 -0.2238  0.9420  1.5628
   94SAPC  H15Y 9206   2.456   1.632  -2.021 -0.3767 -3.0151 -0.7007
   94SAPC  C316 9207   2.598   1.490  -2.109  0.4305 -0.5955 -0.0347
   94SAPC  H16X 9208   2.705   1.466  -2.097  0.2236 -1.5892 -0.0290
   94SAPC  H16Y 9209   2.572   1.516  -2.213 -2.4688  0.7881  0.9208
   94SAPC  C317 9210   2.510   1.374  -2.070 -0.3928 -0.4859 -0.0414
   94SAPC  H17X 9211   2.403   1.403  -2.063 -0.2470 -0.0671  0.5086
   94SAPC  H17Y 9212   2.548   1.336  -1.973 -1.9481 -0.1140  0.7582
   94SAPC  C318 9213   2.513   1.259  -2.172 -0.3326  0.1051  0.3741
   94SAPC  H18X 9214   2.442   1.179  -2.145  1.1110 -0.8541  1.4959
   94SAPC  H18Y 9215   2.615   1.220  -2.192 -0.6966 -1.4300  1.3262
   94SAPC  H18Z 9216   2.487   1.306  -2.269  2.6491 -0.1555 -0.6778
   95SAPC     N 9217   4.072   2.177   4.304  0.1943  0.4073  0.9315
   95SAPC   C12 9218   3.945   2.246   4.354  0.3618  0.6883  0.3669
   95SAPC  H12A 9219   3.915   2.321   4.283 -1.7227  0.4947  0.9840
   95SAPC  H12B 9220   3.970   2.306   4.440 -0.0672  0.2454  0.8074
   95SAPC   C13 9221   4.066   2.131   4.162 -0.4883  0.6744 -0.0967
   95SAPC  H13A 9222   4.155   2.071   4.148 -1.3636 -1.1881  1.7039
   95SAPC  H13B 9223   3.975   2.076   4.145 -0.0089 -1.1355  2.5583
   95SAPC  H13C 9224   4.067   2.218   4.098  2.7405  0.4149 -0.5566
   95SAPC   C14 9225   4.194   2.256   4.318 -0.3014  0.8701 -0.6202
   95SAPC  H14A 9226   4.214   2.286   4.420  4.3862  0.4858 -1.2120
   95SAPC  H14B 9227   4.281   2.198   4.295  0.3905  0.6856  2.1176
   95SAPC  H14C 9228   4.200   2.342   4.253 -0.2628  1.7896  0.5568
   95SAPC   C15 9229   4.101   2.049   4.390 -0.4140 -0.1306 -0.0569
   95SAPC  H15A 9230   4.103   2.084   4.493  0.9278  0.3121 -0.2074
   95SAPC  H15B 9231   4.026   1.974   4.377 -1.0477  0.3868  0.5397
   95SAPC  H15C 9232   4.203   2.022   4.365  0.9504  1.7131  2.8910
   95SAPC   C11 9233   3.816   2.155   4.380 -0.7640 -0.0335 -0.5658
   95SAPC  H11A 9234   3.737   2.232   4.388  1.3832  2.1040  1.3752
   95SAPC  H11B 9235   3.827   2.112   4.482 -1.2648 -0.5471 -0.7229
   95SAPC     P 9236   3.774   1.907   4.274  0.0364 -0.2446 -0.5625
   95SAPC   O13 9237   3.694   1.869   4.155 -0.0333 -0.1981 -0.5674
   95SAPC   O14 9238   3.900   1.831   4.293 -0.2435  0.0648  0.6597
   95SAPC   O12 9239   3.790   2.067   4.274 -0.3067  0.0347 -0.0668
   95SAPC   O11 9240   3.686   1.873   4.393 -0.3543  0.0337 -0.1049
   95SAPC    C1 9241   3.559   1.923   4.413  0.4742  0.6805 -0.3053
   95SAPC    HA 9242   3.556   2.034   4.415 -0.6114  0.6692 -0.3040
   95SAPC    HB 9243   3.496   1.863   4.343  2.7550 -1.9742 -0.2375
   95SAPC    C2 9244   3.500   1.888   4.546 -0.0341  0.2160  0.1469
   95SAPC    HS 9245   3.399   1.929   4.567 -0.9680 -0.1653 -3.0961
   95SAPC   O21 9246   3.579   1.951   4.648 -0.0694  0.1484 -0.3131
   95SAPC   C21 9247   3.574   2.078   4.682 -1.1475  0.0967 -0.5186
   95SAPC   O22 9248   3.516   2.167   4.625  0.2909  0.3287 -0.0072
   95SAPC   C22 9249   3.661   2.099   4.813 -0.0242 -0.5318  0.0875
   95SAPC   H2R 9250   3.692   2.000   4.853 -1.9252 -1.5367 -0.8037
   95SAPC   H2S 9251   3.751   2.147   4.769 -0.5275 -0.2678 -0.6774
   95SAPC    C3 9252   3.478   1.735   4.560 -0.0045 -0.0025 -0.5111
   95SAPC    HX 9253   3.581   1.694   4.553  0.0021  0.3633 -3.7441
   95SAPC    HY 9254   3.424   1.693   4.472 -1.1543  0.5726 -0.0993
   95SAPC   O31 9255   3.400   1.702   4.681 -0.4273  0.0748 -0.3665
   95SAPC   C31 9256   3.455   1.606   4.753  0.0626 -0.1765 -0.4127
   95SAPC   O32 9257   3.551   1.540   4.720  0.1772 -0.4983 -0.0818
   95SAPC   C32 9258   3.386   1.590   4.879  0.2714 -0.1121 -0.2179
   95SAPC   H2X 9259   3.286   1.543   4.865  0.0193  0.4818 -0.4358
   95SAPC   H2Y 9260   3.380   1.691   4.923 -2.4920 -0.2473 -0.1009
   95SAPC   C23 9261   3.590   2.196   4.913  0.5207 -0.3105 -0.4291
   95SAPC   H3R 9262   3.540   2.281   4.863 -3.4782 -1.0294  1.9027
   95SAPC   H3S 9263   3.668   2.240   4.979  0.4993 -0.2840 -0.4215
   95SAPC   C24 9264   3.491   2.123   5.012  0.1889 -0.0473 -0.2940
   95SAPC   H4R 9265   3.398   2.089   4.962  0.7106 -1.5392 -0.2814
   95SAPC   H4S 9266   3.459   2.192   5.093 -2.2036 -2.6354  1.1692
   95SAPC   C25 9267   3.557   1.998   5.074  0.0967  0.0857  0.1978
   95SAPC   H5R 9268   3.587   1.921   5.002 -0.5918 -0.1183  0.1205
   95SAPC   C26 9269   3.566   1.971   5.204 -0.2405 -0.9348 -0.0462
   95SAPC   H6R 9270   3.588   1.868   5.237 -0.8798 -0.7687  0.9331
   95SAPC   C27 9271   3.536   2.061   5.323  0.5171  0.1133  0.2542
   95SAPC   H7R 9272   3.454   2.131   5.296 -0.1393 -0.3240  1.0496
   95SAPC   H7S 9273   3.627   2.124   5.327 -0.6977  2.4715 -3.6469
   95SAPC   C28 9274   3.505   1.991   5.462 -0.5725 -0.3199  0.0577
   95SAPC   H8R 9275   3.398   1.966   5.458 -1.0941  1.7936 -1.2870
   95SAPC   C29 9276   3.585   1.954   5.564  0.0050  0.0794  0.0462
   95SAPC   H9R 9277   3.544   1.924   5.662 -1.2588  1.2921 -0.0980
   95SAPC  C210 9278   3.729   1.987   5.590  0.0871  0.3992  0.6168
   95SAPC  H10R 9279   3.777   2.007   5.491 -0.8604 -0.2245  0.0214
   95SAPC  H10S 9280   3.787   1.903   5.633  1.9031  1.6370  0.7145
   95SAPC  C211 9281   3.753   2.116   5.672  0.5039  0.6991 -0.5579
   95SAPC  H11R 9282   3.733   2.201   5.605  2.0123  0.9840 -0.6814
   95SAPC  C212 9283   3.810   2.136   5.792  0.1700 -0.4383 -0.2245
   95SAPC  H12R 9284   3.823   2.241   5.821 -2.8460  0.7396 -2.6036
   95SAPC  C213 9285   3.856   2.018   5.875 -0.0109 -0.0682  0.4848
   95SAPC  H13R 9286   3.893   1.934   5.812 -0.1017  1.3913 -1.6280
   95SAPC  H13S 9287   3.772   1.974   5.932 -0.6945  0.8098  0.1774
   95SAPC  C214 9288   3.963   2.062   5.975  0.6672 -0.0860  0.8119
   95SAPC  H14R 9289   4.038   2.122   5.922 -0.7985  1.0597 -0.0424
   95SAPC  C215 9290   3.975   2.037   6.106  0.6305 -0.1024  0.3663
   95SAPC  H15R 9291   4.051   2.096   6.161  0.2871  1.3532 -0.6593
   95SAPC  C216 9292   3.879   1.960   6.187  0.1208  0.5076 -0.2197
   95SAPC  H16R 9293   3.928   1.876   6.241 -1.0298 -1.4376 -2.0534
   95SAPC  H16S 9294   3.807   1.910   6.118 -0.1700  0.7518 -0.0945
   95SAPC  C217 9295   3.787   2.047   6.277 -0.4775 -0.6803 -0.0015
   95SAPC  H17R 9296   3.713   2.105   6.217 -0.8855  0.6279  1.6983
   95SAPC  H17S 9297   3.844   2.136   6.313 -0.0925 -0.7072 -0.5287
   95SAPC  C218 9298   3.715   1.973   6.390  0.3225  0.6746  0.1888
   95SAPC  H18R 9299   3.709   2.034   6.482 -0.1545 -1.0228  1.3247
   95SAPC  H18S 9300   3.774   1.885   6.425 -0.4591 -1.1511 -2.7222
   95SAPC  C219 9301   3.578   1.933   6.354  0.1527  0.0503 -0.2637
   95SAPC  H19R 9302   3.576   1.876   6.258 -0.2495 -0.8390  0.2628
   95SAPC  H19S 9303   3.518   2.026   6.344  1.1521  0.9572  1.6040
   95SAPC  C220 9304   3.500   1.848   6.462  0.1929  0.4639  0.9093
   95SAPC  H20R 9305   3.400   1.813   6.426  1.2484 -2.8534  0.8637
   95SAPC  H20S 9306   3.488   1.900   6.559  1.3134  1.9042  0.3172
   95SAPC  H20T 9307   3.567   1.762   6.486 -1.2994 -0.9087  0.3759
   95SAPC   C33 9308   3.447   1.488   4.970 -0.5304 -0.5456  0.5420
   95SAPC   H3X 9309   3.557   1.480   4.974 -0.4413  0.0213 -0.4995
   95SAPC   H3Y 9310   3.419   1.383   4.945  0.5947 -0.8103  0.3388
   95SAPC   C34 9311   3.390   1.506   5.109 -0.0504 -0.0831 -0.3846
   95SAPC   H4X 9312   3.280   1.494   5.101  0.0772 -2.1765  0.3373
   95SAPC   H4Y 9313   3.407   1.609   5.147 -1.9554  0.8289 -1.8472
   95SAPC   C35 9314   3.416   1.387   5.201  0.0990 -0.3170  0.6523
   95SAPC   H5X 9315   3.392   1.298   5.139 -1.0736  1.6821 -1.9459
   95SAPC   H5Y 9316   3.348   1.394   5.289  0.3888 -0.7969  0.9185
   95SAPC   C36 9317   3.560   1.379   5.244 -0.1848 -0.2136 -0.6864
   95SAPC   H6X 9318   3.631   1.424   5.172 -0.2412 -0.0091 -0.6159
   95SAPC   H6Y 9319   3.586   1.272   5.237  0.2832 -0.1127 -0.4978
   95SAPC   C37 9320   3.592   1.438   5.381 -0.3395 -0.0343 -0.6038
   95SAPC   H7X 9321   3.500   1.429   5.443 -0.0528 -0.4663 -0.2414
   95SAPC   H7Y 9322   3.606   1.546   5.357 -0.6581 -0.1994 -1.5792
   95SAPC   C38 9323   3.720   1.376   5.438  0.0856 -0.1182  0.0775
   95SAPC   H8X 9324   3.812   1.409   5.385 -1.3201  3.8161 -0.2534
   95SAPC   H8Y 9325   3.702   1.267   5.423  0.1507  0.2499 -3.9856
   95SAPC   C39 9326   3.750   1.409   5.583  0.2710 -0.2632 -0.3317
   95SAPC   H9X 9327   3.851   1.374   5.613  1.6059  2.6229 -1.0682
   95SAPC   H9Y 9328   3.673   1.357   5.643  3.4033 -1.7548  2.7423
   95SAPC  C310 9329   3.747   1.561   5.608  0.3813  0.4628 -0.1210
   95SAPC  H10X 9330   3.645   1.599   5.585  0.2018  0.5522  0.8126
   95SAPC  H10Y 9331   3.805   1.611   5.527  1.0201  0.6068  0.4189
   95SAPC  C311 9332   3.791   1.607   5.747  0.8745 -0.8227 -0.9350
   95SAPC  H11X 9333   3.780   1.717   5.757  0.7220 -0.8954 -0.2911
   95SAPC  H11Y 9334   3.898   1.585   5.767  1.3861  0.9392 -1.5333
   95SAPC  C312 9335   3.709   1.535   5.857 -0.2044  0.1494  0.5416
   95SAPC  H12X 9336   3.729   1.425   5.851  1.8827  0.4940  0.3635
   95SAPC  H12Y 9337   3.599   1.549   5.848 -0.4588 -0.1985  2.5992
   95SAPC  C313 9338   3.756   1.566   5.996 -0.4366  0.2550  0.4210
   95SAPC  H13X 9339   3.724   1.668   6.027 -0.7991 -0.0381  1.0232
   95SAPC  H13Y 9340   3.867   1.564   6.006 -0.2955 -1.7887 -0.9270
   95SAPC  C314 9341   3.696   1.478   6.107  0.4115  0.6816 -0.1572
   95SAPC  H14X 9342   3.694   1.371   6.077 -2.1545  1.0701 -1.6621
   95SAPC  H14Y 9343   3.592   1.511   6.127  0.3222 -0.0111  0.5582
   95SAPC  C315 9344   3.767   1.483   6.248 -0.9398 -0.5275  0.3959
   95SAPC  H15X 9345   3.712   1.413   6.315 -0.0817 -1.3657  0.2523
   95SAPC  H15Y 9346   3.771   1.588   6.283  2.3265 -1.1831  2.4354
   95SAPC  C316 9347   3.911   1.436   6.249 -0.7675  0.4067 -0.2556
   95SAPC  H16X 9348   3.969   1.494   6.174  0.6965 -2.2934 -1.3429
   95SAPC  H16Y 9349   3.920   1.329   6.222  3.0940  0.7887 -1.1445
   95SAPC  C317 9350   3.967   1.466   6.390  0.0715 -0.3086 -0.1810
   95SAPC  H17X 9351   4.059   1.404   6.396  0.7890  0.7620  0.1317
   95SAPC  H17Y 9352   3.898   1.423   6.466  0.3649  0.4590  0.5232
   95SAPC  C318 9353   4.006   1.611   6.417 -0.0684 -0.1777 -0.2597
   95SAPC  H18X 9354   4.051   1.615   6.518  0.4275  0.0179 -0.4854
   95SAPC  H18Y 9355   3.920   1.681   6.405  1.8544  2.2000 -1.0591
   95SAPC  H18Z 9356   4.072   1.642   6.333 -1.9674  0.4231 -1.6001
   96SAPC     N 9357   4.732   4.061   3.864 -0.3734  0.4001 -0.1453
   96SAPC   C12 9358   4.644   4.048   3.996  0.1652 -0.6226  0.3476
   96SAPC  H12A 9359   4.545   4.015   3.966 -0.1181  0.6468 -0.1650
   96SAPC  H12B 9360   4.640   4.147   4.038  2.3325 -0.6619  0.7173
   96SAPC   C13 9361   4.848   4.135   3.901  0.0502 -0.1426 -0.2668
   96SAPC  H13A 9362   4.919   4.134   3.819 -0.0648 -0.5522 -0.3610
   96SAPC  H13B 9363   4.825   4.240   3.914  0.2674  0.0514 -1.3520
   96SAPC  H13C 9364   4.896   4.100   3.992 -0.5119  0.9831  0.4802
   96SAPC   C14 9365   4.770   3.928   3.812  0.2066  0.1190 -0.3548
   96SAPC  H14A 9366   4.683   3.871   3.787 -0.3163 -0.2756  2.1084
   96SAPC  H14B 9367   4.819   3.931   3.716  0.2991 -0.4736 -0.3295
   96SAPC  H14C 9368   4.812   3.865   3.889 -3.5911 -0.6783  1.3044
   96SAPC   C15 9369   4.649   4.135   3.756 -0.1114 -0.1836  0.4954
   96SAPC  H15A 9370   4.615   4.232   3.787 -1.7213 -0.6740  0.4039
   96SAPC  H15B 9371   4.706   4.150   3.666 -0.6334  1.4451  0.4091
   96SAPC  H15C 9372   4.564   4.079   3.719  0.9719 -1.4730 -0.1168
   96SAPC   C11 9373   4.706   3.942   4.092 -0.1536  0.0427  0.1258
   96SAPC  H11A 9374   4.649   3.958   4.186 -0.3372 -1.1579  0.2365
   96SAPC  H11B 9375   4.813   3.964   4.113  0.2418 -0.2760 -1.4765
   96SAPC     P 9376   4.562   3.719   4.071 -0.0066 -0.1065  0.1013
   96SAPC   O13 9377   4.448   3.795   4.010  0.9381 -0.5939  0.0881
   96SAPC   O14 9378   4.594   3.581   4.028 -0.0830 -0.6750 -0.3010
   96SAPC   O12 9379   4.694   3.805   4.052  0.6472  0.2798  0.1463
   96SAPC   O11 9380   4.530   3.724   4.229 -0.0876  0.1636 -0.8049
   96SAPC    C1 9381   4.636   3.691   4.323  0.2240 -0.0878 -0.1811
   96SAPC    HA 9382   4.730   3.656   4.275  1.3792  2.1304  0.3095
   96SAPC    HB 9383   4.653   3.784   4.381 -0.4252 -0.6409  0.9205
   96SAPC    C2 9384   4.594   3.583   4.425 -0.1355 -0.1073  0.1607
   96SAPC    HS 9385   4.590   3.487   4.369 -0.3129  1.2200 -2.2396
   96SAPC   O21 9386   4.475   3.623   4.488  0.1238 -0.1957  0.2744
   96SAPC   C21 9387   4.418   3.529   4.558 -0.3913 -0.8666 -0.1655
   96SAPC   O22 9388   4.453   3.413   4.558 -0.1121  0.1886  0.2266
   96SAPC   C22 9389   4.301   3.586   4.634  0.1874 -0.4028  0.2482
   96SAPC   H2R 9390   4.323   3.551   4.738  3.9066  0.9932  0.0975
   96SAPC   H2S 9391   4.318   3.696   4.628  1.2188 -0.5258  0.7496
   96SAPC    C3 9392   4.716   3.548   4.525 -0.0278  0.3127  0.4410
   96SAPC    HX 9393   4.794   3.487   4.474  0.0485 -0.8781  1.9402
   96SAPC    HY 9394   4.678   3.477   4.601 -0.5215  0.1660  0.0635
   96SAPC   O31 9395   4.792   3.655   4.577  0.2579 -0.2163 -0.7270
   96SAPC   C31 9396   4.726   3.725   4.674  0.2433  0.1675 -1.1835
   96SAPC   O32 9397   4.623   3.683   4.723  0.4102  0.0251  0.2260
   96SAPC   C32 9398   4.812   3.842   4.717  0.0403  0.3605 -0.1404
   96SAPC   H2X 9399   4.771   3.931   4.665 -2.3317 -1.0848 -0.9338
   96SAPC   H2Y 9400   4.915   3.825   4.679 -0.0146  0.0859 -0.1711
   96SAPC   C23 9401   4.167   3.528   4.580  0.0408 -0.7597 -0.6804
   96SAPC   H3R 9402   4.153   3.419   4.593 -1.4240 -0.4519  0.4765
   96SAPC   H3S 9403   4.155   3.551   4.472 -0.5228  0.8638 -0.3068
   96SAPC   C24 9404   4.045   3.613   4.648  0.3715 -0.1235  0.1372
   96SAPC   H4R 9405   4.033   3.582   4.754 -3.3386 -0.1752 -0.1825
   96SAPC   H4S 9406   3.944   3.600   4.603 -0.4040  0.8295  1.5215
   96SAPC   C25 9407   4.060   3.765   4.649  0.2076 -0.4179  0.2152
   96SAPC   H5R 9408   4.103   3.804   4.555 -0.5882  1.1483  0.4520
   96SAPC   C26 9409   4.031   3.846   4.756  0.6322 -0.0806  0.0862
   96SAPC   H6R 9410   4.055   3.952   4.743  0.9492 -0.2791 -1.0740
   96SAPC   C27 9411   3.975   3.801   4.890 -0.4710 -0.2567 -0.1298
   96SAPC   H7R 9412   3.912   3.710   4.878 -0.8572 -0.2070  1.3217
   96SAPC   H7S 9413   3.905   3.882   4.921  1.6542  0.9729  1.8199
   96SAPC   C28 9414   4.076   3.786   5.003 -0.0188  0.2523 -0.1436
   96SAPC   H8R 9415   4.179   3.775   4.967 -0.4990  1.7066 -2.1522
   96SAPC   C29 9416   4.049   3.803   5.136 -0.2123 -0.1530 -0.0074
   96SAPC   H9R 9417   4.131   3.786   5.208  0.4317 -0.4714 -0.8092
   96SAPC  C210 9418   3.901   3.815   5.182  0.0092 -0.3464 -0.2932
   96SAPC  H10R 9419   3.891   3.787   5.289 -0.6764  0.4765 -0.1249
   96SAPC  H10S 9420   3.844   3.730   5.139 -0.1288  0.1295 -1.0686
   96SAPC  C211 9421   3.830   3.954   5.169  0.1491 -0.3318  0.0820
   96SAPC  H11R 9422   3.863   4.022   5.090 -0.9271 -1.2632 -1.2116
   96SAPC  C212 9423   3.733   4.002   5.250  0.6526  0.4869  0.4078
   96SAPC  H12R 9424   3.701   4.105   5.226  2.5619  0.3513 -3.5925
   96SAPC  C213 9425   3.658   3.920   5.349  0.3578  0.1867 -0.0497
   96SAPC  H13R 9426   3.667   3.811   5.327  0.9322 -0.2798  2.2284
   96SAPC  H13S 9427   3.550   3.944   5.334  0.2446  0.1715  0.7036
   96SAPC  C214 9428   3.712   3.951   5.485  0.0807 -0.1085  0.4009
   96SAPC  H14R 9429   3.809   4.003   5.483  1.0520 -1.8723 -0.5653
   96SAPC  C215 9430   3.638   3.948   5.597 -0.1438  0.2398 -0.7397
   96SAPC  H15R 9431   3.676   3.952   5.700  1.2090  0.6691 -1.2307
   96SAPC  C216 9432   3.487   3.897   5.607  0.1517 -0.4690 -0.3427
   96SAPC  H16R 9433   3.483   3.795   5.650  1.8684  0.1327  1.4004
   96SAPC  H16S 9434   3.435   3.874   5.512  1.7028 -1.1697 -1.0442
   96SAPC  C217 9435   3.408   3.981   5.710 -0.1899  0.9133 -0.0274
   96SAPC  H17R 9436   3.373   4.078   5.669 -0.2863  1.4517  1.2808
   96SAPC  H17S 9437   3.470   4.006   5.798  0.2819  0.1187 -0.1210
   96SAPC  C218 9438   3.285   3.902   5.768 -0.0499  0.2828 -0.8354
   96SAPC  H18R 9439   3.327   3.814   5.822 -1.9715 -2.4871 -3.4921
   96SAPC  H18S 9440   3.236   3.853   5.681 -1.0872 -1.5790  0.7069
   96SAPC  C219 9441   3.179   3.984   5.843 -0.5994  0.5900 -0.1113
   96SAPC  H19R 9442   3.225   4.035   5.930 -1.9304 -1.2666  1.7938
   96SAPC  H19S 9443   3.114   3.905   5.888  0.6767 -0.0946  0.5943
   96SAPC  C220 9444   3.102   4.085   5.761 -0.3230 -0.5594  0.0995
   96SAPC  H20R 9445   3.026   4.136   5.823 -1.2418 -0.9158 -0.7117
   96SAPC  H20S 9446   3.035   4.042   5.683  0.2383  1.6800 -1.7493
   96SAPC  H20T 9447   3.161   4.167   5.715  1.0473 -1.3363  0.4033
   96SAPC   C33 9448   4.805   3.865   4.873  0.5325  0.0603 -0.2588
   96SAPC   H3X 9449   4.791   3.771   4.931  2.2375  0.3069  0.6368
   96SAPC   H3Y 9450   4.718   3.933   4.880  0.1014 -0.3942 -1.1405
   96SAPC   C34 9451   4.926   3.925   4.942 -0.9855 -0.6911  0.4879
   96SAPC   H4X 9452   4.969   4.005   4.878  2.0212 -1.5784  1.2450
   96SAPC   H4Y 9453   5.008   3.851   4.940 -0.2908 -0.0313 -2.9869
   96SAPC   C35 9454   4.908   3.987   5.084 -0.4422  0.1918 -0.0944
   96SAPC   H5X 9455   4.819   4.053   5.078  0.0114  0.7887 -0.3014
   96SAPC   H5Y 9456   4.988   4.057   5.116 -1.0922  0.7932  0.2401
   96SAPC   C36 9457   4.886   3.883   5.190 -0.4559  0.0625  0.2059
   96SAPC   H6X 9458   4.982   3.835   5.217  0.2267  1.0787 -0.3957
   96SAPC   H6Y 9459   4.801   3.817   5.161 -2.0504  1.6394  1.1255
   96SAPC   C37 9460   4.855   3.953   5.320 -0.2692 -0.8706  0.3696
   96SAPC   H7X 9461   4.762   4.006   5.293  0.9070  1.7747  1.1805
   96SAPC   H7Y 9462   4.930   4.030   5.348 -0.5451 -0.5491  0.2181
   96SAPC   C38 9463   4.812   3.865   5.437 -0.0078 -0.2376  0.5985
   96SAPC   H8X 9464   4.895   3.801   5.476  0.0424  0.3185  1.4398
   96SAPC   H8Y 9465   4.750   3.784   5.395 -0.4988  1.2958 -1.8121
   96SAPC   C39 9466   4.753   3.932   5.556 -0.0901  0.1945  0.0129
   96SAPC   H9X 9467   4.651   3.970   5.530 -0.1668 -0.2373 -0.3187
   96SAPC   H9Y 9468   4.819   4.020   5.574 -1.1731  1.1457 -0.4641
   96SAPC  C310 9469   4.750   3.840   5.686 -0.0505 -0.0395  0.8362
   96SAPC  H10X 9470   4.852   3.804   5.708  0.3475  0.1909 -0.5026
   96SAPC  H10Y 9471   4.691   3.749   5.663  0.7815 -0.5248  0.5975
   96SAPC  C311 9472   4.684   3.921   5.805  1.0459  0.1647  0.3881
   96SAPC  H11X 9473   4.585   3.966   5.782  1.9615  1.5687 -0.9558
   96SAPC  H11Y 9474   4.758   4.002   5.822  0.9077  0.4142 -0.2016
   96SAPC  C312 9475   4.683   3.838   5.936 -0.0577  0.0577  0.6996
   96SAPC  H12X 9476   4.686   3.734   5.897 -2.5171 -0.0249  0.5791
   96SAPC  H12Y 9477   4.587   3.853   5.991  0.7239 -2.5659  3.0052
   96SAPC  C313 9478   4.803   3.869   6.022 -0.2245 -0.2664 -0.7501
   96SAPC  H13X 9479   4.798   3.978   6.045  2.2583 -0.1833 -0.3064
   96SAPC  H13Y 9480   4.894   3.858   5.959  0.7363 -1.5750  0.7992
   96SAPC  C314 9481   4.806   3.800   6.154  0.1687  0.5771 -0.0758
   96SAPC  H14X 9482   4.711   3.833   6.201  0.6092 -1.3450  2.3698
   96SAPC  H14Y 9483   4.887   3.845   6.216 -1.1957  0.7751  1.6153
   96SAPC  C315 9484   4.810   3.647   6.137 -0.0936  0.2011 -0.5866
   96SAPC  H15X 9485   4.899   3.619   6.077 -1.9947 -2.1256 -2.5840
   96SAPC  H15Y 9486   4.727   3.602   6.078 -1.9812  1.9933  0.5924
   96SAPC  C316 9487   4.822   3.576   6.276 -0.2699  0.2346  0.2335
   96SAPC  H16X 9488   4.841   3.469   6.253  1.6144  0.3375  1.1638
   96SAPC  H16Y 9489   4.730   3.594   6.335 -0.2132 -0.0409  0.4091
   96SAPC  C317 9490   4.951   3.618   6.353  0.1597 -0.6360 -0.7877
   96SAPC  H17X 9491   4.950   3.725   6.383  0.2901 -0.7592 -0.3441
   96SAPC  H17Y 9492   5.030   3.596   6.278 -1.5333 -3.6596 -1.8617
   96SAPC  C318 9493   4.977   3.540   6.485  0.4100 -0.4056  0.4604
   96SAPC  H18X 9494   5.086   3.532   6.503  0.1807 -0.6623  1.9046
   96SAPC  H18Y 9495   4.932   3.439   6.478 -2.1475  0.6878 -0.0937
   96SAPC  H18Z 9496   4.918   3.581   6.571 -0.6668 -0.5224 -0.2016
   97SAPC     N 9497   3.115   4.081   4.402  0.5969 -0.4446  0.2818
   97SAPC   C12 9498   3.111   4.241   4.378  0.0679 -0.2928  0.0996
   97SAPC  H12A 9499   3.072   4.292   4.465 -0.4778 -1.2217  0.4134
   97SAPC  H12B 9500   3.043   4.259   4.296 -0.6620  2.7458  1.2280
   97SAPC   C13 9501   3.194   4.059   4.527 -0.0387  0.5536 -0.2162
   97SAPC  H13A 9502   3.299   4.083   4.512 -0.2916  1.5751 -0.4278
   97SAPC  H13B 9503   3.163   4.117   4.613 -0.9155 -0.0785 -0.1015
   97SAPC  H13C 9504   3.188   3.957   4.560  0.7112  0.5688  0.0038
   97SAPC   C14 9505   2.978   4.020   4.428 -0.0183 -0.1001  0.1543
   97SAPC  H14A 9506   2.939   4.052   4.524  1.0873 -0.3614  0.7041
   97SAPC  H14B 9507   2.906   4.044   4.351 -0.7872 -0.3621  0.7748
   97SAPC  H14C 9508   2.987   3.914   4.446 -1.4904  0.0982  2.5220
   97SAPC   C15 9509   3.172   4.007   4.281  0.1617  0.1863  0.0984
   97SAPC  H15A 9510   3.151   3.901   4.279  2.2865 -0.2743 -0.8518
   97SAPC  H15B 9511   3.132   4.045   4.188 -2.1402 -0.6059  0.7016
   97SAPC  H15C 9512   3.276   4.033   4.275  0.2978 -0.2498  0.5455
   97SAPC   C11 9513   3.248   4.309   4.345  0.0527 -0.5205  0.9176
   97SAPC  H11A 9514   3.236   4.397   4.278 -1.5438 -2.9285 -2.2649
   97SAPC  H11B 9515   3.307   4.239   4.282  2.3677  0.0809  2.2843
   97SAPC     P 9516   3.285   4.442   4.558 -0.0690  0.4830  0.4140
   97SAPC   O13 9517   3.305   4.568   4.485  0.0807  1.1461 -0.7057
   97SAPC   O14 9518   3.147   4.415   4.602 -0.1415  0.0705 -0.3053
   97SAPC   O12 9519   3.330   4.332   4.458 -0.1006 -0.2103 -0.1209
   97SAPC   O11 9520   3.389   4.438   4.684  0.4540  0.4915  0.3025
   97SAPC    C1 9521   3.518   4.388   4.651 -0.1774  0.1125 -0.3574
   97SAPC    HA 9522   3.554   4.422   4.551 -2.5413  0.9207 -0.9907
   97SAPC    HB 9523   3.592   4.420   4.728  0.0386  0.3141 -0.6487
   97SAPC    C2 9524   3.527   4.232   4.669 -0.4393  0.4681 -0.6701
   97SAPC    HS 9525   3.440   4.185   4.620 -0.4472  0.5336 -0.7199
   97SAPC   O21 9526   3.512   4.211   4.814  0.9924 -0.4264  0.1399
   97SAPC   C21 9527   3.379   4.204   4.862  0.1452  0.2661 -0.2463
   97SAPC   O22 9528   3.281   4.182   4.794 -0.2035  0.4776  0.3030
   97SAPC   C22 9529   3.368   4.212   5.017 -0.1793  0.3165  0.8831
   97SAPC   H2R 9530   3.262   4.241   5.030 -0.5946 -1.1245  0.8655
   97SAPC   H2S 9531   3.372   4.111   5.064  0.6588 -0.4019 -0.6690
   97SAPC    C3 9532   3.655   4.169   4.621  0.1772  0.1105 -0.0594
   97SAPC    HX 9533   3.728   4.231   4.677 -0.4108  1.5548 -0.8601
   97SAPC    HY 9534   3.671   4.180   4.512  1.4375 -1.6527 -0.1017
   97SAPC   O31 9535   3.674   4.027   4.660 -0.0506 -0.1200 -0.2673
   97SAPC   C31 9536   3.620   3.947   4.578 -0.2466  0.1757 -0.0707
   97SAPC   O32 9537   3.558   3.973   4.476  0.3144  0.3299  0.4934
   97SAPC   C32 9538   3.653   3.809   4.635 -1.0582  0.8182  0.7688
   97SAPC   H2X 9539   3.731   3.823   4.713 -1.0304  2.1333  0.5225
   97SAPC   H2Y 9540   3.701   3.752   4.552 -0.6970  1.7569  0.3243
   97SAPC   C23 9541   3.449   4.332   5.077 -0.4305  0.1036 -0.1375
   97SAPC   H3R 9542   3.420   4.426   5.026  2.0073  1.5986  1.0836
   97SAPC   H3S 9543   3.559   4.315   5.074 -0.3309  0.7208  0.0642
   97SAPC   C24 9544   3.405   4.367   5.221 -0.2876 -0.1700  0.0197
   97SAPC   H4R 9545   3.312   4.427   5.215  0.4338  0.9210 -0.7441
   97SAPC   H4S 9546   3.478   4.446   5.251 -0.7452  0.4717 -0.5278
   97SAPC   C25 9547   3.398   4.259   5.318  0.2557 -0.4438 -0.4384
   97SAPC   H5R 9548   3.494   4.204   5.327  0.0737 -0.4258  2.9122
   97SAPC   C26 9549   3.289   4.207   5.380 -0.3870 -0.1260  0.4754
   97SAPC   H6R 9550   3.307   4.125   5.451  1.5218 -0.3226 -0.1748
   97SAPC   C27 9551   3.144   4.266   5.380 -0.5831 -0.2880  0.6816
   97SAPC   H7R 9552   3.155   4.374   5.354  2.9009 -0.0265  2.6237
   97SAPC   H7S 9553   3.100   4.258   5.482  1.6817  0.4978  1.8012
   97SAPC   C28 9554   3.049   4.194   5.288  0.1276 -0.4244 -0.0438
   97SAPC   H8R 9555   3.104   4.155   5.201 -0.0359  0.0910 -0.3835
   97SAPC   C29 9556   2.917   4.180   5.295  0.0525 -0.0517 -0.0231
   97SAPC   H9R 9557   2.863   4.120   5.220 -0.8960 -1.7032  1.8456
   97SAPC  C210 9558   2.822   4.230   5.405  0.7701  0.4471  0.0625
   97SAPC  H10R 9559   2.817   4.158   5.490 -2.6223  1.5314  0.9229
   97SAPC  H10S 9560   2.724   4.223   5.352  1.4399  0.5158 -1.2338
   97SAPC  C211 9561   2.822   4.365   5.465 -0.1681  0.2729  0.7253
   97SAPC  H11R 9562   2.901   4.434   5.431 -0.0257  0.8582  2.1569
   97SAPC  C212 9563   2.740   4.400   5.573 -0.1069 -0.9550 -0.2644
   97SAPC  H12R 9564   2.723   4.505   5.604 -0.0140 -0.1355 -2.7019
   97SAPC  C213 9565   2.649   4.300   5.644  0.0454  0.3142 -0.1991
   97SAPC  H13R 9566   2.600   4.232   5.571  1.5232  0.0576 -0.9923
   97SAPC  H13S 9567   2.562   4.352   5.690  1.0483  0.9338  1.0568
   97SAPC  C214 9568   2.726   4.225   5.756 -0.4429 -0.2536 -0.0738
   97SAPC  H14R 9569   2.836   4.232   5.760 -0.5249  0.9191  0.4230
   97SAPC  C215 9570   2.679   4.143   5.853 -0.4149 -0.8069  0.1387
   97SAPC  H15R 9571   2.747   4.108   5.931  0.7979 -1.2411 -1.0626
   97SAPC  C216 9572   2.528   4.134   5.881 -0.2790  0.1942 -0.5303
   97SAPC  H16R 9573   2.496   4.030   5.906 -1.1559  0.3177 -1.1199
   97SAPC  H16S 9574   2.472   4.160   5.788 -1.2423 -0.0896 -0.0371
   97SAPC  C217 9575   2.478   4.227   5.990 -0.4580 -0.9326  0.3515
   97SAPC  H17R 9576   2.369   4.209   5.999 -0.6481  0.7778  2.0112
   97SAPC  H17S 9577   2.501   4.331   5.956 -0.1664 -1.4327 -1.0555
   97SAPC  C218 9578   2.546   4.196   6.124  0.5887  0.3782 -0.1529
   97SAPC  H18R 9579   2.651   4.229   6.112 -0.2812  3.6658  0.2501
   97SAPC  H18S 9580   2.537   4.087   6.141 -0.9194  0.7571  1.9142
   97SAPC  C219 9581   2.478   4.276   6.234  0.4790 -0.1456 -0.5203
   97SAPC  H19R 9582   2.526   4.254   6.332 -1.6592  0.7986  0.8048
   97SAPC  H19S 9583   2.373   4.242   6.248 -0.5732  0.3107 -5.3658
   97SAPC  C220 9584   2.482   4.423   6.203  0.0685 -0.6351 -0.1911
   97SAPC  H20R 9585   2.460   4.471   6.301 -0.3535  1.2618 -1.1765
   97SAPC  H20S 9586   2.410   4.456   6.125  0.2198  1.1466  0.3866
   97SAPC  H20T 9587   2.584   4.447   6.165 -0.7038  1.1585 -1.2353
   97SAPC   C33 9588   3.524   3.743   4.684  0.6295 -0.1271 -0.0413
   97SAPC   H3X 9589   3.531   3.640   4.644 -0.2947  0.0078 -0.5940
   97SAPC   H3Y 9590   3.433   3.791   4.642 -0.1136 -0.5301  1.0643
   97SAPC   C34 9591   3.502   3.735   4.832 -0.4861  0.5179  0.2013
   97SAPC   H4X 9592   3.602   3.701   4.869  0.2927 -2.5996 -4.0748
   97SAPC   H4Y 9593   3.430   3.653   4.854  0.5236 -0.1583  1.1300
   97SAPC   C35 9594   3.448   3.861   4.904 -0.7812  0.5960  0.0412
   97SAPC   H5X 9595   3.348   3.896   4.870 -0.1234  2.5773  0.0237
   97SAPC   H5Y 9596   3.524   3.938   4.880  0.7207 -0.9018 -0.1890
   97SAPC   C36 9597   3.427   3.844   5.054 -0.2943  0.4419  0.0090
   97SAPC   H6X 9598   3.473   3.933   5.100  0.8663  0.5720 -1.3188
   97SAPC   H6Y 9599   3.473   3.749   5.089  0.1721  0.4030 -0.6806
   97SAPC   C37 9600   3.281   3.848   5.084 -0.7757  0.2584  0.6958
   97SAPC   H7X 9601   3.230   3.771   5.022 -0.4519  0.5022  0.1172
   97SAPC   H7Y 9602   3.231   3.942   5.052 -0.8398  0.4030  1.2073
   97SAPC   C38 9603   3.237   3.828   5.228  0.1957  0.4940  0.4816
   97SAPC   H8X 9604   3.130   3.856   5.234  0.1240  0.0537  1.5575
   97SAPC   H8Y 9605   3.290   3.902   5.291 -0.3907  1.5976 -0.3038
   97SAPC   C39 9606   3.263   3.690   5.287  0.1633 -0.7184  0.7591
   97SAPC   H9X 9607   3.369   3.658   5.290 -0.5691 -3.2865  1.8095
   97SAPC   H9Y 9608   3.215   3.617   5.218  1.0413  0.3866 -1.0921
   97SAPC  C310 9609   3.212   3.684   5.434  0.9098  0.5784 -0.5499
   97SAPC  H10X 9610   3.107   3.719   5.447  0.2093 -1.0917 -1.3764
   97SAPC  H10Y 9611   3.265   3.759   5.496 -1.4388  1.5934  0.3574
   97SAPC  C311 9612   3.223   3.549   5.505  0.1670 -0.1561  0.0362
   97SAPC  H11X 9613   3.329   3.516   5.492 -0.2728 -0.9358 -2.0550
   97SAPC  H11Y 9614   3.180   3.469   5.441 -0.5552  1.0067 -0.9702
   97SAPC  C312 9615   3.181   3.540   5.646 -0.3523  0.5089  0.8368
   97SAPC  H12X 9616   3.073   3.516   5.659  0.1196 -0.8576  2.6134
   97SAPC  H12Y 9617   3.195   3.638   5.696  0.6404  1.1581 -0.6423
   97SAPC  C313 9618   3.257   3.428   5.716 -0.0273  0.0914  0.4015
   97SAPC  H13X 9619   3.363   3.459   5.731  0.1389 -1.6330  3.7200
   97SAPC  H13Y 9620   3.254   3.336   5.655 -0.3424 -0.2153  0.8712
   97SAPC  C314 9621   3.192   3.410   5.849 -0.0370  0.8085 -0.5642
   97SAPC  H14X 9622   3.090   3.364   5.848  0.5236 -0.4815 -1.5437
   97SAPC  H14Y 9623   3.190   3.513   5.890  0.7546  1.3365 -1.7996
   97SAPC  C315 9624   3.289   3.338   5.941  0.9755 -0.7700  0.4252
   97SAPC  H15X 9625   3.386   3.392   5.954  0.7115 -0.0496 -0.5545
   97SAPC  H15Y 9626   3.306   3.238   5.896  2.7017 -0.7897  1.0366
   97SAPC  C316 9627   3.239   3.318   6.086 -1.0238  0.1372 -0.2087
   97SAPC  H16X 9628   3.138   3.272   6.083 -0.7480 -0.4266 -1.2955
   97SAPC  H16Y 9629   3.231   3.419   6.131 -1.6621 -1.3587  3.4127
   97SAPC  C317 9630   3.345   3.229   6.165  0.2467  0.1381 -0.1798
   97SAPC  H17X 9631   3.440   3.282   6.188  2.3848 -2.7250 -1.7882
   97SAPC  H17Y 9632   3.364   3.142   6.099  3.6144  1.4565 -1.1576
   97SAPC  C318 9633   3.285   3.171   6.301 -0.3902 -0.1397  0.5479
   97SAPC  H18X 9634   3.205   3.098   6.277 -0.4351 -0.2828  1.1021
   97SAPC  H18Y 9635   3.222   3.242   6.358 -0.1886  0.4125  0.0817
   97SAPC  H18Z 9636   3.359   3.114   6.362  0.2613 -1.4786 -1.4073
   98SAPC     N 9637   5.823   1.109   3.429 -0.8808  0.7428  0.5897
   98SAPC   C12 9638   5.776   0.964   3.438 -0.6304  0.4531 -0.5247
   98SAPC  H12A 9639   5.807   0.932   3.536  2.2820  2.1752 -0.7561
   98SAPC  H12B 9640   5.817   0.902   3.359 -1.2261 -0.7427  0.0860
   98SAPC   C13 9641   5.784   1.178   3.555  0.3418 -0.0390  0.3602
   98SAPC  H13A 9642   5.855   1.258   3.571  0.3372 -0.2664  1.5958
   98SAPC  H13B 9643   5.681   1.208   3.549 -0.2989 -2.2124 -0.1587
   98SAPC  H13C 9644   5.780   1.112   3.640 -1.0726 -1.8000 -1.0165
   98SAPC   C14 9645   5.972   1.089   3.424 -0.0103 -0.7058  0.5094
   98SAPC  H14A 9646   6.018   1.175   3.376 -0.4994 -0.8393 -0.2079
   98SAPC  H14B 9647   6.021   1.091   3.520  2.6681  3.5336 -0.6419
   98SAPC  H14C 9648   5.999   0.999   3.371 -1.3707 -0.7382 -0.1509
   98SAPC   C15 9649   5.777   1.182   3.301  0.0820  0.2684 -0.3439
   98SAPC  H15A 9650   5.800   1.287   3.305 -1.9141  0.6910  1.4905
   98SAPC  H15B 9651   5.812   1.122   3.218  0.0154 -1.7395  0.9901
   98SAPC  H15C 9652   5.669   1.179   3.291  0.1125 -0.0542 -0.5938
   98SAPC   C11 9653   5.620   0.934   3.428  0.0620 -0.8442 -0.5724
   98SAPC  H11A 9654   5.605   0.824   3.433  0.1762 -0.8525 -0.3959
   98SAPC  H11B 9655   5.597   0.983   3.331  0.3142  0.2652 -0.0985
   98SAPC     P 9656   5.549   0.945   3.678  0.0050  0.0276  0.0458
   98SAPC   O13 9657   5.549   1.066   3.760 -0.0272  0.0242 -0.2810
   98SAPC   O14 9658   5.437   0.850   3.687  0.1472  0.1028  0.2739
   98SAPC   O12 9659   5.552   0.996   3.532 -0.3147  0.7252 -0.3094
   98SAPC   O11 9660   5.693   0.878   3.708  0.3147 -0.4328  0.0810
   98SAPC    C1 9661   5.701   0.735   3.729 -0.0653 -0.3374  0.0933
   98SAPC    HA 9662   5.657   0.665   3.654 -0.1640 -1.0438  0.7990
   98SAPC    HB 9663   5.809   0.707   3.729 -0.1721 -0.8078  1.2370
   98SAPC    C2 9664   5.644   0.693   3.869  0.0689  0.8074 -0.9301
   98SAPC    HS 9665   5.533   0.705   3.862 -0.5806 -2.5413  1.2467
   98SAPC   O21 9666   5.703   0.776   3.974 -0.2557  0.2152  0.3419
   98SAPC   C21 9667   5.637   0.786   4.086  0.1843  0.2628 -0.1983
   98SAPC   O22 9668   5.529   0.733   4.111 -0.1060 -0.0738 -0.3586
   98SAPC   C22 9669   5.707   0.874   4.184  0.2976 -0.5721 -0.5243
   98SAPC   H2R 9670   5.772   0.943   4.126  0.7032  0.8866  1.5654
   98SAPC   H2S 9671   5.638   0.930   4.251  2.3043  1.0269  0.3172
   98SAPC    C3 9672   5.648   0.539   3.880 -0.0117  0.3294 -0.3017
   98SAPC    HX 9673   5.651   0.493   3.779 -0.5801  0.4825 -0.3959
   98SAPC    HY 9674   5.555   0.507   3.932  0.1805  0.1404 -0.0736
   98SAPC   O31 9675   5.762   0.495   3.955 -0.4168 -0.3401  0.1070
   98SAPC   C31 9676   5.801   0.364   3.932  0.0981  0.0342  0.0989
   98SAPC   O32 9677   5.749   0.303   3.841  0.1189 -0.1843  0.0434
   98SAPC   C32 9678   5.915   0.322   4.025  0.1861  0.1127 -0.1395
   98SAPC   H2X 9679   5.952   0.411   4.080  0.3843 -0.7315  1.1133
   98SAPC   H2Y 9680   5.995   0.278   3.961 -0.6174  0.1287 -1.1832
   98SAPC   C23 9681   5.802   0.802   4.280  0.1532  0.7232 -0.7844
   98SAPC   H3R 9682   5.867   0.733   4.222 -1.5258 -0.2869 -1.5295
   98SAPC   H3S 9683   5.750   0.737   4.353  1.4562 -1.4009 -1.6607
   98SAPC   C24 9684   5.887   0.895   4.362 -0.1709 -0.4741 -0.0768
   98SAPC   H4R 9685   5.836   0.956   4.440 -0.0947  1.1979 -1.2887
   98SAPC   H4S 9686   5.934   0.970   4.294 -0.2980  0.9496  1.3343
   98SAPC   C25 9687   6.002   0.818   4.422 -0.3863 -1.0592 -0.3906
   98SAPC   H5R 9688   6.096   0.818   4.364 -0.3051  0.0853 -0.2824
   98SAPC   C26 9689   6.014   0.765   4.546  0.4202 -0.3755  0.5868
   98SAPC   H6R 9690   6.105   0.712   4.577  0.9436 -0.2893 -0.7319
   98SAPC   C27 9691   5.909   0.753   4.649 -0.3603 -0.4670 -0.1536
   98SAPC   H7R 9692   5.805   0.745   4.610 -0.8876  0.2937  1.0514
   98SAPC   H7S 9693   5.917   0.856   4.689  4.4199 -0.0928 -1.5231
   98SAPC   C28 9694   5.927   0.638   4.748  0.1584 -0.5676  0.8219
   98SAPC   H8R 9695   5.974   0.552   4.698  2.1881  0.2687  1.2163
   98SAPC   C29 9696   5.898   0.638   4.874 -0.1485 -0.2795  0.7036
   98SAPC   H9R 9697   5.912   0.542   4.926 -1.8178 -1.1156 -0.3321
   98SAPC  C210 9698   5.842   0.751   4.962  0.4867 -0.3093  0.2776
   98SAPC  H10R 9699   5.896   0.847   4.948 -2.8442  1.5675 -1.1473
   98SAPC  H10S 9700   5.854   0.720   5.068 -1.3191 -0.3332  0.5210
   98SAPC  C211 9701   5.692   0.766   4.936  0.7184  0.3754  0.6117
   98SAPC  H11R 9702   5.658   0.751   4.832  1.7117 -3.0702  0.6566
   98SAPC  C212 9703   5.606   0.811   5.027  0.5931 -0.1685  0.1144
   98SAPC  H12R 9704   5.499   0.818   5.005  0.3666 -0.6430  0.9907
   98SAPC  C213 9705   5.637   0.850   5.177 -0.6522  1.0127  0.3405
   98SAPC  H13R 9706   5.651   0.959   5.190 -3.5567  1.7308 -1.4523
   98SAPC  H13S 9707   5.731   0.801   5.209 -1.1768 -0.4669 -0.2756
   98SAPC  C214 9708   5.529   0.802   5.264  0.6960  0.3788  0.0380
   98SAPC  H14R 9709   5.431   0.835   5.225  1.1253  1.6427  0.0113
   98SAPC  C215 9710   5.536   0.717   5.368 -0.7195 -0.3302 -0.4536
   98SAPC  H15R 9711   5.444   0.691   5.422 -0.3122 -0.3035  0.2663
   98SAPC  C216 9712   5.661   0.642   5.422  0.0508  0.1500  1.0609
   98SAPC  H16R 9713   5.728   0.627   5.335 -1.5618  0.6198 -0.3224
   98SAPC  H16S 9714   5.639   0.538   5.455  0.1550 -1.3506 -3.0923
   98SAPC  C217 9715   5.743   0.706   5.538  0.1111 -0.8010  0.1116
   98SAPC  H17R 9716   5.792   0.790   5.485 -3.1303  0.2064 -1.5536
   98SAPC  H17S 9717   5.830   0.641   5.562  1.6387  0.3088 -2.0674
   98SAPC  C218 9718   5.668   0.737   5.664 -0.2026  0.1218 -0.9467
   98SAPC  H18R 9719   5.602   0.824   5.648 -0.6756 -0.3645 -1.6956
   98SAPC  H18S 9720   5.755   0.761   5.730  2.6064 -3.2349 -3.0937
   98SAPC  C219 9721   5.590   0.617   5.718 -0.7990  0.1846  0.0902
   98SAPC  H19R 9722   5.659   0.530   5.709  0.1377  0.7616  1.3506
   98SAPC  H19S 9723   5.516   0.590   5.640  0.3003  0.9992 -1.2861
   98SAPC  C220 9724   5.527   0.615   5.854  0.5067  0.2852 -0.1370
   98SAPC  H20R 9725   5.611   0.611   5.926  1.3751  0.1583 -1.1402
   98SAPC  H20S 9726   5.473   0.518   5.857 -0.1453  0.6456  0.0071
   98SAPC  H20T 9727   5.452   0.694   5.878 -0.9194 -0.8737 -0.6254
   98SAPC   C33 9728   5.876   0.224   4.134  0.3883  0.1257  0.8342
   98SAPC   H3X 9729   5.967   0.196   4.191 -0.0720 -2.1177  0.5642
   98SAPC   H3Y 9730   5.842   0.127   4.092  2.2159 -0.3110  0.2648
   98SAPC   C34 9731   5.783   0.283   4.238 -0.1403 -0.4817  0.3782
   98SAPC   H4X 9732   5.793   0.208   4.319 -0.8863 -1.4424 -0.3883
   98SAPC   H4Y 9733   5.677   0.309   4.214 -0.2808  0.6348  2.0238
   98SAPC   C35 9734   5.823   0.417   4.296 -0.0985 -0.2351 -0.1023
   98SAPC   H5X 9735   5.774   0.502   4.244 -1.0654 -1.7077 -1.7050
   98SAPC   H5Y 9736   5.933   0.432   4.291 -0.1100  0.4685  1.3409
   98SAPC   C36 9737   5.781   0.436   4.448 -0.0299  0.2045  0.7851
   98SAPC   H6X 9738   5.816   0.538   4.471  1.4640  0.1669 -1.1029
   98SAPC   H6Y 9739   5.844   0.365   4.507  0.2499 -0.6754 -0.5253
   98SAPC   C37 9740   5.638   0.407   4.478 -0.8906  0.1375 -0.6192
   98SAPC   H7X 9741   5.593   0.306   4.464 -2.1951  0.4394  1.0342
   98SAPC   H7Y 9742   5.576   0.482   4.424 -0.6006  0.9910  0.2228
   98SAPC   C38 9743   5.610   0.431   4.630  0.5094 -0.5293  0.6228
   98SAPC   H8X 9744   5.500   0.444   4.639  0.3518 -2.6841  2.5344
   98SAPC   H8Y 9745   5.654   0.529   4.659 -1.0973  0.3453  0.2114
   98SAPC   C39 9746   5.660   0.324   4.724 -0.6981 -0.5017  0.5327
   98SAPC   H9X 9747   5.771   0.331   4.714 -0.9108 -0.4094 -2.4649
   98SAPC   H9Y 9748   5.622   0.224   4.697 -2.0630 -0.4649  2.1442
   98SAPC  C310 9749   5.616   0.339   4.867 -1.0200  0.7989 -0.2783
   98SAPC  H10X 9750   5.507   0.323   4.875 -0.5373 -3.6926 -0.4867
   98SAPC  H10Y 9751   5.634   0.447   4.891 -1.4544  1.0194 -0.9468
   98SAPC  C311 9752   5.681   0.259   4.975 -0.7935 -0.0272  0.3385
   98SAPC  H11X 9753   5.790   0.277   4.981 -0.8963  0.5715  0.4682
   98SAPC  H11Y 9754   5.676   0.151   4.950  2.0462 -0.0265 -0.6321
   98SAPC  C312 9755   5.629   0.273   5.115 -0.3204  0.1675  0.0638
   98SAPC  H12X 9756   5.518   0.261   5.120 -0.1451 -1.1552  1.1834
   98SAPC  H12Y 9757   5.656   0.379   5.134 -0.0679  0.1066  0.0474
   98SAPC  C313 9758   5.699   0.177   5.211  0.2341 -0.0982  0.1613
   98SAPC  H13X 9759   5.810   0.180   5.197  0.0777  0.1499 -1.1362
   98SAPC  H13Y 9760   5.664   0.072   5.197 -1.2956  0.2281  1.2980
   98SAPC  C314 9761   5.670   0.215   5.357 -0.2390 -0.1736  0.4358
   98SAPC  H14X 9762   5.559   0.205   5.368 -0.4253 -0.3078 -1.3471
   98SAPC  H14Y 9763   5.694   0.323   5.368  0.0897 -0.1872 -0.1358
   98SAPC  C315 9764   5.751   0.117   5.450  0.5501  0.4499  0.5920
   98SAPC  H15X 9765   5.852   0.099   5.407 -0.6549 -1.1486 -1.7523
   98SAPC  H15Y 9766   5.698   0.019   5.459 -0.6055  0.9364 -0.6807
   98SAPC  C316 9767   5.773   0.177   5.592  0.4362 -0.0570  0.5043
   98SAPC  H16X 9768   5.821   0.276   5.580 -1.0032  0.3188 -3.6958
   98SAPC  H16Y 9769   5.832   0.104   5.651 -0.0242 -3.4929 -2.9216
   98SAPC  C317 9770   5.633   0.193   5.661 -0.3263  0.2802 -0.9946
   98SAPC  H17X 9771   5.575   0.105   5.626 -0.2178 -0.8975  1.5604
   98SAPC  H17Y 9772   5.582   0.285   5.625 -1.5276 -0.2681 -0.7312
   98SAPC  C318 9773   5.631   0.203   5.819  0.3484  0.0189  0.0619
   98SAPC  H18X 9774   5.527   0.215   5.856  1.1565 -1.0925  2.9348
   98SAPC  H18Y 9775   5.694   0.286   5.859  0.3182 -0.5641  1.3615
   98SAPC  H18Z 9776   5.667   0.111   5.868 -0.5987  0.4722  1.6828
   99SAPC     N 9777   6.014   3.490   3.780 -0.1744  0.3158 -0.4924
   99SAPC   C12 9778   5.934   3.589   3.864  0.7702 -0.1539 -0.7529
   99SAPC  H12A 9779   5.838   3.549   3.896  0.1878  1.1768 -0.7656
   99SAPC  H12B 9780   5.912   3.666   3.792 -0.6832  1.1601  0.9746
   99SAPC   C13 9781   6.044   3.377   3.876  0.2234  0.0113 -0.4247
   99SAPC  H13A 9782   5.957   3.313   3.885 -0.2858  0.8940  1.6924
   99SAPC  H13B 9783   6.119   3.313   3.833 -1.6993 -2.2709 -0.6277
   99SAPC  H13C 9784   6.070   3.413   3.974 -1.7227 -2.7205  1.2470
   99SAPC   C14 9785   5.943   3.442   3.653  0.6049  0.3274  0.5102
   99SAPC  H14A 9786   6.012   3.378   3.599 -0.0064  0.7551 -0.8231
   99SAPC  H14B 9787   5.849   3.394   3.675  0.7699 -0.8235 -1.0716
   99SAPC  H14C 9788   5.931   3.525   3.586  1.9109  0.3028  0.2126
   99SAPC   C15 9789   6.144   3.547   3.740  0.3039 -0.6635 -0.5893
   99SAPC  H15A 9790   6.203   3.586   3.822  0.6096  0.1069 -1.1518
   99SAPC  H15B 9791   6.210   3.481   3.685  2.1594  1.6456 -1.3250
   99SAPC  H15C 9792   6.132   3.636   3.680 -1.1233  0.4165  1.1986
   99SAPC   C11 9793   5.994   3.653   3.993  0.2993  0.2127  0.2965
   99SAPC  H11A 9794   5.926   3.732   4.032  2.1898  1.4638  1.2152
   99SAPC  H11B 9795   6.095   3.696   3.972 -0.1341 -0.2964 -3.5664
   99SAPC     P 9796   5.896   3.502   4.186 -0.0606  0.2818 -0.2039
   99SAPC   O13 9797   5.773   3.570   4.156  0.2722  0.0337 -0.0547
   99SAPC   O14 9798   5.897   3.355   4.190  0.4867 -0.0142 -0.2570
   99SAPC   O12 9799   6.012   3.555   4.092 -0.2724  0.2196 -0.1194
   99SAPC   O11 9800   5.947   3.547   4.329  0.5021  0.3791 -0.2106
   99SAPC    C1 9801   6.077   3.500   4.373 -0.3065 -0.5463 -0.5813
   99SAPC    HA 9802   6.060   3.418   4.445 -0.7131 -1.7328 -1.9792
   99SAPC    HB 9803   6.135   3.451   4.292 -1.6848 -1.8935 -0.7795
   99SAPC    C2 9804   6.156   3.621   4.436 -0.0641  0.9086 -0.1622
   99SAPC    HS 9805   6.251   3.579   4.476  0.9258  1.3667 -1.9120
   99SAPC   O21 9806   6.080   3.683   4.541 -0.0423  0.1213  0.4411
   99SAPC   C21 9807   6.044   3.614   4.644 -0.1936  0.0218 -0.4413
   99SAPC   O22 9808   6.083   3.501   4.679 -0.4312  0.1660 -0.0118
   99SAPC   C22 9809   5.958   3.700   4.740 -0.7166  0.0019 -0.2150
   99SAPC   H2R 9810   5.995   3.804   4.750 -0.6765 -0.0832  0.6089
   99SAPC   H2S 9811   5.860   3.713   4.688 -0.4211  0.6606 -0.6257
   99SAPC    C3 9812   6.186   3.726   4.328  0.5978  0.6218  0.0282
   99SAPC    HX 9813   6.090   3.744   4.275  0.9942  3.8729  0.1847
   99SAPC    HY 9814   6.259   3.681   4.257 -1.0608 -1.7129 -0.3103
   99SAPC   O31 9815   6.240   3.846   4.374 -0.1640 -0.1625 -0.0629
   99SAPC   C31 9816   6.162   3.951   4.362  0.5335  0.3735 -0.1315
   99SAPC   O32 9817   6.052   3.956   4.311 -0.2479 -0.8684  0.8401
   99SAPC   C32 9818   6.242   4.077   4.405  0.2216  0.7072  1.1135
   99SAPC   H2X 9819   6.231   4.153   4.325 -1.6223  0.2214  0.8588
   99SAPC   H2Y 9820   6.350   4.050   4.400 -0.1731 -0.7746 -0.5280
   99SAPC   C23 9821   5.940   3.627   4.876 -0.8074  0.1414 -0.6137
   99SAPC   H3R 9822   5.905   3.705   4.947  0.6496  0.9530 -0.7525
   99SAPC   H3S 9823   6.033   3.579   4.911 -1.2021 -1.5683 -1.7576
   99SAPC   C24 9824   5.833   3.516   4.867  0.1620  1.3371  0.3955
   99SAPC   H4R 9825   5.858   3.446   4.784 -4.0585 -0.3501  0.2928
   99SAPC   H4S 9826   5.742   3.568   4.831  0.8798  1.5531 -1.2088
   99SAPC   C25 9827   5.810   3.434   4.992  0.9810  0.0411 -0.5213
   99SAPC   H5R 9828   5.856   3.334   4.996 -2.2609 -1.5223  0.5057
   99SAPC   C26 9829   5.711   3.468   5.077 -0.5430  0.2017 -0.2149
   99SAPC   H6R 9830   5.701   3.405   5.167  2.7318  1.5330  1.2582
   99SAPC   C27 9831   5.619   3.590   5.068  1.1456 -0.3994  0.0572
   99SAPC   H7R 9832   5.509   3.570   5.067  0.5721  1.9622 -3.6381
   99SAPC   H7S 9833   5.619   3.646   4.972 -3.2927  1.6325  0.9747
   99SAPC   C28 9834   5.642   3.685   5.179 -0.6967 -0.1833 -0.4522
   99SAPC   H8R 9835   5.694   3.781   5.164 -2.5043  1.0800  0.8065
   99SAPC   C29 9836   5.590   3.674   5.309 -0.0667  0.5120  0.3410
   99SAPC   H9R 9837   5.621   3.745   5.388 -2.0229  2.0806 -0.2383
   99SAPC  C210 9838   5.513   3.553   5.358  0.0003 -0.1969 -0.5924
   99SAPC  H10R 9839   5.549   3.539   5.462 -0.6264  1.2646 -0.1454
   99SAPC  H10S 9840   5.532   3.457   5.306  1.4051  0.7699 -1.9373
   99SAPC  C211 9841   5.359   3.569   5.351 -0.4687 -0.2000 -0.0880
   99SAPC  H11R 9842   5.310   3.621   5.268 -0.2328 -0.0079 -0.1084
   99SAPC  C212 9843   5.271   3.509   5.437 -0.0362  0.3679  0.0171
   99SAPC  H12R 9844   5.164   3.525   5.418  0.4559  4.0473 -0.5028
   99SAPC  C213 9845   5.309   3.425   5.560 -0.3993  0.2821 -0.2760
   99SAPC  H13R 9846   5.282   3.489   5.646  0.3335  1.7725 -1.0990
   99SAPC  H13S 9847   5.413   3.391   5.580 -1.0280 -1.4717  0.1674
   99SAPC  C214 9848   5.227   3.299   5.562  0.1515  0.1594  0.4584
   99SAPC  H14R 9849   5.241   3.231   5.477 -0.9163 -0.9209  1.1013
   99SAPC  C215 9850   5.129   3.272   5.649 -0.5327 -0.1592 -0.0824
   99SAPC  H15R 9851   5.071   3.179   5.638 -1.3831  0.3987 -0.4831
   99SAPC  C216 9852   5.093   3.354   5.775  0.3537 -0.5790  0.2726
   99SAPC  H16R 9853   5.036   3.444   5.745 -1.7139 -2.0516 -0.5091
   99SAPC  H16S 9854   5.188   3.384   5.823  0.1012 -1.5866  1.4733
   99SAPC  C217 9855   5.026   3.273   5.888  0.9582 -1.0532 -0.1187
   99SAPC  H17R 9856   4.937   3.231   5.835  0.3956  4.0075 -4.0591
   99SAPC  H17S 9857   4.987   3.341   5.967  0.3530  0.8819 -1.9726
   99SAPC  C218 9858   5.122   3.164   5.948 -1.3595 -0.6021  0.0106
   99SAPC  H18R 9859   5.187   3.122   5.868 -2.0818  1.3403 -1.6783
   99SAPC  H18S 9860   5.058   3.080   5.982 -2.9333  0.9629  1.1059
   99SAPC  C219 9861   5.209   3.223   6.056  0.3687 -0.4409 -0.3605
   99SAPC  H19R 9862   5.232   3.329   6.028 -3.6025  1.7121  3.3552
   99SAPC  H19S 9863   5.303   3.166   6.072  0.8883  0.4536 -0.1541
   99SAPC  C220 9864   5.141   3.236   6.190  0.5081  0.3123  0.4612
   99SAPC  H20R 9865   5.213   3.256   6.272  1.8658  0.7699 -0.8031
   99SAPC  H20S 9866   5.099   3.138   6.224  3.0101 -1.1057 -0.3144
   99SAPC  H20T 9867   5.060   3.312   6.180 -0.3485 -0.8594 -2.8797
   99SAPC   C33 9868   6.203   4.143   4.540  1.0259  0.3419 -0.1758
   99SAPC   H3X 9869   6.279   4.220   4.566 -0.9426  1.7280  1.8569
   99SAPC   H3Y 9870   6.207   4.062   4.616 -0.4121  0.3121 -0.1057
   99SAPC   C34 9871   6.072   4.211   4.540  0.0029 -0.1789 -0.6266
   99SAPC   H4X 9872   5.993   4.133   4.547 -0.3054  0.0256 -1.6742
   99SAPC   H4Y 9873   6.066   4.272   4.448 -1.5975 -0.9480 -1.0718
   99SAPC   C35 9874   6.060   4.320   4.652 -0.5363  0.0997 -0.0775
   99SAPC   H5X 9875   5.953   4.351   4.657 -0.5492  0.1729 -0.6840
   99SAPC   H5Y 9876   6.122   4.408   4.628 -0.6961 -0.0565 -1.1373
   99SAPC   C36 9877   6.091   4.278   4.798 -0.1306  0.6273  0.6258
   99SAPC   H6X 9878   6.195   4.240   4.802  0.2300  1.6666  2.4125
   99SAPC   H6Y 9879   6.009   4.203   4.810 -0.0633  0.6175  1.0516
   99SAPC   C37 9880   6.085   4.389   4.901  0.5456 -0.1836  0.0235
   99SAPC   H7X 9881   5.985   4.438   4.896  1.1673  1.1038 -0.3550
   99SAPC   H7Y 9882   6.162   4.468   4.888  0.4852 -0.4874 -2.6980
   99SAPC   C38 9883   6.112   4.335   5.042  0.2007 -0.5079 -0.2918
   99SAPC   H8X 9884   6.214   4.291   5.036  0.0541 -0.6902 -4.9250
   99SAPC   H8Y 9885   6.041   4.253   5.068  0.8410 -0.8920  0.3115
   99SAPC   C39 9886   6.092   4.440   5.159  0.2468  0.2328  0.6263
   99SAPC   H9X 9887   5.987   4.476   5.156  0.1139 -0.0866  1.3405
   99SAPC   H9Y 9888   6.172   4.516   5.146 -0.5725  1.2836  1.5219
   99SAPC  C310 9889   6.119   4.380   5.295  0.2393  0.4732  0.0187
   99SAPC  H10X 9890   6.214   4.322   5.307  0.3179  0.8155  1.1973
   99SAPC  H10Y 9891   6.039   4.305   5.314  0.8181 -0.1545  0.0395
   99SAPC  C311 9892   6.115   4.483   5.409 -0.1042  0.0742  0.6155
   99SAPC  H11X 9893   6.011   4.522   5.418  1.0978  3.4692  1.0359
   99SAPC  H11Y 9894   6.170   4.578   5.392 -1.6698  1.4797  2.7810
   99SAPC  C312 9895   6.157   4.430   5.550 -0.2980  0.8271  0.0680
   99SAPC  H12X 9896   6.262   4.402   5.571 -0.7459  0.4390  1.9086
   99SAPC  H12Y 9897   6.099   4.338   5.569  1.2796 -0.5595 -1.4614
   99SAPC  C313 9898   6.128   4.528   5.658  0.7342 -0.5406 -0.4359
   99SAPC  H13X 9899   6.021   4.556   5.651  0.7001  0.0550  1.8672
   99SAPC  H13Y 9900   6.178   4.626   5.643 -3.4746  1.8147 -0.4597
   99SAPC  C314 9901   6.155   4.474   5.806  0.5084  0.1277 -0.0317
   99SAPC  H14X 9902   6.261   4.444   5.818  0.5282 -0.5410 -1.6706
   99SAPC  H14Y 9903   6.093   4.382   5.814 -0.7630  0.8020 -1.6724
   99SAPC  C315 9904   6.123   4.561   5.930  0.3537  0.7487  0.3013
   99SAPC  H15X 9905   6.188   4.651   5.933 -1.5542  2.1632  1.2478
   99SAPC  H15Y 9906   6.149   4.503   6.022  1.4007 -0.1335 -0.5244
   99SAPC  C316 9907   5.977   4.611   5.933 -0.0660  0.0758 -0.2362
   99SAPC  H16X 9908   5.946   4.681   5.851  1.6942 -0.5233 -1.4675
   99SAPC  H16Y 9909   5.969   4.670   6.027  2.6527  0.7130 -0.3189
   99SAPC  C317 9910   5.872   4.498   5.934  0.3063 -0.2017 -0.2687
   99SAPC  H17X 9911   5.902   4.426   6.013  0.2912  3.0550  2.9328
   99SAPC  H17Y 9912   5.890   4.442   5.839  3.6755  0.0550  0.0785
   99SAPC  C318 9913   5.724   4.531   5.961  0.0565 -0.3879  0.3638
   99SAPC  H18X 9914   5.654   4.446   5.973 -0.7981  0.2099 -0.2567
   99SAPC  H18Y 9915   5.691   4.596   5.877  1.9019 -0.9034 -0.8238
   99SAPC  H18Z 9916   5.730   4.594   6.052 -2.6281  1.1342 -0.4047
  100SAPC     N 9917   4.942   4.769   3.810  0.3159 -0.1026 -0.3592
  100SAPC   C12 9918   4.873   4.901   3.852  0.6110  0.3280 -0.4535
  100SAPC  H12A 9919   4.783   4.899   3.793  0.2925 -0.2851  0.0365
  100SAPC  H12B 9920   4.930   4.988   3.822  0.1305  0.1975 -1.8418
  100SAPC   C13 9921   4.835   4.664   3.791 -0.4129 -0.2283  0.2645
  100SAPC  H13A 9922   4.773   4.678   3.704  1.8023  0.7054 -1.2553
  100SAPC  H13B 9923   4.886   4.569   3.790 -0.1476 -0.1434  2.0137
  100SAPC  H13C 9924   4.775   4.643   3.878  0.8639 -3.8630  0.4582
  100SAPC   C14 9925   5.027   4.783   3.691 -0.6028 -0.3031 -0.4596
  100SAPC  H14A 9926   4.979   4.823   3.603 -0.4859 -0.4565 -0.5949
  100SAPC  H14B 9927   5.104   4.857   3.705 -0.6144 -0.3522 -0.1168
  100SAPC  H14C 9928   5.073   4.691   3.657 -0.6512  0.7949 -3.8887
  100SAPC   C15 9929   5.037   4.734   3.923  0.5157  0.0429 -0.2451
  100SAPC  H15A 9930   4.978   4.727   4.013 -0.9199  0.4571 -1.1229
  100SAPC  H15B 9931   5.088   4.644   3.890  1.2583  1.5810 -3.8742
  100SAPC  H15C 9932   5.115   4.809   3.931 -1.5689  2.2902  0.2319
  100SAPC   C11 9933   4.826   4.915   4.003 -0.1746 -0.5398  0.5003
  100SAPC  H11A 9934   4.758   5.002   3.989  0.0520 -0.8129 -3.0926
  100SAPC  H11B 9935   4.915   4.945   4.064  0.2421 -0.7111 -0.0192
  100SAPC     P 9936   4.618   4.768   4.055 -0.2584 -0.1879  0.3104
  100SAPC   O13 9937   4.568   4.782   3.916 -0.0160  0.2764 -0.2083
  100SAPC   O14 9938   4.593   4.639   4.125  0.5365 -0.2185  0.6319
  100SAPC   O12 9939   4.775   4.807   4.062 -0.1365  0.0356 -0.4215
  100SAPC   O11 9940   4.543   4.885   4.144  0.3757  0.2967  0.4811
  100SAPC    C1 9941   4.600   4.898   4.268 -0.2951 -0.0844  0.2386
  100SAPC    HA 9942   4.613   4.802   4.322  0.8149 -0.0167  0.1231
  100SAPC    HB 9943   4.705   4.935   4.263  0.0381 -1.1791 -1.2440
  100SAPC    C2 9944   4.520   4.992   4.367 -0.1550 -0.1180 -0.2076
  100SAPC    HS 9945   4.413   4.968   4.346 -0.0581 -1.1391  0.3964
  100SAPC   O21 9946   4.543   5.128   4.345 -0.6047  0.2372 -0.3447
  100SAPC   C21 9947   4.446   5.207   4.370 -0.8089  0.0836 -0.3922
  100SAPC   O22 9948   4.329   5.179   4.385 -0.3520 -0.1771 -0.1415
  100SAPC   C22 9949   4.504   5.354   4.374  0.8325  1.0293  0.1404
  100SAPC   H2R 9950   4.485   5.395   4.272  0.7263 -2.9553 -1.6165
  100SAPC   H2S 9951   4.450   5.413   4.452  1.5868  1.3033  0.4629
  100SAPC    C3 9952   4.550   4.955   4.518 -0.1373  0.2010 -0.1455
  100SAPC    HX 9953   4.661   4.953   4.523 -0.1001 -2.3289 -0.5460
  100SAPC    HY 9954   4.522   4.848   4.534  3.0283 -0.8903 -1.0643
  100SAPC   O31 9955   4.494   5.047   4.617 -0.3901 -0.4350 -0.1791
  100SAPC   C31 9956   4.372   5.024   4.657  0.2700  0.8073 -0.2508
  100SAPC   O32 9957   4.296   4.937   4.607 -0.2528  0.5375 -0.5599
  100SAPC   C32 9958   4.331   5.128   4.772  0.2495 -0.3117 -0.2183
  100SAPC   H2X 9959   4.246   5.181   4.723  0.2261 -3.2781 -3.8326
  100SAPC   H2Y 9960   4.421   5.191   4.784 -0.5446  0.8151  0.0056
  100SAPC   C23 9961   4.656   5.366   4.405 -0.1205  0.1619  0.7875
  100SAPC   H3R 9962   4.675   5.473   4.386  0.0064 -0.0106 -0.0970
  100SAPC   H3S 9963   4.713   5.305   4.331 -2.1678 -1.5175  0.4722
  100SAPC   C24 9964   4.696   5.329   4.547 -0.3123  0.0623  0.1394
  100SAPC   H4R 9965   4.674   5.222   4.569 -0.5595  0.4489  1.9089
  100SAPC   H4S 9966   4.628   5.388   4.611  0.8692  0.3672  1.1605
  100SAPC   C25 9967   4.824   5.368   4.607 -1.1711 -0.2697 -0.4345
  100SAPC   H5R 9968   4.872   5.459   4.568  3.3640 -1.0738  2.4861
  100SAPC   C26 9969   4.873   5.328   4.724 -0.4057 -0.3591  0.3506
  100SAPC   H6R 9970   4.970   5.367   4.757 -0.2442  0.8390 -1.4223
  100SAPC   C27 9971   4.802   5.235   4.817  0.2187 -0.1077  0.7207
  100SAPC   H7R 9972   4.875   5.204   4.895 -0.2581  1.8163  1.9603
  100SAPC   H7S 9973   4.777   5.143   4.759 -1.8379  0.7542  0.1484
  100SAPC   C28 9974   4.693   5.297   4.900  0.5111 -0.8237  0.3747
  100SAPC   H8R 9975   4.646   5.392   4.869 -2.2058 -2.7155 -1.9806
  100SAPC   C29 9976   4.639   5.229   5.005 -0.6485  0.3665  0.5644
  100SAPC   H9R 9977   4.574   5.291   5.069 -1.0781  1.1242 -0.5732
  100SAPC  C210 9978   4.677   5.093   5.059 -0.1636  0.2577  0.3672
  100SAPC  H10R 9979   4.740   5.032   4.990  0.1172  1.8815 -0.9008
  100SAPC  H10S 9980   4.583   5.041   5.082 -0.1096 -0.0000  0.0198
  100SAPC  C211 9981   4.750   5.107   5.191  0.5932  0.2274 -0.0297
  100SAPC  H11R 9982   4.858   5.094   5.182  0.6846  1.8789 -2.1716
  100SAPC  C212 9983   4.707   5.108   5.316 -0.0567  0.4760  0.2723
  100SAPC  H12R 9984   4.778   5.112   5.400 -0.2400 -1.5505  0.5792
  100SAPC  C213 9985   4.566   5.116   5.356 -0.2143 -0.1177 -0.0895
  100SAPC  H13R 9986   4.503   5.146   5.269  2.7316  0.6649 -2.0943
  100SAPC  H13S 9987   4.557   5.201   5.426  0.3113 -0.3554  0.2717
  100SAPC  C214 9988   4.524   4.988   5.421  0.1155  0.0807 -0.5189
  100SAPC  H14R 9989   4.500   4.904   5.354 -1.1254  0.8798 -1.1120
  100SAPC  C215 9990   4.490   4.972   5.548 -0.0488  0.1776  0.1992
  100SAPC  H15R 9991   4.477   4.865   5.573  0.0335 -0.6105 -2.8000
  100SAPC  C216 9992   4.490   5.078   5.658 -0.0610  0.2399 -0.7023
  100SAPC  H16R 9993   4.440   5.171   5.622 -1.4666  0.1542  0.8958
  100SAPC  H16S 9994   4.594   5.108   5.681 -0.8236  0.3925  3.3479
  100SAPC  C217 9995   4.434   5.036   5.797 -0.1660 -0.4354 -0.1495
  100SAPC  H17R 9996   4.490   4.948   5.837  1.9659 -0.7429 -3.4194
  100SAPC  H17S 9997   4.330   4.997   5.787 -0.2794 -0.0293 -0.5795
  100SAPC  C218 9998   4.450   5.147   5.896  0.1808 -0.2645  0.5606
  100SAPC  H18R 9999   4.368   5.216   5.867  0.5445  1.0061  2.3886
  100SAPC  H18S10000   4.543   5.201   5.871  0.4945 -1.1615 -0.2595
  100SAPC  C21910001   4.451   5.109   6.043  0.4437  0.3876  0.2048
  100SAPC  H19R10002   4.347   5.085   6.074 -0.0352  0.4822 -1.2565
  100SAPC  H19S10003   4.484   5.203   6.092  0.6059 -0.5954  2.0812
  100SAPC  C22010004   4.549   4.992   6.081  0.4005  0.0336  0.1691
  100SAPC  H20R10005   4.550   4.974   6.190  2.7638  0.4331  0.2615
  100SAPC  H20S10006   4.652   5.003   6.041 -0.1807  0.7246 -1.1979
  100SAPC  H20T10007   4.514   4.894   6.040  1.5993  0.2078 -1.3664
  100SAPC   C3310008   4.299   5.072   4.915  0.2957  0.2291  0.7053
  100SAPC   H3X10009   4.273   5.151   4.989 -0.4456 -0.6469  1.4129
  100SAPC   H3Y10010   4.392   5.023   4.950 -0.1648 -1.2796 -0.0928
  100SAPC   C3410011   4.197   4.960   4.930 -0.0544  0.4228 -0.1108
  100SAPC   H4X10012   4.240   4.867   4.887  1.0824  1.4584 -1.2919
  100SAPC   H4Y10013   4.100   5.003   4.896 -0.6482  0.2446  1.2553
  100SAPC   C3510014   4.179   4.919   5.084 -0.5127  0.0477  0.1629
  100SAPC   H5X10015   4.087   4.966   5.123 -0.3981  2.3385 -2.0741
  100SAPC   H5Y10016   4.273   4.949   5.135 -0.4187  3.2285 -1.6108
  100SAPC   C3610017   4.159   4.771   5.101  0.2825  0.1882  0.2956
  100SAPC   H6X10018   4.212   4.711   5.024 -1.7912 -0.9915 -0.3058
  100SAPC   H6Y10019   4.051   4.760   5.078  0.4740  1.2611 -1.2767
  100SAPC   C3710020   4.194   4.714   5.237  0.4764  0.6558  0.3021
  100SAPC   H7X10021   4.302   4.728   5.257  0.7993 -1.6659  0.5482
  100SAPC   H7Y10022   4.183   4.603   5.237 -0.6709  0.7237 -1.3013
  100SAPC   C3810023   4.110   4.769   5.346 -0.1034 -0.5289  0.1285
  100SAPC   H8X10024   4.003   4.752   5.320  0.4822 -3.6808 -0.6425
  100SAPC   H8Y10025   4.137   4.876   5.356 -0.1621 -0.4906 -0.1172
  100SAPC   C3910026   4.124   4.694   5.474 -0.3289  0.0250 -0.5014
  100SAPC   H9X10027   4.138   4.585   5.455 -0.4053 -0.6168  2.5556
  100SAPC   H9Y10028   4.031   4.709   5.533  0.0864 -1.3590  0.5583
  100SAPC  C31010029   4.243   4.740   5.557  0.4232 -0.4376  0.3477
  100SAPC  H10X10030   4.233   4.850   5.573  0.7540 -0.4918  0.9388
  100SAPC  H10Y10031   4.340   4.732   5.504  0.7456  2.3498  0.3682
  100SAPC  C31110032   4.261   4.671   5.690  0.9144 -0.7610  0.4337
  100SAPC  H11X10033   4.351   4.706   5.745  1.5117 -1.2291 -0.2159
  100SAPC  H11Y10034   4.284   4.563   5.683 -1.0784 -1.1266 -1.5340
  100SAPC  C31210035   4.139   4.682   5.787  0.1363  0.1415 -0.5734
  100SAPC  H12X10036   4.054   4.654   5.722 -0.7097 -1.4446  1.1239
  100SAPC  H12Y10037   4.120   4.789   5.811 -0.8347  0.1357 -1.2741
  100SAPC  C31310038   4.127   4.577   5.895 -0.3419  0.0656 -0.1203
  100SAPC  H13X10039   4.201   4.582   5.978 -1.5027  1.1872  0.8836
  100SAPC  H13Y10040   4.125   4.482   5.838  1.4340 -1.0287  1.5077
  100SAPC  C31410041   3.991   4.589   5.964 -0.2434 -0.0779  0.1047
  100SAPC  H14X10042   3.911   4.610   5.890  0.0429  1.9848  0.3087
  100SAPC  H14Y10043   3.989   4.682   6.026  1.6468  0.4614 -0.5718
  100SAPC  C31510044   3.969   4.457   6.050  0.4552  0.1098 -0.8939
  100SAPC  H15X10045   4.069   4.413   6.068  2.0209  3.7811  0.3336
  100SAPC  H15Y10046   3.902   4.386   5.996 -1.2640 -0.1975  1.4732
  100SAPC  C31610047   3.890   4.502   6.175  0.1727 -0.0725  0.4530
  100SAPC  H16X10048   3.791   4.545   6.149  0.0079 -0.4368  0.4642
  100SAPC  H16Y10049   3.954   4.572   6.234  0.5844 -0.7761  0.8627
  100SAPC  C31710050   3.860   4.375   6.258 -0.2101 -0.6616  0.4326
  100SAPC  H17X10051   3.957   4.330   6.288 -0.3376 -1.3359 -0.1576
  100SAPC  H17Y10052   3.796   4.302   6.205 -0.3504 -0.4298  0.2802
  100SAPC  C31810053   3.783   4.414   6.380  0.1965  0.2440  0.0429
  100SAPC  H18X10054   3.834   4.489   6.446 -0.5622  0.6714  0.1515
  100SAPC  H18Y10055   3.766   4.327   6.447  2.1961  0.7304  1.2890
  100SAPC  H18Z10056   3.681   4.453   6.362  0.4068  0.8467  0.1068
  101OSM      N10057   3.754   5.638   0.150  0.6359  0.4635 -0.0947
  101OSM    C1510058   3.890   5.682   0.192  0.3631  0.1971 -0.4935
  101OSM   H15A10059   3.910   5.785   0.169 -0.7196  0.2234 -1.3959
  101OSM   H15B10060   3.964   5.621   0.143  0.2481 -0.1578 -0.2373
  101OSM   H15C10061   3.908   5.663   0.297  0.6917  0.0597 -0.5721
  101OSM    C1410062   3.710   5.508   0.203 -0.5449 -0.2727 -0.8050
  101OSM   H14A10063   3.604   5.499   0.180 -1.1131  1.3827  1.0013
  101OSM   H14B10064   3.721   5.499   0.310 -0.8940  1.7371 -0.5751
  101OSM   H14C10065   3.774   5.429   0.165  0.1499 -0.4609  0.7093
  101OSM    C1310066   3.659   5.745   0.210  0.0943  0.4065 -0.0118
  101OSM   H13A10067   3.700   5.845   0.199  0.0819  0.5129  0.8381
  101OSM   H13B10068   3.642   5.726   0.315 -0.8009  0.0799 -0.2109
  101OSM   H13C10069   3.564   5.740   0.159 -0.0769 -2.1810  0.4328
  101OSM    C1210070   3.734   5.640  -0.001  0.6802 -0.1670 -0.2345
  101OSM   H12A10071   3.629   5.631  -0.022  0.8827 -0.7541 -1.0347
  101OSM   H12B10072   3.778   5.551  -0.043  0.9074 -0.6055  0.8847
  101OSM    C1110073   3.780   5.762  -0.082 -0.0672  0.0604  0.2070
  101OSM   H11A10074   3.726   5.856  -0.058 -1.9199 -1.2218  1.2543
  101OSM   H11B10075   3.758   5.741  -0.189 -1.4009  0.3072  0.4134
  101OSM      P10076   4.029   5.696  -0.158 -0.1749  0.8132  0.2838
  101OSM    O1310077   4.164   5.751  -0.134  0.1354  0.3512  0.3348
  101OSM    O1410078   4.013   5.549  -0.145 -0.0992 -0.3249  0.2101
  101OSM    O1110079   3.986   5.732  -0.309 -0.0125  0.4952  0.0801
  101OSM    O1210080   3.925   5.779  -0.074 -0.1293 -0.1240 -0.2108
  101OSM    C1S10081   4.067   5.672  -0.411  0.0537 -0.7237 -0.0312
  101OSM    H1S10082   4.057   5.562  -0.427 -0.5328 -0.5595 -0.8678
  101OSM    H1T10083   4.176   5.690  -0.401 -0.0823 -0.1595  0.4609
  101OSM     NF10084   4.070   5.645  -0.656 -0.5582  0.8491  0.5436
  101OSM    HNF10085   4.147   5.684  -0.707 -0.9063  1.5872  0.5710
  101OSM    C2S10086   4.029   5.734  -0.552  0.4328  0.5854 -1.0135
  101OSM    H2S10087   3.919   5.720  -0.551  0.4530  0.2361 -2.3823
  101OSM    C3S10088   4.075   5.882  -0.553 -0.0618 -0.8029  0.1416
  101OSM    H3S10089   4.185   5.881  -0.535  0.0608  1.0391 -0.3315
  101OSM     O310090   4.022   5.963  -0.443  0.0712 -0.3213  0.8181
  101OSM    HO310091   3.983   5.905  -0.376 -2.5855  2.7980  2.2686
  101OSM    C4S10092   4.067   5.951  -0.691  0.4705 -0.0059 -0.3502
  101OSM    H4S10093   4.138   5.908  -0.764 -0.4548 -2.4277  0.0727
  101OSM    C5S10094   3.971   6.041  -0.724  0.3621 -0.5304  0.5014
  101OSM    H5S10095   3.892   6.069  -0.653 -0.0769 -2.2260  0.7331
  101OSM    C6S10096   3.953   6.095  -0.867 -0.0696  0.3768  0.3984
  101OSM    H6S10097   4.048   6.088  -0.924 -0.4460 -0.4046 -0.1593
  101OSM    H6T10098   3.915   6.199  -0.864  0.4194  0.6014 -0.7621
  101OSM    C7S10099   3.851   6.000  -0.936 -0.4303  0.8817  0.2687
  101OSM    H7S10100   3.753   5.998  -0.884 -2.9838  0.0815 -4.1039
  101OSM    H7T10101   3.892   5.897  -0.939 -0.3661  0.8079  2.1704
  101OSM    C8S10102   3.828   6.062  -1.077 -0.2438 -0.0902  0.3262
  101OSM    H8S10103   3.912   6.124  -1.115 -1.4287  0.6581 -1.1645
  101OSM    H8T10104   3.733   6.120  -1.072 -0.1118  0.3881 -1.8195
  101OSM    C9S10105   3.811   5.961  -1.191  0.3294  0.2615 -0.3995
  101OSM    H9S10106   3.734   5.887  -1.161  0.9683 -0.5246 -0.6457
  101OSM    H9T10107   3.902   5.896  -1.195  0.1193 -0.0372 -0.3741
  101OSM   C10S10108   3.791   6.029  -1.329  0.2696 -0.4039 -0.0118
  101OSM   H10S10109   3.887   6.084  -1.344  0.7835 -0.5753  2.2973
  101OSM   H10T10110   3.710   6.104  -1.327  0.4258 -0.2231 -0.2875
  101OSM   C11S10111   3.753   5.933  -1.444 -0.1927 -0.2201 -0.7781
  101OSM   H11S10112   3.802   5.836  -1.418  2.9219  1.2453 -0.7072
  101OSM   H11T10113   3.821   5.959  -1.528  2.9823 -2.5549  0.8424
  101OSM   C12S10114   3.607   5.909  -1.473 -0.2758  0.0749 -0.5802
  101OSM   H12S10115   3.564   6.010  -1.494 -0.7182 -0.3658 -1.9306
  101OSM   H12T10116   3.550   5.856  -1.395  1.2839 -2.3021 -0.9673
  101OSM   C13S10117   3.590   5.811  -1.586 -0.7966 -0.2302  0.0699
  101OSM   H13S10118   3.621   5.709  -1.554 -0.0485 -0.0326  0.0117
  101OSM   H13T10119   3.664   5.847  -1.661 -0.2548  2.4107  1.7407
  101OSM   C14S10120   3.450   5.797  -1.633  0.7587  0.3394  0.0782
  101OSM   H14S10121   3.416   5.899  -1.658  3.1090  1.3387  0.6307
  101OSM   H14T10122   3.384   5.753  -1.555 -0.6667  0.9619 -0.7328
  101OSM   C15S10123   3.439   5.701  -1.757  0.2008 -0.2350  0.1840
  101OSM   H15S10124   3.486   5.603  -1.734  0.6255 -0.2915 -0.8964
  101OSM   H15T10125   3.500   5.746  -1.838  1.7056 -0.1592  1.3165
  101OSM   C16S10126   3.294   5.683  -1.807 -0.2346  1.1730  0.8566
  101OSM   H16S10127   3.255   5.784  -1.831 -2.1065 -0.2020 -2.4983
  101OSM   H16T10128   3.228   5.641  -1.727  0.1702 -0.1113  0.5510
  101OSM   C17S10129   3.279   5.593  -1.932  0.9466 -0.5100  0.2951
  101OSM   H17S10130   3.171   5.579  -1.950  1.1920 -0.2282 -1.5389
  101OSM   H17T10131   3.321   5.492  -1.909  2.8228  0.5823  2.0374
  101OSM   C18S10132   3.333   5.664  -2.054  0.2830  0.5852  0.4256
  101OSM   H18S10133   3.287   5.617  -2.143  0.1984 -0.4806  1.0131
  101OSM   H18T10134   3.443   5.677  -2.062  0.7339 -3.2631 -3.3975
  101OSM   H18U10135   3.283   5.763  -2.055 -2.1035 -0.5513 -0.8985
  101OSM    C1F10136   4.021   5.527  -0.688  0.4568 -0.5445 -0.8475
  101OSM     OF10137   3.939   5.469  -0.620 -0.0253 -0.0468 -0.0697
  101OSM    C2F10138   4.089   5.454  -0.801 -0.4781 -0.7627 -0.7148
  101OSM    H2F10139   4.149   5.373  -0.754 -0.6613  0.5045  1.8995
  101OSM    H2G10140   4.162   5.526  -0.844  0.7436 -1.0350  0.8114
  101OSM    C3F10141   3.973   5.411  -0.893  0.2085  0.4159 -0.2957
  101OSM    H3F10142   3.890   5.482  -0.908  0.0522  0.0795 -1.0701
  101OSM    H3G10143   3.920   5.329  -0.840  1.1611 -1.2313 -1.7903
  101OSM    C4F10144   4.003   5.372  -1.033 -0.2569 -0.4786  0.1183
  101OSM    H4F10145   3.929   5.304  -1.080 -1.2471  0.8268 -0.2979
  101OSM    H4G10146   4.105   5.332  -1.050  0.1221  0.6496 -0.4092
  101OSM    C5F10147   3.996   5.498  -1.119 -0.5357  0.1037  1.0515
  101OSM    H5F10148   4.036   5.577  -1.052  1.3869  0.7709 -0.7790
  101OSM    H5G10149   3.896   5.535  -1.150 -0.4928  0.7914  1.6958
  101OSM    C6F10150   4.090   5.497  -1.244 -0.3263  0.2669 -0.1537
  101OSM    H6F10151   4.195   5.463  -1.229 -0.2033 -1.3372 -3.6145
  101OSM    H6G10152   4.103   5.606  -1.263 -0.5321  0.5762  1.3522
  101OSM    C7F10153   4.042   5.426  -1.372  0.7743  0.5284 -0.2399
  101OSM    H7F10154   4.012   5.323  -1.341  0.3232  1.0593  1.1403
  101OSM    H7G10155   4.128   5.411  -1.440 -1.0629 -3.2046 -2.0663
  101OSM    C8F10156   3.930   5.494  -1.450 -0.4071 -0.3547 -0.5935
  101OSM    H8F10157   3.948   5.603  -1.461 -0.6763 -0.3207 -0.7015
  101OSM    H8G10158   3.835   5.495  -1.392 -1.1080  2.3078 -1.6570
  101OSM    C9F10159   3.902   5.429  -1.582  0.2798  0.3404  0.5718
  101OSM    H9F10160   3.829   5.347  -1.580 -0.5668  1.0496 -0.3070
  101OSM   C10F10161   3.920   5.488  -1.703 -0.7329 -0.2656 -0.2403
  101OSM   H10F10162   3.898   5.441  -1.800  0.8012  0.0190 -0.7459
  101OSM   C11F10163   4.001   5.622  -1.724 -0.7613 -0.4074  0.2841
  101OSM   H11F10164   4.049   5.667  -1.634  0.4180  0.1411 -0.5893
  101OSM   H11G10165   3.937   5.701  -1.767  1.4136  2.0862  1.3035
  101OSM   C12F10166   4.110   5.606  -1.834 -0.0924  0.3211 -0.1536
  101OSM   H12F10167   4.176   5.524  -1.798  0.4461  0.3939 -0.9243
  101OSM   H12G10168   4.175   5.695  -1.844  1.0682 -0.2751  1.5500
  101OSM   C13F10169   4.059   5.577  -1.979  0.4149 -0.3153 -0.1341
  101OSM   H13F10170   3.955   5.616  -1.988 -0.5744 -2.9461 -1.0356
  101OSM   H13G10171   4.038   5.469  -1.991 -1.2003 -0.2777  1.7099
  101OSM   C14F10172   4.157   5.640  -2.083  0.1036  0.2508 -0.1341
  101OSM   H14F10173   4.238   5.570  -2.111 -1.2841 -1.6891  0.4779
  101OSM   H14G10174   4.199   5.735  -2.044  1.5461 -0.1711 -0.6067
  101OSM   C15F10175   4.083   5.681  -2.210  0.1235 -0.2964 -0.6606
  101OSM   H15F10176   4.085   5.790  -2.234  0.4754 -0.2044 -0.2200
  101OSM   H15G10177   3.974   5.658  -2.212  0.0918 -0.2604 -3.5679
  101OSM   C16F10178   4.133   5.605  -2.332  0.0091 -0.2112 -0.4117
  101OSM   H16F10179   4.098   5.501  -2.317  0.0055 -0.1589 -0.0434
  101OSM   H16G10180   4.243   5.622  -2.334 -0.3006  2.0775 -1.1242
  101OSM   C17F10181   4.081   5.640  -2.473 -0.1096 -0.3738 -0.3827
  101OSM   H17F10182   3.972   5.628  -2.489  0.2498 -3.1662 -1.4235
  101OSM   H17G10183   4.132   5.557  -2.527  1.3720 -0.3864  0.9654
  101OSM   C18F10184   4.130   5.771  -2.525  0.4103  0.7918  0.0052
  101OSM   H18F10185   4.089   5.854  -2.464 -2.9656 -0.4589 -0.3576
  101OSM   H18G10186   4.108   5.787  -2.633 -1.5704  0.0378  0.2487
  101OSM   H18H10187   4.241   5.766  -2.523  0.3946 -0.4909 -1.0346
  102OSM      N10188   0.060   4.660   0.075  0.2887  0.0219 -0.0024
  102OSM    C1510189   0.176   4.753   0.071  0.0901 -0.1449 -0.1677
  102OSM   H15A10190   0.162   4.831  -0.003  0.2049 -1.0154 -1.1236
  102OSM   H15B10191   0.261   4.699   0.031 -0.8284 -2.3855  0.7532
  102OSM   H15C10192   0.201   4.800   0.165  1.4479 -1.4837  0.1612
  102OSM    C1410193  -0.051   4.731   0.139  0.2745  0.2597 -0.4070
  102OSM   H14A10194  -0.011   4.787   0.223 -0.6800 -0.8465  0.8271
  102OSM   H14B10195  -0.134   4.667   0.165  0.1794  0.1166 -1.0538
  102OSM   H14C10196  -0.084   4.814   0.080 -0.4672  0.9372  0.9193
  102OSM    C1310197   0.016   4.639  -0.060 -1.1846  1.1100  0.0084
  102OSM   H13A10198  -0.003   4.731  -0.113 -1.7721  0.9214 -0.1244
  102OSM   H13B10199  -0.076   4.582  -0.065 -1.5673  1.6501  0.5966
  102OSM   H13C10200   0.094   4.595  -0.119  1.5661  0.5822  3.6969
  102OSM    C1210201   0.086   4.530   0.159 -0.3394  0.1388  0.6266
  102OSM   H12A10202  -0.002   4.468   0.166 -0.5623  0.4077  0.2623
  102OSM   H12B10203   0.124   4.556   0.257  1.9981  2.0782 -0.6936
  102OSM    C1110204   0.179   4.424   0.103  0.0877  0.2271  0.0494
  102OSM   H11A10205   0.151   4.406  -0.003  0.4087  1.6938 -0.3116
  102OSM   H11B10206   0.173   4.334   0.168  0.0743  0.0292 -0.2218
  102OSM      P10207   0.440   4.423   0.071  0.4136 -0.1048  0.0501
  102OSM    O1310208   0.551   4.520   0.094 -0.3122 -0.4137  0.4128
  102OSM    O1410209   0.450   4.292   0.136  0.0437 -0.4697 -0.2117
  102OSM    O1110210   0.427   4.401  -0.082 -0.3269  0.1128  0.1123
  102OSM    O1210211   0.307   4.490   0.116  0.6945 -0.8035  0.7508
  102OSM    C1S10212   0.510   4.479  -0.173  0.4298  0.0544  0.1047
  102OSM    H1S10213   0.616   4.448  -0.159  1.0005  1.7786 -0.2337
  102OSM    H1T10214   0.496   4.586  -0.146 -1.3383  0.2801 -1.4960
  102OSM     NF10215   0.569   4.520  -0.400  0.0746  0.3194 -0.7923
  102OSM    HNF10216   0.573   4.617  -0.425  1.6148  1.0501  1.9136
  102OSM    C2S10217   0.463   4.464  -0.318 -0.7125 -0.5521 -0.2370
  102OSM    H2S10218   0.442   4.359  -0.348 -0.5638  0.0451 -2.7240
  102OSM    C3S10219   0.322   4.537  -0.339 -0.2335 -0.0313 -0.0304
  102OSM    H3S10220   0.341   4.646  -0.334 -0.6074  0.0651 -0.6573
  102OSM     O310221   0.226   4.498  -0.241 -0.0120  0.0823 -0.1815
  102OSM    HO310222   0.285   4.457  -0.177  1.6127 -0.2884 -1.8469
  102OSM    C4S10223   0.251   4.512  -0.470 -0.1972  0.1045  0.7734
  102OSM    H4S10224   0.228   4.605  -0.525  1.9361 -0.3261 -1.0142
  102OSM    C5S10225   0.204   4.393  -0.514  0.5263  0.6870  0.5749
  102OSM    H5S10226   0.216   4.309  -0.444  1.4035  0.6673  0.4184
  102OSM    C6S10227   0.128   4.359  -0.643 -0.0920  0.5187 -0.3148
  102OSM    H6S10228   0.024   4.351  -0.605  0.5209  1.2864  1.6714
  102OSM    H6T10229   0.165   4.264  -0.687  0.3795  2.1051 -3.6718
  102OSM    C7S10230   0.125   4.461  -0.766  0.8785  0.5549 -0.0688
  102OSM    H7S10231   0.224   4.503  -0.795  0.9243  1.6954  1.5883
  102OSM    H7T10232   0.063   4.547  -0.733 -2.0631 -1.9903  1.5259
  102OSM    C8S10233   0.066   4.397  -0.895 -0.3694 -0.0131 -0.3130
  102OSM    H8S10234  -0.045   4.400  -0.896 -0.3639  0.1954 -0.8203
  102OSM    H8T10235   0.098   4.292  -0.910  0.4184  0.3972 -1.7520
  102OSM    C9S10236   0.117   4.484  -1.020 -0.6929  0.4535  0.7333
  102OSM    H9S10237   0.226   4.466  -1.034 -0.4695 -0.1359  2.9689
  102OSM    H9T10238   0.092   4.592  -1.014 -0.1163  0.6381  0.0777
  102OSM   C10S10239   0.060   4.431  -1.152  0.5422  0.9015  0.2805
  102OSM   H10S10240  -0.050   4.431  -1.165  0.7558  0.3485 -1.8470
  102OSM   H10T10241   0.089   4.324  -1.163 -0.6014  0.4441  1.4371
  102OSM   C11S10242   0.113   4.512  -1.270  0.4683 -0.1830 -0.8589
  102OSM   H11S10243   0.222   4.519  -1.249  0.0193  0.8787  1.3789
  102OSM   H11T10244   0.077   4.614  -1.243 -2.1221 -1.5943  1.5421
  102OSM   C12S10245   0.083   4.464  -1.415 -0.2029 -0.1351  0.4572
  102OSM   H12S10246  -0.027   4.459  -1.427 -0.1519  1.2052 -0.7411
  102OSM   H12T10247   0.132   4.365  -1.428 -0.3810  0.0577 -2.1550
  102OSM   C13S10248   0.137   4.563  -1.534  0.2027  0.5965 -0.3536
  102OSM   H13S10249   0.244   4.532  -1.535  0.8417  2.5729  0.6739
  102OSM   H13T10250   0.114   4.665  -1.494  0.2089 -0.0860  1.5032
  102OSM   C14S10251   0.063   4.534  -1.658  0.1201  0.0004  0.2751
  102OSM   H14S10252  -0.047   4.543  -1.646 -0.1006  0.5529 -1.8131
  102OSM   H14T10253   0.084   4.430  -1.692  2.1107  0.1995  0.7337
  102OSM   C15S10254   0.113   4.633  -1.769  0.8573 -1.2766 -0.7081
  102OSM   H15S10255   0.115   4.729  -1.714 -1.2236 -2.1081  0.9797
  102OSM   H15T10256   0.050   4.638  -1.861  0.8554  0.6920 -0.6298
  102OSM   C16S10257   0.262   4.623  -1.813 -0.7461  0.4196  0.1089
  102OSM   H16S10258   0.273   4.518  -1.847 -4.8191 -0.6762  1.6288
  102OSM   H16T10259   0.337   4.644  -1.733 -2.3137  0.3261  1.6720
  102OSM   C17S10260   0.267   4.705  -1.955 -0.7131 -0.2488 -0.0959
  102OSM   H17S10261   0.368   4.750  -1.953 -1.0818  0.6497 -0.9841
  102OSM   H17T10262   0.207   4.798  -1.944 -1.1289 -0.3562 -1.3536
  102OSM   C18S10263   0.227   4.618  -2.071 -0.1202  0.7628  0.3178
  102OSM   H18S10264   0.126   4.573  -2.074  0.6533 -1.0851  0.9245
  102OSM   H18T10265   0.296   4.535  -2.096 -0.3491  0.7363 -0.2367
  102OSM   H18U10266   0.224   4.676  -2.166 -0.6474  0.5455  0.2014
  102OSM    C1F10267   0.674   4.452  -0.432  0.6868 -0.5007 -0.5590
  102OSM     OF10268   0.680   4.334  -0.392 -0.1212 -0.6375 -0.6881
  102OSM    C2F10269   0.784   4.515  -0.512  0.2736 -0.0493 -0.6387
  102OSM    H2F10270   0.879   4.512  -0.454  0.9553 -2.1602 -1.7576
  102OSM    H2G10271   0.759   4.623  -0.523  0.3447 -0.0192 -0.5119
  102OSM    C3F10272   0.811   4.446  -0.651 -0.1436 -0.6857 -0.3905
  102OSM    H3F10273   0.720   4.453  -0.714  0.4714 -0.6313 -1.2875
  102OSM    H3G10274   0.819   4.337  -0.630 -4.7305 -1.4424 -1.4229
  102OSM    C4F10275   0.930   4.513  -0.721 -0.5183  0.3788 -0.0389
  102OSM    H4F10276   1.008   4.509  -0.643 -1.2124  2.0176  0.7800
  102OSM    H4G10277   0.914   4.622  -0.734 -3.4632 -0.0805 -1.2580
  102OSM    C5F10278   0.976   4.439  -0.848  0.4402 -0.3520  0.1740
  102OSM    H5F10279   0.896   4.456  -0.923  0.8675 -0.9869 -0.4318
  102OSM    H5G10280   0.981   4.332  -0.817  0.4919 -0.1412  0.9313
  102OSM    C6F10281   1.102   4.504  -0.893 -0.3257  0.4645  0.8373
  102OSM    H6F10282   1.168   4.502  -0.803 -0.5994 -2.0271  1.0587
  102OSM    H6G10283   1.076   4.608  -0.923  2.3901  1.0990  0.4894
  102OSM    C7F10284   1.169   4.422  -1.002 -0.2694 -0.2181 -0.3149
  102OSM    H7F10285   1.103   4.442  -1.089 -1.8483 -1.5065  0.5231
  102OSM    H7G10286   1.171   4.315  -0.975 -0.0503 -0.3271 -0.7698
  102OSM    C8F10287   1.312   4.467  -1.019 -0.1095 -0.2335  0.1718
  102OSM    H8F10288   1.369   4.386  -1.069  0.5424  0.3638 -0.0686
  102OSM    H8G10289   1.371   4.476  -0.925 -0.3632 -1.8394  0.5229
  102OSM    C9F10290   1.322   4.604  -1.092  0.2832  0.1413  0.1293
  102OSM    H9F10291   1.304   4.684  -1.018 -1.7003 -0.4341  0.3379
  102OSM   C10F10292   1.356   4.624  -1.225  0.4797  0.4244 -0.6338
  102OSM   H10F10293   1.369   4.730  -1.252  0.6197  0.8224  0.8697
  102OSM   C11F10294   1.385   4.515  -1.326  0.0213  0.1632 -0.1516
  102OSM   H11F10295   1.353   4.415  -1.290 -0.0172  0.3334  0.2879
  102OSM   H11G10296   1.495   4.508  -1.343 -0.1411 -1.7442 -0.7654
  102OSM   C12F10297   1.339   4.540  -1.472  0.4337 -0.6928  0.8196
  102OSM   H12F10298   1.232   4.567  -1.473  0.6629  0.2572  0.4895
  102OSM   H12G10299   1.372   4.451  -1.528  2.5133  0.7372 -0.3835
  102OSM   C13F10300   1.406   4.663  -1.546 -0.5295  0.3477 -0.1476
  102OSM   H13F10301   1.505   4.627  -1.581  0.1842  0.2248  1.8461
  102OSM   H13G10302   1.429   4.739  -1.467 -1.2363 -0.3262  0.7226
  102OSM   C14F10303   1.325   4.714  -1.663 -0.0502  0.0467  0.2887
  102OSM   H14F10304   1.371   4.808  -1.699 -0.1246  0.3374  0.9384
  102OSM   H14G10305   1.223   4.742  -1.629  0.7039 -0.4034  3.1736
  102OSM   C15F10306   1.325   4.620  -1.786  0.5488 -0.5964  0.1220
  102OSM   H15F10307   1.242   4.549  -1.765  0.1047 -0.1823 -0.1978
  102OSM   H15G10308   1.416   4.557  -1.788  0.5851 -0.5294 -0.4488
  102OSM   C16F10309   1.320   4.710  -1.908 -0.2784  0.4066 -0.3799
  102OSM   H16F10310   1.399   4.788  -1.916  1.3811 -1.3176 -1.7998
  102OSM   H16G10311   1.221   4.761  -1.908 -0.3642  0.2574  0.6759
  102OSM   C17F10312   1.325   4.637  -2.050 -0.7266  0.2657 -0.3533
  102OSM   H17F10313   1.256   4.550  -2.054  1.2023 -1.5158  1.9175
  102OSM   H17G10314   1.429   4.597  -2.051 -0.3766  1.1576 -0.6436
  102OSM   C18F10315   1.320   4.715  -2.182 -0.3915 -0.5734 -0.3568
  102OSM   H18F10316   1.223   4.764  -2.204 -1.1629 -1.5989  0.6119
  102OSM   H18G10317   1.343   4.655  -2.272  0.4868  1.1562 -1.3437
  102OSM   H18H10318   1.392   4.800  -2.184  0.2033 -1.0691 -0.3061
  103OSM      N10319   2.473   6.159   8.155 -0.2268  0.6820 -0.1892
  103OSM    C1510320   2.396   6.133   8.279 -0.5018 -0.0837  0.1388
  103OSM   H15A10321   2.298   6.176   8.268 -0.5367 -0.6052 -1.9683
  103OSM   H15B10322   2.460   6.170   8.358  0.0138 -1.4399  0.3860
  103OSM   H15C10323   2.373   6.029   8.297 -1.6784  0.0663 -0.3948
  103OSM    C1410324   2.386   6.109   8.046 -0.2685 -0.5730  0.0240
  103OSM   H14A10325   2.373   6.002   8.044 -1.1913 -0.4623 -0.2105
  103OSM   H14B10326   2.413   6.128   7.943  0.6698 -3.5903 -0.3956
  103OSM   H14C10327   2.289   6.156   8.052 -0.1357 -0.2600 -0.2126
  103OSM    C1310328   2.507   6.303   8.132 -0.2722 -0.8135 -0.0576
  103OSM   H13A10329   2.417   6.363   8.132  2.1517  3.2165  0.6928
  103OSM   H13B10330   2.557   6.312   8.037  0.3959  1.8897  0.4745
  103OSM   H13C10331   2.572   6.341   8.210 -0.9269 -1.5081  0.8565
  103OSM    C1210332   2.607   6.089   8.157 -0.0708  0.6130  0.0009
  103OSM   H12A10333   2.676   6.124   8.081 -0.8435  1.0942 -0.4853
  103OSM   H12B10334   2.587   5.987   8.129  0.6310  1.4097 -4.2035
  103OSM    C1110335   2.686   6.091   8.296 -0.2421  0.5071 -0.3419
  103OSM   H11A10336   2.775   6.025   8.298 -0.4260  0.2460  2.1996
  103OSM   H11B10337   2.625   6.041   8.374 -0.9777  0.1424 -1.1449
  103OSM      P10338   2.852   6.287   8.344  0.4741  0.1163 -0.0490
  103OSM    O1310339   2.850   6.409   8.427 -0.2762  0.0936 -0.0635
  103OSM    O1410340   2.959   6.187   8.374  1.2783 -0.3793  0.4073
  103OSM    O1110341   2.859   6.334   8.201  0.7133  0.6858  0.2970
  103OSM    O1210342   2.705   6.222   8.352  0.1600  0.2257 -0.3775
  103OSM    C1S10343   2.970   6.320   8.114  0.0926  0.0495  0.3043
  103OSM    H1S10344   2.982   6.216   8.077  0.2698  0.2435 -0.1909
  103OSM    H1T10345   3.063   6.344   8.170 -0.0489  0.1432  0.5006
  103OSM     NF10346   3.078   6.422   7.920 -0.2368 -0.6314  0.8533
  103OSM    HNF10347   3.150   6.489   7.939 -1.4608  1.5434 -1.4335
  103OSM    C2S10348   2.961   6.436   8.008 -0.2142  1.1667 -0.5720
  103OSM    H2S10349   2.882   6.405   7.937  1.9233 -0.4091 -2.3912
  103OSM    C3S10350   2.934   6.575   8.068 -0.2246 -0.4575  0.1847
  103OSM    H3S10351   2.999   6.596   8.156  0.0440 -1.7360  0.3141
  103OSM     O310352   2.796   6.598   8.111 -0.4748  0.2076 -0.2262
  103OSM    HO310353   2.756   6.513   8.093  0.2797  0.3084 -2.8049
  103OSM    C4S10354   2.948   6.673   7.956  0.3370  0.3216 -0.2776
  103OSM    H4S10355   2.881   6.663   7.869 -0.8058  0.2920  0.5837
  103OSM    C5S10356   3.047   6.773   7.964  0.3063  0.1489 -0.5435
  103OSM    H5S10357   3.126   6.771   8.041  0.3376 -0.4574 -0.5849
  103OSM    C6S10358   3.079   6.871   7.858 -0.1842 -0.9286  0.0934
  103OSM    H6S10359   3.189   6.861   7.844  0.1165  1.0701  0.6428
  103OSM    H6T10360   3.049   6.973   7.891  0.6983 -0.1345 -1.4396
  103OSM    C7S10361   3.025   6.839   7.718 -0.0763  0.1853 -0.3191
  103OSM    H7S10362   2.914   6.839   7.719 -0.0898 -0.0740  1.7975
  103OSM    H7T10363   3.068   6.739   7.695  0.6204 -0.7976  4.2969
  103OSM    C8S10364   3.075   6.930   7.605 -0.3999 -0.2517  0.4205
  103OSM    H8S10365   3.069   6.881   7.505 -1.5419  1.0172 -0.1821
  103OSM    H8T10366   3.179   6.963   7.625 -0.1646 -0.7173 -0.0109
  103OSM    C9S10367   2.988   7.060   7.604 -0.0048 -0.0096 -0.1409
  103OSM    H9S10368   2.968   7.095   7.708 -1.5092  0.2736 -0.4991
  103OSM    H9T10369   2.889   7.028   7.565 -0.2297 -1.2073  1.2887
  103OSM   C10S10370   3.040   7.186   7.530 -0.6830 -0.0293  0.0707
  103OSM   H10S10371   3.135   7.215   7.581 -1.3127 -2.7226  3.1309
  103OSM   H10T10372   2.980   7.279   7.533 -0.0532  0.3842 -0.0594
  103OSM   C11S10373   3.071   7.167   7.380  0.3019 -0.1029 -0.4312
  103OSM   H11S10374   2.968   7.168   7.337 -0.3726  3.0092  0.9363
  103OSM   H11T10375   3.128   7.074   7.363  0.9297  0.3085 -0.5952
  103OSM   C12S10376   3.149   7.288   7.319  0.2122  0.2439  0.5881
  103OSM   H12S10377   3.254   7.299   7.352  0.4167  0.8622 -0.2447
  103OSM   H12T10378   3.092   7.372   7.364  0.1608  0.0646  0.8625
  103OSM   C13S10379   3.123   7.295   7.173 -0.3959  0.4397  0.1631
  103OSM   H13S10380   3.031   7.246   7.133 -0.3326  0.6273 -0.2187
  103OSM   H13T10381   3.213   7.244   7.134  0.5508  0.3160  2.3966
  103OSM   C14S10382   3.138   7.438   7.115  0.1000 -0.0971 -0.5105
  103OSM   H14S10383   3.240   7.472   7.142  0.1919 -1.1396  0.5431
  103OSM   H14T10384   3.057   7.499   7.161 -0.7631 -2.3575  1.1803
  103OSM   C15S10385   3.120   7.438   6.960 -0.1257 -0.2905  0.1291
  103OSM   H15S10386   3.012   7.415   6.949 -0.0661 -0.7775  0.5442
  103OSM   H15T10387   3.177   7.359   6.907 -1.0354 -1.4714  0.8582
  103OSM   C16S10388   3.147   7.580   6.908  0.2467  0.4541  0.0290
  103OSM   H16S10389   3.239   7.629   6.949  0.1744  0.8955 -0.3285
  103OSM   H16T10390   3.056   7.637   6.936 -0.1086 -0.1826  0.1803
  103OSM   C17S10391   3.165   7.576   6.751  0.2417  0.6829  0.6544
  103OSM   H17S10392   3.084   7.508   6.718 -2.1089  4.2611 -1.7241
  103OSM   H17T10393   3.263   7.529   6.727  0.6778  1.5677  0.6371
  103OSM   C18S10394   3.157   7.707   6.684 -0.2743 -0.2795 -0.0221
  103OSM   H18S10395   3.239   7.770   6.725 -0.2235  0.1622 -0.7759
  103OSM   H18T10396   3.068   7.771   6.704  1.0563  1.9333 -0.7782
  103OSM   H18U10397   3.167   7.716   6.573 -2.2358  2.4479 -0.1101
  103OSM    C1F10398   3.117   6.318   7.849 -0.0809 -0.3690 -0.2978
  103OSM     OF10399   3.032   6.241   7.808 -0.1399 -0.4394 -0.4785
  103OSM    C2F10400   3.260   6.293   7.826 -1.0884 -0.6430 -0.2760
  103OSM    H2F10401   3.316   6.246   7.909 -1.4106  0.8777  0.8486
  103OSM    H2G10402   3.305   6.395   7.818  0.2435 -1.0018  1.9009
  103OSM    C3F10403   3.277   6.213   7.698 -0.0551  0.3062  0.6566
  103OSM    H3F10404   3.222   6.267   7.617 -1.9348 -1.0684  0.9496
  103OSM    H3G10405   3.231   6.112   7.699 -0.1261  0.2931 -1.0333
  103OSM    C4F10406   3.428   6.192   7.661  0.1691 -0.7239 -0.6645
  103OSM    H4F10407   3.486   6.144   7.743  0.0152 -2.3054 -1.4513
  103OSM    H4G10408   3.475   6.291   7.646  2.2033 -1.3293  1.1345
  103OSM    C5F10409   3.443   6.127   7.526  0.5960  0.0637 -0.5757
  103OSM    H5F10410   3.377   6.038   7.525 -0.2289  0.6621 -1.2443
  103OSM    H5G10411   3.543   6.080   7.515  1.1885  0.5309  2.1394
  103OSM    C6F10412   3.403   6.220   7.414  0.2191  0.1006  0.4215
  103OSM    H6F10413   3.470   6.309   7.408 -1.2218  1.1551 -0.8308
  103OSM    H6G10414   3.303   6.265   7.428  0.2478  1.8923 -3.5581
  103OSM    C7F10415   3.410   6.134   7.283  0.7181 -0.1484 -0.2120
  103OSM    H7F10416   3.333   6.055   7.295 -0.2721  0.8972  0.4715
  103OSM    H7G10417   3.508   6.083   7.271  0.9548  0.6344 -1.7804
  103OSM    C8F10418   3.371   6.217   7.148  0.0860 -0.5796  0.2836
  103OSM    H8F10419   3.269   6.257   7.168 -0.3086 -0.9225 -0.9607
  103OSM    H8G10420   3.360   6.143   7.065 -0.2750 -2.0788  1.6051
  103OSM    C9F10421   3.455   6.333   7.109  0.2204  0.4222  0.8033
  103OSM    H9F10422   3.559   6.304   7.093 -0.3021 -1.9871  1.2626
  103OSM   C10F10423   3.414   6.461   7.104 -0.5345 -0.2426  0.8860
  103OSM   H10F10424   3.493   6.527   7.065  0.9833  0.0005  4.0269
  103OSM   C11F10425   3.288   6.533   7.138  0.5951 -0.2423  0.0647
  103OSM   H11F10426   3.319   6.632   7.176  2.2299 -1.3494  1.7749
  103OSM   H11G10427   3.224   6.478   7.211 -0.6884 -1.9065 -2.1781
  103OSM   C12F10428   3.193   6.552   7.015  0.1201  0.6253  0.6056
  103OSM   H12F10429   3.095   6.588   7.052 -0.0637 -0.6021  1.3480
  103OSM   H12G10430   3.179   6.453   6.965 -1.3016  1.4811 -0.8028
  103OSM   C13F10431   3.251   6.659   6.922  0.2266 -0.2668  0.6210
  103OSM   H13F10432   3.362   6.647   6.925  0.2136 -2.2178 -2.3675
  103OSM   H13G10433   3.220   6.758   6.962  0.1828  1.0236 -2.3658
  103OSM   C14F10434   3.203   6.661   6.779 -0.4328 -0.2188  0.6208
  103OSM   H14F10435   3.094   6.684   6.779 -0.7840 -1.6211  2.9067
  103OSM   H14G10436   3.241   6.575   6.720  2.0673  1.6432 -0.7376
  103OSM   C15F10437   3.253   6.779   6.686  0.7442  0.4269 -0.1416
  103OSM   H15F10438   3.244   6.741   6.582  0.0837  0.7357 -0.1990
  103OSM   H15G10439   3.357   6.802   6.719  0.3947 -1.7268  2.9590
  103OSM   C16F10440   3.153   6.896   6.690  0.2443 -0.7162 -0.2125
  103OSM   H16F10441   3.120   6.920   6.793 -0.2600 -0.7070 -0.3742
  103OSM   H16G10442   3.063   6.857   6.639  1.4299 -2.1551 -1.2887
  103OSM   C17F10443   3.203   7.032   6.633 -0.6557  0.0544  0.1135
  103OSM   H17F10444   3.131   7.114   6.654 -2.0024 -1.0740  0.0533
  103OSM   H17G10445   3.213   7.022   6.523  0.5531  0.6193  0.1624
  103OSM   C18F10446   3.341   7.075   6.703  0.2590  0.6253  0.1257
  103OSM   H18F10447   3.366   7.180   6.679  1.4255  0.5763  1.0372
  103OSM   H18G10448   3.425   7.011   6.671 -0.0232  1.2902 -2.1031
  103OSM   H18H10449   3.337   7.075   6.815 -0.0698  1.2424  0.1201
  104OSM      N10450   4.501   0.056   8.350 -0.5875  0.6280 -0.0631
  104OSM    C1510451   4.380  -0.016   8.414 -0.7472  0.0192  0.2043
  104OSM   H15A10452   4.391  -0.011   8.521 -1.2455 -0.4677  0.2805
  104OSM   H15B10453   4.386  -0.121   8.390  2.1985  0.3315 -0.7811
  104OSM   H15C10454   4.286   0.022   8.376 -0.1254 -0.2079 -1.6362
  104OSM    C1410455   4.634  -0.001   8.394 -0.0407 -0.1066  0.0785
  104OSM   H14A10456   4.700   0.085   8.395 -1.1660  0.8733  3.3249
  104OSM   H14B10457   4.672  -0.082   8.335  0.3575  0.3727 -0.3329
  104OSM   H14C10458   4.628  -0.033   8.497  0.8169  4.2435  1.6959
  104OSM    C1310459   4.502   0.038   8.203  0.0379  0.1775  0.2224
  104OSM   H13A10460   4.490  -0.066   8.179 -2.0037  0.2361  0.8161
  104OSM   H13B10461   4.584   0.085   8.150 -1.4613  1.3303 -1.1988
  104OSM   H13C10462   4.417   0.091   8.163  0.9817  0.2385 -1.8355
  104OSM    C1210463   4.502   0.204   8.385  0.5030  1.0079 -0.3374
  104OSM   H12A10464   4.417   0.246   8.335  0.1666 -1.4134 -1.9639
  104OSM   H12B10465   4.580   0.255   8.330 -1.0945  1.9331 -1.8215
  104OSM    C1110466   4.523   0.250   8.528  0.6562 -0.2521 -0.8054
  104OSM   H11A10467   4.441   0.201   8.583  0.9889  1.1019  0.9738
  104OSM   H11B10468   4.494   0.353   8.557  0.3875 -0.4599 -0.3397
  104OSM      P10469   4.778   0.309   8.567  0.3269  0.1190  0.0303
  104OSM    O1310470   4.756   0.435   8.638  0.0722  0.0585 -0.1774
  104OSM    O1410471   4.908   0.235   8.587  0.3558  0.2113  0.0205
  104OSM    O1110472   4.755   0.334   8.412  0.9853  0.5070  0.6738
  104OSM    O1210473   4.651   0.220   8.589 -0.3866  0.0447  0.3832
  104OSM    C1S10474   4.758   0.463   8.349  0.1221  0.1503 -0.1756
  104OSM    H1S10475   4.842   0.524   8.389  0.6333  0.4477 -1.6736
  104OSM    H1T10476   4.662   0.520   8.355  0.0684  0.2008 -1.3666
  104OSM     NF10477   4.808   0.584   8.136  0.4361  0.0753  0.6371
  104OSM    HNF10478   4.724   0.633   8.114  0.5192  0.2928  0.8028
  104OSM    C2S10479   4.795   0.448   8.196 -0.2140 -0.0213 -0.5610
  104OSM    H2S10480   4.896   0.402   8.188 -0.8589 -1.8825  1.2320
  104OSM    C3S10481   4.704   0.346   8.129  0.3007 -0.2815 -0.1611
  104OSM    H3S10482   4.600   0.371   8.160  0.4914  1.1613 -0.5852
  104OSM     O310483   4.725   0.212   8.170 -0.3233 -0.2194  0.0615
  104OSM    HO310484   4.782   0.223   8.247 -0.5310 -2.2827  0.5751
  104OSM    C4S10485   4.715   0.344   7.979 -0.0327  0.6123  0.6621
  104OSM    H4S10486   4.668   0.430   7.929  1.7758  1.0065 -0.4541
  104OSM    C5S10487   4.784   0.262   7.896 -0.5893  0.0166 -0.2736
  104OSM    H5S10488   4.836   0.174   7.936  0.8535  0.1332 -1.7760
  104OSM    C6S10489   4.797   0.283   7.749 -0.9206  0.4649  0.6179
  104OSM    H6S10490   4.708   0.335   7.707 -2.5109 -0.7598  2.3222
  104OSM    H6T10491   4.801   0.186   7.695  1.8872  0.7000  0.2429
  104OSM    C7S10492   4.938   0.356   7.712  0.5430 -0.7667  0.3164
  104OSM    H7S10493   5.024   0.301   7.756  0.1506 -1.4338  0.2643
  104OSM    H7T10494   4.943   0.460   7.750  0.9540 -0.5493 -0.3094
  104OSM    C8S10495   4.958   0.372   7.558 -0.2066  0.1250 -0.6018
  104OSM    H8S10496   4.884   0.445   7.518  0.1644  0.1170 -1.3169
  104OSM    H8T10497   4.943   0.271   7.514 -1.2340  0.7064 -1.6639
  104OSM    C9S10498   5.094   0.422   7.528  0.5672  0.0983  0.1621
  104OSM    H9S10499   5.165   0.383   7.604 -1.0176 -0.4365  1.3960
  104OSM    H9T10500   5.098   0.532   7.543 -2.6486  0.3853 -0.4089
  104OSM   C10S10501   5.148   0.382   7.395 -0.7446 -0.2284 -0.0405
  104OSM   H10S10502   5.166   0.273   7.402  1.1344  0.1267  1.7898
  104OSM   H10T10503   5.250   0.427   7.388 -0.8359 -0.1511 -1.0285
  104OSM   C11S10504   5.061   0.414   7.270  0.1377 -0.0492  0.7787
  104OSM   H11S10505   5.043   0.523   7.260  1.0895  0.0860  0.4004
  104OSM   H11T10506   4.966   0.356   7.278  0.2008 -0.0285  1.9275
  104OSM   C12S10507   5.145   0.376   7.138  0.6105 -0.1958 -0.6726
  104OSM   H12S10508   5.253   0.387   7.160  0.0062 -0.5359  3.0416
  104OSM   H12T10509   5.103   0.448   7.064 -2.7706 -2.0133 -0.7265
  104OSM   C13S10510   5.128   0.232   7.093  0.5817 -0.0502  0.0901
  104OSM   H13S10511   5.021   0.209   7.072  0.1069  1.7880  0.2985
  104OSM   H13T10512   5.169   0.155   7.162 -0.6782  0.0290  0.9553
  104OSM   C14S10513   5.209   0.220   6.959  0.2135  0.2883 -0.2844
  104OSM   H14S10514   5.211   0.113   6.927  0.9188 -0.5600  2.3583
  104OSM   H14T10515   5.310   0.260   6.981 -0.3525  0.8610  1.4460
  104OSM   C15S10516   5.145   0.309   6.847 -0.0769  0.2983  0.2218
  104OSM   H15S10517   5.158   0.414   6.882  1.4366  0.6279 -1.2108
  104OSM   H15T10518   5.037   0.288   6.833  0.1701 -0.8445 -0.0276
  104OSM   C16S10519   5.215   0.291   6.710  0.3059  0.7580 -0.5411
  104OSM   H16S10520   5.316   0.245   6.717  0.4972  1.3077  0.5660
  104OSM   H16T10521   5.220   0.394   6.669  0.4655  1.6437  1.5982
  104OSM   C17S10522   5.132   0.202   6.611 -0.4725 -0.1071  0.1729
  104OSM   H17S10523   5.021   0.210   6.619 -0.7426  0.7494 -3.0050
  104OSM   H17T10524   5.154   0.098   6.641  0.7983  0.1713  0.2515
  104OSM   C18S10525   5.176   0.224   6.465 -0.4924  0.0454  0.2216
  104OSM   H18S10526   5.154   0.330   6.438 -1.4051  0.7490  3.2801
  104OSM   H18T10527   5.120   0.163   6.391 -1.0079  0.4527  0.2667
  104OSM   H18U10528   5.283   0.198   6.449 -0.6800 -1.7988  1.6563
  104OSM    C1F10529   4.914   0.659   8.162  0.7670 -0.4707  0.2229
  104OSM     OF10530   5.014   0.612   8.206 -0.1942 -0.1964 -0.5269
  104OSM    C2F10531   4.911   0.806   8.130 -0.4116 -0.4144  0.2909
  104OSM    H2F10532   5.011   0.854   8.121 -0.8165  0.5275  0.6028
  104OSM    H2G10533   4.870   0.851   8.223  0.6874 -2.2942  1.7626
  104OSM    C3F10534   4.833   0.841   7.997  0.8407 -0.2287  0.2264
  104OSM    H3F10535   4.840   0.951   7.985  0.4765 -0.4049 -2.0949
  104OSM    H3G10536   4.724   0.822   8.008  1.1349 -1.4192  1.2511
  104OSM    C4F10537   4.901   0.785   7.865  1.1699  0.7343  0.3366
  104OSM    H4F10538   4.893   0.674   7.872 -2.9142  0.9465  1.2163
  104OSM    H4G10539   5.010   0.808   7.872  1.4788 -0.8381  1.3951
  104OSM    C5F10540   4.844   0.839   7.743 -0.1122 -0.2532  1.0174
  104OSM    H5F10541   4.834   0.949   7.757 -0.5737 -0.0918 -0.4448
  104OSM    H5G10542   4.743   0.800   7.717  0.2756  0.0138 -1.0180
  104OSM    C6F10543   4.920   0.803   7.614 -0.4241  0.1246  0.1582
  104OSM    H6F10544   4.911   0.698   7.579 -1.9856  0.6627 -1.1450
  104OSM    H6G10545   5.026   0.838   7.611 -0.9836  1.8955 -0.4212
  104OSM    C7F10546   4.861   0.888   7.501  0.6003 -0.2305 -0.7277
  104OSM    H7F10547   4.874   0.991   7.540  1.6697 -0.8329  0.6039
  104OSM    H7G10548   4.754   0.861   7.485  0.5024  0.4173 -1.2195
  104OSM    C8F10549   4.935   0.867   7.370  0.0305 -0.2012 -0.4667
  104OSM    H8F10550   4.904   0.769   7.327  3.1278 -2.1215  1.3048
  104OSM    H8G10551   5.046   0.861   7.375 -0.0886 -2.7114  1.4950
  104OSM    C9F10552   4.890   0.981   7.279  0.3616 -0.4183  0.1596
  104OSM    H9F10553   4.915   1.083   7.311  0.1522  0.0087 -0.9636
  104OSM   C10F10554   4.804   0.970   7.177  0.0034  0.3734 -0.6851
  104OSM   H10F10555   4.785   1.053   7.109  1.4511  0.4585 -1.0177
  104OSM   C11F10556   4.733   0.849   7.125  0.4577 -0.4258 -0.1957
  104OSM   H11F10557   4.626   0.860   7.098  0.5876 -0.1933 -0.6258
  104OSM   H11G10558   4.726   0.769   7.203  3.6259 -3.4906 -2.6769
  104OSM   C12F10559   4.801   0.773   7.013  0.4709  0.4712  0.2623
  104OSM   H12F10560   4.870   0.701   7.061  0.5394  0.1493 -0.3077
  104OSM   H12G10561   4.862   0.846   6.955  1.2228  0.3083  0.8275
  104OSM   C13F10562   4.719   0.677   6.925  0.0066  0.3416  0.1881
  104OSM   H13F10563   4.619   0.724   6.923 -0.5577 -0.8107  0.3240
  104OSM   H13G10564   4.697   0.579   6.973  0.3689 -0.5729 -1.4183
  104OSM   C14F10565   4.773   0.662   6.777 -0.0858 -0.0652  0.1301
  104OSM   H14F10566   4.874   0.617   6.784  1.5745  3.1314 -1.0308
  104OSM   H14G10567   4.791   0.764   6.736 -1.2479 -0.1295 -0.5965
  104OSM   C15F10568   4.687   0.592   6.676  0.1087  0.2037 -0.6369
  104OSM   H15F10569   4.584   0.633   6.681 -0.0360 -0.0071 -1.6456
  104OSM   H15G10570   4.684   0.486   6.710  1.2565 -0.5666 -2.7517
  104OSM   C16F10571   4.740   0.600   6.532  0.1016  0.2309 -0.2653
  104OSM   H16F10572   4.727   0.709   6.514 -2.7009 -0.2715 -1.8251
  104OSM   H16G10573   4.675   0.536   6.469  0.2613 -0.1195 -0.0802
  104OSM   C17F10574   4.890   0.567   6.510  0.2298 -0.0301 -0.4644
  104OSM   H17F10575   4.923   0.491   6.584 -0.1633  0.5958  0.3785
  104OSM   H17G10576   4.948   0.658   6.538 -0.1544  0.2020 -0.4174
  104OSM   C18F10577   4.935   0.542   6.363  0.3908 -0.2933 -0.2545
  104OSM   H18F10578   5.043   0.521   6.355  0.1667 -0.8591 -2.4961
  104OSM   H18G10579   4.910   0.627   6.297  1.3794  0.0255 -0.2204
  104OSM   H18H10580   4.883   0.452   6.322 -1.8708  0.3026  1.0721
  105OSM      N10581   5.847   2.900   0.322 -0.0277  1.1135  0.1230
  105OSM    C1510582   5.866   2.759   0.348 -0.4040 -0.0051 -0.5891
  105OSM   H15A10583   5.778   2.703   0.318 -2.0453  2.0907  0.0576
  105OSM   H15B10584   5.896   2.731   0.448  3.2085  0.2314 -1.4510
  105OSM   H15C10585   5.946   2.717   0.288 -0.1973  0.5322 -0.6918
  105OSM    C1410586   5.766   2.962   0.436 -0.0267 -0.3714 -0.0453
  105OSM   H14A10587   5.764   3.070   0.427  0.0014 -0.4379 -0.9682
  105OSM   H14B10588   5.824   2.938   0.524  1.8826 -0.0837 -1.1671
  105OSM   H14C10589   5.664   2.929   0.448 -0.7354  1.5480 -0.4613
  105OSM    C1310590   5.978   2.959   0.316 -0.2172 -0.8092  0.0544
  105OSM   H13A10591   6.019   2.942   0.218 -0.5491  1.6105 -0.5687
  105OSM   H13B10592   6.029   2.932   0.408 -0.6362 -0.4558  0.3953
  105OSM   H13C10593   5.966   3.065   0.332 -0.9594 -1.2092  2.7933
  105OSM    C1210594   5.778   2.925   0.189  0.2205  0.3290  0.3780
  105OSM   H12A10595   5.848   2.896   0.112 -0.4879 -0.4351  0.0101
  105OSM   H12B10596   5.762   3.031   0.176 -2.6324  0.0246  0.6579
  105OSM    C1110597   5.630   2.872   0.180  0.0025  0.2614  0.1468
  105OSM   H11A10598   5.590   2.907   0.082  0.1111  0.5533  0.2025
  105OSM   H11B10599   5.567   2.916   0.260 -1.1363 -2.1739  0.6757
  105OSM      P10600   5.606   2.624   0.081 -0.1626 -0.1524  0.1427
  105OSM    O1310601   5.685   2.503   0.113 -0.2197  0.9118 -0.6754
  105OSM    O1410602   5.459   2.612   0.059 -0.3969  0.0899 -0.4672
  105OSM    O1110603   5.675   2.708  -0.038  0.1229  0.2829  0.5101
  105OSM    O1210604   5.616   2.730   0.201 -0.0101 -0.3227  0.1425
  105OSM    C1S10605   5.779   2.651  -0.115 -0.0200 -0.3389 -0.6006
  105OSM    H1S10606   5.775   2.540  -0.121 -0.4013 -0.2571 -2.9159
  105OSM    H1T10607   5.880   2.682  -0.080  0.0901  0.5874 -1.6741
  105OSM     NF10608   5.868   2.606  -0.351  0.5158  0.0606  0.1890
  105OSM    HNF10609   5.958   2.636  -0.381  1.4090 -1.0690  1.6608
  105OSM    C2S10610   5.782   2.695  -0.269  0.1806  0.3150 -0.5248
  105OSM    H2S10611   5.682   2.672  -0.311 -0.1571  0.7914  0.0170
  105OSM    C3S10612   5.808   2.846  -0.281  0.4133 -0.6457 -0.3799
  105OSM    H3S10613   5.918   2.863  -0.272  0.4016  0.0261 -1.2990
  105OSM     O310614   5.748   2.928  -0.179  0.0935 -0.0497  0.1966
  105OSM    HO310615   5.739   2.869  -0.105 -1.5843 -0.1863 -0.0750
  105OSM    C4S10616   5.780   2.899  -0.422 -0.7889 -0.0168 -0.3462
  105OSM    H4S10617   5.814   2.829  -0.500 -1.7204 -1.0086  0.1013
  105OSM    C5S10618   5.693   2.998  -0.461 -0.1241 -0.1172  0.2541
  105OSM    H5S10619   5.645   3.058  -0.383 -1.4274 -1.6168  0.6302
  105OSM    C6S10620   5.658   3.036  -0.606 -0.3033 -0.6155  0.5997
  105OSM    H6S10621   5.638   3.146  -0.606 -1.0672 -0.7025 -1.5012
  105OSM    H6T10622   5.564   2.984  -0.634 -1.1847  0.0892  2.1182
  105OSM    C7S10623   5.764   3.001  -0.711  0.0489 -0.1078 -0.5137
  105OSM    H7S10624   5.794   2.895  -0.694  0.8323  0.1002 -0.5502
  105OSM    H7T10625   5.853   3.068  -0.717 -0.1918  0.2117 -0.5654
  105OSM    C8S10626   5.696   3.017  -0.849 -0.5268 -0.8655 -0.3989
  105OSM    H8S10627   5.601   2.960  -0.862 -2.2107  1.8022 -0.6007
  105OSM    H8T10628   5.763   2.959  -0.916  0.8449  1.3481 -1.0463
  105OSM    C9S10629   5.678   3.159  -0.910 -0.0891 -0.5219  0.1396
  105OSM    H9S10630   5.746   3.233  -0.862 -0.0369 -0.3423 -0.2096
  105OSM    H9T10631   5.576   3.198  -0.890 -1.2366 -3.0611 -0.3495
  105OSM   C10S10632   5.684   3.165  -1.063 -0.3516 -0.2291  0.6474
  105OSM   H10S10633   5.593   3.119  -1.106  0.8189 -2.1423  0.1282
  105OSM   H10T10634   5.781   3.124  -1.095  0.6375  3.3640 -1.5833
  105OSM   C11S10635   5.693   3.315  -1.110  0.2421 -0.0409  0.6046
  105OSM   H11S10636   5.755   3.384  -1.049 -1.0919  2.1588 -0.4080
  105OSM   H11T10637   5.588   3.351  -1.117  0.9260  1.8569 -0.3679
  105OSM   C12S10638   5.746   3.311  -1.254  0.2707  1.0353 -0.1552
  105OSM   H12S10639   5.689   3.244  -1.323  0.6040  2.2810 -1.6923
  105OSM   H12T10640   5.850   3.281  -1.232  0.1558 -0.2374 -1.2047
  105OSM   C13S10641   5.748   3.439  -1.331 -0.2334 -0.9971 -0.3617
  105OSM   H13S10642   5.801   3.507  -1.261 -1.4236  3.5933 -3.5196
  105OSM   H13T10643   5.645   3.475  -1.353 -0.8352 -0.2820  3.0966
  105OSM   C14S10644   5.829   3.444  -1.463  0.4504  0.2955  0.2719
  105OSM   H14S10645   5.923   3.389  -1.443  2.0123  2.7063 -0.0152
  105OSM   H14T10646   5.865   3.548  -1.481  1.0216  0.4611  2.1117
  105OSM   C15S10647   5.756   3.393  -1.589 -0.3100  0.0242  0.4767
  105OSM   H15S10648   5.657   3.441  -1.606 -1.2593 -1.5621  1.3465
  105OSM   H15T10649   5.721   3.291  -1.564 -1.0196 -0.4159 -2.0611
  105OSM   C16S10650   5.855   3.398  -1.710  0.0510  0.6573  1.0127
  105OSM   H16S10651   5.809   3.334  -1.789 -1.5372  1.3295  1.3534
  105OSM   H16T10652   5.951   3.351  -1.680  0.4185 -0.1309 -1.2135
  105OSM   C17S10653   5.871   3.535  -1.772 -0.3007  0.0815  0.9124
  105OSM   H17S10654   5.875   3.599  -1.682  1.1592 -1.2117  1.8138
  105OSM   H17T10655   5.786   3.562  -1.839  0.5928  0.4310 -0.1078
  105OSM   C18S10656   5.997   3.549  -1.856  0.0015 -0.6435 -0.0925
  105OSM   H18S10657   6.087   3.531  -1.793 -1.8371  0.3058  2.9980
  105OSM   H18T10658   6.003   3.655  -1.889 -2.3607 -0.2898  0.4608
  105OSM   H18U10659   5.994   3.494  -1.953  1.3846 -0.7895 -0.0696
  105OSM    C1F10660   5.826   2.488  -0.397 -0.1849  0.0820  0.6491
  105OSM     OF10661   5.719   2.448  -0.354 -0.0043 -0.3441 -0.5293
  105OSM    C2F10662   5.923   2.399  -0.467 -0.7848 -0.7360 -0.7059
  105OSM    H2F10663   5.994   2.379  -0.385 -1.1667  0.8723  0.0717
  105OSM    H2G10664   5.986   2.452  -0.541  0.6305  2.5109  2.5162
  105OSM    C3F10665   5.859   2.267  -0.529 -0.2907 -0.0577 -0.4056
  105OSM    H3F10666   5.801   2.206  -0.457 -2.7303 -0.1240 -2.3193
  105OSM    H3G10667   5.939   2.203  -0.572  2.2290  3.4165 -1.2997
  105OSM    C4F10668   5.760   2.312  -0.634  0.1022  0.5602  0.4427
  105OSM    H4F10669   5.815   2.366  -0.714  0.4253 -0.1105  0.2019
  105OSM    H4G10670   5.677   2.372  -0.591  0.7414  1.4453  0.4716
  105OSM    C5F10671   5.703   2.189  -0.711 -0.4521  0.0147  0.0648
  105OSM    H5F10672   5.637   2.136  -0.640  0.5287  0.7997  1.6262
  105OSM    H5G10673   5.791   2.127  -0.741 -0.1858 -0.0687  0.9946
  105OSM    C6F10674   5.606   2.229  -0.823  0.2303 -0.2610 -0.0259
  105OSM    H6F10675   5.635   2.314  -0.889  0.2195 -0.3654 -0.1659
  105OSM    H6G10676   5.535   2.283  -0.756  0.1149  2.1246 -1.9353
  105OSM    C7F10677   5.532   2.110  -0.889  0.0834 -0.2012 -0.1869
  105OSM    H7F10678   5.486   2.063  -0.800  0.4759  0.3998  0.3509
  105OSM    H7G10679   5.611   2.044  -0.930 -0.3759 -1.2286  0.5410
  105OSM    C8F10680   5.424   2.141  -0.995 -0.4039 -0.0461 -0.0538
  105OSM    H8F10681   5.370   2.230  -0.957 -1.2365 -1.0534  1.2464
  105OSM    H8G10682   5.342   2.066  -0.992 -1.8177  1.4492  0.2650
  105OSM    C9F10683   5.487   2.157  -1.133  0.2906  0.3979 -0.5968
  105OSM    H9F10684   5.536   2.068  -1.174  0.5989  1.6185 -3.0651
  105OSM   C10F10685   5.466   2.259  -1.216  0.1668 -0.3464 -0.1996
  105OSM   H10F10686   5.523   2.264  -1.310  0.0505  2.4650 -0.1836
  105OSM   C11F10687   5.385   2.378  -1.177 -0.0529 -0.0882  0.0386
  105OSM   H11F10688   5.290   2.349  -1.127  1.7516 -1.4501  2.9442
  105OSM   H11G10689   5.359   2.436  -1.268  1.9568  0.7191 -0.0689
  105OSM   C12F10690   5.450   2.477  -1.074 -0.1676  0.0143 -0.1225
  105OSM   H12F10691   5.549   2.511  -1.111  0.9971 -1.8950  1.0998
  105OSM   H12G10692   5.462   2.426  -0.976  1.6699 -2.7211 -1.6592
  105OSM   C13F10693   5.366   2.611  -1.064 -0.1200  0.2851  0.1537
  105OSM   H13F10694   5.263   2.587  -1.029  0.4886  0.3894  2.1463
  105OSM   H13G10695   5.343   2.654  -1.164 -1.7166  1.5991  1.0250
  105OSM   C14F10696   5.434   2.716  -0.977  0.5357  0.0555  0.2477
  105OSM   H14F10697   5.389   2.817  -0.974 -0.3504 -0.2233 -1.7897
  105OSM   H14G10698   5.533   2.731  -1.027  0.3693 -0.7312 -0.3419
  105OSM   C15F10699   5.448   2.681  -0.823 -0.1557  0.5187 -0.4290
  105OSM   H15F10700   5.479   2.775  -0.772 -0.4869 -0.6043  1.9688
  105OSM   H15G10701   5.519   2.599  -0.803 -0.0436  0.2854 -1.6872
  105OSM   C16F10702   5.308   2.648  -0.762  0.1519  0.0228  0.0892
  105OSM   H16F10703   5.322   2.656  -0.652  1.7616  1.0290 -0.1531
  105OSM   H16G10704   5.267   2.553  -0.801 -0.2465  0.0536  0.4334
  105OSM   C17F10705   5.200   2.756  -0.789 -1.0819 -0.0784  0.1119
  105OSM   H17F10706   5.188   2.770  -0.899 -3.6902 -2.9075 -0.1029
  105OSM   H17G10707   5.240   2.849  -0.742  1.0688 -0.7872 -0.1896
  105OSM   C18F10708   5.067   2.713  -0.735  0.4627  0.1035 -0.2506
  105OSM   H18F10709   5.023   2.639  -0.806  0.0902  0.0880 -0.0034
  105OSM   H18G10710   5.004   2.804  -0.741 -0.1740 -0.4272 -3.4617
  105OSM   H18H10711   5.082   2.687  -0.628 -1.0616  2.5652  0.6445
  106OSM      N10712   4.783   4.266   0.120 -0.7623  0.4904  0.1279
  106OSM    C1510713   4.795   4.122   0.161  0.6720 -0.1476  0.6999
  106OSM   H15A10714   4.767   4.111   0.265 -1.3013  0.2840  0.2463
  106OSM   H15B10715   4.900   4.098   0.156  0.6011 -0.2523 -0.8964
  106OSM   H15C10716   4.737   4.049   0.105 -1.1557  0.6420  1.4776
  106OSM    C1410717   4.832   4.283  -0.023  0.0716 -0.1080  0.4164
  106OSM   H14A10718   4.841   4.387  -0.048  5.5868 -0.4969 -0.4810
  106OSM   H14B10719   4.753   4.249  -0.089 -0.6416 -1.3201  1.8449
  106OSM   H14C10720   4.917   4.220  -0.047  0.3508  0.0765  0.9127
  106OSM    C1310721   4.643   4.313   0.130 -0.0223  0.9839  0.5535
  106OSM   H13A10722   4.623   4.339   0.233 -1.7821  1.2751  0.1725
  106OSM   H13B10723   4.565   4.242   0.104 -0.2417  1.5935 -0.5280
  106OSM   H13C10724   4.618   4.395   0.063  0.9824  0.3153 -0.6847
  106OSM    C1210725   4.879   4.351   0.203 -0.5012  0.4153  0.2356
  106OSM   H12A10726   4.976   4.309   0.184 -0.4171  0.3732  0.7471
  106OSM   H12B10727   4.858   4.338   0.309 -0.1143 -0.9365  0.1654
  106OSM    C1110728   4.881   4.507   0.186  0.1954  0.1821 -0.1558
  106OSM   H11A10729   4.958   4.544   0.256 -0.8645  0.3189  0.9636
  106OSM   H11B10730   4.779   4.531   0.222  0.6060 -1.2864  2.2687
  106OSM      P10731   4.835   4.681   0.013  0.0363 -0.1280 -0.4659
  106OSM    O1310732   4.701   4.645  -0.035  0.7344 -0.1248 -0.0990
  106OSM    O1410733   4.851   4.778   0.128  0.4039 -0.7138  0.1031
  106OSM    O1110734   4.918   4.744  -0.105  0.3139  0.4123 -0.3540
  106OSM    O1210735   4.915   4.552   0.058  0.2505  0.2140  0.4064
  106OSM    C1S10736   4.984   4.684  -0.208  0.6194 -0.9210  0.0107
  106OSM    H1S10737   5.044   4.599  -0.169 -0.2439 -1.0360  1.1323
  106OSM    H1T10738   5.066   4.755  -0.233  1.2401 -2.3354 -2.3387
  106OSM     NF10739   4.973   4.565  -0.436 -0.4052  1.1813 -0.4283
  106OSM    HNF10740   4.975   4.585  -0.534 -0.1700  4.1844  0.1044
  106OSM    C2S10741   4.900   4.651  -0.343 -0.0138  0.5533  0.5904
  106OSM    H2S10742   4.813   4.586  -0.318 -0.9065  1.2907 -0.5404
  106OSM    C3S10743   4.843   4.778  -0.396 -0.7094 -0.1136 -0.5257
  106OSM    H3S10744   4.927   4.851  -0.397 -1.3583  0.6771 -1.9381
  106OSM     O310745   4.745   4.833  -0.305  0.0174  0.0937 -0.1190
  106OSM    HO310746   4.740   4.771  -0.231  0.5156  1.0765  0.7635
  106OSM    C4S10747   4.784   4.763  -0.539 -0.5929  0.0050 -0.1678
  106OSM    H4S10748   4.706   4.685  -0.552 -1.5283  0.5838  1.6373
  106OSM    C5S10749   4.818   4.832  -0.648 -0.3625 -0.4293 -0.0098
  106OSM    H5S10750   4.894   4.911  -0.636 -0.4389 -0.5508  1.4116
  106OSM    C6S10751   4.766   4.813  -0.792 -0.2391 -0.0915  0.0378
  106OSM    H6S10752   4.699   4.726  -0.804  0.4636 -0.8620  1.4166
  106OSM    H6T10753   4.849   4.816  -0.865  0.0918  0.6688  0.4321
  106OSM    C7S10754   4.674   4.929  -0.836 -0.8237 -0.6002  0.4684
  106OSM    H7S10755   4.729   5.025  -0.841  1.1311 -1.5991  1.6045
  106OSM    H7T10756   4.594   4.926  -0.758  0.8772 -2.6896  2.2754
  106OSM    C8S10757   4.602   4.885  -0.970  1.5437 -0.4522  0.1631
  106OSM    H8S10758   4.519   4.959  -0.977  2.6107  0.8033  0.4201
  106OSM    H8T10759   4.552   4.786  -0.970 -1.7832  1.0975 -0.4060
  106OSM    C9S10760   4.694   4.896  -1.094  0.8123  0.2680  0.0602
  106OSM    H9S10761   4.776   4.823  -1.078 -0.8935 -1.4174  1.5326
  106OSM    H9T10762   4.732   4.999  -1.111 -0.8920  0.9296  0.0513
  106OSM   C10S10763   4.625   4.860  -1.229  0.7061  0.2768  1.2431
  106OSM   H10S10764   4.531   4.915  -1.250 -0.0438 -1.2612  0.3914
  106OSM   H10T10765   4.589   4.755  -1.221 -1.3146  0.8738  0.4724
  106OSM   C11S10766   4.718   4.875  -1.353  0.1462  0.4079 -0.7130
  106OSM   H11S10767   4.787   4.788  -1.357  1.5509  1.4703 -0.2968
  106OSM   H11T10768   4.779   4.967  -1.346  0.8323 -0.1043  0.3060
  106OSM   C12S10769   4.638   4.878  -1.475  0.0378 -0.5047  0.1530
  106OSM   H12S10770   4.706   4.898  -1.561 -0.0729  1.0097  0.3954
  106OSM   H12T10771   4.570   4.965  -1.479  1.7649  0.8959 -3.2668
  106OSM   C13S10772   4.548   4.759  -1.510 -1.3021  0.2959 -0.2639
  106OSM   H13S10773   4.538   4.763  -1.621  0.5992 -2.3922 -0.6078
  106OSM   H13T10774   4.455   4.774  -1.451 -0.2255 -0.7932  1.8077
  106OSM   C14S10775   4.602   4.621  -1.490 -0.1119  0.1565  0.1405
  106OSM   H14S10776   4.623   4.599  -1.383 -1.9957 -0.2591  0.4588
  106OSM   H14T10777   4.697   4.613  -1.547  0.0433 -1.2891  0.5680
  106OSM   C15S10778   4.497   4.522  -1.546 -0.4039 -0.3411 -0.3585
  106OSM   H15S10779   4.499   4.535  -1.656 -0.9088 -0.0698 -0.3402
  106OSM   H15T10780   4.399   4.551  -1.503 -0.5477  0.7612 -1.3975
  106OSM   C16S10781   4.524   4.375  -1.502 -0.0167  0.0007  0.7042
  106OSM   H16S10782   4.433   4.320  -1.532 -0.8495  1.4184  0.5379
  106OSM   H16T10783   4.537   4.367  -1.391  4.7743  2.3024  0.5603
  106OSM   C17S10784   4.652   4.321  -1.569 -0.2736 -0.2740 -0.4022
  106OSM   H17S10785   4.743   4.378  -1.537  0.2653 -0.8643 -0.8645
  106OSM   H17T10786   4.644   4.348  -1.676 -2.2417 -0.1597 -0.2638
  106OSM   C18S10787   4.686   4.177  -1.538  0.1603 -0.2924 -0.3605
  106OSM   H18S10788   4.664   4.155  -1.431  0.3837  2.8330  0.4178
  106OSM   H18T10789   4.794   4.169  -1.562  0.6881  1.4830  1.2126
  106OSM   H18U10790   4.628   4.109  -1.605  0.3615 -0.7287 -0.0973
  106OSM    C1F10791   5.032   4.449  -0.405  0.2074 -0.3294  0.5960
  106OSM     OF10792   4.982   4.384  -0.315 -0.6269 -0.0045  0.2922
  106OSM    C2F10793   5.139   4.410  -0.503 -1.0801  0.2375 -0.3469
  106OSM    H2F10794   5.227   4.473  -0.477 -0.5647 -1.2404  1.7935
  106OSM    H2G10795   5.109   4.435  -0.607 -2.7078 -2.6611 -0.6845
  106OSM    C3F10796   5.180   4.265  -0.496  0.4568  0.6537  0.2886
  106OSM    H3F10797   5.199   4.228  -0.393  0.3555 -1.3079 -0.3527
  106OSM    H3G10798   5.278   4.251  -0.545  0.1979  0.4963 -0.1931
  106OSM    C4F10799   5.072   4.178  -0.560 -0.0466  0.6298 -0.7387
  106OSM    H4F10800   4.974   4.184  -0.508 -0.4827  0.3464 -1.5253
  106OSM    H4G10801   5.114   4.078  -0.537  0.8727  1.2613  0.4467
  106OSM    C5F10802   5.044   4.190  -0.708  1.0374 -0.0442  0.3802
  106OSM    H5F10803   5.136   4.229  -0.758  0.5295  0.9771  0.2074
  106OSM    H5G10804   4.964   4.265  -0.730  1.9738  1.3307  1.4823
  106OSM    C6F10805   4.990   4.053  -0.761  0.1641  0.1099  0.6300
  106OSM    H6F10806   4.906   4.019  -0.696  0.7733 -1.3557  0.6941
  106OSM    H6G10807   5.073   3.980  -0.748  0.4730 -0.0095 -1.5865
  106OSM    C7F10808   4.952   4.042  -0.906 -0.3298 -0.1575  0.3329
  106OSM    H7F10809   4.864   4.104  -0.935 -0.2988  0.0665  0.7175
  106OSM    H7G10810   4.928   3.935  -0.924 -0.7367 -0.1787  0.9798
  106OSM    C8F10811   5.062   4.080  -1.009  0.1373 -0.4309 -0.4409
  106OSM    H8F10812   5.152   4.019  -0.982  1.3947  1.3441 -0.4467
  106OSM    H8G10813   5.080   4.186  -0.984 -2.5400  0.1884 -0.8885
  106OSM    C9F10814   5.008   4.057  -1.150 -0.4463 -0.0431  0.2765
  106OSM    H9F10815   4.966   3.957  -1.168  0.0943  0.0162 -1.5209
  106OSM   C10F10816   5.000   4.150  -1.249 -0.1292  0.6393 -0.1568
  106OSM   H10F10817   4.964   4.113  -1.347  0.5296  0.5640 -0.3707
  106OSM   C11F10818   5.037   4.297  -1.244 -0.1931  0.4105 -0.5990
  106OSM   H11F10819   5.145   4.311  -1.267 -0.2175  1.6041 -0.0597
  106OSM   H11G10820   5.026   4.326  -1.137 -1.7949 -2.3211  0.0847
  106OSM   C12F10821   4.949   4.394  -1.322 -0.4259 -0.3956  1.0365
  106OSM   H12F10822   4.841   4.368  -1.321 -1.1806  2.1821 -1.3172
  106OSM   H12G10823   4.983   4.377  -1.426 -0.7429  0.9296  0.6976
  106OSM   C13F10824   4.957   4.550  -1.291 -0.6681  0.0590 -0.5167
  106OSM   H13F10825   4.895   4.562  -1.200  2.2538 -0.7717  1.7098
  106OSM   H13G10826   4.920   4.615  -1.374 -1.0375  0.4345 -0.0597
  106OSM   C14F10827   5.097   4.594  -1.255 -0.5207 -0.0166  0.1010
  106OSM   H14F10828   5.152   4.610  -1.350 -3.3076  0.3242 -1.5798
  106OSM   H14G10829   5.154   4.523  -1.190  1.1323  0.8003 -0.4030
  106OSM   C15F10830   5.100   4.732  -1.178  0.6975 -0.0226  0.1095
  106OSM   H15F10831   5.026   4.787  -1.240  0.9924 -1.5590 -1.7079
  106OSM   H15G10832   5.196   4.787  -1.168 -0.0670  1.7880 -1.7011
  106OSM   C16F10833   5.053   4.731  -1.030  0.2782 -0.1741  0.6672
  106OSM   H16F10834   4.950   4.694  -1.016  0.0772 -0.1133 -0.5654
  106OSM   H16G10835   5.031   4.838  -1.009 -0.2953  0.2850 -1.9478
  106OSM   C17F10836   5.153   4.664  -0.936  0.4235  0.0848  0.5470
  106OSM   H17F10837   5.243   4.730  -0.942 -1.2231  2.4157  0.1744
  106OSM   H17G10838   5.179   4.562  -0.973  0.8801  0.6408 -0.7534
  106OSM   C18F10839   5.096   4.655  -0.791 -0.1021 -0.8179 -0.1745
  106OSM   H18F10840   5.165   4.598  -0.724  0.9240  1.6412  0.9698
  106OSM   H18G10841   5.002   4.596  -0.785 -1.9518  1.9723 -0.0543
  106OSM   H18H10842   5.076   4.753  -0.743 -0.9180 -1.8122  1.6341
  107OSM      N10843   6.538   3.566   0.805 -0.0324 -0.4300  0.5178
  107OSM    C1510844   6.488   3.434   0.749  0.5665  0.1720 -0.2484
  107OSM   H15A10845   6.475   3.444   0.643  0.8133  1.2814 -0.1947
  107OSM   H15B10846   6.392   3.404   0.788  0.5318 -0.6395 -0.9502
  107OSM   H15C10847   6.560   3.363   0.788 -0.6404  0.4396  2.7615
  107OSM    C1410848   6.570   3.546   0.947 -0.6432 -0.0120 -0.5107
  107OSM   H14A10849   6.588   3.644   0.991  1.4815 -0.3639 -0.5144
  107OSM   H14B10850   6.662   3.491   0.958 -2.3144 -2.8668  0.0795
  107OSM   H14C10851   6.495   3.505   1.013  0.2111  0.0612  0.5230
  107OSM    C1310852   6.658   3.613   0.737  0.1240  0.2059 -0.3272
  107OSM   H13A10853   6.705   3.694   0.790  0.6725 -1.6844  2.2936
  107OSM   H13B10854   6.637   3.625   0.632 -1.6995 -0.8299 -0.1194
  107OSM   H13C10855   6.734   3.536   0.730  0.4581  0.6312 -1.6375
  107OSM    C1210856   6.423   3.674   0.780 -0.4690  0.0960 -0.2694
  107OSM   H12A10857   6.428   3.758   0.847 -0.9501  0.0382 -0.1570
  107OSM   H12B10858   6.324   3.633   0.793 -1.2472  0.5074 -3.8808
  107OSM    C1110859   6.413   3.733   0.637 -0.3216  0.2267  0.9280
  107OSM   H11A10860   6.504   3.786   0.602  0.1870 -0.4335  1.2099
  107OSM   H11B10861   6.335   3.811   0.643 -0.5488  0.1149 -0.3030
  107OSM      P10862   6.226   3.612   0.518  0.4348 -0.0243 -0.2694
  107OSM    O1310863   6.203   3.498   0.430 -0.0588  0.5140 -0.2078
  107OSM    O1410864   6.161   3.631   0.653 -0.1411  0.2762 -0.4438
  107OSM    O1110865   6.176   3.731   0.433 -0.0911 -0.8187 -0.3165
  107OSM    O1210866   6.382   3.623   0.552 -0.5607  0.1714 -0.3403
  107OSM    C1S10867   6.265   3.813   0.353  0.0759  0.3339 -0.2809
  107OSM    H1S10868   6.372   3.793   0.375 -0.2349 -0.0012  0.9962
  107OSM    H1T10869   6.250   3.923   0.365 -1.7264  0.4518 -2.7295
  107OSM     NF10870   6.354   3.808   0.123 -0.8305 -0.1835  0.5319
  107OSM    HNF10871   6.338   3.894   0.074 -0.1253  0.6361  1.6969
  107OSM    C2S10872   6.240   3.776   0.205 -0.0415  0.1134 -0.5279
  107OSM    H2S10873   6.239   3.665   0.207  0.0025  0.1222  0.9072
  107OSM    C3S10874   6.108   3.833   0.151  0.1999 -0.0043 -0.3940
  107OSM    H3S10875   6.114   3.943   0.135 -1.1406 -0.2109 -2.9035
  107OSM     O310876   5.992   3.798   0.233 -0.3160  0.5760  0.0209
  107OSM    HO310877   6.023   3.763   0.316 -0.3296  1.7881  0.5634
  107OSM    C4S10878   6.096   3.773   0.018 -0.5430  0.7525 -0.4646
  107OSM    H4S10879   6.071   3.666   0.022  1.8008  0.1260 -0.8437
  107OSM    C5S10880   6.099   3.849  -0.099  0.4155 -0.3177  0.4400
  107OSM    H5S10881   6.079   3.955  -0.079 -0.2396 -0.5802  1.2699
  107OSM    C6S10882   6.078   3.791  -0.240 -0.3086 -0.2027  0.0375
  107OSM    H6S10883   6.092   3.682  -0.223 -0.2909  0.1136  2.4599
  107OSM    H6T10884   6.159   3.831  -0.305  1.1677 -0.3407  1.6955
  107OSM    C7S10885   5.938   3.809  -0.295  0.3528 -0.0600 -0.3732
  107OSM    H7S10886   5.918   3.919  -0.296 -0.4285 -0.2013 -1.1744
  107OSM    H7T10887   5.856   3.769  -0.232 -1.0889 -0.2280 -2.2787
  107OSM    C8S10888   5.911   3.765  -0.441  0.3081 -0.2808 -0.0928
  107OSM    H8S10889   5.800   3.764  -0.446  0.2589  1.3673  0.1388
  107OSM    H8T10890   5.952   3.665  -0.465  3.0429  0.3338  1.5381
  107OSM    C9S10891   5.964   3.855  -0.549 -0.5382  0.1345  0.5809
  107OSM    H9S10892   6.075   3.865  -0.551 -0.6293  1.2074  0.2587
  107OSM    H9T10893   5.927   3.958  -0.531  2.0905  1.2829 -0.0278
  107OSM   C10S10894   5.930   3.814  -0.690  0.0150 -0.3598  0.0005
  107OSM   H10S10895   5.824   3.836  -0.711  0.0024 -0.6108 -0.2008
  107OSM   H10T10896   5.936   3.704  -0.702  2.3233 -0.1044 -2.1080
  107OSM   C11S10897   6.022   3.863  -0.809 -0.5063 -0.5893  0.0607
  107OSM   H11S10898   6.129   3.852  -0.782 -0.5219  1.2656  1.0778
  107OSM   H11T10899   6.005   3.971  -0.829 -0.1452 -0.7950 -1.4659
  107OSM   C12S10900   5.995   3.792  -0.939 -0.2077  0.2254 -0.6231
  107OSM   H12S10901   5.886   3.767  -0.939 -0.3494  0.7697  0.3414
  107OSM   H12T10902   6.046   3.694  -0.948  1.7067  0.9810  1.2194
  107OSM   C13S10903   6.042   3.866  -1.064 -0.8126 -0.9054  0.4429
  107OSM   H13S10904   6.138   3.915  -1.039 -1.0014 -0.4327  0.2590
  107OSM   H13T10905   5.957   3.938  -1.063 -0.7320 -0.7815 -0.4372
  107OSM   C14S10906   6.045   3.777  -1.184 -0.3968  0.1022 -0.6225
  107OSM   H14S10907   5.949   3.723  -1.195 -0.5424  0.6137 -2.0350
  107OSM   H14T10908   6.116   3.698  -1.149 -0.0991  0.6975  0.1419
  107OSM   C15S10909   6.059   3.842  -1.316 -0.0348  0.5393  0.1521
  107OSM   H15S10910   6.069   3.772  -1.402 -0.0121  1.0298 -0.2511
  107OSM   H15T10911   6.158   3.892  -1.325  0.0996  0.2036 -0.2538
  107OSM   C16S10912   5.954   3.953  -1.349  0.3167  0.3076 -0.0273
  107OSM   H16S10913   5.965   4.042  -1.284  0.9908 -1.0747  1.8273
  107OSM   H16T10914   5.848   3.922  -1.346 -0.4397  2.5113 -1.4610
  107OSM   C17S10915   5.980   4.004  -1.492  0.1850  0.7588  0.2522
  107OSM   H17S10916   6.089   4.019  -1.508  0.4622  1.0971  2.1485
  107OSM   H17T10917   5.919   4.094  -1.516  0.3414  0.4142 -1.5826
  107OSM   C18S10918   5.940   3.896  -1.602 -0.0916  0.4482  0.0993
  107OSM   H18S10919   5.839   3.853  -1.589  0.7877 -1.7807 -0.0441
  107OSM   H18T10920   6.010   3.810  -1.599 -1.4218 -0.6502  0.1508
  107OSM   H18U10921   5.941   3.948  -1.700 -0.7054 -0.7623 -0.5719
  107OSM    C1F10922   6.474   3.745   0.125  0.4445 -0.2845 -0.3145
  107OSM     OF10923   6.477   3.643   0.197 -0.2281  0.0225 -0.1966
  107OSM    C2F10924   6.594   3.785   0.037 -0.0242  0.7083 -0.2530
  107OSM    H2F10925   6.670   3.837   0.100 -0.1522  0.5944 -0.0008
  107OSM    H2G10926   6.557   3.856  -0.040 -0.7628  1.2875  0.6045
  107OSM    C3F10927   6.650   3.670  -0.052  0.6091  1.0477  0.3172
  107OSM    H3F10928   6.559   3.630  -0.103  1.3367  1.8872 -1.7373
  107OSM    H3G10929   6.687   3.583   0.006 -0.5263 -1.4768 -2.4721
  107OSM    C4F10930   6.770   3.715  -0.150  0.2698 -0.0359 -0.6524
  107OSM    H4F10931   6.854   3.716  -0.077  2.3767 -2.0786 -2.8336
  107OSM    H4G10932   6.754   3.818  -0.189  1.4010  0.5055  0.2535
  107OSM    C5F10933   6.808   3.624  -0.262  0.1293 -0.2377  0.5923
  107OSM    H5F10934   6.765   3.523  -0.246 -1.6638  0.8504  3.5771
  107OSM    H5G10935   6.919   3.617  -0.262  0.3816  2.4767  0.2032
  107OSM    C6F10936   6.748   3.672  -0.393 -0.7036 -0.5827  0.3327
  107OSM    H6F10937   6.807   3.619  -0.472 -0.4171 -0.2185  0.3021
  107OSM    H6G10938   6.767   3.780  -0.413 -1.0654 -0.7462 -0.9986
  107OSM    C7F10939   6.602   3.663  -0.415  0.2752  0.0728  0.6051
  107OSM    H7F10940   6.546   3.729  -0.345  0.6681  2.1922 -0.9686
  107OSM    H7G10941   6.569   3.557  -0.411  0.5658  0.0020  1.1791
  107OSM    C8F10942   6.564   3.714  -0.564 -0.1821 -0.3049  0.0430
  107OSM    H8F10943   6.616   3.645  -0.633  0.9334  0.9544 -0.4302
  107OSM    H8G10944   6.603   3.816  -0.588 -0.8073 -0.3457 -1.2300
  107OSM    C9F10945   6.413   3.716  -0.581 -0.1361  1.1845 -0.6301
  107OSM    H9F10946   6.369   3.774  -0.499  3.7530  2.0623  1.0696
  107OSM   C10F10947   6.341   3.683  -0.682  0.0857 -0.1195 -0.0049
  107OSM   H10F10948   6.232   3.681  -0.678 -0.0038  0.1102 -1.5288
  107OSM   C11F10949   6.393   3.623  -0.809  0.7367  0.1622 -0.9563
  107OSM   H11F10950   6.354   3.520  -0.824  0.2333  0.2350 -0.2167
  107OSM   H11G10951   6.503   3.631  -0.807  0.5984  2.6291 -0.4400
  107OSM   C12F10952   6.342   3.708  -0.929  0.1442 -0.1152  0.3569
  107OSM   H12F10953   6.359   3.815  -0.905  1.0749 -0.5003  1.5438
  107OSM   H12G10954   6.240   3.674  -0.954  0.7766 -3.5822  1.8294
  107OSM   C13F10955   6.431   3.684  -1.059  0.1499 -0.1689 -0.0315
  107OSM   H13F10956   6.398   3.588  -1.103  0.1809 -0.3961  0.4377
  107OSM   H13G10957   6.530   3.670  -1.010 -0.6069 -1.6829  1.1767
  107OSM   C14F10958   6.429   3.792  -1.173 -0.4326  0.2070  0.2065
  107OSM   H14F10959   6.460   3.889  -1.129  3.5336 -0.5188 -0.5982
  107OSM   H14G10960   6.323   3.798  -1.204 -0.5558 -0.6620  0.4262
  107OSM   C15F10961   6.516   3.742  -1.284 -0.9024  0.5445  0.5318
  107OSM   H15F10962   6.488   3.636  -1.305  0.2668  0.3352 -0.0532
  107OSM   H15G10963   6.624   3.741  -1.259 -1.3385 -0.8452  2.7433
  107OSM   C16F10964   6.493   3.828  -1.409 -0.6344 -0.0976 -0.3038
  107OSM   H16F10965   6.545   3.922  -1.381 -0.3239 -1.0061  2.4711
  107OSM   H16G10966   6.382   3.836  -1.418 -0.5561 -1.3464 -3.3765
  107OSM   C17F10967   6.563   3.787  -1.539  0.6597 -0.1383 -0.0713
  107OSM   H17F10968   6.567   3.678  -1.555 -1.9093 -0.4107  0.7720
  107OSM   H17G10969   6.668   3.824  -1.546  1.4217 -2.0342  0.8589
  107OSM   C18F10970   6.504   3.849  -1.670 -0.3044  0.4654  0.0820
  107OSM   H18F10971   6.402   3.807  -1.681 -0.6773  1.2147  0.5805
  107OSM   H18G10972   6.560   3.822  -1.762 -1.3846 -0.4043 -0.3491
  107OSM   H18H10973   6.509   3.959  -1.683  1.7794  0.0760 -4.2481
  108OSM      N10974   2.670   3.073   8.325 -0.1947  0.5288  0.3972
  108OSM    C1510975   2.546   3.160   8.346 -0.0781 -0.4868 -0.5763
  108OSM   H15A10976   2.480   3.115   8.418  1.8925  0.7717  2.1803
  108OSM   H15B10977   2.501   3.167   8.248  0.3451  3.3602 -0.6452
  108OSM   H15C10978   2.561   3.257   8.391 -0.2045 -0.3598 -0.8068
  108OSM    C1410979   2.772   3.146   8.240  0.2842  0.5470 -0.0637
  108OSM   H14A10980   2.722   3.195   8.158  1.8565  0.5830 -1.0305
  108OSM   H14B10981   2.843   3.080   8.192 -0.4093  0.1643 -0.5828
  108OSM   H14C10982   2.828   3.219   8.296  1.8334  0.3648 -1.3017
  108OSM    C1310983   2.744   3.043   8.452  0.9653 -0.2695  0.4327
  108OSM   H13A10984   2.770   3.130   8.512  0.2419 -1.6714  2.9206
  108OSM   H13B10985   2.832   2.985   8.433  2.0302  1.7395 -1.2099
  108OSM   H13C10986   2.677   2.995   8.522  0.5791 -1.8192 -0.9494
  108OSM    C1210987   2.628   2.946   8.255 -0.4168 -0.2137 -0.7019
  108OSM   H12A10988   2.716   2.902   8.209 -0.0236 -0.2400  0.0615
  108OSM   H12B10989   2.566   2.980   8.173 -1.2450  0.9465  0.3746
  108OSM    C1110990   2.559   2.839   8.345 -0.0628  0.8100 -0.8576
  108OSM   H11A10991   2.627   2.803   8.425  2.9980 -2.1089 -4.3984
  108OSM   H11B10992   2.549   2.747   8.284  0.3218  0.5004 -0.4579
  108OSM      P10993   2.295   2.814   8.359 -0.2746  0.4508 -0.5820
  108OSM    O1310994   2.301   2.668   8.398  0.1435  0.4333  0.5114
  108OSM    O1410995   2.192   2.904   8.424  0.0098  0.8390  0.5681
  108OSM    O1110996   2.292   2.823   8.201 -0.9407  0.6061 -0.5097
  108OSM    O1210997   2.430   2.886   8.393 -0.0977  0.8292  0.2779
  108OSM    C1S10998   2.228   2.936   8.143  0.3801 -0.1795  0.7211
  108OSM    H1S10999   2.303   3.004   8.097  0.2224  0.0948  0.8616
  108OSM    H1T11000   2.155   2.991   8.207 -1.2646 -1.1745 -0.2346
  108OSM     NF11001   2.086   2.998   7.939  0.0834  0.1959  0.0012
  108OSM    HNF11002   1.990   3.024   7.946  0.0160  0.1434 -0.6480
  108OSM    C2S11003   2.124   2.888   8.028 -0.3274 -0.2781 -0.2874
  108OSM    H2S11004   2.182   2.822   7.959  0.6963 -0.4166  0.6833
  108OSM    C3S11005   2.012   2.808   8.088 -0.5110  0.4041  0.1968
  108OSM    H3S11006   1.944   2.881   8.139 -0.7671 -0.4274  1.0941
  108OSM     O311007   2.054   2.707   8.185 -0.0093 -0.0298  0.4531
  108OSM    HO311008   2.150   2.706   8.178 -0.0833 -2.6322 -2.6556
  108OSM    C4S11009   1.921   2.746   7.983 -0.1956 -0.6476  0.7870
  108OSM    H4S11010   1.843   2.818   7.953  0.8915 -0.7276 -2.5617
  108OSM    C5S11011   1.926   2.627   7.916 -0.4726 -0.0612 -0.5011
  108OSM    H5S11012   1.993   2.550   7.956 -0.8519 -0.5291 -0.7519
  108OSM    C6S11013   1.850   2.596   7.792 -0.0760  0.3002 -0.0058
  108OSM    H6S11014   1.780   2.680   7.774  0.6136  0.7917 -0.4014
  108OSM    H6T11015   1.787   2.504   7.801  1.4107 -0.6138  1.7285
  108OSM    C7S11016   1.932   2.568   7.661  0.4116  0.3174 -0.5266
  108OSM    H7S11017   1.862   2.548   7.577  0.0825 -1.3103  0.0810
  108OSM    H7T11018   1.976   2.465   7.662  0.0244  0.0954 -2.4358
  108OSM    C8S11019   2.046   2.658   7.626 -0.5862 -1.0335  0.3344
  108OSM    H8S11020   2.088   2.639   7.525  0.5462 -1.1639  0.8114
  108OSM    H8T11021   2.130   2.650   7.698  0.9098  0.5713 -1.1310
  108OSM    C9S11022   2.002   2.813   7.623 -0.2783 -0.2273 -0.1868
  108OSM    H9S11023   2.086   2.878   7.590  1.2023 -2.0556 -0.1234
  108OSM    H9T11024   1.973   2.846   7.725  1.8149  0.9236  0.1006
  108OSM   C10S11025   1.887   2.841   7.519  0.0890  0.0084 -0.9709
  108OSM   H10S11026   1.823   2.751   7.515 -1.0956  0.8192 -0.8814
  108OSM   H10T11027   1.930   2.843   7.417  0.4601 -1.8455 -0.8783
  108OSM   C11S11028   1.799   2.965   7.548 -0.2751  0.4777 -0.6846
  108OSM   H11S11029   1.867   3.042   7.590  0.9408 -2.0638  2.4709
  108OSM   H11T11030   1.739   2.928   7.633 -1.1167  0.1853 -1.3950
  108OSM   C12S11031   1.699   3.004   7.437  0.3205  0.3833  0.3661
  108OSM   H12S11032   1.609   3.061   7.468 -1.5614 -1.3282 -1.5975
  108OSM   H12T11033   1.659   2.908   7.400  1.6334 -0.3072  0.6522
  108OSM   C13S11034   1.757   3.087   7.320 -0.2168 -0.6833  0.2267
  108OSM   H13S11035   1.821   3.027   7.252 -1.2056 -0.3473 -1.0411
  108OSM   H13T11036   1.814   3.172   7.361 -1.4232  0.8470 -1.1341
  108OSM   C14S11037   1.647   3.143   7.238 -0.0515 -0.8063 -0.7570
  108OSM   H14S11038   1.690   3.215   7.165 -2.2003 -0.1646 -1.4620
  108OSM   H14T11039   1.574   3.193   7.305 -2.0396 -1.2009 -2.5550
  108OSM   C15S11040   1.564   3.040   7.155  0.9783  0.2927 -0.1844
  108OSM   H15S11041   1.553   2.941   7.204  1.0441  0.7011  0.6763
  108OSM   H15T11042   1.616   3.027   7.058 -0.9189  1.4641 -1.4266
  108OSM   C16S11043   1.424   3.096   7.118  0.0536  0.4456  0.7360
  108OSM   H16S11044   1.432   3.194   7.068  2.3646 -0.0520  0.0124
  108OSM   H16T11045   1.364   3.108   7.211  0.3145  2.3859  0.6804
  108OSM   C17S11046   1.341   3.007   7.020  0.4849 -0.4899 -0.1187
  108OSM   H17S11047   1.249   3.064   6.996  0.2992  0.0554  1.7217
  108OSM   H17T11048   1.306   2.918   7.076  0.0389  0.3158  0.9124
  108OSM   C18S11049   1.411   2.961   6.890  0.4838 -0.6121  0.2145
  108OSM   H18S11050   1.469   3.036   6.832  0.0717  0.9293  1.7117
  108OSM   H18T11051   1.343   2.903   6.823  2.7520 -0.0241 -2.8197
  108OSM   H18U11052   1.486   2.888   6.925  0.5362  0.5363  2.6834
  108OSM    C1F11053   2.178   3.050   7.855 -0.3796 -0.4506  0.2955
  108OSM     OF11054   2.295   3.018   7.850  0.1087  0.3837  0.2754
  108OSM    C2F11055   2.127   3.154   7.761  0.0681 -0.3134 -0.0874
  108OSM    H2F11056   2.021   3.180   7.786 -0.0816 -2.5185  1.9216
  108OSM    H2G11057   2.115   3.099   7.666 -0.1635  1.8257 -1.3695
  108OSM    C3F11058   2.229   3.267   7.741  0.0449  0.3013 -0.8812
  108OSM    H3F11059   2.332   3.230   7.720  0.6191 -0.7449  3.0837
  108OSM    H3G11060   2.247   3.322   7.836 -2.0956  0.2341 -0.3861
  108OSM    C4F11061   2.183   3.372   7.639  0.4113  0.1296 -0.5015
  108OSM    H4F11062   2.244   3.465   7.648 -0.5856  0.6931  0.9382
  108OSM    H4G11063   2.084   3.404   7.677  0.1519  0.0991 -1.1517
  108OSM    C5F11064   2.181   3.303   7.503  0.5460 -0.2381  0.0723
  108OSM    H5F11065   2.130   3.205   7.506 -3.3682  1.5824 -0.8089
  108OSM    H5G11066   2.288   3.286   7.478  0.5008 -0.4144 -0.0008
  108OSM    C6F11067   2.127   3.393   7.390  0.0202 -0.6612  0.1686
  108OSM    H6F11068   2.169   3.496   7.387 -0.7071 -0.2460  2.1964
  108OSM    H6G11069   2.018   3.402   7.409 -0.0290 -1.0857  0.0844
  108OSM    C7F11070   2.152   3.334   7.255  0.7460 -0.1639  0.2642
  108OSM    H7F11071   2.103   3.235   7.247  0.3581  0.0062  0.4900
  108OSM    H7G11072   2.262   3.318   7.242  1.0741  1.7648  0.2762
  108OSM    C8F11073   2.091   3.424   7.141  0.2804  0.8179 -0.3397
  108OSM    H8F11074   2.153   3.396   7.053  3.1826  2.2404  1.1060
  108OSM    H8G11075   2.117   3.532   7.149 -1.8028  1.5311 -2.3083
  108OSM    C9F11076   1.943   3.399   7.125  0.2498 -0.5872  0.2431
  108OSM    H9F11077   1.889   3.426   7.217 -0.8296  1.2598 -0.8570
  108OSM   C10F11078   1.882   3.352   7.013 -0.0487 -0.0663  0.4950
  108OSM   H10F11079   1.773   3.348   7.011 -0.0070 -1.5600 -0.3409
  108OSM   C11F11080   1.947   3.317   6.880 -0.1025 -0.1166  0.7059
  108OSM   H11F11081   1.932   3.213   6.843  0.2846  0.6474 -1.7460
  108OSM   H11G11082   2.055   3.341   6.873 -0.3339  0.3586 -3.5723
  108OSM   C12F11083   1.886   3.392   6.773  0.1781  0.5535 -0.3117
  108OSM   H12F11084   1.955   3.398   6.686 -0.4996  1.1073 -0.8273
  108OSM   H12G11085   1.879   3.496   6.813  1.3647 -0.8446  4.0562
  108OSM   C13F11086   1.764   3.339   6.708  0.1425  0.7840 -0.1494
  108OSM   H13F11087   1.709   3.409   6.640  0.8027  2.5641  1.0740
  108OSM   H13G11088   1.698   3.314   6.794 -0.1616 -2.8316 -1.2639
  108OSM   C14F11089   1.786   3.206   6.629 -0.0550  0.2564  0.5691
  108OSM   H14F11090   1.840   3.129   6.688  0.8810  0.6515  0.2487
  108OSM   H14G11091   1.854   3.226   6.544 -1.3111 -2.2286 -1.1619
  108OSM   C15F11092   1.662   3.136   6.577  0.8923 -1.0524  1.1822
  108OSM   H15F11093   1.609   3.197   6.502 -1.3474  0.1194  3.5510
  108OSM   H15G11094   1.585   3.129   6.657  0.4861  0.6672  0.9723
  108OSM   C16F11095   1.685   3.000   6.508  0.4671 -0.2126 -0.0626
  108OSM   H16F11096   1.752   2.934   6.567  0.0036 -1.7947 -1.2546
  108OSM   H16G11097   1.741   3.011   6.413 -0.0686 -0.0678 -0.3674
  108OSM   C17F11098   1.554   2.911   6.485  0.3955  0.7938  0.0804
  108OSM   H17F11099   1.469   2.965   6.437  0.6100 -0.8231 -2.2984
  108OSM   H17G11100   1.516   2.875   6.583  1.6885 -0.8249  0.0358
  108OSM   C18F11101   1.582   2.790   6.398 -0.2828  0.2990 -0.0323
  108OSM   H18F11102   1.508   2.708   6.386  3.3532 -3.1810 -0.6806
  108OSM   H18G11103   1.663   2.728   6.442  0.5781  0.5553 -1.2124
  108OSM   H18H11104   1.617   2.822   6.297  0.8770 -1.5714 -0.2645
  109OSM      N11105   2.653   4.272   0.411 -0.4679 -0.0392  0.7334
  109OSM    C1511106   2.514   4.301   0.462  0.1433  0.5767  0.3458
  109OSM   H15A11107   2.479   4.398   0.430 -3.5128 -0.6623  0.1701
  109OSM   H15B11108   2.517   4.285   0.569 -1.3613 -0.2284  0.2983
  109OSM   H15C11109   2.426   4.247   0.430 -0.5023  2.4582 -1.2681
  109OSM    C1411110   2.736   4.395   0.446  0.5714  0.4210 -0.0063
  109OSM   H14A11111   2.833   4.397   0.398  0.1992  0.5486 -0.7736
  109OSM   H14B11112   2.741   4.404   0.554  1.9075  1.5521 -0.1298
  109OSM   H14C11113   2.682   4.481   0.408 -0.7802  0.0176  0.9127
  109OSM    C1311114   2.706   4.152   0.482 -0.3737  0.3633  0.4556
  109OSM   H13A11115   2.659   4.063   0.441 -1.5898  1.5506 -0.8721
  109OSM   H13B11116   2.699   4.164   0.589  0.5444 -0.2902  0.6028
  109OSM   H13C11117   2.810   4.148   0.454 -0.0906  1.5850  1.2613
  109OSM    C1211118   2.653   4.253   0.261 -0.1047  0.2743  0.3425
  109OSM   H12A11119   2.592   4.166   0.239  0.3518 -0.4197  1.7572
  109OSM   H12B11120   2.754   4.225   0.234  0.6356  0.6240  2.5954
  109OSM    C1111121   2.603   4.370   0.171 -0.4213  0.6339 -0.8683
  109OSM   H11A11122   2.644   4.351   0.069  0.4806 -1.8514 -0.1222
  109OSM   H11B11123   2.672   4.451   0.203  1.4555 -1.1984  0.0455
  109OSM      P11124   2.374   4.314   0.113  0.0642 -0.2316  0.1283
  109OSM    O1311125   2.419   4.170   0.142 -0.0380  0.0751 -0.3476
  109OSM    O1411126   2.238   4.344   0.159  0.0281 -0.6087 -0.0920
  109OSM    O1111127   2.379   4.339  -0.046  0.0662  0.5690  0.2569
  109OSM    O1211128   2.472   4.413   0.191  0.3922 -0.0871  0.1405
  109OSM    C1S11129   2.423   4.458  -0.119 -0.4130  0.0331 -0.4094
  109OSM    H1S11130   2.519   4.492  -0.073  1.1459 -0.8827 -2.8234
  109OSM    H1T11131   2.357   4.546  -0.105 -0.2681  0.4523 -2.2202
  109OSM     NF11132   2.475   4.572  -0.316  0.0652  0.6623  0.2886
  109OSM    HNF11133   2.404   4.630  -0.354 -0.4971 -0.5133 -0.5317
  109OSM    C2S11134   2.449   4.437  -0.264 -0.0887  0.2209  0.4146
  109OSM    H2S11135   2.539   4.376  -0.287 -0.7404  0.9542 -5.7884
  109OSM    C3S11136   2.325   4.361  -0.334 -0.5702  0.2547 -0.2413
  109OSM    H3S11137   2.238   4.427  -0.317 -1.5544 -1.1768  0.5664
  109OSM     O311138   2.276   4.243  -0.265 -0.8732  0.5465  0.1968
  109OSM    HO311139   2.312   4.246  -0.176  0.2709  0.4808 -0.2494
  109OSM    C4S11140   2.354   4.343  -0.484 -0.3857 -0.4160  0.0375
  109OSM    H4S11141   2.323   4.422  -0.555  0.0298  0.0420  0.3595
  109OSM    C5S11142   2.407   4.237  -0.547  0.8690  0.3319 -0.1373
  109OSM    H5S11143   2.434   4.148  -0.488  1.1663 -0.4114 -1.3554
  109OSM    C6S11144   2.442   4.247  -0.699  0.7100 -0.0853 -0.0888
  109OSM    H6S11145   2.398   4.154  -0.742  0.1878 -0.5430  1.3783
  109OSM    H6T11146   2.547   4.221  -0.724  0.7449  1.3946 -1.6690
  109OSM    C7S11147   2.414   4.369  -0.787  0.7441 -0.9602  0.6739
  109OSM    H7S11148   2.474   4.454  -0.750  1.6013 -0.0253 -2.5334
  109OSM    H7T11149   2.304   4.387  -0.784  0.7700 -0.2107 -1.2441
  109OSM    C8S11150   2.453   4.350  -0.936 -0.5184 -0.2974  0.2356
  109OSM    H8S11151   2.401   4.257  -0.965  1.1754 -1.2812  0.2216
  109OSM    H8T11152   2.562   4.334  -0.949 -0.2563  1.1872  0.4136
  109OSM    C9S11153   2.392   4.454  -1.031 -0.4491 -0.1851  0.4271
  109OSM    H9S11154   2.439   4.555  -1.035  2.5819 -1.3814  2.3894
  109OSM    H9T11155   2.287   4.479  -1.006 -0.2267 -0.1225  1.3263
  109OSM   C10S11156   2.391   4.394  -1.178  0.6548 -0.3352 -0.4694
  109OSM   H10S11157   2.386   4.285  -1.160 -0.1916 -0.2558 -0.1849
  109OSM   H10T11158   2.492   4.413  -1.220  1.5831 -1.7366  1.0361
  109OSM   C11S11159   2.266   4.437  -1.260  0.2426 -0.1126  0.1756
  109OSM   H11S11160   2.260   4.548  -1.267 -0.0879 -0.1789 -0.7799
  109OSM   H11T11161   2.168   4.409  -1.216  0.9633 -0.7479  1.4111
  109OSM   C12S11162   2.278   4.375  -1.403 -0.5719  1.0317 -0.3851
  109OSM   H12S11163   2.283   4.266  -1.386 -0.1041  0.9947 -0.7420
  109OSM   H12T11164   2.377   4.409  -1.441  0.8446  1.1963  3.1204
  109OSM   C13S11165   2.169   4.420  -1.500  0.4531 -0.3940  0.8444
  109OSM   H13S11166   2.155   4.530  -1.492  0.0191 -0.5472  2.6711
  109OSM   H13T11167   2.082   4.365  -1.457  0.0493 -1.0824 -0.8026
  109OSM   C14S11168   2.198   4.385  -1.638 -0.6182  0.1948 -0.0700
  109OSM   H14S11169   2.296   4.431  -1.666 -0.9860 -0.2862 -2.3487
  109OSM   H14T11170   2.127   4.437  -1.706  0.4406  0.3484 -1.0946
  109OSM   C15S11171   2.200   4.234  -1.678 -0.0732 -0.1172 -0.6657
  109OSM   H15S11172   2.108   4.182  -1.644 -0.1215 -0.8799 -1.9121
  109OSM   H15T11173   2.293   4.196  -1.629 -1.9044 -2.1261  1.5304
  109OSM   C16S11174   2.213   4.204  -1.829  0.2950  0.1257  0.1983
  109OSM   H16S11175   2.225   4.094  -1.833  2.9327  0.1980  2.6409
  109OSM   H16T11176   2.304   4.250  -1.873 -0.0601  0.3007 -0.3636
  109OSM   C17S11177   2.084   4.246  -1.904  0.0306 -0.1128 -0.5137
  109OSM   H17S11178   2.073   4.356  -1.906  3.5922  0.3527 -0.3290
  109OSM   H17T11179   1.994   4.205  -1.853  0.7164 -1.4999 -0.3787
  109OSM   C18S11180   2.084   4.200  -2.048  0.5246 -0.1638 -0.2843
  109OSM   H18S11181   2.133   4.101  -2.060 -1.2808 -0.8073 -3.5036
  109OSM   H18T11182   2.133   4.283  -2.103 -2.1015  1.2225 -0.6635
  109OSM   H18U11183   1.982   4.190  -2.089 -0.1821  2.5276  0.6170
  109OSM    C1F11184   2.585   4.639  -0.285  0.7615  0.1997  0.2849
  109OSM     OF11185   2.682   4.588  -0.233 -0.4820  0.4353 -0.4934
  109OSM    C2F11186   2.593   4.775  -0.350 -0.0200 -0.1508  0.2366
  109OSM    H2F11187   2.492   4.819  -0.366  0.2323 -0.5070 -2.9846
  109OSM    H2G11188   2.634   4.760  -0.452  3.5718 -2.0550  1.7752
  109OSM    C3F11189   2.679   4.885  -0.282 -0.3958 -0.1381 -0.0754
  109OSM    H3F11190   2.784   4.850  -0.272 -0.6635 -1.0583 -0.3621
  109OSM    H3G11191   2.637   4.910  -0.183 -0.5583  0.3212 -0.2551
  109OSM    C4F11192   2.682   5.016  -0.370 -0.0459 -0.3541 -0.3633
  109OSM    H4F11193   2.690   5.108  -0.309  1.0831 -1.3201  1.0180
  109OSM    H4G11194   2.587   5.017  -0.428 -1.5184 -1.5612  1.9137
  109OSM    C5F11195   2.806   5.028  -0.453 -0.5592  0.9485 -0.2329
  109OSM    H5F11196   2.819   4.936  -0.514 -0.6171  0.0088  1.1450
  109OSM    H5G11197   2.901   5.038  -0.395 -0.4806  1.9560 -0.5222
  109OSM    C6F11198   2.805   5.155  -0.539  0.0083 -0.4333  0.1049
  109OSM    H6F11199   2.803   5.240  -0.468 -0.8608 -0.9830  0.7583
  109OSM    H6G11200   2.712   5.161  -0.598  0.7983 -0.6954 -1.1985
  109OSM    C7F11201   2.931   5.174  -0.630 -0.0067 -0.4450 -0.3123
  109OSM    H7F11202   2.947   5.077  -0.683  0.6511 -0.5291  0.0226
  109OSM    H7G11203   3.015   5.183  -0.558  1.4327  0.0043 -1.9748
  109OSM    C8F11204   2.917   5.294  -0.727  0.0855  1.2079 -0.0005
  109OSM    H8F11205   2.918   5.391  -0.673  1.0753  0.1842  1.9195
  109OSM    H8G11206   2.823   5.284  -0.786  2.3205 -0.1262 -3.6500
  109OSM    C9F11207   3.035   5.272  -0.818 -0.0224 -0.1398  0.4122
  109OSM    H9F11208   3.130   5.243  -0.770  0.1906 -0.8430 -0.3933
  109OSM   C10F11209   3.041   5.279  -0.955 -0.2506 -1.4051 -0.9919
  109OSM   H10F11210   3.138   5.263  -1.005  1.4834  0.3826  1.5860
  109OSM   C11F11211   2.933   5.330  -1.044 -0.4077  0.3294  0.1495
  109OSM   H11F11212   2.974   5.420  -1.094 -0.4078  0.3738  0.2290
  109OSM   H11G11213   2.833   5.355  -1.003  0.5667  2.1537  1.5341
  109OSM   C12F11214   2.884   5.239  -1.159 -0.4938  0.2344 -0.3124
  109OSM   H12F11215   2.882   5.135  -1.122  0.5740  0.0939 -0.6051
  109OSM   H12G11216   2.949   5.250  -1.249 -1.3787 -0.8436 -1.1119
  109OSM   C13F11217   2.742   5.278  -1.207 -0.6853  0.1270  0.3303
  109OSM   H13F11218   2.682   5.241  -1.121 -0.6238 -0.8634 -0.0469
  109OSM   H13G11219   2.719   5.235  -1.307  0.0933 -0.5687  0.4396
  109OSM   C14F11220   2.715   5.436  -1.224  0.3860  0.5562 -0.3189
  109OSM   H14F11221   2.812   5.490  -1.230  1.3119 -1.0840 -0.6515
  109OSM   H14G11222   2.673   5.474  -1.129 -0.8916  2.8733 -1.7135
  109OSM   C15F11223   2.642   5.477  -1.354 -0.2281  0.2297 -0.4272
  109OSM   H15F11224   2.538   5.438  -1.345 -0.1172  0.0121 -0.0890
  109OSM   H15G11225   2.681   5.435  -1.449 -1.1853  1.1950 -1.2796
  109OSM   C16F11226   2.618   5.630  -1.358  0.3038 -0.1136 -0.0730
  109OSM   H16F11227   2.714   5.685  -1.344 -0.3001  0.8584  0.4472
  109OSM   H16G11228   2.552   5.657  -1.272  1.5359 -0.0777  0.8991
  109OSM   C17F11229   2.553   5.682  -1.485  0.4341 -0.4547  0.2535
  109OSM   H17F11230   2.620   5.659  -1.570 -0.6688 -1.6846 -0.3229
  109OSM   H17G11231   2.539   5.791  -1.473  2.2129 -0.2685  1.0178
  109OSM   C18F11232   2.416   5.619  -1.519 -0.2920  0.1861  0.2390
  109OSM   H18F11233   2.342   5.628  -1.436  0.5144 -0.8368  1.1053
  109OSM   H18G11234   2.430   5.510  -1.531 -1.1691 -0.0383  1.1292
  109OSM   H18H11235   2.389   5.651  -1.622  1.4452  0.5698 -0.1363
  110OSM      N11236   0.502   1.373   0.021  0.3469  0.3615 -0.3072
  110OSM    C1511237   0.590   1.309   0.131  0.0689  0.6900 -0.8029
  110OSM   H15A11238   0.554   1.331   0.230 -0.0680  0.4176 -0.7929
  110OSM   H15B11239   0.687   1.357   0.117  1.1236 -1.6941 -2.3931
  110OSM   H15C11240   0.604   1.204   0.115  0.3215  0.7209 -0.7892
  110OSM    C1411241   0.545   1.325  -0.114 -0.1326  0.3140  0.4499
  110OSM   H14A11242   0.528   1.219  -0.128 -3.0809  0.6401  0.9264
  110OSM   H14B11243   0.651   1.344  -0.123 -0.6116  2.7926 -0.7580
  110OSM   H14C11244   0.483   1.374  -0.188  0.5170 -0.8175 -0.8909
  110OSM    C1311245   0.363   1.326   0.053  0.1405  0.5847 -0.8519
  110OSM   H13A11246   0.291   1.352  -0.023 -1.7302 -0.1661  0.5761
  110OSM   H13B11247   0.327   1.371   0.145 -1.7708  0.2085 -1.3722
  110OSM   H13C11248   0.354   1.218   0.058 -3.0438  0.7958  0.3548
  110OSM    C1211249   0.496   1.527   0.034 -0.6903  1.1883  0.4696
  110OSM   H12A11250   0.490   1.548   0.140 -0.5897  0.9539  0.5221
  110OSM   H12B11251   0.407   1.566  -0.014 -0.2443 -0.4364 -1.8416
  110OSM    C1111252   0.624   1.600  -0.020  0.7010  0.1781 -0.3761
  110OSM   H11A11253   0.603   1.709  -0.020  0.1952  0.0943  0.9665
  110OSM   H11B11254   0.639   1.556  -0.122  1.4691  1.6942 -0.9434
  110OSM      P11255   0.829   1.669   0.129 -0.0956  0.0402  0.4128
  110OSM    O1311256   0.765   1.721   0.254 -0.2724  0.3345  0.4245
  110OSM    O1411257   0.965   1.619   0.149 -0.1540  0.6743 -0.2293
  110OSM    O1111258   0.839   1.799   0.031  0.4608 -0.0639 -0.5197
  110OSM    O1211259   0.742   1.563   0.053  0.7965  0.8016  0.1604
  110OSM    C1S11260   0.914   1.782  -0.091 -0.1281  0.3942  0.3671
  110OSM    H1S11261   0.843   1.743  -0.166 -0.2877 -2.2498  1.7744
  110OSM    H1T11262   0.995   1.706  -0.088  1.6495  1.9890 -2.3948
  110OSM     NF11263   1.050   1.892  -0.253 -0.3020 -0.0306  0.2093
  110OSM    HNF11264   1.128   1.830  -0.262 -0.7343 -0.6391  0.5729
  110OSM    C2S11265   0.991   1.910  -0.125 -0.7518 -1.2399 -0.3610
  110OSM    H2S11266   0.924   1.996  -0.148  1.6720  1.2277  1.3179
  110OSM    C3S11267   1.089   1.952  -0.012  0.4494 -0.0163 -0.4899
  110OSM    H3S11268   1.168   1.876   0.007 -0.7391 -0.8799  1.1953
  110OSM     O311269   1.025   1.969   0.113 -0.1257  0.5121 -0.3395
  110OSM    HO311270   0.935   1.940   0.101  0.1536 -0.5274 -0.0109
  110OSM    C4S11271   1.154   2.079  -0.050  0.2727 -0.0721 -0.6403
  110OSM    H4S11272   1.081   2.161  -0.053 -1.4811 -1.5536 -3.1929
  110OSM    C5S11273   1.283   2.106  -0.079  0.8294  0.0086 -0.0583
  110OSM    H5S11274   1.361   2.029  -0.068  1.2834  0.6678  1.6740
  110OSM    C6S11275   1.339   2.237  -0.109 -0.6033 -0.3697 -0.0918
  110OSM    H6S11276   1.440   2.223  -0.151 -1.0826  0.3608 -1.5656
  110OSM    H6T11277   1.352   2.298  -0.017 -2.5817  0.0860 -0.0691
  110OSM    C7S11278   1.251   2.302  -0.215  0.2927 -0.1584 -0.3123
  110OSM    H7S11279   1.317   2.381  -0.258  0.9248 -0.6066 -0.1850
  110OSM    H7T11280   1.162   2.350  -0.169  0.0309 -1.1438  0.2334
  110OSM    C8S11281   1.202   2.215  -0.330  0.2717  0.0148 -0.3291
  110OSM    H8S11282   1.122   2.145  -0.298  0.0921  0.7475  0.9019
  110OSM    H8T11283   1.289   2.155  -0.365  1.9522  2.2072 -0.1784
  110OSM    C9S11284   1.158   2.303  -0.448 -0.1359 -0.8783 -0.1377
  110OSM    H9S11285   1.238   2.378  -0.462 -1.0798  0.2450  0.3412
  110OSM    H9T11286   1.075   2.359  -0.401  1.5662 -0.0138  1.9753
  110OSM   C10S11287   1.142   2.234  -0.579 -0.6190  0.3637 -0.4831
  110OSM   H10S11288   1.053   2.169  -0.563 -1.0990  1.0565 -0.2580
  110OSM   H10T11289   1.226   2.166  -0.602 -0.3114  0.1068  1.2444
  110OSM   C11S11290   1.110   2.323  -0.702  0.3019  1.0637 -0.2473
  110OSM   H11S11291   1.207   2.378  -0.713  2.2704 -1.9469  0.7953
  110OSM   H11T11292   1.022   2.390  -0.690 -1.6878 -1.4074 -0.3016
  110OSM   C12S11293   1.088   2.239  -0.830 -0.7239 -0.1226 -0.2020
  110OSM   H12S11294   1.002   2.169  -0.816 -0.4057 -0.3703  0.5814
  110OSM   H12T11295   1.182   2.181  -0.843 -1.8498 -2.1695  0.2359
  110OSM   C13S11296   1.050   2.316  -0.958  0.3115 -0.0879  0.1261
  110OSM   H13S11297   1.127   2.389  -0.993  1.0023 -0.4197  0.9085
  110OSM   H13T11298   0.957   2.376  -0.963  0.7459  0.5892  0.1170
  110OSM   C14S11299   1.046   2.216  -1.081  0.4962 -0.0506  0.2428
  110OSM   H14S11300   0.990   2.125  -1.050  0.7741  0.2405  1.6926
  110OSM   H14T11301   1.145   2.171  -1.106 -1.2427 -3.6885 -0.7555
  110OSM   C15S11302   0.994   2.277  -1.213  0.3161  0.2627 -0.5020
  110OSM   H15S11303   1.057   2.362  -1.248 -1.5404  1.1833 -1.7332
  110OSM   H15T11304   0.893   2.321  -1.202  0.8245  1.3612 -0.0727
  110OSM   C16S11305   0.988   2.181  -1.335 -0.5585  0.3255 -0.3263
  110OSM   H16S11306   0.929   2.093  -1.301  1.5749 -1.1856 -0.3516
  110OSM   H16T11307   1.089   2.156  -1.373 -0.6399 -0.1033 -0.2660
  110OSM   C17S11308   0.913   2.236  -1.451 -0.1327 -0.1514  0.2060
  110OSM   H17S11309   0.811   2.254  -1.411 -0.5010 -0.1551 -0.7021
  110OSM   H17T11310   0.904   2.158  -1.530  1.0489  0.0736 -0.1609
  110OSM   C18S11311   0.970   2.368  -1.504 -0.3526  0.8663 -0.3338
  110OSM   H18S11312   1.074   2.347  -1.536 -0.0368  1.3168  0.3677
  110OSM   H18T11313   0.975   2.444  -1.423  0.0551 -1.0939  1.5684
  110OSM   H18U11314   0.916   2.395  -1.597 -1.1026 -0.6180 -0.3590
  110OSM    C1F11315   0.980   1.884  -0.369  0.6129 -0.1995 -0.0564
  110OSM     OF11316   0.854   1.897  -0.366 -0.6663  0.7926  0.1262
  110OSM    C2F11317   1.058   1.861  -0.498  0.9683  0.0666  0.0675
  110OSM    H2F11318   1.147   1.797  -0.479  1.9078  1.0446 -0.8875
  110OSM    H2G11319   1.097   1.960  -0.528  0.0916  0.6402  0.7526
  110OSM    C3F11320   0.964   1.809  -0.608  0.1929 -0.3182  0.2947
  110OSM    H3F11321   0.897   1.890  -0.644  1.3888 -0.1807 -1.8022
  110OSM    H3G11322   0.901   1.722  -0.579  0.1389 -0.5671 -0.5282
  110OSM    C4F11323   1.034   1.785  -0.744  0.4497 -0.2983  0.6530
  110OSM    H4F11324   1.100   1.695  -0.745  0.3165 -0.4482 -1.8225
  110OSM    H4G11325   1.099   1.874  -0.756 -0.7261  0.4012 -0.9363
  110OSM    C5F11326   0.934   1.768  -0.857 -0.2740 -0.0460  0.3937
  110OSM    H5F11327   0.857   1.847  -0.860  1.5276  1.7820 -1.3576
  110OSM    H5G11328   0.887   1.669  -0.837 -2.0174 -0.0262 -2.9343
  110OSM    C6F11329   1.003   1.755  -0.987 -0.6049  1.0954 -0.8475
  110OSM    H6F11330   1.084   1.683  -0.965 -1.1900  0.6543 -0.0755
  110OSM    H6G11331   1.048   1.851  -1.020 -0.2225  1.6704  1.1884
  110OSM    C7F11332   0.911   1.686  -1.092  0.5395 -0.2247  0.2238
  110OSM    H7F11333   0.818   1.745  -1.103  0.4540 -0.7473 -2.9556
  110OSM    H7G11334   0.885   1.585  -1.053  1.7168 -1.1441 -1.2403
  110OSM    C8F11335   0.967   1.680  -1.236 -0.9610  0.1611  0.3696
  110OSM    H8F11336   0.896   1.630  -1.306  0.6655  1.6246 -2.5404
  110OSM    H8G11337   1.054   1.612  -1.233 -1.9395 -1.3015 -1.8192
  110OSM    C9F11338   1.015   1.814  -1.293  0.0989  0.4920  0.1371
  110OSM    H9F11339   1.011   1.898  -1.222  0.5821 -0.2457  1.0561
  110OSM   C10F11340   1.058   1.833  -1.421  0.3454 -0.2965 -0.5807
  110OSM   H10F11341   1.089   1.933  -1.454  0.6881  0.0589  0.7699
  110OSM   C11F11342   1.060   1.723  -1.524 -0.0182 -0.6422  0.1899
  110OSM   H11F11343   0.957   1.687  -1.546  0.9259 -3.6949  0.3985
  110OSM   H11G11344   1.116   1.642  -1.473  0.7598 -0.5187 -0.4581
  110OSM   C12F11345   1.126   1.748  -1.658 -0.4176  0.1742 -0.8734
  110OSM   H12F11346   1.176   1.655  -1.692 -1.5256 -0.9656  0.4808
  110OSM   H12G11347   1.207   1.821  -1.637  0.3185 -0.8287 -0.1336
  110OSM   C13F11348   1.043   1.815  -1.769  0.2348 -0.6150  0.7034
  110OSM   H13F11349   0.938   1.780  -1.779 -0.4314  0.9905  1.7340
  110OSM   H13G11350   1.095   1.797  -1.865 -0.0872 -0.0449  0.4148
  110OSM   C14F11351   1.025   1.966  -1.746 -0.1440 -0.8934 -0.3449
  110OSM   H14F11352   1.123   2.015  -1.730 -0.8505  0.1136  1.1949
  110OSM   H14G11353   0.963   1.967  -1.653 -3.6574 -2.2391 -2.4612
  110OSM   C15F11354   0.947   2.042  -1.852  0.5207  0.7495  0.8871
  110OSM   H15F11355   0.845   2.000  -1.837 -0.1392  2.6108  2.0397
  110OSM   H15G11356   0.971   2.008  -1.955 -1.4834 -1.0387  0.9300
  110OSM   C16F11357   0.954   2.193  -1.857  1.1383 -0.1864  0.5408
  110OSM   H16F11358   1.064   2.208  -1.867  1.5424 -2.0057  1.7987
  110OSM   H16G11359   0.931   2.236  -1.757  0.4841  0.9436 -0.0730
  110OSM   C17F11360   0.887   2.269  -1.977  0.1268  0.8194 -0.1709
  110OSM   H17F11361   0.954   2.250  -2.064 -2.1398 -2.3040 -1.4355
  110OSM   H17G11362   0.899   2.379  -1.964 -0.1328  0.6376  1.9189
  110OSM   C18F11363   0.761   2.209  -2.037  0.1828 -0.1314 -0.1400
  110OSM   H18F11364   0.725   2.272  -2.121 -3.2729 -1.0101  0.5458
  110OSM   H18G11365   0.684   2.214  -1.957 -0.1246  0.6088 -0.4677
  110OSM   H18H11366   0.759   2.102  -2.067 -0.1283 -0.1998  0.1164
  111OSM      N11367   1.859   0.266   0.048  0.8651  0.5898 -0.0610
  111OSM    C1511368   1.817   0.146   0.132  0.1093  0.0702 -0.0588
  111OSM   H15A11369   1.780   0.182   0.227 -2.6949  1.0860 -1.4054
  111OSM   H15B11370   1.902   0.083   0.151 -1.3170 -1.5212  1.3493
  111OSM   H15C11371   1.736   0.092   0.084 -0.6640  1.5670 -0.5162
  111OSM    C1411372   1.920   0.374   0.126  0.0348 -0.7140  0.5328
  111OSM   H14A11373   1.858   0.399   0.212 -0.6562  0.4020 -0.2586
  111OSM   H14B11374   1.930   0.468   0.073 -2.0588 -0.6728  0.1079
  111OSM   H14C11375   2.015   0.354   0.173 -0.3010  0.4453  1.7844
  111OSM    C1311376   1.949   0.214  -0.057  0.5988  0.5253  0.0309
  111OSM   H13A11377   2.031   0.150  -0.027  0.0603  0.0332  0.4775
  111OSM   H13B11378   1.987   0.300  -0.110  0.0572 -0.2890 -1.7790
  111OSM   H13C11379   1.885   0.157  -0.123  0.9125  1.3849 -1.0439
  111OSM    C1211380   1.739   0.334  -0.024 -0.0491 -0.0138 -0.1143
  111OSM   H12A11381   1.775   0.416  -0.086  1.4389 -0.4198  0.1624
  111OSM   H12B11382   1.683   0.386   0.052  0.2369  2.1385 -1.2942
  111OSM    C1111383   1.642   0.248  -0.106 -0.5435  0.0534 -0.6012
  111OSM   H11A11384   1.702   0.180  -0.171 -0.4341 -0.6170  0.1901
  111OSM   H11B11385   1.583   0.309  -0.177  0.3613 -1.0842 -2.4247
  111OSM      P11386   1.530   0.022  -0.040 -0.2721  0.0106 -0.1238
  111OSM    O1311387   1.656  -0.049  -0.023  0.2037  0.1580 -0.2951
  111OSM    O1411388   1.411  -0.026   0.030 -0.2649 -0.1983 -0.2489
  111OSM    O1111389   1.483   0.027  -0.190 -0.4678 -0.5303 -0.0557
  111OSM    O1211390   1.554   0.177  -0.019  0.3193  0.2887  0.2678
  111OSM    C1S11391   1.345   0.047  -0.234 -0.7801 -0.3890 -0.1097
  111OSM    H1S11392   1.302   0.141  -0.193 -3.0713 -0.7155 -1.6318
  111OSM    H1T11393   1.274  -0.033  -0.204  1.6336 -2.8208 -0.5060
  111OSM     NF11394   1.202   0.106  -0.423 -1.0647 -0.3815 -0.2670
  111OSM    HNF11395   1.124   0.045  -0.431 -1.0025 -1.0291  2.8347
  111OSM    C2S11396   1.333   0.051  -0.390  0.5016  0.0247  0.2925
  111OSM    H2S11397   1.421   0.109  -0.426  0.8252 -2.0893 -2.6527
  111OSM    C3S11398   1.369  -0.096  -0.444 -0.2978 -0.7369 -0.3345
  111OSM    H3S11399   1.301  -0.168  -0.393 -1.1861 -0.8950 -1.7038
  111OSM     O311400   1.500  -0.135  -0.400 -0.2391 -0.1093 -0.0793
  111OSM    HO311401   1.519  -0.068  -0.334 -0.2211  0.1512 -0.3470
  111OSM    C4S11402   1.362  -0.095  -0.594 -0.3178  0.5098 -0.2759
  111OSM    H4S11403   1.262  -0.119  -0.633 -0.7945  1.7194  0.1546
  111OSM    C5S11404   1.470  -0.071  -0.673  0.0727  0.3266 -0.0470
  111OSM    H5S11405   1.563  -0.029  -0.630  0.9432  0.3291 -1.8261
  111OSM    C6S11406   1.469  -0.058  -0.823 -0.2836  0.7723  0.1068
  111OSM    H6S11407   1.552  -0.121  -0.863 -1.5447 -1.0689  0.2562
  111OSM    H6T11408   1.494   0.049  -0.840 -0.6691  0.7767 -0.4686
  111OSM    C7S11409   1.346  -0.091  -0.902  0.4776  0.2156  0.5990
  111OSM    H7S11410   1.257  -0.029  -0.880 -0.7555 -0.9059 -1.0544
  111OSM    H7T11411   1.294  -0.186  -0.876  1.5597 -0.0649  1.8877
  111OSM    C8S11412   1.373  -0.099  -1.060 -0.4423 -0.7900 -0.1298
  111OSM    H8S11413   1.311  -0.184  -1.098  0.2051 -0.2998 -2.4303
  111OSM    H8T11414   1.476  -0.125  -1.093  0.5952  2.6734 -0.0275
  111OSM    C9S11415   1.330   0.037  -1.122 -0.6909 -0.3053 -0.1551
  111OSM    H9S11416   1.375   0.125  -1.071 -1.1462 -1.4675  2.4377
  111OSM    H9T11417   1.220   0.034  -1.108 -0.6594 -3.1345  0.1444
  111OSM   C10S11418   1.362   0.054  -1.273  0.1631 -0.7846 -0.0779
  111OSM   H10S11419   1.472   0.070  -1.274  0.0453  0.4939  1.8989
  111OSM   H10T11420   1.300   0.130  -1.327 -0.2068 -2.8077 -2.7015
  111OSM   C11S11421   1.338  -0.080  -1.351  0.5191 -0.5575 -0.3140
  111OSM   H11S11422   1.249  -0.130  -1.306 -0.1149  0.0319 -0.8902
  111OSM   H11T11423   1.425  -0.148  -1.334  1.9449  0.9709 -1.2114
  111OSM   C12S11424   1.316  -0.051  -1.502  0.3952  0.2514  0.2502
  111OSM   H12S11425   1.224   0.006  -1.527  0.5287 -0.6365 -2.7234
  111OSM   H12T11426   1.301  -0.150  -1.551  0.5542 -0.3872  1.4573
  111OSM   C13S11427   1.432   0.026  -1.575  0.4945  0.2984 -0.4490
  111OSM   H13S11428   1.526  -0.030  -1.556 -0.8858 -1.8389  0.3651
  111OSM   H13T11429   1.437   0.131  -1.538 -0.3925  1.2821 -2.9625
  111OSM   C14S11430   1.392   0.049  -1.727  0.5316 -0.0677 -0.6467
  111OSM   H14S11431   1.312   0.126  -1.733  1.2949  0.6302 -2.3439
  111OSM   H14T11432   1.352  -0.052  -1.752 -3.3228  1.0821  0.2980
  111OSM   C15S11433   1.516   0.088  -1.811  0.3059 -0.1727 -1.1141
  111OSM   H15S11434   1.566   0.173  -1.759  0.1993 -0.7789  0.0186
  111OSM   H15T11435   1.486   0.124  -1.911 -0.3073  1.9811 -0.2318
  111OSM   C16S11436   1.611  -0.035  -1.842 -0.3444  0.0990 -0.5581
  111OSM   H16S11437   1.553  -0.117  -1.889 -1.3509  1.2922 -1.4493
  111OSM   H16T11438   1.658  -0.076  -1.750  3.0346 -0.4069 -2.3246
  111OSM   C17S11439   1.712  -0.004  -1.948 -0.2316 -0.0462 -0.2733
  111OSM   H17S11440   1.785   0.071  -1.912 -1.2424  0.0750  1.6641
  111OSM   H17T11441   1.660   0.047  -2.031 -0.1528 -1.9066 -1.5254
  111OSM   C18S11442   1.779  -0.115  -2.013 -0.3159  0.4183 -0.5569
  111OSM   H18S11443   1.860  -0.153  -1.948 -0.4529  1.1424  0.0471
  111OSM   H18T11444   1.832  -0.078  -2.103 -2.9076  3.6083 -0.9658
  111OSM   H18U11445   1.706  -0.196  -2.039 -2.9788  2.4317  0.1811
  111OSM    C1F11446   1.176   0.230  -0.404 -0.3192  0.1114  0.3290
  111OSM     OF11447   1.251   0.315  -0.357  0.2100  0.0916 -0.2127
  111OSM    C2F11448   1.035   0.261  -0.432 -0.8584  0.1780 -0.4057
  111OSM    H2F11449   0.975   0.242  -0.341 -1.9375  0.4273 -1.0432
  111OSM    H2G11450   1.002   0.193  -0.514 -0.4779 -0.3012 -0.1661
  111OSM    C3F11451   1.021   0.412  -0.475 -0.5121 -0.2757  0.2978
  111OSM    H3F11452   1.055   0.484  -0.398  0.2935  0.6331 -0.8779
  111OSM    H3G11453   0.911   0.426  -0.486 -0.3183  0.2691 -1.1158
  111OSM    C4F11454   1.079   0.456  -0.608  1.0142 -0.3790 -0.2892
  111OSM    H4F11455   1.190   0.463  -0.599  0.9664 -1.0433  1.0445
  111OSM    H4G11456   1.044   0.560  -0.627  0.2702 -0.7025 -0.7153
  111OSM    C5F11457   1.034   0.371  -0.732 -0.3379  0.4846 -0.4057
  111OSM    H5F11458   0.923   0.375  -0.727 -0.4732 -0.6020 -1.7044
  111OSM    H5G11459   1.058   0.262  -0.727  0.1590  0.5925 -0.4269
  111OSM    C6F11460   1.095   0.425  -0.866  0.4024 -0.4942 -0.2032
  111OSM    H6F11461   1.205   0.432  -0.864  0.3607  0.8487 -1.2058
  111OSM    H6G11462   1.050   0.524  -0.889  0.9399 -0.7061 -2.3844
  111OSM    C7F11463   1.056   0.334  -0.982 -0.5249 -0.3075 -0.0903
  111OSM    H7F11464   0.948   0.318  -0.959 -0.2667 -0.2467  1.2085
  111OSM    H7G11465   1.110   0.238  -0.983 -0.7556 -0.4651  1.2969
  111OSM    C8F11466   1.055   0.397  -1.127 -0.0357  0.3899  0.3746
  111OSM    H8F11467   1.152   0.451  -1.140 -0.3250  0.6386 -0.9384
  111OSM    H8G11468   0.976   0.475  -1.123 -0.0981  0.4542 -1.2568
  111OSM    C9F11469   1.023   0.289  -1.231  1.3030 -0.4185  1.2029
  111OSM    H9F11470   1.029   0.186  -1.193  0.6769 -0.5129  1.0595
  111OSM   C10F11471   0.993   0.330  -1.356  0.4678 -0.2326  0.6189
  111OSM   H10F11472   0.979   0.253  -1.432 -1.4747 -0.5250  1.2370
  111OSM   C11F11473   0.983   0.464  -1.420  0.9090 -0.3165 -0.2502
  111OSM   H11F11474   1.003   0.549  -1.351  1.8601 -0.0360 -0.8551
  111OSM   H11G11475   0.879   0.483  -1.455  1.6416  1.8159 -1.4769
  111OSM   C12F11476   1.079   0.499  -1.535  0.4765 -0.5002 -0.5825
  111OSM   H12F11477   1.187   0.494  -1.509  0.6173  0.4052 -0.9555
  111OSM   H12G11478   1.054   0.601  -1.570 -0.2037 -0.7508 -0.8334
  111OSM   C13F11479   1.055   0.402  -1.650  0.1746  0.1134  0.1950
  111OSM   H13F11480   0.953   0.419  -1.692  0.3419  2.2166  0.5212
  111OSM   H13G11481   1.048   0.300  -1.608 -0.9274 -0.3773 -1.1048
  111OSM   C14F11482   1.155   0.419  -1.768  0.3086  0.4862  0.7364
  111OSM   H14F11483   1.260   0.411  -1.734  0.2210 -0.8688  0.7442
  111OSM   H14G11484   1.132   0.520  -1.808 -1.3542 -0.1974 -0.1127
  111OSM   C15F11485   1.122   0.321  -1.877  0.2832  0.2607  0.2650
  111OSM   H15F11486   1.012   0.305  -1.880  0.1178  1.1963  0.9250
  111OSM   H15G11487   1.167   0.222  -1.855 -2.1395 -1.0107 -0.0973
  111OSM   C16F11488   1.164   0.368  -2.016 -0.4323  0.0281  0.2138
  111OSM   H16F11489   1.127   0.467  -2.051  0.1282  0.3519  0.5158
  111OSM   H16G11490   1.124   0.294  -2.089  0.5767 -0.7024  0.3717
  111OSM   C17F11491   1.317   0.366  -2.038 -0.3944 -0.1022 -0.2034
  111OSM   H17F11492   1.359   0.280  -1.982 -0.4429 -1.3426 -1.9765
  111OSM   H17G11493   1.354   0.458  -1.988  1.5182 -0.5802 -0.6531
  111OSM   C18F11494   1.363   0.355  -2.187 -0.5999 -0.5909 -0.3134
  111OSM   H18F11495   1.353   0.454  -2.236  0.4861 -1.3132 -2.0974
  111OSM   H18G11496   1.301   0.279  -2.240  0.2321 -1.3136 -0.2782
  111OSM   H18H11497   1.473   0.337  -2.194 -0.4741  0.2455 -0.6283
  112OSM      N11498   6.722   5.438   0.154 -0.2010 -0.1359  0.0774
  112OSM    C1511499   6.823   5.541   0.128  0.6894  0.0729  0.1850
  112OSM   H15A11500   6.793   5.600   0.043 -0.1263 -0.8136 -0.1598
  112OSM   H15B11501   6.916   5.499   0.094 -0.3785 -1.5387 -0.8846
  112OSM   H15C11502   6.836   5.605   0.213  0.8036  0.0208  0.2062
  112OSM    C1411503   6.773   5.360   0.279  0.6223  0.5275  0.3180
  112OSM   H14A11504   6.776   5.415   0.371  1.7526 -0.9158  1.1820
  112OSM   H14B11505   6.874   5.327   0.260  0.3617  0.7996 -1.8601
  112OSM   H14C11506   6.706   5.278   0.302  1.1839 -1.0214 -2.9482
  112OSM    C1311507   6.592   5.498   0.202  1.0062  0.4670 -0.7021
  112OSM   H13A11508   6.518   5.431   0.243  0.5544  1.8115  0.7965
  112OSM   H13B11509   6.544   5.552   0.121 -1.2069 -2.0907 -1.2413
  112OSM   H13C11510   6.603   5.574   0.278  2.2538  0.1357 -0.5358
  112OSM    C1211511   6.710   5.345   0.039 -0.1829  0.2807  0.1774
  112OSM   H12A11512   6.637   5.270   0.064  0.3809  0.2710  1.9111
  112OSM   H12B11513   6.801   5.288   0.034 -0.8261 -0.8387  0.9710
  112OSM    C1111514   6.666   5.402  -0.102  0.7592 -0.1606  0.6437
  112OSM   H11A11515   6.672   5.315  -0.171 -2.2312  1.4815 -1.9539
  112OSM   H11B11516   6.734   5.480  -0.140 -0.2666 -0.0730 -1.1412
  112OSM      P11517   6.416   5.355  -0.076  0.3437  0.3427 -0.6130
  112OSM    O1311518   6.415   5.303   0.061 -0.7076  0.7975 -0.2394
  112OSM    O1411519   6.285   5.413  -0.122 -0.0258 -0.2040 -1.0178
  112OSM    O1111520   6.463   5.232  -0.169  0.3134 -0.1299 -0.4235
  112OSM    O1211521   6.531   5.458  -0.099  0.0981 -0.3376  0.0507
  112OSM    C1S11522   6.428   5.206  -0.302  0.3262 -0.7370  0.6054
  112OSM    H1S11523   6.500   5.253  -0.372 -1.4621 -3.5448 -3.4909
  112OSM    H1T11524   6.325   5.242  -0.324  0.0892 -1.4094  0.5809
  112OSM     NF11525   6.470   5.053  -0.486  0.6621  0.3876 -0.1792
  112OSM    HNF11526   6.395   5.014  -0.538  0.4812 -0.3988  0.6650
  112OSM    C2S11527   6.452   5.059  -0.343  0.5403  0.5824  0.0789
  112OSM    H2S11528   6.546   5.020  -0.297 -0.8659 -1.2564  1.5620
  112OSM    C3S11529   6.334   4.974  -0.282 -0.7924 -0.0524 -0.0343
  112OSM    H3S11530   6.248   4.992  -0.350 -0.3427 -0.8386 -0.8341
  112OSM     O311531   6.299   5.013  -0.147  0.3966  0.2256 -0.0423
  112OSM    HO311532   6.340   5.098  -0.130  0.6422 -0.2192  1.9271
  112OSM    C4S11533   6.354   4.825  -0.274  0.3293 -0.9088  0.3242
  112OSM    H4S11534   6.278   4.772  -0.334 -0.0498 -0.3419  0.2940
  112OSM    C5S11535   6.446   4.761  -0.201 -0.9342 -0.3852  0.6084
  112OSM    H5S11536   6.523   4.824  -0.155  1.2781 -1.6620 -1.1420
  112OSM    C6S11537   6.464   4.617  -0.187 -0.1298 -0.0526 -0.1030
  112OSM    H6S11538   6.401   4.561  -0.260 -2.3617 -0.5299  2.0368
  112OSM    H6T11539   6.439   4.577  -0.086 -2.4365 -0.4266 -0.7712
  112OSM    C7S11540   6.615   4.585  -0.204 -0.7341  0.1240  0.0951
  112OSM    H7S11541   6.631   4.477  -0.183 -0.9603  0.3328  1.4861
  112OSM    H7T11542   6.681   4.636  -0.130 -0.1900 -0.1998 -0.1623
  112OSM    C8S11543   6.669   4.626  -0.344 -0.0768 -0.2283  0.4689
  112OSM    H8S11544   6.769   4.580  -0.357  0.1450  0.1547  0.7885
  112OSM    H8T11545   6.663   4.737  -0.350 -0.9558 -0.2809  0.3005
  112OSM    C9S11546   6.603   4.566  -0.469 -0.3350 -0.5932  0.1514
  112OSM    H9S11547   6.496   4.596  -0.475 -0.3720 -0.9667 -1.5352
  112OSM    H9T11548   6.613   4.456  -0.468  1.4737 -0.4854 -1.1594
  112OSM   C10S11549   6.658   4.618  -0.600 -0.2153 -0.4543  0.0618
  112OSM   H10S11550   6.768   4.605  -0.609 -0.0708  0.5340  0.2997
  112OSM   H10T11551   6.644   4.728  -0.604 -1.0896 -0.5830 -0.6989
  112OSM   C11S11552   6.591   4.560  -0.724 -0.1566 -0.0964  0.0187
  112OSM   H11S11553   6.483   4.582  -0.722 -0.9849 -3.5176 -0.5181
  112OSM   H11T11554   6.595   4.450  -0.737 -1.1867  0.0485 -1.8219
  112OSM   C12S11555   6.645   4.620  -0.857  0.2521 -0.2830  0.2471
  112OSM   H12S11556   6.748   4.581  -0.875  0.4398  1.1823 -2.3497
  112OSM   H12T11557   6.629   4.729  -0.862 -1.1082 -0.4540  0.5960
  112OSM   C13S11558   6.560   4.558  -0.965  0.4382  0.1734 -0.0339
  112OSM   H13S11559   6.455   4.591  -0.949  0.1783 -0.1311 -1.0477
  112OSM   H13T11560   6.553   4.447  -0.969 -1.4544  0.2976 -2.5024
  112OSM   C14S11561   6.610   4.601  -1.100  0.1457 -0.6440  0.5804
  112OSM   H14S11562   6.704   4.544  -1.112  0.6967  0.3051  0.2625
  112OSM   H14T11563   6.633   4.709  -1.088 -0.4515 -0.4164 -0.2282
  112OSM   C15S11564   6.521   4.563  -1.217  0.1128  0.3735 -0.4002
  112OSM   H15S11565   6.414   4.586  -1.198  0.0203 -0.4022  0.0319
  112OSM   H15T11566   6.504   4.454  -1.225  0.7093  0.2702 -0.2959
  112OSM   C16S11567   6.552   4.625  -1.351 -0.0289  0.0430 -0.9241
  112OSM   H16S11568   6.660   4.652  -1.354  0.1971 -0.4345  1.2681
  112OSM   H16T11569   6.495   4.719  -1.362 -1.0066 -0.5177 -0.7208
  112OSM   C17S11570   6.518   4.532  -1.465  0.2199  0.3222 -0.1168
  112OSM   H17S11571   6.408   4.518  -1.459 -0.0362  2.5788  1.7696
  112OSM   H17T11572   6.569   4.436  -1.441  0.4940  0.4925 -0.0090
  112OSM   C18S11573   6.543   4.592  -1.606  0.1081  0.6302  0.0921
  112OSM   H18S11574   6.493   4.540  -1.690 -0.2938 -0.2157  0.8411
  112OSM   H18T11575   6.652   4.586  -1.630 -0.3608 -2.7625 -1.7848
  112OSM   H18U11576   6.498   4.694  -1.606 -2.7717 -0.5520  1.5561
  112OSM    C1F11577   6.571   5.108  -0.549 -0.2507 -0.3078 -0.2138
  112OSM     OF11578   6.668   5.145  -0.489  0.1582  0.3723 -1.1347
  112OSM    C2F11579   6.557   5.125  -0.695  0.1213  0.1339  0.0011
  112OSM    H2F11580   6.453   5.160  -0.709  0.5869  2.0601  0.8884
  112OSM    H2G11581   6.578   5.025  -0.737 -0.5081  0.8570 -2.1561
  112OSM    C3F11582   6.640   5.237  -0.772  0.0724 -0.3462 -0.2931
  112OSM    H3F11583   6.745   5.203  -0.765  0.1486  0.1137  0.9856
  112OSM    H3G11584   6.622   5.329  -0.713 -2.2225 -1.3440  0.6779
  112OSM    C4F11585   6.598   5.247  -0.918 -0.0049 -1.0882 -0.6463
  112OSM    H4F11586   6.491   5.223  -0.932  0.0934 -2.4008  0.5398
  112OSM    H4G11587   6.641   5.161  -0.975  0.3664 -0.8197 -0.7727
  112OSM    C5F11588   6.628   5.382  -0.983  0.5089  0.3561 -0.1435
  112OSM    H5F11589   6.737   5.406  -0.985  0.1121  2.3206 -0.0672
  112OSM    H5G11590   6.577   5.460  -0.924 -1.8694  0.0225 -1.6366
  112OSM    C6F11591   6.566   5.377  -1.121  0.4828  0.0406 -0.2776
  112OSM    H6F11592   6.456   5.363  -1.120  0.2926  1.1673 -1.8281
  112OSM    H6G11593   6.616   5.301  -1.185  0.6636  0.9466 -1.2346
  112OSM    C7F11594   6.573   5.518  -1.187 -0.4665  0.2533  0.2652
  112OSM    H7F11595   6.678   5.553  -1.185 -1.3452  3.0898  2.0715
  112OSM    H7G11596   6.526   5.589  -1.116  1.0756 -0.8249  2.4788
  112OSM    C8F11597   6.507   5.524  -1.322 -0.4022 -0.6997 -0.1948
  112OSM    H8F11598   6.490   5.633  -1.339 -0.0835 -0.4770  0.8807
  112OSM    H8G11599   6.405   5.479  -1.317 -1.0598  0.7556  0.1956
  112OSM    C9F11600   6.584   5.474  -1.441 -0.2677 -0.9889 -0.1421
  112OSM    H9F11601   6.693   5.477  -1.428 -0.0679 -0.3440 -1.7262
  112OSM   C10F11602   6.528   5.428  -1.552  0.2248 -0.3272 -0.0082
  112OSM   H10F11603   6.592   5.382  -1.629  1.9648  0.9792  0.5974
  112OSM   C11F11604   6.376   5.419  -1.577 -0.4992 -0.7215  0.3300
  112OSM   H11F11605   6.325   5.518  -1.584  1.3619  0.3119  0.4342
  112OSM   H11G11606   6.315   5.379  -1.494 -1.5311 -2.6184 -1.2822
  112OSM   C12F11607   6.343   5.354  -1.711  1.2438 -0.0687 -0.1615
  112OSM   H12F11608   6.232   5.363  -1.708  1.0526 -1.8468  3.0410
  112OSM   H12G11609   6.376   5.248  -1.708  2.4221  0.2987  1.3503
  112OSM   C13F11610   6.414   5.414  -1.830 -0.3435 -0.4979 -0.2983
  112OSM   H13F11611   6.519   5.381  -1.813 -0.3239  0.1810  0.9465
  112OSM   H13G11612   6.416   5.525  -1.824 -1.3626 -0.4479 -0.6958
  112OSM   C14F11613   6.357   5.355  -1.960 -0.1463  0.0154  0.7505
  112OSM   H14F11614   6.403   5.410  -2.045 -0.5120  1.5148  1.5002
  112OSM   H14G11615   6.250   5.385  -1.964  0.3087  1.6485  0.1016
  112OSM   C15F11616   6.374   5.204  -1.992  0.1679 -0.3253 -0.3759
  112OSM   H15F11617   6.316   5.154  -1.912  0.3453  0.1424  0.0519
  112OSM   H15G11618   6.484   5.186  -1.989  0.1538 -0.5013  3.5014
  112OSM   C16F11619   6.297   5.161  -2.127 -0.6255  0.0101 -0.9677
  112OSM   H16F11620   6.356   5.199  -2.214 -1.6844 -0.5242 -1.9463
  112OSM   H16G11621   6.204   5.221  -2.135 -1.0743 -0.5658 -0.1018
  112OSM   C17F11622   6.263   5.013  -2.151 -0.3129 -0.9312 -0.5073
  112OSM   H17F11623   6.212   4.990  -2.055  0.2139  1.4450  0.4243
  112OSM   H17G11624   6.353   4.949  -2.153  1.6099  1.6367 -0.7721
  112OSM   C18F11625   6.186   4.977  -2.277  0.1193  0.0894 -0.2098
  112OSM   H18F11626   6.168   4.868  -2.269 -0.8604  0.1493 -1.3033
  112OSM   H18G11627   6.252   4.988  -2.366  0.9935 -1.4104  0.2286
  112OSM   H18H11628   6.088   5.029  -2.283  1.3688  2.5308 -0.8043
  113OSM      N11629   1.605   6.115   8.345 -0.6226  0.6767 -0.1781
  113OSM    C1511630   1.637   5.999   8.246 -0.8672 -0.3662 -0.6511
  113OSM   H15A11631   1.640   6.033   8.143  0.6919 -0.0548 -0.5139
  113OSM   H15B11632   1.563   5.920   8.253 -1.2276  0.1368  2.0564
  113OSM   H15C11633   1.733   5.954   8.264 -1.2691 -0.3936  1.7030
  113OSM    C1411634   1.475   6.103   8.409 -0.2492 -0.0838 -0.5249
  113OSM   H14A11635   1.452   6.195   8.461  1.0556  0.0838 -0.2074
  113OSM   H14B11636   1.472   6.035   8.493  2.1033  0.5511  0.1336
  113OSM   H14C11637   1.396   6.065   8.346 -2.5389 -2.2006  3.2717
  113OSM    C1311638   1.706   6.102   8.455  0.1698  0.2719  0.1862
  113OSM   H13A11639   1.800   6.148   8.427 -0.4606  2.3944  1.3072
  113OSM   H13B11640   1.723   5.998   8.478  0.4558 -0.0629 -1.4564
  113OSM   H13C11641   1.671   6.148   8.546  0.4776 -0.8329  0.8839
  113OSM    C1211642   1.619   6.246   8.272  0.1625  0.5878  0.1806
  113OSM   H12A11643   1.589   6.338   8.319  0.7743  0.9562 -0.1338
  113OSM   H12B11644   1.550   6.230   8.191  0.1405  0.5992  0.1982
  113OSM    C1111645   1.754   6.276   8.194  0.8013  0.2933  0.0465
  113OSM   H11A11646   1.718   6.366   8.138 -0.9497  0.9739  2.1238
  113OSM   H11B11647   1.769   6.204   8.111 -0.3182 -1.2926  1.1641
  113OSM      P11648   2.008   6.300   8.209 -0.2400 -0.2022  0.1134
  113OSM    O1311649   2.056   6.444   8.221  0.1802  0.3048 -0.4269
  113OSM    O1411650   2.094   6.194   8.267 -0.4008  0.1298 -0.3531
  113OSM    O1111651   1.993   6.265   8.053 -0.2488 -0.1167 -0.0757
  113OSM    O1211652   1.867   6.299   8.278  0.1692 -0.0848  0.1617
  113OSM    C1S11653   1.996   6.124   8.019  0.5727  0.4695 -0.2610
  113OSM    H1S11654   1.925   6.074   8.088 -0.5897  0.5485 -1.3512
  113OSM    H1T11655   2.097   6.079   8.028  1.4207  2.4754  0.9464
  113OSM     NF11656   1.904   5.966   7.858 -0.0502  0.5203  0.7165
  113OSM    HNF11657   1.946   5.893   7.804 -1.2929  0.1806  0.1824
  113OSM    C2S11658   1.951   6.105   7.874 -0.4355  0.0863 -0.7499
  113OSM    H2S11659   1.869   6.176   7.852 -0.7093 -0.1329 -0.4431
  113OSM    C3S11660   2.064   6.145   7.783 -0.0044  0.2008 -0.2875
  113OSM    H3S11661   2.147   6.072   7.793 -1.5105 -1.9770 -2.4501
  113OSM     O311662   2.117   6.271   7.821 -0.4040  0.0740  0.0638
  113OSM    HO311663   2.068   6.292   7.901 -2.1967 -0.5873 -0.8087
  113OSM    C4S11664   2.019   6.140   7.639 -0.0044 -0.1347  0.4345
  113OSM    H4S11665   2.052   6.052   7.582  2.3720 -0.4157  2.1375
  113OSM    C5S11666   1.947   6.236   7.571 -0.2941 -0.4770 -0.1402
  113OSM    H5S11667   1.916   6.329   7.621  1.0687  0.8263 -1.5997
  113OSM    C6S11668   1.897   6.221   7.434  0.0033  0.2377  1.0007
  113OSM    H6S11669   1.787   6.223   7.443 -0.0142  3.4560  1.3587
  113OSM    H6T11670   1.927   6.121   7.397 -2.9179 -0.6854  0.9312
  113OSM    C7S11671   1.964   6.323   7.333  0.6356  0.2066  0.2377
  113OSM    H7S11672   2.075   6.318   7.342  0.5206 -0.4580  1.3921
  113OSM    H7T11673   1.917   6.420   7.358  0.6355  0.3787 -0.4038
  113OSM    C8S11674   1.935   6.289   7.190  0.1520 -0.8600  0.5852
  113OSM    H8S11675   1.833   6.248   7.173 -0.7620  1.6971 -0.7624
  113OSM    H8T11676   2.013   6.217   7.158 -1.0552 -1.4646 -1.1435
  113OSM    C9S11677   1.962   6.406   7.093 -0.5521 -0.0646  0.0142
  113OSM    H9S11678   2.063   6.450   7.108 -0.4844 -0.5515  1.1069
  113OSM    H9T11679   1.888   6.487   7.110 -1.2370 -0.9462  1.4903
  113OSM   C10S11680   1.965   6.366   6.945  0.0596 -0.1102  0.0957
  113OSM   H10S11681   1.874   6.303   6.933  0.5987 -1.1577  1.2594
  113OSM   H10T11682   2.053   6.301   6.927  1.4220  1.4735  0.8616
  113OSM   C11S11683   1.957   6.473   6.845 -0.1688 -0.6681  0.4490
  113OSM   H11S11684   2.050   6.532   6.863  0.1027 -0.8024 -0.4422
  113OSM   H11T11685   1.865   6.533   6.863 -0.4841 -0.9495 -0.1877
  113OSM   C12S11686   1.947   6.412   6.702  0.1750 -0.5282  0.4391
  113OSM   H12S11687   2.020   6.328   6.702  0.2951 -0.5440  3.2940
  113OSM   H12T11688   1.979   6.486   6.626  2.4883 -0.6516  1.2057
  113OSM   C13S11689   1.808   6.361   6.661 -0.6102 -0.7470 -0.4490
  113OSM   H13S11690   1.729   6.433   6.691  1.2063  0.6210  1.2847
  113OSM   H13T11691   1.794   6.263   6.712  3.7321 -2.3842 -1.9236
  113OSM   C14S11692   1.809   6.331   6.517 -0.8038 -0.1852  0.4971
  113OSM   H14S11693   1.892   6.269   6.476  1.7527  2.4470  1.3126
  113OSM   H14T11694   1.814   6.428   6.462 -2.3742 -0.3467  0.0200
  113OSM   C15S11695   1.675   6.262   6.472  0.1985 -0.3253 -0.2152
  113OSM   H15S11696   1.592   6.331   6.502 -1.4401 -1.3568 -2.1331
  113OSM   H15T11697   1.673   6.173   6.538  1.1672  1.4601  2.4193
  113OSM   C16S11698   1.657   6.230   6.323  0.3769 -0.5792 -0.5479
  113OSM   H16S11699   1.741   6.162   6.295  0.4290 -0.4200 -0.7818
  113OSM   H16T11700   1.674   6.319   6.259  1.5290 -1.5200 -1.6156
  113OSM   C17S11701   1.528   6.149   6.280  0.0276 -0.5386  0.1315
  113OSM   H17S11702   1.442   6.183   6.341 -0.0495 -0.2854 -0.1148
  113OSM   H17T11703   1.541   6.042   6.308  2.8134 -1.0129 -2.4369
  113OSM   C18S11704   1.474   6.165   6.141  0.6494  0.1718 -0.2389
  113OSM   H18S11705   1.375   6.114   6.136  0.3993  0.7132 -0.9236
  113OSM   H18T11706   1.551   6.113   6.080  0.5474 -0.9317  0.5309
  113OSM   H18U11707   1.465   6.272   6.114  1.9586 -0.1972 -2.3870
  113OSM    C1F11708   1.785   5.926   7.897  0.7601 -0.8356 -0.5930
  113OSM     OF11709   1.706   6.001   7.958 -0.0773 -0.4839 -0.4112
  113OSM    C2F11710   1.744   5.794   7.855 -0.3905 -0.4329 -0.8231
  113OSM    H2F11711   1.706   5.742   7.946 -1.6143 -0.2058 -1.1936
  113OSM    H2G11712   1.835   5.744   7.815  1.0171  1.3361  0.0176
  113OSM    C3F11713   1.631   5.787   7.746 -0.2033 -0.0295  0.8893
  113OSM    H3F11714   1.542   5.849   7.772  0.1488  0.6962  0.3983
  113OSM    H3G11715   1.616   5.677   7.745  2.8661 -0.5351 -0.7094
  113OSM    C4F11716   1.681   5.852   7.616 -0.2323 -0.3549 -0.4257
  113OSM    H4F11717   1.782   5.820   7.584  0.5788 -0.2862  1.8832
  113OSM    H4G11718   1.684   5.961   7.637  0.7338 -0.7836  1.9376
  113OSM    C5F11719   1.582   5.830   7.499  0.0067 -0.0069  0.5751
  113OSM    H5F11720   1.477   5.858   7.522 -1.2766 -2.0124 -2.2287
  113OSM    H5G11721   1.584   5.719   7.501  0.7443 -0.0306  4.1147
  113OSM    C6F11722   1.617   5.910   7.372  0.4255  0.3336  0.0381
  113OSM    H6F11723   1.711   5.882   7.318 -0.2066  0.3503 -1.1062
  113OSM    H6G11724   1.616   6.015   7.406 -2.6543 -0.2755  2.3163
  113OSM    C7F11725   1.507   5.901   7.269  0.9332 -0.4546  0.2084
  113OSM    H7F11726   1.412   5.951   7.298  0.8313  0.4903 -1.5596
  113OSM    H7G11727   1.483   5.797   7.240 -1.6514 -0.0389  0.5472
  113OSM    C8F11728   1.534   5.962   7.137 -0.5658  0.0062 -0.4564
  113OSM    H8F11729   1.556   6.071   7.139 -0.9863  0.1107 -1.1924
  113OSM    H8G11730   1.437   5.972   7.083 -1.1661  0.8764  0.7249
  113OSM    C9F11731   1.623   5.882   7.046 -0.1517  0.3915  0.5571
  113OSM    H9F11732   1.675   5.797   7.091 -0.0599  0.8632  1.3651
  113OSM   C10F11733   1.624   5.890   6.910 -0.6316  0.3582 -0.0556
  113OSM   H10F11734   1.695   5.827   6.854 -1.4534  0.7941 -1.6592
  113OSM   C11F11735   1.560   5.995   6.816  0.1997  0.6849 -0.1708
  113OSM   H11F11736   1.640   6.026   6.745  0.8548 -2.3233 -0.8689
  113OSM   H11G11737   1.516   6.081   6.871  2.1050  2.7956 -1.7500
  113OSM   C12F11738   1.445   5.932   6.735 -0.1592  0.6028  0.3299
  113OSM   H12F11739   1.355   5.923   6.800  0.3912 -0.5197  0.9712
  113OSM   H12G11740   1.472   5.832   6.695 -0.3585  0.7445 -0.1673
  113OSM   C13F11741   1.413   6.011   6.606  0.6050 -0.1019  0.5521
  113OSM   H13F11742   1.497   5.992   6.535  0.0039  0.6699 -0.3852
  113OSM   H13G11743   1.423   6.121   6.616 -2.2464  0.2107  0.8185
  113OSM   C14F11744   1.282   5.968   6.539 -0.0647 -0.5158  0.2361
  113OSM   H14F11745   1.284   6.019   6.441  0.4227 -0.0236  0.4947
  113OSM   H14G11746   1.199   6.003   6.604  2.1489  0.3857  2.8082
  113OSM   C15F11747   1.266   5.815   6.537 -0.1513 -0.1231  0.0955
  113OSM   H15F11748   1.246   5.785   6.641 -0.5836 -1.3490 -0.3310
  113OSM   H15G11749   1.350   5.753   6.499  0.4137  0.5277  0.2469
  113OSM   C16F11750   1.143   5.764   6.456 -0.1375  0.3596 -0.4179
  113OSM   H16F11751   1.140   5.819   6.359 -0.6521 -0.1564 -0.7060
  113OSM   H16G11752   1.044   5.779   6.503 -0.0349 -0.1000 -0.0532
  113OSM   C17F11753   1.155   5.615   6.419  0.3209  0.6360 -0.0384
  113OSM   H17F11754   1.242   5.605   6.350 -0.1491 -1.3158 -0.3898
  113OSM   H17G11755   1.064   5.604   6.357 -0.7611 -1.5283  1.8084
  113OSM   C18F11756   1.157   5.524   6.538 -0.5224 -0.4842  0.2817
  113OSM   H18F11757   1.243   5.545   6.604 -0.1789  1.2235 -0.6624
  113OSM   H18G11758   1.155   5.421   6.496  0.6793 -0.0011 -1.0375
  113OSM   H18H11759   1.062   5.528   6.595 -1.2236 -2.4040 -0.6557
  114OSM      N11760   1.129   5.112   0.253  1.3444 -0.7006 -0.3977
  114OSM    C1511761   1.044   5.230   0.288 -0.3155 -0.2533  1.0213
  114OSM   H15A11762   0.942   5.206   0.261 -0.0813 -1.4537  1.1429
  114OSM   H15B11763   1.078   5.319   0.237  1.5632 -1.2650  0.4345
  114OSM   H15C11764   1.037   5.258   0.392 -0.8028  1.1810  0.6353
  114OSM    C1411765   1.265   5.144   0.301  0.1604 -0.5905  0.2928
  114OSM   H14A11766   1.322   5.052   0.302  1.9950  0.4927  0.0904
  114OSM   H14B11767   1.271   5.190   0.399  1.5508 -2.3459  1.0924
  114OSM   H14C11768   1.323   5.195   0.225  0.4694 -1.8696 -0.3640
  114OSM    C1311769   1.073   4.991   0.314 -0.1786  0.0009 -0.3456
  114OSM   H13A11770   1.129   4.902   0.290  0.1716  0.3534 -0.8704
  114OSM   H13B11771   0.970   4.972   0.286 -0.5796 -0.6013  1.4399
  114OSM   H13C11772   1.075   5.004   0.421 -1.7587 -1.5052 -0.0974
  114OSM    C1211773   1.127   5.115   0.099 -0.4619 -0.2433 -0.4228
  114OSM   H12A11774   1.165   5.211   0.066 -0.9227  0.1655  0.1905
  114OSM   H12B11775   1.024   5.108   0.067 -0.6363 -3.2829  0.4880
  114OSM    C1111776   1.196   5.000   0.027 -0.3085 -0.1728 -0.3531
  114OSM   H11A11777   1.168   4.989  -0.080  0.7052  3.0475 -1.0629
  114OSM   H11B11778   1.150   4.912   0.076 -2.2207  1.4497  0.9457
  114OSM      P11779   1.428   5.108  -0.027 -0.1826  0.0864 -0.4654
  114OSM    O1311780   1.466   5.219   0.062  0.0105  0.1855  0.2717
  114OSM    O1411781   1.541   5.030  -0.088  0.4144 -0.4975 -0.1613
  114OSM    O1111782   1.335   5.159  -0.139 -0.2175  0.0067 -0.6723
  114OSM    O1211783   1.337   5.009   0.050  0.6229  0.2743 -0.6897
  114OSM    C1S11784   1.374   5.254  -0.237  0.1921 -0.8457  0.6067
  114OSM    H1S11785   1.481   5.246  -0.265  0.4281 -0.5240  1.3783
  114OSM    H1T11786   1.365   5.356  -0.193 -1.4522 -0.4830 -0.4627
  114OSM     NF11787   1.355   5.312  -0.478 -0.4182  0.5380 -0.1419
  114OSM    HNF11788   1.320   5.403  -0.502 -1.4105 -0.1751 -1.5046
  114OSM    C2S11789   1.281   5.248  -0.365 -0.1572 -0.1046  0.1266
  114OSM    H2S11790   1.265   5.138  -0.374 -0.5818 -0.0148 -0.2564
  114OSM    C3S11791   1.147   5.310  -0.326  0.1776  0.5907  0.1405
  114OSM    H3S11792   1.161   5.420  -0.316 -1.1436  0.7227  0.6478
  114OSM     O311793   1.092   5.275  -0.203 -0.4263 -0.0270  0.0224
  114OSM    HO311794   1.166   5.222  -0.172  0.1339  0.1491 -0.9503
  114OSM    C4S11795   1.054   5.289  -0.444  0.3552  0.1005 -0.7205
  114OSM    H4S11796   1.054   5.377  -0.510 -0.8476  0.5387 -0.1681
  114OSM    C5S11797   0.954   5.204  -0.469 -0.0552 -0.3474 -0.0978
  114OSM    H5S11798   0.931   5.131  -0.389 -0.5403 -0.8376 -0.6748
  114OSM    C6S11799   0.854   5.217  -0.588 -0.3229  0.2354 -0.9312
  114OSM    H6S11800   0.759   5.259  -0.548 -0.3105 -1.5450  1.1635
  114OSM    H6T11801   0.816   5.117  -0.619 -1.7803  0.0773  1.1542
  114OSM    C7S11802   0.891   5.281  -0.724 -1.2770  0.6154  0.2244
  114OSM    H7S11803   0.977   5.228  -0.771 -0.2796  1.1510  1.3750
  114OSM    H7T11804   0.913   5.387  -0.697 -3.6899  0.8669  1.4627
  114OSM    C8S11805   0.773   5.284  -0.823 -0.2930  1.3372 -0.0993
  114OSM    H8S11806   0.692   5.318  -0.755 -1.4438  2.7322 -2.0798
  114OSM    H8T11807   0.746   5.178  -0.843 -0.3921  0.6083  3.1793
  114OSM    C9S11808   0.792   5.366  -0.939 -0.6828 -0.7667  0.5267
  114OSM    H9S11809   0.897   5.353  -0.975 -0.7675  2.1216 -1.0956
  114OSM    H9T11810   0.773   5.475  -0.924 -1.1347 -0.4850 -1.6919
  114OSM   C10S11811   0.693   5.330  -1.054  0.2770  0.2476  0.4599
  114OSM   H10S11812   0.590   5.348  -1.015  0.8856  1.2257  1.6600
  114OSM   H10T11813   0.696   5.224  -1.089 -1.5743  0.0495  0.8012
  114OSM   C11S11814   0.714   5.412  -1.175  0.0174  0.0544  0.1411
  114OSM   H11S11815   0.795   5.362  -1.233  0.1123 -0.9123  1.0895
  114OSM   H11T11816   0.748   5.510  -1.135  1.2376 -0.4743  0.4617
  114OSM   C12S11817   0.584   5.429  -1.255  0.5384 -0.2257 -0.4579
  114OSM   H12S11818   0.517   5.499  -1.200 -0.4940 -0.9347 -0.7716
  114OSM   H12T11819   0.538   5.330  -1.275 -0.1565 -0.0450  0.1957
  114OSM   C13S11820   0.613   5.501  -1.385  0.0787  0.3956  0.1120
  114OSM   H13S11821   0.697   5.453  -1.440  0.6230  0.6428  0.7146
  114OSM   H13T11822   0.650   5.603  -1.362  0.5164  0.1490  0.5229
  114OSM   C14S11823   0.497   5.497  -1.489  0.1041 -0.2627  0.1051
  114OSM   H14S11824   0.413   5.551  -1.441 -2.5030 -2.7933 -1.3023
  114OSM   H14T11825   0.452   5.397  -1.502  0.1007 -0.0532 -1.9310
  114OSM   C15S11826   0.528   5.550  -1.627 -0.4626  0.1166 -0.2238
  114OSM   H15S11827   0.615   5.491  -1.665  0.6252  1.0479  0.7371
  114OSM   H15T11828   0.573   5.652  -1.619  0.3704 -0.2561 -0.0365
  114OSM   C16S11829   0.420   5.530  -1.729  0.3239  0.9540 -0.2515
  114OSM   H16S11830   0.319   5.561  -1.694  0.4062  0.6339  0.2906
  114OSM   H16T11831   0.421   5.423  -1.760  1.4642  0.6552  0.7209
  114OSM   C17S11832   0.441   5.617  -1.851 -0.1769 -0.4512  0.2392
  114OSM   H17S11833   0.526   5.564  -1.900 -0.5526 -0.5113 -0.3487
  114OSM   H17T11834   0.467   5.721  -1.821 -2.5011  0.6158 -1.2097
  114OSM   C18S11835   0.330   5.620  -1.952 -0.1172  0.0112 -0.8852
  114OSM   H18S11836   0.324   5.523  -2.006  0.8164 -0.6436  0.1326
  114OSM   H18T11837   0.351   5.697  -2.029 -1.7749  0.0847 -1.2946
  114OSM   H18U11838   0.231   5.646  -1.908 -0.4892  1.2197 -2.3664
  114OSM    C1F11839   1.464   5.258  -0.536  0.0263  0.8239  0.0935
  114OSM     OF11840   1.509   5.152  -0.488 -0.3492 -0.6173  0.1724
  114OSM    C2F11841   1.520   5.324  -0.659 -0.9214 -0.4261  0.2348
  114OSM    H2F11842   1.582   5.415  -0.643 -0.9350  0.5188 -4.0429
  114OSM    H2G11843   1.432   5.366  -0.712 -0.5643  1.8381  1.2947
  114OSM    C3F11844   1.594   5.225  -0.756  0.1434 -0.3282  0.8235
  114OSM    H3F11845   1.529   5.135  -0.757 -2.9531  1.7690  0.2244
  114OSM    H3G11846   1.690   5.184  -0.717  0.0053 -0.2184  1.2921
  114OSM    C4F11847   1.602   5.285  -0.899  0.5499 -0.0929 -0.0245
  114OSM    H4F11848   1.504   5.331  -0.924  0.3608 -1.1511 -1.3665
  114OSM    H4G11849   1.610   5.204  -0.974  0.6812  0.1019 -0.2238
  114OSM    C5F11850   1.705   5.393  -0.929 -0.2715  0.1442 -0.0888
  114OSM    H5F11851   1.804   5.350  -0.904 -0.5002 -0.7909 -0.7422
  114OSM    H5G11852   1.686   5.477  -0.859  1.0600 -0.1223  0.6273
  114OSM    C6F11853   1.705   5.448  -1.074 -0.0083 -0.0050 -0.0596
  114OSM    H6F11854   1.780   5.530  -1.079  1.0099 -0.7721  1.5701
  114OSM    H6G11855   1.605   5.496  -1.080  0.0488  0.0390 -0.6677
  114OSM    C7F11856   1.736   5.361  -1.198 -0.1386  0.5589  0.3811
  114OSM    H7F11857   1.659   5.281  -1.211 -0.4036  0.8283  0.2869
  114OSM    H7G11858   1.836   5.318  -1.175 -0.7906 -0.9952  0.4263
  114OSM    C8F11859   1.735   5.436  -1.334  0.5031 -1.1026  0.0224
  114OSM    H8F11860   1.767   5.359  -1.407 -1.2442 -0.9324 -0.9926
  114OSM    H8G11861   1.817   5.510  -1.351 -1.0813  0.6620 -0.2950
  114OSM    C9F11862   1.611   5.506  -1.380 -0.2619 -0.4167  0.4933
  114OSM    H9F11863   1.562   5.559  -1.298  2.1752  1.5139  0.8211
  114OSM   C10F11864   1.557   5.527  -1.501  0.4431 -0.0102  0.3615
  114OSM   H10F11865   1.465   5.587  -1.491  0.8985  0.3928  2.9343
  114OSM   C11F11866   1.598   5.465  -1.633 -0.2098 -0.5969  0.8034
  114OSM   H11F11867   1.623   5.360  -1.606 -0.7967 -1.2107 -0.9345
  114OSM   H11G11868   1.691   5.515  -1.667 -1.8252  1.1270 -1.3765
  114OSM   C12F11869   1.487   5.477  -1.746 -0.2438  0.1077  0.6552
  114OSM   H12F11870   1.470   5.581  -1.781  0.5696  0.4266  1.1772
  114OSM   H12G11871   1.395   5.420  -1.720 -0.8759  2.2295  3.5570
  114OSM   C13F11872   1.528   5.403  -1.875  0.1733 -0.4388 -0.4019
  114OSM   H13F11873   1.437   5.399  -1.938  0.5881 -0.7268 -0.9946
  114OSM   H13G11874   1.574   5.302  -1.865  0.5756 -0.0676  1.9920
  114OSM   C14F11875   1.627   5.488  -1.952  0.1287 -0.2006  0.3547
  114OSM   H14F11876   1.728   5.465  -1.910  0.3835 -0.9198 -0.6256
  114OSM   H14G11877   1.614   5.598  -1.939  1.0713 -0.0881  0.4851
  114OSM   C15F11878   1.626   5.461  -2.100 -0.1391 -0.2681  0.3583
  114OSM   H15F11879   1.635   5.351  -2.117 -2.9228 -0.7781  1.5587
  114OSM   H15G11880   1.714   5.516  -2.139  0.4720 -0.1211  1.8756
  114OSM   C16F11881   1.511   5.516  -2.177  0.2520 -0.4006  0.4460
  114OSM   H16F11882   1.505   5.624  -2.149  2.3074  0.2931 -1.5060
  114OSM   H16G11883   1.427   5.459  -2.131 -0.5675 -0.5844 -1.1911
  114OSM   C17F11884   1.509   5.497  -2.331 -0.5596  0.7882  0.5823
  114OSM   H17F11885   1.535   5.394  -2.364 -0.2082  1.2485 -0.6368
  114OSM   H17G11886   1.593   5.563  -2.358 -1.1232  1.3200  0.1014
  114OSM   C18F11887   1.378   5.527  -2.413 -1.9039  0.1200 -0.6514
  114OSM   H18F11888   1.290   5.490  -2.356 -1.6864  0.9200  0.2421
  114OSM   H18G11889   1.385   5.481  -2.514  1.7648 -2.4988  0.6104
  114OSM   H18H11890   1.371   5.638  -2.412  0.0527  0.3014  1.5303
  115OSM      N11891   6.238   0.904   0.330 -0.5018 -0.1590  0.6057
  115OSM    C1511892   6.313   0.775   0.318 -0.5191 -0.6845  0.0937
  115OSM   H15A11893   6.345   0.755   0.217  0.6538  1.0296  0.0736
  115OSM   H15B11894   6.251   0.692   0.349  0.5069 -1.9101 -1.0270
  115OSM   H15C11895   6.405   0.775   0.374 -1.6621 -2.2657  2.1132
  115OSM    C1411896   6.101   0.884   0.277 -0.1899 -0.0073  0.2924
  115OSM   H14A11897   6.112   0.833   0.182 -1.1720  1.2422 -0.5146
  115OSM   H14B11898   6.063   0.983   0.258 -0.9022 -0.1759  0.7870
  115OSM   H14C11899   6.036   0.818   0.332 -1.3046 -0.0579 -1.0376
  115OSM    C1311900   6.225   0.938   0.478  0.0899 -0.3910 -0.7946
  115OSM   H13A11901   6.321   0.951   0.526  0.8357 -1.2194 -2.0119
  115OSM   H13B11902   6.178   0.848   0.517  1.5840 -1.8623 -2.2618
  115OSM   H13C11903   6.169   1.029   0.493  0.4918 -0.4805  1.6542
  115OSM    C1211904   6.326   1.013   0.260  0.0044  0.0260 -0.7501
  115OSM   H12A11905   6.427   0.986   0.285 -0.4975  0.1621  1.7006
  115OSM   H12B11906   6.301   1.107   0.307  0.5844 -0.1646 -0.0274
  115OSM    C1111907   6.306   1.031   0.111  0.0141  0.8539 -0.0103
  115OSM   H11A11908   6.365   1.121   0.086  0.3207  0.3196 -1.2683
  115OSM   H11B11909   6.197   1.049   0.106 -0.0741  1.0076  1.6905
  115OSM      P11910   6.256   0.845  -0.084  0.1222 -0.3596  0.0917
  115OSM    O1311911   6.325   0.724  -0.129  0.3102  0.1117  0.1997
  115OSM    O1411912   6.117   0.832  -0.032 -0.3365  0.1225  0.2855
  115OSM    O1111913   6.250   0.948  -0.198  0.2054 -1.0060  0.2266
  115OSM    O1211914   6.343   0.915   0.035 -1.1508 -0.4059  0.4459
  115OSM    C1S11915   6.362   1.012  -0.262  0.0172  0.4218  0.0754
  115OSM    H1S11916   6.428   0.927  -0.289 -1.0719  0.0805 -1.7063
  115OSM    H1T11917   6.410   1.090  -0.199 -0.1701  0.9732 -0.4560
  115OSM     NF11918   6.442   1.142  -0.461  0.5747  0.3583 -0.5466
  115OSM    HNF11919   6.464   1.237  -0.440  0.1322  1.0536 -2.9630
  115OSM    C2S11920   6.327   1.089  -0.397 -0.3348  0.7407  0.7133
  115OSM    H2S11921   6.285   1.010  -0.462  4.0040 -1.9125  0.6984
  115OSM    C3S11922   6.224   1.202  -0.365 -0.0797  0.4630 -0.3337
  115OSM    H3S11923   6.277   1.278  -0.303 -0.7022 -0.6168  1.6157
  115OSM     O311924   6.124   1.161  -0.274 -0.4848  0.2829  0.3047
  115OSM    HO311925   6.144   1.074  -0.238 -1.5974  0.4792  1.4801
  115OSM    C4S11926   6.171   1.260  -0.491 -0.4675  0.6248 -0.1441
  115OSM    H4S11927   6.231   1.340  -0.537  0.4724 -0.9239 -1.7782
  115OSM    C5S11928   6.058   1.228  -0.551 -0.4672  0.2380  0.1366
  115OSM    H5S11929   5.974   1.176  -0.503 -0.6998  1.0120  0.5766
  115OSM    C6S11930   6.013   1.296  -0.677  1.0477 -0.9850 -0.1727
  115OSM    H6S11931   5.940   1.376  -0.654  2.2767  0.0919  0.0681
  115OSM    H6T11932   5.961   1.230  -0.750  0.0971 -1.4546  0.9052
  115OSM    C7S11933   6.126   1.362  -0.754  0.9306 -0.7689 -0.1489
  115OSM    H7S11934   6.215   1.297  -0.771  0.7324 -0.8394 -0.9760
  115OSM    H7T11935   6.168   1.451  -0.703  1.5286 -0.0037 -1.9167
  115OSM    C8S11936   6.070   1.410  -0.891  0.1199 -0.4490 -0.2306
  115OSM    H8S11937   5.970   1.456  -0.880  0.2073 -0.3692  0.2746
  115OSM    H8T11938   6.062   1.320  -0.956 -0.9861  1.0242 -2.2504
  115OSM    C9S11939   6.173   1.503  -0.966  0.2867  0.4836 -0.3943
  115OSM    H9S11940   6.276   1.461  -0.963  0.2597  0.0008 -3.5930
  115OSM    H9T11941   6.184   1.600  -0.912  3.4447  0.5351 -0.9385
  115OSM   C10S11942   6.133   1.536  -1.118 -0.7115  0.2841 -0.4442
  115OSM   H10S11943   6.203   1.621  -1.138 -0.3644  0.1526  0.1546
  115OSM   H10T11944   6.032   1.581  -1.120 -0.7810  0.1953  0.4674
  115OSM   C11S11945   6.149   1.417  -1.218  0.2373 -0.1892 -0.2438
  115OSM   H11S11946   6.110   1.322  -1.176  0.7159  0.2411  1.2229
  115OSM   H11T11947   6.256   1.413  -1.246  0.7406 -1.3220  1.6939
  115OSM   C12S11948   6.066   1.442  -1.345  0.1535  0.1175  0.2590
  115OSM   H12S11949   6.095   1.535  -1.399 -1.4491  1.1825  1.1672
  115OSM   H12T11950   5.963   1.460  -1.307 -0.9887  0.2849 -2.6611
  115OSM   C13S11951   6.059   1.313  -1.430  0.2486  0.1121 -0.1051
  115OSM   H13S11952   5.996   1.237  -1.377 -0.6534  0.2781 -0.9048
  115OSM   H13T11953   6.157   1.266  -1.450 -0.0202  0.5771 -2.8343
  115OSM   C14S11954   5.979   1.330  -1.562 -0.2145  0.3954 -0.3862
  115OSM   H14S11955   5.974   1.226  -1.601  1.6096  0.3488 -0.5637
  115OSM   H14T11956   6.044   1.388  -1.631 -1.0397 -2.0058 -3.3956
  115OSM   C15S11957   5.837   1.390  -1.556  0.3394  0.1181 -0.1868
  115OSM   H15S11958   5.853   1.494  -1.522 -2.8526  0.7054 -0.1836
  115OSM   H15T11959   5.772   1.335  -1.485  0.2749 -1.1671 -1.1962
  115OSM   C16S11960   5.775   1.393  -1.693  0.4210  0.1552 -0.1562
  115OSM   H16S11961   5.665   1.409  -1.685  0.7477  3.5646 -0.7269
  115OSM   H16T11962   5.801   1.301  -1.749 -2.3374 -1.7036  1.4005
  115OSM   C17S11963   5.842   1.514  -1.765 -0.3292  0.4151  0.2488
  115OSM   H17S11964   5.952   1.499  -1.769 -0.6408 -1.7790 -1.3811
  115OSM   H17T11965   5.816   1.608  -1.711  1.5237  2.3430 -2.0033
  115OSM   C18S11966   5.790   1.536  -1.910  0.0148 -0.3046  0.0236
  115OSM   H18S11967   5.681   1.554  -1.906  0.3584  2.2073 -0.3291
  115OSM   H18T11968   5.798   1.446  -1.976  0.1711 -0.1229 -0.2071
  115OSM   H18U11969   5.829   1.623  -1.967 -2.4491  1.3348  0.6962
  115OSM    C1F11970   6.539   1.068  -0.513 -0.5254 -0.0852 -0.4941
  115OSM     OF11971   6.526   0.952  -0.551  0.7008  0.4748 -0.0047
  115OSM    C2F11972   6.673   1.130  -0.511 -0.2123 -0.1919  0.1236
  115OSM    H2F11973   6.720   1.129  -0.411  2.9332 -1.1762 -1.2344
  115OSM    H2G11974   6.661   1.235  -0.546  0.6988  0.4789  1.7243
  115OSM    C3F11975   6.776   1.051  -0.610  0.4774  0.0975 -0.0685
  115OSM    H3F11976   6.787   0.954  -0.558 -2.1675 -1.4657 -2.1411
  115OSM    H3G11977   6.862   1.121  -0.613 -0.4176  1.5647  3.3616
  115OSM    C4F11978   6.750   1.024  -0.760 -0.5575 -0.1835  1.0090
  115OSM    H4F11979   6.658   0.963  -0.776  0.0978 -0.8355 -0.3744
  115OSM    H4G11980   6.837   0.964  -0.794 -2.2901 -2.4617  0.2917
  115OSM    C5F11981   6.720   1.159  -0.830  0.2727 -0.2688 -0.3236
  115OSM    H5F11982   6.799   1.236  -0.817  0.8132 -1.0143  1.0599
  115OSM    H5G11983   6.635   1.200  -0.772  0.1373 -1.1362  0.1077
  115OSM    C6F11984   6.682   1.148  -0.983 -0.3494 -0.1212 -0.9588
  115OSM    H6F11985   6.616   1.059  -0.993 -0.9553  0.4396 -2.0569
  115OSM    H6G11986   6.777   1.127  -1.037  1.2869 -1.1922  2.0753
  115OSM    C7F11987   6.625   1.276  -1.030  0.0594  0.1485  0.0730
  115OSM    H7F11988   6.689   1.366  -1.029 -0.8805  0.8409 -0.1827
  115OSM    H7G11989   6.529   1.289  -0.975  0.5253  2.0075  0.5167
  115OSM    C8F11990   6.579   1.258  -1.181  0.6532 -1.3366  0.1377
  115OSM    H8F11991   6.479   1.210  -1.176  0.1459 -0.2159  2.1232
  115OSM    H8G11992   6.648   1.199  -1.244 -0.4437  0.6224 -3.1226
  115OSM    C9F11993   6.540   1.385  -1.251 -0.2075  0.6534  0.5818
  115OSM    H9F11994   6.493   1.460  -1.185 -1.2638  0.1413  0.4245
  115OSM   C10F11995   6.576   1.416  -1.379 -0.0640  0.3223  0.6037
  115OSM   H10F11996   6.544   1.517  -1.411 -2.4636  0.3819  2.9135
  115OSM   C11F11997   6.640   1.334  -1.488 -0.4813  0.9624 -1.1407
  115OSM   H11F11998   6.652   1.230  -1.450  0.9849  1.8274  0.9531
  115OSM   H11G11999   6.744   1.360  -1.517  0.7373 -3.6031 -1.7328
  115OSM   C12F12000   6.565   1.327  -1.624  0.5336  0.1112  0.3194
  115OSM   H12F12001   6.614   1.255  -1.692 -0.9111 -1.0781  0.4816
  115OSM   H12G12002   6.587   1.429  -1.663  0.2612 -0.0524 -0.2787
  115OSM   C13F12003   6.409   1.291  -1.625 -0.3950  0.1309 -0.0630
  115OSM   H13F12004   6.354   1.353  -1.551  1.1741  0.6683  0.6775
  115OSM   H13G12005   6.405   1.187  -1.585 -0.0117  0.7203  1.5785
  115OSM   C14F12006   6.347   1.277  -1.760 -0.3089 -0.6937  0.4856
  115OSM   H14F12007   6.265   1.203  -1.755 -0.3600 -0.5917  1.2322
  115OSM   H14G12008   6.424   1.249  -1.835  0.8142  0.0916  1.3117
  115OSM   C15F12009   6.280   1.409  -1.802 -0.6842 -0.0033  0.0462
  115OSM   H15F12010   6.352   1.490  -1.777 -3.5994  2.7727 -0.0041
  115OSM   H15G12011   6.195   1.422  -1.732 -0.4499 -0.5620  0.4456
  115OSM   C16F12012   6.236   1.416  -1.947  0.0038 -0.5065  0.1299
  115OSM   H16F12013   6.322   1.440  -2.012 -1.1675  0.2413 -1.2000
  115OSM   H16G12014   6.155   1.489  -1.969 -0.6544 -1.3076 -0.1494
  115OSM   C17F12015   6.191   1.278  -1.997  0.5942  0.1323  0.2213
  115OSM   H17F12016   6.263   1.194  -1.986 -0.7192 -0.9561  0.7234
  115OSM   H17G12017   6.166   1.280  -2.105  1.4988  1.2380 -0.0006
  115OSM   C18F12018   6.058   1.235  -1.934  0.7383  0.7903 -0.0627
  115OSM   H18F12019   6.012   1.156  -1.997 -1.9415  0.3510  2.2096
  115OSM   H18G12020   5.982   1.316  -1.940 -2.0177 -1.7111 -1.4302
  115OSM   H18H12021   6.078   1.211  -1.828  0.6958 -0.9506 -0.4255
  116OSM      N12022   1.233   4.262   0.479  0.3165  0.1032  0.8172
  116OSM    C1512023   1.107   4.287   0.564  0.2341  0.1418 -0.5463
  116OSM   H15A12024   1.063   4.189   0.554  2.0609 -0.7564 -0.2352
  116OSM   H15B12025   1.047   4.368   0.524  1.7468  1.8068  0.3773
  116OSM   H15C12026   1.127   4.307   0.668 -0.5384 -1.3454 -0.0784
  116OSM    C1412027   1.303   4.145   0.538  0.2580 -0.6085 -0.0315
  116OSM   H14A12028   1.401   4.133   0.495  0.5053  1.1854 -0.0386
  116OSM   H14B12029   1.249   4.054   0.518 -1.1374 -0.1131  1.2214
  116OSM   H14C12030   1.311   4.153   0.646  0.6691  0.5139 -0.1267
  116OSM    C1312031   1.188   4.233   0.338  0.1275 -0.4058  0.0757
  116OSM   H13A12032   1.268   4.197   0.276 -1.1170  0.7455 -2.3516
  116OSM   H13B12033   1.147   4.318   0.285 -2.2471 -1.6509 -0.2031
  116OSM   H13C12034   1.110   4.159   0.345 -0.2582  0.1119  1.7609
  116OSM    C1212035   1.326   4.378   0.476 -0.1685 -0.4333 -0.1025
  116OSM   H12A12036   1.349   4.414   0.575  3.3590 -1.8485 -0.2456
  116OSM   H12B12037   1.270   4.456   0.427 -0.1982 -1.4519 -1.7811
  116OSM    C1112038   1.456   4.363   0.390  0.4732  0.1070  0.3982
  116OSM   H11A12039   1.505   4.265   0.404  1.9916  0.9854  1.6293
  116OSM   H11B12040   1.534   4.437   0.419  0.9518 -0.3832  0.3761
  116OSM      P12041   1.369   4.518   0.210  0.1067  0.2188  0.0245
  116OSM    O1312042   1.224   4.529   0.242 -0.4023 -0.1846  0.3560
  116OSM    O1412043   1.459   4.621   0.270  0.8465  0.3506 -0.5689
  116OSM    O1112044   1.384   4.523   0.047  0.5242 -0.5657 -0.6830
  116OSM    O1212045   1.423   4.378   0.251 -0.0880  0.5128 -0.3686
  116OSM    C1S12046   1.359   4.406  -0.034  0.6077 -0.3559 -0.3736
  116OSM    H1S12047   1.254   4.372  -0.027  0.5413 -0.4119 -1.5033
  116OSM    H1T12048   1.411   4.315   0.002  1.5626  0.0314 -0.7209
  116OSM     NF12049   1.304   4.356  -0.271  0.8599 -0.0317 -0.1336
  116OSM    HNF12050   1.335   4.268  -0.306 -2.1296 -1.0826 -0.4162
  116OSM    C2S12051   1.379   4.443  -0.180 -0.2991  0.6844  0.1726
  116OSM    H2S12052   1.337   4.539  -0.215  0.5444  0.7188 -0.7935
  116OSM    C3S12053   1.538   4.444  -0.210 -0.1651 -0.0484 -0.5339
  116OSM    H3S12054   1.581   4.343  -0.192  1.1354  0.2033 -2.0346
  116OSM     O312055   1.603   4.537  -0.124  0.1103  0.4614  0.4157
  116OSM    HO312056   1.555   4.549  -0.042  1.8149  0.1971  1.5142
  116OSM    C4S12057   1.562   4.501  -0.346 -0.1331  0.3797 -0.2133
  116OSM    H4S12058   1.528   4.604  -0.357 -1.3069  0.2323  1.6262
  116OSM    C5S12059   1.612   4.422  -0.445 -0.5211 -0.1025  0.6670
  116OSM    H5S12060   1.657   4.323  -0.424  0.8692 -0.7019 -3.9547
  116OSM    C6S12061   1.644   4.477  -0.583  0.6966 -0.4303  0.4579
  116OSM    H6S12062   1.625   4.398  -0.658  2.6202  0.2968 -0.8723
  116OSM    H6T12063   1.751   4.506  -0.571  0.9191 -1.1195  0.1731
  116OSM    C7S12064   1.576   4.597  -0.635  0.0830  0.6608 -0.4335
  116OSM    H7S12065   1.582   4.681  -0.563 -0.4955 -1.3666  2.1337
  116OSM    H7T12066   1.470   4.568  -0.652 -0.7988  2.3403  1.8284
  116OSM    C8S12067   1.635   4.650  -0.768 -0.1658  0.8854  0.0010
  116OSM    H8S12068   1.628   4.576  -0.851  0.5127  0.3040  0.4557
  116OSM    H8T12069   1.744   4.666  -0.756  0.0069 -0.9136  1.1130
  116OSM    C9S12070   1.568   4.782  -0.818 -0.2849  0.1331 -0.0236
  116OSM    H9S12071   1.555   4.845  -0.728  2.2497 -0.3898  0.8129
  116OSM    H9T12072   1.467   4.769  -0.862  0.4891  0.3513 -1.9523
  116OSM   C10S12073   1.650   4.863  -0.916  0.3611  0.3834  0.2383
  116OSM   H10S12074   1.736   4.916  -0.868  0.1951 -0.4092  1.4489
  116OSM   H10T12075   1.591   4.954  -0.940  1.4070  1.2019  0.6760
  116OSM   C11S12076   1.682   4.792  -1.051 -1.2125  0.1151  0.1673
  116OSM   H11S12077   1.596   4.745  -1.101 -0.4455 -0.3991 -0.7046
  116OSM   H11T12078   1.748   4.704  -1.037 -1.1632  0.1283  0.0251
  116OSM   C12S12079   1.759   4.887  -1.147  0.1388  0.4422  0.0253
  116OSM   H12S12080   1.864   4.916  -1.127  0.9824 -0.8812 -2.1015
  116OSM   H12T12081   1.689   4.973  -1.144 -0.3132  0.0793  0.0658
  116OSM   C13S12082   1.742   4.849  -1.298 -0.2048 -0.2619 -0.6150
  116OSM   H13S12083   1.633   4.839  -1.316 -0.9746  1.8535  2.1023
  116OSM   H13T12084   1.774   4.745  -1.321 -1.8751 -1.0349  0.3623
  116OSM   C14S12085   1.824   4.944  -1.395 -0.0007  0.3383  0.1141
  116OSM   H14S12086   1.932   4.920  -1.379 -0.0843 -0.1276 -0.0237
  116OSM   H14T12087   1.786   5.048  -1.380 -0.5539  0.7277 -3.1778
  116OSM   C15S12088   1.795   4.904  -1.546  0.4659 -0.2929  0.5438
  116OSM   H15S12089   1.812   4.798  -1.572  0.4825  0.1368 -1.3036
  116OSM   H15T12090   1.849   4.967  -1.620 -2.4215  3.6481  1.4067
  116OSM   C16S12091   1.643   4.936  -1.589 -0.6604  0.0871 -1.2559
  116OSM   H16S12092   1.582   4.880  -1.514 -0.3689  0.0175 -1.0668
  116OSM   H16T12093   1.633   4.891  -1.690  1.1307  0.9166 -1.8502
  116OSM   C17S12094   1.602   5.088  -1.585 -0.4652 -0.2330 -0.1582
  116OSM   H17S12095   1.680   5.154  -1.628 -0.2789  0.7438  1.5798
  116OSM   H17T12096   1.601   5.114  -1.477 -0.4736 -2.9653  0.5744
  116OSM   C18S12097   1.470   5.122  -1.657  0.2782 -0.4417  0.0034
  116OSM   H18S12098   1.399   5.039  -1.639  0.6718 -0.6431  0.6321
  116OSM   H18T12099   1.482   5.119  -1.768 -0.2000  1.2156 -0.1177
  116OSM   H18U12100   1.431   5.222  -1.628 -0.3244  0.3701 -3.2205
  116OSM    C1F12101   1.170   4.358  -0.297  0.3691  0.4160 -0.6753
  116OSM     OF12102   1.107   4.453  -0.251 -0.4473 -0.3275  0.5146
  116OSM    C2F12103   1.102   4.250  -0.367  0.6803  0.3608  0.0693
  116OSM    H2F12104   1.018   4.297  -0.422  1.7436  2.4501  0.1122
  116OSM    H2G12105   1.063   4.176  -0.294 -0.0631  0.0729 -0.6121
  116OSM    C3F12106   1.186   4.166  -0.462 -0.8365 -1.6711 -0.4039
  116OSM    H3F12107   1.108   4.099  -0.505 -0.5272 -0.8352 -2.3870
  116OSM    H3G12108   1.261   4.100  -0.414 -0.8097 -1.9290 -0.7938
  116OSM    C4F12109   1.243   4.257  -0.582  0.3123  0.7486  0.1797
  116OSM    H4F12110   1.297   4.343  -0.537 -3.0380  2.4795  1.2506
  116OSM    H4G12111   1.152   4.292  -0.636 -1.1505 -1.8220  0.8095
  116OSM    C5F12112   1.318   4.183  -0.693 -0.3078 -0.3794 -0.7383
  116OSM    H5F12113   1.409   4.139  -0.647  0.1681  2.0997  0.8870
  116OSM    H5G12114   1.359   4.263  -0.758 -1.4966  1.8646  1.1091
  116OSM    C6F12115   1.246   4.083  -0.780  0.7301  0.5403 -0.3059
  116OSM    H6F12116   1.148   4.127  -0.810 -0.2401 -2.2203 -1.6202
  116OSM    H6G12117   1.222   3.982  -0.740 -0.4506  0.9478  0.0596
  116OSM    C7F12118   1.335   4.053  -0.904 -0.9720 -0.6143  0.4265
  116OSM    H7F12119   1.438   4.029  -0.870 -0.6340  2.2787  1.7636
  116OSM    H7G12120   1.352   4.142  -0.968  0.6592 -1.5748 -0.5241
  116OSM    C8F12121   1.273   3.953  -1.002  0.2719  0.5657  0.7582
  116OSM    H8F12122   1.176   4.000  -1.030 -0.2191 -0.7748  0.1468
  116OSM    H8G12123   1.251   3.861  -0.944 -0.8372  0.5671  0.3631
  116OSM    C9F12124   1.347   3.921  -1.126  0.4166  0.0110 -0.0497
  116OSM    H9F12125   1.435   3.858  -1.105 -2.5282 -3.3209  4.3397
  116OSM   C10F12126   1.340   3.991  -1.244 -0.1426 -0.1848 -0.0314
  116OSM   H10F12127   1.400   3.952  -1.327 -0.4776 -0.8447  0.0321
  116OSM   C11F12128   1.241   4.095  -1.292  0.1819  0.2095 -0.4887
  116OSM   H11F12129   1.284   4.183  -1.345 -1.5127 -0.3437 -2.9451
  116OSM   H11G12130   1.170   4.123  -1.211 -0.9659 -1.8898 -0.7150
  116OSM   C12F12131   1.150   4.018  -1.386 -0.4869 -0.3341  0.6852
  116OSM   H12F12132   1.052   4.070  -1.390 -0.3665 -0.1840 -0.7709
  116OSM   H12G12133   1.126   3.916  -1.349 -0.4075 -1.3478 -1.8513
  116OSM   C13F12134   1.199   3.998  -1.532 -0.4768 -0.1183 -0.5049
  116OSM   H13F12135   1.142   3.930  -1.599 -0.0440 -2.5269  1.4486
  116OSM   H13G12136   1.302   3.956  -1.524 -0.4719  0.0402  0.4001
  116OSM   C14F12137   1.226   4.138  -1.605  0.4154 -0.2665  0.0937
  116OSM   H14F12138   1.325   4.181  -1.582 -0.3065  3.6361 -2.9743
  116OSM   H14G12139   1.146   4.212  -1.582  1.1750  1.4290 -2.3036
  116OSM   C15F12140   1.211   4.118  -1.756 -0.0772  0.0026  0.0368
  116OSM   H15F12141   1.266   4.028  -1.788  1.3203  1.4133 -1.7626
  116OSM   H15G12142   1.254   4.198  -1.821 -0.0816 -0.0088  0.0197
  116OSM   C16F12143   1.065   4.110  -1.801  0.7384  0.0624 -0.2576
  116OSM   H16F12144   1.020   4.212  -1.804  1.2231  0.3896  1.7735
  116OSM   H16G12145   1.007   4.058  -1.722  0.0535  0.1116 -0.7263
  116OSM   C17F12146   1.026   4.027  -1.923  0.3186 -0.4224  0.3268
  116OSM   H17F12147   1.050   3.920  -1.912  0.4356 -0.5966 -1.3884
  116OSM   H17G12148   1.077   4.066  -2.013  0.8980 -2.5207 -0.3028
  116OSM   C18F12149   0.884   4.042  -1.974 -0.0770  0.3393  0.1806
  116OSM   H18F12150   0.866   4.142  -2.019  1.3081 -0.1676 -1.6208
  116OSM   H18G12151   0.816   4.030  -1.887  1.2013 -2.0915  0.9102
  116OSM   H18H12152   0.872   3.968  -2.056  0.0447  0.5087  0.0063
  117OSM      N12153   0.917   5.931   0.407  0.4813 -0.1041 -0.1943
  117OSM    C1512154   0.784   5.859   0.452 -0.8747  0.0647  0.1683
  117OSM   H15A12155   0.718   5.942   0.474 -0.1053  1.0073 -0.9446
  117OSM   H15B12156   0.796   5.804   0.544  2.5259 -0.6569 -0.5686
  117OSM   H15C12157   0.735   5.802   0.375 -0.2763  0.3834 -0.4578
  117OSM    C1412158   0.946   6.048   0.497  0.3513 -0.1188 -0.1055
  117OSM   H14A12159   1.038   6.101   0.472  0.0528 -0.3116 -1.7440
  117OSM   H14B12160   0.952   6.025   0.602 -1.7068  0.5355  0.1829
  117OSM   H14C12161   0.870   6.124   0.488 -1.3967 -1.5589  1.6974
  117OSM    C1312162   1.028   5.828   0.412 -0.4303 -0.0526  0.0926
  117OSM   H13A12163   1.046   5.763   0.327 -0.4242 -0.4896  0.4230
  117OSM   H13B12164   1.020   5.764   0.498  1.0814  1.2748  1.2804
  117OSM   H13C12165   1.115   5.885   0.440  0.1612 -0.9214  0.0566
  117OSM    C1212166   0.910   5.992   0.271 -0.5214 -1.2111 -0.4461
  117OSM   H12A12167   1.003   6.047   0.265 -1.5816  0.6665 -0.3452
  117OSM   H12B12168   0.833   6.068   0.276  1.2980  0.7929 -1.1360
  117OSM    C1112169   0.872   5.909   0.144  0.5091 -0.2542 -0.3950
  117OSM   H11A12170   0.936   5.819   0.155  0.5281 -0.2055 -0.0912
  117OSM   H11B12171   0.902   5.975   0.060  2.3609 -1.6061 -0.8528
  117OSM      P12172   0.626   5.988   0.110 -0.0962  0.3314  0.1348
  117OSM    O1312173   0.496   5.955   0.175  0.3336  0.4513 -0.0323
  117OSM    O1412174   0.683   6.121   0.142  0.5835 -0.0195 -0.3280
  117OSM    O1112175   0.612   5.979  -0.045 -0.0240 -0.0195 -0.0722
  117OSM    O1212176   0.736   5.872   0.143 -0.1628  0.1532 -0.3176
  117OSM    C1S12177   0.524   5.904  -0.124  0.6941 -0.2906  0.4761
  117OSM    H1S12178   0.420   5.943  -0.112  1.2276  0.9968  1.1085
  117OSM    H1T12179   0.546   5.796  -0.114  0.4757 -0.2876  0.9932
  117OSM     NF12180   0.446   5.872  -0.362 -0.7824  0.6334  0.4250
  117OSM    HNF12181   0.447   5.778  -0.395  0.6728  0.2837  1.4082
  117OSM    C2S12182   0.555   5.918  -0.279  0.3205 -0.0985 -0.0355
  117OSM    H2S12183   0.561   6.029  -0.280  3.2393 -0.1708  0.8518
  117OSM    C3S12184   0.693   5.863  -0.306 -0.7142 -0.0255 -0.2395
  117OSM    H3S12185   0.672   5.759  -0.341  0.1728 -0.0303 -0.7693
  117OSM     O312186   0.785   5.859  -0.202 -0.3037 -0.3462  0.4344
  117OSM    HO312187   0.735   5.898  -0.131  0.7091 -0.9336  1.5080
  117OSM    C4S12188   0.746   5.944  -0.423 -0.3617 -0.2142  0.2923
  117OSM    H4S12189   0.724   5.914  -0.526  0.3708 -0.7608  0.2863
  117OSM    C5S12190   0.829   6.052  -0.418 -0.1912 -0.7536  0.0731
  117OSM    H5S12191   0.858   6.105  -0.327  0.2984 -1.8741  0.5897
  117OSM    C6S12192   0.883   6.115  -0.551  0.5489  1.5021 -0.7941
  117OSM    H6S12193   0.988   6.084  -0.568  0.3935  0.9344 -0.7321
  117OSM    H6T12194   0.885   6.225  -0.533 -1.2301  1.2881  1.0773
  117OSM    C7S12195   0.823   6.089  -0.688  0.7507  0.1098 -0.5697
  117OSM    H7S12196   0.713   6.094  -0.677  0.7755 -1.8383  1.2023
  117OSM    H7T12197   0.839   5.984  -0.721  1.5984  0.2848 -0.7463
  117OSM    C8S12198   0.880   6.180  -0.795  0.1429  0.1440  0.1838
  117OSM    H8S12199   0.989   6.163  -0.804  0.5902  1.0389  2.9243
  117OSM    H8T12200   0.865   6.289  -0.775  1.8709  0.4543 -0.0558
  117OSM    C9S12201   0.807   6.156  -0.934 -0.4021  0.1460 -0.4049
  117OSM    H9S12202   0.703   6.193  -0.924 -0.7323 -0.4885 -1.3831
  117OSM    H9T12203   0.788   6.047  -0.947 -2.1683  0.1857  1.3632
  117OSM   C10S12204   0.874   6.221  -1.059 -0.3151 -0.2531 -0.0365
  117OSM   H10S12205   0.943   6.144  -1.101 -0.7846 -1.0698  0.6622
  117OSM   H10T12206   0.929   6.310  -1.021  0.9949 -1.3522  0.7588
  117OSM   C11S12207   0.757   6.253  -1.155 -0.2989 -0.2384  0.4622
  117OSM   H11S12208   0.705   6.342  -1.114 -0.0858 -0.3180  0.9019
  117OSM   H11T12209   0.696   6.160  -1.160 -0.3458 -0.2620  1.3378
  117OSM   C12S12210   0.804   6.272  -1.300 -0.0204 -0.0650  0.2484
  117OSM   H12S12211   0.836   6.174  -1.341 -0.3178 -0.2007  0.3463
  117OSM   H12T12212   0.886   6.348  -1.303 -0.3082  0.2247 -0.9144
  117OSM   C13S12213   0.687   6.319  -1.394  0.2187  0.5136  0.0162
  117OSM   H13S12214   0.637   6.413  -1.361  0.3875  1.5231 -2.3929
  117OSM   H13T12215   0.613   6.238  -1.375  2.7216 -1.8488  0.3885
  117OSM   C14S12216   0.730   6.328  -1.535 -0.0937 -0.0519 -0.2628
  117OSM   H14S12217   0.787   6.241  -1.576 -1.6894 -1.3048  0.0561
  117OSM   H14T12218   0.780   6.426  -1.545  0.0688  0.2505  2.8197
  117OSM   C15S12219   0.606   6.329  -1.634  0.2192 -0.8012 -0.6147
  117OSM   H15S12220   0.551   6.425  -1.625  1.3686 -0.0845 -1.0043
  117OSM   H15T12221   0.536   6.248  -1.603 -1.8293  1.2170  0.3372
  117OSM   C16S12222   0.651   6.317  -1.784  0.3674  0.3908 -0.2350
  117OSM   H16S12223   0.571   6.273  -1.847  0.5828 -2.2898  1.1766
  117OSM   H16T12224   0.737   6.247  -1.795  1.9178  2.5412 -3.1458
  117OSM   C17S12225   0.690   6.450  -1.848  0.1375  0.1015  0.2553
  117OSM   H17S12226   0.794   6.488  -1.834 -0.6617  3.0276 -0.8218
  117OSM   H17T12227   0.633   6.523  -1.786  0.0951  0.4953 -0.2339
  117OSM   C18S12228   0.656   6.464  -1.994  0.3772  0.4260  0.5534
  117OSM   H18S12229   0.727   6.392  -2.040  1.1130  0.5457  1.4790
  117OSM   H18T12230   0.670   6.566  -2.035 -0.6714  0.2823 -0.2072
  117OSM   H18U12231   0.548   6.445  -2.014 -0.2345  1.0710  2.9362
  117OSM    C1F12232   0.326   5.932  -0.364 -0.8752 -0.5402  0.5057
  117OSM     OF12233   0.313   6.042  -0.313 -0.3728  0.4863 -0.4390
  117OSM    C2F12234   0.210   5.857  -0.428  0.6973  0.2411 -0.3228
  117OSM    H2F12235   0.180   5.773  -0.362 -1.3623  0.3851 -1.0161
  117OSM    H2G12236   0.226   5.791  -0.516  0.5573 -1.1202  0.6351
  117OSM    C3F12237   0.080   5.938  -0.464 -0.5542  0.4947 -0.1756
  117OSM    H3F12238   0.043   5.983  -0.370 -1.7808 -1.3438  0.2746
  117OSM    H3G12239  -0.012   5.880  -0.487 -0.3312  0.7138 -1.7779
  117OSM    C4F12240   0.094   6.057  -0.555  0.6054 -0.6874 -0.0503
  117OSM    H4F12241   0.133   6.029  -0.656  0.9131 -0.2344 -0.0644
  117OSM    H4G12242   0.175   6.123  -0.517 -1.7787  0.9547  2.5458
  117OSM    C5F12243  -0.042   6.140  -0.571 -0.4654  0.0832  0.8888
  117OSM    H5F12244  -0.072   6.191  -0.476  2.3742  2.4275  0.6845
  117OSM    H5G12245  -0.117   6.067  -0.608 -0.7872 -0.1977  2.0526
  117OSM    C6F12246  -0.012   6.244  -0.677 -0.0900 -1.8230  0.2309
  117OSM    H6F12247   0.027   6.193  -0.768 -1.2921  1.5591 -2.3808
  117OSM    H6G12248   0.066   6.311  -0.636 -0.1818 -2.4718  1.5355
  117OSM    C7F12249  -0.134   6.324  -0.719 -0.0006  0.2253  0.0550
  117OSM    H7F12250  -0.167   6.375  -0.626  0.6679 -0.4866  0.6970
  117OSM    H7G12251  -0.209   6.247  -0.746  1.7062 -1.4711 -0.0633
  117OSM    C8F12252  -0.096   6.421  -0.834 -0.1855 -0.1440  0.5583
  117OSM    H8F12253  -0.100   6.367  -0.931  1.7433 -1.2125  1.0276
  117OSM    H8G12254   0.005   6.460  -0.812 -0.1480  0.4820 -0.6362
  117OSM    C9F12255  -0.190   6.536  -0.853 -0.0824  0.5595  0.5426
  117OSM    H9F12256  -0.189   6.612  -0.773  2.1765  0.9226  0.2153
  117OSM   C10F12257  -0.294   6.545  -0.930  0.5942  0.2185  0.1157
  117OSM   H10F12258  -0.368   6.626  -0.927 -0.5402 -0.7699 -0.3228
  117OSM   C11F12259  -0.338   6.456  -1.039 -0.3878  0.6736  0.4924
  117OSM   H11F12260  -0.428   6.404  -0.998  0.9711 -1.9647  0.3136
  117OSM   H11G12261  -0.271   6.375  -1.075 -1.6101 -0.0484 -0.2279
  117OSM   C12F12262  -0.370   6.535  -1.170 -0.3630 -0.0197 -0.3044
  117OSM   H12F12263  -0.274   6.550  -1.223 -0.6163  0.4300 -0.6442
  117OSM   H12G12264  -0.421   6.631  -1.148  0.5928  0.7055 -1.1474
  117OSM   C13F12265  -0.483   6.465  -1.254 -0.4901  0.3751  0.3587
  117OSM   H13F12266  -0.579   6.481  -1.200 -0.0246  1.3141  0.9248
  117OSM   H13G12267  -0.455   6.358  -1.266  0.8294  0.6025  1.1950
  117OSM   C14F12268  -0.497   6.527  -1.392  0.6398  0.3804 -0.0791
  117OSM   H14F12269  -0.405   6.501  -1.449  0.0876 -0.5755 -0.5416
  117OSM   H14G12270  -0.506   6.637  -1.376 -2.4267  0.2386 -0.2842
  117OSM   C15F12271  -0.605   6.461  -1.474  0.6053 -0.5198  0.3415
  117OSM   H15F12272  -0.700   6.491  -1.424  0.2954 -0.5135 -0.2324
  117OSM   H15G12273  -0.602   6.350  -1.466 -1.2304 -0.7094 -0.8141
  117OSM   C16F12274  -0.601   6.501  -1.619  0.4638 -0.1119 -0.1478
  117OSM   H16F12275  -0.527   6.430  -1.661  3.7269  2.4468  0.8678
  117OSM   H16G12276  -0.554   6.601  -1.623  4.7049 -1.8989  0.0646
  117OSM   C17F12277  -0.733   6.514  -1.698 -0.1977 -0.2738 -0.1130
  117OSM   H17F12278  -0.700   6.547  -1.798 -0.2273 -2.3843 -0.8714
  117OSM   H17G12279  -0.797   6.593  -1.653  0.0266 -0.9690  1.5025
  117OSM   C18F12280  -0.822   6.388  -1.708 -0.3928 -0.6611  0.0223
  117OSM   H18F12281  -0.835   6.353  -1.603 -0.9131 -2.0859 -0.5032
  117OSM   H18G12282  -0.769   6.308  -1.762  1.5813 -0.3099  1.3250
  117OSM   H18H12283  -0.918   6.410  -1.759 -0.4399 -2.7854 -0.8947
  118OSM      N12284   2.247   5.466   8.312 -0.1748  0.1267 -0.2212
  118OSM    C1512285   2.388   5.489   8.367  0.6293  0.3989 -0.1561
  118OSM   H15A12286   2.438   5.541   8.286 -0.8356 -0.2716 -1.5421
  118OSM   H15B12287   2.436   5.394   8.384 -0.1812  0.1482  0.7792
  118OSM   H15C12288   2.391   5.541   8.462  2.8002 -0.9406  0.5855
  118OSM    C1412289   2.186   5.370   8.405  0.0585 -0.3049  0.0767
  118OSM   H14A12290   2.087   5.349   8.368 -0.9599  2.0419  1.2648
  118OSM   H14B12291   2.178   5.418   8.502 -3.6067  0.1331 -0.2880
  118OSM   H14C12292   2.243   5.278   8.412  1.8252  0.7118 -0.3465
  118OSM    C1312293   2.167   5.594   8.317  0.5706 -0.0518 -0.3620
  118OSM   H13A12294   2.073   5.564   8.273  1.6181 -3.0303 -0.8157
  118OSM   H13B12295   2.209   5.679   8.267  1.1211 -0.2600 -0.2668
  118OSM   H13C12296   2.146   5.616   8.420 -1.4169 -3.2525  0.0389
  118OSM    C1212297   2.248   5.414   8.173  0.2583  0.4220  0.5956
  118OSM   H12A12298   2.155   5.362   8.161  1.1004 -0.8974 -0.5619
  118OSM   H12B12299   2.326   5.339   8.162  0.8068  0.6310  2.6672
  118OSM    C1112300   2.254   5.511   8.055 -0.8785 -0.6044 -0.3260
  118OSM   H11A12301   2.162   5.573   8.057  0.1305  1.0343  3.2092
  118OSM   H11B12302   2.269   5.441   7.970  1.8783 -1.5350  0.8101
  118OSM      P12303   2.390   5.739   8.058 -0.3052  0.1791 -0.0230
  118OSM    O1312304   2.273   5.799   8.121  0.2362  0.1878 -0.0935
  118OSM    O1412305   2.522   5.775   8.118  0.3288  0.1351 -0.2435
  118OSM    O1112306   2.392   5.788   7.911  0.2316  0.2746  0.5433
  118OSM    O1212307   2.376   5.584   8.057 -0.4713  0.4757  0.3055
  118OSM    C1S12308   2.297   5.733   7.811 -0.1900 -0.5726 -0.8750
  118OSM    H1S12309   2.191   5.744   7.842  0.0815 -5.2493  2.8791
  118OSM    H1T12310   2.309   5.623   7.803  0.1009 -0.4036 -4.3565
  118OSM     NF12311   2.245   5.710   7.576 -0.1899 -0.1864 -0.0241
  118OSM    HNF12312   2.300   5.667   7.504  2.0918  3.0053 -0.3680
  118OSM    C2S12313   2.322   5.791   7.665 -0.6203 -0.0769  0.6257
  118OSM    H2S12314   2.290   5.897   7.663  1.0075  0.4519 -2.1705
  118OSM    C3S12315   2.480   5.809   7.630  0.4168 -0.1262  0.0692
  118OSM    H3S12316   2.523   5.708   7.614  0.6074  0.0135 -0.3175
  118OSM     O312317   2.560   5.877   7.728 -0.8138  0.2136  0.8041
  118OSM    HO312318   2.512   5.871   7.811 -0.9557 -1.5760  0.6300
  118OSM    C4S12319   2.487   5.873   7.492  0.6249 -1.1020 -0.6255
  118OSM    H4S12320   2.481   5.798   7.412 -3.9816 -0.3341 -1.2929
  118OSM    C5S12321   2.505   5.999   7.458 -0.0093 -0.3336  0.2675
  118OSM    H5S12322   2.512   6.081   7.531  1.2943  0.0114 -0.2276
  118OSM    C6S12323   2.516   6.056   7.320  0.5216  0.9593 -0.0396
  118OSM    H6S12324   2.522   5.975   7.244  0.7687 -1.0188  1.9954
  118OSM    H6T12325   2.603   6.124   7.310  0.5981  0.9935  0.8458
  118OSM    C7S12326   2.394   6.152   7.283 -0.3979  0.3221  0.3730
  118OSM    H7S12327   2.396   6.242   7.347 -0.8690  0.2166  0.5380
  118OSM    H7T12328   2.299   6.098   7.302 -1.4734  1.2268 -2.1041
  118OSM    C8S12329   2.391   6.222   7.143  0.8293  0.3419 -0.1100
  118OSM    H8S12330   2.286   6.223   7.107  0.9000  1.1522 -0.3112
  118OSM    H8T12331   2.444   6.160   7.067 -1.0121  0.5441 -1.6534
  118OSM    C9S12332   2.440   6.369   7.156 -0.1524 -0.1535  0.4367
  118OSM    H9S12333   2.551   6.379   7.159 -0.1666 -0.0151  0.5143
  118OSM    H9T12334   2.393   6.405   7.250 -2.6714 -1.1793 -0.3615
  118OSM   C10S12335   2.383   6.455   7.050  0.1475 -0.8789  0.1337
  118OSM   H10S12336   2.370   6.555   7.096 -3.6850 -0.9216 -0.5322
  118OSM   H10T12337   2.284   6.412   7.022 -0.1030 -1.0007  1.1624
  118OSM   C11S12338   2.472   6.460   6.926 -0.4719 -0.8324  0.4883
  118OSM   H11S12339   2.460   6.360   6.880  0.2088 -1.0987  0.8698
  118OSM   H11T12340   2.579   6.480   6.948 -0.6307  0.9650 -0.2693
  118OSM   C12S12341   2.422   6.578   6.840  0.3261 -0.2161 -0.3255
  118OSM   H12S12342   2.444   6.668   6.901  0.0677 -0.9439  0.8843
  118OSM   H12T12343   2.311   6.581   6.833  0.1947 -1.0895  0.9072
  118OSM   C13S12344   2.486   6.597   6.703 -0.0441 -0.7249  0.6904
  118OSM   H13S12345   2.436   6.684   6.656  1.4237 -1.5981 -2.8063
  118OSM   H13T12346   2.460   6.512   6.637 -0.7970  0.7736 -1.0376
  118OSM   C14S12347   2.640   6.609   6.696 -0.0678 -0.4360  0.1975
  118OSM   H14S12348   2.688   6.517   6.736 -0.5292 -0.1000  1.6113
  118OSM   H14T12349   2.673   6.689   6.766  0.7221  0.7480 -1.4805
  118OSM   C15S12350   2.690   6.642   6.554 -0.5857 -0.2294 -0.0866
  118OSM   H15S12351   2.631   6.725   6.511 -0.1500 -0.4854 -1.1990
  118OSM   H15T12352   2.679   6.546   6.501 -1.0113 -0.0374 -0.3498
  118OSM   C16S12353   2.849   6.674   6.542 -0.0728  0.5775  0.4130
  118OSM   H16S12354   2.904   6.594   6.597  0.2934  2.0527  2.2864
  118OSM   H16T12355   2.882   6.763   6.600 -0.0257  2.2647 -2.0716
  118OSM   C17S12356   2.880   6.706   6.405 -0.5774  0.0964  0.5647
  118OSM   H17S12357   2.860   6.617   6.342  0.0470 -0.3437  0.9737
  118OSM   H17T12358   2.989   6.723   6.395 -0.3113 -2.5040 -2.4614
  118OSM   C18S12359   2.820   6.834   6.335 -0.3186 -0.2058 -1.3213
  118OSM   H18S12360   2.848   6.925   6.393 -2.1441 -0.2069 -0.3815
  118OSM   H18T12361   2.711   6.816   6.324 -0.7299  0.2564  1.2686
  118OSM   H18U12362   2.862   6.834   6.232 -3.0209  0.4125 -2.5179
  118OSM    C1F12363   2.111   5.712   7.568  0.1136 -0.7716  1.3550
  118OSM     OF12364   2.041   5.778   7.639  0.0040  0.3741  0.6810
  118OSM    C2F12365   2.055   5.644   7.452 -0.2239  1.1212  0.3946
  118OSM    H2F12366   1.965   5.586   7.481  0.1969 -0.8102 -1.8895
  118OSM    H2G12367   2.137   5.591   7.399  0.4419  1.7560  0.7683
  118OSM    C3F12368   1.993   5.743   7.340 -0.4222 -0.9283  0.0138
  118OSM    H3F12369   1.927   5.806   7.403  1.5661  1.5784 -0.2634
  118OSM    H3G12370   1.922   5.704   7.264 -1.0746 -0.0639  0.1601
  118OSM    C4F12371   2.094   5.831   7.271 -0.1201  0.6452  0.3410
  118OSM    H4F12372   2.190   5.779   7.250  0.3093  1.6007 -0.1382
  118OSM    H4G12373   2.126   5.915   7.337  1.1107  0.9728 -0.6333
  118OSM    C5F12374   2.037   5.878   7.137 -0.4726  0.2810 -0.2584
  118OSM    H5F12375   1.958   5.956   7.141 -0.8082 -0.0634 -0.1322
  118OSM    H5G12376   1.989   5.803   7.071 -0.8441  0.7483 -0.5238
  118OSM    C6F12377   2.156   5.933   7.057  0.4913  0.3653 -0.0033
  118OSM    H6F12378   2.235   5.857   7.040  0.7320  1.0422 -2.3677
  118OSM    H6G12379   2.192   6.030   7.098 -0.4187  0.3460  0.8793
  118OSM    C7F12380   2.121   5.975   6.909 -0.2282  0.8228 -0.4080
  118OSM    H7F12381   2.033   6.043   6.922 -0.8812 -0.2693  1.1468
  118OSM    H7G12382   2.088   5.883   6.857 -0.0830  0.1189  0.7040
  118OSM    C8F12383   2.229   6.044   6.817 -0.3519  0.3339 -0.0600
  118OSM    H8F12384   2.235   6.145   6.862  1.0230 -0.4821  1.7136
  118OSM    H8G12385   2.182   6.062   6.718 -1.9566 -1.4578  0.3124
  118OSM    C9F12386   2.370   5.999   6.803  0.3369  0.4908  0.0769
  118OSM    H9F12387   2.400   5.932   6.886  0.5836 -0.3044 -0.6424
  118OSM   C10F12388   2.440   5.999   6.687  0.2969 -1.0385  0.0170
  118OSM   H10F12389   2.542   5.962   6.700  0.8546  0.2882 -0.4093
  118OSM   C11F12390   2.408   6.063   6.556 -1.1235  0.5748  0.1268
  118OSM   H11F12391   2.324   6.007   6.509 -1.7495  1.0405  0.6609
  118OSM   H11G12392   2.498   6.045   6.495 -0.3654 -1.5241  1.7302
  118OSM   C12F12393   2.386   6.221   6.545 -0.0736 -0.0250  0.5023
  118OSM   H12F12394   2.480   6.251   6.597 -0.6134  0.0895  1.4231
  118OSM   H12G12395   2.303   6.255   6.610 -0.8455  1.2108 -1.0623
  118OSM   C13F12396   2.367   6.268   6.400 -0.2338  0.3251 -0.4152
  118OSM   H13F12397   2.282   6.211   6.359  0.8100 -2.7105  1.3217
  118OSM   H13G12398   2.456   6.251   6.336  1.0701  1.6300  0.9438
  118OSM   C14F12399   2.342   6.416   6.402 -0.7058 -0.1000 -0.6468
  118OSM   H14F12400   2.444   6.457   6.420 -0.5785 -0.6711 -0.0081
  118OSM   H14G12401   2.278   6.448   6.487  1.4192  4.3918 -0.4530
  118OSM   C15F12402   2.282   6.478   6.271 -0.8021 -0.2092 -0.6266
  118OSM   H15F12403   2.367   6.467   6.200  2.5134  1.2788  2.7673
  118OSM   H15G12404   2.284   6.588   6.292 -0.6805 -0.6496  1.9860
  118OSM   C16F12405   2.145   6.427   6.238  0.1330  0.0343 -0.0731
  118OSM   H16F12406   2.074   6.466   6.314  0.3102 -1.3746  0.8547
  118OSM   H16G12407   2.154   6.317   6.237  0.5455  0.0476  1.0298
  118OSM   C17F12408   2.098   6.472   6.099  1.1116  0.7056  0.3460
  118OSM   H17F12409   2.191   6.485   6.039  1.3628  0.3659  0.6528
  118OSM   H17G12410   2.048   6.570   6.092  0.7174  0.3821 -2.2871
  118OSM   C18F12411   2.004   6.372   6.036 -0.7839 -0.9236  0.4384
  118OSM   H18F12412   2.052   6.302   5.964 -0.8627  0.4493 -0.9969
  118OSM   H18G12413   1.923   6.417   5.974 -0.3949 -2.7031 -1.4900
  118OSM   H18H12414   1.962   6.313   6.120  0.0507  1.1524  2.4183
  119OSM      N12415   4.999   1.242   0.443 -1.1509  0.4691 -0.3494
  119OSM    C1512416   4.995   1.090   0.457  0.2552  1.4320 -0.5507
  119OSM   H15A12417   4.908   1.066   0.516 -0.9624  1.2371 -2.3580
  119OSM   H15B12418   5.080   1.033   0.493 -0.5703  0.3948 -0.2020
  119OSM   H15C12419   4.986   1.058   0.354  2.2431  0.9065 -0.6163
  119OSM    C1412420   4.856   1.282   0.426  0.1927  0.2404  0.4574
  119OSM   H14A12421   4.812   1.262   0.329  0.9020  0.9046 -0.0162
  119OSM   H14B12422   4.847   1.389   0.439  0.6039  0.7822 -2.7689
  119OSM   H14C12423   4.790   1.245   0.502 -1.5120 -0.1739 -1.1593
  119OSM    C1312424   5.051   1.303   0.569 -0.2036 -0.3063  0.5357
  119OSM   H13A12425   5.039   1.237   0.653 -0.1144 -0.0253  0.7724
  119OSM   H13B12426   4.998   1.394   0.591 -0.9305 -0.2850 -1.1841
  119OSM   H13C12427   5.158   1.318   0.577 -0.3384  1.5677 -0.5608
  119OSM    C1212428   5.080   1.283   0.329 -0.2840 -0.4123  0.3118
  119OSM   H12A12429   5.183   1.253   0.340 -0.8080 -3.3078 -1.4320
  119OSM   H12B12430   5.074   1.391   0.325 -0.1018 -0.2238  3.2498
  119OSM    C1112431   5.032   1.231   0.188 -0.5445 -0.0156 -0.2597
  119OSM   H11A12432   5.039   1.120   0.191 -0.5579 -0.0174  2.6518
  119OSM   H11B12433   5.094   1.263   0.102 -2.0912 -0.7390 -1.7003
  119OSM      P12434   4.840   1.369   0.062  0.2231 -0.0774 -0.4123
  119OSM    O1312435   4.707   1.321   0.019 -0.4303 -0.2797 -0.4851
  119OSM    O1412436   4.847   1.502   0.126  1.1267  0.4937  0.4168
  119OSM    O1112437   4.940   1.369  -0.057  0.6794 -0.1889  1.1507
  119OSM    O1212438   4.898   1.262   0.164  0.1676 -0.1615  0.0580
  119OSM    C1S12439   4.894   1.419  -0.183  0.9369  0.3711 -0.0613
  119OSM    H1S12440   4.881   1.529  -0.180 -2.2699  0.0746  1.0612
  119OSM    H1T12441   4.801   1.367  -0.215  1.5633 -0.2798 -0.8574
  119OSM     NF12442   4.959   1.450  -0.423 -0.6500  0.3466  0.0455
  119OSM    HNF12443   4.919   1.387  -0.490 -1.5695 -0.1082  0.9905
  119OSM    C2S12444   4.998   1.383  -0.300  0.1418 -0.2307 -0.0922
  119OSM    H2S12445   5.097   1.426  -0.272 -0.8229  1.7839  0.4152
  119OSM    C3S12446   5.009   1.228  -0.310 -0.5224  0.4622 -0.0581
  119OSM    H3S12447   4.903   1.196  -0.319  0.0235 -2.1444  1.6062
  119OSM     O312448   5.049   1.163  -0.188 -0.3876 -0.1680 -0.4584
  119OSM    HO312449   5.010   1.228  -0.130  0.7258  0.8995 -0.8750
  119OSM    C4S12450   5.082   1.178  -0.430  0.6812  0.0310 -0.1440
  119OSM    H4S12451   5.025   1.166  -0.523 -1.1200  1.4943  0.7091
  119OSM    C5S12452   5.212   1.146  -0.428 -0.5256  0.4759  0.0217
  119OSM    H5S12453   5.261   1.151  -0.330  0.2671  2.2771 -0.4253
  119OSM    C6S12454   5.301   1.093  -0.537  0.2075 -0.3835  0.2808
  119OSM    H6S12455   5.335   0.990  -0.511 -1.4852 -0.6999  1.3853
  119OSM    H6T12456   5.398   1.147  -0.543 -0.7278  1.3055 -0.1389
  119OSM    C7S12457   5.243   1.101  -0.683 -1.2674  0.2639  0.4298
  119OSM    H7S12458   5.137   1.068  -0.691 -1.3302  0.5331  0.1329
  119OSM    H7T12459   5.312   1.038  -0.743  0.5094  0.6417  1.9602
  119OSM    C8S12460   5.260   1.247  -0.748  0.2227  1.1271  0.7371
  119OSM    H8S12461   5.359   1.286  -0.718  1.6885 -1.8273  0.1183
  119OSM    H8T12462   5.174   1.302  -0.705  0.4048  1.4406  0.6989
  119OSM    C9S12463   5.234   1.255  -0.895 -0.3555  0.3539  0.0179
  119OSM    H9S12464   5.314   1.186  -0.931  0.3090  1.2395 -0.2260
  119OSM    H9T12465   5.267   1.360  -0.910 -1.3445  0.6416 -0.2414
  119OSM   C10S12466   5.091   1.225  -0.930 -0.3748  0.1564 -0.2159
  119OSM   H10S12467   5.038   1.140  -0.882  0.0583 -1.0805 -1.8385
  119OSM   H10T12468   5.095   1.193  -1.036 -0.8136  0.1718 -0.2369
  119OSM   C11S12469   4.997   1.347  -0.911 -0.3515 -0.1462  0.3345
  119OSM   H11S12470   5.015   1.401  -0.815  0.1534  0.5731 -0.1549
  119OSM   H11T12471   4.894   1.305  -0.909  0.0348 -1.5768 -3.0953
  119OSM   C12S12472   5.014   1.446  -1.028  0.1867  0.1477 -0.4894
  119OSM   H12S12473   5.114   1.426  -1.073  1.4943  1.2017  1.7413
  119OSM   H12T12474   5.013   1.545  -0.977  0.3557  1.0695 -2.2149
  119OSM   C13S12475   4.892   1.441  -1.129  0.0705  0.2842  0.1318
  119OSM   H13S12476   4.800   1.445  -1.067 -0.9589  1.3759 -1.3898
  119OSM   H13T12477   4.889   1.346  -1.187  0.6391  0.1359  0.3415
  119OSM   C14S12478   4.878   1.565  -1.222  0.2889  0.4274  0.5788
  119OSM   H14S12479   4.974   1.596  -1.269  0.3333 -0.5924 -0.0427
  119OSM   H14T12480   4.837   1.648  -1.162 -2.6418 -0.5413  0.0799
  119OSM   C15S12481   4.774   1.547  -1.334  0.2828  0.6633  0.6419
  119OSM   H15S12482   4.674   1.533  -1.287 -0.3223  1.2848 -0.4046
  119OSM   H15T12483   4.808   1.459  -1.393  0.3698  0.4623  0.9862
  119OSM   C16S12484   4.764   1.663  -1.430 -0.5795 -0.3761 -0.1642
  119OSM   H16S12485   4.865   1.689  -1.468 -0.9220  0.8471 -0.2873
  119OSM   H16T12486   4.725   1.750  -1.373  0.9056  0.5306 -0.4737
  119OSM   C17S12487   4.674   1.622  -1.552 -0.6096  0.1997  0.1898
  119OSM   H17S12488   4.566   1.624  -1.523 -0.3851  1.1069  0.9991
  119OSM   H17T12489   4.694   1.517  -1.583 -3.3494 -0.3690  0.0549
  119OSM   C18S12490   4.691   1.715  -1.668  0.2258 -0.7314  0.0128
  119OSM   H18S12491   4.785   1.704  -1.726  0.2557  2.8663 -0.8709
  119OSM   H18T12492   4.674   1.822  -1.642 -2.4315 -1.0980 -0.0032
  119OSM   H18U12493   4.623   1.690  -1.751 -1.2099  2.3862  0.1043
  119OSM    C1F12494   4.958   1.582  -0.435  0.0359  0.0166 -1.0324
  119OSM     OF12495   5.027   1.649  -0.365  0.0945  0.3338  0.1938
  119OSM    C2F12496   4.882   1.631  -0.546  0.6352 -0.4178 -0.0855
  119OSM    H2F12497   4.783   1.666  -0.510  0.5741  0.6085 -1.1824
  119OSM    H2G12498   4.861   1.545  -0.613 -1.4128 -0.2013  0.2186
  119OSM    C3F12499   4.951   1.743  -0.619  0.1790 -0.0980 -0.2480
  119OSM    H3F12500   5.058   1.725  -0.639  0.5299  0.3756  1.0925
  119OSM    H3G12501   4.951   1.831  -0.550  0.4652  0.2154 -0.6419
  119OSM    C4F12502   4.883   1.792  -0.757  0.2260 -0.3075  0.5235
  119OSM    H4F12503   4.773   1.797  -0.743  0.2851  1.1170  0.6102
  119OSM    H4G12504   4.886   1.725  -0.845 -1.3985  1.8557 -1.3066
  119OSM    C5F12505   4.923   1.940  -0.794 -0.5781  0.3434 -0.5309
  119OSM    H5F12506   5.034   1.946  -0.784 -0.7974  2.6423  1.7632
  119OSM    H5G12507   4.880   2.014  -0.722  0.1937  2.2602 -1.9571
  119OSM    C6F12508   4.876   1.974  -0.934  0.2479 -0.1079 -0.8909
  119OSM    H6F12509   4.767   1.988  -0.949 -0.1380 -0.2339  1.3704
  119OSM    H6G12510   4.899   1.893  -1.006 -1.7314 -2.0168  0.4671
  119OSM    C7F12511   4.949   2.099  -0.984  0.0447  0.3143  0.1495
  119OSM    H7F12512   4.939   2.104  -1.094 -0.1278 -1.2144  0.0702
  119OSM    H7G12513   5.058   2.105  -0.960 -0.1904  0.0860  1.3696
  119OSM    C8F12514   4.879   2.229  -0.939  0.4700  0.0787  0.4598
  119OSM    H8F12515   4.844   2.211  -0.835  1.5376 -0.2474  0.7706
  119OSM    H8G12516   4.785   2.237  -0.998 -0.7241  0.5141  2.3228
  119OSM    C9F12517   4.974   2.346  -0.954 -0.2200 -0.3992 -0.2087
  119OSM    H9F12518   5.044   2.359  -0.870 -0.9603 -0.0067  0.3680
  119OSM   C10F12519   4.994   2.432  -1.055  0.0235 -0.1335 -0.5034
  119OSM   H10F12520   5.062   2.515  -1.031  1.0407 -1.5284  1.7902
  119OSM   C11F12521   4.921   2.414  -1.182 -0.4428 -0.1364  0.6040
  119OSM   H11F12522   4.829   2.476  -1.179 -1.0543 -0.9083 -1.0865
  119OSM   H11G12523   4.890   2.308  -1.190 -1.3543  0.0837  1.1065
  119OSM   C12F12524   4.991   2.448  -1.317  0.2382  0.7493  0.7384
  119OSM   H12F12525   4.917   2.431  -1.398  2.7347 -1.5134 -1.2603
  119OSM   H12G12526   5.062   2.366  -1.341 -1.6820 -0.2127 -2.2064
  119OSM   C13F12527   5.070   2.580  -1.324 -0.1936 -0.5249  0.6368
  119OSM   H13F12528   5.148   2.583  -1.246  0.9101  0.6989 -0.4676
  119OSM   H13G12529   4.998   2.664  -1.323  0.1732 -0.2138  0.7799
  119OSM   C14F12530   5.138   2.600  -1.462 -0.0476 -0.1710  0.0041
  119OSM   H14F12531   5.071   2.576  -1.548  0.3955  0.8354 -0.6375
  119OSM   H14G12532   5.227   2.534  -1.461  2.1743  2.6499 -0.2609
  119OSM   C15F12533   5.204   2.742  -1.487  0.2755 -0.3199  1.0279
  119OSM   H15F12534   5.123   2.807  -1.525  0.6715 -0.3004  0.1793
  119OSM   H15G12535   5.273   2.737  -1.574 -0.9216 -0.5141  0.0544
  119OSM   C16F12536   5.269   2.812  -1.367  0.1948 -0.4780  0.3291
  119OSM   H16F12537   5.351   2.745  -1.332  1.1741  1.4259  1.9115
  119OSM   H16G12538   5.202   2.826  -1.279  1.1168  1.5850  0.7634
  119OSM   C17F12539   5.322   2.952  -1.391 -0.2418  0.9670  0.4575
  119OSM   H17F12540   5.353   2.992  -1.293  1.7536  0.8427 -0.0897
  119OSM   H17G12541   5.231   3.003  -1.430 -0.4000 -0.4416 -1.1619
  119OSM   C18F12542   5.442   2.970  -1.482  0.1173 -0.4392  0.2623
  119OSM   H18F12543   5.529   2.922  -1.433  0.8048 -0.6356 -1.1244
  119OSM   H18G12544   5.474   3.076  -1.492 -0.0726 -0.2598  1.3475
  119OSM   H18H12545   5.425   2.938  -1.587  1.2034  0.0680 -0.0880
  120OSM      N12546   0.570   2.102   0.238  0.1513 -0.4140 -0.5516
  120OSM    C1512547   0.550   1.970   0.294  0.1285  0.6977 -0.3473
  120OSM   H15A12548   0.640   1.928   0.337 -1.1276 -3.9109 -1.6158
  120OSM   H15B12549   0.522   1.893   0.223  0.5190 -1.2830  1.5421
  120OSM   H15C12550   0.481   1.963   0.377 -2.2423  2.2057 -2.0651
  120OSM    C1412551   0.603   2.208   0.343 -1.0927 -0.4104  0.0310
  120OSM   H14A12552   0.617   2.305   0.297  0.5598 -1.0210 -0.8297
  120OSM   H14B12553   0.678   2.188   0.418 -1.5226  2.3810  1.3287
  120OSM   H14C12554   0.511   2.226   0.396  0.2739 -0.5546  2.5942
  120OSM    C1312555   0.682   2.103   0.138  0.3067  0.0336  0.1037
  120OSM   H13A12556   0.655   2.023   0.071  0.3367  0.5467 -0.5237
  120OSM   H13B12557   0.771   2.071   0.190  1.3974  1.2453 -0.9735
  120OSM   H13C12558   0.702   2.191   0.079 -0.2024 -0.0976 -0.2745
  120OSM    C1212559   0.441   2.137   0.157 -0.0531  0.1246  0.4338
  120OSM   H12A12560   0.420   2.045   0.104  2.0769  0.0020 -0.2899
  120OSM   H12B12561   0.469   2.209   0.082 -0.2607 -0.4327 -0.1962
  120OSM    C1112562   0.304   2.162   0.233  0.0533 -0.9733  0.2602
  120OSM   H11A12563   0.226   2.202   0.165  0.9470  1.5677  0.6074
  120OSM   H11B12564   0.325   2.238   0.310 -1.0132 -1.8008  1.4075
  120OSM      P12565   0.181   1.936   0.211 -0.3881  0.2737  0.2778
  120OSM    O1312566   0.184   1.813   0.297  0.2083  0.0648 -0.8888
  120OSM    O1412567   0.048   1.993   0.190 -0.2067 -0.3743 -0.3930
  120OSM    O1112568   0.258   1.909   0.067  0.0846  0.6854 -0.9818
  120OSM    O1212569   0.273   2.038   0.286  0.6828 -0.0855  1.4075
  120OSM    C1S12570   0.216   1.986  -0.044 -0.4601  0.1333  0.0727
  120OSM    H1S12571   0.217   2.097  -0.029 -1.5438  0.4617 -1.9316
  120OSM    H1T12572   0.115   1.960  -0.081 -0.2170 -0.3451 -0.2655
  120OSM     NF12573   0.293   2.048  -0.270  0.3372  0.0217 -0.1338
  120OSM    HNF12574   0.231   2.021  -0.343  0.0352 -1.6229  0.6694
  120OSM    C2S12575   0.315   1.950  -0.167  0.6057  0.4293  0.0931
  120OSM    H2S12576   0.417   1.945  -0.124  0.4353  2.2913  0.8021
  120OSM    C3S12577   0.292   1.805  -0.217  0.3071  0.0838  0.0402
  120OSM    H3S12578   0.190   1.801  -0.261  0.6838 -1.0421 -0.7628
  120OSM     O312579   0.287   1.708  -0.112 -0.5437 -1.0116  0.2477
  120OSM    HO312580   0.276   1.761  -0.032 -1.6351  1.7299 -1.5801
  120OSM    C4S12581   0.389   1.760  -0.321  0.4498  0.5683 -0.2609
  120OSM    H4S12582   0.331   1.714  -0.402 -1.3361  0.3895  1.0425
  120OSM    C5S12583   0.519   1.760  -0.327  0.0284 -0.4905  0.3019
  120OSM    H5S12584   0.581   1.790  -0.241  1.2666 -2.2859  0.0889
  120OSM    C6S12585   0.607   1.716  -0.444 -0.6811 -0.3759 -0.1758
  120OSM    H6S12586   0.678   1.633  -0.424  0.2183  0.7655  1.6501
  120OSM    H6T12587   0.677   1.798  -0.472 -1.2682 -0.0342 -0.6668
  120OSM    C7S12588   0.523   1.682  -0.564 -0.9650  0.0251 -0.1575
  120OSM    H7S12589   0.498   1.777  -0.615  0.9504  0.7742  0.1829
  120OSM    H7T12590   0.433   1.617  -0.554 -1.4470  0.3990 -1.7722
  120OSM    C8S12591   0.607   1.607  -0.675  0.3023  0.2759 -0.0323
  120OSM    H8S12592   0.664   1.519  -0.638 -0.5579 -0.3315 -0.1161
  120OSM    H8T12593   0.685   1.682  -0.701  0.5043  0.7742  1.8744
  120OSM    C9S12594   0.530   1.569  -0.801 -0.6489  0.0061  0.3885
  120OSM    H9S12595   0.446   1.501  -0.776 -1.1148  0.2342 -0.5031
  120OSM    H9T12596   0.598   1.506  -0.862  0.5302  0.0533  1.6102
  120OSM   C10S12597   0.475   1.685  -0.879  0.3010  0.3596 -0.0702
  120OSM   H10S12598   0.548   1.768  -0.882 -0.4645  1.0251 -1.4504
  120OSM   H10T12599   0.384   1.729  -0.832  0.0840  2.2583 -2.1039
  120OSM   C11S12600   0.436   1.658  -1.025  0.4301  0.5001 -0.3307
  120OSM   H11S12601   0.339   1.604  -1.024  0.8738 -0.3034  0.7840
  120OSM   H11T12602   0.523   1.607  -1.071  1.6051  0.8325  1.4387
  120OSM   C12S12603   0.415   1.795  -1.091  0.7380  0.4182  0.5527
  120OSM   H12S12604   0.512   1.850  -1.095  0.3329  1.0723 -0.8739
  120OSM   H12T12605   0.345   1.860  -1.035 -0.2549  1.6462 -1.9759
  120OSM   C13S12606   0.371   1.779  -1.242  0.1656 -0.5803  0.5065
  120OSM   H13S12607   0.386   1.880  -1.286 -1.2869  0.2906  1.8826
  120OSM   H13T12608   0.262   1.757  -1.244  0.1263 -0.3903  0.5836
  120OSM   C14S12609   0.448   1.673  -1.333  0.3348  0.1759  0.6055
  120OSM   H14S12610   0.396   1.656  -1.430  0.5039  3.2200 -0.1155
  120OSM   H14T12611   0.439   1.572  -1.287 -0.2469  0.0713  0.2758
  120OSM   C15S12612   0.588   1.720  -1.379  0.3676  0.2084  0.4859
  120OSM   H15S12613   0.618   1.634  -1.444 -0.9128  1.0610 -1.3299
  120OSM   H15T12614   0.656   1.715  -1.292  2.4719  0.7299 -1.0461
  120OSM   C16S12615   0.603   1.830  -1.482 -0.2970  0.7651 -0.2310
  120OSM   H16S12616   0.709   1.824  -1.515 -0.4596 -0.7757 -0.5053
  120OSM   H16T12617   0.583   1.933  -1.443 -1.8387  2.2890 -4.4829
  120OSM   C17S12618   0.523   1.807  -1.609 -0.1161 -0.1435  0.8742
  120OSM   H17S12619   0.415   1.796  -1.588  0.1486 -0.9443  1.9511
  120OSM   H17T12620   0.557   1.716  -1.663 -0.6663 -0.5612  1.2159
  120OSM   C18S12621   0.539   1.930  -1.701 -0.7577 -0.1194 -0.3528
  120OSM   H18S12622   0.488   2.012  -1.645 -1.2429 -0.7772  0.1851
  120OSM   H18T12623   0.506   1.915  -1.806  1.0085  1.1532 -1.1361
  120OSM   H18U12624   0.649   1.946  -1.698 -0.6070 -1.0993 -0.4955
  120OSM    C1F12625   0.345   2.170  -0.254 -0.0739  0.7813  0.6166
  120OSM     OF12626   0.407   2.205  -0.156  0.0263  0.6623  0.1910
  120OSM    C2F12627   0.323   2.262  -0.376 -0.3424 -0.6459 -0.4353
  120OSM    H2F12628   0.216   2.257  -0.408 -0.0115 -0.3763 -1.6387
  120OSM    H2G12629   0.389   2.223  -0.457 -0.6215 -1.3347 -0.3348
  120OSM    C3F12630   0.373   2.408  -0.344  0.3902 -0.4677  0.1311
  120OSM    H3F12631   0.473   2.413  -0.296  1.0166 -1.1528 -1.0504
  120OSM    H3G12632   0.308   2.449  -0.264 -1.6533 -0.4870 -1.4390
  120OSM    C4F12633   0.366   2.496  -0.463  0.9530 -0.2610  0.7143
  120OSM    H4F12634   0.397   2.445  -0.556  1.2000  0.5911  0.3154
  120OSM    H4G12635   0.429   2.586  -0.445  1.9566 -0.7214 -0.3715
  120OSM    C5F12636   0.223   2.537  -0.500 -0.9620 -0.2904 -0.1299
  120OSM    H5F12637   0.146   2.545  -0.421 -0.1546  1.6559  0.5163
  120OSM    H5G12638   0.183   2.472  -0.581 -3.1182 -1.5876  1.8583
  120OSM    C6F12639   0.216   2.674  -0.583 -0.3371 -0.1631 -0.0101
  120OSM    H6F12640   0.118   2.677  -0.635  0.6364 -3.3477 -2.3377
  120OSM    H6G12641   0.299   2.672  -0.657 -0.8890 -0.1143 -0.6493
  120OSM    C7F12642   0.240   2.803  -0.506  0.5159  0.5165 -0.8833
  120OSM    H7F12643   0.336   2.790  -0.453 -0.4892 -0.2321  0.8141
  120OSM    H7G12644   0.156   2.815  -0.435  0.0554 -0.2808 -1.2826
  120OSM    C8F12645   0.256   2.926  -0.594 -0.4877 -0.4471 -0.3647
  120OSM    H8F12646   0.334   2.892  -0.665  1.2920  2.5841 -0.0146
  120OSM    H8G12647   0.293   3.007  -0.528 -1.2266 -0.7310  0.4270
  120OSM    C9F12648   0.131   2.975  -0.656  0.4277  0.2234 -0.5020
  120OSM    H9F12649   0.041   2.928  -0.616  1.6453  0.0850  2.2852
  120OSM   C10F12650   0.124   3.069  -0.751 -0.0590 -0.8663  0.0268
  120OSM   H10F12651   0.028   3.110  -0.787  0.3529  1.0494  0.9316
  120OSM   C11F12652   0.247   3.141  -0.809 -0.0727 -0.0851  0.1766
  120OSM   H11F12653   0.344   3.117  -0.762 -0.3394 -0.6571  0.4340
  120OSM   H11G12654   0.241   3.251  -0.790  1.7892 -0.0274  0.5931
  120OSM   C12F12655   0.280   3.127  -0.966  0.3702  0.3409 -0.3431
  120OSM   H12F12656   0.304   3.022  -0.995 -0.9244  0.2827 -1.2639
  120OSM   H12G12657   0.377   3.179  -0.980 -0.1788  1.5778  0.3180
  120OSM   C13F12658   0.175   3.185  -1.060 -0.8520  0.6001 -0.1841
  120OSM   H13F12659   0.176   3.296  -1.069 -1.8535  0.6400  0.0798
  120OSM   H13G12660   0.074   3.151  -1.027 -1.3957  1.4679 -0.8802
  120OSM   C14F12661   0.182   3.127  -1.203  0.5685  0.3523 -0.3554
  120OSM   H14F12662   0.165   3.018  -1.193 -0.0112  0.5009  0.3907
  120OSM   H14G12663   0.286   3.142  -1.240  1.5611 -2.3114  1.0699
  120OSM   C15F12664   0.075   3.177  -1.291  0.3130  0.4372 -0.1871
  120OSM   H15F12665   0.067   3.288  -1.297  3.5511  0.8630  0.9729
  120OSM   H15G12666  -0.017   3.132  -1.249 -0.4691  0.5842 -1.6816
  120OSM   C16F12667   0.080   3.129  -1.430  0.0110 -0.2553 -0.1109
  120OSM   H16F12668   0.083   3.018  -1.425  0.8504 -0.1948  1.1818
  120OSM   H16G12669   0.175   3.144  -1.485  0.2645 -0.2145  0.3309
  120OSM   C17F12670  -0.043   3.158  -1.512  0.2118  0.8755  0.5515
  120OSM   H17F12671  -0.060   3.267  -1.517 -1.7173  0.6002  0.3397
  120OSM   H17G12672  -0.138   3.111  -1.477 -0.3349  1.3857 -0.2146
  120OSM   C18F12673  -0.037   3.089  -1.651  0.0740  0.0440  0.2752
  120OSM   H18F12674  -0.013   2.982  -1.633  1.8794  0.3602 -0.0615
  120OSM   H18G12675   0.044   3.147  -1.701  0.2327  1.5609  2.1696
  120OSM   H18H12676  -0.129   3.103  -1.711  0.1613 -3.7361 -1.0070
  121OSM      N12677   0.444   5.452   0.154  0.2129 -0.1390  0.1341
  121OSM    C1512678   0.420   5.599   0.158 -0.6694 -0.4206 -0.9863
  121OSM   H15A12679   0.393   5.629   0.258 -1.1437  0.5578 -1.3969
  121OSM   H15B12680   0.350   5.630   0.082 -0.5708 -2.2044 -1.8626
  121OSM   H15C12681   0.514   5.652   0.151 -1.0392  0.5919  1.1023
  121OSM    C1412682   0.501   5.424   0.017  0.6160 -0.2019 -0.0445
  121OSM   H14A12683   0.592   5.481   0.002  1.2768 -1.3580 -0.5966
  121OSM   H14B12684   0.432   5.437  -0.065  2.0511 -0.5189 -1.3613
  121OSM   H14C12685   0.540   5.325  -0.001  1.3214  0.1739 -0.6575
  121OSM    C1312686   0.534   5.408   0.260 -0.1211 -0.0859  0.0264
  121OSM   H13A12687   0.493   5.424   0.359  0.3731 -1.8355  0.5516
  121OSM   H13B12688   0.630   5.458   0.249  0.5707 -1.2368  0.6413
  121OSM   H13C12689   0.554   5.303   0.253 -0.4756 -0.0990 -0.8934
  121OSM    C1212690   0.317   5.372   0.177 -0.5179  0.4073 -1.0566
  121OSM   H12A12691   0.273   5.413   0.266 -1.3519 -2.7467  0.1161
  121OSM   H12B12692   0.357   5.277   0.209  2.6991  1.6775 -0.9375
  121OSM    C1112693   0.211   5.358   0.068 -0.9154 -0.6886 -0.5430
  121OSM   H11A12694   0.254   5.328  -0.030 -1.4267  2.6907 -1.9510
  121OSM   H11B12695   0.189   5.465   0.050  0.1803  0.0279  1.9193
  121OSM      P12696   0.094   5.128   0.072  0.0307 -0.3963  0.1447
  121OSM    O1312697   0.197   5.052   0.139  0.1034  0.4241 -0.3105
  121OSM    O1412698  -0.043   5.079   0.091  0.7440  0.0779  0.1430
  121OSM    O1112699   0.126   5.114  -0.083 -0.7202  0.0952 -0.1182
  121OSM    O1212700   0.103   5.283   0.105 -0.4360 -0.5122 -0.4034
  121OSM    C1S12701   0.046   5.200  -0.169  0.3209  0.5411 -0.3841
  121OSM    H1S12702   0.097   5.296  -0.196  0.2061  1.0071  1.0080
  121OSM    H1T12703  -0.058   5.220  -0.134  0.8409 -0.5217  1.9161
  121OSM     NF12704  -0.042   5.234  -0.399  0.5762 -0.1544 -0.4088
  121OSM    HNF12705  -0.131   5.198  -0.427  1.6323 -2.7730 -0.7050
  121OSM    C2S12706   0.032   5.142  -0.310  0.0118 -0.4163 -0.1007
  121OSM    H2S12707   0.131   5.136  -0.360  0.8496 -0.7339  1.5266
  121OSM    C3S12708  -0.023   4.997  -0.301 -0.5009 -0.0431 -0.3686
  121OSM    H3S12709  -0.122   5.000  -0.252 -0.2600  2.8295  0.0992
  121OSM     O312710   0.057   4.912  -0.223 -0.1149  0.0519 -0.0278
  121OSM    HO312711   0.109   4.966  -0.163 -0.5156 -1.7864  2.0872
  121OSM    C4S12712  -0.034   4.942  -0.443  0.2163  0.1211 -0.1973
  121OSM    H4S12713  -0.133   4.947  -0.490  0.7038 -0.3868 -1.3319
  121OSM    C5S12714   0.065   4.882  -0.520  0.3956  0.2740 -0.5595
  121OSM    H5S12715   0.169   4.879  -0.484  1.0230  0.8869 -2.2236
  121OSM    C6S12716   0.062   4.842  -0.665 -0.1731  0.4700 -0.2948
  121OSM    H6S12717   0.077   4.732  -0.669 -0.3365  0.4801 -1.6264
  121OSM    H6T12718   0.153   4.882  -0.715 -0.9159  1.4683 -0.8901
  121OSM    C7S12719  -0.057   4.883  -0.752 -0.0869  0.2704 -0.0240
  121OSM    H7S12720  -0.079   4.990  -0.735 -2.6522  0.3698 -2.9917
  121OSM    H7T12721  -0.141   4.819  -0.716 -0.1545 -1.1189 -2.4398
  121OSM    C8S12722  -0.032   4.850  -0.898 -0.2110  0.0828 -0.6404
  121OSM    H8S12723  -0.033   4.740  -0.914  1.2886  0.0463 -0.6540
  121OSM    H8T12724   0.070   4.888  -0.920  1.2116 -4.0333 -2.1446
  121OSM    C9S12725  -0.124   4.921  -0.992  0.1101 -0.3951 -0.1434
  121OSM    H9S12726  -0.125   5.024  -0.950 -0.0866 -0.6497  0.4840
  121OSM    H9T12727  -0.227   4.880  -0.992 -1.1895  2.4820 -2.1270
  121OSM   C10S12728  -0.066   4.923  -1.134  0.1877  0.0153 -0.3816
  121OSM   H10S12729  -0.063   4.818  -1.169  0.5795 -0.4450  0.9899
  121OSM   H10T12730   0.034   4.971  -1.134  0.1139  0.3102 -3.0451
  121OSM   C11S12731  -0.152   5.001  -1.233  0.0783 -0.4252 -0.7004
  121OSM   H11S12732  -0.152   5.110  -1.210 -3.5647 -0.2664 -0.8603
  121OSM   H11T12733  -0.259   4.972  -1.225 -0.4707  0.8361 -2.6357
  121OSM   C12S12734  -0.117   4.973  -1.381 -0.6667  0.2404 -0.4576
  121OSM   H12S12735  -0.071   4.872  -1.373 -0.8819  0.2585  1.7027
  121OSM   H12T12736  -0.024   5.029  -1.404 -0.7621  1.1437  1.1715
  121OSM   C13S12737  -0.224   4.996  -1.487  0.1909  1.0959  0.1534
  121OSM   H13S12738  -0.258   5.102  -1.491 -0.3682  0.9054 -0.2506
  121OSM   H13T12739  -0.306   4.926  -1.457  0.8052 -0.2575 -1.2174
  121OSM   C14S12740  -0.184   4.946  -1.624 -0.0288 -0.1563 -0.0242
  121OSM   H14S12741  -0.132   4.850  -1.606 -0.5999 -0.0392  2.7955
  121OSM   H14T12742  -0.108   5.022  -1.650 -1.0624  0.2122 -2.2289
  121OSM   C15S12743  -0.295   4.947  -1.734  0.0498  0.6963 -0.4295
  121OSM   H15S12744  -0.319   5.048  -1.773 -0.8878 -0.2246 -2.3333
  121OSM   H15T12745  -0.389   4.910  -1.687  1.3845 -1.2767  0.8503
  121OSM   C16S12746  -0.270   4.858  -1.858 -0.2298  0.2037 -0.0669
  121OSM   H16S12747  -0.350   4.835  -1.931  0.6871  0.5486 -1.2025
  121OSM   H16T12748  -0.225   4.766  -1.816 -0.5465 -0.9796 -2.1594
  121OSM   C17S12749  -0.150   4.911  -1.942 -0.1909  0.0554  0.2168
  121OSM   H17S12750  -0.063   4.930  -1.875  0.3172 -0.6513 -0.2314
  121OSM   H17T12751  -0.184   5.001  -1.997  0.3501  0.7932  1.0661
  121OSM   C18S12752  -0.098   4.815  -2.049 -0.2123 -0.0113  0.0436
  121OSM   H18S12753  -0.017   4.870  -2.099  0.8625 -2.4826 -1.1134
  121OSM   H18T12754  -0.178   4.785  -2.120  0.1874 -2.3264  0.4757
  121OSM   H18U12755  -0.063   4.719  -2.005 -0.6872  1.0963  3.1140
  121OSM    C1F12756  -0.005   5.355  -0.436  0.6139  0.6421 -0.3667
  121OSM     OF12757   0.099   5.406  -0.389  0.7146  0.1243  0.0043
  121OSM    C2F12758  -0.095   5.432  -0.524 -0.0558 -0.5261 -0.1870
  121OSM    H2F12759  -0.103   5.533  -0.480 -1.7729  0.2713 -2.1384
  121OSM    H2G12760  -0.196   5.385  -0.525 -0.4933  0.3913  0.2174
  121OSM    C3F12761  -0.026   5.448  -0.667  0.6273 -0.9411  0.0604
  121OSM    H3F12762  -0.034   5.349  -0.718  1.2719 -1.7906  1.5287
  121OSM    H3G12763   0.081   5.478  -0.656  0.8490 -1.4926 -0.4853
  121OSM    C4F12764  -0.103   5.559  -0.750 -0.2031 -0.0288 -0.8583
  121OSM    H4F12765  -0.210   5.542  -0.722  0.6778 -2.7207  1.2930
  121OSM    H4G12766  -0.106   5.542  -0.860  0.2611 -1.2097 -0.7048
  121OSM    C5F12767  -0.042   5.700  -0.726 -0.2234  0.1220  0.4465
  121OSM    H5F12768   0.052   5.692  -0.785 -0.4083  1.4955 -0.0601
  121OSM    H5G12769  -0.008   5.706  -0.620  1.3877  0.7424 -0.0862
  121OSM    C6F12770  -0.125   5.821  -0.756  0.3755 -0.1328 -0.3334
  121OSM    H6F12771  -0.054   5.905  -0.750  0.4140  0.0651 -2.6487
  121OSM    H6G12772  -0.201   5.832  -0.676 -1.0958 -0.1544 -1.6847
  121OSM    C7F12773  -0.188   5.815  -0.895  0.1960 -0.4456  0.1479
  121OSM    H7F12774  -0.249   5.723  -0.894 -0.0409 -0.2975 -0.2734
  121OSM    H7G12775  -0.108   5.805  -0.972 -0.7596 -2.7195 -0.6147
  121OSM    C8F12776  -0.289   5.926  -0.933 -0.0650  0.2437 -0.3971
  121OSM    H8F12777  -0.348   5.933  -0.839  1.7386  2.5122  0.6583
  121OSM    H8G12778  -0.342   5.885  -1.021 -0.0350 -2.3256  0.6950
  121OSM    C9F12779  -0.217   6.052  -0.964  0.4131  0.0949  0.1189
  121OSM    H9F12780  -0.162   6.093  -0.878 -0.1944 -0.4257  0.7730
  121OSM   C10F12781  -0.212   6.123  -1.077  0.4935 -0.1064 -0.0567
  121OSM   H10F12782  -0.151   6.214  -1.083  2.4807 -1.2444  1.6799
  121OSM   C11F12783  -0.274   6.078  -1.211 -0.3388 -0.6620  0.1246
  121OSM   H11F12784  -0.383   6.067  -1.192  0.2415 -2.8462  2.8175
  121OSM   H11G12785  -0.253   5.969  -1.224  2.2591 -0.3101  0.9314
  121OSM   C12F12786  -0.230   6.157  -1.338  0.9005  0.1368 -0.0363
  121OSM   H12F12787  -0.119   6.158  -1.340  0.8985  1.0929 -0.1123
  121OSM   H12G12788  -0.269   6.258  -1.313 -1.8973 -1.1429  1.1819
  121OSM   C13F12789  -0.294   6.104  -1.462  0.4714  0.0081  0.8220
  121OSM   H13F12790  -0.402   6.126  -1.478  1.1553  1.3039 -3.3005
  121OSM   H13G12791  -0.293   5.993  -1.466  3.2258 -0.0355  0.7446
  121OSM   C14F12792  -0.221   6.152  -1.592 -0.0293 -0.3254  0.2309
  121OSM   H14F12793  -0.125   6.097  -1.595  0.7562  0.9634  0.7558
  121OSM   H14G12794  -0.200   6.261  -1.588  0.1443 -0.3047 -1.0699
  121OSM   C15F12795  -0.308   6.117  -1.719 -0.7146  0.0069 -0.5494
  121OSM   H15F12796  -0.409   6.163  -1.714 -0.8841 -0.3911 -0.1056
  121OSM   H15G12797  -0.336   6.009  -1.715 -1.7663  0.2001 -1.9763
  121OSM   C16F12798  -0.248   6.147  -1.852 -0.3664  0.3405  0.6099
  121OSM   H16F12799  -0.317   6.103  -1.928 -1.9938  0.5719  1.8805
  121OSM   H16G12800  -0.147   6.103  -1.861 -0.1572  1.1878 -2.2250
  121OSM   C17F12801  -0.228   6.293  -1.886 -0.3915 -0.6128 -0.8671
  121OSM   H17F12802  -0.163   6.337  -1.807 -0.6179 -0.7716 -0.5921
  121OSM   H17G12803  -0.321   6.350  -1.866  1.7281  2.5087  0.8919
  121OSM   C18F12804  -0.172   6.318  -2.018  0.0705  0.9313 -0.3579
  121OSM   H18F12805  -0.241   6.280  -2.097  1.0574 -0.8125 -0.4363
  121OSM   H18G12806  -0.074   6.266  -2.029  1.7053  3.3692  1.6089
  121OSM   H18H12807  -0.161   6.427  -2.037  0.7559  0.7419 -1.1522
  122OSM      N12808   4.573   6.233   8.299 -0.1909 -0.0608  0.0561
  122OSM    C1512809   4.564   6.095   8.346  0.1434 -0.3756 -0.6119
  122OSM   H15A12810   4.549   6.026   8.264  1.2238  1.3801 -2.3637
  122OSM   H15B12811   4.479   6.084   8.411 -0.8302 -0.0624 -1.7992
  122OSM   H15C12812   4.656   6.069   8.397 -1.4883 -0.2411  2.6770
  122OSM    C1412813   4.434   6.272   8.282  0.3303  0.4724 -0.3897
  122OSM   H14A12814   4.383   6.287   8.376 -1.7688  0.4640 -1.4703
  122OSM   H14B12815   4.373   6.205   8.222 -0.6872  2.3912 -1.6080
  122OSM   H14C12816   4.427   6.370   8.239  0.3959  0.2886 -0.8229
  122OSM    C1312817   4.626   6.322   8.408 -0.1001  0.4765  0.0263
  122OSM   H13A12818   4.557   6.326   8.490  0.1256  0.4469  0.2193
  122OSM   H13B12819   4.643   6.423   8.374 -3.1944  0.2572 -2.7118
  122OSM   H13C12820   4.719   6.283   8.448  0.4546  2.2641  0.5389
  122OSM    C1212821   4.669   6.241   8.179  0.4456  0.5425 -0.4715
  122OSM   H12A12822   4.657   6.340   8.139 -1.6094 -0.1972 -1.8274
  122OSM   H12B12823   4.631   6.173   8.105 -0.8288 -0.5968  1.1369
  122OSM    C1112824   4.821   6.199   8.205  0.2632  0.0930 -0.0074
  122OSM   H11A12825   4.881   6.283   8.245 -1.5472  0.8329  1.3113
  122OSM   H11B12826   4.868   6.185   8.105 -0.1817 -1.3337 -0.0324
  122OSM      P12827   4.915   6.058   8.393  0.3076  0.2277 -0.0414
  122OSM    O1312828   4.886   6.166   8.487 -0.6625  0.3716  0.1524
  122OSM    O1412829   4.892   5.919   8.441 -0.5403 -0.4857 -0.4711
  122OSM    O1112830   5.066   6.070   8.341  0.0924  0.3573  0.1550
  122OSM    O1212831   4.830   6.078   8.271  0.4433 -0.2472 -0.1329
  122OSM    C1S12832   5.123   5.972   8.250  0.1208  0.2961  0.2280
  122OSM    H1S12833   5.060   5.883   8.228 -2.8531  2.3557 -0.0408
  122OSM    H1T12834   5.211   5.925   8.299 -0.0811  0.3761  0.6666
  122OSM     NF12835   5.204   5.922   8.022 -0.0524  0.0083  0.1026
  122OSM    HNF12836   5.301   5.909   8.004  0.2363  1.0262  0.8764
  122OSM    C2S12837   5.172   6.033   8.111  0.3538 -0.1322 -0.3125
  122OSM    H2S12838   5.079   6.081   8.075 -1.3243  0.1436  3.7886
  122OSM    C3S12839   5.275   6.148   8.142  0.3442  0.2971 -0.7985
  122OSM    H3S12840   5.361   6.105   8.198 -0.2283 -0.6266 -0.6204
  122OSM     O312841   5.224   6.252   8.227  0.7288 -0.1429 -0.4045
  122OSM    HO312842   5.140   6.217   8.258 -0.9573  1.9178 -2.3488
  122OSM    C4S12843   5.327   6.218   8.018 -0.5528  0.2600  0.0533
  122OSM    H4S12844   5.263   6.202   7.930  2.5232 -0.6419 -2.2127
  122OSM    C5S12845   5.456   6.255   7.994 -1.1799  0.9109  0.2631
  122OSM    H5S12846   5.526   6.263   8.079  0.8577  1.8621 -1.4223
  122OSM    C6S12847   5.515   6.293   7.869  0.5139 -0.2826  0.9154
  122OSM    H6S12848   5.609   6.234   7.884  2.9016  1.7591 -3.9204
  122OSM    H6T12849   5.549   6.398   7.855 -1.3547  0.3087  0.6037
  122OSM    C7S12850   5.442   6.240   7.742  0.2969  0.0693  0.2949
  122OSM    H7S12851   5.346   6.295   7.726  0.3387 -0.2861 -1.2641
  122OSM    H7T12852   5.414   6.135   7.763 -0.2884  0.5762  2.2521
  122OSM    C8S12853   5.527   6.269   7.616  0.8663  0.3529  0.5717
  122OSM    H8S12854   5.535   6.185   7.544 -1.1936  2.1277 -1.8862
  122OSM    H8T12855   5.624   6.305   7.657  0.3799  0.5624  1.5754
  122OSM    C9S12856   5.463   6.380   7.529  0.9147  0.1206 -0.0510
  122OSM    H9S12857   5.439   6.467   7.593  1.3102 -0.6657  1.2029
  122OSM    H9T12858   5.375   6.331   7.482 -0.1535  1.9775 -0.0868
  122OSM   C10S12859   5.548   6.413   7.407 -0.0808  0.4990  0.6204
  122OSM   H10S12860   5.577   6.321   7.351 -2.5926 -0.9164  1.4899
  122OSM   H10T12861   5.637   6.470   7.442  0.2341  1.0391 -0.9568
  122OSM   C11S12862   5.469   6.495   7.303  0.0909  0.5721  1.1561
  122OSM   H11S12863   5.365   6.459   7.290  0.6788 -0.0307 -3.5355
  122OSM   H11T12864   5.514   6.485   7.202  1.2145  0.5052  1.6488
  122OSM   C12S12865   5.455   6.643   7.333  0.1652 -0.3888  0.3453
  122OSM   H12S12866   5.554   6.691   7.343  0.2583 -0.7841  1.5288
  122OSM   H12T12867   5.398   6.660   7.427  1.3241 -0.1857  1.0318
  122OSM   C13S12868   5.385   6.727   7.230 -0.6696 -0.3228 -0.1060
  122OSM   H13S12869   5.377   6.826   7.280 -0.5413  0.3549 -1.3937
  122OSM   H13T12870   5.284   6.685   7.209 -0.8504  0.8517 -1.7791
  122OSM   C14S12871   5.454   6.746   7.094 -0.4688 -0.4079  0.4502
  122OSM   H14S12872   5.564   6.749   7.109 -0.4163 -0.5390  0.1098
  122OSM   H14T12873   5.433   6.850   7.061  1.0274 -0.9562 -2.5883
  122OSM   C15S12874   5.410   6.653   6.975 -0.3758 -0.2522 -0.0687
  122OSM   H15S12875   5.301   6.656   6.958 -0.4110  4.4098 -0.1045
  122OSM   H15T12876   5.433   6.550   7.009  3.6232  0.1778 -0.9462
  122OSM   C16S12877   5.508   6.665   6.860  0.3850  0.3669  0.4400
  122OSM   H16S12878   5.604   6.639   6.909 -0.2333  0.6097  1.8567
  122OSM   H16T12879   5.521   6.767   6.818 -0.8469 -0.4728 -2.1837
  122OSM   C17S12880   5.453   6.579   6.753  0.1640  0.0211  0.3752
  122OSM   H17S12881   5.345   6.593   6.732 -0.3969 -3.2809  0.5160
  122OSM   H17T12882   5.454   6.476   6.795 -0.1060  0.8470  2.5455
  122OSM   C18S12883   5.523   6.581   6.621 -0.1035  0.3443 -0.1067
  122OSM   H18S12884   5.479   6.507   6.551 -0.2770  1.6783 -1.4582
  122OSM   H18T12885   5.634   6.585   6.625  0.0889 -2.1943 -1.2962
  122OSM   H18U12886   5.487   6.672   6.569 -0.7976  0.1818  0.0775
  122OSM    C1F12887   5.115   5.834   7.976  0.6563  0.6040 -0.5599
  122OSM     OF12888   4.993   5.837   7.999  0.8144 -0.2176  0.3335
  122OSM    C2F12889   5.175   5.715   7.894 -0.4321 -0.3899  0.1092
  122OSM    H2F12890   5.218   5.630   7.950  0.2784 -0.6184 -0.7628
  122OSM    H2G12891   5.260   5.755   7.834 -1.2712  0.0525 -0.8231
  122OSM    C3F12892   5.069   5.669   7.789  0.1480  0.2566  0.9226
  122OSM    H3F12893   4.970   5.639   7.829 -2.0909  0.4913 -3.7544
  122OSM    H3G12894   5.112   5.577   7.744 -3.4492 -1.1006 -0.0035
  122OSM    C4F12895   5.044   5.767   7.668  0.5863 -0.3221  0.6299
  122OSM    H4F12896   5.123   5.777   7.590 -0.4396 -3.0227 -0.8872
  122OSM    H4G12897   5.011   5.862   7.715 -0.8767 -0.6584  0.3221
  122OSM    C5F12898   4.929   5.709   7.591 -0.3445 -0.4861 -0.3984
  122OSM    H5F12899   4.838   5.697   7.654  0.4099  0.0454  0.8271
  122OSM    H5G12900   4.957   5.612   7.546  0.4257 -0.0180 -0.9672
  122OSM    C6F12901   4.890   5.794   7.470 -0.1680 -0.1037  0.1594
  122OSM    H6F12902   4.983   5.816   7.414  0.0019  0.5302  0.6910
  122OSM    H6G12903   4.836   5.886   7.499  1.4211  0.6658  0.7865
  122OSM    C7F12904   4.811   5.711   7.365 -0.2255  0.2843  0.8297
  122OSM    H7F12905   4.713   5.686   7.411  0.4577 -2.5962  0.9284
  122OSM    H7G12906   4.862   5.614   7.345 -0.3769  0.7954 -2.5601
  122OSM    C8F12907   4.787   5.777   7.236 -0.7245 -0.4676  0.2284
  122OSM    H8F12908   4.718   5.864   7.243 -1.8431 -0.9577 -3.2140
  122OSM    H8G12909   4.732   5.703   7.175 -0.6285 -0.4747  0.1510
  122OSM    C9F12910   4.908   5.816   7.153 -1.0444  0.1860 -0.0304
  122OSM    H9F12911   4.989   5.864   7.210 -1.5764  0.6959  0.3204
  122OSM   C10F12912   4.920   5.797   7.022 -0.0769  0.3750 -0.5421
  122OSM   H10F12913   5.019   5.822   6.982  0.0195  0.7419 -0.0800
  122OSM   C11F12914   4.823   5.742   6.921 -0.1301 -0.8665  0.3212
  122OSM   H11F12915   4.720   5.778   6.944 -0.3885 -0.5953 -1.1611
  122OSM   H11G12916   4.827   5.632   6.916  0.8844 -0.7871 -1.4028
  122OSM   C12F12917   4.828   5.794   6.779 -0.5242  0.2142  0.2052
  122OSM   H12F12918   4.937   5.796   6.759 -0.4354  1.2701  0.7744
  122OSM   H12G12919   4.798   5.901   6.783  1.1945  0.8234 -1.5935
  122OSM   C13F12920   4.746   5.729   6.665 -0.4416 -0.0462 -0.4069
  122OSM   H13F12921   4.643   5.766   6.682 -0.6931 -0.1554 -1.5838
  122OSM   H13G12922   4.723   5.623   6.689 -1.4910  0.1898 -0.3173
  122OSM   C14F12923   4.788   5.759   6.518  0.0296  0.4657  0.3017
  122OSM   H14F12924   4.892   5.720   6.507 -0.6103 -1.2862  0.2103
  122OSM   H14G12925   4.785   5.870   6.510 -0.5424  0.4087 -0.4361
  122OSM   C15F12926   4.685   5.723   6.408  0.4254 -0.3209 -0.0361
  122OSM   H15F12927   4.717   5.791   6.327 -0.4653  1.1211  0.7810
  122OSM   H15G12928   4.583   5.766   6.423  0.2768  0.5372 -2.9647
  122OSM   C16F12929   4.675   5.577   6.365 -0.4513  0.3084  0.3054
  122OSM   H16F12930   4.646   5.519   6.455  3.3393 -0.1728  1.3829
  122OSM   H16G12931   4.775   5.541   6.333 -0.3449  0.8865 -0.0169
  122OSM   C17F12932   4.571   5.555   6.253 -0.1590  0.5747  0.6773
  122OSM   H17F12933   4.618   5.580   6.155 -2.8648 -2.4499 -1.6401
  122OSM   H17G12934   4.491   5.629   6.269 -1.5449 -0.8255  0.4902
  122OSM   C18F12935   4.504   5.423   6.248 -0.5865  0.6287 -0.8897
  122OSM   H18F12936   4.579   5.342   6.241 -1.6762 -0.5703  0.6499
  122OSM   H18G12937   4.425   5.412   6.171 -1.5408 -0.4272  0.1901
  122OSM   H18H12938   4.446   5.404   6.341  1.3481  0.9619  0.4415
  123OSM      N12939   0.003   6.634   3.803 -0.1574  0.1307  0.2648
  123OSM    C1512940  -0.045   6.493   3.765 -0.0886 -0.0512 -1.2471
  123OSM   H15A12941  -0.082   6.440   3.851 -0.0310 -0.4756 -1.4832
  123OSM   H15B12942   0.027   6.434   3.711 -0.1306 -0.0594 -1.2947
  123OSM   H15C12943  -0.128   6.512   3.698 -0.9908 -0.0755 -0.1703
  123OSM    C1412944   0.115   6.623   3.899  0.4007  0.0366  0.1500
  123OSM   H14A12945   0.081   6.594   3.997 -2.5323  1.3222 -0.3770
  123OSM   H14B12946   0.164   6.717   3.918  1.9073 -0.8107  0.5581
  123OSM   H14C12947   0.195   6.561   3.862  0.7633 -0.5022  1.7704
  123OSM    C1312948   0.043   6.716   3.685 -0.3073 -0.7428 -0.4692
  123OSM   H13A12949   0.121   6.668   3.628 -1.2879 -0.4730 -2.1079
  123OSM   H13B12950   0.070   6.813   3.725  0.6985 -1.9023  1.7853
  123OSM   H13C12951  -0.035   6.741   3.613  1.9118  2.0305 -2.1445
  123OSM    C1212952  -0.109   6.711   3.870 -0.2976  0.1590  0.8098
  123OSM   H12A12953  -0.197   6.649   3.874 -0.5047  0.4785  1.4701
  123OSM   H12B12954  -0.138   6.786   3.798 -2.5504  0.9734  2.4621
  123OSM    C1112955  -0.086   6.772   4.006  0.1330  0.0783 -0.2822
  123OSM   H11A12956  -0.169   6.845   4.013 -0.9167 -0.6902 -3.2394
  123OSM   H11B12957   0.003   6.837   3.988  0.6671 -0.7692 -0.7979
  123OSM      P12958  -0.186   6.567   4.130  0.0952 -0.3821  0.1229
  123OSM    O1312959  -0.321   6.607   4.084 -0.7972 -0.0733  0.0047
  123OSM    O1412960  -0.122   6.445   4.083 -0.1914 -0.2534 -0.5234
  123OSM    O1112961  -0.194   6.559   4.285  0.3481  0.1428 -0.0029
  123OSM    O1212962  -0.084   6.683   4.114 -0.3219  0.4206  0.0568
  123OSM    C1S12963  -0.093   6.601   4.370 -0.3200  0.0272 -0.2682
  123OSM    H1S12964  -0.095   6.712   4.373 -3.5366  0.0543 -0.2226
  123OSM    H1T12965   0.001   6.547   4.342 -1.8653 -2.8288 -0.3076
  123OSM     NF12966  -0.004   6.606   4.595  0.4005  0.4462 -0.1058
  123OSM    HNF12967   0.069   6.548   4.630  0.4507  0.9295  0.6076
  123OSM    C2S12968  -0.113   6.552   4.514  0.5765 -0.7328  0.3872
  123OSM    H2S12969  -0.210   6.593   4.548  0.2348 -0.2056 -1.1812
  123OSM    C3S12970  -0.142   6.393   4.517 -0.0722  0.3259  0.0223
  123OSM    H3S12971  -0.064   6.345   4.453 -1.7784  0.1858 -2.0551
  123OSM     O312972  -0.263   6.371   4.450  0.1524  0.3223  0.5964
  123OSM    HO312973  -0.263   6.436   4.380 -0.6479 -0.4865 -0.1868
  123OSM    C4S12974  -0.139   6.339   4.662 -0.7858  0.0392 -0.5488
  123OSM    H4S12975  -0.039   6.320   4.704 -1.6150  0.8748  2.0159
  123OSM    C5S12976  -0.246   6.311   4.747 -0.2377 -0.9069  0.3335
  123OSM    H5S12977  -0.347   6.341   4.718  0.3626 -0.1924 -1.0994
  123OSM    C6S12978  -0.230   6.263   4.892  0.0586 -0.3709 -0.3026
  123OSM    H6S12979  -0.125   6.240   4.918 -0.3294 -0.2659  1.4782
  123OSM    H6T12980  -0.277   6.164   4.904  0.9797 -0.8495 -0.5591
  123OSM    C7S12981  -0.272   6.366   5.002  0.1381  0.1184 -0.1531
  123OSM    H7S12982  -0.383   6.367   5.008  0.1532 -2.1013  2.0253
  123OSM    H7T12983  -0.244   6.469   4.969  2.1786 -0.5174 -0.5113
  123OSM    C8S12984  -0.226   6.327   5.140  0.5440 -0.2145 -0.0695
  123OSM    H8S12985  -0.118   6.310   5.164  0.2325 -2.7522 -0.1696
  123OSM    H8T12986  -0.271   6.230   5.170 -0.0599  0.1471  0.2222
  123OSM    C9S12987  -0.280   6.424   5.247 -0.1163  0.2459 -0.7652
  123OSM    H9S12988  -0.390   6.439   5.249 -0.1510  0.0167  1.4374
  123OSM    H9T12989  -0.238   6.519   5.207  0.7738 -0.1607 -0.8219
  123OSM   C10S12990  -0.227   6.390   5.388  0.3116  0.0884  0.3433
  123OSM   H10S12991  -0.119   6.415   5.382  0.2683  0.1587 -0.1906
  123OSM   H10T12992  -0.233   6.279   5.400  1.5063 -0.1032 -0.7130
  123OSM   C11S12993  -0.308   6.468   5.493 -1.3401 -0.5660  0.1439
  123OSM   H11S12994  -0.406   6.419   5.512 -0.5643 -2.0039  0.5757
  123OSM   H11T12995  -0.332   6.572   5.465  0.3761  0.5711  2.5293
  123OSM   C12S12996  -0.237   6.476   5.633 -0.3028 -1.2775 -0.0208
  123OSM   H12S12997  -0.150   6.544   5.622  0.1555 -1.7002  0.9427
  123OSM   H12T12998  -0.189   6.376   5.644  2.5590 -0.1658 -1.4212
  123OSM   C13S12999  -0.318   6.536   5.752 -0.6954 -0.7293 -0.3532
  123OSM   H13S13000  -0.411   6.477   5.766 -0.9669  0.1380  1.8583
  123OSM   H13T13001  -0.340   6.639   5.716  1.1786  0.6509  2.1430
  123OSM   C14S13002  -0.243   6.522   5.889 -0.3098 -0.1094 -0.3157
  123OSM   H14S13003  -0.137   6.554   5.873 -0.5095  0.6455 -0.1283
  123OSM   H14T13004  -0.238   6.414   5.915 -1.6067 -0.5707 -1.8357
  123OSM   C15S13005  -0.294   6.600   6.014  0.0211  0.6425 -0.4407
  123OSM   H15S13006  -0.296   6.707   5.985 -1.0490  1.3830  2.1157
  123OSM   H15T13007  -0.222   6.595   6.099  0.0306  1.9039 -0.3607
  123OSM   C16S13008  -0.437   6.566   6.070 -0.0650  0.3246  0.3354
  123OSM   H16S13009  -0.435   6.458   6.097  0.5545 -0.0908 -1.2697
  123OSM   H16T13010  -0.501   6.579   5.980  0.8418  0.8736 -0.2486
  123OSM   C17S13011  -0.484   6.661   6.183  0.6289  0.6866  0.5324
  123OSM   H17S13012  -0.588   6.694   6.160  0.1800 -1.0936 -0.1125
  123OSM   H17T13013  -0.424   6.755   6.173 -1.2719  2.0129  1.0416
  123OSM   C18S13014  -0.469   6.603   6.322 -0.1700 -0.3531 -0.3146
  123OSM   H18S13015  -0.467   6.677   6.405 -2.0052 -1.3386  0.6712
  123OSM   H18T13016  -0.373   6.546   6.325 -0.5919 -1.0640  0.0987
  123OSM   H18U13017  -0.546   6.534   6.365  1.0094 -1.3705  0.2319
  123OSM    C1F13018   0.007   6.729   4.631 -0.0875 -0.0533  0.0855
  123OSM     OF13019  -0.074   6.809   4.588  0.0591  0.2187  0.2332
  123OSM    C2F13020   0.130   6.769   4.703  0.1653 -0.1921 -0.1685
  123OSM    H2F13021   0.205   6.795   4.625 -0.5000  1.5803 -0.2725
  123OSM    H2G13022   0.155   6.677   4.760 -2.5116  0.1417  1.6937
  123OSM    C3F13023   0.121   6.894   4.800 -0.1825 -0.1671  0.7577
  123OSM    H3F13024   0.090   6.992   4.758 -4.8315 -0.4388  3.0208
  123OSM    H3G13025   0.221   6.914   4.844  0.7425 -2.7447  0.0098
  123OSM    C4F13026   0.025   6.865   4.919  0.5989 -0.0117  0.3640
  123OSM    H4F13027   0.063   6.778   4.977 -2.9583 -0.4422  2.2978
  123OSM    H4G13028  -0.075   6.847   4.876  0.1773  2.1918  0.3268
  123OSM    C5F13029  -0.002   6.978   5.023  0.1118  0.1813  0.1283
  123OSM    H5F13030  -0.069   6.939   5.102  0.0154  0.3764  0.1444
  123OSM    H5G13031  -0.059   7.059   4.972  0.6341  0.7352  0.4092
  123OSM    C6F13032   0.126   7.031   5.099 -0.9106  0.8063 -0.4044
  123OSM    H6F13033   0.186   7.084   5.022 -0.2720  0.6552 -0.0241
  123OSM    H6G13034   0.184   6.940   5.125 -0.0713  1.1073 -1.1932
  123OSM    C7F13035   0.092   7.125   5.215  0.3355 -0.2615  0.6164
  123OSM    H7F13036   0.026   7.206   5.178  0.1527 -1.1758 -1.1984
  123OSM    H7G13037   0.183   7.176   5.254 -0.9384  1.5292  1.3647
  123OSM    C8F13038   0.012   7.064   5.339  0.1211  0.3529 -0.8950
  123OSM    H8F13039   0.097   7.014   5.391  1.0927  1.8458 -0.9923
  123OSM    H8G13040  -0.064   6.986   5.316 -0.6835  0.6985  0.4420
  123OSM    C9F13041  -0.027   7.176   5.433  0.5277 -0.2212  0.6185
  123OSM    H9F13042  -0.053   7.276   5.396 -2.6139 -0.0436  2.9079
  123OSM   C10F13043  -0.032   7.160   5.565  0.6574 -0.0717  1.0066
  123OSM   H10F13044  -0.057   7.249   5.625 -0.7501 -0.1829  0.6052
  123OSM   C11F13045   0.010   7.041   5.645  0.1021 -0.5742  0.4919
  123OSM   H11F13046   0.080   7.080   5.722 -0.0357 -0.6347  0.6476
  123OSM   H11G13047   0.064   6.969   5.580  0.7801  1.4861 -1.3500
  123OSM   C12F13048  -0.096   6.956   5.713  0.4757  0.4183 -0.7041
  123OSM   H12F13049  -0.045   6.869   5.760 -1.0313  1.1230  2.4899
  123OSM   H12G13050  -0.158   6.918   5.629 -1.8695  1.9380  0.2317
  123OSM   C13F13051  -0.172   7.014   5.828  0.3954  0.0377 -0.3416
  123OSM   H13F13052  -0.266   6.956   5.843  1.2198 -0.9680  1.1784
  123OSM   H13G13053  -0.197   7.120   5.807  1.2861  0.3011 -0.0996
  123OSM   C14F13054  -0.092   7.009   5.956 -0.4112  0.1924 -0.2218
  123OSM   H14F13055  -0.012   7.083   5.933 -2.6296  2.3569 -1.4505
  123OSM   H14G13056  -0.039   6.912   5.968 -2.2202 -0.9134 -0.8263
  123OSM   C15F13057  -0.178   7.037   6.079 -0.3533 -0.0171 -0.0542
  123OSM   H15F13058  -0.283   7.019   6.049  0.3838 -1.2061 -2.1965
  123OSM   H15G13059  -0.179   7.147   6.089 -1.2211 -0.0378  0.1388
  123OSM   C16F13060  -0.147   6.946   6.197 -0.0618  0.2649 -0.5111
  123OSM   H16F13061  -0.039   6.919   6.195 -0.0760  0.2475 -1.0168
  123OSM   H16G13062  -0.197   6.849   6.177  0.6925 -0.1645 -0.3683
  123OSM   C17F13063  -0.184   6.989   6.337  0.3675 -0.2561 -0.3877
  123OSM   H17F13064  -0.148   7.093   6.353 -0.3347  0.2210 -1.7388
  123OSM   H17G13065  -0.119   6.932   6.407  0.2088 -0.2220 -0.2116
  123OSM   C18F13066  -0.330   6.977   6.384  0.4139  0.2125  0.0066
  123OSM   H18F13067  -0.354   6.869   6.376  0.0395  0.0665  2.3906
  123OSM   H18G13068  -0.402   7.029   6.317 -0.0760 -2.3829 -1.5827
  123OSM   H18H13069  -0.348   7.014   6.488 -2.2088  0.5917 -0.5240
  124OSM      N13070   3.497   3.407   3.993  0.0240 -1.0176  0.0051
  124OSM    C1513071   3.489   3.446   3.853 -0.2564 -0.2425 -0.3248
  124OSM   H15A13072   3.435   3.539   3.843 -2.4614 -1.2127  1.6495
  124OSM   H15B13073   3.440   3.362   3.806 -0.0144 -1.3287  1.2731
  124OSM   H15C13074   3.588   3.455   3.810  0.2983  0.0056  0.9639
  124OSM    C1413075   3.553   3.519   4.071 -0.3431  0.4276 -0.6541
  124OSM   H14A13076   3.512   3.614   4.039  1.6976  1.2268 -1.1216
  124OSM   H14B13077   3.661   3.523   4.065 -0.3014 -1.0309 -1.0808
  124OSM   H14C13078   3.540   3.516   4.178  1.9107 -0.3338 -0.3385
  124OSM    C1313079   3.346   3.388   4.029 -0.3965  0.8160  0.2920
  124OSM   H13A13080   3.303   3.318   3.959 -0.2733  0.8398  0.1929
  124OSM   H13B13081   3.286   3.478   4.029 -0.1032  1.0839 -2.2414
  124OSM   H13C13082   3.335   3.334   4.121  0.9981  0.7506  0.4435
  124OSM    C1213083   3.578   3.275   4.012  0.2238  0.7456  0.1022
  124OSM   H12A13084   3.683   3.282   3.988  0.1685 -1.5956 -1.1018
  124OSM   H12B13085   3.539   3.201   3.944 -1.0313 -0.7390  2.3176
  124OSM    C1113086   3.572   3.210   4.152  0.2201  0.1489  0.5113
  124OSM   H11A13087   3.599   3.284   4.230 -2.0208  0.7882  0.7623
  124OSM   H11B13088   3.651   3.132   4.151 -0.0693 -0.1487 -0.7338
  124OSM      P13089   3.402   3.013   4.113  0.1099 -0.2373  0.5968
  124OSM    O1313090   3.254   3.005   4.117  0.0035  0.2395 -0.1601
  124OSM    O1413091   3.461   3.007   3.977  0.5707  0.4037  0.2968
  124OSM    O1113092   3.460   2.899   4.202  0.1982 -0.1262  0.2648
  124OSM    O1213093   3.446   3.143   4.181 -0.9285 -0.5088 -0.6605
  124OSM    C1S13094   3.476   2.901   4.349 -0.3040 -0.3717  0.3650
  124OSM    H1S13095   3.530   2.992   4.385 -1.3532  0.4628 -0.1116
  124OSM    H1T13096   3.556   2.826   4.369  0.7078  0.2450 -1.1737
  124OSM     NF13097   3.361   2.879   4.573  0.3459  0.0827  0.6163
  124OSM    HNF13098   3.384   2.806   4.637  1.5351  2.6036  3.3183
  124OSM    C2S13099   3.351   2.857   4.430 -0.0657  0.2904  0.0519
  124OSM    H2S13100   3.264   2.918   4.397 -1.2172 -0.9695  0.6933
  124OSM    C3S13101   3.308   2.714   4.393 -0.0963 -0.0256  0.4550
  124OSM    H3S13102   3.395   2.646   4.397  0.8783  1.2410  2.4539
  124OSM     O313103   3.270   2.684   4.255  0.0674 -0.3101  0.4233
  124OSM    HO313104   3.306   2.763   4.213  1.6884 -0.8044  0.7983
  124OSM    C4S13105   3.194   2.666   4.486  0.4300  0.6042  0.4399
  124OSM    H4S13106   3.222   2.587   4.557  1.5580  0.8240  0.2582
  124OSM    C5S13107   3.071   2.704   4.481  1.0368 -0.1375 -0.0443
  124OSM    H5S13108   3.046   2.774   4.400  1.8379  1.2625  0.8640
  124OSM    C6S13109   2.954   2.658   4.576  0.3623 -0.8876  0.4826
  124OSM    H6S13110   2.891   2.609   4.498  0.5380 -2.5865  1.3667
  124OSM    H6T13111   2.891   2.743   4.610  0.0528 -1.7292  2.0969
  124OSM    C7S13112   2.976   2.565   4.695 -0.2145 -0.7874  0.3281
  124OSM    H7S13113   3.059   2.607   4.756 -0.7688 -0.4627  0.8627
  124OSM    H7T13114   3.023   2.468   4.667  1.4177  0.0540 -0.0194
  124OSM    C8S13115   2.854   2.547   4.781  0.7763  0.2691 -0.1424
  124OSM    H8S13116   2.800   2.468   4.725  0.9963 -0.8498  1.1755
  124OSM    H8T13117   2.795   2.641   4.787 -0.0183 -0.3026  2.5427
  124OSM    C9S13118   2.891   2.493   4.918 -0.5427 -0.0426 -0.5885
  124OSM    H9S13119   2.908   2.575   4.991  1.6125 -1.0702  0.1692
  124OSM    H9T13120   2.989   2.440   4.912  0.4837  1.6304  0.6104
  124OSM   C10S13121   2.791   2.382   4.966 -0.0882 -0.2542  0.4642
  124OSM   H10S13122   2.810   2.289   4.907 -0.8062 -0.6465  0.8388
  124OSM   H10T13123   2.688   2.421   4.949 -0.7116 -1.1996  1.9161
  124OSM   C11S13124   2.787   2.347   5.119 -0.5031 -0.2073  0.2302
  124OSM   H11S13125   2.739   2.422   5.185  2.3542  0.0347  2.2144
  124OSM   H11T13126   2.895   2.336   5.144 -0.2618  2.4360  0.6241
  124OSM   C12S13127   2.713   2.211   5.149 -0.0977  0.4562  0.2489
  124OSM   H12S13128   2.776   2.139   5.091  0.9809  0.5427  1.2757
  124OSM   H12T13129   2.620   2.207   5.089 -0.4400 -0.3454  0.8158
  124OSM   C13S13130   2.687   2.191   5.293 -0.0763  0.3504  0.2914
  124OSM   H13S13131   2.603   2.122   5.314  0.4594  0.2047  2.0758
  124OSM   H13T13132   2.655   2.286   5.342  1.9719  1.5108 -0.4761
  124OSM   C14S13133   2.812   2.148   5.370 -0.5722  0.1581  0.5503
  124OSM   H14S13134   2.897   2.215   5.344  0.7575 -1.4382  0.6043
  124OSM   H14T13135   2.854   2.051   5.337 -1.0826  0.4348 -1.0076
  124OSM   C15S13136   2.793   2.138   5.525 -0.1990  0.5729 -0.2926
  124OSM   H15S13137   2.703   2.076   5.545  0.4716 -0.3113  0.0601
  124OSM   H15T13138   2.768   2.238   5.566  0.7583  0.4089  0.7197
  124OSM   C16S13139   2.920   2.091   5.603  0.1510 -0.2148  0.2073
  124OSM   H16S13140   3.011   2.140   5.562  0.3222 -1.4118 -0.9267
  124OSM   H16T13141   2.953   1.986   5.584 -0.2448 -0.5489  1.3227
  124OSM   C17S13142   2.910   2.124   5.752  0.4537 -0.9936  0.1311
  124OSM   H17S13143   2.807   2.103   5.787  0.5031  2.0831  2.5421
  124OSM   H17T13144   2.916   2.235   5.758  0.2020 -0.9601 -0.1947
  124OSM   C18S13145   3.017   2.055   5.837 -0.3903 -0.3088 -0.2401
  124OSM   H18S13146   2.991   1.946   5.839 -0.4359 -0.3017 -0.3799
  124OSM   H18T13147   3.022   2.105   5.936  1.1782  1.6435 -1.2335
  124OSM   H18U13148   3.116   2.053   5.786  0.3347  2.3607  0.9199
  124OSM    C1F13149   3.357   2.999   4.627  0.7074 -0.5336 -0.4559
  124OSM     OF13150   3.294   3.090   4.565 -0.3781  0.5301 -0.5834
  124OSM    C2F13151   3.438   3.019   4.750 -0.3029 -0.1708  0.9174
  124OSM    H2F13152   3.540   3.034   4.709 -1.1893  0.9707 -1.0055
  124OSM    H2G13153   3.443   2.937   4.825  2.7904  1.6877  2.9969
  124OSM    C3F13154   3.394   3.146   4.820  0.7126  0.4156  0.0024
  124OSM    H3F13155   3.418   3.236   4.759 -1.3015  1.4353  0.6319
  124OSM    H3G13156   3.457   3.159   4.910  1.9182  0.1137 -0.7631
  124OSM    C4F13157   3.253   3.148   4.875 -0.6151 -0.2053  0.4539
  124OSM    H4F13158   3.254   3.077   4.960  1.5905 -3.8417 -2.3016
  124OSM    H4G13159   3.179   3.114   4.800  1.1642 -1.5697 -0.7827
  124OSM    C5F13160   3.208   3.284   4.929  0.2708 -0.0038  0.1033
  124OSM    H5F13161   3.299   3.325   4.979  0.4130 -1.2450  0.9105
  124OSM    H5G13162   3.135   3.264   5.011  1.1231 -2.2235  0.3898
  124OSM    C6F13163   3.146   3.394   4.842 -0.6008  0.0817 -0.3699
  124OSM    H6F13164   3.075   3.370   4.760 -0.6761  1.3245 -0.6836
  124OSM    H6G13165   3.234   3.438   4.791  1.2291 -2.1571  0.6785
  124OSM    C7F13166   3.086   3.507   4.926  0.1486  0.0009 -0.0343
  124OSM    H7F13167   3.062   3.593   4.860  2.2499  1.3578  0.8731
  124OSM    H7G13168   3.170   3.538   4.991  1.1138  0.0180 -1.2508
  124OSM    C8F13169   2.961   3.471   5.007  0.0309 -0.2589  0.2741
  124OSM    H8F13170   2.969   3.375   5.063  2.0896 -1.3131 -1.6705
  124OSM    H8G13171   2.871   3.452   4.944 -0.1204  0.4624  0.2681
  124OSM    C9F13172   2.924   3.590   5.088 -0.0161 -0.4740  0.5500
  124OSM    H9F13173   2.971   3.684   5.056 -1.2115  0.2386  0.8211
  124OSM   C10F13174   2.881   3.602   5.213  0.5651 -0.7041  0.4767
  124OSM   H10F13175   2.851   3.704   5.240  0.0958 -0.1636 -1.8742
  124OSM   C11F13176   2.812   3.492   5.294  0.2679 -0.0721 -0.4407
  124OSM   H11F13177   2.758   3.420   5.229  1.8595 -3.2011  1.4680
  124OSM   H11G13178   2.731   3.534   5.358 -0.3078 -0.8195 -0.6634
  124OSM   C12F13179   2.894   3.419   5.398 -0.6388 -0.5899  0.2243
  124OSM   H12F13180   2.937   3.490   5.471 -1.1263  0.0132 -0.0703
  124OSM   H12G13181   2.979   3.362   5.354  0.5664  0.5585  1.0082
  124OSM   C13F13182   2.812   3.333   5.491  0.1675 -0.6757 -0.0373
  124OSM   H13F13183   2.770   3.245   5.437  2.5698 -2.4777  0.7848
  124OSM   H13G13184   2.717   3.376   5.528  0.5694 -0.4311  0.7446
  124OSM   C14F13185   2.889   3.279   5.612  0.0644 -0.6159  0.2330
  124OSM   H14F13186   2.909   3.365   5.680 -0.6251 -0.9307  0.8533
  124OSM   H14G13187   2.987   3.235   5.585  0.7730 -0.6074  2.5675
  124OSM   C15F13188   2.818   3.173   5.691 -0.2846  0.3220 -0.0719
  124OSM   H15F13189   2.782   3.080   5.640 -1.4665 -0.3519  1.8554
  124OSM   H15G13190   2.728   3.213   5.742 -0.1430 -3.0283  3.2630
  124OSM   C16F13191   2.909   3.120   5.804 -0.2765 -0.2294  0.4353
  124OSM   H16F13192   2.932   3.194   5.884 -2.0048 -0.8918  1.6032
  124OSM   H16G13193   3.002   3.082   5.757 -0.8902 -3.5626  1.6576
  124OSM   C17F13194   2.837   3.005   5.886 -0.4404 -0.0280  0.6404
  124OSM   H17F13195   2.866   2.904   5.851  1.0888 -0.2949  2.4944
  124OSM   H17G13196   2.735   3.024   5.845  0.6875  1.6311 -1.6433
  124OSM   C18F13197   2.848   3.001   6.036 -0.7102 -0.4272 -0.5349
  124OSM   H18F13198   2.824   2.897   6.065 -4.7494 -0.0638 -1.9225
  124OSM   H18G13199   2.775   3.060   6.096 -0.0703 -1.5800  1.4965
  124OSM   H18H13200   2.947   3.030   6.078 -0.6444  0.1289 -1.0690
  125OSM      N13201   4.972   5.670   3.744 -0.2743 -0.1578  1.0461
  125OSM    C1513202   4.956   5.807   3.693 -0.4908  0.8852 -0.4159
  125OSM   H15A13203   4.930   5.876   3.772 -1.9754 -0.9726  0.7940
  125OSM   H15B13204   4.899   5.812   3.602  1.5138 -0.4438 -1.8572
  125OSM   H15C13205   5.049   5.843   3.650 -1.2948 -1.2383 -4.4833
  125OSM    C1413206   5.115   5.632   3.760  0.5327 -0.1948  0.1891
  125OSM   H14A13207   5.160   5.691   3.838 -0.3406  1.2414 -0.3548
  125OSM   H14B13208   5.167   5.651   3.668  1.9858 -0.3409  0.9548
  125OSM   H14C13209   5.131   5.530   3.791  1.3538 -0.2298 -0.3356
  125OSM    C1313210   4.915   5.673   3.882  0.1549  0.3081 -0.2106
  125OSM   H13A13211   4.930   5.582   3.939 -2.9013  1.4650  2.7987
  125OSM   H13B13212   4.809   5.693   3.880 -0.0478 -0.3801  1.5575
  125OSM   H13C13213   4.957   5.757   3.936  0.5316  0.2622 -0.4248
  125OSM    C1213214   4.888   5.571   3.662 -0.3805  0.5177  0.3453
  125OSM   H12A13215   4.929   5.576   3.563 -0.2585 -1.9098  0.2143
  125OSM   H12B13216   4.788   5.612   3.659 -1.0606 -1.0398  0.9335
  125OSM    C1113217   4.883   5.432   3.715  0.4813  0.0360  0.3524
  125OSM   H11A13218   4.823   5.384   3.634  1.5248  0.7279 -0.8733
  125OSM   H11B13219   4.831   5.419   3.812 -0.7797  0.2952 -0.2643
  125OSM      P13220   5.060   5.224   3.754 -0.2030  0.0038 -0.3134
  125OSM    O1313221   4.967   5.120   3.709 -0.1598 -0.3389 -0.3572
  125OSM    O1413222   5.201   5.209   3.711  0.3551 -0.3865  0.0157
  125OSM    O1113223   5.058   5.222   3.909  0.1960  0.3222  0.1870
  125OSM    O1213224   5.008   5.365   3.718 -0.0876  0.0397  1.1723
  125OSM    C1S13225   5.073   5.340   3.992  0.2007  0.3033 -0.1417
  125OSM    H1S13226   5.003   5.419   3.958  0.6629  1.1628  0.8545
  125OSM    H1T13227   5.180   5.368   3.997  0.8328 -2.0500  1.4115
  125OSM     NF13228   5.029   5.420   4.219 -0.1770  0.4050 -0.0632
  125OSM    HNF13229   5.109   5.434   4.277  1.6634  0.1196 -2.3877
  125OSM    C2S13230   5.043   5.303   4.136  0.7247  0.1113 -0.2232
  125OSM    H2S13231   4.951   5.241   4.139  0.5875  0.3421  0.8290
  125OSM    C3S13232   5.140   5.196   4.192  0.4392 -0.6923 -0.6882
  125OSM    H3S13233   5.236   5.250   4.206 -0.1261 -0.2497  2.1651
  125OSM     O313234   5.167   5.089   4.103 -0.1937  0.3492  0.2692
  125OSM    HO313235   5.129   5.118   4.020  0.8120 -0.6501 -0.5814
  125OSM    C4S13236   5.097   5.143   4.324  0.1227  0.3528  0.1025
  125OSM    H4S13237   5.129   5.197   4.414  0.8538 -0.9578  0.6727
  125OSM    C5S13238   5.016   5.043   4.364 -0.8908 -0.2746  0.4903
  125OSM    H5S13239   4.954   4.995   4.288 -1.4407 -1.1452  1.4703
  125OSM    C6S13240   4.976   5.002   4.503  0.1756  0.0427  0.4353
  125OSM    H6S13241   4.936   4.898   4.502  0.3923 -0.0497  1.0010
  125OSM    H6T13242   4.884   5.061   4.516  0.6025  1.1617 -1.2643
  125OSM    C7S13243   5.081   5.027   4.617  0.1289 -0.2571 -0.1653
  125OSM    H7S13244   5.083   5.138   4.621  2.8036 -0.2216 -0.8243
  125OSM    H7T13245   5.182   4.992   4.587 -0.0625 -0.1471 -0.9597
  125OSM    C8S13246   5.040   4.966   4.754 -0.4116 -0.1964  0.5388
  125OSM    H8S13247   5.038   4.855   4.751 -1.4937 -0.1834  0.3979
  125OSM    H8T13248   4.934   4.993   4.771 -1.2221 -0.7357 -2.9043
  125OSM    C9S13249   5.122   5.023   4.874  0.2576  0.6859 -0.0389
  125OSM    H9S13250   5.105   5.133   4.867  0.4846  0.7600  0.5580
  125OSM    H9T13251   5.228   4.998   4.849 -0.6415 -0.1295 -3.6513
  125OSM   C10S13252   5.083   4.969   5.014 -0.8138  0.1628 -0.2740
  125OSM   H10S13253   5.100   4.859   5.018 -0.7735  0.1484  4.0639
  125OSM   H10T13254   4.975   4.990   5.032 -0.5685 -1.1372  3.6326
  125OSM   C11S13255   5.154   5.035   5.132 -0.2936  0.0855 -0.7760
  125OSM   H11S13256   5.129   5.143   5.146 -2.1234  0.0003 -2.8279
  125OSM   H11T13257   5.265   5.031   5.122 -0.1977 -1.5191  0.5584
  125OSM   C12S13258   5.115   4.965   5.265 -0.1994 -0.1682 -0.2901
  125OSM   H12S13259   5.126   4.855   5.260  1.7327 -0.0341  0.2019
  125OSM   H12T13260   5.006   4.981   5.278  0.0255  0.5621  0.8019
  125OSM   C13S13261   5.184   5.021   5.391  0.3787  0.2155 -0.3249
  125OSM   H13S13262   5.192   5.132   5.389  0.3782  0.5224  4.7826
  125OSM   H13T13263   5.288   4.983   5.404  0.1548  0.2483  1.8246
  125OSM   C14S13264   5.106   4.997   5.525  0.1456  0.2481  0.3672
  125OSM   H14S13265   5.064   4.895   5.530 -0.2217  0.4522  2.1154
  125OSM   H14T13266   5.023   5.071   5.522  1.4483  1.8275  1.4400
  125OSM   C15S13267   5.185   5.028   5.648 -0.5598 -0.4388 -0.5581
  125OSM   H15S13268   5.246   5.120   5.638  1.0489 -1.1847  1.4616
  125OSM   H15T13269   5.261   4.948   5.662 -0.3524 -0.0108  0.8871
  125OSM   C16S13270   5.097   5.032   5.775  0.0441 -0.3134  0.0168
  125OSM   H16S13271   5.029   4.945   5.779  1.2257 -1.2199  1.1052
  125OSM   H16T13272   5.031   5.122   5.775  0.2469 -0.1604 -0.2042
  125OSM   C17S13273   5.187   5.045   5.902  0.5421  0.2664  0.4704
  125OSM   H17S13274   5.125   5.077   5.988 -0.9789  2.5465 -1.3403
  125OSM   H17T13275   5.256   5.131   5.885  1.2839  0.1011  2.4371
  125OSM   C18S13276   5.258   4.913   5.948  0.1873 -0.4085 -0.3910
  125OSM   H18S13277   5.339   4.885   5.877  1.3486  0.3022  0.6169
  125OSM   H18T13278   5.185   4.830   5.956  1.2631 -1.1924  2.4183
  125OSM   H18U13279   5.309   4.922   6.046  0.5730 -1.1361 -0.5162
  125OSM    C1F13280   4.936   5.515   4.207 -0.5754  0.1914 -1.4223
  125OSM     OF13281   4.851   5.506   4.129 -0.1447 -0.0605  0.2518
  125OSM    C2F13282   4.948   5.643   4.291 -0.0751  0.0702  0.3100
  125OSM    H2F13283   5.057   5.663   4.287  0.3359 -1.8459 -4.2843
  125OSM    H2G13284   4.905   5.618   4.390 -0.7983  0.4619  0.1037
  125OSM    C3F13285   4.856   5.755   4.229 -0.3817 -0.6954 -0.0475
  125OSM    H3F13286   4.753   5.714   4.216 -0.8093  0.8127 -1.8449
  125OSM    H3G13287   4.893   5.774   4.126 -0.3301  1.3809  0.2987
  125OSM    C4F13288   4.857   5.880   4.317  0.3418 -0.8519 -0.2052
  125OSM    H4F13289   4.867   5.976   4.260 -0.7437 -1.7666 -2.0499
  125OSM    H4G13290   4.941   5.873   4.389 -2.1683  1.9617  3.4005
  125OSM    C5F13291   4.732   5.906   4.406  0.0659  0.4889  0.6950
  125OSM    H5F13292   4.635   5.891   4.353 -0.0581  0.9141  0.7973
  125OSM    H5G13293   4.732   6.013   4.434  1.8249  1.1242 -1.4993
  125OSM    C6F13294   4.717   5.825   4.539  0.2194  0.0974  0.3864
  125OSM    H6F13295   4.817   5.798   4.578  0.7689  0.4177 -0.7412
  125OSM    H6G13296   4.667   5.731   4.506  0.8931 -0.4758  0.9846
  125OSM    C7F13297   4.620   5.891   4.641 -0.1154 -0.8112 -0.2827
  125OSM    H7F13298   4.517   5.863   4.611 -0.6972  0.4440  0.4908
  125OSM    H7G13299   4.634   6.001   4.649 -3.0639 -0.4718  1.6486
  125OSM    C8F13300   4.646   5.854   4.788 -1.0449  0.6454  0.5820
  125OSM    H8F13301   4.577   5.915   4.850  0.3395 -0.0993  2.9738
  125OSM    H8G13302   4.750   5.879   4.819 -0.3569 -1.9255  0.5573
  125OSM    C9F13303   4.616   5.704   4.820  0.6840 -0.8089  0.3126
  125OSM    H9F13304   4.592   5.639   4.734  0.8268 -0.2290 -0.1736
  125OSM   C10F13305   4.608   5.662   4.946  0.5355 -0.4716 -0.2671
  125OSM   H10F13306   4.564   5.562   4.958  0.4210 -0.3109  0.7010
  125OSM   C11F13307   4.640   5.741   5.069  0.5242 -0.6939 -0.1804
  125OSM   H11F13308   4.685   5.842   5.053  1.7121 -1.1372  0.2827
  125OSM   H11G13309   4.712   5.685   5.132 -1.6675 -2.9780  0.4411
  125OSM   C12F13310   4.511   5.769   5.142 -0.3129 -0.7399  0.9890
  125OSM   H12F13311   4.432   5.805   5.073  2.3686  0.5964 -1.6252
  125OSM   H12G13312   4.535   5.857   5.205 -0.0002 -0.1305  0.0373
  125OSM   C13F13313   4.467   5.657   5.227  0.0435 -0.9223 -0.2682
  125OSM   H13F13314   4.480   5.556   5.182 -2.5517 -0.8871 -1.2636
  125OSM   H13G13315   4.357   5.655   5.246  0.0999 -1.2476  0.0258
  125OSM   C14F13316   4.526   5.658   5.371 -1.0493  0.3787 -1.3237
  125OSM   H14F13317   4.534   5.759   5.416 -1.0170 -1.2046  2.6173
  125OSM   H14G13318   4.628   5.616   5.358 -1.4024 -0.8658 -0.2453
  125OSM   C15F13319   4.454   5.577   5.470  0.5968  0.8345 -0.4580
  125OSM   H15F13320   4.453   5.474   5.430  0.0901  0.4847  0.4243
  125OSM   H15G13321   4.346   5.602   5.481  0.4818 -0.2646  1.2564
  125OSM   C16F13322   4.505   5.579   5.615 -0.0401 -0.1410  0.2583
  125OSM   H16F13323   4.523   5.683   5.649 -0.7595  0.0015  0.1985
  125OSM   H16G13324   4.606   5.533   5.610 -0.1769 -0.4534  0.3548
  125OSM   C17F13325   4.415   5.512   5.718  0.7462  0.0303 -1.2581
  125OSM   H17F13326   4.416   5.404   5.692  0.7513 -0.7455  1.6531
  125OSM   H17G13327   4.316   5.554   5.692  0.3842 -0.1340 -0.1738
  125OSM   C18F13328   4.439   5.537   5.874 -0.0683 -0.4663  0.3222
  125OSM   H18F13329   4.532   5.598   5.881 -0.4130  0.2126 -0.8815
  125OSM   H18G13330   4.454   5.442   5.931 -2.8590 -1.4592 -0.4552
  125OSM   H18H13331   4.359   5.601   5.916  0.5166 -0.0592  0.8548
  126OSM      N13332   3.380   0.922   4.022  0.3668  0.0436  0.0562
  126OSM    C1513333   3.345   1.058   3.959  0.3079  0.0299  0.8693
  126OSM   H15A13334   3.408   1.128   4.012  1.4484 -1.2085  1.2079
  126OSM   H15B13335   3.244   1.092   3.970  0.3708  0.7245 -0.4615
  126OSM   H15C13336   3.368   1.065   3.854  3.3808  1.7092  1.5344
  126OSM    C1413337   3.517   0.869   3.995 -0.2567  0.2788  0.1281
  126OSM   H14A13338   3.549   0.873   3.892 -0.4912 -3.2750 -0.2175
  126OSM   H14B13339   3.523   0.766   4.027 -0.2836  0.6872  1.4771
  126OSM   H14C13340   3.591   0.920   4.055  2.8268 -2.0200 -1.3735
  126OSM    C1313341   3.368   0.942   4.172  0.0263 -0.2729 -0.1789
  126OSM   H13A13342   3.373   0.860   4.242 -0.5554  0.6634  0.9995
  126OSM   H13B13343   3.264   0.964   4.191 -0.2482 -1.1390 -0.6087
  126OSM   H13C13344   3.427   1.028   4.200  0.3934  0.7911 -3.7632
  126OSM    C1213345   3.284   0.822   3.959  0.2748  0.6444 -0.1308
  126OSM   H12A13346   3.301   0.818   3.853 -1.5817 -1.8439 -0.4248
  126OSM   H12B13347   3.182   0.850   3.982 -0.1493 -1.5669  0.9149
  126OSM    C1113348   3.273   0.676   4.020  0.4589 -0.2463 -0.1768
  126OSM   H11A13349   3.287   0.676   4.131  0.0947  1.8183 -0.1042
  126OSM   H11B13350   3.358   0.618   3.978  0.0501  1.0170 -2.9635
  126OSM      P13351   3.017   0.661   4.052  0.2010  0.2364  0.3607
  126OSM    O1313352   2.997   0.807   4.034 -0.5175  0.2075  0.2556
  126OSM    O1413353   2.901   0.578   4.007  0.1408 -0.1411 -1.0576
  126OSM    O1113354   3.033   0.643   4.209  0.2562  0.5727 -0.6189
  126OSM    O1213355   3.152   0.614   3.981  0.2920 -0.4035 -0.4069
  126OSM    C1S13356   3.065   0.515   4.261 -0.4026 -0.2055 -0.5764
  126OSM    H1S13357   3.168   0.489   4.230 -1.1658 -3.0496 -0.9779
  126OSM    H1T13358   2.993   0.438   4.226  0.4199 -1.9589  1.4130
  126OSM     NF13359   3.056   0.370   4.460  0.5985 -0.0868 -0.3852
  126OSM    HNF13360   2.970   0.322   4.444  0.1216  0.3319  0.7976
  126OSM    C2S13361   3.045   0.507   4.423  0.6156  0.2229  0.3455
  126OSM    H2S13362   3.121   0.572   4.473  1.5491 -0.4975 -0.1027
  126OSM    C3S13363   2.906   0.563   4.463 -0.2099 -0.4356  0.4802
  126OSM    H3S13364   2.829   0.515   4.399 -1.5542  1.2237  0.7631
  126OSM     O313365   2.914   0.706   4.440  0.0877  0.3286  0.0677
  126OSM    HO313366   2.951   0.711   4.351  0.0644 -0.0484  0.0336
  126OSM    C4S13367   2.880   0.536   4.602 -0.1124 -0.4360 -0.4053
  126OSM    H4S13368   2.924   0.614   4.666 -0.5138  2.2869 -3.1851
  126OSM    C5S13369   2.797   0.441   4.650  0.1372 -0.5786  0.3000
  126OSM    H5S13370   2.745   0.381   4.574  1.1428 -1.1807  0.0701
  126OSM    C6S13371   2.748   0.405   4.789 -0.0287 -0.7089 -0.9032
  126OSM    H6S13372   2.643   0.369   4.788  0.2374 -1.6693  0.8368
  126OSM    H6T13373   2.754   0.494   4.856  0.4073 -0.3313 -1.4323
  126OSM    C7S13374   2.839   0.294   4.844 -0.0202 -0.1495 -0.7276
  126OSM    H7S13375   2.944   0.329   4.840  0.3655 -0.3566  3.3718
  126OSM    H7T13376   2.849   0.195   4.795  3.1182 -1.1350  1.5644
  126OSM    C8S13377   2.812   0.280   4.993 -0.1914  0.0142  0.7581
  126OSM    H8S13378   2.707   0.248   5.009  0.2485 -1.2221  1.2728
  126OSM    H8T13379   2.828   0.382   5.035  1.0734  1.1232 -2.1047
  126OSM    C9S13380   2.909   0.184   5.062 -0.4072 -0.1207  0.0868
  126OSM    H9S13381   3.013   0.207   5.032  0.0819 -0.4281  1.4723
  126OSM    H9T13382   2.879   0.079   5.043 -1.3158  0.2063 -0.3917
  126OSM   C10S13383   2.902   0.200   5.220 -0.7858  0.1803 -0.2163
  126OSM   H10S13384   2.916   0.308   5.241  0.9387 -0.1589  0.5060
  126OSM   H10T13385   2.986   0.143   5.265 -0.7771 -0.5098 -1.0766
  126OSM   C11S13386   2.766   0.142   5.271 -0.1372 -0.2185 -0.1303
  126OSM   H11S13387   2.763   0.033   5.251  0.2511 -0.4580  1.0223
  126OSM   H11T13388   2.682   0.192   5.218  0.3872  0.0927 -0.6735
  126OSM   C12S13389   2.746   0.167   5.424 -0.0468 -0.4170  0.0729
  126OSM   H12S13390   2.665   0.108   5.470  0.2833 -0.7823  0.1955
  126OSM   H12T13391   2.728   0.277   5.427  0.7004 -0.1994 -1.7227
  126OSM   C13S13392   2.873   0.143   5.514  0.3958  0.7182 -0.3071
  126OSM   H13S13393   2.949   0.217   5.481  1.1631  0.0349 -0.0934
  126OSM   H13T13394   2.911   0.039   5.505 -0.5447  0.3418 -0.0747
  126OSM   C14S13395   2.842   0.156   5.665  0.5060 -0.4624 -0.3449
  126OSM   H14S13396   2.750   0.098   5.689 -0.9771  2.0701  0.3918
  126OSM   H14T13397   2.827   0.264   5.683 -1.2813 -0.6257 -0.6021
  126OSM   C15S13398   2.947   0.108   5.770 -0.3358 -0.2351  0.0937
  126OSM   H15S13399   3.049   0.152   5.764  0.0193 -0.7787  1.6558
  126OSM   H15T13400   2.963  -0.002   5.759  0.2288 -0.0743 -0.8636
  126OSM   C16S13401   2.906   0.142   5.915 -0.5433 -0.0181  0.2857
  126OSM   H16S13402   2.807   0.101   5.945 -1.1992  1.0421 -0.3719
  126OSM   H16T13403   2.903   0.252   5.924 -0.8398 -0.0061  0.0307
  126OSM   C17S13404   3.014   0.089   6.014 -0.2964  0.1589  0.5290
  126OSM   H17S13405   3.110   0.135   5.981 -0.2455 -1.5513 -1.9787
  126OSM   H17T13406   3.020  -0.022   6.014 -1.9104  0.0207 -1.6693
  126OSM   C18S13407   2.990   0.143   6.150 -0.0393 -0.1250  0.1644
  126OSM   H18S13408   3.004   0.252   6.163  1.6963 -0.6055  3.5947
  126OSM   H18T13409   3.062   0.099   6.222 -0.5660 -3.0022 -0.8895
  126OSM   H18U13410   2.887   0.119   6.185 -0.2182 -1.8398 -1.3558
  126OSM    C1F13411   3.178   0.317   4.463 -0.1485 -0.4411 -1.0458
  126OSM     OF13412   3.279   0.386   4.479  0.3037  0.2041  0.4479
  126OSM    C2F13413   3.182   0.172   4.465 -0.5552  0.0926  0.0313
  126OSM    H2F13414   3.195   0.121   4.368 -0.8705 -0.7090  0.4034
  126OSM    H2G13415   3.088   0.133   4.510 -0.9921 -1.2496 -1.9414
  126OSM    C3F13416   3.302   0.122   4.558  0.0198 -0.3456  0.2517
  126OSM    H3F13417   3.393   0.170   4.515 -0.3913 -1.1693 -1.6282
  126OSM    H3G13418   3.320   0.015   4.533 -2.3708 -0.7795  0.1765
  126OSM    C4F13419   3.279   0.154   4.707 -0.2828  0.2045  0.0004
  126OSM    H4F13420   3.177   0.117   4.729 -0.7527  1.8784  0.7796
  126OSM    H4G13421   3.287   0.265   4.715 -2.8460  0.4521 -0.2618
  126OSM    C5F13422   3.380   0.095   4.802 -0.1608  0.8199 -0.9652
  126OSM    H5F13423   3.372  -0.014   4.782  2.0580  0.3220  0.4657
  126OSM    H5G13424   3.351   0.110   4.908  0.7113  0.7396 -0.7096
  126OSM    C6F13425   3.528   0.134   4.771  0.4502 -0.2864  0.3472
  126OSM    H6F13426   3.537   0.240   4.737  0.6468 -0.2044  0.6408
  126OSM    H6G13427   3.568   0.066   4.694  1.4190  0.2448  0.3608
  126OSM    C7F13428   3.611   0.121   4.900 -0.7669 -0.6345 -0.3419
  126OSM    H7F13429   3.578   0.032   4.958 -2.6966 -0.8530 -1.6600
  126OSM    H7G13430   3.595   0.210   4.965  3.3429  0.9065 -1.1519
  126OSM    C8F13431   3.760   0.096   4.862  0.6985  0.3689  0.3547
  126OSM    H8F13432   3.786   0.168   4.780 -0.8725  0.4164 -0.1232
  126OSM    H8G13433   3.764  -0.006   4.819 -1.8722 -0.3810  1.7473
  126OSM    C9F13434   3.850   0.123   4.975  0.2836 -0.0500  0.1554
  126OSM    H9F13435   3.908   0.217   4.971 -1.0364  0.7259 -1.4897
  126OSM   C10F13436   3.888   0.037   5.066  1.2064 -0.3846 -1.2164
  126OSM   H10F13437   3.959   0.064   5.146 -0.3846  0.8605 -0.1607
  126OSM   C11F13438   3.833  -0.101   5.089  0.6710 -0.2909  0.5103
  126OSM   H11F13439   3.898  -0.176   5.039 -1.6965 -0.2353 -3.0226
  126OSM   H11G13440   3.736  -0.113   5.036  0.5345  3.6499 -0.4899
  126OSM   C12F13441   3.808  -0.151   5.231 -0.0718 -0.3119  0.0629
  126OSM   H12F13442   3.907  -0.156   5.281 -0.5052  0.6487  1.0473
  126OSM   H12G13443   3.772  -0.256   5.223  0.4882 -0.3655 -2.4584
  126OSM   C13F13444   3.693  -0.075   5.300 -0.0292 -0.5002 -0.2914
  126OSM   H13F13445   3.598  -0.072   5.243 -0.8093  0.9439  0.9996
  126OSM   H13G13446   3.732   0.028   5.314 -1.4106  0.0012  0.0562
  126OSM   C14F13447   3.660  -0.126   5.442 -0.0930  0.1697  0.3171
  126OSM   H14F13448   3.758  -0.132   5.492  0.0101 -3.1547 -0.0299
  126OSM   H14G13449   3.617  -0.229   5.432 -2.2141  1.0101  0.1787
  126OSM   C15F13450   3.564  -0.042   5.523  0.6318  0.2914 -0.2042
  126OSM   H15F13451   3.459  -0.067   5.496 -0.0407  0.8301  1.7660
  126OSM   H15G13452   3.590   0.062   5.494 -1.0594  0.1879 -2.3294
  126OSM   C16F13453   3.595  -0.073   5.672  0.1068 -0.9237 -0.4488
  126OSM   H16F13454   3.703  -0.047   5.685 -0.0244 -1.3408  1.9402
  126OSM   H16G13455   3.594  -0.182   5.693  2.8692 -1.1854 -1.2076
  126OSM   C17F13456   3.494  -0.004   5.761 -0.6600  0.2447  0.3598
  126OSM   H17F13457   3.392  -0.030   5.725  0.5647 -0.9147 -2.5851
  126OSM   H17G13458   3.501   0.103   5.734  1.3592 -0.5344 -2.7674
  126OSM   C18F13459   3.494  -0.021   5.914  0.0196 -0.9964  0.4187
  126OSM   H18F13460   3.592   0.004   5.958 -0.5521  0.9553  0.6671
  126OSM   H18G13461   3.473  -0.129   5.935 -1.4079 -1.3423 -2.2645
  126OSM   H18H13462   3.417   0.050   5.952 -0.3999 -2.2636  2.0658
  127OSM      N13463   2.197   1.549   3.555  0.0729  0.1942 -0.0369
  127OSM    C1513464   2.161   1.407   3.563 -0.0105  0.2848  0.7912
  127OSM   H15A13465   2.241   1.361   3.620 -0.1770  0.1905  0.9465
  127OSM   H15B13466   2.159   1.364   3.464  2.7257  0.2323  0.6742
  127OSM   H15C13467   2.068   1.395   3.616  0.9159 -0.3571  2.3372
  127OSM    C1413468   2.346   1.549   3.538 -0.0223  0.2512  0.0951
  127OSM   H14A13469   2.368   1.500   3.444  0.1353  1.4429 -0.5077
  127OSM   H14B13470   2.391   1.498   3.621 -0.2605 -0.0242  0.0618
  127OSM   H14C13471   2.382   1.650   3.545 -1.6379  0.8334  0.5105
  127OSM    C1313472   2.129   1.617   3.444  0.2043 -1.2616  0.2337
  127OSM   H13A13473   2.026   1.645   3.458  0.0733 -2.1536  1.1914
  127OSM   H13B13474   2.145   1.570   3.348 -2.9329  1.7366 -2.0011
  127OSM   H13C13475   2.167   1.718   3.435  1.8106 -1.7952  0.5757
  127OSM    C1213476   2.161   1.623   3.688  0.2570 -0.2480 -0.6319
  127OSM   H12A13477   2.170   1.561   3.777  0.8937  0.6561 -0.0422
  127OSM   H12B13478   2.055   1.642   3.678  0.9729  3.5832 -2.8754
  127OSM    C1113479   2.222   1.766   3.718  0.5007 -0.4476 -0.7555
  127OSM   H11A13480   2.170   1.804   3.809  0.4353 -0.9213 -0.5934
  127OSM   H11B13481   2.197   1.835   3.635 -1.2845  0.7259  0.6749
  127OSM      P13482   2.414   1.737   3.886 -0.0714 -0.7240  0.3408
  127OSM    O1313483   2.463   1.603   3.888 -0.5092 -0.3459  0.5914
  127OSM    O1413484   2.521   1.835   3.921  0.3347  0.8264 -0.1688
  127OSM    O1113485   2.291   1.755   3.977 -0.8848  0.2763 -0.4898
  127OSM    O1213486   2.364   1.766   3.740 -0.2782  0.0086  0.6893
  127OSM    C1S13487   2.254   1.687   4.091 -0.8634 -0.0776 -0.5402
  127OSM    H1S13488   2.309   1.591   4.102  0.6206  0.8250  0.2526
  127OSM    H1T13489   2.148   1.655   4.092 -0.9503  0.2205 -0.1194
  127OSM     NF13490   2.263   1.693   4.348 -0.1156 -0.2967  0.2777
  127OSM    HNF13491   2.189   1.704   4.414 -0.1726 -1.6969  0.4855
  127OSM    C2S13492   2.282   1.768   4.223  0.0127  0.0339 -0.3396
  127OSM    H2S13493   2.391   1.791   4.222  0.0811 -0.2956 -0.6994
  127OSM    C3S13494   2.197   1.902   4.229 -0.6720 -0.1515 -0.4115
  127OSM    H3S13495   2.094   1.862   4.239 -0.4799 -0.1947  2.1776
  127OSM     O313496   2.187   1.970   4.107 -0.4083 -0.0295 -0.5462
  127OSM    HO313497   2.234   1.912   4.046  1.2737  1.9178 -1.2176
  127OSM    C4S13498   2.229   1.993   4.348  0.2153  0.5776 -0.0969
  127OSM    H4S13499   2.152   1.990   4.427 -0.8879  0.1207 -1.1538
  127OSM    C5S13500   2.316   2.085   4.362  0.1182  0.3352 -0.2095
  127OSM    H5S13501   2.379   2.113   4.276  0.6755 -0.7751 -0.1755
  127OSM    C6S13502   2.341   2.172   4.479 -0.0236  0.2560 -0.3280
  127OSM    H6S13503   2.299   2.268   4.441 -0.4922 -0.5419 -1.8912
  127OSM    H6T13504   2.448   2.201   4.487  0.3539 -1.1409 -0.1591
  127OSM    C7S13505   2.300   2.139   4.621 -0.6314 -0.3178  0.0789
  127OSM    H7S13506   2.341   2.040   4.649  0.2823  0.5508  2.0251
  127OSM    H7T13507   2.192   2.119   4.606 -1.2678  2.0584  1.0119
  127OSM    C8S13508   2.318   2.251   4.722  0.4191  0.6390 -0.3204
  127OSM    H8S13509   2.249   2.332   4.691  1.7205  1.6103 -0.7615
  127OSM    H8T13510   2.419   2.297   4.722  0.1291  1.2783 -0.1623
  127OSM    C9S13511   2.285   2.199   4.860 -0.5397 -0.8857 -0.1393
  127OSM    H9S13512   2.360   2.120   4.883  3.1635  1.7038 -2.2489
  127OSM    H9T13513   2.180   2.163   4.869 -1.2475  1.3500  1.0993
  127OSM   C10S13514   2.288   2.306   4.969  0.3312 -0.3550 -0.3387
  127OSM   H10S13515   2.213   2.385   4.949  0.6027  0.4092  1.5035
  127OSM   H10T13516   2.382   2.365   4.967 -0.3181  0.7632  0.7954
  127OSM   C11S13517   2.277   2.254   5.117  0.5430  0.1339 -0.1207
  127OSM   H11S13518   2.360   2.182   5.133  2.9617  3.0088  1.2521
  127OSM   H11T13519   2.182   2.197   5.124 -1.0311  2.7928  3.7509
  127OSM   C12S13520   2.289   2.351   5.230 -0.1124  0.1818 -0.2164
  127OSM   H12S13521   2.217   2.432   5.202  0.2831  1.0740  1.2460
  127OSM   H12T13522   2.387   2.403   5.224  0.8187 -1.0042  2.8713
  127OSM   C13S13523   2.258   2.279   5.364 -0.4461  0.2246 -0.3705
  127OSM   H13S13524   2.333   2.197   5.370  0.6803  0.9167 -3.1322
  127OSM   H13T13525   2.156   2.235   5.362 -0.4031  0.0724  0.4006
  127OSM   C14S13526   2.281   2.378   5.481 -0.2219  0.1898 -0.2087
  127OSM   H14S13527   2.203   2.456   5.467 -0.0597  1.0223  2.8429
  127OSM   H14T13528   2.373   2.437   5.460 -0.2979 -0.3177 -2.1634
  127OSM   C15S13529   2.289   2.301   5.608 -0.5411  0.5445 -0.3013
  127OSM   H15S13530   2.363   2.218   5.596  1.9286  2.6783 -0.8935
  127OSM   H15T13531   2.189   2.268   5.643 -0.1775 -1.1639 -0.7912
  127OSM   C16S13532   2.341   2.383   5.733  0.2952 -0.3480  0.0576
  127OSM   H16S13533   2.259   2.454   5.758 -0.4822 -1.2218  0.0585
  127OSM   H16T13534   2.430   2.445   5.709  0.3085 -0.7488 -0.9595
  127OSM   C17S13535   2.385   2.280   5.841 -0.8450 -0.1402 -0.1778
  127OSM   H17S13536   2.313   2.199   5.863  0.3244 -0.9498  0.8506
  127OSM   H17T13537   2.394   2.344   5.932 -3.5090  1.4654 -0.9432
  127OSM   C18S13538   2.520   2.222   5.808  0.5215 -0.3282 -0.6535
  127OSM   H18S13539   2.557   2.179   5.904 -0.1698 -1.1061 -0.7232
  127OSM   H18T13540   2.589   2.304   5.777  0.2702 -0.1181 -0.6574
  127OSM   H18U13541   2.529   2.146   5.727 -0.0725 -0.5204 -0.5377
  127OSM    C1F13542   2.339   1.589   4.381  0.1942  0.3792 -0.0081
  127OSM     OF13543   2.447   1.568   4.327 -0.8136  0.0920 -0.5809
  127OSM    C2F13544   2.278   1.494   4.487 -0.1740 -0.0321  0.2298
  127OSM    H2F13545   2.224   1.411   4.437  0.8466 -1.2727  1.1378
  127OSM    H2G13546   2.194   1.545   4.540  0.4092  0.0668  1.0753
  127OSM    C3F13547   2.386   1.441   4.591 -1.1488 -0.1036 -0.0714
  127OSM    H3F13548   2.451   1.529   4.613  1.7455 -1.6292 -1.8506
  127OSM    H3G13549   2.442   1.371   4.525 -0.1415  2.1315 -1.7256
  127OSM    C4F13550   2.334   1.386   4.718 -0.0883  0.2838 -0.0385
  127OSM    H4F13551   2.265   1.300   4.704  1.1559 -1.1907  2.1816
  127OSM    H4G13552   2.272   1.465   4.765  0.1669 -0.1947  1.1562
  127OSM    C5F13553   2.440   1.356   4.822  0.5734 -0.1349 -0.2451
  127OSM    H5F13554   2.509   1.442   4.806 -0.7602  1.0022 -0.0568
  127OSM    H5G13555   2.499   1.263   4.807  0.4720 -0.5089  1.4775
  127OSM    C6F13556   2.395   1.368   4.970  0.9436 -0.2426  0.1572
  127OSM    H6F13557   2.303   1.309   4.990 -0.3860  1.7247  0.1646
  127OSM    H6G13558   2.369   1.475   4.989  3.3894  0.5502 -0.5545
  127OSM    C7F13559   2.501   1.345   5.079  0.3203 -0.1971  0.4317
  127OSM    H7F13560   2.591   1.409   5.068  0.1667  0.4184  2.3678
  127OSM    H7G13561   2.530   1.240   5.057 -0.5179 -0.5507  0.9395
  127OSM    C8F13562   2.453   1.346   5.219 -0.9822 -0.6344 -0.6013
  127OSM    H8F13563   2.427   1.451   5.245 -1.7245 -1.3991  2.0762
  127OSM    H8G13564   2.542   1.323   5.282 -2.2565  1.9039  2.3724
  127OSM    C9F13565   2.334   1.261   5.262  0.0750  0.1571  0.2071
  127OSM    H9F13566   2.260   1.240   5.184 -0.9543 -1.1498  1.4836
  127OSM   C10F13567   2.310   1.200   5.384 -0.1748 -0.3997  0.6885
  127OSM   H10F13568   2.217   1.141   5.393 -0.2668 -0.0784  2.0349
  127OSM   C11F13569   2.399   1.204   5.501 -0.0227 -0.2294  0.2221
  127OSM   H11F13570   2.501   1.237   5.473 -1.0629  0.7182 -2.8050
  127OSM   H11G13571   2.424   1.100   5.533 -1.3114 -0.2355  1.3287
  127OSM   C12F13572   2.362   1.286   5.624  0.1362 -0.2108 -0.1986
  127OSM   H12F13573   2.276   1.237   5.673 -0.7373 -0.0977 -1.5669
  127OSM   H12G13574   2.330   1.386   5.588 -1.8901 -1.0102 -0.7416
  127OSM   C13F13575   2.474   1.286   5.727  0.1951 -0.0563 -1.1946
  127OSM   H13F13576   2.575   1.318   5.695  1.3835 -0.9929  1.3271
  127OSM   H13G13577   2.482   1.181   5.764 -0.0486  0.5329  0.6425
  127OSM   C14F13578   2.429   1.375   5.842  0.0630 -0.1030 -1.0511
  127OSM   H14F13579   2.405   1.476   5.802  0.2636 -0.0779 -1.1046
  127OSM   H14G13580   2.503   1.382   5.925 -0.4822 -0.5825 -0.5128
  127OSM   C15F13581   2.297   1.343   5.918  0.5191  0.2638  0.1618
  127OSM   H15F13582   2.301   1.246   5.972 -0.2606  0.0890 -0.0779
  127OSM   H15G13583   2.212   1.331   5.848  0.4758 -1.3637  0.4589
  127OSM   C16F13584   2.255   1.427   6.039 -0.2839 -0.4195 -0.1624
  127OSM   H16F13585   2.342   1.430   6.107 -0.9959  3.6456  0.8444
  127OSM   H16G13586   2.174   1.360   6.074 -0.8479 -0.5221 -1.5909
  127OSM   C17F13587   2.211   1.566   6.017  0.5284 -0.9272 -0.5931
  127OSM   H17F13588   2.110   1.574   5.972 -0.0168  4.4326  0.8726
  127OSM   H17G13589   2.285   1.605   5.943  1.5529 -1.6194  0.0341
  127OSM   C18F13590   2.223   1.649   6.143  0.5419 -0.1565  0.0601
  127OSM   H18F13591   2.205   1.757   6.121  0.8265  0.1526  1.2981
  127OSM   H18G13592   2.324   1.647   6.188  0.1576 -0.0449  0.9344
  127OSM   H18H13593   2.154   1.630   6.227 -0.0395  0.5891 -0.2288
  128OSM      N13594   2.922   1.723   3.839 -0.3609  0.5871  0.5634
  128OSM    C1513595   2.868   1.673   3.711  0.6567  0.5145  0.1016
  128OSM   H15A13596   2.802   1.591   3.734  0.4656  0.7356  0.3478
  128OSM   H15B13597   2.943   1.624   3.650 -0.0818  0.3594 -0.7030
  128OSM   H15C13598   2.808   1.739   3.652 -0.0989  0.7085  1.0582
  128OSM    C1413599   3.017   1.832   3.811 -0.1219 -0.1150 -0.0471
  128OSM   H14A13600   3.050   1.889   3.897  2.1013  1.3484 -1.7356
  128OSM   H14B13601   2.975   1.901   3.739  0.6968 -0.4515 -0.8676
  128OSM   H14C13602   3.115   1.792   3.791  0.3943 -0.4302  2.7138
  128OSM    C1313603   2.810   1.786   3.920 -0.0626  0.5337  0.3419
  128OSM   H13A13604   2.784   1.885   3.886 -0.4976  0.9752  1.9124
  128OSM   H13B13605   2.847   1.794   4.021  3.4794 -0.2637 -0.7682
  128OSM   H13C13606   2.718   1.729   3.916 -1.0305  2.0275  0.6284
  128OSM    C1213607   2.997   1.611   3.906 -0.2828  0.5609 -0.0606
  128OSM   H12A13608   3.063   1.644   3.985  2.6042 -1.2401 -1.5433
  128OSM   H12B13609   3.069   1.567   3.839 -2.1548 -1.1415 -1.0543
  128OSM    C1113610   2.909   1.504   3.961  0.5661  1.1172 -0.1037
  128OSM   H11A13611   2.835   1.465   3.887 -0.1647  1.2990  0.5146
  128OSM   H11B13612   2.853   1.545   4.048  0.0620  2.0872 -0.8737
  128OSM      P13613   2.974   1.253   4.031 -0.3424  0.0401 -0.0105
  128OSM    O1313614   2.911   1.194   3.913 -0.2341  0.5598  0.6293
  128OSM    O1413615   3.090   1.178   4.090 -0.0310 -0.4372 -0.0307
  128OSM    O1113616   2.868   1.268   4.143 -0.2904 -0.7407 -0.5707
  128OSM    O1213617   3.004   1.404   4.002 -0.8581 -0.4020  0.7178
  128OSM    C1S13618   2.899   1.283   4.282 -0.2378 -0.2996 -0.1985
  128OSM    H1S13619   2.913   1.391   4.303 -2.2432 -0.1286  0.5596
  128OSM    H1T13620   2.990   1.225   4.310 -0.3952 -0.9655 -1.0295
  128OSM     NF13621   2.828   1.280   4.525  0.2322  0.2561 -0.1994
  128OSM    HNF13622   2.859   1.196   4.569 -1.0240  0.4332  1.1293
  128OSM    C2S13623   2.780   1.248   4.385 -0.1559 -0.1832  0.0454
  128OSM    H2S13624   2.695   1.316   4.364  1.2113  2.5513  2.6926
  128OSM    C3S13625   2.732   1.102   4.348  0.7654 -0.1927  0.1707
  128OSM    H3S13626   2.806   1.030   4.389 -0.1466 -0.3424  1.6182
  128OSM     O313627   2.708   1.069   4.211  0.5649 -0.2731  0.2873
  128OSM    HO313628   2.716   1.155   4.169  0.6728 -1.0915 -1.4480
  128OSM    C4S13629   2.600   1.074   4.433 -0.5516  0.4127  0.3742
  128OSM    H4S13630   2.620   1.005   4.516 -3.0636 -0.2246  0.5401
  128OSM    C5S13631   2.468   1.105   4.408 -0.7717 -0.1272  0.2507
  128OSM    H5S13632   2.450   1.160   4.315  0.5292 -2.6303 -1.6255
  128OSM    C6S13633   2.354   1.044   4.478  0.8914 -0.8672 -0.6734
  128OSM    H6S13634   2.291   0.978   4.415  0.2134 -0.0998 -0.8108
  128OSM    H6T13635   2.284   1.127   4.501  0.3394 -1.3855 -0.4514
  128OSM    C7S13636   2.369   0.976   4.616  0.7500  1.1758 -0.0220
  128OSM    H7S13637   2.423   1.036   4.693 -1.1060  2.6038  0.2256
  128OSM    H7T13638   2.422   0.878   4.614 -0.4089  0.4464  2.1347
  128OSM    C8S13639   2.230   0.943   4.680 -0.1255  0.4270 -0.2867
  128OSM    H8S13640   2.199   0.843   4.641 -1.3574  0.2399  1.1127
  128OSM    H8T13641   2.149   1.018   4.668 -0.3051  0.3787  0.5875
  128OSM    C9S13642   2.242   0.915   4.834  0.3979  0.0319 -0.1516
  128OSM    H9S13643   2.232   1.018   4.875  0.3794  1.1829 -2.8337
  128OSM    H9T13644   2.348   0.882   4.840  0.5950  0.4236 -1.1938
  128OSM   C10S13645   2.128   0.816   4.887 -0.1664  0.5976  0.2281
  128OSM   H10S13646   2.114   0.716   4.840  0.1651 -0.4634  2.2633
  128OSM   H10T13647   2.026   0.857   4.869 -0.3301  0.4574  0.8037
  128OSM   C11S13648   2.149   0.783   5.033 -0.8789 -0.6799 -0.1604
  128OSM   H11S13649   2.235   0.712   5.036  0.1701  0.5094 -1.2676
  128OSM   H11T13650   2.057   0.727   5.061 -0.5247 -1.4801 -0.5590
  128OSM   C12S13651   2.183   0.903   5.122  0.3733  0.2405  0.0522
  128OSM   H12S13652   2.098   0.972   5.104  0.7495  0.6734 -0.0735
  128OSM   H12T13653   2.273   0.954   5.082  2.2299 -0.7968  2.6467
  128OSM   C13S13654   2.209   0.860   5.275  0.3022 -0.3068  0.5236
  128OSM   H13S13655   2.268   0.929   5.339  0.4355 -1.1802  1.3588
  128OSM   H13T13656   2.263   0.764   5.265  1.2490  0.0797  1.7328
  128OSM   C14S13657   2.087   0.827   5.356  0.3279 -0.0480 -0.1389
  128OSM   H14S13658   2.030   0.757   5.290  2.8787 -1.4679 -0.9595
  128OSM   H14T13659   2.027   0.918   5.377  0.8697  0.8471 -2.1795
  128OSM   C15S13660   2.100   0.757   5.493 -0.2760  0.7979  0.0538
  128OSM   H15S13661   2.154   0.662   5.475 -0.4975  0.1644  2.4526
  128OSM   H15T13662   1.999   0.731   5.531  0.0952  0.1840  0.6291
  128OSM   C16S13663   2.175   0.841   5.596  0.1252  0.4919 -0.0140
  128OSM   H16S13664   2.271   0.878   5.554  1.2126  0.7271  2.5084
  128OSM   H16T13665   2.203   0.764   5.671  0.0652  1.0497  0.5911
  128OSM   C17S13666   2.094   0.952   5.656 -0.0954  0.4534  0.2808
  128OSM   H17S13667   1.995   0.907   5.679  0.0312  1.1139  2.3887
  128OSM   H17T13668   2.072   1.039   5.591  0.9540  1.5620  1.3635
  128OSM   C18S13669   2.140   0.997   5.789 -0.6593  0.2002  0.0872
  128OSM   H18S13670   2.068   1.063   5.841 -2.3848 -0.4449 -1.3721
  128OSM   H18T13671   2.230   1.059   5.774 -0.1935 -0.5371 -0.2362
  128OSM   H18U13672   2.164   0.911   5.856 -0.0233  0.6464  0.4431
  128OSM    C1F13673   2.845   1.407   4.577  0.0953 -0.8786  0.6319
  128OSM     OF13674   2.816   1.506   4.505  0.0552 -0.2840 -0.9007
  128OSM    C2F13675   2.909   1.426   4.712 -0.4915 -0.4727 -0.5394
  128OSM    H2F13676   2.997   1.492   4.706  1.7401 -3.3650 -2.8450
  128OSM    H2G13677   2.942   1.326   4.748  0.3043 -0.6013 -1.5952
  128OSM    C3F13678   2.809   1.478   4.818 -0.5440 -0.3250  0.4623
  128OSM    H3F13679   2.714   1.421   4.819 -0.4170 -0.5514  0.0349
  128OSM    H3G13680   2.774   1.577   4.782  0.6922  0.4766  1.4054
  128OSM    C4F13681   2.868   1.489   4.962  0.4695  0.0258  0.6265
  128OSM    H4F13682   2.788   1.535   5.024 -3.5366 -3.6494 -1.3578
  128OSM    H4G13683   2.940   1.575   4.960 -0.2369  0.6254  0.4921
  128OSM    C5F13684   2.916   1.355   5.021 -0.0298 -0.3930  0.1429
  128OSM    H5F13685   2.991   1.308   4.954 -0.0979  0.0647 -0.2583
  128OSM    H5G13686   2.823   1.294   5.029  0.6843 -1.3544  1.6166
  128OSM    C6F13687   2.956   1.361   5.171 -0.2633 -0.8685  0.6265
  128OSM    H6F13688   2.885   1.431   5.220  1.4999  2.4241 -1.2083
  128OSM    H6G13689   3.050   1.420   5.170 -0.1734 -1.0188 -0.4291
  128OSM    C7F13690   2.976   1.230   5.249 -0.4457 -0.7850 -0.3524
  128OSM    H7F13691   3.070   1.178   5.222  0.0242  0.7140 -1.8124
  128OSM    H7G13692   2.896   1.157   5.223 -2.0951  1.3927 -1.7687
  128OSM    C8F13693   2.979   1.280   5.392  0.1534  0.1146  1.1301
  128OSM    H8F13694   2.879   1.318   5.420  0.9482  0.1375  4.3588
  128OSM    H8G13695   3.053   1.360   5.412  0.5407 -0.0670  0.4354
  128OSM    C9F13696   3.020   1.162   5.475  0.8899 -0.0804 -0.1755
  128OSM    H9F13697   3.115   1.116   5.447  1.3962 -0.7257  2.4097
  128OSM   C10F13698   2.972   1.137   5.600 -0.6606  0.2076 -0.1457
  128OSM   H10F13699   3.027   1.061   5.658  1.2151  1.8896  0.3826
  128OSM   C11F13700   2.845   1.185   5.662  0.2785 -0.8577 -0.0890
  128OSM   H11F13701   2.768   1.105   5.659  1.1799 -1.7408 -0.2257
  128OSM   H11G13702   2.798   1.271   5.609  0.2280 -0.1279  1.1125
  128OSM   C12F13703   2.862   1.236   5.811  0.6170 -0.0916  0.6718
  128OSM   H12F13704   2.923   1.163   5.869  2.0343 -0.5078 -1.2621
  128OSM   H12G13705   2.763   1.252   5.858 -0.8319 -0.6145 -2.0627
  128OSM   C13F13706   2.950   1.358   5.819  0.5001 -0.8981  0.2110
  128OSM   H13F13707   2.896   1.438   5.764 -1.6623 -2.2979  0.1823
  128OSM   H13G13708   3.044   1.342   5.762 -0.3305 -0.9712 -1.2013
  128OSM   C14F13709   2.972   1.412   5.958  0.1211 -0.6704  0.2982
  128OSM   H14F13710   3.026   1.332   6.013  0.5103 -0.2018  0.6037
  128OSM   H14G13711   2.875   1.447   6.001 -0.5557 -0.5494 -1.2753
  128OSM   C15F13712   3.060   1.532   5.968 -0.5465 -0.1666  0.6402
  128OSM   H15F13713   3.035   1.612   5.895  0.0867 -0.2292  0.3508
  128OSM   H15G13714   3.162   1.503   5.936 -1.4385 -1.6835 -1.0132
  128OSM   C16F13715   3.066   1.586   6.112 -1.1526 -0.4105 -0.1029
  128OSM   H16F13716   3.103   1.505   6.178 -0.9444  0.8849  1.4238
  128OSM   H16G13717   2.968   1.626   6.148 -1.5327 -0.5438 -0.9743
  128OSM   C17F13718   3.167   1.702   6.127  0.3575  0.1642  0.7749
  128OSM   H17F13719   3.266   1.671   6.089 -1.4431 -1.5400 -3.1306
  128OSM   H17G13720   3.183   1.728   6.234 -0.2611  1.4597  0.5717
  128OSM   C18F13721   3.121   1.831   6.065  0.0153 -0.3121  0.1834
  128OSM   H18F13722   3.016   1.857   6.088  0.9367  1.4351  2.9289
  128OSM   H18G13723   3.139   1.818   5.956 -0.8375  1.2515 -0.1679
  128OSM   H18H13724   3.181   1.918   6.099  1.6372  0.3360 -3.7919
  129OSM      N13725   2.988   6.091   4.163  0.0131  0.1814  0.4143
  129OSM    C1513726   3.008   6.180   4.051  0.2313 -0.8275 -0.1108
  129OSM   H15A13727   3.105   6.228   4.058  0.0244 -0.4389  0.0968
  129OSM   H15B13728   2.934   6.258   4.061  1.0837 -0.1446  1.1751
  129OSM   H15C13729   2.995   6.133   3.955 -3.7549  0.0459 -0.1592
  129OSM    C1413730   2.972   6.162   4.287 -0.4572 -0.5903  0.3510
  129OSM   H14A13731   2.882   6.220   4.298  1.5349  2.4193  2.4280
  129OSM   H14B13732   3.041   6.244   4.276 -0.3242 -0.7200  0.2201
  129OSM   H14C13733   2.992   6.106   4.377  0.0803  0.2619  0.7738
  129OSM    C1313734   2.858   6.022   4.124 -0.1414  0.7252  0.9397
  129OSM   H13A13735   2.877   5.956   4.041 -2.7159  0.1769  0.7154
  129OSM   H13B13736   2.776   6.089   4.099 -1.2582  0.6386  3.9395
  129OSM   H13C13737   2.826   5.961   4.207 -1.1854  1.8142  1.3746
  129OSM    C1213738   3.107   6.001   4.179  0.0732 -0.3608 -0.0648
  129OSM   H12A13739   3.133   5.941   4.093  0.0337  0.3571 -0.5836
  129OSM   H12B13740   3.079   5.921   4.246 -0.7372 -1.9061 -2.1601
  129OSM    C1113741   3.240   6.061   4.213 -0.1555 -0.3954  0.1330
  129OSM   H11A13742   3.303   5.974   4.242 -0.4888 -0.7549 -0.2210
  129OSM   H11B13743   3.241   6.123   4.306  1.2053 -0.2960  0.0692
  129OSM      P13744   3.451   6.150   4.074 -0.2765  0.2392  0.3136
  129OSM    O1313745   3.500   6.017   4.031 -0.9846  0.8602  0.3215
  129OSM    O1413746   3.487   6.262   3.982 -0.5694 -0.2620  1.0355
  129OSM    O1113747   3.508   6.166   4.224  0.2194  0.4849 -0.0786
  129OSM    O1213748   3.296   6.139   4.103  0.6049 -0.5373  0.3675
  129OSM    C1S13749   3.506   6.295   4.292 -0.0567 -0.9559  0.2568
  129OSM    H1S13750   3.402   6.326   4.318  0.7455  0.9815  1.3454
  129OSM    H1T13751   3.544   6.375   4.224  1.0891  0.0318  1.9849
  129OSM     NF13752   3.524   6.446   4.486 -1.0261  0.4069 -0.0354
  129OSM    HNF13753   3.588   6.522   4.482 -2.4451  2.0809  3.8071
  129OSM    C2S13754   3.571   6.314   4.431 -0.1944  0.7857  0.0072
  129OSM    H2S13755   3.526   6.231   4.490  2.2999 -1.9475 -1.5861
  129OSM    C3S13756   3.721   6.308   4.408 -0.0834  0.1321  0.2204
  129OSM    H3S13757   3.743   6.394   4.341 -1.4174  1.0043  0.8409
  129OSM     O313758   3.769   6.185   4.349  0.6074  0.3355 -0.5503
  129OSM    HO313759   3.692   6.160   4.298 -0.8375  1.3755  1.0330
  129OSM    C4S13760   3.794   6.324   4.541  0.4374 -0.7632  0.5511
  129OSM    H4S13761   3.808   6.231   4.599 -0.2851  0.0499  2.0719
  129OSM    C5S13762   3.834   6.443   4.592 -0.1980  0.2444  0.1818
  129OSM    H5S13763   3.835   6.532   4.527  3.0816 -0.4884 -0.9667
  129OSM    C6S13764   3.888   6.460   4.732  0.0427  0.0939 -0.5669
  129OSM    H6S13765   3.877   6.567   4.761 -2.8412  0.0703 -1.2775
  129OSM    H6T13766   3.997   6.437   4.727  0.1315  0.3901 -0.0826
  129OSM    C7S13767   3.830   6.371   4.846 -1.0886 -0.2286 -0.4405
  129OSM    H7S13768   3.885   6.275   4.839 -0.1560 -0.0964  3.1481
  129OSM    H7T13769   3.723   6.355   4.817 -0.8154 -0.8510 -1.1637
  129OSM    C8S13770   3.864   6.411   4.993  0.5670 -0.6949  0.0414
  129OSM    H8S13771   3.801   6.361   5.069 -2.8821  1.7368 -0.9770
  129OSM    H8T13772   3.829   6.516   5.008  2.4819 -0.3683  3.0829
  129OSM    C9S13773   4.011   6.398   5.033 -0.1178  0.3946 -0.0166
  129OSM    H9S13774   4.081   6.452   4.966  1.7160  1.0448  2.2681
  129OSM    H9T13775   4.039   6.291   5.033 -2.6190 -0.4155  3.1157
  129OSM   C10S13776   4.038   6.465   5.174  0.5960  0.4203  0.7429
  129OSM   H10S13777   4.016   6.573   5.173 -3.1620 -0.1961  1.5342
  129OSM   H10T13778   4.146   6.462   5.200  0.9723 -0.1176 -0.7546
  129OSM   C11S13779   3.955   6.399   5.288  0.6877  0.3758  0.5903
  129OSM   H11S13780   3.962   6.289   5.277  0.5097  0.3392  0.8258
  129OSM   H11T13781   3.851   6.439   5.287  1.2254  1.8630 -1.6329
  129OSM   C12S13782   4.020   6.426   5.426 -0.2163  0.4464  0.1440
  129OSM   H12S13783   4.131   6.420   5.414 -0.1111  1.1741  0.7287
  129OSM   H12T13784   4.006   6.331   5.482 -0.0350 -0.9599 -2.0413
  129OSM   C13S13785   3.973   6.558   5.484 -0.2803 -0.5527  0.2841
  129OSM   H13S13786   3.864   6.549   5.502 -0.2903 -2.0864 -0.3874
  129OSM   H13T13787   3.993   6.643   5.415 -1.4995 -0.1417  0.4236
  129OSM   C14S13788   4.045   6.595   5.615 -0.0646  0.1850  0.2443
  129OSM   H14S13789   4.154   6.606   5.599 -0.3519  2.1457 -0.6507
  129OSM   H14T13790   4.042   6.508   5.684 -0.1109  0.2390  0.3104
  129OSM   C15S13791   3.974   6.719   5.682  0.0106  0.5560 -0.3259
  129OSM   H15S13792   3.865   6.702   5.700  0.1171  0.7411  0.5207
  129OSM   H15T13793   3.979   6.807   5.614  0.5209  0.8835  0.1303
  129OSM   C16S13794   4.032   6.759   5.816  0.1993  0.0942 -0.1522
  129OSM   H16S13795   4.143   6.770   5.812  0.4883 -2.0995  0.6558
  129OSM   H16T13796   4.012   6.670   5.879 -1.0676  0.4829  0.0215
  129OSM   C17S13797   3.967   6.883   5.872  0.0423  1.0867  0.0309
  129OSM   H17S13798   3.861   6.859   5.895  0.0546  1.2039  0.2203
  129OSM   H17T13799   3.977   6.963   5.796  0.6403  0.8195 -0.1776
  129OSM   C18S13800   4.022   6.953   5.998  0.8176 -0.4907 -0.5462
  129OSM   H18S13801   4.117   7.004   5.971  0.6632  0.7337  1.0981
  129OSM   H18T13802   4.037   6.885   6.085 -1.3414 -0.7645 -0.3236
  129OSM   H18U13803   3.943   7.024   6.029  0.8693 -0.8884  0.5391
  129OSM    C1F13804   3.410   6.453   4.553  0.5144  0.4428 -0.0759
  129OSM     OF13805   3.344   6.348   4.575 -0.3770  0.5956 -0.1229
  129OSM    C2F13806   3.368   6.584   4.602 -0.2694 -0.9240  0.0476
  129OSM    H2F13807   3.265   6.608   4.570  0.6011  2.5907 -0.4736
  129OSM    H2G13808   3.438   6.659   4.559 -0.6093  0.7595  2.2834
  129OSM    C3F13809   3.373   6.597   4.759 -0.0463  0.6628  0.5104
  129OSM    H3F13810   3.342   6.493   4.785  2.3014 -0.3458 -0.4049
  129OSM    H3G13811   3.296   6.671   4.789 -0.0844 -0.1920  2.7551
  129OSM    C4F13812   3.512   6.631   4.809  0.3521  0.0242 -0.0251
  129OSM    H4F13813   3.553   6.726   4.769  0.1673  0.7402  1.4257
  129OSM    H4G13814   3.574   6.552   4.761  2.3559  0.2069  2.0770
  129OSM    C5F13815   3.507   6.626   4.962  0.6687 -0.2086 -0.1299
  129OSM    H5F13816   3.417   6.686   4.989 -1.5057 -1.3383 -4.0780
  129OSM    H5G13817   3.600   6.678   4.994  0.3890  0.1049  0.1837
  129OSM    C6F13818   3.490   6.485   5.029 -0.1801 -0.6590 -0.1998
  129OSM    H6F13819   3.584   6.426   5.018 -0.1464 -0.4039 -1.4983
  129OSM    H6G13820   3.413   6.418   4.986 -0.1794 -0.4674 -0.5022
  129OSM    C7F13821   3.462   6.504   5.180  0.3474  0.2241 -0.3130
  129OSM    H7F13822   3.370   6.566   5.190  2.2624  2.8784  3.1577
  129OSM    H7G13823   3.537   6.570   5.229  1.1337 -0.5179 -0.4966
  129OSM    C8F13824   3.435   6.393   5.281  0.1355 -0.2387  0.1271
  129OSM    H8F13825   3.375   6.314   5.231  1.5148 -0.5846 -1.0317
  129OSM    H8G13826   3.376   6.429   5.368 -0.0760 -0.2267 -0.0194
  129OSM    C9F13827   3.575   6.330   5.320  0.4268 -0.5224 -0.0004
  129OSM    H9F13828   3.627   6.303   5.228  0.1151 -0.1663 -0.2849
  129OSM   C10F13829   3.612   6.278   5.444  0.5481 -0.3697  0.2044
  129OSM   H10F13830   3.720   6.256   5.449  0.9042  0.7509 -1.6204
  129OSM   C11F13831   3.534   6.292   5.572  0.4178 -0.4267 -0.0676
  129OSM   H11F13832   3.566   6.203   5.631  0.2887 -0.6917 -0.3912
  129OSM   H11G13833   3.425   6.282   5.553  0.1956  0.2893  0.8042
  129OSM   C12F13834   3.553   6.429   5.643  0.8190  1.2063  0.0208
  129OSM   H12F13835   3.471   6.429   5.719  1.3091 -0.3067  0.6032
  129OSM   H12G13836   3.524   6.512   5.576 -0.6141  1.9821  1.5314
  129OSM   C13F13837   3.686   6.462   5.716  0.4655  0.4358 -0.2940
  129OSM   H13F13838   3.754   6.522   5.652 -0.3346 -0.7216 -2.2929
  129OSM   H13G13839   3.732   6.365   5.745 -0.6631  0.5081  1.9800
  129OSM   C14F13840   3.646   6.531   5.853  0.5274  0.0158 -0.2917
  129OSM   H14F13841   3.576   6.610   5.820  0.1257 -0.8559 -1.5784
  129OSM   H14G13842   3.738   6.580   5.892  2.0633 -0.9097 -2.5380
  129OSM   C15F13843   3.607   6.429   5.971  0.4591  0.1686  0.5997
  129OSM   H15F13844   3.594   6.328   5.925 -0.6865  0.5081  0.1324
  129OSM   H15G13845   3.508   6.456   6.013  0.4658 -1.2810  1.5974
  129OSM   C16F13846   3.713   6.421   6.079  0.7177  0.0134 -0.0363
  129OSM   H16F13847   3.670   6.353   6.156  0.2888  1.4316  1.0191
  129OSM   H16G13848   3.741   6.517   6.127  1.7642  0.8036 -2.0962
  129OSM   C17F13849   3.851   6.372   6.034  0.2310 -0.0866  0.3322
  129OSM   H17F13850   3.897   6.447   5.965  1.4267 -1.7645 -0.7664
  129OSM   H17G13851   3.840   6.278   5.976  0.6594 -0.2472  0.5182
  129OSM   C18F13852   3.941   6.343   6.150 -0.1279 -0.2416 -0.2841
  129OSM   H18F13853   3.952   6.438   6.208 -1.9593 -0.5196  0.5971
  129OSM   H18G13854   4.046   6.319   6.124  0.3163  1.6502 -0.3545
  129OSM   H18H13855   3.892   6.263   6.210 -0.5879  0.7147  0.6650
  130OSM      N13856   4.918   1.628   4.201  0.1053  0.4352 -0.4036
  130OSM    C1513857   4.851   1.522   4.126  1.1178 -0.0286 -0.3590
  130OSM   H15A13858   4.754   1.495   4.163  2.1707 -3.0666  0.4501
  130OSM   H15B13859   4.912   1.433   4.120  1.5109  0.1641  0.5427
  130OSM   H15C13860   4.834   1.563   4.027 -2.0181 -1.2798 -0.4358
  130OSM    C1413861   5.050   1.660   4.155 -0.4489 -0.3574 -0.2877
  130OSM   H14A13862   5.116   1.575   4.164  2.1036  1.5774  0.5585
  130OSM   H14B13863   5.106   1.737   4.206  2.3741 -1.6560 -1.2723
  130OSM   H14C13864   5.043   1.689   4.051  0.3578 -0.8821 -0.4985
  130OSM    C1313865   4.832   1.750   4.194 -0.3480  0.0800 -0.2498
  130OSM   H13A13866   4.804   1.781   4.094 -1.4949  0.4998  0.1854
  130OSM   H13B13867   4.858   1.827   4.265 -0.9858 -0.5131  0.6610
  130OSM   H13C13868   4.739   1.722   4.241  0.1383 -0.0412  0.6571
  130OSM    C1213869   4.919   1.598   4.358 -0.2514  0.0852  0.0963
  130OSM   H12A13870   4.955   1.690   4.402 -1.1270  0.4737  0.0321
  130OSM   H12B13871   4.990   1.521   4.384  1.8972  1.8206 -0.2794
  130OSM    C1113872   4.783   1.574   4.423  0.1498  0.3347  0.9457
  130OSM   H11A13873   4.807   1.521   4.517  0.9157 -0.5640  0.2636
  130OSM   H11B13874   4.721   1.502   4.366 -1.3774 -0.4709  3.4780
  130OSM      P13875   4.574   1.715   4.464 -0.0179 -0.2962  0.0009
  130OSM    O1313876   4.541   1.819   4.562  0.3790 -0.4022 -0.2632
  130OSM    O1413877   4.514   1.727   4.327  0.1357 -0.7393 -0.7544
  130OSM    O1113878   4.537   1.576   4.526  0.2168 -0.5709  0.5413
  130OSM    O1213879   4.727   1.700   4.451  0.3261 -0.2146  0.0978
  130OSM    C1S13880   4.574   1.546   4.663  0.0475  0.4059 -0.3830
  130OSM    H1S13881   4.625   1.624   4.723 -1.1293 -0.9846  2.6355
  130OSM    H1T13882   4.646   1.462   4.671 -0.4274 -0.1084 -1.2588
  130OSM     NF13883   4.486   1.484   4.895 -0.1739 -0.4475  0.0241
  130OSM    HNF13884   4.511   1.389   4.911  1.8763 -0.0511 -0.5837
  130OSM    C2S13885   4.448   1.512   4.757  0.1861 -0.2347 -0.4956
  130OSM    H2S13886   4.383   1.602   4.773 -0.1989 -0.5789 -0.0935
  130OSM    C3S13887   4.364   1.400   4.695  0.8474  0.0945  0.1828
  130OSM    H3S13888   4.425   1.310   4.669  0.8192  0.4597 -1.2291
  130OSM     O313889   4.311   1.437   4.568  0.5637  0.2795 -0.0653
  130OSM    HO313890   4.375   1.496   4.526 -2.0099  2.4673 -1.2536
  130OSM    C4S13891   4.247   1.358   4.778  0.7996  0.1029 -0.8688
  130OSM    H4S13892   4.171   1.438   4.783  0.1198 -0.5936  0.4369
  130OSM    C5S13893   4.227   1.234   4.830 -0.2411 -0.1533  0.4960
  130OSM    H5S13894   4.301   1.153   4.819  1.6050  1.0327  2.8869
  130OSM    C6S13895   4.110   1.183   4.903  0.4125 -0.0691 -0.7728
  130OSM    H6S13896   4.142   1.115   4.985  1.0176 -1.9167 -2.4684
  130OSM    H6T13897   4.042   1.126   4.836 -2.0096 -0.0565  1.4919
  130OSM    C7S13898   4.029   1.301   4.968 -0.4212  0.7498  0.1119
  130OSM    H7S13899   3.984   1.378   4.901  0.4821  0.6766 -0.5975
  130OSM    H7T13900   4.087   1.365   5.037 -1.2656  1.5533  0.0984
  130OSM    C8S13901   3.910   1.249   5.051  0.0957  0.0013 -0.0877
  130OSM    H8S13902   3.856   1.340   5.082 -0.9479 -0.9833  1.0864
  130OSM    H8T13903   3.947   1.187   5.136  1.6283  0.3433 -0.4704
  130OSM    C9S13904   3.823   1.150   4.968  0.9119 -0.0692 -0.2295
  130OSM    H9S13905   3.861   1.049   4.941  0.4704  0.0174 -1.2099
  130OSM    H9T13906   3.809   1.203   4.872 -1.6897  0.5349  0.3942
  130OSM   C10S13907   3.682   1.134   5.024 -0.8155 -0.3610 -0.1551
  130OSM   H10S13908   3.638   1.236   5.019 -0.6921 -0.3177 -0.3457
  130OSM   H10T13909   3.682   1.116   5.134 -0.9997 -0.5461 -0.1846
  130OSM   C11S13910   3.609   1.035   4.935 -1.0061 -0.2282  0.0683
  130OSM   H11S13911   3.633   0.930   4.960 -0.3562  0.0505  0.6462
  130OSM   H11T13912   3.642   1.040   4.830  1.3703  0.7113  0.7955
  130OSM   C12S13913   3.456   1.046   4.943 -0.3512 -0.0234  0.7349
  130OSM   H12S13914   3.417   1.009   4.846  1.1568  1.1369 -0.3568
  130OSM   H12T13915   3.425   1.151   4.963  2.0715  1.2995 -1.7322
  130OSM   C13S13916   3.396   0.953   5.051  0.2303 -0.0963 -0.1513
  130OSM   H13S13917   3.401   0.848   5.017  1.4348 -0.0934 -0.0117
  130OSM   H13T13918   3.288   0.975   5.064 -0.3926 -3.5638  1.3839
  130OSM   C14S13919   3.453   0.962   5.197  0.0212  0.4616  0.1721
  130OSM   H14S13920   3.428   1.061   5.242  1.2073  1.8127 -1.9372
  130OSM   H14T13921   3.563   0.948   5.199 -0.1493 -1.1975 -0.7012
  130OSM   C15S13922   3.386   0.857   5.287 -0.4926 -0.1544  0.7411
  130OSM   H15S13923   3.455   0.842   5.373 -0.4239  0.4189  0.7905
  130OSM   H15T13924   3.387   0.753   5.248 -0.7059  0.4410 -0.9272
  130OSM   C16S13925   3.257   0.900   5.348 -0.0265 -0.4452 -0.5649
  130OSM   H16S13926   3.179   0.924   5.274 -0.4882 -1.0232 -0.2677
  130OSM   H16T13927   3.274   0.995   5.404 -1.2258 -0.5345 -0.0262
  130OSM   C17S13928   3.199   0.794   5.448  0.7043 -0.4309 -0.5136
  130OSM   H17S13929   3.197   0.695   5.397 -0.2467 -0.4043 -0.5470
  130OSM   H17T13930   3.093   0.823   5.458  0.0358 -1.9989 -2.3211
  130OSM   C18S13931   3.265   0.778   5.580 -0.5892  0.1951 -0.1298
  130OSM   H18S13932   3.353   0.709   5.578 -0.9512 -0.2742 -0.0500
  130OSM   H18T13933   3.198   0.726   5.651  1.3338  0.4509  1.9866
  130OSM   H18U13934   3.302   0.872   5.624  1.0753 -1.5516  2.4849
  130OSM    C1F13935   4.542   1.576   4.977 -0.2760  0.1779 -0.0097
  130OSM     OF13936   4.531   1.693   4.951 -0.0087 -0.1047  0.1274
  130OSM    C2F13937   4.616   1.530   5.099 -0.0194  0.3689  0.2652
  130OSM    H2F13938   4.726   1.542   5.087 -0.1565  0.1224 -1.4978
  130OSM    H2G13939   4.584   1.424   5.113  1.6758 -0.1832  0.2195
  130OSM    C3F13940   4.567   1.608   5.218 -0.2029  0.6486  0.4159
  130OSM    H3F13941   4.594   1.714   5.198  2.0446 -0.1595 -1.3541
  130OSM    H3G13942   4.638   1.592   5.302  0.8371  1.2600 -0.3260
  130OSM    C4F13943   4.427   1.585   5.266  0.5603  0.1429  0.1993
  130OSM    H4F13944   4.362   1.567   5.179 -0.7923  0.4311  1.1242
  130OSM    H4G13945   4.386   1.677   5.313  1.1012  0.3684  0.2478
  130OSM    C5F13946   4.407   1.454   5.343 -0.2366 -0.5547  0.6119
  130OSM    H5F13947   4.494   1.447   5.411  0.3538  0.0943 -0.0538
  130OSM    H5G13948   4.420   1.367   5.275  0.6292  0.3034 -0.3586
  130OSM    C6F13949   4.277   1.453   5.418  0.1479  0.2152  0.2266
  130OSM    H6F13950   4.196   1.465   5.344 -1.6319 -0.6471  1.9463
  130OSM    H6G13951   4.267   1.542   5.484  2.9732  0.9449 -0.2014
  130OSM    C7F13952   4.249   1.320   5.491 -1.0625 -0.2339 -0.4718
  130OSM    H7F13953   4.335   1.297   5.557 -0.2198  1.0773 -1.0728
  130OSM    H7G13954   4.247   1.241   5.413 -0.3056  1.0784 -1.8673
  130OSM    C8F13955   4.122   1.310   5.569 -0.6256 -0.2691 -0.3222
  130OSM    H8F13956   4.124   1.204   5.603 -0.0113 -0.0025  0.5349
  130OSM    H8G13957   4.034   1.326   5.503  0.3389  0.5441 -1.4505
  130OSM    C9F13958   4.114   1.402   5.689 -0.1921  0.4179 -0.7585
  130OSM    H9F13959   4.085   1.503   5.656 -0.5855  0.8682  0.8669
  130OSM   C10F13960   4.129   1.376   5.818 -0.9898 -0.4453  0.9071
  130OSM   H10F13961   4.114   1.448   5.900  0.2560  1.8429 -0.7698
  130OSM   C11F13962   4.167   1.240   5.874  0.0899 -0.2099  0.3579
  130OSM   H11F13963   4.251   1.256   5.945  0.3939 -0.5284  0.0680
  130OSM   H11G13964   4.210   1.174   5.796 -0.8343  0.6628 -0.9326
  130OSM   C12F13965   4.049   1.167   5.952 -0.4176  0.1764  0.6957
  130OSM   H12F13966   3.991   1.118   5.870  3.4329 -0.7166 -1.7669
  130OSM   H12G13967   3.998   1.249   6.006  0.0144 -0.2808  1.8501
  130OSM   C13F13968   4.095   1.059   6.048 -0.3940 -0.4458  0.5534
  130OSM   H13F13969   4.174   1.002   5.994  0.1800  0.8262 -0.0086
  130OSM   H13G13970   4.012   0.989   6.070  0.3306 -1.2375  0.8153
  130OSM   C14F13971   4.151   1.112   6.172  0.3002 -0.5842 -0.0443
  130OSM   H14F13972   4.066   1.154   6.230 -0.6733 -1.8242 -0.5269
  130OSM   H14G13973   4.228   1.192   6.169 -0.1475 -0.1768 -2.1889
  130OSM   C15F13974   4.215   0.995   6.259 -0.1993  0.4469  0.3910
  130OSM   H15F13975   4.299   0.953   6.201 -0.0351  1.0881  0.1602
  130OSM   H15G13976   4.147   0.907   6.265  1.2044 -0.6093  1.6639
  130OSM   C16F13977   4.278   1.031   6.395 -0.0575  0.0480 -0.4517
  130OSM   H16F13978   4.189   1.028   6.462 -0.3871 -0.6549 -0.9005
  130OSM   H16G13979   4.329   1.130   6.399  0.5962 -0.3145  0.5691
  130OSM   C17F13980   4.366   0.916   6.436  0.4459  0.4908  0.1929
  130OSM   H17F13981   4.437   0.905   6.351  0.4788 -0.7649  0.3562
  130OSM   H17G13982   4.296   0.830   6.434  1.0359  0.0299 -0.8890
  130OSM   C18F13983   4.442   0.940   6.569 -0.2487  0.4912  0.0539
  130OSM   H18F13984   4.372   0.990   6.638 -0.0200  2.5781 -1.1271
  130OSM   H18G13985   4.536   0.998   6.559  0.3616 -0.4735  0.0350
  130OSM   H18H13986   4.474   0.843   6.611  0.9773  0.1704 -1.4885
  131OSM      N13987   2.296   0.004   3.607 -0.1600 -1.2434  0.3602
  131OSM    C1513988   2.355   0.030   3.478 -0.4864  0.8213  0.3007
  131OSM   H15A13989   2.347   0.131   3.441  2.3657  0.5969 -1.2566
  131OSM   H15B13990   2.317  -0.032   3.398  0.6160 -0.3595  0.6452
  131OSM   H15C13991   2.462   0.014   3.475 -0.8068 -2.3526  1.5011
  131OSM    C1413992   2.146   0.033   3.587  0.1998 -0.0336  0.5758
  131OSM   H14A13993   2.090   0.012   3.677 -1.1663  2.2242  0.3087
  131OSM   H14B13994   2.112  -0.041   3.516  0.9887 -0.7023  0.8691
  131OSM   H14C13995   2.127   0.134   3.556 -1.5649  0.3710  2.7684
  131OSM    C1313996   2.316  -0.138   3.653  0.3680  0.4656  0.2761
  131OSM   H13A13997   2.311  -0.216   3.578 -0.2119  0.0288  0.7561
  131OSM   H13B13998   2.251  -0.158   3.737 -2.9203 -0.8515 -2.3379
  131OSM   H13C13999   2.414  -0.144   3.698 -0.3904  0.8584  2.0498
  131OSM    C1214000   2.352   0.110   3.708 -0.7645  0.1667  0.0674
  131OSM   H12A14001   2.332   0.209   3.669 -1.2738 -0.0416 -0.2178
  131OSM   H12B14002   2.457   0.089   3.719 -1.1887 -0.9013  2.8123
  131OSM    C1114003   2.291   0.094   3.859  0.7643 -0.2150 -0.0371
  131OSM   H11A14004   2.181   0.095   3.845  0.4919  2.1033  1.7207
  131OSM   H11B14005   2.323   0.185   3.913  0.2134  0.5844 -1.0116
  131OSM      P14006   2.289  -0.109   4.031 -0.7176 -0.3052  0.5845
  131OSM    O1314007   2.151  -0.160   3.992 -0.3286 -0.3550 -0.2275
  131OSM    O1414008   2.385  -0.207   4.085 -0.2307  0.7943  0.1430
  131OSM    O1114009   2.258   0.002   4.149 -0.6900 -0.0701 -0.2850
  131OSM    O1214010   2.346  -0.028   3.914 -0.5902  0.2751  0.7890
  131OSM    C1S14011   2.373   0.076   4.198  0.8445  0.3372  0.3503
  131OSM    H1S14012   2.386   0.164   4.132  2.6892  0.1542  0.4400
  131OSM    H1T14013   2.465   0.014   4.195 -1.3098 -3.3771  2.3583
  131OSM     NF14014   2.424   0.247   4.374  0.2679  0.3238  0.5958
  131OSM    HNF14015   2.522   0.247   4.393  0.5780 -0.4431 -0.8252
  131OSM    C2S14016   2.358   0.119   4.346  0.2449 -0.1403  0.4344
  131OSM    H2S14017   2.251   0.143   4.361  0.4821  1.4557 -0.2334
  131OSM    C3S14018   2.398   0.004   4.437  0.2025  0.4865  0.4496
  131OSM    H3S14019   2.502  -0.027   4.413  0.2838  1.6274 -0.8623
  131OSM     O314020   2.311  -0.103   4.416 -0.3745  0.0962  0.4541
  131OSM    HO314021   2.263  -0.076   4.337 -0.5011 -0.5844  0.2970
  131OSM    C4S14022   2.381   0.050   4.579 -0.6260  0.6130 -0.3278
  131OSM    H4S14023   2.281   0.090   4.599 -0.9897 -0.3213 -0.2139
  131OSM    C5S14024   2.480   0.039   4.677 -0.0708  0.5211  0.3803
  131OSM    H5S14025   2.560  -0.030   4.647 -1.2232 -0.5205 -0.3994
  131OSM    C6S14026   2.459   0.060   4.824 -0.9454 -0.1191 -0.0050
  131OSM    H6S14027   2.353   0.092   4.834 -1.3407 -1.8787  2.3996
  131OSM    H6T14028   2.525   0.143   4.856  1.1629 -0.9514 -1.9151
  131OSM    C7S14029   2.483  -0.062   4.919 -0.2604 -0.6994  0.5554
  131OSM    H7S14030   2.591  -0.089   4.920 -0.2197 -0.5373  0.7062
  131OSM    H7T14031   2.417  -0.143   4.882  1.6074 -1.8511 -0.4239
  131OSM    C8S14032   2.437  -0.024   5.062 -0.4608 -0.3432 -0.5244
  131OSM    H8S14033   2.326  -0.030   5.061 -0.5182 -0.0567  0.8564
  131OSM    H8T14034   2.463   0.080   5.091  0.2829 -1.0185  1.4267
  131OSM    C9S14035   2.501  -0.113   5.172  0.3044  0.5333  0.1791
  131OSM    H9S14036   2.609  -0.093   5.157  0.1072  1.2542 -0.3233
  131OSM    H9T14037   2.483  -0.220   5.145  1.2729  0.2616  0.5708
  131OSM   C10S14038   2.439  -0.073   5.310  0.1840  0.1669 -0.2235
  131OSM   H10S14039   2.328  -0.077   5.301  0.2337 -2.1578 -0.4786
  131OSM   H10T14040   2.466   0.028   5.346  2.5637 -0.0069 -1.3025
  131OSM   C11S14041   2.489  -0.176   5.413  0.8541  0.3581  0.5274
  131OSM   H11S14042   2.600  -0.182   5.409  0.7770 -1.3779  0.2190
  131OSM   H11T14043   2.448  -0.276   5.387 -0.9677  1.5967 -1.8028
  131OSM   C12S14044   2.439  -0.139   5.559  0.2611 -0.3673  0.8283
  131OSM   H12S14045   2.330  -0.122   5.566  0.1557 -0.7124  0.1147
  131OSM   H12T14046   2.483  -0.038   5.573  0.4808 -0.2341 -0.6495
  131OSM   C13S14047   2.469  -0.246   5.664 -0.1860  0.2516 -0.7551
  131OSM   H13S14048   2.573  -0.239   5.702 -0.6516  1.3431  0.3853
  131OSM   H13T14049   2.466  -0.343   5.610 -0.9029 -1.1583  1.6568
  131OSM   C14S14050   2.375  -0.259   5.782  0.5770 -0.2829 -0.1938
  131OSM   H14S14051   2.403  -0.356   5.829  0.5785 -0.7457 -1.1223
  131OSM   H14T14052   2.276  -0.269   5.732  1.1103  0.4542 -1.4429
  131OSM   C15S14053   2.392  -0.142   5.879 -0.1445 -0.6744  0.2108
  131OSM   H15S14054   2.375  -0.047   5.825 -1.0215 -0.5527  0.6762
  131OSM   H15T14055   2.498  -0.147   5.912  0.3929  1.7289 -0.9994
  131OSM   C16S14056   2.296  -0.160   6.000 -0.0861  0.0517  0.4476
  131OSM   H16S14057   2.351  -0.219   6.076  0.0654 -0.5628 -0.1251
  131OSM   H16T14058   2.199  -0.208   5.978  0.3697 -0.2683 -1.0073
  131OSM   C17S14059   2.269  -0.022   6.060  0.4122  0.1325  0.3698
  131OSM   H17S14060   2.208   0.043   5.993 -1.2108 -2.4545 -0.7793
  131OSM   H17T14061   2.361   0.031   6.094  0.0978 -0.5481  2.3856
  131OSM   C18S14062   2.195  -0.031   6.186 -0.1714  0.3783 -0.2454
  131OSM   H18S14063   2.193   0.063   6.245 -0.2566 -0.5952  1.3765
  131OSM   H18T14064   2.245  -0.099   6.259  1.8786  0.7844 -1.2124
  131OSM   H18U14065   2.089  -0.058   6.166  0.2881 -0.7609 -1.2925
  131OSM    C1F14066   2.377   0.369   4.327  0.9508 -0.7189 -0.7346
  131OSM     OF14067   2.270   0.375   4.261 -0.0321  0.5413  0.4567
  131OSM    C2F14068   2.457   0.497   4.365  0.4312 -0.1958  0.6466
  131OSM    H2F14069   2.469   0.556   4.272  0.0616 -0.3066  0.5261
  131OSM    H2G14070   2.554   0.467   4.410  0.7893 -1.4117 -0.8546
  131OSM    C3F14071   2.376   0.592   4.461 -0.2903  0.0494  0.0662
  131OSM    H3F14072   2.306   0.657   4.404 -0.3760  0.6869  0.8764
  131OSM    H3G14073   2.447   0.664   4.507 -0.1415 -0.0608  0.0113
  131OSM    C4F14074   2.303   0.529   4.583  0.3057  0.4409  0.1084
  131OSM    H4F14075   2.243   0.441   4.552  0.2040  0.7733 -0.6529
  131OSM    H4G14076   2.233   0.601   4.631 -2.0804 -0.4299 -1.8309
  131OSM    C5F14077   2.389   0.477   4.703 -0.4070 -0.1669 -0.2314
  131OSM    H5F14078   2.464   0.550   4.740  0.5449 -1.0490 -0.3581
  131OSM    H5G14079   2.454   0.392   4.671 -0.8500 -0.5150 -0.2272
  131OSM    C6F14080   2.314   0.440   4.827  0.9807 -0.2352  0.3850
  131OSM    H6F14081   2.256   0.350   4.799  0.5887  0.0313  0.3327
  131OSM    H6G14082   2.246   0.525   4.847  0.5292  0.1182 -2.2121
  131OSM    C7F14083   2.403   0.424   4.959  0.3210  0.4328 -0.3306
  131OSM    H7F14084   2.469   0.513   4.969  1.1970 -0.4463  2.8668
  131OSM    H7G14085   2.465   0.332   4.959 -0.4337 -0.0994  0.4335
  131OSM    C8F14086   2.316   0.414   5.085  0.1660 -0.4631 -0.2750
  131OSM    H8F14087   2.256   0.507   5.098 -1.2386 -1.5418  1.2373
  131OSM    H8G14088   2.386   0.401   5.170  1.6461 -2.2767 -1.6806
  131OSM    C9F14089   2.206   0.309   5.073 -0.6347  0.2979 -1.2379
  131OSM    H9F14090   2.193   0.244   4.985 -0.1251 -0.6700 -0.6197
  131OSM   C10F14091   2.140   0.273   5.181  0.0791  0.0228 -0.1835
  131OSM   H10F14092   2.061   0.196   5.173  0.0717 -0.1230  1.0913
  131OSM   C11F14093   2.155   0.327   5.323 -0.4499 -0.3510  0.4575
  131OSM   H11F14094   2.065   0.316   5.387  0.0383 -0.7715  1.0791
  131OSM   H11G14095   2.185   0.434   5.321 -0.9161 -0.2035 -1.6997
  131OSM   C12F14096   2.259   0.242   5.402  0.1682 -0.8654 -1.0418
  131OSM   H12F14097   2.357   0.216   5.356  0.6421 -0.6889 -0.1537
  131OSM   H12G14098   2.213   0.147   5.435  0.6074 -0.0962  2.2172
  131OSM   C13F14099   2.282   0.320   5.536 -0.4714  0.0136 -0.3390
  131OSM   H13F14100   2.182   0.327   5.584  0.1648 -0.4679  1.1134
  131OSM   H13G14101   2.326   0.422   5.526  0.0819 -0.2308 -0.4714
  131OSM   C14F14102   2.358   0.231   5.641  0.0554 -1.1759 -0.5836
  131OSM   H14F14103   2.463   0.232   5.605  0.5935 -0.1464  0.9366
  131OSM   H14G14104   2.319   0.127   5.635 -1.2878 -0.6805 -1.0023
  131OSM   C15F14105   2.372   0.285   5.788  0.4416 -0.3515 -0.4823
  131OSM   H15F14106   2.412   0.389   5.783  0.4810 -0.1629  2.0830
  131OSM   H15G14107   2.439   0.223   5.851  0.2699 -3.2205 -2.9209
  131OSM   C16F14108   2.236   0.303   5.863  0.5458 -0.5395 -0.1548
  131OSM   H16F14109   2.171   0.213   5.865  0.3723 -0.4097  1.1244
  131OSM   H16G14110   2.164   0.380   5.827  1.3748  1.5393  2.3136
  131OSM   C17F14111   2.254   0.359   6.008  0.0205  0.0141  0.5646
  131OSM   H17F14112   2.310   0.455   6.001 -2.8976  1.8698  0.8386
  131OSM   H17G14113   2.322   0.290   6.062 -0.5409 -0.2765  0.9024
  131OSM   C18F14114   2.127   0.352   6.091 -0.7198  0.0907  0.0132
  131OSM   H18F14115   2.042   0.400   6.038 -0.9515  1.2863  1.4024
  131OSM   H18G14116   2.139   0.412   6.183 -1.6372 -0.1100  0.2723
  131OSM   H18H14117   2.108   0.247   6.123 -0.8315  0.3285  0.7461
  132OSM      N14118   0.786   6.923   3.802 -0.7227 -0.5585 -0.3790
  132OSM    C1514119   0.684   6.835   3.740 -0.2301  0.1056  0.6834
  132OSM   H15A14120   0.589   6.863   3.783 -0.2302 -2.4664  2.6163
  132OSM   H15B14121   0.697   6.729   3.760  2.3042  0.0253 -0.9438
  132OSM   H15C14122   0.693   6.838   3.633  1.7734 -0.9353  0.7628
  132OSM    C1414123   0.763   7.062   3.763  0.3652 -0.0711 -0.3450
  132OSM   H14A14124   0.677   7.100   3.816  0.5753 -1.0260  0.7147
  132OSM   H14B14125   0.749   7.065   3.656 -1.5231  1.2325 -0.0979
  132OSM   H14C14126   0.847   7.126   3.788  0.8091 -1.5921  2.5756
  132OSM    C1314127   0.772   6.907   3.955 -0.0444  0.0755  0.8801
  132OSM   H13A14128   0.795   6.805   3.980  2.8133  0.7207  1.2244
  132OSM   H13B14129   0.669   6.924   3.985 -0.5951 -0.9971 -0.3049
  132OSM   H13C14130   0.849   6.965   4.004  0.4377  1.1546 -1.0195
  132OSM    C1214131   0.926   6.882   3.753  0.3181  0.0563  0.2946
  132OSM   H12A14132   0.998   6.955   3.787 -0.3437  0.1314  1.6205
  132OSM   H12B14133   0.928   6.895   3.646 -0.1850 -2.5665 -0.1173
  132OSM    C1114134   0.989   6.747   3.782  0.1994 -0.0340 -0.1320
  132OSM   H11A14135   1.060   6.720   3.700 -1.6186  0.1197 -1.8100
  132OSM   H11B14136   0.919   6.661   3.773  0.3555 -0.0842 -1.0534
  132OSM      P14137   1.205   6.770   3.926 -0.0761 -0.2905 -0.1570
  132OSM    O1314138   1.269   6.637   3.902 -0.4567  1.1410  0.7490
  132OSM    O1414139   1.245   6.881   3.841 -0.3046 -0.0169  0.0127
  132OSM    O1114140   1.226   6.821   4.075 -0.1494  0.3298 -0.9414
  132OSM    O1214141   1.051   6.756   3.911  0.1197 -0.3448 -0.5710
  132OSM    C1S14142   1.112   6.801   4.159  0.3622 -0.5860  0.0573
  132OSM    H1S14143   1.064   6.703   4.140  1.8698 -0.8396 -3.3787
  132OSM    H1T14144   1.042   6.886   4.143  0.4553 -0.9794 -3.2422
  132OSM     NF14145   1.055   6.772   4.412 -0.7759 -0.4156 -0.2610
  132OSM    HNF14146   1.011   6.849   4.458  1.0762 -0.3503  1.5400
  132OSM    C2S14147   1.156   6.810   4.314  0.0586  0.4483 -0.1810
  132OSM    H2S14148   1.227   6.726   4.325 -0.0127  0.4745  0.4937
  132OSM    C3S14149   1.237   6.946   4.344 -0.3192 -0.4944  0.3762
  132OSM    H3S14150   1.169   7.034   4.342 -1.2073 -1.1307  1.5765
  132OSM     O314151   1.337   6.980   4.245  0.0415 -0.0028 -0.6016
  132OSM    HO314152   1.328   6.916   4.173  1.2670  1.4029 -2.0888
  132OSM    C4S14153   1.306   6.960   4.481 -0.1131  0.6659 -0.1363
  132OSM    H4S14154   1.244   7.016   4.553  0.8630  0.6523  0.7366
  132OSM    C5S14155   1.430   6.932   4.519  0.1854  0.5828  0.0408
  132OSM    H5S14156   1.505   6.905   4.444 -0.6574 -0.3606 -0.4825
  132OSM    C6S14157   1.485   6.940   4.663  0.2466 -0.6059  0.2430
  132OSM    H6S14158   1.563   7.019   4.662  0.3412 -0.6953  0.5654
  132OSM    H6T14159   1.535   6.842   4.684  2.0049 -0.2111 -1.6875
  132OSM    C7S14160   1.389   6.977   4.772  0.1744  1.0694 -0.1324
  132OSM    H7S14161   1.302   6.909   4.764  0.1220  1.0960  0.2038
  132OSM    H7T14162   1.355   7.081   4.757  1.0350  1.3952  0.1375
  132OSM    C8S14163   1.432   6.961   4.920  0.7965  0.4393  1.1770
  132OSM    H8S14164   1.432   6.852   4.942 -2.1587  0.2621  0.7042
  132OSM    H8T14165   1.348   7.004   4.978  0.7187  2.0980 -0.0912
  132OSM    C9S14166   1.571   7.023   4.943  0.3304  0.2689  0.4778
  132OSM    H9S14167   1.564   7.131   4.917  1.1462 -0.3981 -2.9460
  132OSM    H9T14168   1.646   6.970   4.880 -0.9122  1.2513 -1.9339
  132OSM   C10S14169   1.627   7.011   5.082 -0.1771 -0.2453 -0.4053
  132OSM   H10S14170   1.718   7.074   5.097 -0.4849  1.2893 -4.0823
  132OSM   H10T14171   1.659   6.909   5.112 -0.2049 -0.3120 -0.6023
  132OSM   C11S14172   1.529   7.061   5.194  0.3869  0.0891 -0.2611
  132OSM   H11S14173   1.432   7.007   5.183 -0.2949  1.4689 -1.3394
  132OSM   H11T14174   1.506   7.168   5.181 -4.0434 -0.9352 -3.0084
  132OSM   C12S14175   1.601   7.074   5.328 -0.6023  0.5873 -0.7552
  132OSM   H12S14176   1.549   7.137   5.403 -0.9726 -0.2904 -0.2531
  132OSM   H12T14177   1.699   7.123   5.312 -0.0676 -0.6618 -1.4597
  132OSM   C13S14178   1.618   6.932   5.396  0.7677  0.1872  0.2635
  132OSM   H13S14179   1.693   6.959   5.473  0.4635  3.0153 -0.3383
  132OSM   H13T14180   1.655   6.853   5.327  1.3808  0.2813  0.4771
  132OSM   C14S14181   1.490   6.882   5.458  0.0974  0.1240 -0.3347
  132OSM   H14S14182   1.470   6.773   5.447 -3.1322  0.7333 -1.5262
  132OSM   H14T14183   1.401   6.935   5.419 -1.7555 -0.9795  2.0928
  132OSM   C15S14184   1.483   6.923   5.603 -0.4742  0.8983  0.5206
  132OSM   H15S14185   1.519   7.028   5.610 -2.2915  1.4659  1.8304
  132OSM   H15T14186   1.552   6.855   5.659  0.5284  1.3006 -0.1901
  132OSM   C16S14187   1.344   6.921   5.659  0.8182  0.8424 -0.2648
  132OSM   H16S14188   1.300   6.819   5.653 -0.1161  1.1700  0.8316
  132OSM   H16T14189   1.282   6.994   5.604 -1.5834 -0.2448  0.8838
  132OSM   C17S14190   1.339   6.948   5.810  0.0496 -0.7898  0.4561
  132OSM   H17S14191   1.398   6.866   5.855 -1.2321 -2.8020 -1.3505
  132OSM   H17T14192   1.234   6.932   5.842 -0.5924  0.3133 -0.9649
  132OSM   C18S14193   1.388   7.078   5.856 -0.9709 -0.0970  0.1717
  132OSM   H18S14194   1.385   7.152   5.773  0.4472 -0.9246 -0.6580
  132OSM   H18T14195   1.490   7.069   5.898  0.0793  4.1220 -1.0140
  132OSM   H18U14196   1.329   7.138   5.930  0.1874  2.5629 -0.9274
  132OSM    C1F14197   1.009   6.649   4.438 -0.7542 -0.3186 -0.4510
  132OSM     OF14198   1.075   6.553   4.389  0.2588 -0.0540 -0.4417
  132OSM    C2F14199   0.892   6.642   4.532 -0.0037 -0.2151  0.1986
  132OSM    H2F14200   0.810   6.585   4.484  1.1297 -0.9526 -0.9111
  132OSM    H2G14201   0.850   6.741   4.560 -2.6839 -1.9831  3.1938
  132OSM    C3F14202   0.938   6.595   4.671  0.1390  0.0191  0.3113
  132OSM    H3F14203   1.014   6.672   4.698  2.7641 -2.0221 -0.8565
  132OSM    H3G14204   0.994   6.499   4.669 -0.3029 -0.3446  2.6104
  132OSM    C4F14205   0.821   6.585   4.774 -0.0927  0.0714  0.7261
  132OSM    H4F14206   0.726   6.540   4.737 -0.8256  1.3885  0.9457
  132OSM    H4G14207   0.806   6.691   4.801 -0.3453  0.7727 -1.9090
  132OSM    C5F14208   0.867   6.496   4.899 -0.2919  0.3131  0.5560
  132OSM    H5F14209   0.968   6.538   4.916 -0.3782  0.6582  0.2220
  132OSM    H5G14210   0.875   6.387   4.875  0.5999  0.4828  0.0379
  132OSM    C6F14211   0.784   6.520   5.016 -0.0093 -0.2965 -0.1762
  132OSM    H6F14212   0.681   6.482   4.996 -0.2814 -0.7204  1.7978
  132OSM    H6G14213   0.778   6.629   5.036 -0.1118  0.1653 -2.4198
  132OSM    C7F14214   0.833   6.444   5.141  0.4213  0.2047 -0.3573
  132OSM    H7F14215   0.933   6.482   5.170  0.3718  0.6887 -0.8032
  132OSM    H7G14216   0.852   6.337   5.122 -0.5389 -0.3289  1.4406
  132OSM    C8F14217   0.736   6.454   5.261 -0.8279 -0.6250  0.3700
  132OSM    H8F14218   0.768   6.371   5.328  0.1317 -1.2945 -0.8713
  132OSM    H8G14219   0.635   6.428   5.221 -0.6177  1.8389 -2.0852
  132OSM    C9F14220   0.729   6.584   5.338 -0.1656  0.0177  0.4306
  132OSM    H9F14221   0.672   6.667   5.295 -0.9592 -1.0044 -0.5256
  132OSM   C10F14222   0.774   6.605   5.458 -0.4879  0.1679 -0.1814
  132OSM   H10F14223   0.752   6.701   5.506  0.4590 -0.1257  0.8762
  132OSM   C11F14224   0.858   6.513   5.541 -0.2969 -0.4035 -0.0933
  132OSM   H11F14225   0.888   6.427   5.478  0.5568  0.1658 -0.4818
  132OSM   H11G14226   0.789   6.493   5.627 -1.6432  0.8469 -0.8453
  132OSM   C12F14227   0.983   6.576   5.601 -0.0982 -0.1970  0.4818
  132OSM   H12F14228   0.953   6.652   5.676 -0.3750  0.1889 -0.0147
  132OSM   H12G14229   1.040   6.629   5.522  0.7712 -1.8738 -0.0765
  132OSM   C13F14230   1.083   6.465   5.646 -0.1785 -0.1970  0.2456
  132OSM   H13F14231   1.086   6.383   5.571  1.4062  0.9039 -0.9816
  132OSM   H13G14232   1.037   6.410   5.730 -0.8845  1.1189  0.7543
  132OSM   C14F14233   1.230   6.510   5.670  0.3522 -0.4683 -0.9707
  132OSM   H14F14234   1.235   6.571   5.763 -2.3909  1.3076 -1.8759
  132OSM   H14G14235   1.268   6.583   5.596  0.9900 -0.1734 -0.3697
  132OSM   C15F14236   1.326   6.394   5.661  0.3130 -0.3513 -0.3690
  132OSM   H15F14237   1.319   6.360   5.555 -0.3164 -1.6378  0.0641
  132OSM   H15G14238   1.301   6.301   5.715 -0.0745  0.1216  0.2696
  132OSM   C16F14239   1.467   6.443   5.687 -0.7373 -0.4404 -0.3913
  132OSM   H16F14240   1.464   6.490   5.788  0.9428 -0.2351 -0.4085
  132OSM   H16G14241   1.494   6.510   5.603 -1.3607 -0.9028 -0.9751
  132OSM   C17F14242   1.566   6.324   5.697  0.2460  0.3770  0.7071
  132OSM   H17F14243   1.539   6.248   5.773  0.8050  0.2698  0.7980
  132OSM   H17G14244   1.666   6.362   5.726  2.1182 -2.3308 -1.6831
  132OSM   C18F14245   1.593   6.262   5.564 -0.3108 -0.0695  0.9402
  132OSM   H18F14246   1.504   6.240   5.502  0.2690 -0.2725  0.1740
  132OSM   H18G14247   1.665   6.179   5.576  1.4797  0.3957 -4.1230
  132OSM   H18H14248   1.645   6.336   5.499 -1.6291 -1.2175 -1.5494
  133OSM      N14249   6.780   0.929   3.735  0.8322  0.1098 -0.1406
  133OSM    C1514250   6.911   0.956   3.797  0.5306  0.8944 -0.0305
  133OSM   H15A14251   6.978   0.873   3.777 -2.8709 -1.3784 -3.3896
  133OSM   H15B14252   6.898   0.971   3.904  0.7699 -2.2552  0.5358
  133OSM   H15C14253   6.964   1.039   3.753  1.4420 -0.1100 -0.8661
  133OSM    C1414254   6.689   1.046   3.768 -0.6611  0.1236 -0.1969
  133OSM   H14A14255   6.690   1.074   3.873  0.7885 -1.0367  0.1243
  133OSM   H14B14256   6.588   1.019   3.738 -0.9333  2.7975 -1.9582
  133OSM   H14C14257   6.723   1.131   3.712 -0.4873 -0.1751 -0.5460
  133OSM    C1314258   6.792   0.926   3.583  0.0570 -0.1393  0.1485
  133OSM   H13A14259   6.799   1.022   3.535  0.5463 -0.4999 -0.5214
  133OSM   H13B14260   6.705   0.881   3.538 -0.5150  0.2558  0.8423
  133OSM   H13C14261   6.876   0.867   3.549  1.9201  2.4402  0.0345
  133OSM    C1214262   6.712   0.800   3.798  0.3907 -0.1569 -0.2798
  133OSM   H12A14263   6.776   0.718   3.768  1.2771  0.8348 -1.2138
  133OSM   H12B14264   6.617   0.791   3.747  0.1248  2.4080 -0.3471
  133OSM    C1114265   6.698   0.807   3.955  0.2317  0.8159 -0.5783
  133OSM   H11A14266   6.623   0.727   3.972 -1.0329  1.6656 -1.9171
  133OSM   H11B14267   6.648   0.897   3.998  1.7178  2.0278 -1.2997
  133OSM      P14268   6.864   0.643   4.059 -0.1160 -0.1873 -0.2831
  133OSM    O1314269   6.852   0.564   3.940  0.6666  0.4431 -0.9416
  133OSM    O1414270   6.989   0.647   4.138  0.0553  0.2742 -0.2981
  133OSM    O1114271   6.753   0.600   4.159  0.1036 -0.0337  0.1567
  133OSM    O1214272   6.821   0.788   4.027 -0.1665 -0.1506 -0.2358
  133OSM    C1S14273   6.726   0.689   4.269 -0.5740  0.5200  0.2251
  133OSM    H1S14274   6.662   0.775   4.242 -0.8725 -0.3998 -2.1844
  133OSM    H1T14275   6.823   0.731   4.305  0.4365 -1.3066 -0.2408
  133OSM     NF14276   6.617   0.686   4.504 -0.0703 -0.3339  1.0471
  133OSM    HNF14277   6.673   0.702   4.584  1.6868 -0.6409 -0.0628
  133OSM    C2S14278   6.681   0.604   4.391  0.1065  0.0440  0.2651
  133OSM    H2S14279   6.602   0.537   4.352  0.3966 -0.2088  0.1041
  133OSM    C3S14280   6.794   0.507   4.438 -0.1406 -0.5908  0.6594
  133OSM    H3S14281   6.870   0.579   4.475  0.1835 -0.4056 -0.3336
  133OSM     O314282   6.866   0.431   4.336 -0.4097  0.6349  0.2142
  133OSM    HO314283   6.826   0.469   4.258  0.0410  1.5404  0.4089
  133OSM    C4S14284   6.771   0.422   4.558 -0.0177  0.7052  0.4155
  133OSM    H4S14285   6.699   0.343   4.531 -0.2603  1.3198 -0.8358
  133OSM    C5S14286   6.825   0.438   4.683 -0.1428 -0.4307 -0.0640
  133OSM    H5S14287   6.881   0.530   4.707  1.0559 -0.8991 -0.9759
  133OSM    C6S14288   6.795   0.349   4.798 -0.0451 -0.2206  0.8438
  133OSM    H6S14289   6.876   0.274   4.810 -0.1559 -0.4074  0.4424
  133OSM    H6T14290   6.703   0.288   4.786 -1.8515  2.7480 -1.9837
  133OSM    C7S14291   6.771   0.435   4.916  0.5588 -0.0643 -0.6719
  133OSM    H7S14292   6.700   0.516   4.889 -0.1599 -0.4836 -0.0862
  133OSM    H7T14293   6.866   0.486   4.942  1.0983  0.4842 -3.4173
  133OSM    C8S14294   6.723   0.353   5.040  0.0490  0.3287  0.1769
  133OSM    H8S14295   6.811   0.292   5.069  0.8668  0.7419 -1.3007
  133OSM    H8T14296   6.633   0.290   5.026  1.0994 -1.2943  0.4106
  133OSM    C9S14297   6.690   0.442   5.162  0.1521  0.1122 -0.0009
  133OSM    H9S14298   6.613   0.513   5.127 -2.2177 -2.8562 -1.3169
  133OSM    H9T14299   6.782   0.490   5.201  0.2132  0.3886 -0.4842
  133OSM   C10S14300   6.615   0.382   5.282 -0.3267 -0.2904  0.0909
  133OSM   H10S14301   6.654   0.283   5.314  0.2236 -0.4384 -1.0130
  133OSM   H10T14302   6.509   0.359   5.257 -1.2569  2.3906  1.2300
  133OSM   C11S14303   6.634   0.463   5.407 -0.1196 -0.1809  0.0288
  133OSM   H11S14304   6.593   0.566   5.396  0.2515  0.0766  0.9059
  133OSM   H11T14305   6.743   0.480   5.422 -0.1030 -1.1687  1.1700
  133OSM   C12S14306   6.576   0.399   5.534  0.7469  0.1242 -1.1080
  133OSM   H12S14307   6.645   0.313   5.545  0.3073 -0.2264 -1.1010
  133OSM   H12T14308   6.475   0.356   5.518  0.4514  1.1749 -2.3378
  133OSM   C13S14309   6.580   0.487   5.660 -0.5789  0.5664 -0.0599
  133OSM   H13S14310   6.505   0.569   5.653 -1.2412  0.0080  0.4158
  133OSM   H13T14311   6.679   0.531   5.685 -0.0038  0.3474 -1.8237
  133OSM   C14S14312   6.530   0.400   5.779 -0.2142  0.1000 -1.1390
  133OSM   H14S14313   6.601   0.317   5.798 -0.9262 -0.5694 -1.3729
  133OSM   H14T14314   6.427   0.373   5.746 -0.6665  2.2653 -1.6865
  133OSM   C15S14315   6.510   0.466   5.913 -0.0114  0.2127 -0.6907
  133OSM   H15S14316   6.437   0.549   5.895  2.3377  2.1251 -1.9722
  133OSM   H15T14317   6.599   0.520   5.952  0.6606  0.9829 -3.1207
  133OSM   C16S14318   6.449   0.369   6.026  0.5833 -0.5374  0.1027
  133OSM   H16S14319   6.534   0.300   6.047  0.0202 -0.4940  2.8845
  133OSM   H16T14320   6.360   0.317   5.985  1.6505 -3.2521  0.9419
  133OSM   C17S14321   6.421   0.446   6.161 -0.2908  0.2467 -0.2440
  133OSM   H17S14322   6.374   0.544   6.138  1.3062  0.7051 -1.7718
  133OSM   H17T14323   6.512   0.470   6.220 -0.2976 -1.6161  0.6043
  133OSM   C18S14324   6.335   0.372   6.272  0.5371 -0.7374 -0.0472
  133OSM   H18S14325   6.236   0.340   6.235  0.1396  0.1784  0.1885
  133OSM   H18T14326   6.339   0.436   6.363 -1.7792  0.2193 -0.5610
  133OSM   H18U14327   6.398   0.284   6.297 -0.1858 -1.5125 -0.8861
  133OSM    C1F14328   6.492   0.734   4.492 -0.0493 -0.3999  0.3192
  133OSM     OF14329   6.420   0.700   4.405 -0.1207  0.2119 -0.4194
  133OSM    C2F14330   6.458   0.837   4.590 -0.7262 -0.9638  0.0424
  133OSM    H2F14331   6.367   0.894   4.561  0.1802  0.1321 -0.7374
  133OSM    H2G14332   6.536   0.916   4.594 -0.9115 -0.8386  2.5731
  133OSM    C3F14333   6.418   0.774   4.726 -0.2327 -0.0078 -0.1184
  133OSM    H3F14334   6.510   0.739   4.779 -2.5264 -3.2459  2.0753
  133OSM    H3G14335   6.354   0.686   4.706 -0.8605  0.5860 -0.7645
  133OSM    C4F14336   6.352   0.883   4.812 -0.4307  0.0651  0.2037
  133OSM    H4F14337   6.271   0.935   4.755  0.8588  0.5006 -1.3122
  133OSM    H4G14338   6.432   0.952   4.846 -1.6611  0.9531  1.4315
  133OSM    C5F14339   6.278   0.828   4.932  0.6434 -0.0700  0.4332
  133OSM    H5F14340   6.188   0.771   4.902  1.6876 -1.2005 -0.6055
  133OSM    H5G14341   6.255   0.916   4.997  0.2368 -0.6531  1.0939
  133OSM    C6F14342   6.364   0.733   5.018  0.1071 -0.0414 -0.2416
  133OSM    H6F14343   6.462   0.774   5.050 -0.4546  0.5441  0.7740
  133OSM    H6G14344   6.385   0.650   4.946  0.8659  0.1446 -0.2382
  133OSM    C7F14345   6.288   0.670   5.141 -0.6500 -0.4494  0.0799
  133OSM    H7F14346   6.337   0.578   5.181  1.9220  0.2239 -1.3595
  133OSM    H7G14347   6.184   0.639   5.114 -1.3617  0.0453  2.0723
  133OSM    C8F14348   6.257   0.771   5.252 -0.2075  0.6059 -0.0453
  133OSM    H8F14349   6.173   0.721   5.305  1.2710 -3.1854 -0.9123
  133OSM    H8G14350   6.206   0.856   5.204 -1.9599 -0.6572 -0.5298
  133OSM    C9F14351   6.378   0.809   5.341 -0.0528  1.0648  0.7138
  133OSM    H9F14352   6.466   0.827   5.278  0.2868 -1.1036  0.5154
  133OSM   C10F14353   6.389   0.827   5.478 -0.6714 -0.3033  0.2488
  133OSM   H10F14354   6.484   0.867   5.516 -0.1424  0.3807 -1.6343
  133OSM   C11F14355   6.284   0.802   5.574  0.7823 -0.0571 -0.0731
  133OSM   H11F14356   6.281   0.692   5.589 -0.8184 -0.0456 -0.2211
  133OSM   H11G14357   6.190   0.833   5.525 -0.7824 -1.6861  1.7373
  133OSM   C12F14358   6.291   0.889   5.700 -0.2407  0.4032  0.1573
  133OSM   H12F14359   6.192   0.915   5.743  0.3735 -0.5538  2.2494
  133OSM   H12G14360   6.339   0.988   5.686  3.7342 -1.5277 -1.2376
  133OSM   C13F14361   6.392   0.829   5.810 -0.5233  0.8508 -0.3216
  133OSM   H13F14362   6.479   0.784   5.757  2.3816  2.5700  2.6393
  133OSM   H13G14363   6.323   0.753   5.853 -1.3103  1.4283 -0.5284
  133OSM   C14F14364   6.450   0.932   5.913  0.0844 -0.3863  0.0795
  133OSM   H14F14365   6.527   0.880   5.974 -1.1221 -1.0761  1.0558
  133OSM   H14G14366   6.364   0.953   5.980 -0.8978  2.3327 -1.8648
  133OSM   C15F14367   6.498   1.063   5.856 -0.3314  0.1918  0.4427
  133OSM   H15F14368   6.413   1.125   5.821  1.1905  2.6207  0.7940
  133OSM   H15G14369   6.555   1.035   5.765 -1.0769  0.3479 -0.0763
  133OSM   C16F14370   6.585   1.149   5.951  0.0550 -0.5194 -0.8648
  133OSM   H16F14371   6.622   1.243   5.905 -1.0296 -0.4859 -1.7218
  133OSM   H16G14372   6.673   1.083   5.964  1.4660  1.0215 -2.1962
  133OSM   C17F14373   6.539   1.180   6.088  0.7829 -0.0173  0.3002
  133OSM   H17F14374   6.492   1.094   6.141  2.0181  0.7213  2.7316
  133OSM   H17G14375   6.454   1.252   6.080  2.1979  2.0141  2.4669
  133OSM   C18F14376   6.642   1.235   6.188  0.1157  0.2289 -0.4298
  133OSM   H18F14377   6.581   1.232   6.280  0.9689  1.4040  0.2010
  133OSM   H18G14378   6.655   1.344   6.176 -0.1783  0.6815  2.5858
  133OSM   H18H14379   6.736   1.178   6.203  0.6534  1.5446  1.6204
  134OSM      N14380   5.101   2.324   4.014 -0.3628 -0.2814 -0.9807
  134OSM    C1514381   5.125   2.180   4.040  0.4847  0.1483 -0.7361
  134OSM   H15A14382   5.036   2.134   4.080 -0.1017  1.9543  0.1845
  134OSM   H15B14383   5.206   2.173   4.111  0.7696 -0.8023 -1.1445
  134OSM   H15C14384   5.144   2.121   3.951 -0.4971  0.6973 -1.3422
  134OSM    C1414385   5.126   2.401   4.143  0.3372  0.4831 -0.6380
  134OSM   H14A14386   5.050   2.386   4.218 -0.3080  0.1568 -1.3373
  134OSM   H14B14387   5.130   2.505   4.115 -1.3964  1.5603  2.6372
  134OSM   H14C14388   5.219   2.372   4.188 -1.0360 -0.2302  1.9391
  134OSM    C1314389   5.204   2.357   3.917 -0.4368  0.1048 -0.1857
  134OSM   H13A14390   5.303   2.330   3.950 -0.4566  0.6206  0.3154
  134OSM   H13B14391   5.208   2.462   3.892  0.5888  0.2935  0.6916
  134OSM   H13C14392   5.178   2.316   3.820 -1.8611  2.6998 -0.9877
  134OSM    C1214393   4.959   2.345   3.962  0.2423  0.0000 -0.3562
  134OSM   H12A14394   4.947   2.287   3.872 -1.2653  0.3316 -0.3907
  134OSM   H12B14395   4.932   2.445   3.929 -2.5585  0.0881  1.8330
  134OSM    C1114396   4.844   2.322   4.065  0.0382 -0.7454 -0.5224
  134OSM   H11A14397   4.758   2.302   3.997  0.7656 -1.5660 -1.2327
  134OSM   H11B14398   4.840   2.417   4.121 -2.2881 -0.2198 -1.4622
  134OSM      P14399   4.741   2.192   4.268 -0.4254  0.0752  0.2107
  134OSM    O1314400   4.682   2.323   4.294 -0.1052  0.2902  0.1572
  134OSM    O1414401   4.657   2.072   4.227 -0.1478 -0.1540 -0.5658
  134OSM    O1114402   4.831   2.144   4.388 -0.0807 -1.0291 -0.1569
  134OSM    O1214403   4.859   2.213   4.160  0.0903  0.1320  0.2589
  134OSM    C1S14404   4.785   2.061   4.494 -0.0750 -0.3496  0.6244
  134OSM    H1S14405   4.827   1.962   4.467  0.0526  0.2106 -1.3818
  134OSM    H1T14406   4.676   2.040   4.482  0.2362 -2.2307  0.8192
  134OSM     NF14407   4.808   1.994   4.731  0.0773  0.3228  0.8010
  134OSM    HNF14408   4.711   1.976   4.746 -0.8115  2.7004 -1.2731
  134OSM    C2S14409   4.823   2.106   4.640  0.2384  1.1200 -0.0006
  134OSM    H2S14410   4.929   2.137   4.656  0.6268 -0.3377  0.3942
  134OSM    C3S14411   4.741   2.236   4.664 -0.8380 -0.0222 -0.4269
  134OSM    H3S14412   4.642   2.225   4.615 -0.2119  0.5254 -1.8571
  134OSM     O314413   4.790   2.358   4.611 -0.7887 -0.5707 -0.2657
  134OSM    HO314414   4.872   2.335   4.567  0.1221  0.4634  0.8437
  134OSM    C4S14415   4.699   2.247   4.805 -0.3345 -0.1483 -0.1740
  134OSM    H4S14416   4.611   2.191   4.841 -1.4969  1.0486 -1.0795
  134OSM    C5S14417   4.780   2.313   4.900  0.0909  0.2587  0.7020
  134OSM    H5S14418   4.873   2.359   4.864 -1.3829  1.1861 -2.2897
  134OSM    C6S14419   4.753   2.328   5.047  0.0694 -0.6174 -0.2149
  134OSM    H6S14420   4.833   2.287   5.113 -0.8494  1.5022  2.3746
  134OSM    H6T14421   4.653   2.290   5.076  0.1987 -0.1120  0.9478
  134OSM    C7S14422   4.738   2.478   5.069 -0.1728  0.2781  0.8869
  134OSM    H7S14423   4.664   2.528   5.003  2.2386  1.6543 -0.9547
  134OSM    H7T14424   4.831   2.535   5.051 -1.1728  1.3584 -1.2308
  134OSM    C8S14425   4.704   2.515   5.224  0.3373 -0.1000  0.1262
  134OSM    H8S14426   4.742   2.619   5.233  1.1901 -0.2536 -1.2626
  134OSM    H8T14427   4.760   2.457   5.300 -3.0291 -1.8086  1.5039
  134OSM    C9S14428   4.557   2.506   5.267  0.1807 -0.3956 -0.6655
  134OSM    H9S14429   4.521   2.402   5.262 -1.6284  0.2592 -2.2878
  134OSM    H9T14430   4.502   2.554   5.184  0.3372 -1.5627 -1.4656
  134OSM   C10S14431   4.534   2.563   5.410  0.2831  0.3208 -0.3031
  134OSM   H10S14432   4.560   2.668   5.436  0.4049 -0.2516  2.2189
  134OSM   H10T14433   4.592   2.507   5.486  0.3331 -0.9491 -1.2498
  134OSM   C11S14434   4.383   2.541   5.461  0.1453 -0.8886  0.3286
  134OSM   H11S14435   4.353   2.434   5.458  1.9157 -1.3926 -0.7587
  134OSM   H11T14436   4.315   2.598   5.394 -0.0164 -1.7224 -0.2324
  134OSM   C12S14437   4.361   2.602   5.605  0.9362 -0.0416  0.3924
  134OSM   H12S14438   4.252   2.604   5.626  1.2268  1.8884  1.9771
  134OSM   H12T14439   4.411   2.701   5.604 -0.1494  0.5253  0.2726
  134OSM   C13S14440   4.442   2.535   5.713  0.0911  0.0367  0.1420
  134OSM   H13S14441   4.475   2.612   5.787  0.4493 -0.2389  0.2709
  134OSM   H13T14442   4.535   2.488   5.674 -0.0972 -1.2576  1.1794
  134OSM   C14S14443   4.355   2.445   5.801 -0.3768  0.3673 -0.9126
  134OSM   H14S14444   4.315   2.364   5.736  0.9202 -0.1161 -1.1498
  134OSM   H14T14445   4.275   2.504   5.851  0.4810  0.7644  0.0213
  134OSM   C15S14446   4.443   2.388   5.909 -0.1543  0.1688 -0.3033
  134OSM   H15S14447   4.479   2.466   5.980  0.7290 -0.8526  0.4008
  134OSM   H15T14448   4.542   2.348   5.877  0.7629  0.6682  1.6904
  134OSM   C16S14449   4.368   2.281   5.989  0.2428 -0.0385  0.1329
  134OSM   H16S14450   4.352   2.182   5.941  1.4665 -1.5091  2.5967
  134OSM   H16T14451   4.273   2.322   6.029  0.9250  1.8703 -0.1008
  134OSM   C17S14452   4.451   2.250   6.117 -0.9766  0.2220 -0.1476
  134OSM   H17S14453   4.468   2.345   6.172 -1.3457  0.4129 -0.3625
  134OSM   H17T14454   4.546   2.208   6.078 -0.8138 -0.0354  0.5174
  134OSM   C18S14455   4.388   2.147   6.214  0.2047  0.2553  0.4696
  134OSM   H18S14456   4.469   2.114   6.283  0.9290 -0.5842 -0.7408
  134OSM   H18T14457   4.359   2.057   6.154 -1.0967  0.6115  0.5289
  134OSM   H18U14458   4.303   2.187   6.273  0.9961 -0.1033  1.9102
  134OSM    C1F14459   4.900   1.897   4.736  1.1750  0.0089  0.5918
  134OSM     OF14460   5.007   1.905   4.680 -0.0856  0.3134 -0.2721
  134OSM    C2F14461   4.848   1.768   4.787  0.1429  0.5690 -0.0903
  134OSM    H2F14462   4.831   1.701   4.699  0.9374 -0.9849  0.8970
  134OSM    H2G14463   4.752   1.784   4.840 -0.4604 -0.3920 -0.8492
  134OSM    C3F14464   4.942   1.683   4.880 -0.1749 -0.0963 -0.0637
  134OSM    H3F14465   5.026   1.641   4.821 -0.2298 -1.0178  0.4797
  134OSM    H3G14466   4.884   1.594   4.915 -0.3348  0.7352  1.9280
  134OSM    C4F14467   5.006   1.763   4.999  0.6159 -0.1690  0.0325
  134OSM    H4F14468   5.074   1.836   4.949  0.7963  1.1988  2.1486
  134OSM    H4G14469   5.072   1.702   5.063 -1.1161  0.8584  3.0119
  134OSM    C5F14470   4.901   1.828   5.085  0.0557  0.3472 -1.0149
  134OSM    H5F14471   4.818   1.766   5.124  1.7050 -0.7909  0.9341
  134OSM    H5G14472   4.849   1.898   5.017 -1.5559  0.9795  0.7790
  134OSM    C6F14473   4.960   1.930   5.187 -0.4124  0.2131 -0.4393
  134OSM    H6F14474   5.032   1.988   5.124 -0.0197  0.3667  0.1399
  134OSM    H6G14475   5.009   1.886   5.276 -2.2129  1.7287  1.3814
  134OSM    C7F14476   4.849   2.023   5.240  0.6021  0.5572  0.1121
  134OSM    H7F14477   4.785   1.961   5.306 -0.5663  1.7485  0.1335
  134OSM    H7G14478   4.781   2.052   5.158 -1.0945  1.5280  1.7830
  134OSM    C8F14479   4.891   2.142   5.329 -0.5699  0.0042  0.4873
  134OSM    H8F14480   4.812   2.219   5.317 -0.5111  0.3371  2.0739
  134OSM    H8G14481   4.974   2.195   5.277 -0.3796 -0.4375  0.3331
  134OSM    C9F14482   4.931   2.113   5.470  0.0932  0.3001 -0.0475
  134OSM    H9F14483   5.009   2.036   5.484 -1.5569 -1.2591  1.0885
  134OSM   C10F14484   4.893   2.187   5.576  0.5592  0.5193  0.3300
  134OSM   H10F14485   4.923   2.141   5.671 -0.3843  1.2155  0.9784
  134OSM   C11F14486   4.802   2.305   5.580  0.1757 -1.1275  0.7691
  134OSM   H11F14487   4.740   2.282   5.669  0.2221  1.2637  1.4909
  134OSM   H11G14488   4.732   2.308   5.494 -0.2189 -1.2210  1.0864
  134OSM   C12F14489   4.874   2.436   5.602 -0.2636  0.0622  0.2464
  134OSM   H12F14490   4.811   2.522   5.571 -0.4583 -0.9809 -2.6604
  134OSM   H12G14491   4.957   2.437   5.528  0.3438 -2.7039  0.7723
  134OSM   C13F14492   4.910   2.470   5.747  0.2209  0.1258 -0.0945
  134OSM   H13F14493   4.960   2.382   5.792 -1.0595  0.1860  1.5402
  134OSM   H13G14494   4.815   2.468   5.806  0.3733  2.0253  0.2630
  134OSM   C14F14495   4.982   2.601   5.776  0.5749  0.1190 -0.1353
  134OSM   H14F14496   4.948   2.689   5.718  0.5598  0.4370  0.3512
  134OSM   H14G14497   5.090   2.586   5.758  0.5088 -1.9522  0.9278
  134OSM   C15F14498   4.961   2.628   5.923  0.3523 -0.7771 -0.7825
  134OSM   H15F14499   4.980   2.541   5.990  2.3339  0.8168  0.8813
  134OSM   H15G14500   4.857   2.667   5.931  0.6087 -0.0696 -0.8036
  134OSM   C16F14501   5.048   2.747   5.990 -0.2105  0.1255  0.3135
  134OSM   H16F14502   5.037   2.822   5.909  0.7310 -1.1812 -1.0809
  134OSM   H16G14503   5.155   2.715   5.989  0.1566  1.3150 -0.2592
  134OSM   C17F14504   5.007   2.797   6.125  0.6056  0.2395 -0.1376
  134OSM   H17F14505   5.080   2.875   6.156  0.6002  0.6728 -1.1975
  134OSM   H17G14506   5.008   2.706   6.189  0.2108  0.0474 -0.4046
  134OSM   C18F14507   4.863   2.854   6.139  0.6724 -0.5475  0.8145
  134OSM   H18F14508   4.782   2.778   6.133 -1.8204  1.8793  1.3196
  134OSM   H18G14509   4.840   2.922   6.054  3.7337  0.9349  1.0609
  134OSM   H18H14510   4.853   2.901   6.239 -0.8223  2.1420 -0.4704
  135OSM      N14511   0.877   0.742   4.111 -0.0726  0.4443 -0.3411
  135OSM    C1514512   0.758   0.652   4.133 -0.5734  0.4482 -0.8995
  135OSM   H15A14513   0.792   0.554   4.164 -3.8206 -1.0054 -1.4931
  135OSM   H15B14514   0.692   0.640   4.049 -2.5323  1.4765  0.4092
  135OSM   H15C14515   0.697   0.680   4.218  0.5669  2.2056 -0.6221
  135OSM    C1414516   0.948   0.677   3.993  0.4803 -0.2235 -0.0921
  135OSM   H14A14517   1.022   0.746   3.956  0.9234  1.0356  2.8318
  135OSM   H14B14518   0.872   0.657   3.919 -0.9028  0.8983  0.9494
  135OSM   H14C14519   1.002   0.585   4.010  0.2326 -0.4180 -0.3314
  135OSM    C1314520   0.810   0.868   4.061 -0.8088  0.3885 -0.3319
  135OSM   H13A14521   0.884   0.943   4.036  1.0850 -0.5155  2.1288
  135OSM   H13B14522   0.749   0.910   4.141  0.3331  2.1466 -0.3220
  135OSM   H13C14523   0.746   0.840   3.978 -0.7002 -0.1389 -0.2404
  135OSM    C1214524   0.968   0.769   4.228 -0.4378  0.0427  0.0074
  135OSM   H12A14525   0.908   0.818   4.304 -2.2710  0.6278 -1.7124
  135OSM   H12B14526   1.056   0.825   4.203  0.2833 -0.4207  1.3977
  135OSM    C1114527   1.027   0.644   4.298 -0.2732  0.5964 -0.0866
  135OSM   H11A14528   0.946   0.569   4.313  0.8059 -0.9183 -1.6156
  135OSM   H11B14529   1.076   0.679   4.392 -0.0906  1.3475 -0.4535
  135OSM      P14530   1.146   0.436   4.175  0.2041 -0.0451  0.0174
  135OSM    O1314531   1.044   0.363   4.243  0.4888 -0.3369 -0.2618
  135OSM    O1414532   1.157   0.424   4.026  0.2764  0.1016 -0.7021
  135OSM    O1114533   1.287   0.407   4.236  0.0650  0.1688 -0.2497
  135OSM    O1214534   1.129   0.592   4.210  0.1398 -0.8473 -0.0736
  135OSM    C1S14535   1.325   0.483   4.351  0.5281 -0.0658 -0.0390
  135OSM    H1S14536   1.237   0.512   4.413  0.2943  0.1657 -0.4793
  135OSM    H1T14537   1.367   0.579   4.315 -0.6744 -0.1409 -1.7861
  135OSM     NF14538   1.433   0.473   4.569 -0.0050  0.4066 -0.9784
  135OSM    HNF14539   1.511   0.535   4.577 -1.2790  1.8744  1.1212
  135OSM    C2S14540   1.419   0.402   4.444  0.1795  0.2061  0.8562
  135OSM    H2S14541   1.372   0.303   4.460 -0.7261  0.0708 -2.0519
  135OSM    C3S14542   1.547   0.372   4.361 -0.5590  0.6106 -0.0797
  135OSM    H3S14543   1.599   0.468   4.341 -0.9122  0.9613  0.6451
  135OSM     O314544   1.528   0.303   4.238  0.2184  0.2464  0.6760
  135OSM    HO314545   1.434   0.292   4.222  0.7505 -2.8210 -1.2431
  135OSM    C4S14546   1.636   0.281   4.444 -0.3730 -0.7529  0.0569
  135OSM    H4S14547   1.601   0.177   4.433  1.5750 -1.3996 -0.3019
  135OSM    C5S14548   1.746   0.312   4.515  0.0929 -0.5708  0.0342
  135OSM    H5S14549   1.787   0.413   4.527  0.5659 -0.8775  1.0553
  135OSM    C6S14550   1.814   0.222   4.622  0.0158  0.6129  0.2411
  135OSM    H6S14551   1.921   0.205   4.595  0.4528  1.3991  1.3933
  135OSM    H6T14552   1.761   0.125   4.610  0.0562  0.6841 -0.5803
  135OSM    C7S14553   1.828   0.271   4.774  0.4002  0.1322  0.1901
  135OSM    H7S14554   1.893   0.198   4.825 -0.7352 -1.9654 -1.2086
  135OSM    H7T14555   1.723   0.272   4.811 -0.3706 -0.5560 -1.8164
  135OSM    C8S14556   1.894   0.415   4.797 -0.4144  0.6153  0.9162
  135OSM    H8S14557   1.819   0.488   4.761 -1.0327  0.2033  1.3593
  135OSM    H8T14558   1.989   0.409   4.739 -0.3748  0.8859  0.9516
  135OSM    C9S14559   1.908   0.449   4.947 -0.0515 -0.2457 -0.0003
  135OSM    H9S14560   1.955   0.550   4.948 -3.0418  1.3209 -2.1113
  135OSM    H9T14561   1.986   0.385   4.992 -2.0803 -1.0875  2.6235
  135OSM   C10S14562   1.779   0.453   5.032 -0.3364 -0.0491 -0.3345
  135OSM   H10S14563   1.731   0.353   5.025 -2.2064  0.7557  0.4437
  135OSM   H10T14564   1.703   0.521   4.988  0.8120  0.9269 -0.9074
  135OSM   C11S14565   1.815   0.497   5.172 -0.5886  0.0612  0.4190
  135OSM   H11S14566   1.856   0.600   5.168  0.5850 -0.3787  0.9302
  135OSM   H11T14567   1.892   0.425   5.206 -0.2157  0.3824  0.2614
  135OSM   C12S14568   1.696   0.496   5.270 -0.0661  0.2493  0.6572
  135OSM   H12S14569   1.681   0.386   5.283 -0.8094  0.1686 -0.6247
  135OSM   H12T14570   1.604   0.550   5.239 -0.3809 -0.2783  0.6443
  135OSM   C13S14571   1.735   0.557   5.406 -0.3427 -0.0015  0.2006
  135OSM   H13S14572   1.742   0.667   5.391  0.3478 -0.2410 -1.5496
  135OSM   H13T14573   1.840   0.526   5.427 -0.5844 -0.8239  0.2140
  135OSM   C14S14574   1.660   0.526   5.530 -0.8129 -0.2701 -0.2731
  135OSM   H14S14575   1.667   0.418   5.556 -0.8169  0.0976  1.3785
  135OSM   H14T14576   1.554   0.554   5.510 -1.2895 -1.0111  1.0278
  135OSM   C15S14577   1.701   0.607   5.659  0.4446 -0.2285  0.0305
  135OSM   H15S14578   1.691   0.716   5.642 -0.8634 -0.5714 -1.6445
  135OSM   H15T14579   1.809   0.594   5.683  0.8728  2.3332 -0.2854
  135OSM   C16S14580   1.625   0.580   5.787 -0.1327  0.2983  0.5926
  135OSM   H16S14581   1.516   0.592   5.771  0.1404  0.3292 -1.4653
  135OSM   H16T14582   1.664   0.646   5.867  1.7876  0.5045 -0.4660
  135OSM   C17S14583   1.657   0.440   5.836 -0.4136 -0.0830 -0.3036
  135OSM   H17S14584   1.768   0.428   5.842 -0.4140  0.0418 -0.0363
  135OSM   H17T14585   1.614   0.364   5.768 -0.8225 -0.7964  0.7206
  135OSM   C18S14586   1.603   0.395   5.970  0.5837  0.2508 -0.0004
  135OSM   H18S14587   1.634   0.463   6.053 -0.3927 -0.5222  1.0302
  135OSM   H18T14588   1.658   0.303   5.997 -1.9256 -0.8909  1.5572
  135OSM   H18U14589   1.496   0.368   5.962  1.3177 -2.9459 -0.2685
  135OSM    C1F14590   1.335   0.485   4.663  0.0071 -0.3876 -0.4009
  135OSM     OF14591   1.218   0.456   4.638  0.1709 -0.4137  0.4163
  135OSM    C2F14592   1.371   0.541   4.801 -0.4683  0.6458  0.0702
  135OSM    H2F14593   1.350   0.650   4.805 -2.1435  0.3553 -0.3963
  135OSM    H2G14594   1.482   0.539   4.809 -0.3125 -0.9609 -1.6689
  135OSM    C3F14595   1.318   0.449   4.912 -0.2170  0.5643  0.5525
  135OSM    H3F14596   1.363   0.351   4.886 -3.2633 -0.7552 -0.1559
  135OSM    H3G14597   1.207   0.442   4.905 -0.1129 -0.0017 -0.8336
  135OSM    C4F14598   1.356   0.486   5.059 -0.1752 -0.5869 -0.6349
  135OSM    H4F14599   1.461   0.517   5.073 -0.8088  0.9243  1.1878
  135OSM    H4G14600   1.322   0.409   5.131 -2.1554  0.0632 -0.8114
  135OSM    C5F14601   1.278   0.610   5.105 -0.1590 -0.6204  0.5335
  135OSM    H5F14602   1.173   0.582   5.079  0.1166  0.0498 -1.4622
  135OSM    H5G14603   1.314   0.674   5.022  2.7760 -2.2430  0.3916
  135OSM    C6F14604   1.313   0.647   5.250 -0.1200 -0.4376 -0.1980
  135OSM    H6F14605   1.414   0.693   5.252 -1.1838  2.0987 -0.6173
  135OSM    H6G14606   1.315   0.568   5.328 -1.9133  1.3715  1.8401
  135OSM    C7F14607   1.215   0.762   5.295 -0.3896 -0.4124 -0.7506
  135OSM    H7F14608   1.109   0.730   5.298 -0.3017 -0.9536 -2.5001
  135OSM    H7G14609   1.211   0.831   5.209 -0.6149  1.4306  0.6666
  135OSM    C8F14610   1.265   0.852   5.413  0.7614 -0.2758 -0.9210
  135OSM    H8F14611   1.365   0.882   5.377  0.3231 -0.4629 -2.3432
  135OSM    H8G14612   1.288   0.785   5.499  1.3762 -1.2279 -1.8070
  135OSM    C9F14613   1.170   0.965   5.441 -0.5730  0.5137  0.6735
  135OSM    H9F14614   1.088   0.977   5.369  1.4742  0.5022 -1.7636
  135OSM   C10F14615   1.208   1.048   5.542  0.2933  0.1671  0.1837
  135OSM   H10F14616   1.141   1.127   5.578 -1.0327 -0.5913 -0.5121
  135OSM   C11F14617   1.320   1.032   5.636  0.7187  0.2729 -0.7900
  135OSM   H11F14618   1.352   1.130   5.677 -0.5382  0.1598  0.5460
  135OSM   H11G14619   1.405   0.984   5.582  0.2777  0.5922 -1.7729
  135OSM   C12F14620   1.272   0.937   5.750 -0.0649  0.3218 -0.4233
  135OSM   H12F14621   1.357   0.926   5.821 -0.9216  1.0252  0.7485
  135OSM   H12G14622   1.264   0.839   5.698 -1.9951  1.1005 -1.7048
  135OSM   C13F14623   1.155   0.981   5.844  0.2907  0.5358 -0.3344
  135OSM   H13F14624   1.131   0.891   5.904  0.0377  1.7554  1.4421
  135OSM   H13G14625   1.064   1.011   5.787  0.2090  0.5630 -0.1882
  135OSM   C14F14626   1.180   1.106   5.930 -0.5651  0.4106 -0.1641
  135OSM   H14F14627   1.205   1.194   5.868  1.1848  0.9192  1.1783
  135OSM   H14G14628   1.272   1.085   5.989  0.5089  1.2266 -1.5101
  135OSM   C15F14629   1.058   1.159   6.003  0.2219 -0.1608  0.4897
  135OSM   H15F14630   1.063   1.097   6.095  0.3608  1.0435  1.3148
  135OSM   H15G14631   0.965   1.126   5.953  0.3561  1.5273 -0.9862
  135OSM   C16F14632   1.042   1.309   6.030 -0.6110  0.1396 -0.1832
  135OSM   H16F14633   1.036   1.365   5.935 -0.3469 -1.2895 -1.0684
  135OSM   H16G14634   1.138   1.333   6.080  0.6495  1.0440 -2.8708
  135OSM   C17F14635   0.928   1.348   6.124  0.3492 -0.3080  0.4229
  135OSM   H17F14636   0.938   1.302   6.224  1.7158  0.9663  0.9080
  135OSM   H17G14637   0.833   1.319   6.073 -0.2259  0.8753  0.7748
  135OSM   C18F14638   0.921   1.503   6.136  0.0207 -0.3422 -0.7637
  135OSM   H18F14639   0.929   1.557   6.039  1.6017  2.1191  0.6337
  135OSM   H18G14640   1.010   1.529   6.196 -0.0044 -2.5938  0.3313
  135OSM   H18H14641   0.831   1.532   6.195  1.6991 -0.3264  1.9561
  136OSM      N14642   6.364   2.371   4.217  0.2457  0.1484  0.2737
  136OSM    C1514643   6.234   2.360   4.148 -0.4747  0.8446  0.0764
  136OSM   H15A14644   6.176   2.279   4.190  1.2451 -0.8457 -0.6378
  136OSM   H15B14645   6.247   2.339   4.043  1.5041  2.7560 -0.1351
  136OSM   H15C14646   6.182   2.454   4.155  0.5786  1.5635 -1.2245
  136OSM    C1414647   6.432   2.234   4.214 -0.3891  0.0186 -0.4746
  136OSM   H14A14648   6.418   2.186   4.118 -2.4419  1.6288 -1.0616
  136OSM   H14B14649   6.390   2.165   4.286  2.9647 -0.6396  1.0552
  136OSM   H14C14650   6.536   2.240   4.241 -0.2163 -0.3616 -1.0461
  136OSM    C1314651   6.446   2.462   4.127  0.7150  0.0182  0.6557
  136OSM   H13A14652   6.433   2.433   4.024 -1.7126  0.2490  0.8442
  136OSM   H13B14653   6.551   2.462   4.150  0.2669  0.1592  2.9424
  136OSM   H13C14654   6.421   2.566   4.136  0.0793 -0.1574  0.9718
  136OSM    C1214655   6.349   2.407   4.355 -0.3878  1.0160 -0.3155
  136OSM   H12A14656   6.446   2.388   4.399 -1.2293 -0.2735  1.0355
  136OSM   H12B14657   6.280   2.337   4.399  1.1586 -0.3472  0.0137
  136OSM    C1114658   6.296   2.550   4.400  0.4349 -0.2392  0.0200
  136OSM   H11A14659   6.367   2.629   4.368 -0.9622  1.5774  1.2740
  136OSM   H11B14660   6.292   2.557   4.510  0.8956 -2.3677  0.2159
  136OSM      P14661   6.031   2.534   4.408  0.0961 -0.1251  0.5389
  136OSM    O1314662   5.920   2.550   4.305 -0.3189 -0.2420  1.0883
  136OSM    O1414663   6.049   2.405   4.480  0.2798  0.7237 -0.0483
  136OSM    O1114664   6.023   2.644   4.525 -0.0414  0.5772 -0.2004
  136OSM    O1214665   6.170   2.578   4.339 -0.3322 -0.2568 -0.1031
  136OSM    C1S14666   6.046   2.783   4.490 -0.1190  0.2256  0.9238
  136OSM    H1S14667   5.984   2.813   4.403  1.1599  1.2908  0.3553
  136OSM    H1T14668   6.147   2.802   4.448 -0.8041  1.7712 -0.1342
  136OSM     NF14669   6.013   3.014   4.581 -0.2523  0.0338 -0.2807
  136OSM    HNF14670   6.094   3.072   4.576 -0.5864  0.3886 -3.0869
  136OSM    C2S14671   6.034   2.873   4.614  0.3002  0.2928  1.0556
  136OSM    H2S14672   5.947   2.835   4.672 -0.1939 -2.5591 -1.3364
  136OSM    C3S14673   6.161   2.845   4.695  0.0425  0.3421 -0.6756
  136OSM    H3S14674   6.247   2.889   4.641 -1.1614  1.2009 -1.9450
  136OSM     O314675   6.171   2.709   4.730 -0.4306 -0.3583 -0.3649
  136OSM    HO314676   6.109   2.663   4.673  0.9190  0.1225 -2.3292
  136OSM    C4S14677   6.149   2.922   4.827 -0.0347 -0.2040 -0.3251
  136OSM    H4S14678   6.107   2.865   4.911 -0.7597 -1.6065 -1.5929
  136OSM    C5S14679   6.193   3.049   4.844  0.3984  0.4572  0.0392
  136OSM    H5S14680   6.234   3.104   4.757 -2.3762  0.5280 -1.3248
  136OSM    C6S14681   6.200   3.127   4.965 -0.9848  0.6042  0.0558
  136OSM    H6S14682   6.104   3.171   5.000 -1.5891 -1.4368  1.1156
  136OSM    H6T14683   6.268   3.212   4.941  0.3673 -0.2843  0.6319
  136OSM    C7S14684   6.258   3.057   5.088 -0.1338  0.0392 -0.7958
  136OSM    H7S14685   6.352   3.000   5.069  1.1542  1.5673  0.7070
  136OSM    H7T14686   6.171   2.992   5.109 -0.2839  0.5673  0.2504
  136OSM    C8S14687   6.272   3.153   5.206 -0.3327 -0.0144 -0.6060
  136OSM    H8S14688   6.187   3.224   5.215 -0.6796 -0.6569  2.0066
  136OSM    H8T14689   6.368   3.206   5.187  0.4888 -1.3080 -0.1710
  136OSM    C9S14690   6.281   3.079   5.346  0.7459  0.2151  0.0876
  136OSM    H9S14691   6.369   3.011   5.341  0.9387  0.0239  3.7831
  136OSM    H9T14692   6.183   3.031   5.362  0.6659  0.4877  0.4150
  136OSM   C10S14693   6.314   3.179   5.459  0.2024 -0.6665 -0.7441
  136OSM   H10S14694   6.212   3.214   5.488 -0.5584 -0.9820 -2.8803
  136OSM   H10T14695   6.372   3.270   5.432  0.3155 -0.2530  0.7611
  136OSM   C11S14696   6.380   3.112   5.574  0.0873  0.1586  0.0129
  136OSM   H11S14697   6.480   3.077   5.540  0.1612 -0.6454  1.0283
  136OSM   H11T14698   6.327   3.022   5.612  0.3593  0.3449  0.8555
  136OSM   C12S14699   6.389   3.209   5.689  0.4742 -0.4591 -0.2818
  136OSM   H12S14700   6.457   3.291   5.660  1.1669 -0.8709  0.1562
  136OSM   H12T14701   6.426   3.150   5.775  2.0631  0.3247 -0.4095
  136OSM   C13S14702   6.252   3.279   5.724 -0.3537  0.4018 -0.1509
  136OSM   H13S14703   6.167   3.209   5.716 -0.4601  0.3978  0.8408
  136OSM   H13T14704   6.247   3.359   5.646 -1.4997  3.4270  2.7508
  136OSM   C14S14705   6.250   3.358   5.860 -0.2971  0.3804 -0.6215
  136OSM   H14S14706   6.248   3.285   5.944 -2.0425  1.0901 -0.0037
  136OSM   H14T14707   6.158   3.420   5.855 -0.0820  1.0804  2.1425
  136OSM   C15S14708   6.374   3.451   5.883 -1.0928  0.2532 -0.0553
  136OSM   H15S14709   6.398   3.501   5.787  0.8141 -1.5157 -0.5645
  136OSM   H15T14710   6.463   3.385   5.896 -1.8506 -1.3016 -2.1787
  136OSM   C16S14711   6.357   3.555   5.989 -1.0239 -0.3631 -0.1034
  136OSM   H16S14712   6.343   3.505   6.087  0.1284 -0.9019 -0.2009
  136OSM   H16T14713   6.259   3.604   5.972 -0.5316  0.2570 -1.2731
  136OSM   C17S14714   6.460   3.673   6.003  0.9111  0.5142  0.2447
  136OSM   H17S14715   6.483   3.740   5.917  2.5382  0.0349  0.2615
  136OSM   H17T14716   6.556   3.619   6.018  0.8994  1.0263  2.3877
  136OSM   C18S14717   6.429   3.753   6.128  0.2240  0.1962  0.6431
  136OSM   H18S14718   6.507   3.828   6.151  1.1413  0.1209 -1.9097
  136OSM   H18T14719   6.438   3.691   6.220 -3.0061  0.1016  1.0062
  136OSM   H18U14720   6.326   3.795   6.127 -1.1214 -2.7765  1.1761
  136OSM    C1F14721   5.896   3.057   4.531  0.7253  0.8081  0.0121
  136OSM     OF14722   5.812   2.972   4.500  0.2937 -0.0238  0.2340
  136OSM    C2F14723   5.866   3.209   4.523  0.3229 -0.3962 -0.2144
  136OSM    H2F14724   5.905   3.251   4.428 -0.4170  2.7372  0.7508
  136OSM    H2G14725   5.928   3.255   4.603 -0.9676  2.4944 -0.7743
  136OSM    C3F14726   5.717   3.242   4.551  0.1024 -0.6219  0.6276
  136OSM    H3F14727   5.704   3.213   4.657  0.7126  2.1483  1.5501
  136OSM    H3G14728   5.644   3.186   4.488 -0.4904  1.4012 -0.5966
  136OSM    C4F14729   5.700   3.395   4.525  0.7611 -0.2573  0.1937
  136OSM    H4F14730   5.729   3.421   4.421  0.2903  1.4957  0.4797
  136OSM    H4G14731   5.755   3.454   4.602  3.3646 -1.6045 -0.4899
  136OSM    C5F14732   5.548   3.434   4.547 -0.1176  0.5132  0.1890
  136OSM    H5F14733   5.532   3.403   4.653 -0.1658 -0.2198 -0.0273
  136OSM    H5G14734   5.476   3.370   4.493  0.4687 -0.3816  0.4363
  136OSM    C6F14735   5.520   3.580   4.541  0.1334 -0.4901 -0.2587
  136OSM    H6F14736   5.510   3.614   4.436  0.0335 -0.2053 -0.1588
  136OSM    H6G14737   5.602   3.633   4.593  0.0695 -1.1359  0.5201
  136OSM    C7F14738   5.392   3.624   4.616 -0.7901  0.5160 -0.0324
  136OSM    H7F14739   5.359   3.715   4.562 -0.7556 -0.2787 -1.4307
  136OSM    H7G14740   5.416   3.649   4.722  0.3789 -0.1448 -0.1227
  136OSM    C8F14741   5.280   3.516   4.621 -0.1940 -0.3500  0.6743
  136OSM    H8F14742   5.328   3.434   4.678  0.5639 -0.9001 -0.7101
  136OSM    H8G14743   5.250   3.488   4.517 -2.0110  3.7466 -0.1152
  136OSM    C9F14744   5.154   3.562   4.687 -0.5937  0.1415  1.4002
  136OSM    H9F14745   5.078   3.593   4.614 -0.0550 -0.2897  0.6488
  136OSM   C10F14746   5.118   3.575   4.816  0.2286 -0.4296  0.4008
  136OSM   H10F14747   5.018   3.615   4.838  0.5962  0.7607 -0.0050
  136OSM   C11F14748   5.203   3.550   4.941  0.1871  0.1547  0.8737
  136OSM   H11F14749   5.215   3.651   4.987 -1.0769 -0.0107  1.6372
  136OSM   H11G14750   5.304   3.509   4.923  0.3142  0.1041  1.6588
  136OSM   C12F14751   5.122   3.456   5.024  1.1474 -0.1942  0.5069
  136OSM   H12F14752   5.182   3.413   5.107 -0.8213 -1.0781  1.5683
  136OSM   H12G14753   5.087   3.366   4.968 -2.0071  0.8046  0.6739
  136OSM   C13F14754   5.007   3.527   5.099 -0.8862 -0.6060 -0.7092
  136OSM   H13F14755   4.933   3.564   5.024  0.1361  4.7655  0.5652
  136OSM   H13G14756   5.034   3.612   5.164 -0.7004 -0.3087 -1.1688
  136OSM   C14F14757   4.940   3.417   5.186 -0.3433 -0.2169 -0.2956
  136OSM   H14F14758   5.014   3.358   5.243  1.0680  0.3555 -1.4556
  136OSM   H14G14759   4.910   3.344   5.108  1.1125  0.6569 -1.7305
  136OSM   C15F14760   4.830   3.460   5.278 -0.5231  0.6138 -0.3861
  136OSM   H15F14761   4.733   3.451   5.225 -1.2143  0.1010  0.9262
  136OSM   H15G14762   4.848   3.564   5.313  2.7956 -0.0602  0.3254
  136OSM   C16F14763   4.827   3.379   5.402  0.5255 -0.0680 -0.1784
  136OSM   H16F14764   4.924   3.377   5.458  0.7610  0.5572 -0.5622
  136OSM   H16G14765   4.805   3.270   5.391  2.0629 -0.5326  0.8289
  136OSM   C17F14766   4.713   3.439   5.496  0.3460  0.1154 -0.4613
  136OSM   H17F14767   4.621   3.455   5.435  0.5807 -1.0561 -1.1651
  136OSM   H17G14768   4.750   3.536   5.535 -1.2095  0.3210  0.6395
  136OSM   C18F14769   4.671   3.350   5.608  0.1928 -1.0910 -0.1461
  136OSM   H18F14770   4.638   3.252   5.566 -0.1812 -1.3467  0.7364
  136OSM   H18G14771   4.584   3.387   5.666  0.3678 -2.9971  1.4376
  136OSM   H18H14772   4.748   3.341   5.687 -0.8925 -1.3620  0.9144
  137OSM      N14773   0.538   2.955   4.079  0.3185 -0.2237 -0.1078
  137OSM    C1514774   0.537   3.035   3.955 -0.0493 -0.1073  0.7293
  137OSM   H15A14775   0.581   3.131   3.978 -2.8582  0.8517  2.6117
  137OSM   H15B14776   0.440   3.055   3.912  1.5011  0.0022 -3.0570
  137OSM   H15C14777   0.597   2.986   3.880  1.8426  0.0858  2.0253
  137OSM    C1414778   0.466   3.037   4.192  0.2937  0.2913  0.4139
  137OSM   H14A14779   0.380   3.092   4.155  1.1198  0.4689 -1.3629
  137OSM   H14B14780   0.541   3.103   4.231 -0.7297  1.3289  0.6702
  137OSM   H14C14781   0.459   2.972   4.277  0.6294  2.5328  2.2441
  137OSM    C1314782   0.454   2.838   4.041  0.4205 -0.1698 -0.1105
  137OSM   H13A14783   0.434   2.776   4.127 -1.2173  0.8085  0.2677
  137OSM   H13B14784   0.497   2.779   3.962  2.0781  1.7357 -0.7148
  137OSM   H13C14785   0.353   2.855   4.007 -0.6523 -1.8924  1.9493
  137OSM    C1214786   0.672   2.909   4.125 -0.8663  0.7218 -0.2422
  137OSM   H12A14787   0.736   2.993   4.150  1.4784 -1.2194  0.7745
  137OSM   H12B14788   0.711   2.846   4.046 -0.6640 -0.6881  0.9386
  137OSM    C1114789   0.681   2.815   4.247  0.4142 -0.4868  0.1948
  137OSM   H11A14790   0.650   2.873   4.337 -1.9841 -0.5596 -0.5080
  137OSM   H11B14791   0.786   2.782   4.257 -0.4322 -3.3280  0.5176
  137OSM      P14792   0.488   2.644   4.340  0.4380  0.1452 -0.0941
  137OSM    O1314793   0.355   2.669   4.280 -0.7803 -0.1191  0.9250
  137OSM    O1414794   0.521   2.505   4.368  0.7713  0.5440 -0.7073
  137OSM    O1114795   0.502   2.728   4.472 -0.1575 -0.5722  0.4029
  137OSM    O1214796   0.600   2.697   4.244  0.0380 -0.2125 -0.5911
  137OSM    C1S14797   0.395   2.723   4.577 -0.3839 -0.0643  0.6171
  137OSM    H1S14798   0.368   2.617   4.599 -1.8330  0.1885  0.1412
  137OSM    H1T14799   0.305   2.777   4.541 -0.8403 -1.4829 -0.4709
  137OSM     NF14800   0.339   2.745   4.816  0.0463  0.0408 -0.4827
  137OSM    HNF14801   0.262   2.807   4.831 -2.6635 -2.9682 -0.7655
  137OSM    C2S14802   0.440   2.773   4.719 -0.4363  1.1067  0.2315
  137OSM    H2S14803   0.529   2.712   4.745 -2.0206 -2.3041 -1.7341
  137OSM    C3S14804   0.487   2.922   4.716  0.5656 -0.5915  0.4759
  137OSM    H3S14805   0.399   2.986   4.695  1.4946  0.5844  0.0597
  137OSM     O314806   0.577   2.949   4.607 -0.0923  0.0781 -0.3853
  137OSM    HO314807   0.563   2.871   4.554 -1.2860  0.6195 -0.8974
  137OSM    C4S14808   0.549   2.958   4.845  0.6576  0.0322  0.1040
  137OSM    H4S14809   0.480   3.013   4.911  0.7197  1.2278 -0.8019
  137OSM    C5S14810   0.677   2.939   4.887  0.1958 -0.0952  0.4055
  137OSM    H5S14811   0.755   2.895   4.823  1.5493 -0.0114  1.9296
  137OSM    C6S14812   0.736   3.004   5.010  0.3079 -0.5875  0.3822
  137OSM    H6S14813   0.820   3.071   4.980  0.8138 -1.6167 -0.5696
  137OSM    H6T14814   0.785   2.919   5.063  1.6039 -0.2199 -0.1855
  137OSM    C7S14815   0.642   3.087   5.100  0.1227 -0.8205  0.2949
  137OSM    H7S14816   0.561   3.017   5.133  0.4117  0.0798  3.1888
  137OSM    H7T14817   0.587   3.164   5.042  1.5725 -1.0062 -1.4161
  137OSM    C8S14818   0.713   3.151   5.215 -0.2784  0.1410  0.8577
  137OSM    H8S14819   0.786   3.220   5.166 -0.8522  0.1509 -0.0161
  137OSM    H8T14820   0.771   3.070   5.264 -0.5978 -0.5240  0.1764
  137OSM    C9S14821   0.616   3.231   5.296  0.1057 -0.4116 -0.0805
  137OSM    H9S14822   0.545   3.174   5.360  2.2622 -1.5564  1.4545
  137OSM    H9T14823   0.561   3.304   5.233 -0.7917  1.1009  2.3059
  137OSM   C10S14824   0.697   3.320   5.393 -0.3443  0.5602 -0.1312
  137OSM   H10S14825   0.621   3.378   5.450  0.2005 -0.8296  2.1012
  137OSM   H10T14826   0.747   3.394   5.326 -0.3414  0.6072 -0.0769
  137OSM   C11S14827   0.804   3.258   5.488 -0.2908 -0.2663 -0.3630
  137OSM   H11S14828   0.890   3.241   5.421  0.8509 -2.8692  1.5930
  137OSM   H11T14829   0.769   3.165   5.537  1.1428 -0.7383 -0.1981
  137OSM   C12S14830   0.862   3.370   5.578  0.3081  0.3358 -0.0825
  137OSM   H12S14831   0.779   3.416   5.636  1.6271  1.0852  1.2739
  137OSM   H12T14832   0.905   3.446   5.510  2.9252 -0.2059  0.8443
  137OSM   C13S14833   0.968   3.333   5.688  0.0140 -0.0248 -0.3115
  137OSM   H13S14834   1.054   3.279   5.642 -0.0690  0.6046 -1.2399
  137OSM   H13T14835   0.919   3.255   5.749 -0.9316 -0.3466 -1.4314
  137OSM   C14S14836   1.020   3.461   5.756  0.3172  0.2071 -0.0435
  137OSM   H14S14837   0.929   3.508   5.799  0.7469  1.4960 -0.4830
  137OSM   H14T14838   1.060   3.537   5.686  0.0760  0.2381 -0.1477
  137OSM   C15S14839   1.142   3.424   5.850  0.7162  0.9602 -0.4241
  137OSM   H15S14840   1.176   3.515   5.903 -0.8157 -0.2597  2.9196
  137OSM   H15T14841   1.228   3.384   5.793 -0.4757 -1.2375 -0.8091
  137OSM   C16S14842   1.104   3.313   5.953 -0.4478 -0.4841 -0.1749
  137OSM   H16S14843   1.188   3.299   6.024 -1.1371  0.3432  0.8364
  137OSM   H16T14844   1.098   3.212   5.908  0.6968 -0.2358 -0.9212
  137OSM   C17S14845   0.975   3.341   6.031  0.6275 -0.1735 -0.2213
  137OSM   H17S14846   0.880   3.357   5.976 -0.3772  2.4466  2.0781
  137OSM   H17T14847   1.002   3.440   6.073 -1.5666 -0.3145  1.7531
  137OSM   C18S14848   0.961   3.237   6.137  0.1193  0.6676  0.1464
  137OSM   H18S14849   0.947   3.135   6.095 -1.0870  0.9323 -0.1493
  137OSM   H18T14850   0.875   3.268   6.201 -0.0688  1.8851 -0.6560
  137OSM   H18U14851   1.056   3.230   6.193 -0.4641 -1.9957  0.9413
  137OSM    C1F14852   0.340   2.615   4.852  0.5894 -0.4351 -0.5852
  137OSM     OF14853   0.436   2.545   4.836 -0.5953  0.6355  0.5470
  137OSM    C2F14854   0.208   2.561   4.903 -0.0521 -0.1134 -0.7484
  137OSM    H2F14855   0.155   2.495   4.832 -1.4431  1.4638 -1.2450
  137OSM    H2G14856   0.146   2.652   4.915 -1.5371 -0.9047 -2.0898
  137OSM    C3F14857   0.217   2.495   5.042 -0.1213  0.4572 -0.2651
  137OSM    H3F14858   0.274   2.557   5.114  3.0735 -2.3765 -0.1387
  137OSM    H3G14859   0.284   2.408   5.030  2.3273  2.4079 -1.8910
  137OSM    C4F14860   0.082   2.453   5.092  0.2141  0.4349 -0.0232
  137OSM    H4F14861   0.016   2.539   5.113  0.7138  0.0800  3.6706
  137OSM    H4G14862   0.083   2.397   5.189 -1.6409 -0.9706 -0.7472
  137OSM    C5F14863  -0.013   2.364   4.999  1.2920  0.6478 -0.0638
  137OSM    H5F14864   0.039   2.267   4.985  1.4275  0.3482  2.0701
  137OSM    H5G14865  -0.040   2.412   4.903 -0.1082 -1.9389 -1.0618
  137OSM    C6F14866  -0.148   2.332   5.079 -0.7503 -0.0658 -0.0394
  137OSM    H6F14867  -0.183   2.424   5.132  1.3543  0.9516 -0.2921
  137OSM    H6G14868  -0.130   2.248   5.149 -0.4322 -0.9207 -1.1206
  137OSM    C7F14869  -0.253   2.292   4.983  0.0019 -0.6195  0.3670
  137OSM    H7F14870  -0.218   2.202   4.928  3.8781  1.9655 -1.8350
  137OSM    H7G14871  -0.247   2.368   4.902 -2.1910  0.6137  1.2905
  137OSM    C8F14872  -0.388   2.291   5.049  0.2871 -0.0293 -0.4405
  137OSM    H8F14873  -0.478   2.281   4.986 -2.2973 -0.8825  3.0456
  137OSM    H8G14874  -0.415   2.384   5.103  1.2018 -0.2238  0.3894
  137OSM    C9F14875  -0.407   2.169   5.135 -0.2655  0.0629 -0.3955
  137OSM    H9F14876  -0.414   2.076   5.077  0.5953 -0.8417  0.8979
  137OSM   C10F14877  -0.413   2.157   5.270  0.4591  0.5003 -0.0507
  137OSM   H10F14878  -0.443   2.062   5.315 -2.8252  2.0268  1.3180
  137OSM   C11F14879  -0.402   2.284   5.361 -1.0804 -0.8288 -1.0444
  137OSM   H11F14880  -0.431   2.377   5.308  0.4563 -0.4881 -1.3344
  137OSM   H11G14881  -0.299   2.308   5.394 -1.9182 -0.0801  1.1975
  137OSM   C12F14882  -0.487   2.271   5.487  0.1753  0.4902 -0.6590
  137OSM   H12F14883  -0.584   2.221   5.461  1.5917 -0.9106 -3.8693
  137OSM   H12G14884  -0.510   2.364   5.542 -0.3854  1.0321 -1.7684
  137OSM   C13F14885  -0.408   2.186   5.592  0.1561 -0.2350  0.2102
  137OSM   H13F14886  -0.318   2.242   5.625 -0.7392  0.9403  0.7134
  137OSM   H13G14887  -0.370   2.090   5.552 -1.1142 -0.2644 -1.0005
  137OSM   C14F14888  -0.505   2.165   5.706 -0.4708  0.6604  0.3656
  137OSM   H14F14889  -0.462   2.080   5.763  1.1360  0.7985 -0.5731
  137OSM   H14G14890  -0.601   2.123   5.670 -0.7245  0.6139  1.0783
  137OSM   C15F14891  -0.526   2.282   5.802  1.0469  0.3810 -0.1239
  137OSM   H15F14892  -0.579   2.362   5.745  0.7386 -0.5641 -1.1975
  137OSM   H15G14893  -0.423   2.316   5.826  1.5705 -0.1024 -1.5686
  137OSM   C16F14894  -0.597   2.248   5.933 -0.6089  0.2337  0.0400
  137OSM   H16F14895  -0.705   2.227   5.914 -1.0807  2.2506  0.2069
  137OSM   H16G14896  -0.589   2.339   5.996  0.2507 -1.0807  1.9000
  137OSM   C17F14897  -0.540   2.129   6.007 -0.3985 -0.7968 -0.7253
  137OSM   H17F14898  -0.550   2.035   5.949 -1.8396 -1.3361  0.3441
  137OSM   H17G14899  -0.600   2.107   6.097  1.8282 -3.2666  0.2763
  137OSM   C18F14900  -0.392   2.145   6.048 -0.5594 -0.4506 -0.3152
  137OSM   H18F14901  -0.376   2.052   6.105 -2.4167 -0.8237 -0.3511
  137OSM   H18G14902  -0.353   2.226   6.114  0.2164 -2.1576  1.4348
  137OSM   H18H14903  -0.334   2.150   5.953 -0.3100  1.5651 -0.1134
  138OSM      N14904   2.329   4.983   3.745  0.2292 -0.0802 -0.3605
  138OSM    C1514905   2.478   4.980   3.742 -0.2400 -0.0002  0.0063
  138OSM   H15A14906   2.519   5.020   3.650  0.6643 -2.3747 -0.7172
  138OSM   H15B14907   2.515   4.879   3.742  2.0220  0.7414  1.5274
  138OSM   H15C14908   2.522   5.041   3.820 -0.1006 -1.1651  0.8663
  138OSM    C1414909   2.287   5.128   3.737  0.7036  0.4136 -0.6101
  138OSM   H14A14910   2.182   5.143   3.718  0.3091 -1.0914  0.2001
  138OSM   H14B14911   2.333   5.173   3.650  0.4612  0.7411 -0.5725
  138OSM   H14C14912   2.310   5.186   3.825 -0.9119 -0.2693  0.2994
  138OSM    C1314913   2.272   4.910   3.629 -0.5117  0.0043 -0.2929
  138OSM   H13A14914   2.167   4.885   3.625 -0.3538 -1.8415  3.1435
  138OSM   H13B14915   2.321   4.814   3.634 -3.4778 -1.7357 -2.2474
  138OSM   H13C14916   2.305   4.958   3.538  2.1989 -3.8069 -1.5254
  138OSM    C1214917   2.282   4.916   3.875 -1.0225  0.2088 -0.5707
  138OSM   H12A14918   2.369   4.939   3.934  1.0307  0.2589 -3.4624
  138OSM   H12B14919   2.281   4.808   3.864 -0.0769  0.2509 -1.0950
  138OSM    C1114920   2.158   4.954   3.953  0.2007 -0.5940  0.1994
  138OSM   H11A14921   2.167   5.062   3.980  1.0572 -0.0392 -2.1244
  138OSM   H11B14922   2.165   4.902   4.051  1.1483  1.4033  1.2452
  138OSM      P14923   1.978   4.791   3.889  0.0547  0.0481 -0.0197
  138OSM    O1314924   1.846   4.785   3.821 -0.0407  0.1846  0.7915
  138OSM    O1414925   2.078   4.686   3.861  0.2603 -0.1981 -0.2168
  138OSM    O1114926   1.945   4.771   4.040  0.0319  0.0037  0.1928
  138OSM    O1214927   2.039   4.940   3.880  0.1903  0.2826 -0.2993
  138OSM    C1S14928   1.846   4.854   4.112  0.7857 -0.2242 -0.4006
  138OSM    H1S14929   1.753   4.870   4.054 -0.6025  0.8218  2.0080
  138OSM    H1T14930   1.894   4.954   4.125  0.6537 -0.0145 -1.4455
  138OSM     NF14931   1.686   4.839   4.296  0.0637  0.5266 -0.2830
  138OSM    HNF14932   1.675   4.916   4.359 -1.1312  0.2754 -0.1572
  138OSM    C2S14933   1.817   4.799   4.249 -0.0264 -0.5601 -0.1185
  138OSM    H2S14934   1.821   4.688   4.244 -0.5697 -0.5515 -0.9780
  138OSM    C3S14935   1.937   4.848   4.343 -0.4592 -0.8369  0.0443
  138OSM    H3S14936   1.926   4.959   4.343  2.0731 -0.5122  1.7700
  138OSM     O314937   2.062   4.824   4.286 -0.1551  0.1308 -0.4928
  138OSM    HO314938   2.041   4.801   4.195  2.5395  1.4146 -1.5583
  138OSM    C4S14939   1.918   4.797   4.483  0.0316 -0.9823  0.6702
  138OSM    H4S14940   1.954   4.693   4.495  0.8784 -0.8538 -0.5300
  138OSM    C5S14941   1.881   4.880   4.581 -0.0747 -0.7015  0.6171
  138OSM    H5S14942   1.866   4.988   4.573 -0.8084 -0.8382  0.1035
  138OSM    C6S14943   1.871   4.841   4.723  0.7573  0.2242 -0.3515
  138OSM    H6S14944   1.878   4.732   4.744 -1.1395  0.5513  2.5587
  138OSM    H6T14945   1.772   4.871   4.765  1.9877  1.0048  2.2402
  138OSM    C7S14946   1.975   4.930   4.802  0.3722  0.1006 -0.1341
  138OSM    H7S14947   1.942   5.034   4.783 -0.4143 -0.1300 -0.0540
  138OSM    H7T14948   2.073   4.899   4.760 -0.0401  0.0054 -1.0501
  138OSM    C8S14949   1.956   4.900   4.957  0.6913  0.1602 -0.3032
  138OSM    H8S14950   2.046   4.926   5.017 -0.5411  0.5265  1.4533
  138OSM    H8T14951   1.948   4.790   4.969  0.4344  0.2356  0.2173
  138OSM    C9S14952   1.832   4.967   5.014 -0.2104 -0.2664 -0.0157
  138OSM    H9S14953   1.740   4.920   4.972 -0.4024 -0.2956  0.4329
  138OSM    H9T14954   1.827   5.076   4.995  0.4695 -0.1735  0.3131
  138OSM   C10S14955   1.815   4.955   5.167 -0.4515  0.8284  0.7339
  138OSM   H10S14956   1.881   5.030   5.216 -0.7641  1.1598  0.6572
  138OSM   H10T14957   1.844   4.856   5.208 -1.1085  0.8339  1.2128
  138OSM   C11S14958   1.672   4.981   5.215  0.4362  0.3669  0.4097
  138OSM   H11S14959   1.607   4.904   5.169  1.9109 -0.9183  0.3877
  138OSM   H11T14960   1.644   5.081   5.176 -0.9529 -0.1105  0.1380
  138OSM   C12S14961   1.657   4.989   5.369  0.1394  0.4253  0.4404
  138OSM   H12S14962   1.742   5.046   5.412  1.9997 -0.4578 -1.7909
  138OSM   H12T14963   1.658   4.884   5.406 -3.7368  0.1723  0.1696
  138OSM   C13S14964   1.544   5.083   5.413 -0.4173  0.5715  0.6004
  138OSM   H13S14965   1.460   5.072   5.341  0.5734  0.6769 -0.6071
  138OSM   H13T14966   1.585   5.186   5.405 -0.4833  0.5838  0.4141
  138OSM   C14S14967   1.510   5.053   5.557  0.2592  0.2648  0.3626
  138OSM   H14S14968   1.599   5.025   5.618 -0.4701  0.6002  1.6284
  138OSM   H14T14969   1.438   4.969   5.569 -0.0862  0.3845 -0.7605
  138OSM   C15S14970   1.442   5.169   5.625 -0.0689  0.0590 -0.1710
  138OSM   H15S14971   1.511   5.257   5.624  0.2042  0.1378  4.6304
  138OSM   H15T14972   1.439   5.139   5.731 -3.3768 -1.4299 -0.5803
  138OSM   C16S14973   1.313   5.210   5.562  0.0269  0.2685  0.1898
  138OSM   H16S14974   1.231   5.135   5.570  0.6810 -0.4122  0.6285
  138OSM   H16T14975   1.310   5.203   5.451 -3.0680  2.1262  0.0210
  138OSM   C17S14976   1.279   5.355   5.608 -0.2162  1.1843 -0.0170
  138OSM   H17S14977   1.352   5.424   5.561 -0.6892  1.8074  0.1420
  138OSM   H17T14978   1.301   5.354   5.717  0.2823  2.1431 -0.1003
  138OSM   C18S14979   1.139   5.410   5.566  0.4107  0.2786  1.1078
  138OSM   H18S14980   1.122   5.518   5.582  0.9009  0.3887  0.9083
  138OSM   H18T14981   1.051   5.362   5.614 -1.4320  3.5477  1.2546
  138OSM   H18U14982   1.124   5.412   5.456 -1.0500  3.4813  1.2683
  138OSM    C1F14983   1.577   4.798   4.228  0.0183  0.2736 -0.2446
  138OSM     OF14984   1.578   4.703   4.150 -0.1420 -0.1090  0.3423
  138OSM    C2F14985   1.448   4.871   4.260 -0.0742  0.1141  0.3078
  138OSM    H2F14986   1.380   4.853   4.174  1.0569 -2.3963 -0.1423
  138OSM    H2G14987   1.469   4.981   4.260  0.8779 -0.0500 -1.0419
  138OSM    C3F14988   1.387   4.827   4.394  0.5874  0.2783 -0.5696
  138OSM    H3F14989   1.373   4.718   4.409 -1.1180  0.6744  1.1961
  138OSM    H3G14990   1.284   4.869   4.400  0.8088  1.0550 -1.9333
  138OSM    C4F14991   1.471   4.867   4.519  1.1176 -0.1275 -0.1753
  138OSM    H4F14992   1.505   4.973   4.520  3.2168 -0.7261 -1.6043
  138OSM    H4G14993   1.568   4.814   4.527  0.4931 -1.0746  1.6912
  138OSM    C5F14994   1.390   4.847   4.649  0.2089 -0.4207 -0.1994
  138OSM    H5F14995   1.383   4.738   4.666 -1.0464 -0.1674  1.1768
  138OSM    H5G14996   1.283   4.878   4.640  0.1652 -0.6562 -0.4809
  138OSM    C6F14997   1.454   4.906   4.773  0.6606  0.0093 -0.1408
  138OSM    H6F14998   1.563   4.882   4.777  0.8937  0.9031 -0.8090
  138OSM    H6G14999   1.416   4.860   4.867 -1.7817  1.9163 -0.1093
  138OSM    C7F15000   1.434   5.051   4.774 -0.0720 -1.0214 -0.3355
  138OSM    H7F15001   1.336   5.085   4.735 -0.1906 -2.5253 -1.4236
  138OSM    H7G15002   1.519   5.092   4.714 -0.5768 -0.2227 -0.5190
  138OSM    C8F15003   1.441   5.108   4.913 -0.2263  0.1363 -0.4004
  138OSM    H8F15004   1.471   5.214   4.898  1.2109 -0.1764  0.1476
  138OSM    H8G15005   1.524   5.062   4.970 -1.1579  0.1248  0.9917
  138OSM    C9F15006   1.308   5.099   4.991 -0.3289 -0.0106  0.8579
  138OSM    H9F15007   1.269   4.997   5.003  1.5178 -0.5560  2.8097
  138OSM   C10F15008   1.236   5.199   5.044  0.0657 -0.0789  0.1098
  138OSM   H10F15009   1.144   5.168   5.098 -0.1112 -0.0123 -0.1536
  138OSM   C11F15010   1.269   5.349   5.046  0.6683 -0.3003 -0.7368
  138OSM   H11F15011   1.175   5.399   5.016  0.7216  2.6137  3.1173
  138OSM   H11G15012   1.344   5.380   4.971  1.7179 -0.2992  0.2812
  138OSM   C12F15013   1.294   5.417   5.187 -0.3889 -0.2556  0.6863
  138OSM   H12F15014   1.391   5.381   5.227 -0.0525  0.7860  0.8381
  138OSM   H12G15015   1.226   5.369   5.260 -0.2645  0.5268  1.3284
  138OSM   C13F15016   1.301   5.571   5.183 -0.2627 -0.8312  0.4785
  138OSM   H13F15017   1.302   5.604   5.289 -1.1055  0.1416  0.1941
  138OSM   H13G15018   1.221   5.623   5.127 -1.0629 -0.1092  2.2102
  138OSM   C14F15019   1.426   5.621   5.108 -0.4391 -0.4132 -0.2144
  138OSM   H14F15020   1.418   5.593   5.001 -1.1803  0.4064 -0.3893
  138OSM   H14G15021   1.508   5.564   5.157  0.4381  1.5754  0.7239
  138OSM   C15F15022   1.461   5.771   5.130 -0.7405 -0.4866  0.8594
  138OSM   H15F15023   1.480   5.787   5.239 -0.6080 -1.3194  0.9636
  138OSM   H15G15024   1.371   5.830   5.100 -0.4204 -0.0459  0.7581
  138OSM   C16F15025   1.574   5.831   5.046  0.8138 -0.0833 -0.1929
  138OSM   H16F15026   1.593   5.936   5.076  0.1823 -0.0149 -0.0086
  138OSM   H16G15027   1.545   5.835   4.939  2.2818 -2.7226 -0.7701
  138OSM   C17F15028   1.704   5.757   5.053  0.0723 -0.0737 -0.0549
  138OSM   H17F15029   1.688   5.661   4.998  0.7042 -0.1797 -0.0633
  138OSM   H17G15030   1.723   5.742   5.161  0.0039  1.8774  0.2671
  138OSM   C18F15031   1.808   5.845   4.982 -0.0975  0.0044  0.6425
  138OSM   H18F15032   1.784   5.856   4.874 -1.5792 -1.2353  0.8033
  138OSM   H18G15033   1.911   5.808   4.999  0.9168  1.7551 -1.3360
  138OSM   H18H15034   1.818   5.946   5.028  2.6711  0.1329 -0.0974
  139OSM      N15035   2.076   2.196   3.725 -0.3310 -0.2257  0.3747
  139OSM    C1515036   2.166   2.258   3.624 -0.1196 -0.4363  0.4668
  139OSM   H15A15037   2.206   2.180   3.560 -0.5678 -1.3783  1.3077
  139OSM   H15B15038   2.251   2.311   3.663  0.9201 -1.0228 -0.9330
  139OSM   H15C15039   2.111   2.320   3.555  1.3063  2.2167  1.5862
  139OSM    C1415040   2.156   2.099   3.806  0.1086 -0.0629  0.1956
  139OSM   H14A15041   2.186   2.026   3.733 -0.6003 -0.5943  0.4285
  139OSM   H14B15042   2.102   2.036   3.875  1.2085 -0.9974  0.2326
  139OSM   H14C15043   2.247   2.133   3.854  1.0433 -2.3216  0.1122
  139OSM    C1315044   2.027   2.308   3.809  0.0931  0.0162  0.0177
  139OSM   H13A15045   1.956   2.367   3.753 -0.4050 -0.1957  0.4220
  139OSM   H13B15046   2.105   2.378   3.835 -0.5317  0.5871  0.3918
  139OSM   H13C15047   1.982   2.269   3.899  1.0085 -2.7917 -0.6226
  139OSM    C1215048   1.962   2.121   3.652 -0.4941 -0.0455 -0.3394
  139OSM   H12A15049   2.009   2.040   3.598  0.2018 -1.5510  2.3808
  139OSM   H12B15050   1.917   2.198   3.591 -2.2004  0.3661  1.3333
  139OSM    C1115051   1.859   2.043   3.740  0.1506  0.6383 -0.2383
  139OSM   H11A15052   1.784   2.013   3.664 -0.3423  0.4806  0.3047
  139OSM   H11B15053   1.812   2.107   3.818 -4.0124  0.3606 -2.2223
  139OSM      P15054   1.838   1.841   3.898  0.1052  0.2844 -0.0126
  139OSM    O1315055   1.698   1.860   3.857 -0.2049 -0.4442 -0.7518
  139OSM    O1415056   1.892   1.702   3.894  0.2487  0.1757 -0.1502
  139OSM    O1115057   1.869   1.912   4.040 -0.2091 -0.1577 -0.2224
  139OSM    O1215058   1.920   1.924   3.794 -0.3889  0.7757 -0.0954
  139OSM    C1S15059   1.753   1.906   4.129 -0.1799 -0.5538 -0.2397
  139OSM    H1S15060   1.722   1.804   4.156  1.2342 -0.5598  1.5547
  139OSM    H1T15061   1.671   1.965   4.083  2.3340  1.5642 -2.4356
  139OSM     NF15062   1.683   1.953   4.357 -0.1724 -0.0331  0.2132
  139OSM    HNF15063   1.625   2.028   4.389 -3.5584 -2.8257  1.2692
  139OSM    C2S15064   1.786   1.982   4.261 -0.0535  0.7850 -0.4971
  139OSM    H2S15065   1.873   1.937   4.315 -0.1928  1.0736 -0.0219
  139OSM    C3S15066   1.804   2.131   4.237  0.5094 -1.0839  0.1119
  139OSM    H3S15067   1.702   2.167   4.215 -0.0460 -2.7411 -0.2363
  139OSM     O315068   1.895   2.163   4.133 -0.1894 -0.5694  0.4899
  139OSM    HO315069   1.904   2.091   4.070  1.3757 -0.0072  0.0021
  139OSM    C4S15070   1.843   2.214   4.356 -0.6054  0.1353  0.4176
  139OSM    H4S15071   1.756   2.239   4.418 -1.3669 -0.0726 -0.5498
  139OSM    C5S15072   1.965   2.248   4.398 -0.8911  0.3333 -0.3357
  139OSM    H5S15073   2.052   2.222   4.336 -0.3878  1.6597 -0.2190
  139OSM    C6S15074   2.000   2.339   4.517  0.0701 -0.1375 -0.3782
  139OSM    H6S15075   2.043   2.438   4.495 -0.9656  0.6187  0.7999
  139OSM    H6T15076   2.074   2.281   4.576  0.1424 -0.7497 -1.0563
  139OSM    C7S15077   1.879   2.350   4.614  0.3030  0.2116 -0.4665
  139OSM    H7S15078   1.821   2.256   4.629 -2.3260  1.9057  0.6412
  139OSM    H7T15079   1.807   2.417   4.562  0.0878 -0.9700 -1.7455
  139OSM    C8S15080   1.941   2.401   4.746 -0.7941 -0.2388 -0.3483
  139OSM    H8S15081   1.976   2.504   4.725  0.4825 -0.7494 -0.8483
  139OSM    H8T15082   2.032   2.343   4.772  0.3416  0.5566 -2.3549
  139OSM    C9S15083   1.831   2.400   4.850  0.0485 -0.3223  0.5518
  139OSM    H9S15084   1.814   2.292   4.865 -0.2330 -0.3986 -0.2615
  139OSM    H9T15085   1.742   2.448   4.803  0.7827 -0.7993 -1.4494
  139OSM   C10S15086   1.885   2.466   4.978 -0.3179  0.1152  0.1875
  139OSM   H10S15087   1.883   2.577   4.969  0.5972  0.5390  3.5059
  139OSM   H10T15088   1.990   2.429   4.981 -0.4176 -0.3786 -1.6659
  139OSM   C11S15089   1.813   2.411   5.103 -0.0559  0.7584 -0.0898
  139OSM   H11S15090   1.822   2.300   5.101 -1.6242  0.5898  1.0922
  139OSM   H11T15091   1.704   2.424   5.092  0.0260  1.7645  0.1732
  139OSM   C12S15092   1.871   2.465   5.234  0.0205  0.2001 -0.5809
  139OSM   H12S15093   1.830   2.565   5.258 -1.0932 -0.5352  0.7891
  139OSM   H12T15094   1.981   2.462   5.219  0.0589  1.0034 -0.4705
  139OSM   C13S15095   1.830   2.379   5.360 -0.2476 -0.2132  0.7780
  139OSM   H13S15096   1.870   2.276   5.352  0.6268  0.1514  0.2510
  139OSM   H13T15097   1.719   2.376   5.367 -0.6216 -0.4014 -2.9444
  139OSM   C14S15098   1.884   2.444   5.484 -0.4953  0.0184  0.0372
  139OSM   H14S15099   1.824   2.532   5.515 -1.3621 -0.8098  0.7485
  139OSM   H14T15100   1.989   2.476   5.461 -0.0459 -1.9555 -0.8764
  139OSM   C15S15101   1.880   2.343   5.602 -0.2490 -0.8440  0.2723
  139OSM   H15S15102   1.935   2.253   5.568 -1.1454 -0.3463 -2.8361
  139OSM   H15T15103   1.773   2.313   5.609 -1.2767  2.2805 -0.1666
  139OSM   C16S15104   1.944   2.402   5.732  0.4352 -0.3450  0.3852
  139OSM   H16S15105   1.930   2.512   5.736 -1.2902 -0.5576  1.1871
  139OSM   H16T15106   2.052   2.381   5.717  0.1485  0.1421 -3.2844
  139OSM   C17S15107   1.900   2.323   5.847  0.4002  0.1729  0.2634
  139OSM   H17S15108   1.890   2.215   5.821 -0.7983  0.5679 -0.9972
  139OSM   H17T15109   1.796   2.347   5.878  0.2954 -1.5176  1.3749
  139OSM   C18S15110   1.992   2.338   5.968  0.3688  0.3522 -0.3083
  139OSM   H18S15111   2.098   2.356   5.940  0.1743  1.1737 -0.5391
  139OSM   H18T15112   1.983   2.252   6.038  1.0146 -0.3155 -1.0251
  139OSM   H18U15113   1.939   2.419   6.022 -1.7463 -0.9780 -0.2601
  139OSM    C1F15114   1.673   1.832   4.412  0.2124  0.4264 -0.4436
  139OSM     OF15115   1.756   1.739   4.392 -0.0811 -0.1757 -0.0023
  139OSM    C2F15116   1.553   1.810   4.494 -0.0468  0.7207  0.4319
  139OSM    H2F15117   1.471   1.760   4.439  0.7524  1.5215 -1.5662
  139OSM    H2G15118   1.512   1.901   4.543 -0.1104  1.6701 -1.3000
  139OSM    C3F15119   1.564   1.715   4.616 -0.3705 -0.3635 -0.7617
  139OSM    H3F15120   1.646   1.748   4.684 -1.2928 -0.4998  0.4584
  139OSM    H3G15121   1.600   1.612   4.593  1.6924  0.4776 -1.4651
  139OSM    C4F15122   1.436   1.696   4.691  0.2933  0.6545  0.4095
  139OSM    H4F15123   1.364   1.647   4.623 -0.2331  0.1502  1.3143
  139OSM    H4G15124   1.390   1.797   4.693 -2.8647 -0.6952  0.2326
  139OSM    C5F15125   1.451   1.618   4.822 -0.4799  0.6049 -0.2088
  139OSM    H5F15126   1.540   1.552   4.818 -0.5942  0.4070  0.4144
  139OSM    H5G15127   1.358   1.557   4.828  0.2978 -0.5252  0.7726
  139OSM    C6F15128   1.463   1.722   4.933  0.5980  0.6025  0.0829
  139OSM    H6F15129   1.365   1.774   4.936  0.3065  0.0444  0.3518
  139OSM    H6G15130   1.541   1.796   4.905  2.9429 -1.9973 -0.7642
  139OSM    C7F15131   1.499   1.669   5.081 -0.0420  0.2840 -0.0910
  139OSM    H7F15132   1.601   1.626   5.071  1.0990  2.4124  1.6083
  139OSM    H7G15133   1.412   1.603   5.102 -0.7855  1.4299  0.5616
  139OSM    C8F15134   1.511   1.782   5.184 -0.3499 -0.0388  0.0728
  139OSM    H8F15135   1.410   1.828   5.190 -0.2970  0.1649 -0.5153
  139OSM    H8G15136   1.584   1.853   5.140 -1.4031  1.6210  0.8980
  139OSM    C9F15137   1.563   1.737   5.318 -0.1528 -0.2564  0.1926
  139OSM    H9F15138   1.617   1.642   5.317 -0.2946 -0.3771 -2.0805
  139OSM   C10F15139   1.550   1.812   5.432  0.2762  0.2407  0.0888
  139OSM   H10F15140   1.590   1.777   5.529 -1.8019 -1.2314  0.4997
  139OSM   C11F15141   1.479   1.938   5.442 -0.2060 -0.5621  0.2304
  139OSM   H11F15142   1.377   1.934   5.488  0.0316  1.1174  0.9822
  139OSM   H11G15143   1.460   1.981   5.341  0.5959 -0.1689  0.2416
  139OSM   C12F15144   1.566   2.049   5.520 -0.1581 -0.5188  0.4822
  139OSM   H12F15145   1.513   2.145   5.505 -0.9615 -0.6389  2.2788
  139OSM   H12G15146   1.669   2.060   5.479 -0.5654  1.2543 -0.1465
  139OSM   C13F15147   1.578   2.028   5.670 -0.4056  0.6467 -0.2153
  139OSM   H13F15148   1.631   2.118   5.707  0.3294  2.1518 -4.3780
  139OSM   H13G15149   1.641   1.937   5.680 -2.5737 -1.1174 -1.5920
  139OSM   C14F15150   1.438   2.007   5.742 -0.5690 -0.2713 -0.3393
  139OSM   H14F15151   1.463   1.995   5.850  1.6257  0.3911 -0.7092
  139OSM   H14G15152   1.396   1.908   5.718 -0.0727 -0.9784  1.5106
  139OSM   C15F15153   1.337   2.116   5.717  0.0987  0.0958  0.0967
  139OSM   H15F15154   1.244   2.078   5.765  1.4080 -2.3430  0.8857
  139OSM   H15G15155   1.323   2.113   5.607 -2.8116 -3.8986  0.3744
  139OSM   C16F15156   1.364   2.247   5.783  0.6381 -0.4913 -0.0144
  139OSM   H16F15157   1.468   2.263   5.748  0.5726 -1.1757 -0.5489
  139OSM   H16G15158   1.376   2.238   5.893 -1.2070  0.3675  0.2852
  139OSM   C17F15159   1.266   2.349   5.744  0.0184 -0.3012 -0.5695
  139OSM   H17F15160   1.284   2.443   5.800 -0.7679 -0.2738 -0.3476
  139OSM   H17G15161   1.168   2.321   5.788  0.4320 -0.5631  0.2160
  139OSM   C18F15162   1.253   2.373   5.598 -0.5787  0.4539  0.0651
  139OSM   H18F15163   1.211   2.288   5.540 -2.1754 -0.6623  2.6693
  139OSM   H18G15164   1.353   2.396   5.555 -0.1624  1.1752  1.3715
  139OSM   H18H15165   1.195   2.466   5.583  2.5826  2.8077  1.5063
  140OSM      N15166   5.610   4.919   3.393  0.2668  0.3322 -0.1371
  140OSM    C1515167   5.676   4.787   3.393  0.6109 -0.0137  0.8698
  140OSM   H15A15168   5.618   4.702   3.426 -1.5217  1.1661  0.3550
  140OSM   H15B15169   5.766   4.789   3.452  1.2376  0.7418 -0.0877
  140OSM   H15C15170   5.713   4.777   3.292  0.2280  6.2776 -0.2755
  140OSM    C1415171   5.709   5.014   3.328 -0.5421  0.1535 -0.0441
  140OSM   H14A15172   5.678   5.116   3.343 -0.5710 -0.0654  1.5950
  140OSM   H14B15173   5.725   4.999   3.223 -0.6489  0.6657 -0.1348
  140OSM   H14C15174   5.804   5.003   3.378 -0.0732 -1.4771 -1.2249
  140OSM    C1315175   5.491   4.912   3.298  0.2578 -0.1490 -0.0542
  140OSM   H13A15176   5.413   4.848   3.337 -0.6037 -0.8729 -2.7536
  140OSM   H13B15177   5.512   4.870   3.201  2.2841 -4.1812  1.9212
  140OSM   H13C15178   5.445   5.010   3.290 -0.5025 -0.5004 -0.0441
  140OSM    C1215179   5.567   4.969   3.531  0.3700  0.3727  0.2112
  140OSM   H12A15180   5.493   4.903   3.575  0.4744  0.7722  1.0121
  140OSM   H12B15181   5.514   5.062   3.516 -0.2461  0.3502  1.9900
  140OSM    C1115182   5.673   4.995   3.636  0.1027 -1.0641  0.2588
  140OSM   H11A15183   5.720   4.898   3.663  2.1054  0.0581  0.9812
  140OSM   H11B15184   5.624   5.029   3.730 -1.9476  2.5799 -1.8661
  140OSM      P15185   5.922   5.093   3.629  0.0709  0.0978  0.2523
  140OSM    O1315186   5.993   4.982   3.559 -0.0820 -0.0344  0.2692
  140OSM    O1415187   5.994   5.223   3.601 -0.0038  0.9465  0.2810
  140OSM    O1115188   5.929   5.066   3.784  0.1166  0.0289  0.2196
  140OSM    O1215189   5.768   5.099   3.600 -0.1220 -0.0436  0.6852
  140OSM    C1S15190   5.873   5.157   3.879  0.0018  0.2437 -0.2522
  140OSM    H1S15191   5.764   5.171   3.868 -0.2317  2.2706  3.3046
  140OSM    H1T15192   5.919   5.258   3.871 -2.6711  1.6594  1.0867
  140OSM     NF15193   5.789   5.160   4.119 -0.2218 -0.8578  0.8378
  140OSM    HNF15194   5.808   5.231   4.187  3.3636 -2.2088  1.4832
  140OSM    C2S15195   5.892   5.112   4.030 -0.4239  0.3859 -0.1660
  140OSM    H2S15196   5.890   5.001   4.038  2.0783  0.2443 -0.7102
  140OSM    C3S15197   6.037   5.147   4.079  0.3785  0.4237 -0.8055
  140OSM    H3S15198   6.035   5.259   4.076  0.8116  0.4318 -1.0412
  140OSM     O315199   6.137   5.108   3.985  0.2016  0.5594  0.4908
  140OSM    HO315200   6.090   5.103   3.902 -1.5069  3.3522  1.1472
  140OSM    C4S15201   6.076   5.108   4.218  0.0852  0.2829 -1.5444
  140OSM    H4S15202   6.094   5.195   4.283 -4.1986  0.4415 -0.2576
  140OSM    C5S15203   6.093   4.990   4.274 -0.0542  0.4873 -1.1665
  140OSM    H5S15204   6.076   4.900   4.213 -0.1794 -0.6758  0.5298
  140OSM    C6S15205   6.129   4.974   4.419 -0.5931 -0.4338 -0.4020
  140OSM    H6S15206   6.153   5.069   4.470  0.8654 -1.8127  1.6455
  140OSM    H6T15207   6.220   4.911   4.416  0.9911  1.4924  2.5514
  140OSM    C7S15208   6.014   4.904   4.498  0.3130  0.2531 -0.4091
  140OSM    H7S15209   5.979   4.802   4.471 -2.6952  1.4236 -1.3141
  140OSM    H7T15210   5.925   4.968   4.513 -0.1471 -1.0788  4.3799
  140OSM    C8S15211   6.051   4.904   4.653  0.1882  0.5231 -0.3934
  140OSM    H8S15212   6.062   5.010   4.686 -0.4731  0.2474  0.7547
  140OSM    H8T15213   6.151   4.857   4.665  1.2319  2.6506 -0.1835
  140OSM    C9S15214   5.942   4.831   4.742 -0.6032  0.6190  0.2404
  140OSM    H9S15215   5.901   4.736   4.700  1.2925 -0.4644  0.7239
  140OSM    H9T15216   5.864   4.908   4.762 -0.8877 -0.0352  1.7946
  140OSM   C10S15217   6.007   4.803   4.882 -0.3328  0.0051  0.3125
  140OSM   H10S15218   6.067   4.889   4.919 -1.1803  0.9446 -0.4422
  140OSM   H10T15219   6.061   4.706   4.879 -1.5089 -0.6836  0.4911
  140OSM   C11S15220   5.903   4.779   4.995 -0.0470  0.2384  0.5471
  140OSM   H11S15221   5.843   4.689   4.973 -0.1582  0.0987  1.3938
  140OSM   H11T15222   5.828   4.861   4.999  0.0621  0.4466 -0.9136
  140OSM   C12S15223   5.973   4.754   5.127 -0.4945 -0.0082  0.6760
  140OSM   H12S15224   6.058   4.685   5.112 -0.5465  0.2637 -1.1360
  140OSM   H12T15225   5.912   4.709   5.208  0.1910 -2.9102 -0.2967
  140OSM   C13S15226   6.020   4.887   5.188  0.5605 -0.3917  0.1157
  140OSM   H13S15227   5.950   4.973   5.187  1.8666  0.7081 -0.1439
  140OSM   H13T15228   6.109   4.922   5.132 -1.4431  2.5726 -1.5001
  140OSM   C14S15229   6.059   4.849   5.329  0.2022 -0.2061 -0.0462
  140OSM   H14S15230   6.132   4.766   5.316  1.4481  0.9002 -0.3820
  140OSM   H14T15231   5.972   4.810   5.385 -0.6984  0.5716 -0.8748
  140OSM   C15S15232   6.110   4.971   5.418  0.6336 -0.3189  0.1018
  140OSM   H15S15233   6.027   5.042   5.403  0.8057 -0.1999 -0.3077
  140OSM   H15T15234   6.205   5.011   5.375 -0.0163 -2.0274 -3.2512
  140OSM   C16S15235   6.133   4.940   5.561 -0.1569 -0.2432 -0.0775
  140OSM   H16S15236   6.220   4.871   5.561  0.6341  0.6559 -2.9376
  140OSM   H16T15237   6.046   4.880   5.598  0.2857 -0.9635 -0.1833
  140OSM   C17S15238   6.167   5.061   5.649 -0.6208 -0.3468  0.1018
  140OSM   H17S15239   6.088   5.139   5.646 -1.4729 -1.1755  0.5303
  140OSM   H17T15240   6.265   5.098   5.612 -1.0987  0.4338 -0.3943
  140OSM   C18S15241   6.186   5.020   5.793  0.3587  0.3393  0.0927
  140OSM   H18S15242   6.088   5.002   5.843 -0.3233 -2.5072 -1.9924
  140OSM   H18T15243   6.230   5.112   5.837  1.7322  0.4011 -1.3095
  140OSM   H18U15244   6.260   4.939   5.814  0.7979  1.0604  1.4870
  140OSM    C1F15245   5.660   5.126   4.107  0.5591 -0.1670  0.3009
  140OSM     OF15246   5.619   5.045   4.026  0.0357  0.8234  0.5008
  140OSM    C2F15247   5.559   5.194   4.199  0.5525 -0.3309 -0.2327
  140OSM    H2F15248   5.487   5.257   4.142  0.6198 -0.9867 -1.0727
  140OSM    H2G15249   5.615   5.261   4.268  0.0956 -1.1672  0.9849
  140OSM    C3F15250   5.478   5.090   4.275 -0.1692  0.0908 -0.5654
  140OSM    H3F15251   5.437   5.010   4.209  1.1184 -1.8950  0.9018
  140OSM    H3G15252   5.394   5.137   4.330 -0.8800 -1.1324 -0.5702
  140OSM    C4F15253   5.564   5.022   4.389  0.4193 -0.1735  0.9029
  140OSM    H4F15254   5.611   5.103   4.449 -0.0316 -0.6430  1.9034
  140OSM    H4G15255   5.636   4.957   4.335 -1.5954 -1.9977  0.2687
  140OSM    C5F15256   5.478   4.929   4.480  0.3998 -0.1462 -0.0878
  140OSM    H5F15257   5.433   4.841   4.430  0.8639 -0.2133 -0.3872
  140OSM    H5G15258   5.391   4.989   4.516  0.8734  0.4142  0.1457
  140OSM    C6F15259   5.561   4.875   4.598  1.0475 -0.2605  0.7649
  140OSM    H6F15260   5.623   4.954   4.645 -0.1444 -0.1047  2.1514
  140OSM    H6G15261   5.629   4.798   4.557  1.0425  1.4844 -2.9935
  140OSM    C7F15262   5.484   4.804   4.707 -0.4814  0.8326  0.7013
  140OSM    H7F15263   5.432   4.718   4.660  0.7896  0.7813 -0.6728
  140OSM    H7G15264   5.392   4.865   4.719 -0.4321  0.8812  0.8322
  140OSM    C8F15265   5.555   4.776   4.833  0.3671 -0.8121 -0.3237
  140OSM    H8F15266   5.630   4.700   4.802  1.3272 -0.3776  0.8632
  140OSM    H8G15267   5.479   4.718   4.890 -0.0361  1.4001  1.5128
  140OSM    C9F15268   5.596   4.897   4.923  0.5981  0.3071 -0.3254
  140OSM    H9F15269   5.637   4.984   4.870 -0.3913  1.8556  1.3736
  140OSM   C10F15270   5.591   4.889   5.054  0.4972  0.0271 -0.9278
  140OSM   H10F15271   5.621   4.979   5.111 -3.7316  0.0318  1.6775
  140OSM   C11F15272   5.530   4.775   5.134  0.3062 -0.5804 -0.9201
  140OSM   H11F15273   5.582   4.678   5.116  0.5207 -0.5158 -0.6544
  140OSM   H11G15274   5.426   4.754   5.102  0.0401  0.9667 -1.1487
  140OSM   C12F15275   5.524   4.818   5.280 -0.3576  0.1643 -0.5258
  140OSM   H12F15276   5.459   4.755   5.344  0.4782 -1.7993 -1.5189
  140OSM   H12G15277   5.482   4.921   5.287  0.6911  0.6472 -1.0769
  140OSM   C13F15278   5.661   4.822   5.356  0.9812  0.0251 -0.4719
  140OSM   H13F15279   5.723   4.908   5.323  1.4034 -0.0015  0.2481
  140OSM   H13G15280   5.710   4.724   5.345 -0.1279 -0.6604  0.5013
  140OSM   C14F15281   5.641   4.848   5.508  0.3442 -0.8081 -0.0549
  140OSM   H14F15282   5.591   4.756   5.545  1.6322 -1.2310  0.7239
  140OSM   H14G15283   5.573   4.935   5.513 -0.1723 -1.1728 -0.6518
  140OSM   C15F15284   5.762   4.896   5.582 -0.2148 -0.2168  0.3070
  140OSM   H15F15285   5.790   4.996   5.542  2.5384 -1.7508 -2.0102
  140OSM   H15G15286   5.845   4.825   5.559 -1.9198 -1.8310 -1.1489
  140OSM   C16F15287   5.756   4.895   5.732  0.5202 -0.3250  0.3477
  140OSM   H16F15288   5.858   4.915   5.772 -0.8473  1.2337  3.4441
  140OSM   H16G15289   5.733   4.793   5.769  3.0036 -0.0204  3.1341
  140OSM   C17F15290   5.668   5.002   5.795  0.5048 -0.1215  0.1642
  140OSM   H17F15291   5.563   4.999   5.756 -0.5061  1.1344  2.5647
  140OSM   H17G15292   5.705   5.101   5.761  1.1797 -0.7583 -0.9982
  140OSM   C18F15293   5.672   4.998   5.945  0.3063  0.2757 -0.5625
  140OSM   H18F15294   5.615   5.087   5.982 -0.5482 -0.4780 -0.0123
  140OSM   H18G15295   5.779   4.999   5.975 -0.6694  0.4740  3.6527
  140OSM   H18H15296   5.615   4.911   5.984  0.0387  1.0521  0.8639
  141OSM      N15297   2.890   3.261   4.220 -0.8104 -0.4689  0.4524
  141OSM    C1515298   2.972   3.367   4.155  1.0328 -0.1742 -0.0801
  141OSM   H15A15299   2.917   3.455   4.126  0.6859 -0.9891 -2.0978
  141OSM   H15B15300   3.007   3.332   4.059 -0.4697  0.7218 -0.9944
  141OSM   H15C15301   3.054   3.393   4.220  0.3498  0.6107  0.4896
  141OSM    C1415302   2.783   3.231   4.121 -0.2077 -0.4816 -0.1812
  141OSM   H14A15303   2.717   3.314   4.104 -0.0203 -0.3244 -0.1430
  141OSM   H14B15304   2.728   3.154   4.175  1.2945 -0.3163  1.7010
  141OSM   H14C15305   2.802   3.199   4.020 -3.1013 -1.0335 -0.6533
  141OSM    C1315306   2.979   3.147   4.248 -0.0759 -0.2559  0.7135
  141OSM   H13A15307   3.019   3.097   4.161 -1.3705 -0.3655  0.1607
  141OSM   H13B15308   2.938   3.082   4.324 -3.4529 -0.6968 -1.2596
  141OSM   H13C15309   3.066   3.189   4.296  0.2277 -0.3644  0.2699
  141OSM    C1215310   2.828   3.322   4.342  0.2549  0.1043 -0.4817
  141OSM   H12A15311   2.782   3.242   4.398 -0.7891  1.7735  1.1402
  141OSM   H12B15312   2.747   3.390   4.322  0.5921  1.6696  2.9186
  141OSM    C1115313   2.911   3.400   4.441 -0.2803 -0.1407 -0.6453
  141OSM   H11A15314   3.009   3.350   4.457  0.1704  0.3215 -1.8089
  141OSM   H11B15315   2.854   3.405   4.536 -0.3163  1.2906 -0.7087
  141OSM      P15316   2.840   3.651   4.424  0.6819  0.3200 -0.3323
  141OSM    O1315317   2.914   3.748   4.511  0.3171 -0.5531  0.2999
  141OSM    O1415318   2.791   3.701   4.294  0.1823  0.5711  0.1350
  141OSM    O1115319   2.716   3.591   4.510 -0.2340 -0.0800 -0.4894
  141OSM    O1215320   2.931   3.530   4.388 -0.2968  0.5792  0.2934
  141OSM    C1S15321   2.597   3.664   4.549 -0.7211  0.7148  0.2154
  141OSM    H1S15322   2.534   3.677   4.459  0.3802  0.1327 -0.6693
  141OSM    H1T15323   2.627   3.757   4.601 -1.2324 -0.9871  3.9270
  141OSM     NF15324   2.420   3.676   4.712 -0.2864 -0.0980 -0.4498
  141OSM    HNF15325   2.458   3.745   4.773  3.7781 -0.9344 -1.7409
  141OSM    C2S15326   2.514   3.585   4.648 -0.5240  0.4996 -0.0686
  141OSM    H2S15327   2.459   3.507   4.590 -0.8463  1.4703 -1.0995
  141OSM    C3S15328   2.607   3.522   4.756  0.8588  0.4072 -0.1248
  141OSM    H3S15329   2.668   3.600   4.806  0.0578  0.7301  0.3734
  141OSM     O315330   2.693   3.413   4.714  0.0176 -0.5950 -0.8754
  141OSM    HO315331   2.709   3.443   4.624  0.5848  2.0092 -0.0036
  141OSM    C4S15332   2.524   3.464   4.876  0.3989  0.5269  0.6140
  141OSM    H4S15333   2.477   3.366   4.855  1.1016 -0.3321  2.8057
  141OSM    C5S15334   2.526   3.526   4.997  0.1361 -0.3067 -0.0225
  141OSM    H5S15335   2.570   3.627   5.005 -0.4018  0.1112 -1.8284
  141OSM    C6S15336   2.439   3.485   5.116  0.1718  0.2065  0.0841
  141OSM    H6S15337   2.367   3.562   5.152 -0.0855 -0.7560  1.7362
  141OSM    H6T15338   2.513   3.471   5.197  0.7703 -0.2299 -0.5241
  141OSM    C7S15339   2.359   3.346   5.099 -0.1708  0.9807 -0.8452
  141OSM    H7S15340   2.433   3.272   5.063  0.6652  0.0481  2.3879
  141OSM    H7T15341   2.274   3.353   5.029  0.2800  0.5928 -1.4413
  141OSM    C8S15342   2.307   3.285   5.235 -0.3536  0.1303  0.3295
  141OSM    H8S15343   2.254   3.190   5.214 -0.0291 -0.6890  2.8400
  141OSM    H8T15344   2.243   3.362   5.283  0.8766  1.3248  0.1104
  141OSM    C9S15345   2.414   3.250   5.334 -0.4921 -0.1584 -0.1859
  141OSM    H9S15346   2.469   3.345   5.349 -0.0182 -0.4766  0.1485
  141OSM    H9T15347   2.482   3.176   5.287 -0.3439 -0.2669  0.1939
  141OSM   C10S15348   2.353   3.203   5.469 -0.1967  0.2108 -0.1067
  141OSM   H10S15349   2.280   3.124   5.442 -0.3540 -0.1246  1.2240
  141OSM   H10T15350   2.296   3.282   5.523 -0.0876  1.2423 -1.4377
  141OSM   C11S15351   2.459   3.140   5.564  0.0551 -0.1622 -0.0943
  141OSM   H11S15352   2.539   3.212   5.592  0.6673 -0.3441 -1.3124
  141OSM   H11T15353   2.514   3.057   5.514 -1.2496 -0.3635 -1.2608
  141OSM   C12S15354   2.400   3.068   5.687 -0.0413  0.0966  0.2108
  141OSM   H12S15355   2.490   3.026   5.737  0.5692  0.4050 -0.6086
  141OSM   H12T15356   2.335   2.987   5.647  0.4671 -0.5796  0.7199
  141OSM   C13S15357   2.311   3.145   5.788 -0.2354 -0.0465  0.7736
  141OSM   H13S15358   2.226   3.198   5.740  0.3853  1.3448  1.1786
  141OSM   H13T15359   2.377   3.215   5.844  0.2036  2.0198 -2.1089
  141OSM   C14S15360   2.246   3.046   5.893 -0.0215 -0.1375  0.0488
  141OSM   H14S15361   2.306   2.952   5.892  1.4520  0.7019  1.9781
  141OSM   H14T15362   2.143   3.026   5.857 -0.7238 -0.7162  2.2187
  141OSM   C15S15363   2.254   3.089   6.041  0.3346 -0.2403  0.3976
  141OSM   H15S15364   2.173   3.040   6.099  1.2876 -2.1844  0.1748
  141OSM   H15T15365   2.253   3.200   6.043 -1.0522 -0.2452  1.3069
  141OSM   C16S15366   2.381   3.050   6.116  0.6540  0.4140 -0.1044
  141OSM   H16S15367   2.378   3.097   6.217  2.5959 -1.8103  1.0989
  141OSM   H16T15368   2.476   3.080   6.067  2.0305 -1.6072  1.1844
  141OSM   C17S15369   2.407   2.894   6.120 -0.0715 -0.7028  0.0352
  141OSM   H17S15370   2.421   2.844   6.022 -1.7947 -3.0953  0.8968
  141OSM   H17T15371   2.309   2.857   6.158 -1.7692  1.8049 -1.6328
  141OSM   C18S15372   2.522   2.848   6.216 -0.1361 -1.1356 -0.4235
  141OSM   H18S15373   2.537   2.738   6.216  3.9792 -0.7583  0.6755
  141OSM   H18T15374   2.492   2.876   6.319 -2.6890  0.1305 -1.4327
  141OSM   H18U15375   2.622   2.889   6.188 -0.7385  1.0703  0.4660
  141OSM    C1F15376   2.315   3.725   4.638 -0.0169  0.4322 -0.3358
  141OSM     OF15377   2.290   3.675   4.530  0.4702 -0.8720  0.0185
  141OSM    C2F15378   2.247   3.848   4.691 -0.1263  0.2674  0.0685
  141OSM    H2F15379   2.273   3.937   4.631 -0.7520  0.7186  0.4559
  141OSM    H2G15380   2.275   3.866   4.797  0.5191 -0.5957  0.0597
  141OSM    C3F15381   2.092   3.836   4.670 -0.4612  0.4357  0.1851
  141OSM    H3F15382   2.061   3.825   4.564 -2.4717  1.3473  0.6196
  141OSM    H3G15383   2.042   3.923   4.718 -1.7268  0.7071 -1.5062
  141OSM    C4F15384   2.026   3.721   4.748  0.0837  0.1992  0.3950
  141OSM    H4F15385   2.052   3.619   4.714 -2.1503 -0.3246  0.0791
  141OSM    H4G15386   1.918   3.731   4.724  0.4429 -0.5721 -1.7045
  141OSM    C5F15387   2.033   3.738   4.900 -0.1899 -0.7302  0.2350
  141OSM    H5F15388   1.975   3.826   4.932  0.2057 -0.5812  0.5536
  141OSM    H5G15389   2.139   3.756   4.927 -0.2564  1.6062 -0.8451
  141OSM    C6F15390   1.985   3.610   4.968 -0.0449  0.0158 -1.0472
  141OSM    H6F15391   2.045   3.521   4.937 -0.3257 -1.1158  1.4441
  141OSM    H6G15392   1.879   3.603   4.937 -0.3772  4.8372 -1.8421
  141OSM    C7F15393   2.022   3.611   5.120  0.2051 -0.2981  0.6831
  141OSM    H7F15394   1.979   3.706   5.158  3.1557  0.7748  1.6071
  141OSM    H7G15395   2.132   3.620   5.137  0.0842  0.6706  1.0046
  141OSM    C8F15396   1.965   3.491   5.206  0.7797 -0.6929  0.1238
  141OSM    H8F15397   2.028   3.489   5.298  3.6117  1.3334 -1.6090
  141OSM    H8G15398   1.978   3.399   5.147 -0.8979 -1.4071  0.7893
  141OSM    C9F15399   1.820   3.517   5.237 -0.0901 -0.4525 -0.4439
  141OSM    H9F15400   1.755   3.518   5.149  2.2000  0.9358 -2.2429
  141OSM   C10F15401   1.764   3.547   5.354  0.0919 -0.8175  1.1861
  141OSM   H10F15402   1.654   3.547   5.360 -0.0795  2.6892  0.6046
  141OSM   C11F15403   1.823   3.557   5.494  0.1841  0.0397  0.1515
  141OSM   H11F15404   1.747   3.592   5.567  1.2012  1.2511  0.6623
  141OSM   H11G15405   1.914   3.619   5.494 -1.5121  2.7797  2.5058
  141OSM   C12F15406   1.853   3.413   5.545 -0.1894 -0.3081 -0.1988
  141OSM   H12F15407   1.878   3.343   5.462 -1.8758  1.1719 -2.0528
  141OSM   H12G15408   1.760   3.372   5.589 -0.7407 -0.6099 -1.5892
  141OSM   C13F15409   1.958   3.409   5.653 -0.2707 -0.5216 -0.3229
  141OSM   H13F15410   2.044   3.470   5.620  0.4380 -1.3281 -0.0038
  141OSM   H13G15411   1.997   3.305   5.658  0.8665 -0.0490  1.6973
  141OSM   C14F15412   1.903   3.482   5.781 -0.0997 -0.3419 -0.7398
  141OSM   H14F15413   1.834   3.405   5.820  0.5069 -1.1675 -1.2684
  141OSM   H14G15414   1.844   3.571   5.750  1.8948  0.8904 -1.1724
  141OSM   C15F15415   2.012   3.510   5.879 -0.2021  0.1094 -0.1467
  141OSM   H15F15416   2.076   3.588   5.832 -0.9199 -0.2633 -1.8268
  141OSM   H15G15417   2.078   3.421   5.887 -1.9747 -1.6918 -3.3052
  141OSM   C16F15418   1.969   3.536   6.026 -0.0813  0.3346  0.5019
  141OSM   H16F15419   1.923   3.637   6.024 -1.2749 -0.1714  1.3488
  141OSM   H16G15420   2.042   3.538   6.109  0.1984 -0.9030  0.3121
  141OSM   C17F15421   1.850   3.455   6.085  0.4645 -0.3497  0.1503
  141OSM   H17F15422   1.762   3.454   6.017  0.9625  0.7287 -0.5378
  141OSM   H17G15423   1.812   3.506   6.176 -2.8253 -1.3974 -0.5188
  141OSM   C18F15424   1.888   3.304   6.104  0.0822 -0.1973 -0.9530
  141OSM   H18F15425   1.808   3.248   6.157  1.3894 -0.5321  0.7468
  141OSM   H18G15426   1.975   3.286   6.171 -1.1869 -0.2574  0.7717
  141OSM   H18H15427   1.910   3.246   6.012  1.9848 -1.9528  0.5109
  142OSM      N15428   2.757   5.369   4.111 -0.1395  0.3010 -0.1541
  142OSM    C1515429   2.633   5.374   4.192  0.4732 -0.3016  0.2737
  142OSM   H15A15430   2.556   5.312   4.148 -1.6457 -0.9055  4.2830
  142OSM   H15B15431   2.585   5.470   4.199 -2.0307 -1.1863 -2.7197
  142OSM   H15C15432   2.648   5.330   4.290 -0.9977 -0.3525  0.4915
  142OSM    C1415433   2.813   5.225   4.117  0.6265 -0.2222 -0.0883
  142OSM   H14A15434   2.736   5.156   4.087 -0.7314  0.8823  0.7289
  142OSM   H14B15435   2.845   5.202   4.217  0.0422  2.6869  0.8594
  142OSM   H14C15436   2.903   5.210   4.058  1.2756 -1.2659  1.1156
  142OSM    C1315437   2.720   5.409   3.971  0.6410  0.0116 -0.7051
  142OSM   H13A15438   2.627   5.357   3.953  0.7656 -0.7108  0.6602
  142OSM   H13B15439   2.793   5.372   3.901  1.9849 -1.3923  1.3521
  142OSM   H13C15440   2.703   5.515   3.959 -0.9113 -0.3733 -2.3825
  142OSM    C1215441   2.858   5.463   4.164  0.4419  0.3795  0.7553
  142OSM   H12A15442   2.807   5.557   4.154 -0.6220 -0.1447  1.0669
  142OSM   H12B15443   2.946   5.465   4.102  1.8724  1.4772  2.7047
  142OSM    C1115444   2.912   5.441   4.303  0.1861 -0.4138  0.1085
  142OSM   H11A15445   2.954   5.339   4.315 -2.4558 -1.6221 -0.2539
  142OSM   H11B15446   2.833   5.443   4.382  0.3470  1.8343  0.2702
  142OSM      P15447   2.960   5.682   4.392 -0.0669 -0.4201  0.5254
  142OSM    O1315448   3.075   5.773   4.378 -0.5233  0.5036  0.3684
  142OSM    O1415449   2.833   5.716   4.312  0.0390  0.3206 -0.0129
  142OSM    O1115450   2.930   5.642   4.542  0.7377 -0.2053 -0.4781
  142OSM    O1215451   3.014   5.544   4.329 -0.5871 -0.0659  0.1192
  142OSM    C1S15452   3.023   5.577   4.629  1.0765 -0.0585  0.8812
  142OSM    H1S15453   3.125   5.619   4.619  0.0226  3.2134  2.6632
  142OSM    H1T15454   3.026   5.470   4.599  0.8838 -0.0805  0.9347
  142OSM     NF15455   3.110   5.524   4.852  0.8367 -0.3203 -0.5115
  142OSM    HNF15456   3.105   5.431   4.889  3.0854 -0.1166  0.4139
  142OSM    C2S15457   2.986   5.578   4.781 -0.4758 -0.5146 -0.2713
  142OSM    H2S15458   2.965   5.683   4.808 -2.2394 -0.7754 -0.4859
  142OSM    C3S15459   2.857   5.493   4.795 -0.3111  0.3847 -0.2608
  142OSM    H3S15460   2.870   5.383   4.790  1.6941  0.5789 -0.1050
  142OSM     O315461   2.752   5.529   4.708 -0.5448  0.3771  0.0829
  142OSM    HO315462   2.793   5.581   4.638  0.6300  1.7890  1.7449
  142OSM    C4S15463   2.789   5.502   4.939  0.4116  0.4422 -0.3765
  142OSM    H4S15464   2.691   5.552   4.936  0.4224  0.4445 -2.1443
  142OSM    C5S15465   2.815   5.422   5.044  0.1534  0.1258 -0.2767
  142OSM    H5S15466   2.890   5.343   5.035  0.2476 -0.0320  1.4773
  142OSM    C6S15467   2.728   5.413   5.166  0.0877 -0.2361 -0.1364
  142OSM    H6S15468   2.746   5.329   5.236 -0.7220 -0.0714  0.2905
  142OSM    H6T15469   2.621   5.410   5.135 -0.2761 -1.5923  1.1570
  142OSM    C7S15470   2.754   5.541   5.251  0.1774 -0.3098 -0.9778
  142OSM    H7S15471   2.725   5.637   5.203  3.1289  0.9989 -0.3279
  142OSM    H7T15472   2.858   5.547   5.290  0.1364 -2.8358 -0.2537
  142OSM    C8S15473   2.667   5.525   5.377  0.6368  0.7229 -0.1597
  142OSM    H8S15474   2.686   5.422   5.415  1.7492  1.6220  1.8663
  142OSM    H8T15475   2.562   5.541   5.344  0.9280  2.8947 -0.1622
  142OSM    C9S15476   2.709   5.621   5.490  0.5937 -0.0934  0.1319
  142OSM    H9S15477   2.819   5.618   5.510  0.3073  2.1351  2.4090
  142OSM    H9T15478   2.664   5.580   5.583  1.9977 -0.7789  0.5454
  142OSM   C10S15479   2.645   5.759   5.452 -0.7069  0.0032  0.0110
  142OSM   H10S15480   2.541   5.756   5.414 -0.2539 -1.9385 -1.1933
  142OSM   H10T15481   2.711   5.797   5.372  0.4953  3.5812  2.4456
  142OSM   C11S15482   2.623   5.852   5.569 -0.0354  0.4319 -0.7014
  142OSM   H11S15483   2.551   5.792   5.629 -0.1118  2.7318  1.6464
  142OSM   H11T15484   2.582   5.952   5.543  1.9546  1.0643 -1.6150
  142OSM   C12S15485   2.751   5.869   5.657 -0.2999 -0.3617 -0.3977
  142OSM   H12S15486   2.817   5.936   5.598 -3.3710 -0.3212 -4.2436
  142OSM   H12T15487   2.796   5.771   5.683  0.0963  0.0930  0.7009
  142OSM   C13S15488   2.720   5.945   5.789 -0.2175 -0.2965 -0.0521
  142OSM   H13S15489   2.646   5.875   5.832  0.1451 -0.2114  0.7190
  142OSM   H13T15490   2.665   6.038   5.761 -0.4473 -1.1782 -2.9261
  142OSM   C14S15491   2.826   5.975   5.892 -0.9116  0.2362  0.0949
  142OSM   H14S15492   2.763   6.024   5.969  0.1731 -0.5456  1.5335
  142OSM   H14T15493   2.900   6.044   5.846 -1.4916  0.5921 -0.3013
  142OSM   C15S15494   2.891   5.846   5.954 -0.2055  0.1687  0.6005
  142OSM   H15S15495   2.955   5.885   6.037 -0.9882  2.6285  0.1313
  142OSM   H15T15496   2.968   5.809   5.883  0.9835  1.6663  1.0410
  142OSM   C16S15497   2.801   5.728   5.997 -0.1448 -0.1257 -0.5630
  142OSM   H16S15498   2.744   5.668   5.923 -1.5005  1.9213 -1.2716
  142OSM   H16T15499   2.722   5.781   6.055  1.9314  1.7229  0.7561
  142OSM   C17S15500   2.880   5.631   6.088  0.5228  0.1907 -0.3950
  142OSM   H17S15501   2.941   5.697   6.154  0.8347  0.3620 -0.8444
  142OSM   H17T15502   2.943   5.565   6.025 -1.9336 -2.4095 -0.2851
  142OSM   C18S15503   2.786   5.532   6.166  0.4033 -0.4195 -0.4670
  142OSM   H18S15504   2.833   5.457   6.234  0.6500  0.3546  0.2419
  142OSM   H18T15505   2.722   5.474   6.097 -1.6718 -2.2312  2.7118
  142OSM   H18U15506   2.724   5.599   6.229  1.5437  0.3328 -0.1036
  142OSM    C1F15507   3.218   5.587   4.873 -0.2228 -0.1530 -0.6040
  142OSM     OF15508   3.227   5.706   4.845 -0.1050  0.1516 -0.1201
  142OSM    C2F15509   3.330   5.510   4.925 -0.5321  0.3436 -0.0420
  142OSM    H2F15510   3.354   5.424   4.858 -0.8546 -1.7266  2.3634
  142OSM    H2G15511   3.294   5.473   5.023 -0.6420  0.3796 -0.0676
  142OSM    C3F15512   3.456   5.601   4.956  0.3784 -0.3226  0.0920
  142OSM    H3F15513   3.412   5.670   5.031  1.7992 -2.2998  2.9561
  142OSM    H3G15514   3.496   5.657   4.869 -1.0796  1.3720  0.4827
  142OSM    C4F15515   3.562   5.524   5.021 -0.2233  0.5307 -0.2205
  142OSM    H4F15516   3.570   5.436   4.954 -0.1412 -0.3294  0.8847
  142OSM    H4G15517   3.533   5.471   5.115 -0.2606 -0.1320 -0.6012
  142OSM    C5F15518   3.695   5.607   5.026 -0.0462  0.2987  0.1659
  142OSM    H5F15519   3.678   5.715   5.045 -0.0076  0.3784 -0.2524
  142OSM    H5G15520   3.748   5.597   4.929 -0.6953  0.3034 -0.1942
  142OSM    C6F15521   3.792   5.568   5.138 -0.1738 -0.3485 -0.7387
  142OSM    H6F15522   3.895   5.599   5.110 -0.2831 -0.6674 -1.5127
  142OSM    H6G15523   3.798   5.457   5.149 -2.1867 -0.3321  1.3768
  142OSM    C7F15524   3.755   5.628   5.275 -0.0008  0.3628  0.1589
  142OSM    H7F15525   3.652   5.594   5.301  0.2686  1.2885  2.7945
  142OSM    H7G15526   3.763   5.738   5.264 -3.7451  0.9145  1.6161
  142OSM    C8F15527   3.845   5.568   5.383 -0.1416  0.1095 -0.7725
  142OSM    H8F15528   3.949   5.602   5.367 -0.0720  0.5409  0.5319
  142OSM    H8G15529   3.847   5.457   5.368  0.3796  0.0910 -0.5951
  142OSM    C9F15530   3.786   5.597   5.520  0.0460  0.5455  0.1946
  142OSM    H9F15531   3.714   5.524   5.559 -0.1922  0.1910 -0.8664
  142OSM   C10F15532   3.835   5.694   5.601  0.1062 -0.2304 -0.1828
  142OSM   H10F15533   3.781   5.695   5.697 -2.3217  2.3601 -1.4379
  142OSM   C11F15534   3.936   5.799   5.586  0.0599 -0.3252  1.3365
  142OSM   H11F15535   3.999   5.791   5.495 -0.2095  2.0759  0.8792
  142OSM   H11G15536   4.010   5.794   5.669  1.6596 -0.0881 -0.0209
  142OSM   C12F15537   3.878   5.936   5.579  0.6434  0.1405 -0.1871
  142OSM   H12F15538   3.803   5.948   5.497  1.2977  0.4797 -0.7496
  142OSM   H12G15539   3.968   6.001   5.570  1.0257 -0.3359  0.1947
  142OSM   C13F15540   3.791   5.976   5.700  0.4799 -0.4899 -0.2463
  142OSM   H13F15541   3.693   5.923   5.694 -0.2162  0.5018  1.5128
  142OSM   H13G15542   3.767   6.080   5.670 -2.1862 -1.3519 -1.4612
  142OSM   C14F15543   3.846   5.980   5.839 -0.6824 -0.2261 -0.1457
  142OSM   H14F15544   3.923   6.059   5.852  1.2362 -1.7871 -1.5130
  142OSM   H14G15545   3.884   5.880   5.870  0.9675  0.2913 -0.3991
  142OSM   C15F15546   3.733   6.003   5.944 -0.0469  0.2173 -0.0947
  142OSM   H15F15547   3.647   5.933   5.938 -1.5348  1.8315  1.1544
  142OSM   H15G15548   3.690   6.103   5.920  1.4771  0.8203 -0.3815
  142OSM   C16F15549   3.775   6.002   6.084 -0.2990  0.2378 -0.5356
  142OSM   H16F15550   3.706   6.060   6.149 -1.0259 -0.1961 -0.9034
  142OSM   H16G15551   3.877   6.045   6.093 -0.7291  1.0161  1.0040
  142OSM   C17F15552   3.783   5.859   6.143  0.1182 -0.1114  0.1607
  142OSM   H17F15553   3.871   5.805   6.101  0.5791 -2.9039  4.1283
  142OSM   H17G15554   3.690   5.802   6.122 -0.6630  0.5478  1.6743
  142OSM   C18F15555   3.806   5.856   6.293 -0.6815 -0.2061 -0.5627
  142OSM   H18F15556   3.805   5.752   6.332  0.3250 -0.1941 -0.4839
  142OSM   H18G15557   3.718   5.906   6.340 -0.1072 -0.3719  0.7314
  142OSM   H18H15558   3.901   5.910   6.311 -1.7367  1.6233 -0.2130
  143OSM      N15559   4.312   3.293   4.064 -0.3771 -0.3899 -0.5459
  143OSM    C1515560   4.442   3.318   4.145 -0.1672  0.1027  0.5885
  143OSM   H15A15561   4.483   3.227   4.185  0.7067  0.0051 -0.4907
  143OSM   H15B15562   4.427   3.392   4.222  0.6063  0.4881  0.3715
  143OSM   H15C15563   4.523   3.352   4.082 -0.3663  2.1299  1.3649
  143OSM    C1415564   4.260   3.433   4.034  0.0477 -0.8113  0.0355
  143OSM   H14A15565   4.163   3.423   3.988 -0.4491  0.8115  0.6629
  143OSM   H14B15566   4.313   3.492   3.961 -3.8568  1.5768 -1.1557
  143OSM   H14C15567   4.255   3.481   4.131  1.8855 -0.1073 -0.1798
  143OSM    C1315568   4.333   3.219   3.941 -0.1831  0.3475 -0.2667
  143OSM   H13A15569   4.416   3.255   3.883  0.9888  0.9723  1.7176
  143OSM   H13B15570   4.256   3.226   3.865  0.6878  1.8614 -1.0442
  143OSM   H13C15571   4.343   3.112   3.949  1.8525  0.1167 -3.7570
  143OSM    C1215572   4.221   3.218   4.156  0.3659 -0.1139  0.4608
  143OSM   H12A15573   4.275   3.128   4.182  0.6465  0.1158  0.6884
  143OSM   H12B15574   4.135   3.187   4.099  0.6993  1.7440 -1.1497
  143OSM    C1115575   4.157   3.267   4.287 -0.9601  0.9637 -0.1753
  143OSM   H11A15576   4.225   3.267   4.375 -0.7782 -3.8683 -0.0691
  143OSM   H11B15577   4.094   3.178   4.307  0.4795 -0.2300 -0.7625
  143OSM      P15578   3.945   3.391   4.205  0.1198  0.4072  0.6000
  143OSM    O1315579   3.873   3.512   4.233 -0.0750 -0.0189  0.6591
  143OSM    O1415580   3.942   3.334   4.069  0.3433 -0.2509 -0.0623
  143OSM    O1115581   3.878   3.280   4.303 -0.4990  0.3771 -0.9634
  143OSM    O1215582   4.087   3.390   4.267 -0.1874  0.0222  0.2275
  143OSM    C1S15583   3.893   3.313   4.448  0.1809  0.2604 -0.0185
  143OSM    H1S15584   3.846   3.411   4.469  0.0431 -0.0518  1.2103
  143OSM    H1T15585   3.996   3.319   4.489 -0.1189 -0.0059  0.8006
  143OSM     NF15586   3.836   3.250   4.668  0.1777 -0.3524 -0.9362
  143OSM    HNF15587   3.916   3.225   4.721 -0.6317 -0.4620  0.2858
  143OSM    C2S15588   3.835   3.204   4.534  0.5061  0.2600 -0.2573
  143OSM    H2S15589   3.729   3.190   4.507  0.4479 -1.1275  0.5972
  143OSM    C3S15590   3.901   3.059   4.510 -0.2663 -0.4082  0.4080
  143OSM    H3S15591   4.001   3.076   4.555 -0.8532  2.6628  0.7852
  143OSM     O315592   3.932   3.016   4.376 -0.2054  0.2117  0.2676
  143OSM    HO315593   3.908   3.087   4.317  1.4305  0.1193 -0.5573
  143OSM    C4S15594   3.822   2.949   4.582 -0.1439 -0.1026 -0.0144
  143OSM    H4S15595   3.715   2.950   4.557  0.2922  0.0312 -2.1228
  143OSM    C5S15596   3.870   2.892   4.696 -0.1857 -0.9202  0.2456
  143OSM    H5S15597   3.975   2.910   4.723 -0.4422  3.7447 -0.8505
  143OSM    C6S15598   3.783   2.819   4.787  0.1049 -0.1222 -1.1401
  143OSM    H6S15599   3.806   2.711   4.773  0.5379 -0.1529 -0.2692
  143OSM    H6T15600   3.675   2.836   4.768  0.3661  0.3225 -2.3175
  143OSM    C7S15601   3.827   2.865   4.933 -0.2623  0.0695  0.3896
  143OSM    H7S15602   3.938   2.857   4.938 -0.2621 -2.9295 -1.6157
  143OSM    H7T15603   3.779   2.785   4.994  1.7383 -0.1151  1.8324
  143OSM    C8S15604   3.773   3.000   4.980 -0.3278  0.0572  0.6139
  143OSM    H8S15605   3.662   3.008   4.970 -0.3907 -0.9296  0.3249
  143OSM    H8T15606   3.815   3.085   4.923 -0.8219 -0.6149 -0.8202
  143OSM    C9S15607   3.805   3.013   5.124  0.2755 -0.2645  0.3221
  143OSM    H9S15608   3.791   3.119   5.156 -1.0600 -0.4536  0.4140
  143OSM    H9T15609   3.910   2.976   5.132  0.1768 -0.5065  0.4822
  143OSM   C10S15610   3.717   2.930   5.227 -0.4216 -0.1739  0.5480
  143OSM   H10S15611   3.703   2.824   5.194  1.9938 -0.3725 -0.0188
  143OSM   H10T15612   3.617   2.977   5.231 -0.4795 -0.2520  0.0590
  143OSM   C11S15613   3.771   2.942   5.368  0.4779  0.5046 -0.3404
  143OSM   H11S15614   3.680   2.939   5.432  0.7218 -1.7280 -0.0131
  143OSM   H11T15615   3.823   3.038   5.388 -1.4885  1.8260 -1.3199
  143OSM   C12S15616   3.858   2.815   5.411  0.2840 -0.3089 -0.2370
  143OSM   H12S15617   3.786   2.730   5.403 -1.4964  0.9354  1.5356
  143OSM   H12T15618   3.869   2.828   5.521  1.4160 -0.1870 -0.3535
  143OSM   C13S15619   3.991   2.800   5.339 -0.3690 -0.9356  0.2846
  143OSM   H13S15620   3.971   2.787   5.231 -1.1729  1.9259  0.0114
  143OSM   H13T15621   4.045   2.709   5.373 -0.7110 -1.6041 -0.9125
  143OSM   C14S15622   4.094   2.913   5.359 -0.0684  0.4221  0.3415
  143OSM   H14S15623   4.125   2.910   5.466  0.4611  1.9625  0.2613
  143OSM   H14T15624   4.054   3.010   5.323  1.0066  0.6461 -0.3089
  143OSM   C15S15625   4.233   2.886   5.286  0.4331  0.6535 -0.2079
  143OSM   H15S15626   4.213   2.870   5.178 -0.4413 -2.0036  0.2864
  143OSM   H15T15627   4.275   2.788   5.318  1.4250  1.3207  0.6073
  143OSM   C16S15628   4.338   2.987   5.318  0.1721  0.8291  0.4440
  143OSM   H16S15629   4.370   2.978   5.424  1.0740 -1.0442  0.0705
  143OSM   H16T15630   4.295   3.087   5.299  1.6745  1.3289 -0.5868
  143OSM   C17S15631   4.468   2.966   5.235  0.4275 -0.4872 -0.5226
  143OSM   H17S15632   4.449   2.918   5.136 -0.6640 -0.4885 -0.3301
  143OSM   H17T15633   4.541   2.910   5.297  0.1441  0.9942  1.2135
  143OSM   C18S15634   4.547   3.095   5.203  0.3130  0.2599  0.4973
  143OSM   H18S15635   4.641   3.064   5.153 -0.8455 -0.4189 -1.3618
  143OSM   H18T15636   4.575   3.158   5.291  1.3772 -1.2818  1.3095
  143OSM   H18U15637   4.498   3.154   5.123  1.6431  0.0090 -0.5411
  143OSM    C1F15638   3.752   3.348   4.692  0.0912 -0.2990 -0.2860
  143OSM     OF15639   3.663   3.379   4.617  0.3628  0.2781  0.1614
  143OSM    C2F15640   3.770   3.425   4.824 -0.0522  0.6246 -0.6045
  143OSM    H2F15641   3.781   3.535   4.817  2.0613  0.4272 -0.8928
  143OSM    H2G15642   3.856   3.382   4.880  0.0426  0.5349 -0.8177
  143OSM    C3F15643   3.647   3.406   4.911 -0.2478 -0.2560 -0.8733
  143OSM    H3F15644   3.619   3.298   4.904 -0.3932 -0.1637 -1.7768
  143OSM    H3G15645   3.562   3.471   4.882  1.0753  2.7590  1.5331
  143OSM    C4F15646   3.666   3.434   5.072  0.7679 -0.4649  0.4560
  143OSM    H4F15647   3.673   3.545   5.080 -0.4531 -0.3586  0.3029
  143OSM    H4G15648   3.760   3.392   5.113  0.5012 -0.4304  1.1195
  143OSM    C5F15649   3.544   3.405   5.166 -0.0017  0.0729  0.3910
  143OSM    H5F15650   3.451   3.428   5.109 -0.5489 -0.2173  1.1360
  143OSM    H5G15651   3.551   3.475   5.252 -3.1038  2.3265 -1.0094
  143OSM    C6F15652   3.518   3.262   5.214 -0.0125 -0.0738  0.5529
  143OSM    H6F15653   3.605   3.229   5.275  1.1882 -0.4208 -1.2773
  143OSM    H6G15654   3.504   3.188   5.132  1.2875 -0.5089  0.6971
  143OSM    C7F15655   3.387   3.255   5.292  0.2668 -0.2788  0.6810
  143OSM    H7F15656   3.313   3.323   5.244  1.2337 -0.8398 -1.7767
  143OSM    H7G15657   3.412   3.298   5.391 -1.1204  1.1073  0.4528
  143OSM    C8F15658   3.330   3.112   5.313 -0.1031 -0.2584  0.5581
  143OSM    H8F15659   3.392   3.051   5.381  0.5500 -0.8470 -0.5393
  143OSM    H8G15660   3.334   3.066   5.211 -2.9332  1.7038 -0.5900
  143OSM    C9F15661   3.187   3.107   5.351  0.7093 -0.1665  0.2010
  143OSM    H9F15662   3.120   3.179   5.302  0.1152 -2.2620 -2.2582
  143OSM   C10F15663   3.135   3.032   5.448  0.6674 -0.1932 -0.5847
  143OSM   H10F15664   3.031   3.044   5.481  0.4779 -1.3812 -0.7045
  143OSM   C11F15665   3.218   2.938   5.537  0.5135  0.1469  0.2498
  143OSM   H11F15666   3.281   2.867   5.479 -1.0698 -0.6098 -0.6114
  143OSM   H11G15667   3.141   2.875   5.586 -0.4312  0.6492 -0.5466
  143OSM   C12F15668   3.290   3.007   5.655 -0.1606 -0.5648 -0.2661
  143OSM   H12F15669   3.223   3.073   5.714  0.7661 -1.5420  1.9718
  143OSM   H12G15670   3.373   3.071   5.618 -1.2515  0.9018 -0.2838
  143OSM   C13F15671   3.334   2.906   5.765  0.2853 -0.1654 -0.0525
  143OSM   H13F15672   3.398   2.956   5.842  1.1063 -1.2597 -0.0045
  143OSM   H13G15673   3.389   2.822   5.717 -3.8577 -1.9503 -2.1624
  143OSM   C14F15674   3.210   2.869   5.849 -0.2575 -0.0860 -0.0081
  143OSM   H14F15675   3.141   2.837   5.768  2.2090 -1.4957 -1.7039
  143OSM   H14G15676   3.168   2.958   5.899  1.4367  0.3202  0.7761
  143OSM   C15F15677   3.211   2.758   5.953  0.1257  0.1491  0.1741
  143OSM   H15F15678   3.242   2.661   5.910 -2.2875 -1.7036  2.3453
  143OSM   H15G15679   3.107   2.743   5.987  0.0967 -3.3570 -1.1140
  143OSM   C16F15680   3.304   2.799   6.071  0.6890  0.3531 -0.1193
  143OSM   H16F15681   3.248   2.875   6.131  2.9257  1.9590  0.0537
  143OSM   H16G15682   3.394   2.852   6.032  1.6740 -2.0862 -1.3638
  143OSM   C17F15683   3.351   2.681   6.162  0.2674 -0.4453  0.5681
  143OSM   H17F15684   3.407   2.606   6.101 -0.8388  0.1902 -1.3378
  143OSM   H17G15685   3.265   2.627   6.206 -1.0946  2.9230  2.3852
  143OSM   C18F15686   3.431   2.725   6.276 -0.6607  0.1236  0.1783
  143OSM   H18F15687   3.449   2.648   6.355 -4.4226 -1.2734 -0.1451
  143OSM   H18G15688   3.380   2.814   6.319 -0.5465  0.3352 -0.1228
  143OSM   H18H15689   3.528   2.766   6.240 -1.2891  1.6197  0.1146
  144OSM      N15690   4.234   4.453   4.241 -0.2183 -0.0395  0.1295
  144OSM    C1515691   4.371   4.515   4.274  1.0163 -0.3595 -0.2274
  144OSM   H15A15692   4.429   4.447   4.335  3.5944  0.6715 -1.3785
  144OSM   H15B15693   4.364   4.607   4.331  1.7056 -1.4146  1.6692
  144OSM   H15C15694   4.430   4.540   4.187  2.0803  0.4704  0.6933
  144OSM    C1415695   4.179   4.539   4.130 -0.7332  0.3633 -0.2573
  144OSM   H14A15696   4.220   4.518   4.033  1.2702 -1.3908  0.8802
  144OSM   H14B15697   4.195   4.644   4.153  2.8565 -0.2830  0.8379
  144OSM   H14C15698   4.075   4.515   4.119 -0.4431 -1.9693  1.4271
  144OSM    C1315699   4.259   4.319   4.185  0.3107  0.6023  0.4505
  144OSM   H13A15700   4.176   4.286   4.125  2.9676 -2.3029 -2.0433
  144OSM   H13B15701   4.282   4.250   4.266 -0.3549 -0.9133 -0.6112
  144OSM   H13C15702   4.349   4.316   4.125 -1.5478 -1.2149 -2.4796
  144OSM    C1215703   4.138   4.449   4.362 -0.3143 -0.2339  0.0961
  144OSM   H12A15704   4.118   4.552   4.390  1.5229 -0.0687  0.9688
  144OSM   H12B15705   4.203   4.412   4.440 -0.3987  0.2486  0.4009
  144OSM    C1115706   4.002   4.373   4.345  0.4320  0.3436 -0.0258
  144OSM   H11A15707   3.954   4.356   4.444  0.9412 -2.1535 -0.1259
  144OSM   H11B15708   4.029   4.272   4.306 -1.2795 -0.4595  0.7591
  144OSM      P15709   3.846   4.580   4.266 -0.5068  0.0753 -0.2992
  144OSM    O1315710   3.872   4.662   4.150 -0.0479 -0.4107 -0.3020
  144OSM    O1415711   3.703   4.561   4.290 -0.1611 -0.3693 -0.6659
  144OSM    O1115712   3.905   4.656   4.391  0.6122  0.8902  0.5741
  144OSM    O1215713   3.916   4.438   4.254 -0.1374 -0.4280 -0.1920
  144OSM    C1S15714   3.865   4.638   4.527 -0.0114  0.9872 -0.3493
  144OSM    H1S15715   3.921   4.554   4.574 -1.3611  1.0751  1.4871
  144OSM    H1T15716   3.758   4.610   4.528  0.6270 -1.8398 -1.5585
  144OSM     NF15717   3.847   4.739   4.750 -0.6679  0.4614  0.0705
  144OSM    HNF15718   3.764   4.791   4.767  0.8104  2.8243  0.4485
  144OSM    C2S15719   3.905   4.759   4.615  0.2893 -1.0541  0.0294
  144OSM    H2S15720   4.014   4.760   4.636  0.3738  1.1815 -0.1930
  144OSM    C3S15721   3.864   4.896   4.553 -0.3627  0.5892  0.2305
  144OSM    H3S15722   3.754   4.884   4.536 -0.3349 -0.4956  0.7260
  144OSM     O315723   3.924   4.921   4.426  0.5902  0.0312  0.1061
  144OSM    HO315724   3.947   4.832   4.399  0.1545 -0.8068  2.3078
  144OSM    C4S15725   3.890   5.007   4.653  0.2351 -0.3769  0.8475
  144OSM    H4S15726   3.989   4.996   4.699 -0.2430 -1.1782  1.7223
  144OSM    C5S15727   3.799   5.096   4.705  0.2261 -0.5751  0.0680
  144OSM    H5S15728   3.696   5.081   4.669 -0.1705 -0.7287  1.2112
  144OSM    C6S15729   3.827   5.197   4.811 -0.7008  0.0449 -0.8680
  144OSM    H6S15730   3.814   5.295   4.759 -0.7855 -0.7725 -2.4631
  144OSM    H6T15731   3.929   5.182   4.851 -1.9446 -3.3698  1.4769
  144OSM    C7S15732   3.724   5.188   4.931  0.4103  0.5422 -0.1886
  144OSM    H7S15733   3.618   5.212   4.905  0.5323  0.5936 -0.6390
  144OSM    H7T15734   3.759   5.261   5.007  1.4109  0.7831 -0.8742
  144OSM    C8S15735   3.716   5.056   5.006  0.6012  0.4187 -0.5480
  144OSM    H8S15736   3.812   5.003   5.020  2.0626  2.4140 -2.3575
  144OSM    H8T15737   3.647   4.988   4.952  1.3919 -0.8726  0.0061
  144OSM    C9S15738   3.670   5.091   5.151 -0.7945  0.7649 -0.8692
  144OSM    H9S15739   3.575   5.148   5.153  0.2869  2.6206  0.0404
  144OSM    H9T15740   3.745   5.164   5.189 -1.2409  0.1362  1.3168
  144OSM   C10S15741   3.667   4.962   5.239  0.0223 -0.3133 -0.0579
  144OSM   H10S15742   3.771   4.924   5.237 -0.2991 -1.2019 -1.1544
  144OSM   H10T15743   3.601   4.882   5.199  0.1347 -0.5066  0.1450
  144OSM   C11S15744   3.635   5.000   5.383 -0.9159  0.2006 -0.3434
  144OSM   H11S15745   3.525   5.020   5.386 -1.5477 -2.2117 -3.1300
  144OSM   H11T15746   3.694   5.092   5.402  0.1412 -0.0199 -2.2742
  144OSM   C12S15747   3.689   4.896   5.480 -0.2280  0.2101 -0.8627
  144OSM   H12S15748   3.800   4.892   5.483 -0.2723 -1.7890  1.3376
  144OSM   H12T15749   3.651   4.798   5.444 -2.4286  0.8957 -0.5418
  144OSM   C13S15750   3.645   4.919   5.628  0.4104 -0.7103 -0.5727
  144OSM   H13S15751   3.537   4.891   5.629 -0.3924  1.9110 -2.4729
  144OSM   H13T15752   3.658   5.022   5.666 -2.6864 -0.3659 -0.1522
  144OSM   C14S15753   3.707   4.816   5.730  0.2364  0.3880  0.1422
  144OSM   H14S15754   3.817   4.813   5.720  0.1684 -3.4580 -0.7213
  144OSM   H14T15755   3.662   4.720   5.699  0.4476  0.6230 -0.9421
  144OSM   C15S15756   3.661   4.848   5.873 -0.4352 -0.1413  0.8701
  144OSM   H15S15757   3.698   4.948   5.906 -0.8798  0.0625  0.7629
  144OSM   H15T15758   3.714   4.780   5.943  0.4910  0.8832  1.2023
  144OSM   C16S15759   3.506   4.837   5.899 -0.7196  0.6547 -0.4580
  144OSM   H16S15760   3.479   4.729   5.894 -4.3632  1.4758 -2.7953
  144OSM   H16T15761   3.444   4.896   5.828 -0.1275  0.5760 -1.0487
  144OSM   C17S15762   3.475   4.885   6.040 -0.3369 -0.1563  0.3354
  144OSM   H17S15763   3.507   4.991   6.038  0.7866 -0.4304 -3.1314
  144OSM   H17T15764   3.555   4.833   6.098  1.1384  1.6491 -0.0012
  144OSM   C18S15765   3.332   4.855   6.095 -1.1804  0.4621  0.1223
  144OSM   H18S15766   3.307   4.747   6.091  3.4016 -0.8170  0.9207
  144OSM   H18T15767   3.256   4.911   6.036 -1.2465 -1.0668 -1.3340
  144OSM   H18U15768   3.309   4.878   6.201  0.9004 -2.7113  1.3999
  144OSM    C1F15769   3.890   4.653   4.840 -0.4603 -0.0459 -0.3833
  144OSM     OF15770   3.985   4.580   4.818 -0.3796  0.4493 -0.5246
  144OSM    C2F15771   3.813   4.645   4.962  0.0288 -0.2130  0.2186
  144OSM    H2F15772   3.707   4.667   4.939  0.0228  0.0300  0.4726
  144OSM    H2G15773   3.822   4.735   5.026  1.1201  0.6718 -1.1300
  144OSM    C3F15774   3.844   4.531   5.057 -0.0521  0.6679  0.3004
  144OSM    H3F15775   3.954   4.521   5.060  0.2339  0.8662 -3.7693
  144OSM    H3G15776   3.813   4.436   5.008  2.0812 -0.0743  0.2877
  144OSM    C4F15777   3.775   4.552   5.192  0.8020  0.0399  0.0781
  144OSM    H4F15778   3.676   4.600   5.176  0.6761  0.2608  1.4327
  144OSM    H4G15779   3.838   4.637   5.224 -1.0548  1.5649 -0.1253
  144OSM    C5F15780   3.763   4.429   5.288 -0.0819  0.3030 -0.5655
  144OSM    H5F15781   3.848   4.360   5.268  0.5475  0.8550  0.1261
  144OSM    H5G15782   3.670   4.370   5.275 -0.3027  0.7054 -0.8290
  144OSM    C6F15783   3.762   4.457   5.438  0.1651 -0.5342  0.1634
  144OSM    H6F15784   3.672   4.520   5.455  1.1143  1.0459 -0.4668
  144OSM    H6G15785   3.835   4.538   5.461 -0.3184  0.5252 -1.7736
  144OSM    C7F15786   3.767   4.338   5.535  0.3259 -0.3512  0.1766
  144OSM    H7F15787   3.867   4.293   5.517 -0.2472 -1.1608 -1.1322
  144OSM    H7G15788   3.689   4.266   5.501 -0.6793  0.5991  0.4062
  144OSM    C8F15789   3.744   4.395   5.671  0.5124 -1.0336  0.1562
  144OSM    H8F15790   3.671   4.478   5.671 -0.0747 -1.5159  1.9639
  144OSM    H8G15791   3.836   4.444   5.709  0.8989 -0.0408 -1.9198
  144OSM    C9F15792   3.700   4.287   5.760 -0.0193 -0.5427  0.3051
  144OSM    H9F15793   3.770   4.203   5.759 -2.1913 -2.4667 -0.0347
  144OSM   C10F15794   3.585   4.276   5.827 -0.0447  0.3802  0.0249
  144OSM   H10F15795   3.583   4.183   5.886 -0.6838  0.3080 -0.0991
  144OSM   C11F15796   3.474   4.375   5.837 -0.3966  0.1796 -0.0014
  144OSM   H11F15797   3.400   4.341   5.761 -0.3801 -2.1818  0.9611
  144OSM   H11G15798   3.507   4.477   5.807 -0.3135  0.8395  2.1320
  144OSM   C12F15799   3.377   4.383   5.962 -0.7507  0.2642  0.3752
  144OSM   H12F15800   3.322   4.287   5.976 -2.2921  0.3932 -3.4732
  144OSM   H12G15801   3.298   4.453   5.927 -1.6832 -1.8125 -1.9563
  144OSM   C13F15802   3.443   4.433   6.093 -0.1346  0.3503 -0.7079
  144OSM   H13F15803   3.485   4.536   6.092 -1.0252  0.7378  0.2332
  144OSM   H13G15804   3.536   4.373   6.102 -1.2117 -1.2252  0.3143
  144OSM   C14F15805   3.349   4.415   6.215  0.2473  0.1289  0.2896
  144OSM   H14F15806   3.254   4.473   6.214  0.6077  0.9689  3.8684
  144OSM   H14G15807   3.417   4.450   6.295  1.5859 -2.6030  0.4460
  144OSM   C15F15808   3.317   4.273   6.255 -0.6719 -0.2582 -0.0768
  144OSM   H15F15809   3.395   4.197   6.234  0.1081  0.4288  0.2941
  144OSM   H15G15810   3.230   4.255   6.189 -1.3593 -0.6334  0.8965
  144OSM   C16F15811   3.263   4.263   6.398 -0.0640  0.2777  0.0767
  144OSM   H16F15812   3.240   4.156   6.417  2.0137 -0.3867 -0.8301
  144OSM   H16G15813   3.185   4.338   6.422  0.8701  0.8818  1.3105
  144OSM   C17F15814   3.373   4.293   6.514  0.0458  0.6626 -0.3010
  144OSM   H17F15815   3.396   4.402   6.514  1.4102  0.4188  1.4501
  144OSM   H17G15816   3.470   4.243   6.491 -0.6564 -0.7196 -0.3538
  144OSM   C18F15817   3.335   4.261   6.658  0.0380 -0.2012 -0.1908
  144OSM   H18F15818   3.350   4.153   6.679  0.9435  0.0530  0.5222
  144OSM   H18G15819   3.229   4.289   6.678 -0.1099  1.4413 -2.7472
  144OSM   H18H15820   3.401   4.316   6.728  1.3308 -2.1779  0.1960
  145SAPE     N15821   4.011   2.938   8.378  0.0611 -0.6167 -0.0797
  145SAPE   HN115822   4.058   3.005   8.443  0.3430 -0.5524 -0.3483
  145SAPE   HN215823   3.975   2.860   8.436  0.9410  0.2967  1.8183
  145SAPE   HN315824   4.083   2.895   8.317  0.5018 -1.4735  1.0111
  145SAPE   C1215825   3.890   2.992   8.310 -0.4120 -0.5191  0.3979
  145SAPE  H12A15826   3.923   3.088   8.266  0.1246 -1.7601 -2.0991
  145SAPE  H12B15827   3.815   3.016   8.388 -0.6991 -0.1882  0.0221
  145SAPE   C1115828   3.837   2.895   8.200  0.2707 -0.2172 -0.1958
  145SAPE  H11A15829   3.912   2.879   8.119  1.1458  0.5153  0.4429
  145SAPE  H11B15830   3.745   2.942   8.159  0.5476 -2.1566 -3.3887
  145SAPE     P15831   3.665   2.728   8.304  0.2480 -0.0536  0.1834
  145SAPE   O1315832   3.659   2.582   8.323 -0.2785 -0.1393  0.1121
  145SAPE   O1415833   3.642   2.813   8.423 -0.0038 -0.4755  0.7620
  145SAPE   O1215834   3.812   2.765   8.258 -0.6955 -0.5884 -0.5374
  145SAPE   O1115835   3.572   2.767   8.186  0.3800  0.2239 -0.0034
  145SAPE    C115836   3.604   2.735   8.050 -0.4476 -0.2502  0.1513
  145SAPE    HA15837   3.682   2.800   8.005  0.2104 -2.5173 -2.2690
  145SAPE    HB15838   3.647   2.633   8.043 -0.3544 -0.1191 -1.4978
  145SAPE    C215839   3.479   2.740   7.958  0.5710 -0.8564 -0.1623
  145SAPE    HS15840   3.517   2.717   7.856  1.1645  0.4569 -0.2632
  145SAPE   O2115841   3.419   2.871   7.961  0.4484  0.3964 -0.0820
  145SAPE   C2115842   3.473   2.961   7.876 -0.5295 -0.2531  0.6240
  145SAPE   O2215843   3.572   2.942   7.809  0.3288  0.1797  0.4293
  145SAPE   C2215844   3.395   3.092   7.867 -0.7681  0.6255 -0.3954
  145SAPE   H2R15845   3.300   3.078   7.922  0.6156 -0.1620  1.9274
  145SAPE   H2S15846   3.462   3.164   7.918  0.2062 -1.0515  0.7778
  145SAPE    C315847   3.375   2.637   8.003  0.1024 -0.1036  0.3342
  145SAPE    HX15848   3.316   2.668   8.092  0.6635  1.1013  0.3149
  145SAPE    HY15849   3.447   2.557   8.029  1.0382  0.0479 -1.6550
  145SAPE   O3115850   3.287   2.605   7.891  0.6125 -0.1118 -0.2701
  145SAPE   C3115851   3.216   2.485   7.905 -0.6239  0.1102  0.2830
  145SAPE   O3215852   3.236   2.411   7.997 -0.0331  0.9160 -0.0069
  145SAPE   C3215853   3.131   2.464   7.779  0.1381  0.2247  0.0257
  145SAPE   H2X15854   3.025   2.475   7.812  0.0094  0.7159 -0.5547
  145SAPE   H2Y15855   3.152   2.358   7.752 -1.2186 -0.1978  0.5066
  145SAPE   C2315856   3.360   3.133   7.724 -0.0643 -0.3619 -0.3889
  145SAPE   H3R15857   3.444   3.138   7.650  0.1302  0.1858 -0.1383
  145SAPE   H3S15858   3.327   3.239   7.735  2.7137  0.4616  1.0739
  145SAPE   C2415859   3.250   3.045   7.665  0.0819  0.0098  0.5277
  145SAPE   H4R15860   3.164   3.046   7.736  0.2282 -1.9141  0.8058
  145SAPE   H4S15861   3.287   2.940   7.665 -0.1277 -0.0984  2.1994
  145SAPE   C2515862   3.204   3.090   7.532 -0.5317 -0.4843 -0.3554
  145SAPE   H5R15863   3.289   3.114   7.467  0.8602  0.6587  1.7695
  145SAPE   C2615864   3.074   3.113   7.487  0.4804 -0.7260 -0.3094
  145SAPE   H6R15865   3.069   3.160   7.388 -0.2051 -1.5412 -0.6793
  145SAPE   C2715866   2.940   3.096   7.566 -0.0551  0.6673  0.4814
  145SAPE   H7R15867   2.857   3.158   7.526 -1.4858 -1.5859 -0.2411
  145SAPE   H7S15868   2.947   3.144   7.666 -0.5171  0.4849  0.6037
  145SAPE   C2815869   2.896   2.957   7.592  0.1889  0.2681  0.2512
  145SAPE   H8R15870   2.965   2.905   7.660  0.6657  1.5283  0.7560
  145SAPE   C2915871   2.778   2.899   7.575  0.2714  0.5536 -0.1601
  145SAPE   H9R15872   2.754   2.801   7.619 -0.2044 -0.5297 -2.6341
  145SAPE  C21015873   2.660   2.953   7.502 -0.0938 -0.0988  0.3675
  145SAPE  H10R15874   2.634   2.889   7.415 -1.3262 -3.0964  2.7321
  145SAPE  H10S15875   2.686   3.056   7.470  0.5030  0.1645  1.6046
  145SAPE  C21115876   2.540   2.961   7.591 -0.1324 -0.7630  0.2737
  145SAPE  H11R15877   2.556   2.969   7.699  2.4694  2.3995 -0.2025
  145SAPE  C21215878   2.415   2.978   7.551 -0.3112  0.9805 -0.5321
  145SAPE  H12R15879   2.333   2.998   7.621 -0.3653  0.1785 -0.3529
  145SAPE  C21315880   2.361   2.976   7.412  0.2552 -0.7315  0.1998
  145SAPE  H13R15881   2.428   3.031   7.341  0.1691  1.7609  1.9065
  145SAPE  H13S15882   2.270   3.040   7.411  1.1112  0.5419  0.5995
  145SAPE  C21415883   2.313   2.845   7.371  0.0738 -0.4973  0.6469
  145SAPE  H14R15884   2.274   2.776   7.447 -0.9713  0.1473  0.7197
  145SAPE  C21515885   2.273   2.818   7.243  0.5418  0.3062 -0.7813
  145SAPE  H15R15886   2.243   2.715   7.221  0.8388  0.5057 -2.2861
  145SAPE  C21615887   2.288   2.905   7.114  0.9149  0.2308 -0.0839
  145SAPE  H16R15888   2.380   2.866   7.066  0.5534 -1.0322  0.2064
  145SAPE  H16S15889   2.310   3.008   7.148  1.2111 -0.2927  1.3595
  145SAPE  C21715890   2.170   2.879   7.018  0.1331 -0.5385  1.0416
  145SAPE  H17R15891   2.168   2.772   6.989  2.8636 -0.5994  0.7831
  145SAPE  H17S15892   2.196   2.933   6.925 -0.2420  0.1005  1.2973
  145SAPE  C21815893   2.032   2.944   7.058  0.4815 -0.9528  0.1489
  145SAPE  H18R15894   2.061   3.050   7.077  0.0661 -0.8531  0.2372
  145SAPE  H18S15895   1.990   2.906   7.154  1.1146 -2.4761 -0.1492
  145SAPE  C21915896   1.926   2.933   6.953 -0.4078 -0.2221  0.1359
  145SAPE  H19R15897   1.967   2.986   6.865  0.1709 -1.3031 -0.2594
  145SAPE  H19S15898   1.833   2.992   6.970  1.4079  3.0494 -0.6013
  145SAPE  C22015899   1.900   2.787   6.900  0.8012  0.3146 -0.2299
  145SAPE  H20R15900   1.840   2.794   6.807 -1.7734  1.3313  1.3909
  145SAPE  H20S15901   1.851   2.717   6.971 -2.0554  1.9892 -0.4005
  145SAPE  H20T15902   1.994   2.739   6.865 -1.1524 -1.8393 -2.9349
  145SAPE   C3315903   3.156   2.566   7.669 -0.5586  0.1668  0.0088
  145SAPE   H3X15904   3.264   2.571   7.644 -0.8487  3.0313 -1.0984
  145SAPE   H3Y15905   3.130   2.666   7.709  2.8386  0.9574  0.5444
  145SAPE   C3415906   3.078   2.547   7.540  0.4820  0.3323 -0.8802
  145SAPE   H4X15907   2.971   2.546   7.570  0.5306 -1.6781 -0.6119
  145SAPE   H4Y15908   3.096   2.443   7.507 -2.9808 -1.2950  1.7277
  145SAPE   C3515909   3.107   2.649   7.427 -0.4262 -0.5405 -0.0997
  145SAPE   H5X15910   3.213   2.646   7.396  0.0580  2.1116  1.0596
  145SAPE   H5Y15911   3.075   2.751   7.456  1.2999  0.2684 -0.8893
  145SAPE   C3615912   3.017   2.626   7.298  0.1648 -1.2862 -0.4291
  145SAPE   H6X15913   2.909   2.630   7.320  0.5195 -0.4439  1.3670
  145SAPE   H6Y15914   3.034   2.520   7.267 -0.2945 -1.8162  1.0467
  145SAPE   C3715915   3.063   2.714   7.182  0.3551 -1.1035 -0.5013
  145SAPE   H7X15916   3.056   2.654   7.088  0.2516 -2.1308  0.1461
  145SAPE   H7Y15917   3.171   2.737   7.191  0.0674 -0.0828  0.5885
  145SAPE   C3815918   2.984   2.850   7.175  0.0650  0.7025 -1.0054
  145SAPE   H8X15919   3.008   2.911   7.085 -1.9962 -1.3719 -3.1104
  145SAPE   H8Y15920   3.016   2.911   7.262  1.3459 -0.9051 -0.2905
  145SAPE   C3915921   2.831   2.837   7.183  0.0552  0.4804 -0.2504
  145SAPE   H9X15922   2.809   2.817   7.290  0.2318  1.3395 -0.0452
  145SAPE   H9Y15923   2.786   2.752   7.128  0.9141  0.3862 -0.8303
  145SAPE  C31015924   2.748   2.957   7.140 -0.0301 -0.0410  0.4315
  145SAPE  H10X15925   2.788   3.043   7.197 -1.9895 -0.6703  2.9642
  145SAPE  H10Y15926   2.645   2.952   7.182 -0.5580 -1.0646 -0.9210
  145SAPE  C31115927   2.729   2.976   6.987  0.0810  0.1076 -1.0897
  145SAPE  H11X15928   2.704   2.874   6.953 -0.7230 -0.5628  1.2714
  145SAPE  H11Y15929   2.830   3.008   6.954  1.6453 -3.6756 -0.4060
  145SAPE  C31215930   2.613   3.069   6.943 -0.3037 -0.2011 -0.0920
  145SAPE  H12X15931   2.633   3.176   6.964 -1.1954  0.1052 -0.7378
  145SAPE  H12Y15932   2.523   3.043   7.003 -0.7937  2.0798  0.2623
  145SAPE  C31315933   2.573   3.058   6.798  0.3636  0.8560 -0.5517
  145SAPE  H13X15934   2.567   2.948   6.786  0.8712  0.7483  0.1057
  145SAPE  H13Y15935   2.652   3.091   6.727  2.0775  1.2146  1.4299
  145SAPE  C31415936   2.445   3.130   6.760  0.2365  0.3332  0.3847
  145SAPE  H14X15937   2.458   3.240   6.767 -0.1864  0.4900 -1.0080
  145SAPE  H14Y15938   2.369   3.095   6.834  1.5541 -1.3081  1.0310
  145SAPE  C31515939   2.408   3.102   6.619 -0.6350  0.3033  0.4749
  145SAPE  H15X15940   2.451   3.004   6.590 -0.4980  0.7052 -0.7471
  145SAPE  H15Y15941   2.455   3.178   6.552 -0.7634 -0.4686 -0.5071
  145SAPE  C31615942   2.268   3.117   6.584  0.4155  0.0878  0.3627
  145SAPE  H16X15943   2.217   3.038   6.643  2.2895 -1.2446  0.2974
  145SAPE  H16Y15944   2.257   3.085   6.478  2.4499  2.3599 -0.6147
  145SAPE  C31715945   2.207   3.261   6.602 -0.4569  0.7880 -0.1184
  145SAPE  H17X15946   2.228   3.282   6.709 -0.1810 -0.7347  0.1400
  145SAPE  H17Y15947   2.097   3.258   6.589 -0.6551  0.9908  1.3313
  145SAPE  C31815948   2.266   3.366   6.506  0.0307  0.1048 -0.1695
  145SAPE  H18X15949   2.369   3.396   6.536 -0.6922  1.0061  1.5341
  145SAPE  H18Y15950   2.201   3.453   6.525 -2.1901 -1.8007  1.5877
  145SAPE  H18Z15951   2.268   3.328   6.401  0.5005  1.0035 -0.4970
  146SAPE     N15952   0.781   4.647   0.074  0.4296  0.1833 -0.1463
  146SAPE   HN115953   0.852   4.572   0.066  0.3157  0.2851 -2.5953
  146SAPE   HN215954   0.684   4.610   0.076 -0.0593  1.0955 -3.0002
  146SAPE   HN315955   0.778   4.701  -0.014 -1.0018 -0.3194 -0.4434
  146SAPE   C1215956   0.834   4.737   0.187 -0.3504 -0.2194  0.4938
  146SAPE  H12A15957   0.909   4.802   0.137 -0.3588 -0.2761  0.4076
  146SAPE  H12B15958   0.892   4.673   0.256 -0.5666 -0.4896  0.4286
  146SAPE   C1115959   0.725   4.821   0.254  0.9495 -0.6548 -0.1085
  146SAPE  H11A15960   0.764   4.859   0.351 -0.8284  0.3127  0.2772
  146SAPE  H11B15961   0.645   4.748   0.279  0.8129 -0.8431 -1.0592
  146SAPE     P15962   0.725   5.068   0.146 -0.1345 -0.1487  0.2554
  146SAPE   O1315963   0.740   5.132   0.279  0.0182 -0.3851 -0.6811
  146SAPE   O1415964   0.844   5.061   0.061 -0.4589  0.2892  0.0910
  146SAPE   O1215965   0.670   4.919   0.164 -0.5709  0.9022  0.2399
  146SAPE   O1115966   0.611   5.135   0.063  0.5033  0.5973  0.4722
  146SAPE    C115967   0.493   5.064   0.017  0.1470  0.7040 -0.0551
  146SAPE    HA15968   0.447   5.013   0.103  2.4049  0.0414  0.8261
  146SAPE    HB15969   0.419   5.143  -0.009 -1.6272 -1.3261 -1.5223
  146SAPE    C215970   0.509   4.956  -0.101 -0.6140 -0.0966  0.1538
  146SAPE    HS15971   0.516   4.864  -0.040 -0.2930  1.9187  3.4238
  146SAPE   O2115972   0.633   4.982  -0.170 -0.7762  0.7314 -0.0180
  146SAPE   C2115973   0.706   4.872  -0.205  0.5625  0.5593  0.3399
  146SAPE   O2215974   0.670   4.758  -0.183 -0.1879 -0.1828  0.0283
  146SAPE   C2215975   0.835   4.909  -0.261  0.0819 -0.1344 -0.6209
  146SAPE   H2R15976   0.828   4.988  -0.339  2.7715  0.7845 -0.0591
  146SAPE   H2S15977   0.886   4.949  -0.170 -0.9200  0.6406 -0.3847
  146SAPE    C315978   0.389   4.952  -0.193 -0.0678  0.3706  0.4089
  146SAPE    HX15979   0.302   4.941  -0.125  1.3157  2.5769  2.7542
  146SAPE    HY15980   0.396   4.868  -0.264  1.5880  0.3059  0.6071
  146SAPE   O3115981   0.368   5.079  -0.259  0.0584  0.2353 -0.0398
  146SAPE   C3115982   0.440   5.105  -0.370  0.2338 -0.5089 -0.1512
  146SAPE   O3215983   0.510   5.024  -0.428 -0.2452 -0.1739  0.1000
  146SAPE   C3215984   0.431   5.252  -0.398  0.1741  0.3892 -0.4851
  146SAPE   H2X15985   0.514   5.303  -0.346  1.4894 -0.4394 -1.6860
  146SAPE   H2Y15986   0.329   5.292  -0.381  0.6204  1.0862  0.6594
  146SAPE   C2315987   0.925   4.791  -0.305 -0.0136  0.1965 -0.8835
  146SAPE   H3R15988   0.883   4.734  -0.391 -0.0087 -1.7355  0.3187
  146SAPE   H3S15989   0.927   4.713  -0.226 -2.8556  1.1129  0.2327
  146SAPE   C2415990   1.063   4.846  -0.341 -0.0792  0.2712  0.6360
  146SAPE   H4R15991   1.116   4.851  -0.244 -0.1013  0.2682  0.6478
  146SAPE   H4S15992   1.063   4.943  -0.395 -0.0317 -1.0847 -1.9403
  146SAPE   C2515993   1.144   4.744  -0.428  0.1361  0.2023 -0.4418
  146SAPE   H5R15994   1.158   4.644  -0.384  0.3075  1.0723  1.5752
  146SAPE   C2615995   1.213   4.767  -0.541 -0.2791 -0.3246 -0.5865
  146SAPE   H6R15996   1.259   4.680  -0.590  1.7080  0.4168 -0.1273
  146SAPE   C2715997   1.231   4.898  -0.620 -0.3204 -0.0744 -0.3093
  146SAPE   H7R15998   1.306   4.873  -0.698 -1.2491 -0.1926 -1.1917
  146SAPE   H7S15999   1.281   4.981  -0.566 -3.5004 -0.1535  3.1152
  146SAPE   C2816000   1.099   4.937  -0.680  0.5211 -0.3231 -0.5352
  146SAPE   H8R16001   1.028   4.969  -0.603 -2.3743 -2.3041 -2.1976
  146SAPE   C2916002   1.066   4.956  -0.811 -0.0614  0.5090 -0.4005
  146SAPE   H9R16003   0.967   5.001  -0.832 -1.3401 -1.1490  1.6706
  146SAPE  C21016004   1.157   4.923  -0.922 -0.0751  0.3226 -0.2308
  146SAPE  H10R16005   1.212   4.831  -0.892 -0.3460  0.4007  0.5247
  146SAPE  H10S16006   1.235   5.003  -0.921  1.4006 -0.9530  2.8859
  146SAPE  C21116007   1.081   4.909  -1.051 -0.1694  0.2573 -0.0075
  146SAPE  H11R16008   1.025   4.815  -1.061  0.2782 -0.0376  0.1947
  146SAPE  C21216009   1.047   5.003  -1.142 -0.7452 -0.8835 -0.5820
  146SAPE  H12R16010   1.007   4.985  -1.243  0.8465  0.2031 -1.4654
  146SAPE  C21316011   1.091   5.149  -1.138 -0.1059 -0.0952  0.0181
  146SAPE  H13R16012   1.135   5.167  -1.037 -3.9642 -1.7847  2.2077
  146SAPE  H13S16013   1.000   5.213  -1.141 -0.7350 -0.8559  1.6153
  146SAPE  C21416014   1.193   5.188  -1.243  0.2483  0.1796 -0.1937
  146SAPE  H14R16015   1.297   5.158  -1.221 -0.0478 -2.0132 -1.4810
  146SAPE  C21516016   1.168   5.234  -1.364 -0.0888 -0.8230  0.2197
  146SAPE  H15R16017   1.260   5.270  -1.412  1.5318 -1.2162  2.8017
  146SAPE  C21616018   1.034   5.275  -1.418 -0.7533 -0.0425 -0.0558
  146SAPE  H16R16019   1.009   5.373  -1.374  1.3232  1.0967 -1.2209
  146SAPE  H16S16020   0.960   5.199  -1.384 -1.5372  0.7510  0.0435
  146SAPE  C21716021   1.027   5.285  -1.569  0.0758  0.2106 -0.0394
  146SAPE  H17R16022   1.129   5.303  -1.609 -0.7586  0.0427 -2.3817
  146SAPE  H17S16023   0.955   5.367  -1.592 -0.0759  0.1260  0.1259
  146SAPE  C21816024   0.975   5.171  -1.649  0.4598  0.1972  0.1583
  146SAPE  H18R16025   0.864   5.166  -1.651  0.3232  2.1922 -2.0418
  146SAPE  H18S16026   1.014   5.075  -1.609 -1.3738 -0.8848 -0.5052
  146SAPE  C21916027   1.013   5.178  -1.800 -0.4520 -0.5864  0.3133
  146SAPE  H19R16028   1.035   5.072  -1.828  0.2678 -0.8194  1.6711
  146SAPE  H19S16029   1.113   5.222  -1.818 -1.0365 -0.0651 -2.0727
  146SAPE  C22016030   0.912   5.236  -1.896  0.3098 -0.2326  0.1657
  146SAPE  H20R16031   0.937   5.226  -2.003 -1.0871  2.4219 -0.4897
  146SAPE  H20S16032   0.917   5.345  -1.874 -0.5658 -0.1020 -0.2313
  146SAPE  H20T16033   0.809   5.203  -1.871  0.6256 -1.2742  0.1282
  146SAPE   C3316034   0.463   5.281  -0.548 -0.2897  0.4661  0.4321
  146SAPE   H3X16035   0.543   5.213  -0.585 -1.2673 -0.5266  0.0965
  146SAPE   H3Y16036   0.504   5.384  -0.535  2.4747 -0.5271  0.3425
  146SAPE   C3416037   0.335   5.266  -0.631 -0.8696 -0.3729 -0.6758
  146SAPE   H4X16038   0.267   5.349  -0.603 -0.2792 -0.7644  2.2660
  146SAPE   H4Y16039   0.282   5.173  -0.601  1.0851 -1.2604  0.2731
  146SAPE   C3516040   0.357   5.238  -0.779 -0.0047  0.7577  0.1213
  146SAPE   H5X16041   0.406   5.140  -0.797 -2.7712 -0.4187 -1.5348
  146SAPE   H5Y16042   0.438   5.305  -0.816  2.5528 -2.4646 -0.5476
  146SAPE   C3616043   0.238   5.250  -0.879  0.2619  0.1391 -0.5540
  146SAPE   H6X16044   0.175   5.340  -0.860 -0.0884 -0.7337  3.2064
  146SAPE   H6Y16045   0.161   5.174  -0.853 -0.5944  0.5268 -1.8405
  146SAPE   C3716046   0.284   5.250  -1.027  0.3754  0.4532  0.3397
  146SAPE   H7X16047   0.316   5.149  -1.061 -2.6799 -2.0705  4.1248
  146SAPE   H7Y16048   0.365   5.323  -1.047  0.3743 -0.1051 -2.0560
  146SAPE   C3816049   0.174   5.288  -1.131  0.5189 -0.6724  0.4941
  146SAPE   H8X16050   0.114   5.378  -1.108  1.6230  0.3485 -0.5240
  146SAPE   H8Y16051   0.104   5.201  -1.130 -0.6814  0.2030 -1.4616
  146SAPE   C3916052   0.235   5.297  -1.272  0.3822  0.5244 -0.3527
  146SAPE   H9X16053   0.300   5.212  -1.303 -1.4971 -0.1368 -2.8266
  146SAPE   H9Y16054   0.295   5.390  -1.280 -0.8977  1.2577 -1.9785
  146SAPE  C31016055   0.130   5.302  -1.382  0.2862  0.2257 -0.8613
  146SAPE  H10X16056   0.075   5.397  -1.367 -1.0305 -0.6308 -0.0483
  146SAPE  H10Y16057   0.054   5.222  -1.366  1.3389 -0.7900 -0.8343
  146SAPE  C31116058   0.190   5.300  -1.516 -0.1119  0.2951 -0.0621
  146SAPE  H11X16059   0.272   5.225  -1.512 -1.2098 -0.8926  1.1882
  146SAPE  H11Y16060   0.239   5.397  -1.539 -1.4897  0.7325 -1.3034
  146SAPE  C31216061   0.099   5.240  -1.627  0.5892 -0.0394 -0.3366
  146SAPE  H12X16062  -0.002   5.286  -1.627 -0.3273 -1.9194  1.3874
  146SAPE  H12Y16063   0.085   5.132  -1.607 -0.1547 -0.5378 -3.2012
  146SAPE  C31316064   0.171   5.246  -1.766  0.2433 -0.7108 -0.6256
  146SAPE  H13X16065   0.261   5.186  -1.742 -0.8715 -2.2274 -0.0550
  146SAPE  H13Y16066   0.193   5.351  -1.795 -0.2703  0.0105  1.4406
  146SAPE  C31416067   0.084   5.167  -1.869  0.6160 -0.3489  0.7821
  146SAPE  H14X16068   0.022   5.232  -1.935  2.0354 -1.5952 -1.9960
  146SAPE  H14Y16069   0.005   5.118  -1.809 -1.0448  0.6870 -0.4611
  146SAPE  C31516070   0.165   5.072  -1.961 -0.3402  0.0530  0.7614
  146SAPE  H15X16071   0.103   5.021  -2.037  0.4233 -1.9480  1.4245
  146SAPE  H15Y16072   0.216   4.997  -1.897 -0.4324 -1.1680 -0.5595
  146SAPE  C31616073   0.273   5.147  -2.047 -0.2280 -0.7809 -0.6006
  146SAPE  H16X16074   0.316   5.224  -1.979  0.5126  2.2153 -4.1080
  146SAPE  H16Y16075   0.230   5.203  -2.133  0.2505  2.2686  0.9951
  146SAPE  C31716076   0.388   5.064  -2.098  1.0270  0.2131 -0.5408
  146SAPE  H17X16077   0.350   4.980  -2.161  1.2857 -0.7107  0.4976
  146SAPE  H17Y16078   0.442   5.011  -2.017 -0.1110  1.3021  0.9710
  146SAPE  C31816079   0.488   5.145  -2.181 -0.2098 -0.5671 -0.0233
  146SAPE  H18X16080   0.450   5.168  -2.283 -0.2767  0.1322  0.1544
  146SAPE  H18Y16081   0.585   5.091  -2.185 -0.3287 -0.7294 -1.4563
  146SAPE  H18Z16082   0.509   5.244  -2.136  0.3287 -0.3174 -0.8155
  147SAPE     N16083   6.776   1.853   0.272  0.1167 -0.5301 -0.1493
  147SAPE   HN116084   6.712   1.896   0.343 -1.2458 -1.4644 -0.7599
  147SAPE   HN216085   6.857   1.914   0.254  1.3879 -0.6384  4.0748
  147SAPE   HN316086   6.715   1.849   0.188  0.2407 -0.0856 -0.2611
  147SAPE   C1216087   6.815   1.720   0.338  0.3325  0.1224  0.5525
  147SAPE  H12A16088   6.738   1.704   0.417  1.5114 -2.1398  1.3410
  147SAPE  H12B16089   6.907   1.733   0.398  0.4006 -2.0407  1.0172
  147SAPE   C1116090   6.818   1.609   0.229  0.6974 -0.1971  0.0589
  147SAPE  H11A16091   6.813   1.514   0.287 -2.3490 -1.0769 -1.4250
  147SAPE  H11B16092   6.912   1.627   0.172  1.5348  3.0704  2.2205
  147SAPE     P16093   6.700   1.548  -0.003 -0.2975 -0.1787  0.1821
  147SAPE   O1316094   6.723   1.403   0.012  0.9080  0.3174  0.0922
  147SAPE   O1416095   6.578   1.593  -0.074 -0.0029  0.0293  0.3705
  147SAPE   O1216096   6.704   1.609   0.147 -0.4526  0.1133  0.0201
  147SAPE   O1116097   6.829   1.602  -0.079  0.4401 -0.3420 -0.1367
  147SAPE    C116098   6.838   1.737  -0.132 -0.8725 -0.2190 -0.7908
  147SAPE    HA16099   6.761   1.805  -0.089  1.8846  3.0218 -0.5652
  147SAPE    HB16100   6.940   1.774  -0.108  0.6799 -3.7498 -1.2915
  147SAPE    C216101   6.836   1.744  -0.281  0.3236  0.2528  0.4005
  147SAPE    HS16102   6.732   1.717  -0.307 -0.8552  3.3831  1.4329
  147SAPE   O2116103   6.936   1.662  -0.340 -0.2877  0.0232 -0.4690
  147SAPE   C2116104   6.893   1.551  -0.384 -0.6633  0.6420 -0.2535
  147SAPE   O2216105   6.777   1.520  -0.384  0.3106 -0.4729 -0.2921
  147SAPE   C2216106   7.008   1.462  -0.435 -0.0260 -0.1099 -0.2967
  147SAPE   H2R16107   7.095   1.531  -0.434  0.7226 -1.0302  0.7627
  147SAPE   H2S16108   7.038   1.379  -0.368  1.8883  0.6698 -0.1174
  147SAPE    C316109   6.851   1.890  -0.323 -0.2507  0.9315  0.3960
  147SAPE    HX16110   6.947   1.922  -0.277  1.1840 -1.2902 -0.8529
  147SAPE    HY16111   6.775   1.955  -0.275 -0.9958 -1.5627  2.8413
  147SAPE   O3116112   6.844   1.902  -0.467  0.8574 -0.0475  0.0379
  147SAPE   C3116113   6.958   1.910  -0.530  0.1143 -0.2287 -0.4755
  147SAPE   O3216114   7.067   1.908  -0.475 -0.0066 -0.3398  0.4288
  147SAPE   C3216115   6.927   1.910  -0.680 -0.0533  0.0221  0.1015
  147SAPE   H2X16116   6.829   1.860  -0.696  0.2571 -0.6866  0.4015
  147SAPE   H2Y16117   7.006   1.842  -0.719 -0.7457 -1.5629  1.3794
  147SAPE   C2316118   6.979   1.397  -0.573  0.2388 -1.0598  0.6074
  147SAPE   H3R16119   6.883   1.436  -0.612 -0.5108 -2.6746  0.7236
  147SAPE   H3S16120   6.963   1.289  -0.550 -1.1809 -1.3454 -1.4181
  147SAPE   C2416121   7.092   1.416  -0.671  0.0059  0.3632 -0.5646
  147SAPE   H4R16122   7.098   1.336  -0.747  2.9302  1.4454 -1.6070
  147SAPE   H4S16123   7.189   1.409  -0.617 -0.7886  0.9443  1.0015
  147SAPE   C2516124   7.077   1.547  -0.745 -0.0095 -0.5222  0.4379
  147SAPE   H5R16125   7.134   1.632  -0.705 -0.0851  0.5894 -1.6714
  147SAPE   C2616126   7.017   1.563  -0.869 -0.5231 -0.8941  0.5148
  147SAPE   H6R16127   7.016   1.666  -0.907  0.6743 -1.2005 -0.4219
  147SAPE   C2716128   6.931   1.460  -0.937 -0.3588  0.7190  0.4923
  147SAPE   H7R16129   6.877   1.516  -1.016 -1.3573  1.4689  1.6656
  147SAPE   H7S16130   6.851   1.427  -0.867 -0.4913  0.5322  0.2548
  147SAPE   C2816131   6.994   1.331  -0.994 -0.1384  0.3872  0.2843
  147SAPE   H8R16132   7.010   1.250  -0.921  1.8923  0.0647 -0.4621
  147SAPE   C2916133   7.072   1.325  -1.102  0.1228 -0.0430 -0.1665
  147SAPE   H9R16134   7.123   1.230  -1.122 -1.0538 -0.0927 -3.7718
  147SAPE  C21016135   7.089   1.430  -1.207 -0.3226 -0.3512  0.4300
  147SAPE  H10R16136   7.198   1.451  -1.217  0.2629 -1.3295  3.6228
  147SAPE  H10S16137   7.052   1.528  -1.170  1.0679  0.5530 -0.4356
  147SAPE  C21116138   7.030   1.398  -1.346 -0.5289 -0.5681 -0.1499
  147SAPE  H11R16139   6.939   1.450  -1.381 -0.6830 -0.6831  0.0826
  147SAPE  C21216140   7.101   1.329  -1.441  0.0388 -0.2977 -0.1191
  147SAPE  H12R16141   7.049   1.300  -1.533 -1.3734  2.3859 -0.2741
  147SAPE  C21316142   7.233   1.262  -1.431  0.0090  0.5250 -0.8058
  147SAPE  H13R16143   7.239   1.184  -1.510  1.3176 -0.1380 -0.0900
  147SAPE  H13S16144   7.243   1.201  -1.339  2.7298  0.6989 -0.9043
  147SAPE  C21416145   7.353   1.356  -1.456  0.7410 -0.3069  0.1488
  147SAPE  H14R16146   7.412   1.382  -1.367 -1.1366 -0.3180  1.4713
  147SAPE  C21516147   7.394   1.379  -1.581  0.2604  0.3710 -0.2317
  147SAPE  H15R16148   7.472   1.455  -1.598  0.3676  0.0222 -1.3951
  147SAPE  C21616149   7.326   1.330  -1.706  0.4146  0.3621  0.2322
  147SAPE  H16R16150   7.343   1.402  -1.789  3.2428 -1.3142 -0.7862
  147SAPE  H16S16151   7.215   1.320  -1.696  0.0862  1.6479 -1.6459
  147SAPE  C21716152   7.399   1.204  -1.755 -0.0457 -0.4965 -0.0114
  147SAPE  H17R16153   7.337   1.162  -1.838 -1.5281 -0.3536  0.9844
  147SAPE  H17S16154   7.402   1.126  -1.676 -0.4882 -1.1679 -0.6433
  147SAPE  C21816155   7.546   1.211  -1.816  0.3237  0.4098  0.9988
  147SAPE  H18R16156   7.584   1.107  -1.828 -1.4082 -0.2864  1.2067
  147SAPE  H18S16157   7.611   1.267  -1.745  0.0624  0.5583  1.1247
  147SAPE  C21916158   7.534   1.274  -1.957 -0.1086  0.1095  0.5755
  147SAPE  H19R16159   7.485   1.374  -1.954  2.0645  1.2253  1.8985
  147SAPE  H19S16160   7.462   1.212  -2.013 -0.3016  1.2087 -0.4277
  147SAPE  C22016161   7.663   1.284  -2.048 -0.0765  0.1320 -0.3688
  147SAPE  H20R16162   7.701   1.183  -2.076 -2.1043 -0.8582  0.2289
  147SAPE  H20S16163   7.745   1.334  -1.993 -0.9397  0.0585  1.0298
  147SAPE  H20T16164   7.639   1.338  -2.142  1.1180  1.2462 -0.0559
  147SAPE   C3316165   6.915   2.048  -0.743  0.1631 -0.3041 -0.6101
  147SAPE   H3X16166   7.009   2.107  -0.744 -1.7998  3.1694  0.6049
  147SAPE   H3Y16167   6.840   2.115  -0.696 -0.8352 -2.7809  1.5305
  147SAPE   C3416168   6.877   2.029  -0.885  0.0128 -0.1380 -0.5745
  147SAPE   H4X16169   6.786   1.970  -0.906 -0.0132 -0.0413 -0.7351
  147SAPE   H4Y16170   6.952   1.972  -0.945 -0.5409  0.5977 -2.0145
  147SAPE   C3516171   6.870   2.164  -0.953  0.4067  0.1414  0.1843
  147SAPE   H5X16172   6.952   2.236  -0.932 -1.0942  2.3916 -1.2049
  147SAPE   H5Y16173   6.775   2.203  -0.909  0.1800  1.7290 -1.5859
  147SAPE   C3616174   6.835   2.150  -1.102  0.5421  0.5995  0.3301
  147SAPE   H6X16175   6.758   2.070  -1.112  0.8987  0.2243  0.5580
  147SAPE   H6Y16176   6.932   2.126  -1.151  1.0232  0.1742  1.4589
  147SAPE   C3716177   6.783   2.274  -1.178 -0.6590  0.7643 -0.3725
  147SAPE   H7X16178   6.852   2.360  -1.162 -0.2695  0.1882  1.2740
  147SAPE   H7Y16179   6.692   2.303  -1.121 -0.0619 -0.4182  1.2744
  147SAPE   C3816180   6.751   2.256  -1.325 -0.7240 -0.0583  0.7041
  147SAPE   H8X16181   6.696   2.343  -1.367 -0.7973 -1.0689 -1.4271
  147SAPE   H8Y16182   6.671   2.179  -1.334  0.0649 -0.6541 -2.3717
  147SAPE   C3916183   6.864   2.225  -1.420 -0.1778  0.1406  0.3948
  147SAPE   H9X16184   6.900   2.120  -1.416 -1.0706 -0.1627  0.8299
  147SAPE   H9Y16185   6.941   2.302  -1.400 -0.3767  0.6655 -0.7782
  147SAPE  C31016186   6.834   2.242  -1.570 -0.5469  0.3205  0.3116
  147SAPE  H10X16187   6.924   2.210  -1.627  1.7535  2.2783  2.6182
  147SAPE  H10Y16188   6.819   2.349  -1.597 -1.1078 -0.7232 -4.3483
  147SAPE  C31116189   6.710   2.169  -1.617  0.8055  0.0585 -0.4434
  147SAPE  H11X16190   6.623   2.193  -1.551  0.4595  0.9692 -1.2133
  147SAPE  H11Y16191   6.714   2.059  -1.601 -0.2593  0.1919  0.9623
  147SAPE  C31216192   6.688   2.182  -1.772  0.7611  0.4720 -0.0997
  147SAPE  H12X16193   6.704   2.284  -1.813 -0.0523  0.1180 -1.3440
  147SAPE  H12Y16194   6.587   2.146  -1.801  0.4382  0.7579  0.6266
  147SAPE  C31316195   6.780   2.091  -1.850  0.1888  0.6260  0.4882
  147SAPE  H13X16196   6.775   1.990  -1.804 -4.6166  1.1685  1.6936
  147SAPE  H13Y16197   6.885   2.127  -1.861  0.6544 -0.4380  1.2446
  147SAPE  C31416198   6.742   2.072  -1.997  0.4133  0.2870 -0.2682
  147SAPE  H14X16199   6.758   2.161  -2.062 -2.3643 -0.3195 -2.0014
  147SAPE  H14Y16200   6.634   2.043  -2.002  0.3028  0.3901  1.2683
  147SAPE  C31516201   6.835   1.968  -2.047  0.6654  0.8166  0.0136
  147SAPE  H15X16202   6.848   1.881  -1.980  1.3505  1.8704  1.3027
  147SAPE  H15Y16203   6.931   2.023  -2.061  0.4741  0.7765 -1.5598
  147SAPE  C31616204   6.813   1.914  -2.193  0.0855 -0.2986 -0.7821
  147SAPE  H16X16205   6.803   1.990  -2.274  1.3792  0.6048 -0.1279
  147SAPE  H16Y16206   6.712   1.869  -2.192 -0.4481  0.8276  1.2371
  147SAPE  C31716207   6.917   1.805  -2.221  0.3052  0.3806  0.3568
  147SAPE  H17X16208   6.896   1.718  -2.155  1.5575 -1.2631 -1.3081
  147SAPE  H17Y16209   7.019   1.836  -2.187  0.9377 -3.1597  2.1665
  147SAPE  C31816210   6.935   1.760  -2.363  0.1906  0.3284  0.1423
  147SAPE  H18X16211   6.992   1.822  -2.435  0.6577 -0.3840 -0.1189
  147SAPE  H18Y16212   6.840   1.731  -2.414 -0.1056  2.2545 -0.4880
  147SAPE  H18Z16213   6.980   1.659  -2.355  0.8288  0.7676  3.2357
  148SAPE     N16214   4.079   3.706   0.062 -0.3354  0.3708  0.2895
  148SAPE   HN116215   4.156   3.775   0.071 -0.9264  1.5111 -2.5133
  148SAPE   HN216216   4.066   3.677  -0.037 -2.6171 -0.3688  0.7476
  148SAPE   HN316217   3.998   3.756   0.104  0.0781  3.3267 -2.0720
  148SAPE   C1216218   4.113   3.585   0.145 -0.3348 -0.3221 -0.3947
  148SAPE  H12A16219   4.047   3.596   0.234 -0.5993  0.5880 -0.6860
  148SAPE  H12B16220   4.221   3.579   0.169 -0.3179 -2.8318 -0.8291
  148SAPE   C1116221   4.076   3.464   0.056 -0.4434  0.0562  0.0964
  148SAPE  H11A16222   4.122   3.376   0.106  1.8986 -0.0076 -1.9700
  148SAPE  H11B16223   4.123   3.479  -0.044 -0.2891 -1.2387 -0.0364
  148SAPE     P16224   3.851   3.364  -0.049 -0.0401  0.2248  0.5725
  148SAPE   O1316225   3.844   3.230   0.017 -0.1714  0.5362  0.1746
  148SAPE   O1416226   3.721   3.418  -0.082  0.1122  0.2527  0.0056
  148SAPE   O1216227   3.933   3.459   0.044 -0.3698  0.2015 -0.2572
  148SAPE   O1116228   3.941   3.345  -0.174 -0.5744 -0.5268 -0.3917
  148SAPE    C116229   3.957   3.439  -0.282  0.3118  0.2515 -0.1868
  148SAPE    HA16230   3.925   3.538  -0.245 -0.3666  0.3333 -0.9738
  148SAPE    HB16231   4.065   3.451  -0.307  0.5007 -1.5593 -0.3770
  148SAPE    C216232   3.875   3.405  -0.407  0.4513 -0.1036  0.5609
  148SAPE    HS16233   3.767   3.396  -0.385 -0.4205  0.3645 -2.8838
  148SAPE   O2116234   3.919   3.285  -0.478  0.0710  0.6278 -0.4347
  148SAPE   C2116235   3.814   3.198  -0.511 -0.2867  0.2192  0.1548
  148SAPE   O2216236   3.706   3.201  -0.460 -0.4375 -0.1377 -0.4815
  148SAPE   C2216237   3.862   3.090  -0.608  0.5239  0.7133  0.0158
  148SAPE   H2R16238   3.972   3.078  -0.596  0.4225  0.6329  0.9290
  148SAPE   H2S16239   3.820   2.993  -0.575  1.5780  0.1330 -0.3221
  148SAPE    C316240   3.870   3.516  -0.517  0.4216  0.1166 -0.3107
  148SAPE    HX16241   3.975   3.549  -0.535  0.1247  2.2799  1.4566
  148SAPE    HY16242   3.822   3.607  -0.476  0.5078  0.7201 -1.4985
  148SAPE   O3116243   3.824   3.474  -0.649 -0.3810  0.1478  0.5318
  148SAPE   C3116244   3.699   3.501  -0.681 -0.0156 -1.0012 -0.1162
  148SAPE   O3216245   3.613   3.551  -0.609 -0.1769  0.3520 -0.3803
  148SAPE   C3216246   3.669   3.455  -0.825  0.1087  0.4457  0.1939
  148SAPE   H2X16247   3.692   3.347  -0.832 -2.2233 -0.0439 -1.2155
  148SAPE   H2Y16248   3.741   3.511  -0.890  1.3161  0.3108  1.3838
  148SAPE   C2316249   3.827   3.105  -0.756 -0.8731 -0.1591  0.4737
  148SAPE   H3R16250   3.877   3.190  -0.807  0.2318 -0.5014  0.9363
  148SAPE   H3S16251   3.719   3.123  -0.773 -0.3432 -0.2814 -4.5751
  148SAPE   C2416252   3.847   2.982  -0.845 -0.3381  0.1063  0.5014
  148SAPE   H4R16253   3.815   3.013  -0.947 -2.1607  0.7936  1.2373
  148SAPE   H4S16254   3.779   2.904  -0.804  0.8195 -0.1633  1.9799
  148SAPE   C2516255   3.986   2.920  -0.839  0.5858 -0.4482 -0.7061
  148SAPE   H5R16256   4.039   2.941  -0.745  1.0545 -2.8350 -0.3678
  148SAPE   C2616257   4.045   2.833  -0.918  0.3309 -1.0627  0.0700
  148SAPE   H6R16258   4.134   2.784  -0.876 -0.4590 -4.0523 -1.4851
  148SAPE   C2716259   3.996   2.768  -1.042  0.0634 -0.0694  0.5244
  148SAPE   H7R16260   3.887   2.786  -1.059  0.0152 -0.4129  0.4534
  148SAPE   H7S16261   4.001   2.657  -1.034 -0.7770 -0.2342 -0.8575
  148SAPE   C2816262   4.061   2.827  -1.165 -0.9406 -0.1318 -1.2328
  148SAPE   H8R16263   4.071   2.937  -1.169 -1.7352  0.0846  1.1358
  148SAPE   C2916264   4.070   2.753  -1.274  0.0447  0.1889  0.4933
  148SAPE   H9R16265   4.110   2.782  -1.372  3.6018 -2.2969  1.0376
  148SAPE  C21016266   4.017   2.615  -1.294  0.1971  0.7076  0.0433
  148SAPE  H10R16267   4.052   2.555  -1.208 -1.1176 -1.4449 -0.8458
  148SAPE  H10S16268   4.071   2.560  -1.374  1.4929  2.8118 -0.6108
  148SAPE  C21116269   3.867   2.609  -1.318  0.2507 -0.3812 -0.7598
  148SAPE  H11R16270   3.807   2.611  -1.226  1.3074  2.3915 -0.0427
  148SAPE  C21216271   3.802   2.606  -1.435  0.5097 -1.3123 -0.2198
  148SAPE  H12R16272   3.692   2.594  -1.437 -0.1980  2.8050  2.6154
  148SAPE  C21316273   3.862   2.602  -1.571  0.5501  0.3671  0.6200
  148SAPE  H13R16274   3.973   2.598  -1.575  0.5108 -0.4590 -2.9035
  148SAPE  H13S16275   3.840   2.697  -1.623  0.2737  0.0713  0.1863
  148SAPE  C21416276   3.805   2.477  -1.636 -0.2414  0.3284  0.0619
  148SAPE  H14R16277   3.806   2.388  -1.570  0.1827 -1.8020 -2.6223
  148SAPE  C21516278   3.740   2.463  -1.755  0.2314 -0.1632 -0.9947
  148SAPE  H15R16279   3.700   2.364  -1.778 -2.4150  0.5289  0.2091
  148SAPE  C21616280   3.711   2.570  -1.861  0.7785  0.4561 -0.3605
  148SAPE  H16R16281   3.729   2.672  -1.821  3.6795 -0.2209  0.3366
  148SAPE  H16S16282   3.608   2.559  -1.900  1.1340 -0.6369 -1.0378
  148SAPE  C21716283   3.810   2.555  -1.984 -0.6257  0.8574 -0.3149
  148SAPE  H17R16284   3.918   2.558  -1.956 -0.7374  0.7280  0.1480
  148SAPE  H17S16285   3.804   2.646  -2.048  1.5641 -0.3692 -2.4253
  148SAPE  C21816286   3.768   2.444  -2.078  0.4650  0.0673  0.0627
  148SAPE  H18R16287   3.684   2.480  -2.141  1.2468  1.8949 -0.0154
  148SAPE  H18S16288   3.736   2.350  -2.030 -3.4992  1.2329  0.0965
  148SAPE  C21916289   3.885   2.416  -2.182  0.9660  0.4063  0.1811
  148SAPE  H19R16290   3.853   2.347  -2.263  2.8546 -0.8486  0.4424
  148SAPE  H19S16291   3.962   2.362  -2.123  1.2256 -1.7949 -2.0076
  148SAPE  C22016292   3.949   2.546  -2.242  0.0875 -0.5566  0.0812
  148SAPE  H20R16293   3.873   2.618  -2.281  1.3996  0.6202 -0.3859
  148SAPE  H20S16294   4.017   2.524  -2.327 -0.1178  2.0302 -0.8657
  148SAPE  H20T16295   4.008   2.603  -2.167 -1.3324 -1.6546  2.1183
  148SAPE   C3316296   3.524   3.480  -0.872 -0.2223  0.2605 -0.3495
  148SAPE   H3X16297   3.505   3.589  -0.881  0.4064  0.5345  1.3025
  148SAPE   H3Y16298   3.457   3.439  -0.793  2.4088  2.7835  3.5095
  148SAPE   C3416299   3.500   3.422  -1.005 -0.3513  0.2513  0.3608
  148SAPE   H4X16300   3.392   3.394  -1.002 -0.4654  0.7498  0.9318
  148SAPE   H4Y16301   3.569   3.336  -1.018  0.0634  0.7511 -0.8415
  148SAPE   C3516302   3.501   3.519  -1.124 -0.0336  0.2703 -0.2811
  148SAPE   H5X16303   3.607   3.548  -1.138  0.7985 -1.4620  1.9728
  148SAPE   H5Y16304   3.432   3.601  -1.094 -2.6180 -2.1534  0.8315
  148SAPE   C3616305   3.448   3.463  -1.259  0.0764  0.2614 -0.2283
  148SAPE   H6X16306   3.348   3.417  -1.241  0.2455  0.1652  0.4986
  148SAPE   H6Y16307   3.514   3.386  -1.303  1.0497  1.2190 -0.4919
  148SAPE   C3716308   3.437   3.588  -1.358  0.2242 -0.7431 -0.8507
  148SAPE   H7X16309   3.544   3.608  -1.384  0.8163 -0.1295  1.7748
  148SAPE   H7Y16310   3.403   3.678  -1.303 -1.5639 -0.8781 -1.6887
  148SAPE   C3816311   3.358   3.572  -1.486  0.4564  0.5300  0.0174
  148SAPE   H8X16312   3.366   3.670  -1.537  1.8435  0.2899 -0.2549
  148SAPE   H8Y16313   3.250   3.555  -1.467 -0.7901 -0.8454 -5.9334
  148SAPE   C3916314   3.399   3.451  -1.570 -0.1564  0.0032  0.3411
  148SAPE   H9X16315   3.388   3.355  -1.515  3.8175  0.3622  2.0690
  148SAPE   H9Y16316   3.508   3.464  -1.586 -0.1831  0.4833  0.5251
  148SAPE  C31016317   3.353   3.445  -1.717  0.5406  0.1824 -0.2170
  148SAPE  H10X16318   3.242   3.452  -1.718  0.5318  0.1406  0.1983
  148SAPE  H10Y16319   3.395   3.355  -1.766 -0.2010 -1.0550  1.3577
  148SAPE  C31116320   3.403   3.548  -1.816 -0.1581 -0.1008 -1.0535
  148SAPE  H11X16321   3.508   3.572  -1.792 -1.2059  1.4347  2.6188
  148SAPE  H11Y16322   3.351   3.640  -1.784  0.4272 -0.5498  1.3685
  148SAPE  C31216323   3.396   3.505  -1.963  0.7589 -0.4936  0.1241
  148SAPE  H12X16324   3.301   3.447  -1.964  1.3337 -1.5669  2.1873
  148SAPE  H12Y16325   3.479   3.434  -1.988  0.6102 -0.3573 -0.7806
  148SAPE  C31316326   3.403   3.630  -2.053  0.3951 -0.1022  1.1838
  148SAPE  H13X16327   3.470   3.701  -2.001 -0.6721  0.5078  1.7689
  148SAPE  H13Y16328   3.299   3.670  -2.060  0.2362 -0.8071 -1.8829
  148SAPE  C31416329   3.450   3.603  -2.201  0.2220 -0.3761 -0.0779
  148SAPE  H14X16330   3.413   3.695  -2.250 -0.3964 -0.9803 -0.7704
  148SAPE  H14Y16331   3.395   3.521  -2.253  0.2072 -0.6675  0.3911
  148SAPE  C31516332   3.604   3.589  -2.219  0.5608  0.0181  0.2713
  148SAPE  H15X16333   3.634   3.492  -2.173 -1.4797 -1.0069 -0.4309
  148SAPE  H15Y16334   3.662   3.669  -2.169  0.9731 -0.0118 -0.1549
  148SAPE  C31616335   3.640   3.569  -2.365 -0.0825  0.3377 -0.3306
  148SAPE  H16X16336   3.593   3.638  -2.438  1.5410  1.5338 -0.3048
  148SAPE  H16Y16337   3.607   3.469  -2.400  0.2033  0.1245 -0.0130
  148SAPE  C31716338   3.793   3.580  -2.394  1.1145  0.3556  0.1562
  148SAPE  H17X16339   3.808   3.690  -2.389  3.8494  0.2074 -2.1975
  148SAPE  H17Y16340   3.807   3.551  -2.500  0.3239 -1.2857  0.4665
  148SAPE  C31816341   3.880   3.507  -2.295  0.2672 -0.3931  0.3629
  148SAPE  H18X16342   3.867   3.542  -2.190 -0.3408  2.6184 -0.6001
  148SAPE  H18Y16343   3.989   3.527  -2.308  0.3434  0.0040  1.5061
  148SAPE  H18Z16344   3.857   3.399  -2.305  1.1015 -0.5080 -0.5410
  149SAPE     N16345   1.658   5.004   8.137 -0.7689 -0.1627  0.2265
  149SAPE   HN116346   1.599   4.987   8.221 -1.5861 -2.5687 -0.7265
  149SAPE   HN216347   1.742   5.057   8.166 -0.2968 -0.0817 -1.1853
  149SAPE   HN316348   1.599   5.069   8.081 -0.7621  1.0722  1.5967
  149SAPE   C1216349   1.701   4.878   8.066  0.4645 -0.4273  1.0182
  149SAPE  H12A16350   1.609   4.816   8.056  0.9451 -0.8917 -1.0953
  149SAPE  H12B16351   1.764   4.823   8.138 -0.7538  1.1910  3.4505
  149SAPE   C1116352   1.786   4.915   7.935 -0.3853 -0.4881 -0.0951
  149SAPE  H11A16353   1.718   4.962   7.860  2.6675  2.7767 -1.1002
  149SAPE  H11B16354   1.816   4.822   7.883 -0.3313  1.1094 -3.1921
  149SAPE     P16355   2.050   4.958   7.970 -0.8451 -0.6209  0.1963
  149SAPE   O1316356   2.141   5.071   7.940  0.3371  0.1719  0.6454
  149SAPE   O1416357   2.068   4.897   8.101 -0.1720 -0.4350 -0.2041
  149SAPE   O1216358   1.897   5.009   7.960 -0.0092  0.2887 -0.3269
  149SAPE   O1116359   2.066   4.850   7.854  0.0538 -0.0490  0.8845
  149SAPE    C116360   2.075   4.880   7.718  0.3670 -0.3156  0.1538
  149SAPE    HA16361   2.005   4.814   7.662 -2.2979  0.7007  2.0880
  149SAPE    HB16362   2.040   4.985   7.700  0.8846 -0.6730 -3.6531
  149SAPE    C216363   2.219   4.865   7.666 -0.5470 -0.1109  0.4845
  149SAPE    HS16364   2.268   4.960   7.696  0.4903 -1.1598  2.2711
  149SAPE   O2116365   2.224   4.842   7.524  0.2352  0.5897 -0.0268
  149SAPE   C2116366   2.205   4.948   7.444 -1.0110  0.0227  0.5826
  149SAPE   O2216367   2.175   5.056   7.485  0.9198 -0.4615  0.0589
  149SAPE   C2216368   2.197   4.894   7.300  0.0603 -0.4186 -0.0935
  149SAPE   H2R16369   2.154   4.791   7.294  0.4587 -0.6892  1.2536
  149SAPE   H2S16370   2.142   4.971   7.243  1.1949 -0.0294 -0.6956
  149SAPE    C316371   2.296   4.748   7.739  0.6740 -0.2281 -0.1309
  149SAPE    HX16372   2.238   4.658   7.711  2.3226 -1.3954  0.0385
  149SAPE    HY16373   2.304   4.769   7.848  1.9246 -0.3654 -0.1826
  149SAPE   O3116374   2.431   4.721   7.682  0.1467  0.2676  0.1942
  149SAPE   C3116375   2.524   4.807   7.733  0.4620  0.2435  0.3823
  149SAPE   O3216376   2.500   4.902   7.806  0.1096 -0.0846 -0.0327
  149SAPE   C3216377   2.665   4.753   7.697  0.1276  0.6468 -0.2758
  149SAPE   H2X16378   2.657   4.664   7.631 -2.3653  0.1357  0.6340
  149SAPE   H2Y16379   2.711   4.734   7.796  0.0131  4.1879  0.5819
  149SAPE   C2316380   2.333   4.884   7.228  0.0645 -0.1325 -0.7797
  149SAPE   H3R16381   2.396   4.810   7.281 -2.6361 -1.5084  0.7137
  149SAPE   H3S16382   2.382   4.983   7.234  0.8590 -0.5393 -0.3629
  149SAPE   C2416383   2.325   4.829   7.084 -0.7345  0.3208 -0.0468
  149SAPE   H4R16384   2.251   4.747   7.077  0.7851 -1.1404  0.4516
  149SAPE   H4S16385   2.418   4.779   7.050 -2.6233 -1.7441 -2.5042
  149SAPE   C2516386   2.280   4.934   6.993  0.5452 -0.5198  0.4938
  149SAPE   H5R16387   2.296   5.039   7.023 -1.0255 -0.2417  0.4424
  149SAPE   C2616388   2.247   4.918   6.868  0.1954  0.2149 -0.8933
  149SAPE   H6R16389   2.205   4.998   6.805 -0.0092  0.2771 -0.6798
  149SAPE   C2716390   2.237   4.786   6.815 -0.2078  0.4371  0.7475
  149SAPE   H7R16391   2.143   4.731   6.835  0.8962 -2.6618 -1.6725
  149SAPE   H7S16392   2.316   4.714   6.847  1.4106  2.2063  0.9153
  149SAPE   C2816393   2.258   4.802   6.665  0.2278  0.2695 -0.0854
  149SAPE   H8R16394   2.364   4.784   6.638  0.2225  1.4034 -0.9242
  149SAPE   C2916395   2.174   4.829   6.556  0.3054  0.0581 -0.6711
  149SAPE   H9R16396   2.205   4.834   6.450  0.1969 -0.2817 -0.7201
  149SAPE  C21016397   2.027   4.870   6.574  0.2139  0.0785 -0.9714
  149SAPE  H10R16398   2.011   4.976   6.603 -1.0457 -0.4712  0.4893
  149SAPE  H10S16399   1.972   4.808   6.648  0.4376  0.0037 -0.8675
  149SAPE  C21116400   1.951   4.847   6.445 -0.4069  0.1486 -0.0585
  149SAPE  H11R16401   1.986   4.761   6.387 -1.5109 -0.8160  0.6672
  149SAPE  C21216402   1.839   4.913   6.399 -0.1792  0.2389  0.0730
  149SAPE  H12R16403   1.798   4.893   6.299 -1.0292  3.9047 -0.4731
  149SAPE  C21316404   1.760   5.017   6.469  0.3785  0.5921  0.4809
  149SAPE  H13R16405   1.778   5.000   6.577  1.8064 -0.1192  0.1547
  149SAPE  H13S16406   1.652   5.013   6.442  0.0576  1.3095  1.5927
  149SAPE  C21416407   1.810   5.151   6.423 -0.0031 -0.2692  0.3654
  149SAPE  H14R16408   1.800   5.174   6.316 -1.4693 -2.0539  0.0826
  149SAPE  C21516409   1.857   5.250   6.500 -0.6415 -0.4193  0.2595
  149SAPE  H15R16410   1.897   5.341   6.452 -0.0547  0.0965  1.6653
  149SAPE  C21616411   1.874   5.251   6.647  0.3560 -0.0701  0.3309
  149SAPE  H16R16412   1.844   5.156   6.696  1.1454  0.3492  1.7081
  149SAPE  H16S16413   1.815   5.336   6.687 -2.1283 -1.1138 -0.9302
  149SAPE  C21716414   2.013   5.272   6.717 -0.4712  0.0582 -0.8568
  149SAPE  H17R16415   2.055   5.366   6.675 -0.1894 -0.2979 -1.3863
  149SAPE  H17S16416   2.075   5.182   6.694 -0.2126  0.2983 -1.0938
  149SAPE  C21816417   2.007   5.300   6.869 -0.3484  0.1101  0.1263
  149SAPE  H18R16418   1.966   5.212   6.924 -1.4770  0.3522 -0.2898
  149SAPE  H18S16419   1.939   5.386   6.887  0.3723  0.2563  2.3432
  149SAPE  C21916420   2.140   5.342   6.924  0.1912 -0.1439 -0.9454
  149SAPE  H19R16421   2.188   5.415   6.856 -3.1294  1.6765 -1.5401
  149SAPE  H19S16422   2.207   5.254   6.941 -0.1586 -0.2395  0.0395
  149SAPE  C22016423   2.120   5.415   7.057 -0.0968 -0.2157 -0.4378
  149SAPE  H20R16424   2.073   5.359   7.141 -0.4341  1.2540  0.4037
  149SAPE  H20S16425   2.050   5.498   7.034 -0.3533 -0.8046 -1.8864
  149SAPE  H20T16426   2.215   5.460   7.094  0.4688 -0.5822 -1.4104
  149SAPE   C3316427   2.742   4.870   7.633  0.2228 -0.0424 -0.4044
  149SAPE   H3X16428   2.730   4.958   7.700  1.4106 -0.0287 -0.1838
  149SAPE   H3Y16429   2.702   4.892   7.532 -0.4845  0.6678  0.0209
  149SAPE   C3416430   2.892   4.831   7.611 -1.2990  0.3221 -0.3179
  149SAPE   H4X16431   2.899   4.721   7.593 -2.3162  0.2249 -0.1619
  149SAPE   H4Y16432   2.949   4.851   7.704 -2.0515 -0.0002  0.2217
  149SAPE   C3516433   2.940   4.900   7.486 -0.1102 -0.2568 -0.0645
  149SAPE   H5X16434   2.907   5.006   7.498 -2.4630 -0.9662  0.2461
  149SAPE   H5Y16435   2.881   4.859   7.402  0.2777 -0.5478 -0.1933
  149SAPE   C3616436   3.090   4.888   7.450 -0.8337 -0.5925 -0.2429
  149SAPE   H6X16437   3.139   4.789   7.461  0.1847 -0.0751 -0.0251
  149SAPE   H6Y16438   3.131   4.945   7.536  0.9181 -1.9541 -0.1013
  149SAPE   C3716439   3.126   4.967   7.326 -0.1768  0.1289 -0.5191
  149SAPE   H7X16440   3.233   4.997   7.321 -0.5004  1.1059 -2.9901
  149SAPE   H7Y16441   3.070   5.060   7.348 -1.5293 -1.1373  1.7972
  149SAPE   C3816442   3.089   4.902   7.199 -0.4767 -0.0239  0.0193
  149SAPE   H8X16443   2.989   4.854   7.205 -0.4168 -0.2563 -0.7261
  149SAPE   H8Y16444   3.142   4.804   7.195  0.2441  0.2433  1.8569
  149SAPE   C3916445   3.109   4.986   7.072  0.3833  0.2671 -0.2666
  149SAPE   H9X16446   3.175   5.073   7.094 -1.7564  1.7681  0.5171
  149SAPE   H9Y16447   3.009   5.024   7.043  0.3729  1.8245  1.6170
  149SAPE  C31016448   3.185   4.920   6.953  0.5015 -0.0596 -0.9639
  149SAPE  H10X16449   3.287   4.891   6.985 -1.2875 -5.8842  0.7502
  149SAPE  H10Y16450   3.189   4.985   6.863 -5.2031 -1.2280 -2.4623
  149SAPE  C31116451   3.112   4.792   6.905  0.0295 -0.5351  0.0995
  149SAPE  H11X16452   3.003   4.811   6.912  0.3260  1.1500  0.7992
  149SAPE  H11Y16453   3.131   4.709   6.976 -2.3663 -2.6040 -1.5079
  149SAPE  C31216454   3.163   4.739   6.771 -0.0771  0.2150  0.3453
  149SAPE  H12X16455   3.167   4.822   6.697  1.8510 -0.9727 -0.9713
  149SAPE  H12Y16456   3.089   4.662   6.739 -1.4194  0.8089  1.8678
  149SAPE  C31316457   3.313   4.701   6.781  0.6552 -0.1244 -0.2922
  149SAPE  H13X16458   3.319   4.611   6.846  0.5751 -0.5455 -0.8645
  149SAPE  H13Y16459   3.375   4.774   6.838 -1.3436  1.3498  0.1121
  149SAPE  C31416460   3.387   4.663   6.646 -0.7658 -0.3012 -0.2419
  149SAPE  H14X16461   3.309   4.619   6.580 -1.2006 -0.5601  0.4359
  149SAPE  H14Y16462   3.470   4.592   6.666  0.0758  0.5514 -0.6549
  149SAPE  C31516463   3.447   4.785   6.579  0.3455 -0.2541 -0.0877
  149SAPE  H15X16464   3.509   4.836   6.655  1.2290 -1.5423  0.0952
  149SAPE  H15Y16465   3.362   4.852   6.554  0.2813 -0.5554 -0.6909
  149SAPE  C31616466   3.524   4.764   6.447  0.1850  0.5966 -0.2714
  149SAPE  H16X16467   3.461   4.725   6.365  0.1789  2.7034 -1.3542
  149SAPE  H16Y16468   3.584   4.673   6.467  0.6330  0.6727 -1.2319
  149SAPE  C31716469   3.600   4.889   6.393  0.3549 -0.2696  0.1975
  149SAPE  H17X16470   3.613   4.964   6.474  0.8078  0.0865 -0.1929
  149SAPE  H17Y16471   3.532   4.932   6.316 -0.5305  1.7462  1.9916
  149SAPE  C31816472   3.736   4.866   6.325  0.1502  0.8928  0.1353
  149SAPE  H18X16473   3.804   4.794   6.375 -1.7518 -2.0166 -1.2327
  149SAPE  H18Y16474   3.784   4.967   6.318  1.3861  0.2765 -0.6091
  149SAPE  H18Z16475   3.735   4.824   6.222  0.7459 -3.6089  1.7734
  150SAPE     N16476   5.483   3.858   0.088 -0.1453  0.1939 -0.2507
  150SAPE   HN116477   5.439   3.953   0.086  1.1487  0.8131 -0.6901
  150SAPE   HN216478   5.411   3.795   0.127  0.9561 -1.0630 -0.2019
  150SAPE   HN316479   5.560   3.855   0.158 -1.6127 -0.6204  1.4035
  150SAPE   C1216480   5.518   3.830  -0.055  0.4053  0.5228  0.0420
  150SAPE  H12A16481   5.429   3.846  -0.119 -0.3511 -2.0469  0.3254
  150SAPE  H12B16482   5.533   3.720  -0.061  1.8520  0.7043 -0.2501
  150SAPE   C1116483   5.641   3.907  -0.093  0.5275 -0.1183 -0.6398
  150SAPE  H11A16484   5.643   3.889  -0.203  0.1399 -1.9708 -0.3651
  150SAPE  H11B16485   5.736   3.875  -0.045 -0.2376  0.2720  1.2003
  150SAPE     P16486   5.538   4.151  -0.165 -0.9969 -0.1612 -0.6184
  150SAPE   O1316487   5.407   4.097  -0.204 -0.2730  0.3258 -0.3629
  150SAPE   O1416488   5.537   4.283  -0.091 -0.1879 -0.5009  0.5059
  150SAPE   O1216489   5.612   4.043  -0.068  0.3006  0.2644  0.2039
  150SAPE   O1116490   5.631   4.173  -0.290 -0.0532  0.5163  0.7981
  150SAPE    C116491   5.770   4.194  -0.284 -0.7085  0.2246 -0.6318
  150SAPE    HA16492   5.816   4.165  -0.188  1.1924  1.4959 -1.0920
  150SAPE    HB16493   5.817   4.128  -0.360 -2.7732 -1.1708 -0.7699
  150SAPE    C216494   5.802   4.346  -0.307  0.9437 -0.2743  1.1357
  150SAPE    HS16495   5.756   4.398  -0.219  1.2884 -0.5263  1.4661
  150SAPE   O2116496   5.753   4.387  -0.433  0.4368  0.3616 -0.3613
  150SAPE   C2116497   5.705   4.510  -0.446 -0.8581 -0.0769 -0.6423
  150SAPE   O2216498   5.703   4.599  -0.359 -0.0163  0.0805 -0.4301
  150SAPE   C2216499   5.643   4.524  -0.584  0.0698  0.1264  0.5806
  150SAPE   H2R16500   5.722   4.492  -0.655 -0.7135 -0.6041  0.0187
  150SAPE   H2S16501   5.555   4.455  -0.588 -0.2544  0.3172  3.0666
  150SAPE    C316502   5.957   4.363  -0.300 -0.8325 -0.3822 -0.3394
  150SAPE    HX16503   5.987   4.333  -0.197 -0.1308 -1.3531 -0.8188
  150SAPE    HY16504   5.979   4.472  -0.311  0.1840 -0.3978  1.1345
  150SAPE   O3116505   6.017   4.286  -0.406  0.1596  0.2824  0.1147
  150SAPE   C3116506   6.042   4.356  -0.521 -0.6601  0.2700  0.7642
  150SAPE   O3216507   6.028   4.473  -0.534 -0.2803 -0.1389 -0.1956
  150SAPE   C3216508   6.117   4.268  -0.629  0.3288 -0.3618  0.8624
  150SAPE   H2X16509   6.038   4.205  -0.675 -0.5234  1.5782 -0.4709
  150SAPE   H2Y16510   6.200   4.212  -0.581  1.5774  0.6360 -0.0619
  150SAPE   C2316511   5.598   4.670  -0.629 -0.4919 -0.4954 -0.7328
  150SAPE   H3R16512   5.664   4.747  -0.583 -0.1223 -1.2136 -0.0421
  150SAPE   H3S16513   5.490   4.679  -0.605 -0.7325 -1.8357 -1.2280
  150SAPE   C2416514   5.600   4.689  -0.781 -0.0615 -0.0935 -0.5668
  150SAPE   H4R16515   5.542   4.609  -0.833 -0.6945  0.3740 -0.5928
  150SAPE   H4S16516   5.704   4.676  -0.816  0.4117 -0.9944  1.0718
  150SAPE   C2516517   5.553   4.820  -0.825  0.0098 -0.4145 -0.0125
  150SAPE   H5R16518   5.554   4.895  -0.745 -1.3978 -0.3810  0.0029
  150SAPE   C2616519   5.523   4.850  -0.954  0.3784  0.1635  0.2711
  150SAPE   H6R16520   5.480   4.949  -0.976 -0.6218 -0.2816  0.1346
  150SAPE   C2716521   5.524   4.750  -1.064  0.1217  0.0023  0.7341
  150SAPE   H7R16522   5.421   4.745  -1.106 -0.2385 -1.4514  1.6984
  150SAPE   H7S16523   5.537   4.644  -1.034  4.6852 -0.1031 -0.9187
  150SAPE   C2816524   5.617   4.801  -1.166 -0.7927 -0.7510  0.2511
  150SAPE   H8R16525   5.720   4.826  -1.134 -0.3825  0.7478 -2.0152
  150SAPE   C2916526   5.586   4.829  -1.295 -0.1822 -0.9366  0.2743
  150SAPE   H9R16527   5.670   4.874  -1.350  1.3866 -1.0460  2.4861
  150SAPE  C21016528   5.457   4.812  -1.372  0.4622  0.3482  0.6098
  150SAPE  H10R16529   5.382   4.751  -1.317  2.5583 -3.2274 -0.1662
  150SAPE  H10S16530   5.492   4.753  -1.459  1.9162 -1.2142  2.1608
  150SAPE  C21116531   5.391   4.940  -1.407  1.1920  0.7625 -0.0440
  150SAPE  H11R16532   5.406   5.029  -1.345  0.4540  0.8606  0.0062
  150SAPE  C21216533   5.329   4.962  -1.521  0.4249 -0.5203  0.5175
  150SAPE  H12R16534   5.282   5.059  -1.543 -0.5370 -1.1108 -0.1513
  150SAPE  C21316535   5.296   4.862  -1.627 -0.3156  0.5868  0.3041
  150SAPE  H13R16536   5.186   4.848  -1.620 -0.2089  0.0450  1.0431
  150SAPE  H13S16537   5.337   4.762  -1.601 -0.3616  0.9083  1.6882
  150SAPE  C21416538   5.335   4.906  -1.766  0.5059  0.3436  0.0002
  150SAPE  H14R16539   5.432   4.957  -1.774  0.1120  0.9904 -0.8352
  150SAPE  C21516540   5.262   4.874  -1.875 -0.3683  0.2662 -0.5384
  150SAPE  H15R16541   5.277   4.923  -1.972 -1.5125 -1.1273 -1.4662
  150SAPE  C21616542   5.129   4.793  -1.864  0.5568 -0.2370 -0.2067
  150SAPE  H16R16543   5.041   4.859  -1.848 -0.4266 -1.6172  0.2779
  150SAPE  H16S16544   5.130   4.717  -1.783  2.1971  1.1098  1.1324
  150SAPE  C21716545   5.102   4.708  -1.997 -0.0901 -0.1383  0.2583
  150SAPE  H17R16546   5.016   4.648  -1.961  0.6769 -1.9259 -0.7602
  150SAPE  H17S16547   5.188   4.641  -2.016 -2.0505 -2.7280 -0.0775
  150SAPE  C21816548   5.056   4.787  -2.121 -0.2963 -0.3460  1.2559
  150SAPE  H18R16549   5.139   4.842  -2.172 -0.6563  0.0292  1.0674
  150SAPE  H18S16550   4.979   4.861  -2.089 -2.3925 -1.6779 -0.4740
  150SAPE  C21916551   4.976   4.711  -2.224 -0.4421  0.1440 -0.4855
  150SAPE  H19R16552   4.948   4.783  -2.304 -0.0072 -0.1011 -0.8655
  150SAPE  H19S16553   4.879   4.684  -2.176 -0.3209  0.6144  0.0338
  150SAPE  C22016554   5.051   4.587  -2.277  0.2342 -0.5817 -0.1101
  150SAPE  H20R16555   5.127   4.621  -2.352 -1.6574 -1.0479 -2.3486
  150SAPE  H20S16556   4.978   4.520  -2.326 -1.4431  0.0130  1.4829
  150SAPE  H20T16557   5.079   4.529  -2.187 -1.1309 -1.6002 -0.3173
  150SAPE   C3316558   6.155   4.357  -0.755  0.4258 -0.2151 -0.1586
  150SAPE   H3X16559   6.236   4.431  -0.738 -0.2300  0.6061 -0.5768
  150SAPE   H3Y16560   6.070   4.425  -0.779  1.1159  0.8881  0.4377
  150SAPE   C3416561   6.183   4.262  -0.869 -0.3896 -0.0665  0.0865
  150SAPE   H4X16562   6.094   4.197  -0.886  0.0555 -1.4827  2.7073
  150SAPE   H4Y16563   6.273   4.200  -0.853 -1.6958 -1.5221  2.4805
  150SAPE   C3516564   6.197   4.338  -1.000  0.1623  0.1329  0.0700
  150SAPE   H5X16565   6.246   4.436  -0.980 -3.7283  2.5578 -1.0139
  150SAPE   H5Y16566   6.098   4.369  -1.040  0.5214  0.3833 -0.6450
  150SAPE   C3616567   6.276   4.249  -1.097 -0.0160  0.1187 -0.1481
  150SAPE   H6X16568   6.256   4.140  -1.087  1.5656 -0.3133 -1.2437
  150SAPE   H6Y16569   6.385   4.266  -1.083 -0.2073  1.0696  0.2455
  150SAPE   C3716570   6.241   4.289  -1.243 -0.2611 -0.4871  0.1350
  150SAPE   H7X16571   6.252   4.399  -1.257 -0.4089 -0.6229 -1.1789
  150SAPE   H7Y16572   6.134   4.264  -1.262 -0.7464  0.0634  1.9470
  150SAPE   C3816573   6.328   4.217  -1.343 -0.1021  0.0342  0.4558
  150SAPE   H8X16574   6.322   4.107  -1.325  0.1270 -0.2408 -1.0470
  150SAPE   H8Y16575   6.434   4.249  -1.335 -0.9073  2.5302  2.4447
  150SAPE   C3916576   6.287   4.245  -1.481 -0.0859 -0.1531 -0.4329
  150SAPE   H9X16577   6.286   4.356  -1.494 -1.6321  0.1466  1.5728
  150SAPE   H9Y16578   6.186   4.203  -1.502 -0.7583  1.6167 -0.9916
  150SAPE  C31016579   6.391   4.198  -1.577  0.4978 -1.1638 -0.1799
  150SAPE  H10X16580   6.421   4.095  -1.548  0.6825 -1.1221 -0.2198
  150SAPE  H10Y16581   6.489   4.250  -1.567  0.6667 -1.5163 -0.0005
  150SAPE  C31116582   6.359   4.224  -1.730 -0.1913 -0.6730 -0.1484
  150SAPE  H11X16583   6.449   4.198  -1.790 -0.9130 -2.2246 -0.6160
  150SAPE  H11Y16584   6.327   4.329  -1.744  3.5545  0.7200  0.4827
  150SAPE  C31216585   6.242   4.136  -1.775  0.0812 -0.5695  0.0576
  150SAPE  H12X16586   6.149   4.189  -1.746 -1.3359 -1.9033 -1.8024
  150SAPE  H12Y16587   6.239   4.036  -1.727  0.5145 -0.9595 -0.7027
  150SAPE  C31316588   6.254   4.094  -1.926 -0.3257 -0.7334 -0.5701
  150SAPE  H13X16589   6.362   4.074  -1.939 -0.1631 -1.6758  1.6742
  150SAPE  H13Y16590   6.220   4.177  -1.991 -1.6387 -0.6338  0.1930
  150SAPE  C31416591   6.176   3.971  -1.963  0.1277  0.2945  0.3252
  150SAPE  H14X16592   6.068   3.992  -1.949 -0.1104  1.4902 -2.5011
  150SAPE  H14Y16593   6.194   3.883  -1.898 -0.1239  1.0095  1.3818
  150SAPE  C31516594   6.191   3.925  -2.109  0.1955 -0.1146  0.3296
  150SAPE  H15X16595   6.116   3.844  -2.120 -1.4620  1.1921  1.2943
  150SAPE  H15Y16596   6.287   3.881  -2.141 -0.1931  0.0964 -1.2501
  150SAPE  C31616597   6.151   4.032  -2.212 -0.6005  0.2603 -0.6982
  150SAPE  H16X16598   6.166   3.982  -2.310  1.2872  1.2614 -0.9509
  150SAPE  H16Y16599   6.234   4.105  -2.212 -0.8901  0.6758  1.6716
  150SAPE  C31716600   6.015   4.097  -2.198  1.3507  0.6778 -0.9766
  150SAPE  H17X16601   5.998   4.136  -2.095 -0.5066  1.4372 -1.5166
  150SAPE  H17Y16602   5.938   4.022  -2.225  1.2169  0.9325 -1.3142
  150SAPE  C31816603   5.994   4.207  -2.295  0.6156 -0.7273  0.4083
  150SAPE  H18X16604   5.905   4.263  -2.259  1.5489  1.9585 -1.1748
  150SAPE  H18Y16605   5.965   4.165  -2.393  2.5316  1.2814 -1.1057
  150SAPE  H18Z16606   6.077   4.280  -2.305  0.5350 -0.7614 -0.5759
  151SAPE     N16607   6.755   2.418   0.273  0.4107 -0.3166 -0.5596
  151SAPE   HN116608   6.728   2.319   0.286  3.3870 -1.2481 -0.7989
  151SAPE   HN216609   6.707   2.470   0.349 -1.8115 -0.5496 -1.7057
  151SAPE   HN316610   6.705   2.457   0.190  1.5294  2.1094 -0.1736
  151SAPE   C1216611   6.901   2.439   0.266 -0.5639 -0.0086  0.1365
  151SAPE  H12A16612   6.942   2.429   0.163  1.5078  1.5487  0.7382
  151SAPE  H12B16613   6.947   2.366   0.335 -2.0609 -3.2305 -2.0139
  151SAPE   C1116614   6.930   2.578   0.315 -0.5685 -0.0764  0.5359
  151SAPE  H11A16615   7.039   2.601   0.325 -0.3717 -1.1781  1.1345
  151SAPE  H11B16616   6.901   2.590   0.422 -0.4716  1.7889  0.3829
  151SAPE     P16617   6.822   2.813   0.275 -0.6959 -0.1401  0.3138
  151SAPE   O1316618   6.766   2.798   0.410 -0.1435  0.9049 -0.1906
  151SAPE   O1416619   6.935   2.906   0.262 -0.1169  0.3072  0.7701
  151SAPE   O1216620   6.865   2.670   0.227 -0.4745 -0.3687 -0.2776
  151SAPE   O1116621   6.711   2.845   0.169  0.5158  0.7315 -0.3041
  151SAPE    C116622   6.604   2.749   0.156  0.4697 -0.0711  0.3011
  151SAPE    HA16623   6.639   2.644   0.142  0.7761  0.2102 -1.1455
  151SAPE    HB16624   6.543   2.753   0.249  1.0921  0.1087  0.6995
  151SAPE    C216625   6.515   2.780   0.028  0.0862 -0.3485  0.6032
  151SAPE    HS16626   6.480   2.681  -0.007  2.0117 -1.3386  1.3157
  151SAPE   O2116627   6.593   2.847  -0.071 -0.2284 -0.4971 -0.6525
  151SAPE   C2116628   6.703   2.775  -0.119  0.1767 -0.3291  0.3425
  151SAPE   O2216629   6.733   2.662  -0.099 -0.2401 -0.0843 -0.0726
  151SAPE   C2216630   6.782   2.879  -0.208 -0.1766  0.2546  0.5567
  151SAPE   H2R16631   6.755   2.983  -0.180 -0.3000  0.1550  0.8215
  151SAPE   H2S16632   6.889   2.864  -0.184  0.2837  2.4276  0.0374
  151SAPE    C316633   6.394   2.875   0.063  0.1112  0.0064  0.5600
  151SAPE    HX16634   6.434   2.978   0.076  1.3257 -0.3133 -0.4291
  151SAPE    HY16635   6.341   2.841   0.154 -2.3424 -1.8669 -1.4306
  151SAPE   O3116636   6.303   2.865  -0.046 -0.4694  0.2334  0.4580
  151SAPE   C3116637   6.284   2.975  -0.132  0.2723  0.5286  0.9808
  151SAPE   O3216638   6.338   3.079  -0.121  0.5543 -0.5917  0.5198
  151SAPE   C3216639   6.171   2.941  -0.227  0.3205  0.4575  0.7507
  151SAPE   H2X16640   6.086   3.006  -0.199 -0.8730  0.0548 -1.6539
  151SAPE   H2Y16641   6.144   2.835  -0.206 -0.2799  0.5321  0.3857
  151SAPE   C2316642   6.775   2.843  -0.357 -0.2021  0.3787  0.5252
  151SAPE   H3R16643   6.819   2.744  -0.384 -1.0086  0.7976 -2.7426
  151SAPE   H3S16644   6.849   2.902  -0.415  1.3373 -1.1073  0.8739
  151SAPE   C2416645   6.638   2.838  -0.412 -0.7520  0.3481  0.4910
  151SAPE   H4R16646   6.578   2.759  -0.363 -1.7132 -1.0053 -2.6429
  151SAPE   H4S16647   6.653   2.816  -0.520  1.8742  2.6134  0.2783
  151SAPE   C2516648   6.572   2.968  -0.396  0.2819  0.4877  0.1554
  151SAPE   H5R16649   6.552   2.976  -0.288  1.6620  0.8818  0.4142
  151SAPE   C2616650   6.550   3.060  -0.496  0.5598  0.7511 -0.2211
  151SAPE   H6R16651   6.513   3.159  -0.468  1.0931  0.9499 -0.2046
  151SAPE   C2716652   6.576   3.046  -0.644  0.2052 -0.1333  0.2881
  151SAPE   H7R16653   6.532   2.952  -0.686 -1.1079 -0.6363  2.5986
  151SAPE   H7S16654   6.685   3.041  -0.661  0.2483  1.3996  0.0482
  151SAPE   C2816655   6.533   3.168  -0.716 -0.2258  0.1592 -0.4399
  151SAPE   H8R16656   6.519   3.266  -0.670  0.8568  1.1394 -2.0710
  151SAPE   C2916657   6.491   3.172  -0.845  0.2512  0.0036 -0.1826
  151SAPE   H9R16658   6.464   3.275  -0.874 -1.1372  0.4302  2.2959
  151SAPE  C21016659   6.488   3.062  -0.947  0.8088  0.6859 -0.4534
  151SAPE  H10R16660   6.405   3.074  -1.019  1.0107 -3.2259 -1.5757
  151SAPE  H10S16661   6.452   2.970  -0.898  0.0208  1.6497  0.8383
  151SAPE  C21116662   6.626   3.025  -0.997 -0.2795  0.1613  0.4906
  151SAPE  H11R16663   6.701   2.990  -0.924  1.1533  1.3354 -0.3665
  151SAPE  C21216664   6.646   3.009  -1.129 -0.9837 -0.1697 -0.0410
  151SAPE  H12R16665   6.735   2.955  -1.167 -1.7822  0.4185 -2.9659
  151SAPE  C21316666   6.559   3.055  -1.242 -0.6738  0.5406 -0.3239
  151SAPE  H13R16667   6.611   3.120  -1.315 -0.8949 -0.4451 -1.3991
  151SAPE  H13S16668   6.474   3.117  -1.205 -1.0544  0.8846 -1.7108
  151SAPE  C21416669   6.501   2.936  -1.317  0.2209  0.5822 -0.2958
  151SAPE  H14R16670   6.453   2.864  -1.249  0.5766  1.3563  0.7938
  151SAPE  C21516671   6.508   2.900  -1.443 -0.4421 -0.5299 -0.0417
  151SAPE  H15R16672   6.462   2.804  -1.469 -0.6862 -0.2032 -0.8636
  151SAPE  C21616673   6.587   2.962  -1.557 -0.1284 -0.1728 -0.8601
  151SAPE  H16R16674   6.681   2.904  -1.568 -1.4063 -2.1908 -1.9323
  151SAPE  H16S16675   6.605   3.069  -1.537 -1.4065 -0.1155  0.1451
  151SAPE  C21716676   6.520   2.966  -1.695 -0.4391 -0.6148  0.3781
  151SAPE  H17R16677   6.593   3.015  -1.763 -0.1580 -0.0806  1.0582
  151SAPE  H17S16678   6.425   3.022  -1.681 -0.9554 -1.1636 -0.7771
  151SAPE  C21816679   6.502   2.827  -1.760  0.0844  0.5970 -0.3179
  151SAPE  H18R16680   6.451   2.762  -1.686  1.9772 -0.0189  0.4780
  151SAPE  H18S16681   6.595   2.779  -1.796 -0.6972 -1.4619  0.2827
  151SAPE  C21916682   6.406   2.823  -1.881  0.3808 -0.1901 -0.4595
  151SAPE  H19R16683   6.424   2.737  -1.949 -2.3659 -0.7403 -0.6109
  151SAPE  H19S16684   6.427   2.919  -1.932  0.5879 -0.3587 -0.6925
  151SAPE  C22016685   6.257   2.822  -1.830 -0.5113 -0.2834 -0.3492
  151SAPE  H20R16686   6.191   2.814  -1.919 -1.3079 -1.1432  0.2908
  151SAPE  H20S16687   6.226   2.918  -1.784 -1.5304  0.1870 -1.9468
  151SAPE  H20T16688   6.244   2.743  -1.753  1.9186  0.3649  0.8364
  151SAPE   C3316689   6.196   2.963  -0.376  0.5891 -0.4038 -0.4419
  151SAPE   H3X16690   6.119   2.906  -0.432 -1.6786  1.1792  0.9268
  151SAPE   H3Y16691   6.299   2.931  -0.402  0.2716 -0.1265 -2.2116
  151SAPE   C3416692   6.183   3.116  -0.409  0.0695 -0.7254 -0.2397
  151SAPE   H4X16693   6.277   3.166  -0.381  0.1655  2.1189 -4.6123
  151SAPE   H4Y16694   6.101   3.169  -0.356 -0.9636 -1.8075 -0.6951
  151SAPE   C3516695   6.168   3.142  -0.555  0.3780 -0.7052  0.2714
  151SAPE   H5X16696   6.084   3.096  -0.612 -0.5435  0.7556  0.3643
  151SAPE   H5Y16697   6.264   3.105  -0.595 -0.6039 -0.2923 -2.6759
  151SAPE   C3616698   6.173   3.294  -0.581  0.8368  0.2568  0.1619
  151SAPE   H6X16699   6.271   3.330  -0.544  3.0032 -2.5386 -2.3710
  151SAPE   H6Y16700   6.094   3.338  -0.516  1.6049  2.9584 -0.6072
  151SAPE   C3716701   6.159   3.354  -0.720 -0.4466  0.6675  0.3641
  151SAPE   H7X16702   6.258   3.360  -0.771  0.6637 -1.1510  2.1395
  151SAPE   H7Y16703   6.119   3.456  -0.705 -0.5850  0.6455  0.1490
  151SAPE   C3816704   6.061   3.268  -0.804 -0.1006  0.5303 -0.2252
  151SAPE   H8X16705   5.964   3.260  -0.750  1.2021 -2.4839  1.9371
  151SAPE   H8Y16706   6.101   3.168  -0.833 -3.0300 -1.4271  1.8759
  151SAPE   C3916707   6.044   3.339  -0.944  0.1881 -0.2882 -0.0158
  151SAPE   H9X16708   6.023   3.445  -0.917 -0.0429 -1.0367  3.0768
  151SAPE   H9Y16709   5.949   3.303  -0.991 -0.5692 -0.9245  1.9181
  151SAPE  C31016710   6.161   3.314  -1.042  0.1145 -0.5177 -0.3885
  151SAPE  H10X16711   6.137   3.206  -1.057 -0.9085 -0.3452 -0.1025
  151SAPE  H10Y16712   6.260   3.335  -0.996 -1.4903  0.8308  2.7816
  151SAPE  C31116713   6.150   3.400  -1.162 -0.4447  0.3937  0.3045
  151SAPE  H11X16714   6.158   3.505  -1.126  2.0274 -0.1887  1.6939
  151SAPE  H11Y16715   6.056   3.382  -1.219 -0.5008  0.2674  0.4392
  151SAPE  C31216716   6.263   3.371  -1.256  0.7084  0.1830 -0.2556
  151SAPE  H12X16717   6.292   3.265  -1.267  2.6787  0.7208 -0.6054
  151SAPE  H12Y16718   6.351   3.412  -1.202 -1.2657  1.2201  2.4375
  151SAPE  C31316719   6.245   3.435  -1.397 -0.3979 -0.6809  0.0935
  151SAPE  H13X16720   6.229   3.544  -1.382  2.0778  0.0741 -2.1276
  151SAPE  H13Y16721   6.154   3.397  -1.448 -1.4516  1.7886 -0.0439
  151SAPE  C31416722   6.372   3.411  -1.489  0.3259  0.2513  0.6815
  151SAPE  H14X16723   6.372   3.300  -1.489 -1.7413  0.2109  1.7911
  151SAPE  H14Y16724   6.466   3.449  -1.444  0.0117  1.6225  0.2542
  151SAPE  C31516725   6.339   3.464  -1.629  0.7158  0.0321 -0.3918
  151SAPE  H15X16726   6.317   3.572  -1.636 -0.7989 -0.2743 -0.8795
  151SAPE  H15Y16727   6.243   3.415  -1.658  0.3875 -0.4959  1.4604
  151SAPE  C31616728   6.434   3.418  -1.749  0.5570 -0.1459  0.2387
  151SAPE  H16X16729   6.391   3.318  -1.771 -0.0622 -0.2861  1.9348
  151SAPE  H16Y16730   6.538   3.415  -1.711  0.7345  1.0016 -0.1084
  151SAPE  C31716731   6.436   3.517  -1.873  0.0712  0.0281  0.1581
  151SAPE  H17X16732   6.447   3.624  -1.848 -3.5275  0.6243 -0.2612
  151SAPE  H17Y16733   6.338   3.510  -1.924 -0.4584  5.1809 -0.0106
  151SAPE  C31816734   6.542   3.479  -1.971 -0.1420 -0.2424 -0.0032
  151SAPE  H18X16735   6.554   3.558  -2.048  1.3142 -0.9560 -0.5612
  151SAPE  H18Y16736   6.517   3.385  -2.025 -3.0760 -1.8105  3.6466
  151SAPE  H18Z16737   6.646   3.476  -1.930 -0.4992  2.5669  1.2821
  152SAPE     N16738   5.990   6.101   0.184  0.8442  0.2874  0.1804
  152SAPE   HN116739   6.006   6.137   0.280 -0.3515  1.0854  0.0934
  152SAPE   HN216740   5.900   6.136   0.145 -1.4305 -2.7046  2.2204
  152SAPE   HN316741   5.968   5.999   0.187 -2.9156  0.9302 -0.1613
  152SAPE   C1216742   6.107   6.109   0.083 -0.8328 -0.5464  0.1404
  152SAPE  H12A16743   6.114   6.216   0.054  0.0872 -1.3586 -3.1140
  152SAPE  H12B16744   6.084   6.050  -0.009  0.5103  1.0410 -1.2865
  152SAPE   C1116745   6.236   6.059   0.150  0.3650  0.5540  0.2353
  152SAPE  H11A16746   6.235   6.102   0.252 -0.2887 -1.7531  1.2719
  152SAPE  H11B16747   6.326   6.095   0.095  0.5168  0.4277  0.3976
  152SAPE     P16748   6.331   5.813   0.112  0.1326 -0.1929  0.3343
  152SAPE   O1316749   6.464   5.856   0.163 -0.0445 -0.4137 -0.5309
  152SAPE   O1416750   6.269   5.685   0.145 -0.2121 -0.2917 -0.0078
  152SAPE   O1216751   6.228   5.919   0.160  0.2629 -0.5276 -0.4254
  152SAPE   O1116752   6.322   5.841  -0.043  0.0765  1.0061 -0.8503
  152SAPE    C116753   6.222   5.824  -0.136  0.8811 -0.4355 -0.0056
  152SAPE    HA16754   6.174   5.724  -0.132 -1.7071  0.7224 -0.3101
  152SAPE    HB16755   6.134   5.889  -0.119  1.4801  0.0041  1.6025
  152SAPE    C216756   6.272   5.882  -0.277 -0.1857 -0.4053  0.2880
  152SAPE    HS16757   6.183   5.917  -0.333  2.2240  2.0114 -2.3994
  152SAPE   O2116758   6.342   5.787  -0.353 -0.0324 -0.8718 -0.1789
  152SAPE   C2116759   6.267   5.681  -0.400  0.3550  0.4590  0.5761
  152SAPE   O2216760   6.149   5.668  -0.373  0.2153  0.3781 -0.0341
  152SAPE   C2216761   6.345   5.568  -0.468  0.5567 -0.3226 -0.4008
  152SAPE   H2R16762   6.372   5.480  -0.406  0.6406  0.3138  0.4825
  152SAPE   H2S16763   6.280   5.539  -0.553 -0.8405  3.4446 -0.8331
  152SAPE    C316764   6.364   6.011  -0.257 -0.3017 -0.0723 -0.1253
  152SAPE    HX16765   6.461   5.976  -0.215 -0.9415 -0.6942  0.8511
  152SAPE    HY16766   6.316   6.075  -0.181 -2.3854  1.2064 -2.3614
  152SAPE   O3116767   6.381   6.087  -0.372  0.4443 -0.3238 -0.0417
  152SAPE   C3116768   6.490   6.166  -0.374  0.0216  0.9366  0.7368
  152SAPE   O3216769   6.571   6.168  -0.286  0.0283 -0.1719  0.6615
  152SAPE   C3216770   6.502   6.235  -0.510  0.4828  0.4796 -0.4767
  152SAPE   H2X16771   6.581   6.182  -0.567  1.4045 -0.3985  1.5337
  152SAPE   H2Y16772   6.530   6.341  -0.498 -1.0538  0.9096 -0.4269
  152SAPE   C2316773   6.489   5.608  -0.529  0.0525  0.0564  0.0322
  152SAPE   H3R16774   6.551   5.516  -0.525  0.0428  0.0136 -0.6795
  152SAPE   H3S16775   6.535   5.677  -0.456 -0.3779  0.1911  0.1805
  152SAPE   C2416776   6.488   5.662  -0.675 -0.3687  0.7183  0.0782
  152SAPE   H4R16777   6.441   5.581  -0.736  0.3207  1.5745 -1.6457
  152SAPE   H4S16778   6.580   5.690  -0.731 -1.8196  0.9112 -2.3555
  152SAPE   C2516779   6.404   5.784  -0.663 -0.1277 -0.3104  0.1753
  152SAPE   H5R16780   6.405   5.839  -0.568 -2.0928  1.0255 -0.5013
  152SAPE   C2616781   6.330   5.833  -0.763 -0.6939 -0.1471 -0.0952
  152SAPE   H6R16782   6.288   5.933  -0.746 -1.1857 -0.3153 -0.3118
  152SAPE   C2716783   6.329   5.778  -0.899  0.1379 -0.0978 -0.6165
  152SAPE   H7R16784   6.388   5.685  -0.914 -0.0463 -0.3734  0.3034
  152SAPE   H7S16785   6.389   5.844  -0.965 -1.5314  2.5421  0.3413
  152SAPE   C2816786   6.188   5.757  -0.956 -0.2148 -0.6217  0.0051
  152SAPE   H8R16787   6.111   5.716  -0.890 -2.7860 -1.0191 -3.0292
  152SAPE   C2916788   6.153   5.779  -1.084  0.4445 -0.2299  0.5323
  152SAPE   H9R16789   6.050   5.762  -1.117  1.1782 -1.8466 -1.1118
  152SAPE  C21016790   6.240   5.831  -1.196 -0.0990  0.1653  0.5140
  152SAPE  H10R16791   6.209   5.807  -1.300  0.9071  1.2925 -0.0687
  152SAPE  H10S16792   6.345   5.794  -1.187 -0.3790 -0.1692  2.8644
  152SAPE  C21116793   6.236   5.980  -1.190 -0.2544 -0.5219  0.1286
  152SAPE  H11R16794   6.236   6.017  -1.087 -1.3906  0.0237 -0.0436
  152SAPE  C21216795   6.242   6.074  -1.284  0.5690 -0.1163  0.5927
  152SAPE  H12R16796   6.233   6.177  -1.247 -0.8047 -0.6929  1.9588
  152SAPE  C21316797   6.247   6.046  -1.441 -0.4251 -0.6319 -1.5357
  152SAPE  H13R16798   6.315   5.961  -1.462  0.8599 -0.4405  1.4113
  152SAPE  H13S16799   6.276   6.141  -1.491 -0.4947  0.4457  0.3725
  152SAPE  C21416800   6.108   6.014  -1.491 -0.3748 -0.5475 -0.3326
  152SAPE  H14R16801   6.018   6.022  -1.428 -1.1123  0.4515 -1.4718
  152SAPE  C21516802   6.085   5.961  -1.609  0.4899 -0.2835  0.0293
  152SAPE  H15R16803   5.988   5.920  -1.640  0.1515  0.9400 -0.6077
  152SAPE  C21616804   6.192   5.940  -1.711  0.1342 -0.3259  0.3787
  152SAPE  H16R16805   6.214   5.831  -1.699 -2.8803 -0.7938  3.6580
  152SAPE  H16S16806   6.286   5.994  -1.689 -0.2743  1.9531 -2.7881
  152SAPE  C21716807   6.148   5.962  -1.858  0.2263  0.6922 -0.3493
  152SAPE  H17R16808   6.140   6.073  -1.870 -0.4695  0.9033  1.6843
  152SAPE  H17S16809   6.044   5.926  -1.871  0.0840  1.1615 -0.5563
  152SAPE  C21816810   6.237   5.905  -1.966 -0.1668  0.8517  0.6230
  152SAPE  H18R16811   6.341   5.942  -1.967  0.1166  0.1022 -1.1021
  152SAPE  H18S16812   6.205   5.944  -2.065  0.9429 -0.5080 -0.2948
  152SAPE  C21916813   6.243   5.752  -1.958 -0.1008  0.4070 -0.1629
  152SAPE  H19R16814   6.155   5.710  -1.905 -0.8942  0.7228 -1.1835
  152SAPE  H19S16815   6.332   5.715  -1.902 -1.6569  0.2081  2.3309
  152SAPE  C22016816   6.238   5.685  -2.095  0.3432  1.0867 -0.3422
  152SAPE  H20R16817   6.181   5.590  -2.103  2.0693  0.1313 -2.2448
  152SAPE  H20S16818   6.341   5.661  -2.130  0.3347  0.7654 -0.1528
  152SAPE  H20T16819   6.184   5.752  -2.165 -2.4461 -0.5404  0.0871
  152SAPE   C3316820   6.369   6.230  -0.599 -0.0374 -0.5383  0.0926
  152SAPE   H3X16821   6.285   6.279  -0.545 -1.1295 -1.9089 -0.2995
  152SAPE   H3Y16822   6.339   6.124  -0.615  0.6868 -0.6843 -0.3353
  152SAPE   C3416823   6.382   6.274  -0.743 -0.2908 -0.1268 -0.1229
  152SAPE   H4X16824   6.467   6.230  -0.801 -0.3758  0.5163 -0.7471
  152SAPE   H4Y16825   6.394   6.384  -0.750  0.0478 -0.2519 -2.5621
  152SAPE   C3516826   6.253   6.230  -0.818  0.1999  0.3341 -0.4842
  152SAPE   H5X16827   6.175   6.252  -0.742  0.7797 -1.0556  0.5516
  152SAPE   H5Y16828   6.279   6.123  -0.830  2.4694  0.8047 -0.2928
  152SAPE   C3616829   6.236   6.287  -0.959  0.1348 -0.0854  0.5299
  152SAPE   H6X16830   6.310   6.254  -1.035  0.3614  1.6811 -0.0652
  152SAPE   H6Y16831   6.250   6.397  -0.960 -1.1368  0.1306 -1.7959
  152SAPE   C3716832   6.097   6.266  -1.010 -0.8918  0.2011 -0.2721
  152SAPE   H7X16833   6.025   6.282  -0.927 -1.4264  3.1167 -1.1620
  152SAPE   H7Y16834   6.088   6.165  -1.054 -0.4226 -0.4196  1.0050
  152SAPE   C3816835   6.058   6.362  -1.127  0.1828 -0.1234 -0.0688
  152SAPE   H8X16836   6.136   6.354  -1.206 -0.9520 -0.0909 -1.2195
  152SAPE   H8Y16837   6.082   6.468  -1.103 -0.1641  0.2608 -1.3390
  152SAPE   C3916838   5.916   6.345  -1.188 -0.2598 -0.1030  0.1210
  152SAPE   H9X16839   5.852   6.415  -1.131 -0.3266 -0.2349  0.2098
  152SAPE   H9Y16840   5.888   6.238  -1.181  1.6386 -0.5960  1.1388
  152SAPE  C31016841   5.912   6.398  -1.335  0.1796 -0.0073  0.2255
  152SAPE  H10X16842   5.951   6.321  -1.405  0.0187 -0.7851  0.9755
  152SAPE  H10Y16843   5.975   6.487  -1.356  2.7060 -2.0668 -1.6652
  152SAPE  C31116844   5.773   6.430  -1.389 -0.1477 -0.6089 -0.3698
  152SAPE  H11X16845   5.775   6.477  -1.490 -2.1474 -1.8520 -1.0566
  152SAPE  H11Y16846   5.743   6.513  -1.321 -0.7610 -1.1762  0.0539
  152SAPE  C31216847   5.680   6.318  -1.414  0.5671  0.2396 -0.0094
  152SAPE  H12X16848   5.581   6.361  -1.441  0.5840 -0.3346 -1.0649
  152SAPE  H12Y16849   5.670   6.263  -1.318  1.4285 -2.1265 -1.1886
  152SAPE  C31316850   5.721   6.216  -1.522  0.7735  0.2675 -0.5670
  152SAPE  H13X16851   5.651   6.130  -1.516  0.7896  0.2468 -0.6760
  152SAPE  H13Y16852   5.827   6.187  -1.509  0.3937 -1.0095 -0.1290
  152SAPE  C31416853   5.718   6.275  -1.664 -0.5504 -0.5897  0.6350
  152SAPE  H14X16854   5.774   6.371  -1.660 -1.9346  0.2657  0.1887
  152SAPE  H14Y16855   5.620   6.296  -1.710 -0.5412 -0.2552  0.7651
  152SAPE  C31516856   5.801   6.185  -1.767  0.5174 -0.3313  0.1398
  152SAPE  H15X16857   5.751   6.089  -1.791 -1.2879  0.7301 -0.5047
  152SAPE  H15Y16858   5.897   6.154  -1.719  0.5449 -0.3935  0.0459
  152SAPE  C31616859   5.845   6.266  -1.894 -0.3158  0.4328 -0.6312
  152SAPE  H16X16860   5.940   6.223  -1.933  1.3029  2.4581  0.8466
  152SAPE  H16Y16861   5.857   6.372  -1.863 -1.4587  0.6487 -0.8696
  152SAPE  C31716862   5.734   6.241  -1.990  0.0119 -0.4615 -0.1730
  152SAPE  H17X16863   5.751   6.327  -2.058 -0.3509  0.4781  0.8851
  152SAPE  H17Y16864   5.634   6.266  -1.948 -0.6320 -0.5513 -1.5958
  152SAPE  C31816865   5.729   6.112  -2.069 -0.4471  0.1052  0.5275
  152SAPE  H18X16866   5.796   6.108  -2.157 -1.1882 -0.1956 -0.0333
  152SAPE  H18Y16867   5.631   6.109  -2.123  0.7752 -3.1285 -1.7994
  152SAPE  H18Z16868   5.743   6.027  -1.999  0.0262  0.1869  0.5298
  153SAPE     N16869   5.534   0.608   0.476 -0.1120 -0.7009 -0.1143
  153SAPE   HN116870   5.582   0.673   0.542 -1.4087 -1.5249  1.6849
  153SAPE   HN216871   5.431   0.599   0.486  0.0112 -1.2031  0.7894
  153SAPE   HN316872   5.580   0.518   0.498  3.4676  1.1699  0.8652
  153SAPE   C1216873   5.565   0.645   0.334 -0.1716 -1.0081  0.0586
  153SAPE  H12A16874   5.672   0.620   0.314 -0.3321 -1.3083 -0.4472
  153SAPE  H12B16875   5.534   0.751   0.323  1.2014 -0.5498  0.3752
  153SAPE   C1116876   5.475   0.569   0.236 -0.5911 -0.4018  0.1629
  153SAPE  H11A16877   5.485   0.604   0.132  1.2724 -2.6675 -0.5079
  153SAPE  H11B16878   5.371   0.573   0.276 -0.1198  2.3558  1.3550
  153SAPE     P16879   5.462   0.320   0.147 -0.1263 -0.1749 -0.3099
  153SAPE   O1316880   5.554   0.201   0.152 -0.7289  0.2883  0.2883
  153SAPE   O1416881   5.325   0.301   0.198 -0.3808  0.2517  0.3618
  153SAPE   O1216882   5.531   0.434   0.226  0.1176 -0.2445 -0.2715
  153SAPE   O1116883   5.463   0.389   0.001 -0.5265  0.4673 -0.0206
  153SAPE    C116884   5.592   0.412  -0.064  0.7130 -0.0793  0.4784
  153SAPE    HA16885   5.656   0.483  -0.007  2.2823 -1.6457  0.7577
  153SAPE    HB16886   5.649   0.317  -0.062  0.2084 -0.4138 -0.3584
  153SAPE    C216887   5.568   0.456  -0.209 -0.1080  0.0444  0.6009
  153SAPE    HS16888   5.504   0.387  -0.269  2.9861 -2.5765  0.0159
  153SAPE   O2116889   5.691   0.457  -0.286 -0.4765  0.6306 -0.3673
  153SAPE   C2116890   5.798   0.529  -0.248  0.0390 -0.0070 -0.1305
  153SAPE   O2216891   5.811   0.595  -0.146 -0.1774  0.0381 -0.5814
  153SAPE   C2216892   5.905   0.502  -0.353 -0.4295 -0.6274  0.1310
  153SAPE   H2R16893   5.958   0.407  -0.334  0.7150  0.3887  2.4659
  153SAPE   H2S16894   5.859   0.510  -0.454  1.0978  0.2360 -0.5318
  153SAPE    C316895   5.493   0.592  -0.204  0.3242 -0.1672  0.2827
  153SAPE    HX16896   5.562   0.665  -0.158 -0.2259  0.2615  0.4330
  153SAPE    HY16897   5.405   0.579  -0.137  1.2426 -0.4875  1.4501
  153SAPE   O3116898   5.446   0.633  -0.332  0.0827  0.0573  0.2620
  153SAPE   C3116899   5.334   0.705  -0.330 -0.3849  0.1922 -0.3458
  153SAPE   O3216900   5.290   0.772  -0.237 -0.1297 -0.5517  0.2744
  153SAPE   C3216901   5.274   0.704  -0.477 -0.3236 -0.2046  0.5031
  153SAPE   H2X16902   5.207   0.793  -0.472  1.1259  1.0141 -0.6837
  153SAPE   H2Y16903   5.210   0.615  -0.498  0.3512 -0.4639 -0.5049
  153SAPE   C2316904   6.019   0.611  -0.362 -0.2358 -0.5570 -0.6791
  153SAPE   H3R16905   6.091   0.597  -0.278  0.7363 -0.9499 -1.5656
  153SAPE   H3S16906   5.959   0.704  -0.347  0.8695 -0.1895  2.2364
  153SAPE   C2416907   6.093   0.604  -0.490 -0.1371 -0.2989  0.6538
  153SAPE   H4R16908   6.023   0.613  -0.576 -2.2294  3.2415  2.4813
  153SAPE   H4S16909   6.153   0.511  -0.485  0.5148  0.1570  2.2537
  153SAPE   C2516910   6.187   0.721  -0.494 -0.3429  0.0914  0.3675
  153SAPE   H5R16911   6.181   0.779  -0.400 -0.0834 -1.5865  1.4755
  153SAPE   C2616912   6.262   0.755  -0.602 -0.4148  0.2070  0.2861
  153SAPE   H6R16913   6.331   0.839  -0.589 -0.0679 -0.1472  0.7562
  153SAPE   C2716914   6.260   0.680  -0.737 -0.6783  0.3251  0.1451
  153SAPE   H7R16915   6.158   0.670  -0.779 -0.6252  0.6924 -0.0781
  153SAPE   H7S16916   6.293   0.574  -0.727 -1.0490  0.2211  0.2798
  153SAPE   C2816917   6.365   0.733  -0.829 -0.7808  0.0079  0.2447
  153SAPE   H8R16918   6.469   0.700  -0.816 -0.0903  1.2918 -1.5485
  153SAPE   C2916919   6.344   0.816  -0.927  0.1855 -0.0170 -0.3028
  153SAPE   H9R16920   6.433   0.831  -0.989 -1.1584 -1.4911 -2.7241
  153SAPE  C21016921   6.223   0.884  -0.975 -0.3718  0.0856  0.1930
  153SAPE  H10R16922   6.250   0.992  -0.975  1.7427 -0.3838  1.1474
  153SAPE  H10S16923   6.135   0.881  -0.909 -0.9259  2.6988 -0.3385
  153SAPE  C21116924   6.191   0.833  -1.108  0.1947 -0.2834  0.6344
  153SAPE  H11R16925   6.114   0.754  -1.111 -0.2581  0.1485  0.6832
  153SAPE  C21216926   6.237   0.870  -1.229  0.6109  0.1369 -0.1567
  153SAPE  H12R16927   6.196   0.824  -1.321 -0.1087  1.4843 -0.5261
  153SAPE  C21316928   6.346   0.967  -1.262 -0.5410 -0.0005  0.1820
  153SAPE  H13R16929   6.440   0.940  -1.209 -1.4571 -0.8534  1.4465
  153SAPE  H13S16930   6.324   1.065  -1.216 -0.4801  0.7858 -1.4088
  153SAPE  C21416931   6.369   0.977  -1.410 -0.3888 -0.4461 -0.8770
  153SAPE  H14R16932   6.289   1.036  -1.457 -0.1570  0.1188 -0.5744
  153SAPE  C21516933   6.484   0.928  -1.471  0.0778 -0.3122  0.2189
  153SAPE  H15R16934   6.490   0.935  -1.580 -2.2397 -3.6101 -0.2854
  153SAPE  C21616935   6.598   0.852  -1.405 -0.0633  0.1761 -0.8020
  153SAPE  H16R16936   6.643   0.913  -1.324  0.9427 -3.1035  1.3306
  153SAPE  H16S16937   6.682   0.837  -1.476  0.0862  0.6881 -0.7316
  153SAPE  C21716938   6.565   0.714  -1.335  0.8558  0.2709 -0.0191
  153SAPE  H17R16939   6.482   0.715  -1.261  1.5546  1.6719  0.7741
  153SAPE  H17S16940   6.656   0.678  -1.282  1.9993  3.3779  0.3004
  153SAPE  C21816941   6.531   0.609  -1.443 -0.0785 -0.1694 -0.1845
  153SAPE  H18R16942   6.623   0.604  -1.505 -0.3037 -4.0314 -0.4530
  153SAPE  H18S16943   6.440   0.639  -1.500  1.2265  1.6636 -1.4389
  153SAPE  C21916944   6.503   0.467  -1.388  0.3908 -0.1880 -0.6426
  153SAPE  H19R16945   6.425   0.486  -1.311 -1.0702 -0.9155 -1.8812
  153SAPE  H19S16946   6.594   0.436  -1.333 -1.2346 -1.3963  1.5435
  153SAPE  C22016947   6.461   0.362  -1.492  0.3371 -0.5785  0.1920
  153SAPE  H20R16948   6.369   0.399  -1.544  1.1010  1.6481  0.3048
  153SAPE  H20S16949   6.436   0.265  -1.443 -2.0652  0.4834  1.2365
  153SAPE  H20T16950   6.547   0.348  -1.561  2.1543  1.3771  1.9153
  153SAPE   C3316951   5.376   0.723  -0.589 -0.3574  0.4359  0.0690
  153SAPE   H3X16952   5.428   0.626  -0.571 -0.5365  0.3489  0.1254
  153SAPE   H3Y16953   5.436   0.815  -0.576  0.4373  0.0567 -0.7679
  153SAPE   C3416954   5.298   0.729  -0.721  0.2880 -0.2374  0.2973
  153SAPE   H4X16955   5.213   0.798  -0.704  0.6988  0.3602 -0.0041
  153SAPE   H4Y16956   5.255   0.631  -0.751 -1.1690  0.9415 -1.7769
  153SAPE   C3516957   5.384   0.782  -0.835  0.0227  1.7966 -0.2379
  153SAPE   H5X16958   5.457   0.704  -0.866 -2.4234 -0.7127 -0.0680
  153SAPE   H5Y16959   5.439   0.877  -0.816  0.8457  0.7062  3.6726
  153SAPE   C3616960   5.307   0.802  -0.965  0.1847  0.1658 -0.0498
  153SAPE   H6X16961   5.221   0.871  -0.945 -1.1068 -1.5211  0.4284
  153SAPE   H6Y16962   5.245   0.714  -0.991 -1.3558  1.1371  0.1197
  153SAPE   C3716963   5.391   0.847  -1.083 -0.3750  0.2915  0.2831
  153SAPE   H7X16964   5.477   0.779  -1.095 -0.8436 -0.2879  0.1598
  153SAPE   H7Y16965   5.440   0.943  -1.058 -1.6064  0.6559  1.4045
  153SAPE   C3816966   5.312   0.853  -1.210 -0.1304 -0.6667  0.1305
  153SAPE   H8X16967   5.216   0.910  -1.207 -0.2556 -0.8673  0.0051
  153SAPE   H8Y16968   5.280   0.750  -1.238  0.5874 -0.4606 -1.5555
  153SAPE   C3916969   5.389   0.898  -1.332 -0.3617 -0.1866 -0.5869
  153SAPE   H9X16970   5.494   0.860  -1.334 -0.3849 -0.2681 -0.2721
  153SAPE   H9Y16971   5.408   1.008  -1.333 -0.1707 -0.2138 -0.1858
  153SAPE  C31016972   5.310   0.853  -1.461  0.2793 -0.2860 -0.2077
  153SAPE  H10X16973   5.202   0.874  -1.445  0.9128  1.7511  1.9707
  153SAPE  H10Y16974   5.328   0.746  -1.484 -1.0696 -0.3612 -1.0301
  153SAPE  C31116975   5.356   0.926  -1.582 -0.0297 -0.3963  0.6878
  153SAPE  H11X16976   5.467   0.923  -1.594  0.1433  3.0954  0.3812
  153SAPE  H11Y16977   5.339   1.035  -1.568 -1.3376 -0.6352  1.0744
  153SAPE  C31216978   5.302   0.894  -1.725  0.0209 -0.6449 -0.1407
  153SAPE  H12X16979   5.191   0.894  -1.733 -0.1663  3.9871 -0.6172
  153SAPE  H12Y16980   5.337   0.793  -1.757 -1.0321 -1.0027 -0.1909
  153SAPE  C31316981   5.363   0.994  -1.839  0.9975  0.2745 -0.2481
  153SAPE  H13X16982   5.474   0.986  -1.838  1.0592 -0.1662  3.3003
  153SAPE  H13Y16983   5.350   1.104  -1.826  0.3321  0.4752 -2.3010
  153SAPE  C31416984   5.308   0.958  -1.973  1.0923  0.2116  0.0251
  153SAPE  H14X16985   5.326   1.036  -2.051 -0.8562 -0.2002 -0.8926
  153SAPE  H14Y16986   5.198   0.963  -1.961  1.2424 -2.1786  3.6190
  153SAPE  C31516987   5.348   0.819  -2.023 -0.2698 -0.2897  0.0834
  153SAPE  H15X16988   5.320   0.742  -1.948 -0.6266 -1.3211 -1.0750
  153SAPE  H15Y16989   5.457   0.812  -2.043 -0.6446 -0.9683 -1.9473
  153SAPE  C31616990   5.284   0.783  -2.161 -0.2560 -0.0847 -0.1721
  153SAPE  H16X16991   5.291   0.863  -2.238  2.3899  0.5439  0.6053
  153SAPE  H16Y16992   5.176   0.776  -2.136 -0.1851 -1.1126 -0.0946
  153SAPE  C31716993   5.337   0.645  -2.215 -0.5376  0.1893  0.2998
  153SAPE  H17X16994   5.329   0.569  -2.134  2.9171 -2.3432 -1.4920
  153SAPE  H17Y16995   5.445   0.653  -2.237 -0.9049  2.6867 -0.9276
  153SAPE  C31816996   5.263   0.601  -2.336 -0.8261  1.0097 -0.1457
  153SAPE  H18X16997   5.234   0.692  -2.394 -0.6416 -1.0107 -3.7253
  153SAPE  H18Y16998   5.172   0.547  -2.304 -0.4655  1.5504  1.9526
  153SAPE  H18Z16999   5.328   0.536  -2.398 -1.7643  0.0687 -0.1594
  154SAPE     N17000   0.019   4.046   0.605 -0.1195  0.4858  0.1062
  154SAPE   HN117001   0.056   4.089   0.692 -0.2951  0.1514  0.3464
  154SAPE   HN217002  -0.083   4.068   0.594  0.3165  2.4440 -0.3782
  154SAPE   HN317003   0.042   3.945   0.614  2.5142  0.9044 -1.0275
  154SAPE   C1217004   0.092   4.095   0.489  0.1569 -0.2413  0.7249
  154SAPE  H12A17005   0.053   4.039   0.402 -1.5541 -1.4582  2.2177
  154SAPE  H12B17006   0.202   4.078   0.497  0.6782  1.5012 -1.5175
  154SAPE   C1117007   0.061   4.242   0.455  0.0562 -0.4054 -0.3113
  154SAPE  H11A17008   0.084   4.246   0.346 -2.2720  0.8953 -0.8123
  154SAPE  H11B17009   0.127   4.310   0.512 -1.3579  1.4483 -0.8153
  154SAPE     P17010  -0.148   4.377   0.383  0.4507  0.1621  0.1551
  154SAPE   O1317011  -0.295   4.380   0.413 -0.3027  0.1049 -0.1375
  154SAPE   O1417012  -0.071   4.503   0.394  0.0062 -0.0587 -0.5240
  154SAPE   O1217013  -0.073   4.279   0.483  0.3649 -0.3538  0.1659
  154SAPE   O1117014  -0.126   4.322   0.239  0.1510  0.0073  0.4800
  154SAPE    C117015  -0.161   4.193   0.202  0.1098 -0.1353  0.1941
  154SAPE    HA17016  -0.070   4.132   0.186 -1.5790 -2.7028 -0.2167
  154SAPE    HB17017  -0.223   4.132   0.271  0.8328 -0.7662  0.2894
  154SAPE    C217018  -0.260   4.199   0.073 -0.0460 -0.1356  0.0216
  154SAPE    HS17019  -0.293   4.096   0.050  1.9314 -0.7922 -0.0457
  154SAPE   O2117020  -0.197   4.251  -0.041  0.7495 -0.5460  0.6288
  154SAPE   C2117021  -0.127   4.167  -0.110 -1.0672 -0.5351  0.4074
  154SAPE   O2217022  -0.112   4.044  -0.092 -0.5185 -0.4478  0.2164
  154SAPE   C2217023  -0.055   4.238  -0.236  0.3662  0.8978 -0.2864
  154SAPE   H2R17024  -0.027   4.345  -0.230  0.3623  0.9081 -0.4366
  154SAPE   H2S17025   0.042   4.183  -0.243  0.8578  1.9319 -2.3277
  154SAPE    C317026  -0.394   4.271   0.099  0.0149  0.3863 -0.1694
  154SAPE    HX17027  -0.375   4.378   0.125 -0.4956  0.0986  1.5454
  154SAPE    HY17028  -0.450   4.237   0.189 -1.5942  1.7722 -0.5914
  154SAPE   O3117029  -0.481   4.270  -0.020 -0.0560 -0.3487 -0.2793
  154SAPE   C3117030  -0.568   4.170  -0.036  0.4355  0.4381  0.4770
  154SAPE   O3217031  -0.573   4.068   0.028  0.5375 -0.0122 -0.0772
  154SAPE   C3217032  -0.668   4.220  -0.141  0.0162  0.0910 -0.3731
  154SAPE   H2X17033  -0.654   4.329  -0.158  2.0334 -0.2147 -0.9534
  154SAPE   H2Y17034  -0.770   4.201  -0.102  0.0267  1.8085  0.5965
  154SAPE   C2317035  -0.128   4.195  -0.364  0.0062 -0.5525 -0.1289
  154SAPE   H3R17036  -0.082   4.258  -0.443 -0.0587 -0.0614  0.2153
  154SAPE   H3S17037  -0.238   4.213  -0.374  0.2047  1.2265  0.4880
  154SAPE   C2417038  -0.093   4.047  -0.407 -0.0883  0.5182  0.3348
  154SAPE   H4R17039  -0.157   4.027  -0.496  0.2908  3.6225 -0.7581
  154SAPE   H4S17040  -0.135   3.976  -0.332 -1.1780 -0.1621 -0.8581
  154SAPE   C2517041   0.053   4.017  -0.438 -0.6173  1.0190 -0.3223
  154SAPE   H5R17042   0.121   4.016  -0.351  0.2188  0.1939 -0.9569
  154SAPE   C2617043   0.108   3.995  -0.557  0.6148 -0.2620  0.6901
  154SAPE   H6R17044   0.210   3.956  -0.574 -0.1880 -0.8932 -4.6790
  154SAPE   C2717045   0.045   4.009  -0.697  0.1153  0.1221 -0.1863
  154SAPE   H7R17046   0.105   4.071  -0.767 -0.8825  0.9973 -0.2829
  154SAPE   H7S17047  -0.056   4.054  -0.692  0.2512  0.3235  1.2124
  154SAPE   C2817048   0.043   3.870  -0.752  0.4130  0.1089 -0.5513
  154SAPE   H8R17049   0.015   3.794  -0.678  3.0835 -1.6038 -1.1680
  154SAPE   C2917050   0.060   3.822  -0.876 -0.6615  0.4089 -0.3160
  154SAPE   H9R17051   0.045   3.714  -0.887  0.5736  0.2752 -0.7913
  154SAPE  C21017052   0.086   3.901  -0.998 -0.0696  0.8896  0.3026
  154SAPE  H10R17053   0.191   3.935  -0.992  0.5285  0.1247 -3.3561
  154SAPE  H10S17054   0.011   3.983  -1.000 -0.5282  0.5305  1.5929
  154SAPE  C21117055   0.073   3.816  -1.122  0.3049 -0.3168 -0.2107
  154SAPE  H11R17056   0.044   3.711  -1.108 -1.0503  0.1396  0.6928
  154SAPE  C21217057   0.087   3.853  -1.248 -0.5321  0.0442 -0.1479
  154SAPE  H12R17058   0.078   3.771  -1.320  1.1598 -2.2022  1.9914
  154SAPE  C21317059   0.130   3.985  -1.289  0.6106  0.2647 -0.2933
  154SAPE  H13R17060   0.136   4.060  -1.208 -0.0118 -2.7256  2.7468
  154SAPE  H13S17061   0.053   4.018  -1.362  0.3108 -1.7960 -0.9662
  154SAPE  C21417062   0.269   3.985  -1.357 -0.0576 -0.3402 -0.2954
  154SAPE  H14R17063   0.347   3.996  -1.280 -2.8297 -1.3983  2.8995
  154SAPE  C21517064   0.300   3.989  -1.491  0.3627  0.1329  0.5078
  154SAPE  H15R17065   0.400   4.004  -1.533 -0.5676 -0.2455 -2.0674
  154SAPE  C21617066   0.202   3.987  -1.606 -0.3536  0.2294 -0.5251
  154SAPE  H16R17067   0.131   4.072  -1.595 -1.8743 -0.9841 -0.6960
  154SAPE  H16S17068   0.135   3.898  -1.603 -0.6264  0.4324 -0.5348
  154SAPE  C21717069   0.267   4.007  -1.743 -1.1404 -0.4653  0.1403
  154SAPE  H17R17070   0.179   4.016  -1.811 -1.2400  0.7949  0.4001
  154SAPE  H17S17071   0.322   3.916  -1.775  0.6264  0.0325  1.6149
  154SAPE  C21817072   0.347   4.136  -1.758  0.6359 -0.8227 -0.4357
  154SAPE  H18R17073   0.443   4.115  -1.708 -0.1053 -0.3423  1.2633
  154SAPE  H18S17074   0.294   4.207  -1.691  0.8526  0.2296 -1.3486
  154SAPE  C21917075   0.363   4.186  -1.899 -0.3139 -0.2074  0.2403
  154SAPE  H19R17076   0.425   4.112  -1.952 -0.2979 -0.6832  0.9125
  154SAPE  H19S17077   0.417   4.283  -1.892 -0.6974 -0.0723  1.8318
  154SAPE  C22017078   0.230   4.208  -1.970  0.5081 -0.1732  0.0009
  154SAPE  H20R17079   0.158   4.247  -1.894  1.1459  1.0205  0.0175
  154SAPE  H20S17080   0.195   4.110  -2.009  1.1092 -0.1182 -0.6916
  154SAPE  H20T17081   0.256   4.270  -2.058 -0.8688  1.3026  0.5656
  154SAPE   C3317082  -0.646   4.134  -0.268  0.5178 -0.4938 -0.6529
  154SAPE   H3X17083  -0.730   4.155  -0.338  1.7726  1.9802 -1.5200
  154SAPE   H3Y17084  -0.648   4.023  -0.266 -0.8388 -0.4950 -0.3862
  154SAPE   C3417085  -0.521   4.168  -0.346  0.3745 -0.0140  0.5869
  154SAPE   H4X17086  -0.425   4.161  -0.290  2.4324 -0.9014 -2.7347
  154SAPE   H4Y17087  -0.541   4.275  -0.368  0.5675  0.4865  2.6859
  154SAPE   C3517088  -0.500   4.087  -0.475 -0.7525 -0.1651  0.7480
  154SAPE   H5X17089  -0.602   4.055  -0.506 -0.1789 -0.3147 -1.1119
  154SAPE   H5Y17090  -0.443   3.994  -0.455  0.5242  0.7906  1.6735
  154SAPE   C3617091  -0.440   4.169  -0.589  0.2323  0.0942  0.2368
  154SAPE   H6X17092  -0.339   4.212  -0.573  2.3516 -4.0454 -0.6072
  154SAPE   H6Y17093  -0.510   4.255  -0.596 -1.5213 -1.3647 -1.6587
  154SAPE   C3717094  -0.426   4.096  -0.723  0.0594  0.2933 -0.0855
  154SAPE   H7X17095  -0.526   4.068  -0.762  0.7517 -0.6910 -1.1966
  154SAPE   H7Y17096  -0.370   4.001  -0.711 -1.3998 -0.4749  0.9513
  154SAPE   C3817097  -0.353   4.182  -0.825  0.2187  0.4677 -0.0175
  154SAPE   H8X17098  -0.261   4.218  -0.775 -0.0588 -0.8681  1.5325
  154SAPE   H8Y17099  -0.411   4.273  -0.851 -1.7449 -0.7986 -0.3094
  154SAPE   C3917100  -0.317   4.101  -0.949 -0.3563 -0.1808 -0.0975
  154SAPE   H9X17101  -0.419   4.073  -0.985 -0.7568  0.6187  0.3830
  154SAPE   H9Y17102  -0.256   4.010  -0.931  1.0660  0.5153 -1.2171
  154SAPE  C31017103  -0.252   4.181  -1.063 -0.2019  0.4044  0.1027
  154SAPE  H10X17104  -0.143   4.189  -1.041 -0.1691 -0.6171  0.3457
  154SAPE  H10Y17105  -0.283   4.287  -1.054 -0.2665  0.2619  1.9369
  154SAPE  C31117106  -0.255   4.099  -1.194  0.1307 -0.5530  0.3031
  154SAPE  H11X17107  -0.356   4.075  -1.232  0.7157 -0.1402 -1.6407
  154SAPE  H11Y17108  -0.201   4.003  -1.181 -1.4958 -1.7556 -1.4357
  154SAPE  C31217109  -0.184   4.177  -1.308  0.5239  0.4287 -0.5657
  154SAPE  H12X17110  -0.075   4.175  -1.289  0.3718  1.0165  0.4348
  154SAPE  H12Y17111  -0.230   4.278  -1.305 -0.5838 -0.0691 -0.2479
  154SAPE  C31317112  -0.210   4.114  -1.443  0.0830 -0.0534  0.7833
  154SAPE  H13X17113  -0.320   4.102  -1.449  0.3007 -1.8405 -0.6091
  154SAPE  H13Y17114  -0.173   4.009  -1.438 -1.3930 -0.5528  1.7781
  154SAPE  C31417115  -0.171   4.210  -1.565  0.7110 -0.8663 -0.9659
  154SAPE  H14X17116  -0.066   4.242  -1.549  0.1376 -0.1649  2.2720
  154SAPE  H14Y17117  -0.233   4.301  -1.552  0.3508 -1.3058  0.7042
  154SAPE  C31517118  -0.204   4.161  -1.709 -0.0073 -0.4506  0.2737
  154SAPE  H15X17119  -0.307   4.120  -1.706 -0.2487 -0.2149 -2.4928
  154SAPE  H15Y17120  -0.124   4.084  -1.720  1.3948  0.7399  1.5590
  154SAPE  C31617121  -0.192   4.284  -1.811  0.1776  0.1194 -0.3967
  154SAPE  H16X17122  -0.101   4.343  -1.786  0.1594  0.5276 -1.2517
  154SAPE  H16Y17123  -0.284   4.337  -1.779  0.2940  2.9420 -4.1181
  154SAPE  C31717124  -0.194   4.233  -1.958 -0.3030  0.6213 -0.3771
  154SAPE  H17X17125  -0.102   4.177  -1.987 -0.7490  0.4971 -1.5834
  154SAPE  H17Y17126  -0.191   4.322  -2.024  0.7459  1.5638  0.8753
  154SAPE  C31817127  -0.311   4.147  -2.001 -0.0903  0.0741  0.7388
  154SAPE  H18X17128  -0.338   4.073  -1.923  1.4044 -1.5921 -0.2138
  154SAPE  H18Y17129  -0.294   4.089  -2.095  3.1564 -0.3615  1.4520
  154SAPE  H18Z17130  -0.400   4.209  -2.022  0.3103 -0.3516 -3.0549
  155SAPE     N17131   0.821   3.591   0.008 -0.1369 -0.3915 -0.6341
  155SAPE   HN117132   0.850   3.683  -0.032  0.1250 -0.1289  0.1481
  155SAPE   HN217133   0.760   3.608   0.091  2.0505 -0.1886  1.0136
  155SAPE   HN317134   0.900   3.531   0.037  1.1762  1.3041 -0.5734
  155SAPE   C1217135   0.740   3.510  -0.092  0.0756 -0.5170  0.3124
  155SAPE  H12A17136   0.795   3.507  -0.189 -1.6111  1.6243 -0.8124
  155SAPE  H12B17137   0.649   3.564  -0.125  0.5279 -0.8564 -1.6297
  155SAPE   C1117138   0.721   3.366  -0.055  0.2166 -0.3225 -0.4950
  155SAPE  H11A17139   0.810   3.300  -0.057 -0.0919 -0.7492 -0.3687
  155SAPE  H11B17140   0.653   3.315  -0.128  0.4884 -0.1817 -0.8470
  155SAPE     P17141   0.611   3.224   0.154 -0.1683  0.4822  0.1042
  155SAPE   O1317142   0.727   3.142   0.199  0.2440  0.2148 -0.3399
  155SAPE   O1417143   0.515   3.263   0.256  0.4746 -0.4605 -0.5834
  155SAPE   O1217144   0.671   3.357   0.079  0.5869  0.6416  0.0527
  155SAPE   O1117145   0.554   3.132   0.037  0.0613  0.1230 -0.8988
  155SAPE    C117146   0.422   3.080   0.030 -0.5929 -0.5446  0.3743
  155SAPE    HA17147   0.435   2.973   0.056 -0.3401 -0.4396  0.6854
  155SAPE    HB17148   0.347   3.114   0.104  2.2137  0.6122  2.9062
  155SAPE    C217149   0.366   3.090  -0.121  0.4727 -1.2002 -0.6098
  155SAPE    HS17150   0.290   3.013  -0.149  0.1864 -0.9636 -0.4872
  155SAPE   O2117151   0.471   3.101  -0.220 -0.8190 -0.2117 -0.0879
  155SAPE   C2117152   0.541   2.990  -0.235  0.1432 -0.3646 -1.2988
  155SAPE   O2217153   0.502   2.878  -0.197  0.1781 -0.1150  0.3081
  155SAPE   C2217154   0.672   3.035  -0.287 -0.6561 -0.2868  0.2327
  155SAPE   H2R17155   0.650   3.113  -0.364  0.7618  1.6389  1.6801
  155SAPE   H2S17156   0.724   3.083  -0.201 -1.1619 -0.1221  0.4472
  155SAPE    C317157   0.275   3.218  -0.130  0.3497  0.1219 -1.2103
  155SAPE    HX17158   0.336   3.311  -0.129  1.6466 -0.6662  1.2534
  155SAPE    HY17159   0.227   3.230  -0.030  4.1238  0.1693  0.7688
  155SAPE   O3117160   0.177   3.205  -0.237 -0.0168 -0.3926 -0.6994
  155SAPE   C3117161   0.095   3.308  -0.258 -0.0477 -0.1879 -0.6754
  155SAPE   O3217162   0.096   3.403  -0.183  0.7304 -0.1612  0.4849
  155SAPE   C3217163   0.006   3.276  -0.373 -0.2914 -0.5746 -0.1082
  155SAPE   H2X17164  -0.094   3.305  -0.336 -0.4408  0.8196 -1.5197
  155SAPE   H2Y17165   0.012   3.169  -0.404 -1.3755  0.0709 -2.8743
  155SAPE   C2317166   0.755   2.917  -0.342  0.2068 -0.0878  0.3474
  155SAPE   H3R17167   0.772   2.837  -0.267 -0.4002  0.3942  1.0141
  155SAPE   H3S17168   0.861   2.941  -0.365  0.4331 -1.3467 -0.0015
  155SAPE   C2417169   0.690   2.853  -0.471 -0.4693 -0.2572  0.1598
  155SAPE   H4R17170   0.669   2.937  -0.541  1.7947  0.1615 -0.1044
  155SAPE   H4S17171   0.587   2.827  -0.440 -0.8865  1.5799  0.3942
  155SAPE   C2517172   0.756   2.733  -0.529 -0.0315 -0.3744 -0.1707
  155SAPE   H5R17173   0.778   2.646  -0.465  0.3614  0.1551  0.4274
  155SAPE   C2617174   0.795   2.714  -0.663  0.0072 -0.4736 -0.0074
  155SAPE   H6R17175   0.848   2.620  -0.683  1.6163  0.1077  1.3602
  155SAPE   C2717176   0.761   2.810  -0.782  0.3080 -0.1079  0.0201
  155SAPE   H7R17177   0.836   2.890  -0.802 -1.0215  1.0544 -0.5384
  155SAPE   H7S17178   0.663   2.851  -0.749 -0.2646 -1.4865  0.1009
  155SAPE   C2817179   0.727   2.739  -0.912 -0.0862  0.6391  0.0688
  155SAPE   H8R17180   0.807   2.695  -0.973 -0.3765 -0.0081  0.1446
  155SAPE   C2917181   0.603   2.708  -0.952  0.6538 -0.2745 -0.0595
  155SAPE   H9R17182   0.594   2.650  -1.045  0.9494 -0.1114 -0.1942
  155SAPE  C21017183   0.466   2.732  -0.894 -0.8365 -0.4128 -0.5572
  155SAPE  H10R17184   0.421   2.825  -0.933  0.4117  0.2570 -0.4286
  155SAPE  H10S17185   0.477   2.756  -0.786  1.3435  4.1538 -1.5879
  155SAPE  C21117186   0.367   2.620  -0.918 -0.1200 -0.0350  0.5193
  155SAPE  H11R17187   0.409   2.519  -0.906 -0.6634 -0.1232  1.8064
  155SAPE  C21217188   0.239   2.629  -0.947  0.5458  0.4659 -0.0279
  155SAPE  H12R17189   0.178   2.537  -0.952  1.5083 -0.1369 -1.0085
  155SAPE  C21317190   0.165   2.760  -0.962 -0.0254 -0.0676  0.8680
  155SAPE  H13R17191   0.202   2.805  -1.056 -0.2120 -2.9073 -0.6819
  155SAPE  H13S17192   0.197   2.830  -0.882  1.6979 -1.7247  1.7007
  155SAPE  C21417193   0.009   2.750  -0.976  0.2600 -0.4506  0.1319
  155SAPE  H14R17194  -0.053   2.795  -0.896 -0.0998  0.1111 -0.4546
  155SAPE  C21517195  -0.055   2.713  -1.089 -0.2908  0.0057 -0.3164
  155SAPE  H15R17196  -0.165   2.708  -1.087 -0.3236 -1.3663 -2.8054
  155SAPE  C21617197   0.005   2.660  -1.219  0.2361  0.0114 -0.1018
  155SAPE  H16R17198  -0.042   2.564  -1.247 -2.0334  0.8070  0.7959
  155SAPE  H16S17199   0.114   2.639  -1.207  0.1808 -0.8014 -0.9859
  155SAPE  C21717200  -0.015   2.760  -1.332  0.9727 -0.2472 -0.4746
  155SAPE  H17R17201   0.022   2.859  -1.296  0.6638 -0.5171  0.6319
  155SAPE  H17S17202  -0.117   2.771  -1.373 -0.1267 -1.6678  1.6709
  155SAPE  C21817203   0.065   2.718  -1.453  0.2285  0.3539  0.8859
  155SAPE  H18R17204   0.169   2.693  -1.422  0.2366 -2.6758 -1.1266
  155SAPE  H18S17205   0.068   2.803  -1.524 -2.9380 -0.2717 -0.1598
  155SAPE  C21917206  -0.010   2.603  -1.531 -0.1104  0.0314  0.1199
  155SAPE  H19R17207  -0.048   2.524  -1.463 -2.0804  1.4939  0.8078
  155SAPE  H19S17208   0.072   2.563  -1.595  1.1837  1.8099  0.5663
  155SAPE  C22017209  -0.120   2.633  -1.623  0.1794  0.2377 -0.5035
  155SAPE  H20R17210  -0.198   2.674  -1.555  0.2251 -0.4705 -0.0165
  155SAPE  H20S17211  -0.167   2.543  -1.668  1.1468 -0.1416 -0.7830
  155SAPE  H20T17212  -0.086   2.709  -1.698  0.9992  0.2986 -0.0833
  155SAPE   C3317213   0.029   3.366  -0.506  0.3128 -0.2009  0.0088
  155SAPE   H3X17214   0.130   3.337  -0.542  0.6617  0.3938  0.4986
  155SAPE   H3Y17215   0.039   3.473  -0.475 -0.4715  0.1551 -0.8987
  155SAPE   C3417216  -0.086   3.347  -0.605  0.5071 -0.4246  0.0251
  155SAPE   H4X17217  -0.182   3.393  -0.571 -1.6544 -3.0977 -2.0167
  155SAPE   H4Y17218  -0.117   3.241  -0.617 -0.9750 -0.1934  1.4620
  155SAPE   C3517219  -0.036   3.399  -0.744  0.1190 -0.5627 -0.3922
  155SAPE   H5X17220   0.054   3.343  -0.777  1.7586  1.2385  0.7888
  155SAPE   H5Y17221  -0.011   3.507  -0.738  0.1538 -0.6342  0.9871
  155SAPE   C3617222  -0.145   3.399  -0.854 -0.2185  0.4892  0.4645
  155SAPE   H6X17223  -0.240   3.448  -0.825  0.1614  1.9477 -0.6295
  155SAPE   H6Y17224  -0.160   3.289  -0.868 -0.0897  0.3568  1.3019
  155SAPE   C3717225  -0.116   3.451  -0.996  0.2259 -0.7288  0.0143
  155SAPE   H7X17226  -0.016   3.438  -1.043  0.7346  2.2943  0.1038
  155SAPE   H7Y17227  -0.123   3.561  -0.986 -0.6335 -0.5724 -1.9766
  155SAPE   C3817228  -0.222   3.401  -1.090  0.4068  0.5659  0.0863
  155SAPE   H8X17229  -0.320   3.404  -1.038  0.7176 -1.3287  0.8415
  155SAPE   H8Y17230  -0.218   3.298  -1.131  0.0612  0.9537 -0.9498
  155SAPE   C3917231  -0.222   3.496  -1.214 -0.4150 -0.2057 -0.1852
  155SAPE   H9X17232  -0.224   3.597  -1.167 -0.5125  0.2355 -1.1086
  155SAPE   H9Y17233  -0.314   3.473  -1.272 -0.1501 -1.6221 -0.0723
  155SAPE  C31017234  -0.102   3.492  -1.303  0.5060  0.2034  1.3885
  155SAPE  H10X17235  -0.082   3.397  -1.358  1.5259  0.9031  0.5145
  155SAPE  H10Y17236  -0.009   3.517  -1.248 -0.2069  2.1658  1.7452
  155SAPE  C31117237  -0.125   3.580  -1.428 -0.5812  0.0602 -0.6910
  155SAPE  H11X17238  -0.137   3.680  -1.380 -0.8720 -1.4885  2.7534
  155SAPE  H11Y17239  -0.220   3.550  -1.478 -1.0958  2.1157 -1.0397
  155SAPE  C31217240  -0.019   3.567  -1.528 -0.0961  0.1801  0.5995
  155SAPE  H12X17241  -0.015   3.464  -1.569 -2.2419  0.7460 -1.1781
  155SAPE  H12Y17242   0.084   3.590  -1.491 -0.3575  2.4908  0.0670
  155SAPE  C31317243  -0.037   3.664  -1.654  0.2321  0.0687 -0.3750
  155SAPE  H13X17244  -0.053   3.767  -1.616  0.7544 -0.0339  0.1465
  155SAPE  H13Y17245  -0.129   3.618  -1.695 -1.0991 -0.2842  2.6806
  155SAPE  C31417246   0.075   3.668  -1.755 -0.1023 -0.2472  0.4134
  155SAPE  H14X17247   0.130   3.572  -1.757  1.8777  0.8450 -0.0324
  155SAPE  H14Y17248   0.161   3.734  -1.731 -0.0143 -0.3694  0.4341
  155SAPE  C31517249   0.012   3.707  -1.889 -0.6908 -0.3234  0.0662
  155SAPE  H15X17250  -0.053   3.797  -1.886  0.5311  0.5651  2.2648
  155SAPE  H15Y17251  -0.051   3.620  -1.917  1.4731 -1.1396 -2.6789
  155SAPE  C31617252   0.113   3.726  -2.005 -0.4467 -0.5751  0.5272
  155SAPE  H16X17253   0.184   3.806  -1.974 -1.1347  0.0250  0.5708
  155SAPE  H16Y17254   0.054   3.767  -2.089  0.4439  1.6386  0.9288
  155SAPE  C31717255   0.195   3.603  -2.052  0.6752  0.1215 -0.2771
  155SAPE  H17X17256   0.164   3.514  -1.993  0.5335 -0.3040 -0.9897
  155SAPE  H17Y17257   0.297   3.630  -2.018 -0.3094 -0.0128  3.1635
  155SAPE  C31817258   0.168   3.576  -2.196  0.1726  0.6737 -0.2932
  155SAPE  H18X17259   0.192   3.662  -2.262 -0.4162  2.4933  1.7356
  155SAPE  H18Y17260   0.061   3.555  -2.221  0.4129  1.2523 -1.8978
  155SAPE  H18Z17261   0.227   3.484  -2.215  1.5694  1.0617  1.8079
  156SAPE     N17262   0.490   0.052   8.296 -0.0248  0.6578  0.4100
  156SAPE   HN117263   0.415   0.007   8.238 -2.1206  2.1539  1.8077
  156SAPE   HN217264   0.436   0.106   8.367 -0.3226  0.2315  0.5130
  156SAPE   HN317265   0.535   0.118   8.231 -1.0552  2.5045  1.4964
  156SAPE   C1217266   0.585  -0.057   8.350  0.6513 -0.0239  0.3428
  156SAPE  H12A17267   0.524  -0.114   8.423 -0.2390  0.9142  0.3558
  156SAPE  H12B17268   0.676  -0.015   8.398  0.8878  1.1093 -1.0417
  156SAPE   C1117269   0.650  -0.142   8.232 -0.0062  0.0098 -0.1247
  156SAPE  H11A17270   0.563  -0.179   8.173  1.4782 -0.9893 -1.7690
  156SAPE  H11B17271   0.710  -0.226   8.272 -0.3564 -0.8697 -1.3939
  156SAPE     P17272   0.883  -0.068   8.141  0.1207  0.0060  0.0166
  156SAPE   O1317273   0.930  -0.028   8.003  0.1859  0.5062 -0.1805
  156SAPE   O1417274   0.938   0.001   8.258 -0.0934 -0.0376  0.1870
  156SAPE   O1217275   0.724  -0.055   8.141  0.1650  1.0445  0.0061
  156SAPE   O1117276   0.898  -0.225   8.167  0.1874 -0.5117  0.3064
  156SAPE    C117277   0.982  -0.295   8.070 -0.2814 -0.0496 -0.0935
  156SAPE    HA17278   1.073  -0.245   8.031  0.4387 -1.2827 -0.0406
  156SAPE    HB17279   1.020  -0.382   8.127 -2.4859 -0.6702  0.5311
  156SAPE    C217280   0.898  -0.356   7.953 -0.4577  0.1025 -0.9717
  156SAPE    HS17281   0.959  -0.434   7.904 -0.7999 -1.8943  1.5427
  156SAPE   O2117282   0.855  -0.257   7.856 -0.6928 -0.0089 -0.0970
  156SAPE   C2117283   0.957  -0.217   7.787  0.8572 -0.3349  0.6009
  156SAPE   O2217284   1.073  -0.254   7.785  0.1050  0.4457 -0.0605
  156SAPE   C2217285   0.893  -0.124   7.678 -0.3883 -0.0929  0.1842
  156SAPE   H2R17286   0.803  -0.071   7.718 -2.3804 -1.8557 -1.7277
  156SAPE   H2S17287   0.975  -0.058   7.643 -0.6381 -0.8684 -1.9785
  156SAPE    C317288   0.770  -0.419   8.004 -0.6425 -0.5554  0.5892
  156SAPE    HX17289   0.707  -0.336   8.041  1.4288  1.6798 -0.6004
  156SAPE    HY17290   0.796  -0.490   8.085  0.2633  1.8703  2.5577
  156SAPE   O3117291   0.696  -0.471   7.893  0.4789 -0.6573  0.7967
  156SAPE   C3117292   0.583  -0.533   7.929  0.1008  0.0951 -0.2472
  156SAPE   O3217293   0.548  -0.547   8.043  0.1442  1.1458 -0.5188
  156SAPE   C3217294   0.529  -0.589   7.803  0.4968 -0.6559  0.3018
  156SAPE   H2X17295   0.608  -0.630   7.738  0.6607  2.7213 -1.8751
  156SAPE   H2Y17296   0.486  -0.503   7.748  0.1338 -1.0498 -0.0340
  156SAPE   C2317297   0.851  -0.200   7.549 -0.7931 -0.1427 -0.0110
  156SAPE   H3R17298   0.796  -0.119   7.496  1.9697  1.4621 -0.6132
  156SAPE   H3S17299   0.773  -0.273   7.578 -1.4405  0.2294 -0.7567
  156SAPE   C2417300   0.961  -0.247   7.450 -0.3501  0.3410 -0.7690
  156SAPE   H4R17301   1.030  -0.315   7.504 -0.3615  0.7258 -0.2552
  156SAPE   H4S17302   1.029  -0.162   7.428  0.0745 -0.2884 -1.9573
  156SAPE   C2517303   0.912  -0.331   7.333  0.1932 -0.1115 -0.2495
  156SAPE   H5R17304   0.893  -0.437   7.357  1.2065 -0.6649 -1.7512
  156SAPE   C2617305   0.905  -0.296   7.204 -0.7924  0.4789  0.9777
  156SAPE   H6R17306   0.857  -0.375   7.143  0.0239  1.1509 -0.5811
  156SAPE   C2717307   0.921  -0.158   7.146 -0.4663  0.0266  0.0815
  156SAPE   H7R17308   1.007  -0.148   7.076 -1.2103  1.9289 -0.6230
  156SAPE   H7S17309   0.952  -0.089   7.227  3.0668 -0.1708 -0.9360
  156SAPE   C2817310   0.796  -0.114   7.079  0.2250  0.0788  0.7199
  156SAPE   H8R17311   0.711  -0.098   7.146 -0.0366 -2.1915  0.9940
  156SAPE   C2917312   0.772  -0.094   6.946 -0.0419 -0.2649  0.0846
  156SAPE   H9R17313   0.672  -0.064   6.910  0.5808  0.3433 -1.2025
  156SAPE  C21017314   0.862  -0.135   6.834  0.2650  0.0898  0.4307
  156SAPE  H10R17315   0.815  -0.226   6.791 -2.0562  1.6466 -0.5305
  156SAPE  H10S17316   0.965  -0.165   6.862  0.1673 -1.9670 -1.1968
  156SAPE  C21117317   0.876  -0.022   6.725 -0.1080 -1.1550 -0.3396
  156SAPE  H11R17318   0.816   0.070   6.739  1.7615  0.2282 -0.9941
  156SAPE  C21217319   0.964  -0.022   6.616  0.3561  0.1570 -0.3139
  156SAPE  H12R17320   0.960   0.070   6.556 -0.1964  1.1400  1.1878
  156SAPE  C21317321   1.055  -0.128   6.576  0.5597  0.0738  0.1639
  156SAPE  H13R17322   1.022  -0.226   6.614  3.6572 -1.0518  0.2559
  156SAPE  H13S17323   1.163  -0.120   6.602  0.5470 -0.3245  0.3441
  156SAPE  C21417324   1.038  -0.139   6.423  0.0654  0.3347 -0.1874
  156SAPE  H14R17325   0.940  -0.177   6.392 -0.1055  1.1447 -0.6636
  156SAPE  C21517326   1.125  -0.102   6.324 -0.0025  0.6318  0.3496
  156SAPE  H15R17327   1.084  -0.120   6.224  0.9799 -0.7290  0.1533
  156SAPE  C21617328   1.262  -0.041   6.339 -0.0849  0.4179 -0.3985
  156SAPE  H16R17329   1.275   0.002   6.440  1.7831 -0.2588 -0.3143
  156SAPE  H16S17330   1.291   0.033   6.261 -2.3580  1.4153 -0.3750
  156SAPE  C21717331   1.366  -0.150   6.324 -0.3327 -0.1277 -0.0402
  156SAPE  H17R17332   1.340  -0.238   6.387  0.7923 -0.4954 -0.0763
  156SAPE  H17S17333   1.466  -0.127   6.367 -0.0460  3.1123 -2.0810
  156SAPE  C21817334   1.381  -0.214   6.183 -0.1309  0.5168  0.0035
  156SAPE  H18R17335   1.402  -0.132   6.111  1.7712 -2.5120 -3.1954
  156SAPE  H18S17336   1.286  -0.266   6.157  0.1890 -0.8482  1.3550
  156SAPE  C21917337   1.501  -0.314   6.174 -0.3241  0.0462  0.8624
  156SAPE  H19R17338   1.485  -0.401   6.242  1.0807 -1.0490 -0.1366
  156SAPE  H19S17339   1.595  -0.267   6.209 -1.5269  0.6346  3.5987
  156SAPE  C22017340   1.517  -0.377   6.034 -0.2412  0.4324 -0.6229
  156SAPE  H20R17341   1.615  -0.428   6.039  0.1519  1.1910  4.1896
  156SAPE  H20S17342   1.525  -0.300   5.953  1.2344 -0.0698 -0.9828
  156SAPE  H20T17343   1.431  -0.443   6.011 -0.4272  0.1985  0.6762
  156SAPE   C3317344   0.420  -0.695   7.828  0.0585 -0.8245  0.2044
  156SAPE   H3X17345   0.338  -0.639   7.878 -0.4891 -3.2094  2.1917
  156SAPE   H3Y17346   0.453  -0.777   7.894  1.9051  0.7051  1.2549
  156SAPE   C3417347   0.369  -0.755   7.699 -0.3824 -1.1665 -0.3122
  156SAPE   H4X17348   0.278  -0.813   7.727 -2.0428  1.5149  0.2433
  156SAPE   H4Y17349   0.445  -0.820   7.651  0.4411 -0.8435  0.5056
  156SAPE   C3517350   0.326  -0.643   7.587  0.2753  0.4958 -0.5051
  156SAPE   H5X17351   0.414  -0.585   7.552  0.8332 -0.2242 -0.2989
  156SAPE   H5Y17352   0.254  -0.566   7.622 -1.5528  0.0471 -2.9860
  156SAPE   C3617353   0.269  -0.709   7.467  0.2100  0.2311  0.0792
  156SAPE   H6X17354   0.167  -0.745   7.491 -0.1190  2.3405  2.2075
  156SAPE   H6Y17355   0.333  -0.789   7.423 -2.8749 -0.9643 -2.6678
  156SAPE   C3717356   0.248  -0.605   7.355 -0.0948  0.1812  0.6576
  156SAPE   H7X17357   0.344  -0.562   7.320 -0.3266  0.1371 -0.0381
  156SAPE   H7Y17358   0.186  -0.517   7.382  2.3143  1.1983  3.4497
  156SAPE   C3817359   0.180  -0.662   7.226  0.4282 -0.3006  0.1071
  156SAPE   H8X17360   0.082  -0.702   7.257 -0.1884  0.6220 -0.5890
  156SAPE   H8Y17361   0.241  -0.753   7.207  0.8611 -0.5424  2.3708
  156SAPE   C3917362   0.169  -0.562   7.117 -1.0826 -0.1365 -0.0950
  156SAPE   H9X17363   0.270  -0.516   7.110 -0.2608 -1.6353  1.3217
  156SAPE   H9Y17364   0.086  -0.493   7.143 -1.3487 -1.0653  1.7221
  156SAPE  C31017365   0.150  -0.630   6.984  0.1281  0.1168 -0.4272
  156SAPE  H10X17366   0.042  -0.655   6.982 -0.2975  1.8883 -1.5850
  156SAPE  H10Y17367   0.210  -0.723   6.991 -0.3065 -0.0377  2.5406
  156SAPE  C31117368   0.164  -0.547   6.859 -0.3123 -0.4098  0.8294
  156SAPE  H11X17369   0.258  -0.489   6.871 -0.7683  0.3594  0.7564
  156SAPE  H11Y17370   0.073  -0.486   6.847  0.7082  0.9403 -0.5775
  156SAPE  C31217371   0.175  -0.649   6.743 -0.8967 -0.0886  0.0056
  156SAPE  H12X17372   0.072  -0.676   6.710  0.6127 -1.6864 -4.0165
  156SAPE  H12Y17373   0.222  -0.743   6.779 -1.9217 -0.9525 -0.8387
  156SAPE  C31317374   0.254  -0.604   6.623  0.0152 -0.2939 -0.1993
  156SAPE  H13X17375   0.282  -0.695   6.566  1.5061 -1.2066  1.8702
  156SAPE  H13Y17376   0.356  -0.562   6.638  0.6180  0.4549 -4.9114
  156SAPE  C31417377   0.186  -0.504   6.538  0.0487 -0.2481  0.9758
  156SAPE  H14X17378   0.185  -0.414   6.603 -0.7930 -1.8166  3.2422
  156SAPE  H14Y17379   0.078  -0.530   6.525 -0.0236  0.8739 -1.1519
  156SAPE  C31517380   0.243  -0.483   6.398  0.0202 -0.0648  0.7237
  156SAPE  H15X17381   0.242  -0.575   6.336 -1.9282  0.3908  0.0112
  156SAPE  H15Y17382   0.349  -0.453   6.412  0.0378  0.2830 -0.0906
  156SAPE  C31617383   0.171  -0.374   6.321  0.0646  0.5737 -0.3765
  156SAPE  H16X17384   0.200  -0.275   6.363 -1.5209  0.1057  2.0117
  156SAPE  H16Y17385   0.065  -0.398   6.341  0.9011 -2.2737  1.1865
  156SAPE  C31717386   0.189  -0.383   6.170  0.2074  0.1991 -0.5248
  156SAPE  H17X17387   0.135  -0.478   6.149  0.1138 -0.9013  3.7777
  156SAPE  H17Y17388   0.295  -0.405   6.146 -0.2687 -1.1654 -1.5051
  156SAPE  C31817389   0.132  -0.268   6.085 -0.0160 -0.3630 -0.5856
  156SAPE  H18X17390   0.182  -0.267   5.986  2.8488  1.5818  0.7465
  156SAPE  H18Y17391   0.179  -0.181   6.136 -0.9768  0.0451 -0.3660
  156SAPE  H18Z17392   0.021  -0.258   6.095  0.2138  0.9177  1.4062
  157SAPE     N17393   1.605   3.841   0.260 -0.6992  0.4124  0.2487
  157SAPE   HN117394   1.679   3.779   0.299  0.3912  1.8983  0.6547
  157SAPE   HN217395   1.655   3.928   0.231 -3.1350  1.0162 -2.6077
  157SAPE   HN317396   1.550   3.878   0.340  0.6325  1.7571  0.5913
  157SAPE   C1217397   1.528   3.779   0.149  0.0469 -1.2090 -0.4225
  157SAPE  H12A17398   1.574   3.814   0.054 -1.6464 -0.1972 -0.9060
  157SAPE  H12B17399   1.425   3.818   0.165  0.8721  1.1875 -0.4682
  157SAPE   C1117400   1.517   3.627   0.157  0.5301 -0.0294  0.0554
  157SAPE  H11A17401   1.450   3.599   0.073  2.2756  0.8091 -1.7028
  157SAPE  H11B17402   1.469   3.602   0.254  0.7876  1.8354  0.7191
  157SAPE     P17403   1.745   3.562   0.041  0.1304  0.0927 -0.0878
  157SAPE   O1317404   1.809   3.696   0.043  0.3608 -0.1659  0.2396
  157SAPE   O1417405   1.837   3.450   0.052  0.3617  0.1834 -0.3151
  157SAPE   O1217406   1.639   3.551   0.150 -0.1894  0.1419 -0.7726
  157SAPE   O1117407   1.653   3.533  -0.084 -0.3654 -0.0821  0.2565
  157SAPE    C117408   1.666   3.409  -0.155  0.0785  0.2490 -0.4586
  157SAPE    HA17409   1.762   3.392  -0.207  0.0317  2.2412 -1.2651
  157SAPE    HB17410   1.647   3.319  -0.092 -1.0636  1.9885  1.8433
  157SAPE    C217411   1.563   3.399  -0.280 -0.0251  0.2437  0.2536
  157SAPE    HS17412   1.565   3.299  -0.328 -2.1026  0.4597 -0.4117
  157SAPE   O2117413   1.602   3.497  -0.384 -0.2922  0.6045 -0.1362
  157SAPE   C2117414   1.709   3.461  -0.458  0.1465  0.3077 -0.0726
  157SAPE   O2217415   1.772   3.357  -0.447 -0.2241 -0.7272 -0.0148
  157SAPE   C2217416   1.732   3.556  -0.573 -0.1480 -0.6950 -0.2579
  157SAPE   H2R17417   1.633   3.596  -0.603 -1.8540 -0.5229  4.7015
  157SAPE   H2S17418   1.791   3.639  -0.529 -2.1338  0.1355  0.9650
  157SAPE    C317419   1.422   3.428  -0.223 -0.1644 -0.0166  0.2013
  157SAPE    HX17420   1.430   3.534  -0.191  0.4815 -0.2050  0.6946
  157SAPE    HY17421   1.404   3.362  -0.136 -3.2241  0.6094  0.1299
  157SAPE   O3117422   1.329   3.407  -0.326  0.4513 -0.1446 -0.1900
  157SAPE   C3117423   1.208   3.421  -0.284  0.7958 -1.0298 -0.3537
  157SAPE   O3217424   1.179   3.471  -0.175  0.4025 -0.0491  0.2163
  157SAPE   C3217425   1.108   3.373  -0.395 -0.6289  0.6187  0.2782
  157SAPE   H2X17426   1.120   3.262  -0.398 -0.9859  0.5484  1.1172
  157SAPE   H2Y17427   1.146   3.414  -0.490  0.1360  0.4321  0.4918
  157SAPE   C2317428   1.796   3.495  -0.704  0.3409 -0.3482  0.2973
  157SAPE   H3R17429   1.742   3.406  -0.743  0.2461 -0.6638  1.1404
  157SAPE   H3S17430   1.894   3.459  -0.667 -0.6921 -2.8960  0.7264
  157SAPE   C2417431   1.813   3.596  -0.818 -1.4621 -0.4887  0.0421
  157SAPE   H4R17432   1.867   3.543  -0.899  0.7172  0.1383  1.0121
  157SAPE   H4S17433   1.877   3.678  -0.781 -0.5419 -0.4864 -1.4626
  157SAPE   C2517434   1.684   3.658  -0.857 -0.0637 -0.3964  0.5143
  157SAPE   H5R17435   1.631   3.713  -0.778 -1.1887  0.8483 -1.0209
  157SAPE   C2617436   1.637   3.673  -0.979  0.4413 -0.4060 -1.3127
  157SAPE   H6R17437   1.533   3.707  -0.979 -0.2978 -2.5338 -1.9289
  157SAPE   C2717438   1.692   3.631  -1.112  0.3793  0.4264 -0.1207
  157SAPE   H7R17439   1.794   3.589  -1.107  0.4461  0.4947 -0.7418
  157SAPE   H7S17440   1.702   3.724  -1.172 -1.7038  1.5085  1.1010
  157SAPE   C2817441   1.585   3.547  -1.181 -0.2935  0.2492  0.3231
  157SAPE   H8R17442   1.544   3.470  -1.114  1.0913 -0.9490 -0.1377
  157SAPE   C2917443   1.531   3.560  -1.304 -0.1297 -0.1265 -0.0019
  157SAPE   H9R17444   1.451   3.489  -1.326 -0.1168 -0.2404  0.3110
  157SAPE  C21017445   1.542   3.669  -1.409  0.2266  0.4371 -0.4191
  157SAPE  H10R17446   1.608   3.749  -1.366  1.1160  0.6017 -2.0104
  157SAPE  H10S17447   1.453   3.734  -1.421  1.5452  2.5636  0.4679
  157SAPE  C21117448   1.602   3.619  -1.540  0.4628  0.0274 -0.8785
  157SAPE  H11R17449   1.689   3.554  -1.520 -1.6463 -2.6158  0.3325
  157SAPE  C21217450   1.549   3.627  -1.662  0.6280 -0.1475 -0.1562
  157SAPE  H12R17451   1.624   3.597  -1.736  0.5065 -0.3689 -0.1901
  157SAPE  C21317452   1.418   3.691  -1.716  0.0517  0.2263 -0.1816
  157SAPE  H13R17453   1.360   3.725  -1.628  2.2980  2.8449  0.4338
  157SAPE  H13S17454   1.365   3.603  -1.758 -0.4251  1.0341 -1.3473
  157SAPE  C21417455   1.418   3.811  -1.808 -0.6057  0.3742  0.0222
  157SAPE  H14R17456   1.507   3.875  -1.798  1.5281 -2.2837 -0.6641
  157SAPE  C21517457   1.340   3.812  -1.912 -0.0694  0.1330  0.1727
  157SAPE  H15R17458   1.340   3.907  -1.967 -0.6455  0.3552  0.5441
  157SAPE  C21617459   1.234   3.717  -1.957 -0.2724  0.5483 -0.6683
  157SAPE  H16R17460   1.134   3.762  -1.974 -1.0410 -0.9965 -0.3913
  157SAPE  H16S17461   1.213   3.631  -1.889  0.2628 -0.4563 -1.7343
  157SAPE  C21717462   1.281   3.643  -2.081 -1.0860 -0.8539  0.2131
  157SAPE  H17R17463   1.346   3.694  -2.156 -3.1503  0.1571 -0.9754
  157SAPE  H17S17464   1.187   3.629  -2.138 -1.1713  1.9832 -0.5122
  157SAPE  C21817465   1.363   3.518  -2.055 -0.0116 -0.0739 -0.6004
  157SAPE  H18R17466   1.297   3.445  -2.003 -0.2638 -0.2760 -1.2014
  157SAPE  H18S17467   1.458   3.531  -1.998  0.0776 -1.1359 -0.4847
  157SAPE  C21917468   1.395   3.452  -2.184 -0.3840 -0.1467  0.2294
  157SAPE  H19R17469   1.481   3.504  -2.232 -1.5653  0.8652 -0.8388
  157SAPE  H19S17470   1.316   3.450  -2.261 -2.4475 -0.8119  2.2473
  157SAPE  C22017471   1.434   3.301  -2.163 -0.1393  0.7282 -0.4542
  157SAPE  H20R17472   1.544   3.300  -2.149 -0.2231 -0.8953  0.2039
  157SAPE  H20S17473   1.405   3.252  -2.258 -0.7953  2.2694 -1.0930
  157SAPE  H20T17474   1.376   3.252  -2.082  1.6792 -0.4435  0.1914
  157SAPE   C3317475   0.966   3.408  -0.366 -0.4211  0.0621 -0.3014
  157SAPE   H3X17476   0.957   3.501  -0.307  2.2728  0.0262  0.2824
  157SAPE   H3Y17477   0.932   3.333  -0.292 -0.0191 -0.6605 -0.8269
  157SAPE   C3417478   0.866   3.410  -0.478  0.3681 -0.4334 -0.1218
  157SAPE   H4X17479   0.881   3.494  -0.549 -0.4697  0.0233  0.2223
  157SAPE   H4Y17480   0.760   3.425  -0.447  0.7488  1.9586  0.2104
  157SAPE   C3517481   0.861   3.281  -0.562  0.3243  0.0912 -0.8404
  157SAPE   H5X17482   0.844   3.196  -0.493  1.4623 -0.3691 -1.1043
  157SAPE   H5Y17483   0.966   3.259  -0.592  0.1481 -1.2087 -0.5345
  157SAPE   C3617484   0.771   3.290  -0.682  0.0730  0.0636  0.2377
  157SAPE   H6X17485   0.798   3.384  -0.735  3.8213 -0.9986 -0.0277
  157SAPE   H6Y17486   0.667   3.311  -0.649  0.6959  0.0930  2.3308
  157SAPE   C3717487   0.765   3.181  -0.790 -0.0388  0.0752  0.1429
  157SAPE   H7X17488   0.718   3.089  -0.748 -0.0383  0.6028  1.3479
  157SAPE   H7Y17489   0.869   3.164  -0.825 -0.5941 -0.3358 -1.4235
  157SAPE   C3817490   0.685   3.227  -0.909  0.0751  0.3887  0.7354
  157SAPE   H8X17491   0.724   3.321  -0.954 -0.2431  0.0629 -0.2319
  157SAPE   H8Y17492   0.582   3.253  -0.875 -0.4378  0.7220 -0.9839
  157SAPE   C3917493   0.661   3.111  -1.014  0.0139 -0.9971 -0.0811
  157SAPE   H9X17494   0.609   3.027  -0.962  0.7596  0.0034  2.4102
  157SAPE   H9Y17495   0.764   3.071  -1.030  0.2676 -0.7126  0.7890
  157SAPE  C31017496   0.606   3.144  -1.147 -0.8103 -0.3695 -0.7324
  157SAPE  H10X17497   0.661   3.220  -1.207 -1.5398 -0.1442 -1.1322
  157SAPE  H10Y17498   0.509   3.194  -1.128 -0.5892  0.1446 -0.9329
  157SAPE  C31117499   0.580   3.031  -1.244  0.2154  0.0855  0.4718
  157SAPE  H11X17500   0.515   2.952  -1.200 -1.0519  0.2822 -0.9674
  157SAPE  H11Y17501   0.672   2.974  -1.268  0.3404  0.9593 -1.2080
  157SAPE  C31217502   0.516   3.074  -1.381  0.0780  1.2510  0.4577
  157SAPE  H12X17503   0.589   3.136  -1.437 -0.8952  0.2993 -2.0140
  157SAPE  H12Y17504   0.428   3.139  -1.358  0.8863  1.5128  3.0407
  157SAPE  C31317505   0.474   2.955  -1.459  0.1327  0.6599  0.1285
  157SAPE  H13X17506   0.394   2.902  -1.402  0.2744 -2.9678 -2.6548
  157SAPE  H13Y17507   0.548   2.872  -1.460 -2.0538 -1.4775  1.6490
  157SAPE  C31417508   0.426   2.994  -1.603  0.0219 -0.1130  0.0189
  157SAPE  H14X17509   0.517   3.040  -1.646  0.2479 -0.3779  0.2085
  157SAPE  H14Y17510   0.345   3.068  -1.587  0.8123  0.8769 -0.5177
  157SAPE  C31517511   0.381   2.878  -1.693 -0.1504 -0.0626  0.4354
  157SAPE  H15X17512   0.320   2.813  -1.627  0.3868  0.2983  1.2988
  157SAPE  H15Y17513   0.466   2.816  -1.728  0.4188 -0.1612  1.9146
  157SAPE  C31617514   0.296   2.915  -1.816  0.1330 -0.3488  0.0926
  157SAPE  H16X17515   0.353   2.960  -1.900 -0.2242 -2.2412 -1.2066
  157SAPE  H16Y17516   0.217   2.989  -1.791 -0.7198 -0.9776 -0.6866
  157SAPE  C31717517   0.235   2.783  -1.876  0.5789 -0.6546  0.3265
  157SAPE  H17X17518   0.125   2.779  -1.858  0.1760 -0.9643 -1.9672
  157SAPE  H17Y17519   0.282   2.701  -1.817  0.9293  0.4581  1.6455
  157SAPE  C31817520   0.257   2.761  -2.025  0.4159 -0.5886 -0.2501
  157SAPE  H18X17521   0.190   2.832  -2.078 -1.3567 -1.3757  0.8494
  157SAPE  H18Y17522   0.227   2.656  -2.044 -1.7130  0.0063 -0.3645
  157SAPE  H18Z17523   0.364   2.779  -2.052  0.9190 -1.0594  1.2903
  158SAPE     N17524   4.181   4.201   0.085  0.3473  0.0533  0.3431
  158SAPE   HN117525   4.219   4.295   0.062  1.7841 -0.4263  0.6560
  158SAPE   HN217526   4.081   4.192   0.111 -1.0587  1.4470 -3.7271
  158SAPE   HN317527   4.231   4.170   0.171  1.6088  1.9323  0.3410
  158SAPE   C1217528   4.210   4.107  -0.027 -0.0005  0.1338 -0.2459
  158SAPE  H12A17529   4.150   4.148  -0.112  0.6488 -0.5412 -1.0441
  158SAPE  H12B17530   4.167   4.008  -0.000 -1.3807  0.0908 -2.3343
  158SAPE   C1117531   4.360   4.101  -0.047 -0.5309 -0.1915 -0.2236
  158SAPE  H11A17532   4.388   4.208  -0.062 -0.6483  0.1480  1.6778
  158SAPE  H11B17533   4.371   4.031  -0.132 -0.4352  1.1874 -1.3813
  158SAPE     P17534   4.456   3.905   0.087 -0.1811  0.1313 -0.0100
  158SAPE   O1317535   4.555   3.880   0.195  0.1440  0.7980  0.3316
  158SAPE   O1417536   4.327   3.831   0.086 -0.0518  0.0539 -0.1378
  158SAPE   O1217537   4.431   4.057   0.073  0.4606 -0.2919 -0.1581
  158SAPE   O1117538   4.536   3.862  -0.045 -0.5489 -0.1594 -0.3879
  158SAPE    C117539   4.658   3.933  -0.079  0.7956 -0.5194  0.0844
  158SAPE    HA17540   4.645   4.043  -0.071  0.8717 -0.5472  0.6218
  158SAPE    HB17541   4.744   3.911  -0.012  1.4692 -0.2589 -0.6703
  158SAPE    C217542   4.715   3.893  -0.219  0.2533 -0.2967  1.0559
  158SAPE    HS17543   4.790   3.970  -0.246  2.4251 -2.2152  1.3362
  158SAPE   O2117544   4.596   3.878  -0.312  0.1566 -0.1087  0.4938
  158SAPE   C2117545   4.558   3.991  -0.366  0.8517 -0.6509  0.2003
  158SAPE   O2217546   4.614   4.098  -0.352 -0.0912  0.2914  0.6819
  158SAPE   C2217547   4.444   3.960  -0.464 -0.3269  0.3341 -0.0228
  158SAPE   H2R17548   4.495   3.971  -0.562  2.4600 -1.3822  1.1195
  158SAPE   H2S17549   4.422   3.852  -0.451 -1.5924  0.4758 -0.7649
  158SAPE    C317550   4.787   3.759  -0.229 -0.5792  0.3272 -0.2650
  158SAPE    HX17551   4.709   3.682  -0.212 -1.2353  1.1022  0.3677
  158SAPE    HY17552   4.866   3.751  -0.151  0.6434  0.6476 -1.4433
  158SAPE   O3117553   4.846   3.760  -0.359 -0.2753  0.1280 -0.5586
  158SAPE   C3117554   4.963   3.696  -0.378  0.2845 -0.2834  0.6472
  158SAPE   O3217555   5.016   3.630  -0.290 -0.0433 -0.3112  0.0347
  158SAPE   C3217556   5.003   3.719  -0.526 -0.6812 -0.1766 -0.8662
  158SAPE   H2X17557   5.034   3.825  -0.541 -0.8578  0.1973  1.2095
  158SAPE   H2Y17558   4.917   3.684  -0.587 -0.0310 -3.7782  0.0584
  158SAPE   C2317559   4.318   4.041  -0.438 -0.7516 -0.0649 -0.4306
  158SAPE   H3R17560   4.335   4.151  -0.447  0.1514 -0.3153 -2.3681
  158SAPE   H3S17561   4.274   4.022  -0.338 -1.5023 -2.4873 -1.1649
  158SAPE   C2417562   4.208   4.014  -0.551 -0.9076  0.3798 -0.3026
  158SAPE   H4R17563   4.114   4.043  -0.499  0.2563 -2.0703  3.6232
  158SAPE   H4S17564   4.203   3.903  -0.562  2.0701  0.1170  0.3508
  158SAPE   C2517565   4.230   4.065  -0.694 -0.0795 -0.5977 -0.7666
  158SAPE   H5R17566   4.243   4.174  -0.707  0.8370 -0.3214  1.8464
  158SAPE   C2617567   4.218   4.003  -0.809 -0.9005  0.3881  0.7434
  158SAPE   H6R17568   4.231   4.060  -0.902  0.5750  0.1911  0.8098
  158SAPE   C2717569   4.192   3.858  -0.831  0.0395 -0.2425 -0.2944
  158SAPE   H7R17570   4.140   3.855  -0.929  2.0595  1.1658 -1.4858
  158SAPE   H7S17571   4.112   3.823  -0.762 -1.4580  3.0090 -0.2090
  158SAPE   C2817572   4.310   3.768  -0.817 -0.1234  0.2414  0.4254
  158SAPE   H8R17573   4.395   3.807  -0.759 -0.4602  1.9541 -0.1630
  158SAPE   C2917574   4.321   3.655  -0.890  0.5840  0.3462 -0.0675
  158SAPE   H9R17575   4.411   3.595  -0.868 -0.5809 -1.3114  0.3587
  158SAPE  C21017576   4.211   3.584  -0.969  0.1113  0.0497 -0.2654
  158SAPE  H10R17577   4.270   3.511  -1.028  1.0412 -1.8505  2.7835
  158SAPE  H10S17578   4.158   3.649  -1.042 -1.0643  2.4821  2.5537
  158SAPE  C21117579   4.108   3.503  -0.892 -0.7138  0.1554 -0.0523
  158SAPE  H11R17580   4.107   3.519  -0.783  0.7972 -0.4241  0.0721
  158SAPE  C21217581   4.007   3.425  -0.944  0.7723  0.2626 -0.0006
  158SAPE  H12R17582   3.944   3.372  -0.870  3.1243  0.2263  2.1219
  158SAPE  C21317583   3.996   3.383  -1.086 -0.0918 -0.6370  0.1074
  158SAPE  H13R17584   4.069   3.301  -1.096 -0.6679 -1.0138 -1.3097
  158SAPE  H13S17585   4.025   3.472  -1.146 -0.7527  0.0273  0.7448
  158SAPE  C21417586   3.864   3.318  -1.125  0.4000 -0.0053 -0.5979
  158SAPE  H14R17587   3.829   3.246  -1.050 -1.8375  1.9003  0.3175
  158SAPE  C21517588   3.790   3.332  -1.239  0.0382  0.3396 -0.7021
  158SAPE  H15R17589   3.700   3.269  -1.243  1.3077 -1.5179 -1.0463
  158SAPE  C21617590   3.814   3.406  -1.366 -0.2212 -0.6721  0.2034
  158SAPE  H16R17591   3.921   3.439  -1.367 -0.3323 -0.2532  1.1708
  158SAPE  H16S17592   3.751   3.497  -1.372  2.7274  1.6619  1.9032
  158SAPE  C21717593   3.797   3.327  -1.497  0.5368 -0.6087 -0.8006
  158SAPE  H17R17594   3.692   3.294  -1.512  0.7169 -1.9145  0.5513
  158SAPE  H17S17595   3.854   3.233  -1.482  1.8902  0.2298 -0.4629
  158SAPE  C21817596   3.845   3.411  -1.614 -0.3552 -0.4718 -0.2273
  158SAPE  H18R17597   3.952   3.439  -1.600 -0.4347  0.0524 -0.6502
  158SAPE  H18S17598   3.795   3.510  -1.618  1.5944  0.6745  1.5849
  158SAPE  C21917599   3.821   3.340  -1.743  0.2528 -0.2745  0.0969
  158SAPE  H19R17600   3.712   3.318  -1.750  0.2942 -1.5016  2.3845
  158SAPE  H19S17601   3.880   3.246  -1.747  0.3876 -0.1915  0.1219
  158SAPE  C22017602   3.858   3.419  -1.874  0.0320  0.1077  0.5450
  158SAPE  H20R17603   3.956   3.468  -1.852 -1.0482  1.8736  1.7017
  158SAPE  H20S17604   3.780   3.496  -1.894 -0.9056 -0.7521  0.8566
  158SAPE  H20T17605   3.857   3.357  -1.966  0.7642  2.7768 -1.4192
  158SAPE   C3317606   5.123   3.626  -0.560  0.3209 -0.1142 -0.9949
  158SAPE   H3X17607   5.088   3.520  -0.560  0.4339 -0.1911  0.7691
  158SAPE   H3Y17608   5.205   3.634  -0.485 -0.1078  0.1712 -0.5520
  158SAPE   C3417609   5.183   3.657  -0.695 -0.0628 -0.0578 -0.2166
  158SAPE   H4X17610   5.252   3.571  -0.710 -1.3957 -1.7241  2.3650
  158SAPE   H4Y17611   5.243   3.750  -0.686 -0.4068  0.0312  1.6749
  158SAPE   C3517612   5.087   3.653  -0.816 -0.5820  0.4618  0.1953
  158SAPE   H5X17613   5.001   3.721  -0.798 -1.5140 -0.8217  0.8753
  158SAPE   H5Y17614   5.054   3.546  -0.820  0.4266 -0.0026  2.4792
  158SAPE   C3617615   5.154   3.694  -0.951 -0.5584  0.4703  0.7375
  158SAPE   H6X17616   5.239   3.628  -0.977 -0.8617  0.5354 -0.4786
  158SAPE   H6Y17617   5.189   3.799  -0.947  2.6056 -0.4569  0.3227
  158SAPE   C3717618   5.055   3.680  -1.075  0.0700 -0.3536  0.1225
  158SAPE   H7X17619   4.957   3.728  -1.052  0.8722  1.1492  0.5188
  158SAPE   H7Y17620   5.023   3.574  -1.071 -0.0293 -0.3078  0.6408
  158SAPE   C3817621   5.108   3.733  -1.206 -0.6765  0.4289  0.2509
  158SAPE   H8X17622   5.201   3.678  -1.231  0.8198  2.4290  1.0960
  158SAPE   H8Y17623   5.154   3.834  -1.197  1.8646 -0.7847  2.0788
  158SAPE   C3917624   5.012   3.728  -1.317  0.3604 -0.6258  0.1160
  158SAPE   H9X17625   4.914   3.762  -1.278  0.2596 -2.0371  1.1832
  158SAPE   H9Y17626   4.993   3.621  -1.343 -1.6028  0.2514 -2.4610
  158SAPE  C31017627   5.057   3.794  -1.450 -0.7489  0.4657 -0.4375
  158SAPE  H10X17628   5.155   3.755  -1.483 -0.5975  0.9497 -0.5702
  158SAPE  H10Y17629   5.074   3.902  -1.427 -1.5202  0.4534  0.2389
  158SAPE  C31117630   4.954   3.793  -1.564 -0.8587 -0.3273  0.2250
  158SAPE  H11X17631   4.861   3.844  -1.530  0.0434  1.3674  0.2224
  158SAPE  H11Y17632   4.935   3.686  -1.587  0.6056 -0.3719 -0.8592
  158SAPE  C31217633   5.001   3.867  -1.688 -0.2854  0.3922 -0.5050
  158SAPE  H12X17634   4.934   3.859  -1.776 -0.8433  3.1679 -0.4143
  158SAPE  H12Y17635   5.096   3.825  -1.728  0.4513  2.0986 -0.6552
  158SAPE  C31317636   5.034   4.019  -1.672  0.3622 -0.5569  1.0641
  158SAPE  H13X17637   5.136   4.037  -1.632 -0.0952 -2.7615  3.4976
  158SAPE  H13Y17638   4.966   4.064  -1.597  1.5624 -0.9301  2.4060
  158SAPE  C31417639   5.037   4.087  -1.808 -0.1053 -0.2120  0.0297
  158SAPE  H14X17640   4.953   4.046  -1.868  1.8561 -2.2276 -1.5554
  158SAPE  H14Y17641   5.129   4.054  -1.861  2.2204  0.4478  3.3501
  158SAPE  C31517642   5.043   4.239  -1.781 -0.1793  0.1975 -0.6358
  158SAPE  H15X17643   5.133   4.260  -1.719  0.1858  0.9070 -1.3744
  158SAPE  H15Y17644   4.955   4.268  -1.720 -0.3721  1.2826 -1.4006
  158SAPE  C31617645   5.046   4.320  -1.906  0.0256  0.0791  0.5453
  158SAPE  H16X17646   5.121   4.267  -1.968  0.7324  0.5152  1.0165
  158SAPE  H16Y17647   5.090   4.420  -1.888  0.8135 -0.5221  2.1089
  158SAPE  C31717648   4.912   4.318  -1.988  0.2985 -0.1422 -0.3860
  158SAPE  H17X17649   4.898   4.213  -2.022 -1.0086 -0.1773  0.2007
  158SAPE  H17Y17650   4.919   4.382  -2.079  2.1646 -1.0530 -0.9318
  158SAPE  C31817651   4.785   4.371  -1.916 -0.4935  0.1159  0.0056
  158SAPE  H18X17652   4.765   4.298  -1.835 -0.4937  0.5123  0.3585
  158SAPE  H18Y17653   4.695   4.367  -1.981 -0.7993 -3.2850  0.4597
  158SAPE  H18Z17654   4.797   4.468  -1.865  1.8394 -0.7422  1.2265
  159SAPE     N17655   0.557   2.352   4.698 -0.2258 -0.3558 -0.0115
  159SAPE   HN117656   0.529   2.308   4.608 -0.0009 -2.1216  0.7461
  159SAPE   HN217657   0.503   2.431   4.739  1.8206  0.1784  1.8751
  159SAPE   HN317658   0.652   2.388   4.676 -0.0158 -1.2688 -0.6636
  159SAPE   C1217659   0.569   2.258   4.811  0.1151  0.3964 -0.5894
  159SAPE  H12A17660   0.481   2.192   4.793 -0.1343  0.3437  0.7175
  159SAPE  H12B17661   0.555   2.322   4.901  0.5747  0.2205 -0.3875
  159SAPE   C1117662   0.697   2.181   4.811 -0.0147  0.2825  0.4937
  159SAPE  H11A17663   0.708   2.125   4.906  1.1247 -0.0186  0.2055
  159SAPE  H11B17664   0.787   2.246   4.799  0.7611 -0.3426  2.5506
  159SAPE     P17665   0.812   2.102   4.584  0.1878 -0.0754 -0.3453
  159SAPE   O1317666   0.762   2.033   4.466 -0.5401  0.0629 -0.1164
  159SAPE   O1417667   0.846   2.243   4.564 -0.6155 -0.1310 -0.1546
  159SAPE   O1217668   0.701   2.092   4.696  0.0265 -0.2219  0.1377
  159SAPE   O1117669   0.934   2.024   4.635  0.1886 -0.1078  0.2008
  159SAPE    C117670   0.994   2.037   4.765 -0.5763  0.1769 -0.2892
  159SAPE    HA17671   1.103   2.056   4.759 -0.1785 -1.4228  1.1352
  159SAPE    HB17672   0.956   2.124   4.823 -0.6805 -1.5468  2.4355
  159SAPE    C217673   0.968   1.912   4.862  0.0088  0.1933 -0.1448
  159SAPE    HS17674   0.862   1.914   4.897  0.3877 -2.3033  1.4518
  159SAPE   O2117675   1.069   1.922   4.965 -0.1092 -0.3073 -0.1424
  159SAPE   C2117676   1.030   1.992   5.069 -0.2822 -1.0783 -0.3867
  159SAPE   O2217677   0.927   2.062   5.074 -0.1926  0.4692 -0.3357
  159SAPE   C2217678   1.132   1.994   5.186  0.1583 -0.1810  0.7940
  159SAPE   H2R17679   1.186   1.897   5.176  0.4263 -0.0604  1.0778
  159SAPE   H2S17680   1.208   2.067   5.150 -1.6987  0.9331 -1.1440
  159SAPE    C317681   0.992   1.768   4.801  0.1082  0.3578 -0.3443
  159SAPE    HX17682   1.094   1.762   4.759  0.0035 -0.6671 -0.4643
  159SAPE    HY17683   0.929   1.761   4.709  0.2865  0.2743 -0.4594
  159SAPE   O3117684   0.980   1.664   4.904 -0.4246  0.1082 -0.0855
  159SAPE   C3117685   0.863   1.594   4.903 -0.1011 -0.7507  0.4189
  159SAPE   O3217686   0.773   1.610   4.832  0.2315  0.4184  0.2228
  159SAPE   C3217687   0.860   1.483   5.010  0.2830  0.3893  0.1146
  159SAPE   H2X17688   0.948   1.517   5.069  2.0012  0.6612 -2.4050
  159SAPE   H2Y17689   0.872   1.389   4.952  0.7116  1.9065 -2.4509
  159SAPE   C2317690   1.082   2.036   5.329 -0.6386  0.5805 -0.5842
  159SAPE   H3R17691   1.042   2.139   5.340 -0.7534  0.5342 -0.5778
  159SAPE   H3S17692   1.167   2.029   5.401 -0.7674  0.0941 -0.4795
  159SAPE   C2417693   0.969   1.940   5.381  0.9116 -0.2637 -0.0691
  159SAPE   H4R17694   0.987   1.837   5.420 -1.1998 -0.2695  1.0392
  159SAPE   H4S17695   0.886   1.924   5.309  1.1503  1.3042 -0.7331
  159SAPE   C2517696   0.910   2.006   5.504  0.0422  0.6214  0.0977
  159SAPE   H5R17697   0.881   2.111   5.485 -0.1777  0.5736  0.1595
  159SAPE   C2617698   0.882   1.963   5.629 -0.5108  0.6573 -0.2566
  159SAPE   H6R17699   0.833   2.030   5.701  0.3133 -0.9323  1.8651
  159SAPE   C2717700   0.902   1.820   5.670  0.6365  0.2253  0.0254
  159SAPE   H7R17701   0.904   1.825   5.781 -1.5585  1.1930  0.0642
  159SAPE   H7S17702   1.008   1.795   5.646  1.5781  3.8737 -0.1927
  159SAPE   C2817703   0.787   1.729   5.623 -0.5659  0.1168  0.3703
  159SAPE   H8R17704   0.740   1.753   5.526 -2.0306 -1.8363  0.5305
  159SAPE   C2917705   0.719   1.635   5.687  0.0386  0.0522  0.2945
  159SAPE   H9R17706   0.632   1.601   5.630 -0.4521  3.0676 -0.8954
  159SAPE  C21017707   0.727   1.588   5.827  0.3290  0.3883  0.5782
  159SAPE  H10R17708   0.808   1.631   5.889  1.7130  0.1538 -0.9883
  159SAPE  H10S17709   0.747   1.479   5.821  0.2702  0.4293 -0.6850
  159SAPE  C21117710   0.592   1.598   5.899  0.6764 -0.0177  0.3676
  159SAPE  H11R17711   0.519   1.516   5.890  0.0866  0.4343  0.8796
  159SAPE  C21217712   0.551   1.697   5.983  0.4553 -0.4419  0.5609
  159SAPE  H12R17713   0.451   1.691   6.029  0.9418  0.2983  1.7406
  159SAPE  C21317714   0.631   1.823   6.012 -0.0712  0.4837  0.1185
  159SAPE  H13R17715   0.557   1.897   6.050  0.5801 -0.1500  2.7876
  159SAPE  H13S17716   0.679   1.854   5.917 -0.5799 -1.7662 -0.9465
  159SAPE  C21417717   0.741   1.809   6.109  0.1470  0.4986  0.1520
  159SAPE  H14R17718   0.722   1.735   6.188 -1.7315  1.6711  0.8779
  159SAPE  C21517719   0.852   1.881   6.117 -0.2930  0.5982 -0.6770
  159SAPE  H15R17720   0.924   1.863   6.198  0.8531  0.8581 -1.6060
  159SAPE  C21617721   0.894   1.992   6.025  0.5125  0.3104 -0.1047
  159SAPE  H16R17722   0.819   1.989   5.943  0.4397 -0.7303 -0.0113
  159SAPE  H16S17723   0.989   1.970   5.973  0.8321 -0.2211  0.6809
  159SAPE  C21717724   0.903   2.116   6.105  0.1231 -0.6437  0.4341
  159SAPE  H17R17725   1.000   2.121   6.159 -0.3570  0.0963  1.2419
  159SAPE  H17S17726   0.816   2.131   6.172 -0.7088  0.7816 -0.9170
  159SAPE  C21817727   0.935   2.237   6.009  0.2193  0.3188 -0.3109
  159SAPE  H18R17728   1.020   2.194   5.952  1.1954 -0.9804  1.9716
  159SAPE  H18S17729   0.986   2.323   6.057  2.3958 -0.9757 -0.1549
  159SAPE  C21917730   0.823   2.288   5.919  0.6369 -0.5110  1.0939
  159SAPE  H19R17731   0.795   2.203   5.854 -1.6081  0.2133  1.0168
  159SAPE  H19S17732   0.851   2.374   5.854  1.1973 -2.8500 -1.9450
  159SAPE  C22017733   0.700   2.317   6.011  0.0291  0.6943  0.2050
  159SAPE  H20R17734   0.672   2.221   6.058  1.1903  1.1771  1.9655
  159SAPE  H20S17735   0.618   2.355   5.946 -2.2403 -3.7510  0.0740
  159SAPE  H20T17736   0.724   2.385   6.095 -0.8265  0.6240  0.5160
  159SAPE   C3317737   0.730   1.487   5.093 -0.2288  0.4686  0.2466
  159SAPE   H3X17738   0.721   1.387   5.140 -0.0897 -0.5391 -1.7887
  159SAPE   H3Y17739   0.633   1.495   5.039 -1.8991 -1.0487  2.7964
  159SAPE   C3417740   0.731   1.591   5.207 -0.1276 -0.4547 -0.0583
  159SAPE   H4X17741   0.770   1.688   5.170 -0.5923 -0.0251  0.5605
  159SAPE   H4Y17742   0.807   1.556   5.280  0.4853 -1.6564 -1.2304
  159SAPE   C3517743   0.593   1.596   5.276 -0.3608 -0.0739 -0.4042
  159SAPE   H5X17744   0.512   1.630   5.207  0.3476  1.9058 -0.3175
  159SAPE   H5Y17745   0.588   1.676   5.353  0.0163 -1.5181  1.1624
  159SAPE   C3617746   0.549   1.465   5.346  0.1607 -0.6998  0.0322
  159SAPE   H6X17747   0.587   1.451   5.449 -1.2883 -0.4068  0.6293
  159SAPE   H6Y17748   0.582   1.383   5.278  0.6577  1.0949 -1.9717
  159SAPE   C3717749   0.389   1.459   5.363  0.0555 -0.7341 -0.6548
  159SAPE   H7X17750   0.352   1.354   5.370 -2.4144  0.1699  3.2324
  159SAPE   H7Y17751   0.345   1.499   5.269 -1.2790 -0.3485  0.1070
  159SAPE   C3817752   0.323   1.533   5.485 -0.2977  0.9938 -0.3575
  159SAPE   H8X17753   0.360   1.483   5.577  2.4975  1.5245 -1.1025
  159SAPE   H8Y17754   0.214   1.516   5.470 -0.1865 -0.3998  0.2184
  159SAPE   C3917755   0.350   1.680   5.499  0.2895  0.1081 -0.3182
  159SAPE   H9X17756   0.339   1.729   5.400 -0.5571  0.2210 -0.1754
  159SAPE   H9Y17757   0.452   1.707   5.533  1.0210 -0.2221 -2.1252
  159SAPE  C31017758   0.240   1.767   5.577 -0.0502  0.0424 -0.0104
  159SAPE  H10X17759   0.145   1.709   5.582 -0.0059 -0.1041  6.0829
  159SAPE  H10Y17760   0.233   1.866   5.528  2.3415  1.8943  3.0576
  159SAPE  C31117761   0.263   1.780   5.732 -0.3220 -0.2754  0.0398
  159SAPE  H11X17762   0.371   1.797   5.748  0.1646 -2.2962 -0.8023
  159SAPE  H11Y17763   0.235   1.692   5.794 -0.3154 -0.8483 -0.7507
  159SAPE  C31217764   0.176   1.897   5.784 -0.6659 -1.0825  0.0321
  159SAPE  H12X17765   0.073   1.865   5.810 -0.8111 -0.9258 -0.3380
  159SAPE  H12Y17766   0.164   1.978   5.709 -1.0112 -2.1661 -1.1229
  159SAPE  C31317767   0.245   1.977   5.899 -0.1314 -0.7268  0.0105
  159SAPE  H13X17768   0.341   2.012   5.853 -0.8971 -3.2314 -4.0368
  159SAPE  H13Y17769   0.274   1.911   5.983  0.3191  0.5908  0.9174
  159SAPE  C31417770   0.159   2.100   5.945  0.8092 -0.1884  0.1768
  159SAPE  H14X17771   0.056   2.069   5.970  1.7937 -2.3763  1.7983
  159SAPE  H14Y17772   0.160   2.178   5.865  2.0672  0.5846  0.9128
  159SAPE  C31517773   0.211   2.163   6.071  0.0519  0.5326  0.0831
  159SAPE  H15X17774   0.317   2.187   6.048 -0.1491  0.0769 -1.4304
  159SAPE  H15Y17775   0.206   2.092   6.156 -0.3758 -0.8928 -1.0969
  159SAPE  C31617776   0.138   2.297   6.111  0.0984 -0.3765  0.0526
  159SAPE  H16X17777   0.141   2.364   6.022 -1.6904 -2.2479 -1.5153
  159SAPE  H16Y17778   0.195   2.329   6.201  1.4604  1.8718 -1.5019
  159SAPE  C31717779  -0.007   2.273   6.155 -0.8325  0.0036  0.4453
  159SAPE  H17X17780   0.004   2.184   6.221 -0.2266 -1.3643 -1.4083
  159SAPE  H17Y17781  -0.069   2.244   6.068 -0.5424  0.1263  0.1950
  159SAPE  C31817782  -0.070   2.373   6.249 -0.5133 -0.8368  0.5773
  159SAPE  H18X17783  -0.084   2.473   6.203 -2.1227 -0.9041  0.8512
  159SAPE  H18Y17784  -0.014   2.384   6.344 -2.7813  1.5831  1.7478
  159SAPE  H18Z17785  -0.172   2.335   6.271 -0.2108 -1.5939  0.7117
  160SAPE     N17786   6.027   5.486   3.551  0.2736  0.3343 -0.4587
  160SAPE   HN117787   6.106   5.549   3.528  0.8363 -0.3219 -0.3413
  160SAPE   HN217788   6.037   5.383   3.540 -0.7192  0.1421  0.2803
  160SAPE   HN317789   5.953   5.514   3.483 -2.2984 -1.3391  1.4308
  160SAPE   C1217790   5.982   5.522   3.689  0.6777  0.0403 -0.3150
  160SAPE  H12A17791   5.897   5.454   3.710  1.6526 -0.6141  1.8248
  160SAPE  H12B17792   5.959   5.631   3.685 -0.4495 -0.1900 -0.5269
  160SAPE   C1117793   6.089   5.499   3.796  0.4747 -0.5267 -0.0140
  160SAPE  H11A17794   6.080   5.395   3.835  0.3393 -1.0730 -1.4289
  160SAPE  H11B17795   6.060   5.562   3.883 -0.9137 -1.1207 -0.0334
  160SAPE     P17796   6.335   5.570   3.848 -0.3475 -0.0376  0.4957
  160SAPE   O1317797   6.441   5.466   3.829  0.4056 -0.3098  0.1103
  160SAPE   O1417798   6.376   5.711   3.819  0.4218  0.2093 -0.5295
  160SAPE   O1217799   6.221   5.521   3.743  0.3253 -0.5698  1.0040
  160SAPE   O1117800   6.268   5.562   3.995  0.2742  0.3148 -0.0253
  160SAPE    C117801   6.276   5.668   4.091  0.6002  0.0101  0.1804
  160SAPE    HA17802   6.379   5.697   4.121  1.5705 -3.1141  0.2387
  160SAPE    HB17803   6.212   5.748   4.049  0.6882  1.1576  2.1186
  160SAPE    C217804   6.197   5.634   4.228 -0.0501 -0.3371 -0.6923
  160SAPE    HS17805   6.215   5.713   4.304  0.3317 -0.9228 -0.1607
  160SAPE   O2117806   6.256   5.513   4.286 -0.2555  0.0071 -0.8305
  160SAPE   C2117807   6.370   5.523   4.347 -0.3285 -0.2023  1.1610
  160SAPE   O2217808   6.440   5.626   4.359  0.4200  0.1734 -0.1572
  160SAPE   C2217809   6.406   5.384   4.399 -0.1316  0.2632 -0.0694
  160SAPE   H2R17810   6.319   5.340   4.452 -0.0651  1.2086  0.8536
  160SAPE   H2S17811   6.421   5.317   4.312 -1.4830 -0.4180  0.1837
  160SAPE    C317812   6.050   5.603   4.218  0.4905  0.0132  0.3261
  160SAPE    HX17813   6.036   5.524   4.141 -0.3708  1.3565 -0.9729
  160SAPE    HY17814   6.007   5.694   4.169  2.3233  1.4396  1.2103
  160SAPE   O3117815   5.978   5.578   4.348 -0.5056 -0.6105 -0.5396
  160SAPE   C3117816   5.886   5.485   4.349 -0.1926  0.3532  1.3178
  160SAPE   O3217817   5.838   5.427   4.255  0.3019  0.2410  0.0868
  160SAPE   C3217818   5.837   5.479   4.497 -0.3645  0.0774 -0.2253
  160SAPE   H2X17819   5.743   5.538   4.494  0.7003  1.8176 -0.9208
  160SAPE   H2Y17820   5.913   5.529   4.561 -1.4540  1.5107 -0.0224
  160SAPE   C2317821   6.526   5.390   4.493 -0.3749  0.4190 -0.0086
  160SAPE   H3R17822   6.501   5.455   4.580 -1.7721  0.1462 -0.1842
  160SAPE   H3S17823   6.606   5.443   4.439 -0.5759  1.0216  0.2777
  160SAPE   C2417824   6.567   5.251   4.552 -0.2638 -0.2355  0.1533
  160SAPE   H4R17825   6.636   5.271   4.638 -0.9979 -1.0090  0.9381
  160SAPE   H4S17826   6.631   5.193   4.482  1.6891  2.1759 -0.1850
  160SAPE   C2517827   6.455   5.165   4.603 -0.2498  0.7878  0.0746
  160SAPE   H5R17828   6.388   5.130   4.523  0.5480  2.5671 -1.4568
  160SAPE   C2617829   6.434   5.124   4.727 -0.0410  0.5607 -0.5758
  160SAPE   H6R17830   6.348   5.061   4.752 -0.8829  2.0659  0.4780
  160SAPE   C2717831   6.514   5.170   4.849  0.4574  0.4821 -0.4593
  160SAPE   H7R17832   6.620   5.184   4.820 -0.2583  2.4999 -2.3460
  160SAPE   H7S17833   6.510   5.086   4.921 -1.4796  1.8817  1.1866
  160SAPE   C2817834   6.460   5.297   4.916 -0.3576 -0.3753 -0.2492
  160SAPE   H8R17835   6.401   5.367   4.855  0.7251 -0.0278 -0.9303
  160SAPE   C2917836   6.487   5.338   5.040  0.2631  0.6315  0.1902
  160SAPE   H9R17837   6.449   5.436   5.073 -0.3162  0.5877 -0.3288
  160SAPE  C21017838   6.564   5.258   5.141  0.3919 -0.2835  0.3602
  160SAPE  H10R17839   6.635   5.323   5.195 -1.5797  1.1994  1.3038
  160SAPE  H10S17840   6.625   5.184   5.085  5.0507  3.3486  0.1028
  160SAPE  C21117841   6.466   5.192   5.240  0.2678 -0.3716  0.9853
  160SAPE  H11R17842   6.371   5.160   5.194  0.7631 -0.5198  0.0474
  160SAPE  C21217843   6.461   5.202   5.371 -0.2626 -0.4399 -0.2215
  160SAPE  H12R17844   6.377   5.155   5.424  0.4940 -0.6954  0.7900
  160SAPE  C21317845   6.566   5.266   5.469  0.1629 -0.2330 -0.5031
  160SAPE  H13R17846   6.668   5.258   5.424 -0.6708  1.3751 -2.9162
  160SAPE  H13S17847   6.574   5.207   5.562 -0.8617 -1.2913 -1.0649
  160SAPE  C21417848   6.532   5.404   5.495  0.0411 -0.6046 -0.0926
  160SAPE  H14R17849   6.530   5.464   5.403 -0.1103 -0.3753  0.0588
  160SAPE  C21517850   6.520   5.472   5.613 -0.3274 -0.2933 -0.4620
  160SAPE  H15R17851   6.499   5.579   5.619  1.6583  0.2503 -2.0259
  160SAPE  C21617852   6.535   5.419   5.752 -0.4513 -0.4819  0.7886
  160SAPE  H16R17853   6.630   5.456   5.798 -0.5701 -0.0915  0.7254
  160SAPE  H16S17854   6.545   5.309   5.764  0.5258 -0.6805 -1.3592
  160SAPE  C21717855   6.407   5.478   5.824 -0.4068  0.7395 -0.1324
  160SAPE  H17R17856   6.316   5.439   5.774  0.4442  0.3767 -1.4781
  160SAPE  H17S17857   6.423   5.588   5.822  2.1112  0.4478 -0.4271
  160SAPE  C21817858   6.408   5.450   5.983 -0.3263 -0.3474  0.5937
  160SAPE  H18R17859   6.497   5.497   6.030 -1.5937 -0.0528  2.8573
  160SAPE  H18S17860   6.428   5.340   5.984  1.2673 -0.1549 -1.5152
  160SAPE  C21917861   6.277   5.498   6.043  0.3397  0.0329 -0.1134
  160SAPE  H19R17862   6.257   5.606   6.029 -0.7985 -0.2339 -0.7001
  160SAPE  H19S17863   6.282   5.472   6.151 -0.7869 -2.0690 -0.5124
  160SAPE  C22017864   6.157   5.418   5.997 -0.1639 -0.3421 -0.8154
  160SAPE  H20R17865   6.153   5.315   6.038  1.0154  0.6370  2.0024
  160SAPE  H20S17866   6.146   5.420   5.886 -3.3255 -0.2709 -0.5980
  160SAPE  H20T17867   6.055   5.457   6.019 -0.1143 -0.3601 -0.5495
  160SAPE   C3317868   5.811   5.338   4.548  0.0494 -0.4246  0.0886
  160SAPE   H3X17869   5.735   5.277   4.495 -0.7766  1.9057 -1.6086
  160SAPE   H3Y17870   5.767   5.338   4.650 -1.5883  0.7991 -0.5792
  160SAPE   C3417871   5.939   5.262   4.560 -0.1894 -0.5080  0.4071
  160SAPE   H4X17872   5.987   5.253   4.460  2.7728  0.1070  1.6813
  160SAPE   H4Y17873   5.895   5.167   4.597 -0.8384  0.2703  1.7517
  160SAPE   C3517874   6.041   5.305   4.664 -0.3302  0.4358 -0.9657
  160SAPE   H5X17875   6.079   5.404   4.633  0.9346  1.0250  2.1008
  160SAPE   H5Y17876   6.127   5.235   4.663  0.6584  1.6162 -0.5451
  160SAPE   C3617877   5.987   5.310   4.811 -0.7231 -0.3733 -0.6000
  160SAPE   H6X17878   5.941   5.210   4.823  0.3375 -0.6196  2.6388
  160SAPE   H6Y17879   5.911   5.389   4.826  0.2838  0.1018  2.9319
  160SAPE   C3717880   6.096   5.334   4.919  0.4827  0.2691  0.1174
  160SAPE   H7X17881   6.123   5.441   4.905  1.1110 -0.0053 -0.8126
  160SAPE   H7Y17882   6.188   5.276   4.895  0.3322  0.9781 -2.4870
  160SAPE   C3817883   6.034   5.312   5.065 -0.0810  0.2083 -0.6976
  160SAPE   H8X17884   6.022   5.205   5.091 -0.8597  0.3368 -0.5055
  160SAPE   H8Y17885   5.930   5.351   5.074  0.2651  0.8498  1.0082
  160SAPE   C3917886   6.117   5.379   5.173  0.3762 -0.0872 -0.4642
  160SAPE   H9X17887   6.154   5.480   5.145  2.6130 -0.8099 -0.3153
  160SAPE   H9Y17888   6.212   5.325   5.191 -1.4316 -2.7282  2.0635
  160SAPE  C31017889   6.049   5.404   5.311  0.0567 -0.7407 -0.7362
  160SAPE  H10X17890   6.027   5.307   5.361  0.1687  0.9410  2.8813
  160SAPE  H10Y17891   5.960   5.468   5.297  2.6402  3.1978 -0.6087
  160SAPE  C31117892   6.149   5.472   5.416  0.6453  0.0163  0.6493
  160SAPE  H11X17893   6.169   5.577   5.385 -1.8342  0.1515 -0.7257
  160SAPE  H11Y17894   6.239   5.408   5.423  1.0775  0.7820  2.9486
  160SAPE  C31217895   6.099   5.467   5.557 -0.7718  0.0407  0.5624
  160SAPE  H12X17896   6.176   5.523   5.614 -0.7481 -1.5571  2.1848
  160SAPE  H12Y17897   6.104   5.361   5.590  0.2558 -0.7221 -1.7869
  160SAPE  C31317898   5.968   5.529   5.591 -0.4375  0.4030 -0.3833
  160SAPE  H13X17899   5.881   5.467   5.558  1.8420 -3.9452  0.9516
  160SAPE  H13Y17900   5.956   5.627   5.541  1.0106  1.0105  0.4092
  160SAPE  C31417901   5.958   5.576   5.743 -0.3717 -0.4813  0.0150
  160SAPE  H14X17902   5.971   5.489   5.810  2.7144 -0.3497 -0.2860
  160SAPE  H14Y17903   5.854   5.614   5.757  0.7257  1.9340  2.4735
  160SAPE  C31517904   6.056   5.688   5.780 -0.2926 -0.5077  0.0278
  160SAPE  H15X17905   6.087   5.749   5.692  2.3857 -0.5113  0.8721
  160SAPE  H15Y17906   6.151   5.643   5.815  0.2288  0.3450 -0.2550
  160SAPE  C31617907   6.003   5.775   5.889  0.2698  0.5853  0.3032
  160SAPE  H16X17908   5.940   5.716   5.959  2.5752 -1.6978  0.6327
  160SAPE  H16Y17909   5.924   5.839   5.845  0.4271  0.2812 -0.4476
  160SAPE  C31717910   6.107   5.862   5.955 -0.7641 -0.4808  0.6730
  160SAPE  H17X17911   6.165   5.917   5.878 -1.1234 -0.0426  0.7132
  160SAPE  H17Y17912   6.187   5.795   5.994 -1.6254 -0.5029  2.4767
  160SAPE  C31817913   6.068   5.942   6.081 -0.6692 -0.5360  0.0379
  160SAPE  H18X17914   6.152   6.005   6.117 -0.0993 -0.6419 -1.0804
  160SAPE  H18Y17915   6.049   5.865   6.159  0.0277 -0.5673  0.1799
  160SAPE  H18Z17916   5.977   6.001   6.055 -1.2955  0.1368  3.2969
  161SAPE     N17917   4.545   0.647   3.850  0.4589 -0.3861  0.0600
  161SAPE   HN117918   4.618   0.686   3.911 -1.9825  2.3159  1.4854
  161SAPE   HN217919   4.554   0.544   3.840 -1.3580 -0.7473  1.5124
  161SAPE   HN317920   4.554   0.689   3.755  0.5701 -0.3022  0.1091
  161SAPE   C1217921   4.408   0.676   3.911 -0.1049  0.2658 -0.3212
  161SAPE  H12A17922   4.400   0.642   4.016  2.0038 -1.9338 -0.7818
  161SAPE  H12B17923   4.329   0.626   3.851  0.7355 -0.8034 -0.5648
  161SAPE   C1117924   4.365   0.820   3.907  0.5198 -0.3726  0.2552
  161SAPE  H11A17925   4.266   0.828   3.958  0.1866 -0.6708 -0.3270
  161SAPE  H11B17926   4.354   0.845   3.800  1.4899  3.0485  0.8512
  161SAPE     P17927   4.407   1.054   4.013 -0.4337  0.6273 -0.0236
  161SAPE   O1317928   4.528   1.134   4.021  0.2544  0.6670  0.0321
  161SAPE   O1417929   4.293   1.100   3.932 -0.2087 -0.5925  0.2398
  161SAPE   O1217930   4.455   0.907   3.973  0.2880 -0.2287 -0.2710
  161SAPE   O1117931   4.353   1.029   4.159  0.5740 -0.3658  0.1030
  161SAPE    C117932   4.433   0.967   4.254 -0.5667  0.1162 -0.3139
  161SAPE    HA17933   4.530   0.932   4.211 -1.3638 -0.9777 -1.2833
  161SAPE    HB17934   4.462   1.043   4.330 -0.5849  1.6480 -1.7587
  161SAPE    C217935   4.353   0.858   4.317  0.0382  0.1864 -0.6179
  161SAPE    HS17936   4.302   0.788   4.247  0.0341 -2.3149  1.6778
  161SAPE   O2117937   4.265   0.919   4.413 -0.7201 -0.3189 -0.1011
  161SAPE   C2117938   4.160   0.860   4.467 -0.0305  0.2901  0.4579
  161SAPE   O2217939   4.115   0.755   4.423 -0.2023  0.2549  0.0214
  161SAPE   C2217940   4.112   0.925   4.594 -0.1819 -0.5377 -0.2289
  161SAPE   H2R17941   4.150   1.028   4.613 -0.9413  0.4554 -3.4440
  161SAPE   H2S17942   4.007   0.952   4.571  0.5719  3.5325  0.2271
  161SAPE    C317943   4.451   0.773   4.408  0.1323 -0.3021  0.3067
  161SAPE    HX17944   4.505   0.843   4.475 -1.2068  0.0080  1.1015
  161SAPE    HY17945   4.525   0.735   4.334  0.8357 -0.5307  1.1054
  161SAPE   O3117946   4.382   0.668   4.480  0.4770 -0.8119 -0.4630
  161SAPE   C3117947   4.349   0.564   4.414  0.1205 -0.1646  0.4589
  161SAPE   O3217948   4.353   0.552   4.292 -0.7726  0.3419 -0.4738
  161SAPE   C3217949   4.294   0.470   4.521  0.3796  0.0547  0.1921
  161SAPE   H2X17950   4.189   0.450   4.490  0.1796 -1.4268  1.7046
  161SAPE   H2Y17951   4.291   0.512   4.624  0.4718  1.3843 -0.3247
  161SAPE   C2317952   4.105   0.844   4.721  0.3466  0.1998  0.8637
  161SAPE   H3R17953   4.065   0.742   4.703 -0.0239  0.6054 -0.7203
  161SAPE   H3S17954   4.033   0.894   4.789 -0.3901  0.0280  0.2245
  161SAPE   C2417955   4.252   0.833   4.774 -0.6679  0.1173 -0.3218
  161SAPE   H4R17956   4.289   0.935   4.797 -0.0891  0.5189 -2.7056
  161SAPE   H4S17957   4.315   0.816   4.683  4.5862  0.7806  2.7863
  161SAPE   C2517958   4.269   0.720   4.882 -0.0937 -0.3341 -0.4334
  161SAPE   H5R17959   4.303   0.625   4.839 -1.0873 -0.8581 -0.0975
  161SAPE   C2617960   4.258   0.730   5.019 -0.1926 -0.6483 -0.5497
  161SAPE   H6R17961   4.264   0.642   5.084  0.0089 -1.1362 -1.2148
  161SAPE   C2717962   4.216   0.853   5.106  0.0725  0.2592  0.2798
  161SAPE   H7R17963   4.272   0.942   5.069  0.4402 -0.1692 -0.2198
  161SAPE   H7S17964   4.259   0.844   5.208  0.9971  0.8957 -0.0339
  161SAPE   C2817965   4.071   0.889   5.108 -0.2523  1.1954  0.1129
  161SAPE   H8R17966   4.011   0.861   5.021  1.1650  1.2713 -0.9316
  161SAPE   C2917967   3.993   0.915   5.214 -0.2032  0.2532 -0.6158
  161SAPE   H9R17968   3.895   0.952   5.182 -0.1963  1.9126  1.0806
  161SAPE  C21017969   4.020   0.954   5.353  0.4631  0.2666  0.2392
  161SAPE  H10R17970   3.925   1.002   5.384  1.4543  1.2953  1.8266
  161SAPE  H10S17971   4.094   1.036   5.340  1.3269 -0.6544 -0.9022
  161SAPE  C21117972   4.070   0.849   5.447 -0.2066 -0.1555  0.3760
  161SAPE  H11R17973   4.174   0.819   5.424 -0.0024  1.2450 -0.6363
  161SAPE  C21217974   4.003   0.801   5.551 -0.3133 -0.0796  0.1227
  161SAPE  H12R17975   4.045   0.720   5.612  1.2850 -0.2745 -1.1480
  161SAPE  C21317976   3.855   0.832   5.570 -0.3815  0.0883 -0.0280
  161SAPE  H13R17977   3.797   0.738   5.583  0.5276 -0.3638  0.8306
  161SAPE  H13S17978   3.807   0.888   5.486  0.9369  0.8261 -0.3053
  161SAPE  C21417979   3.846   0.920   5.698 -0.6297  0.6933  0.4149
  161SAPE  H14R17980   3.938   0.978   5.718 -0.2256 -0.4073  1.9502
  161SAPE  C21517981   3.750   0.931   5.785  0.2315  0.5953 -0.1981
  161SAPE  H15R17982   3.759   1.004   5.866  3.2445 -0.5964  0.6603
  161SAPE  C21617983   3.618   0.864   5.786 -0.1359 -0.0114 -0.1490
  161SAPE  H16R17984   3.613   0.765   5.837  1.3899 -0.7268 -1.2848
  161SAPE  H16S17985   3.588   0.839   5.682 -0.7248 -0.2419  0.0740
  161SAPE  C21717986   3.518   0.963   5.845  0.0232  0.6631  0.9429
  161SAPE  H17R17987   3.533   0.999   5.949 -1.0012  1.6869  0.7514
  161SAPE  H17S17988   3.421   0.911   5.859  0.8333 -0.8895  1.0731
  161SAPE  C21817989   3.497   1.078   5.749 -0.0291 -0.9155 -0.1585
  161SAPE  H18R17990   3.475   1.038   5.648 -0.1994  0.8788 -0.8532
  161SAPE  H18S17991   3.584   1.146   5.737  0.1367 -1.2632 -1.0417
  161SAPE  C21917992   3.367   1.164   5.776 -0.3482  0.3819 -0.0046
  161SAPE  H19R17993   3.288   1.087   5.766  1.4790 -1.4784 -0.7768
  161SAPE  H19S17994   3.346   1.235   5.693 -3.9962 -1.5402 -0.9011
  161SAPE  C22017995   3.352   1.227   5.911 -0.0298  0.4090 -0.1086
  161SAPE  H20R17996   3.365   1.142   5.981  1.4989  1.1820  0.5889
  161SAPE  H20S17997   3.256   1.282   5.922  0.5045  0.9928  2.1558
  161SAPE  H20T17998   3.436   1.298   5.921 -0.0829  0.3179  1.2119
  161SAPE   C3317999   4.361   0.329   4.525  0.1378 -0.1402 -0.6047
  161SAPE   H3X18000   4.464   0.335   4.565 -0.6059 -3.6861  2.4542
  161SAPE   H3Y18001   4.363   0.277   4.427 -2.6384 -0.0740 -0.7766
  161SAPE   C3418002   4.285   0.243   4.625 -0.0286 -0.1351  0.7727
  161SAPE   H4X18003   4.323   0.138   4.622  2.4834  0.7480 -0.2173
  161SAPE   H4Y18004   4.176   0.231   4.606 -0.1244 -0.1700  1.3312
  161SAPE   C3518005   4.296   0.293   4.762 -0.5711  0.0287 -1.0041
  161SAPE   H5X18006   4.230   0.382   4.771 -0.2785  0.1733 -0.2355
  161SAPE   H5Y18007   4.397   0.334   4.782 -1.1987  1.5997 -0.8572
  161SAPE   C3618008   4.266   0.192   4.871  0.3062  0.2396  0.1323
  161SAPE   H6X18009   4.349   0.120   4.854  1.1971  0.7935  1.8509
  161SAPE   H6Y18010   4.164   0.153   4.854  0.1401  0.1020  1.3757
  161SAPE   C3718011   4.278   0.232   5.020 -0.4461  0.1799  0.5377
  161SAPE   H7X18012   4.381   0.272   5.035 -0.0036 -0.5093 -0.5307
  161SAPE   H7Y18013   4.257   0.147   5.087  0.4072  0.4329  1.1419
  161SAPE   C3818014   4.182   0.352   5.062  0.2039 -0.2171 -0.1627
  161SAPE   H8X18015   4.078   0.321   5.038  0.1300  0.5266 -0.8190
  161SAPE   H8Y18016   4.211   0.437   4.996  1.6002 -0.0242  0.6664
  161SAPE   C3918017   4.176   0.377   5.210 -0.0214 -0.1574 -0.0262
  161SAPE   H9X18018   4.114   0.297   5.256 -0.2371  0.1716  0.2577
  161SAPE   H9Y18019   4.124   0.474   5.225 -1.2309 -0.5704 -1.2463
  161SAPE  C31018020   4.309   0.392   5.282 -0.3264 -0.5444 -0.3297
  161SAPE  H10X18021   4.374   0.439   5.206 -0.7938 -0.1614 -0.4986
  161SAPE  H10Y18022   4.343   0.288   5.304 -0.9370 -0.5051  0.8625
  161SAPE  C31118023   4.316   0.473   5.407 -0.4050  0.2919  0.1458
  161SAPE  H11X18024   4.288   0.575   5.374  1.6069  1.2795  1.2716
  161SAPE  H11Y18025   4.415   0.475   5.458 -0.2166 -2.1798 -0.0317
  161SAPE  C31218026   4.210   0.436   5.511  0.0533  0.0032 -0.4090
  161SAPE  H12X18027   4.214   0.325   5.525  0.7125 -0.2067 -2.0029
  161SAPE  H12Y18028   4.106   0.459   5.480 -0.8560 -0.6324  1.9374
  161SAPE  C31318029   4.227   0.513   5.645 -0.8905 -0.3776  0.0287
  161SAPE  H13X18030   4.219   0.621   5.620  1.5632 -0.2745 -0.6225
  161SAPE  H13Y18031   4.333   0.488   5.667 -1.2510 -1.9624  0.0953
  161SAPE  C31418032   4.129   0.483   5.759  0.7737 -0.1011  0.4009
  161SAPE  H14X18033   4.125   0.374   5.777 -0.8049  0.1333  1.6760
  161SAPE  H14Y18034   4.036   0.531   5.721 -0.1513 -2.5226 -0.5822
  161SAPE  C31518035   4.167   0.563   5.880  0.2879 -0.1592 -0.1633
  161SAPE  H15X18036   4.158   0.673   5.869  1.9015  0.7310  4.9591
  161SAPE  H15Y18037   4.271   0.533   5.905  1.1298  1.1936 -1.8572
  161SAPE  C31618038   4.069   0.527   6.002 -0.8379 -0.6961  0.2607
  161SAPE  H16X18039   4.107   0.559   6.101  1.4050  0.1167 -0.7908
  161SAPE  H16Y18040   4.067   0.416   6.006 -2.1542 -0.9482 -3.1477
  161SAPE  C31718041   3.927   0.590   5.982 -0.0938 -0.2072  0.1757
  161SAPE  H17X18042   3.860   0.511   5.941  0.2890 -1.6219  2.0849
  161SAPE  H17Y18043   3.916   0.668   5.904  0.8009  1.1694  1.3617
  161SAPE  C31818044   3.849   0.633   6.104 -0.4350  0.1687 -0.0160
  161SAPE  H18X18045   3.740   0.633   6.082 -0.9099 -1.7419  1.8695
  161SAPE  H18Y18046   3.876   0.736   6.135 -0.9623 -0.0148  1.1196
  161SAPE  H18Z18047   3.885   0.568   6.188  0.8357 -1.2703 -1.5926
  162SAPE     N18048   4.567   2.562   4.236 -0.2174  0.4166 -0.7450
  162SAPE   HN118049   4.483   2.559   4.175 -0.4646 -0.0692 -0.3849
  162SAPE   HN218050   4.643   2.633   4.231 -1.5713  1.8468 -2.1296
  162SAPE   HN318051   4.614   2.469   4.241 -0.4397  0.3426  2.4116
  162SAPE   C1218052   4.499   2.569   4.380  0.0892 -0.6590 -0.6482
  162SAPE  H12A18053   4.584   2.586   4.449 -1.8147 -0.5586  1.8111
  162SAPE  H12B18054   4.451   2.472   4.405 -0.8335 -0.0020  0.2252
  162SAPE   C1118055   4.413   2.700   4.391 -0.0501 -0.6080 -0.4563
  162SAPE  H11A18056   4.378   2.700   4.496  0.4783 -2.2352 -0.2586
  162SAPE  H11B18057   4.322   2.684   4.328  0.6639  0.1263 -1.7269
  162SAPE     P18058   4.389   2.946   4.341 -0.0857 -0.0238  0.1684
  162SAPE   O1318059   4.479   3.057   4.305  0.1593 -0.5257 -0.2615
  162SAPE   O1418060   4.285   2.912   4.242 -0.3424  0.2010 -0.5368
  162SAPE   O1218061   4.481   2.819   4.365  0.4914 -0.1873  0.2863
  162SAPE   O1118062   4.327   2.978   4.489 -0.3900  0.4910  0.1902
  162SAPE    C118063   4.429   2.982   4.591  0.3492 -0.1253 -0.1190
  162SAPE    HA18064   4.493   2.891   4.598  0.1012 -0.2062  1.4354
  162SAPE    HB18065   4.503   3.064   4.577  0.7472 -0.2369  1.2233
  162SAPE    C218066   4.366   3.006   4.732  0.6900  0.1712 -0.7508
  162SAPE    HS18067   4.450   3.021   4.804  1.0564  1.9829 -1.4987
  162SAPE   O2118068   4.282   2.890   4.760 -0.1291 -0.2617  0.2359
  162SAPE   C2118069   4.340   2.785   4.823  0.5982  0.1934  0.2831
  162SAPE   O2218070   4.456   2.776   4.844  0.2674  0.2842 -0.7955
  162SAPE   C2218071   4.230   2.691   4.881  0.3108 -0.2972  0.6714
  162SAPE   H2R18072   4.143   2.756   4.905  0.7259  0.5833 -0.1489
  162SAPE   H2S18073   4.189   2.631   4.798 -1.0766  1.8293 -0.2811
  162SAPE    C318074   4.290   3.144   4.748  0.0357  0.4237 -0.0937
  162SAPE    HX18075   4.201   3.128   4.683 -0.7372  1.1656  0.7518
  162SAPE    HY18076   4.360   3.225   4.719  1.3307 -0.2488  1.0498
  162SAPE   O3118077   4.265   3.162   4.887  0.4890 -0.0785 -0.4322
  162SAPE   C3118078   4.154   3.234   4.913 -0.7662  0.8919  0.2842
  162SAPE   O3218079   4.074   3.268   4.826  0.3739 -0.0628 -0.4527
  162SAPE   C3218080   4.137   3.249   5.066 -0.6608 -0.1080 -0.5277
  162SAPE   H2X18081   4.234   3.277   5.112 -1.1179 -2.5351  2.2461
  162SAPE   H2Y18082   4.099   3.155   5.111 -2.3081  0.5749 -0.4377
  162SAPE   C2318083   4.276   2.628   5.009 -0.7693 -0.2036 -1.2702
  162SAPE   H3R18084   4.310   2.709   5.078  1.1927 -0.8283 -1.4389
  162SAPE   H3S18085   4.366   2.564   4.996 -0.3235 -0.0928  0.8802
  162SAPE   C2418086   4.170   2.543   5.093 -1.3964  0.2825  0.0672
  162SAPE   H4R18087   4.095   2.618   5.128 -1.2122  1.5100 -1.9771
  162SAPE   H4S18088   4.217   2.513   5.189 -0.0695  3.3910  0.5280
  162SAPE   C2518089   4.120   2.424   5.010 -0.3399 -0.5165 -0.7840
  162SAPE   H5R18090   4.199   2.383   4.946  0.9243  1.9032 -0.8895
  162SAPE   C2618091   3.994   2.368   5.019 -0.9327  0.4209 -0.3152
  162SAPE   H6R18092   3.977   2.282   4.953  0.3823  0.4319 -0.7113
  162SAPE   C2718093   3.878   2.432   5.091 -0.5623  0.3539  0.4801
  162SAPE   H7R18094   3.796   2.446   5.017 -1.1881 -0.6799  0.9580
  162SAPE   H7S18095   3.898   2.541   5.104 -2.0244  0.9683 -1.7318
  162SAPE   C2818096   3.816   2.364   5.208  0.0539  0.0369 -0.5614
  162SAPE   H8R18097   3.713   2.329   5.192 -0.9713  2.6576 -0.2101
  162SAPE   C2918098   3.872   2.340   5.326 -0.3138 -0.3380  0.1573
  162SAPE   H9R18099   3.807   2.296   5.403 -0.2555 -1.4578 -0.4087
  162SAPE  C21018100   4.005   2.381   5.376  0.2472 -0.1538  0.1923
  162SAPE  H10R18101   4.011   2.492   5.372 -0.1402 -0.1679 -0.8123
  162SAPE  H10S18102   4.082   2.351   5.302  2.5424  3.4401  0.8809
  162SAPE  C21118103   4.043   2.328   5.511  0.3123 -0.0707  0.1579
  162SAPE  H11R18104   4.102   2.235   5.515  0.4826  0.0642  1.0522
  162SAPE  C21218105   4.013   2.394   5.624 -0.4350 -0.1330  0.5437
  162SAPE  H12R18106   4.045   2.346   5.718  2.4977 -2.3925 -1.4515
  162SAPE  C21318107   3.945   2.533   5.631 -0.9744  0.7029  0.3027
  162SAPE  H13R18108   3.871   2.555   5.551  0.1629  1.5395 -0.5583
  162SAPE  H13S18109   4.030   2.599   5.604  0.0361 -0.3568  0.7754
  162SAPE  C21418110   3.884   2.579   5.765 -0.9537 -0.1813  0.0135
  162SAPE  H14R18111   3.786   2.532   5.785  0.4913 -3.4259  0.0657
  162SAPE  C21518112   3.932   2.668   5.860 -0.3297  0.3945  0.3145
  162SAPE  H15R18113   3.876   2.687   5.953 -2.8511  1.8545 -1.4010
  162SAPE  C21618114   4.068   2.755   5.848  0.0758  0.1156  0.5415
  162SAPE  H16R18115   4.131   2.713   5.766 -1.1240 -0.8632  0.0961
  162SAPE  H16S18116   4.117   2.733   5.946  1.1301  1.4606  0.3363
  162SAPE  C21718117   4.025   2.899   5.828  0.3329  0.5954 -0.2838
  162SAPE  H17R18118   3.984   2.934   5.925  2.6648 -1.0587  1.4186
  162SAPE  H17S18119   3.948   2.901   5.748  0.6539 -0.6910 -0.6324
  162SAPE  C21818120   4.143   2.987   5.782 -0.2467  0.4217  0.2888
  162SAPE  H18R18121   4.202   2.919   5.717 -1.7015 -2.0425  1.4004
  162SAPE  H18S18122   4.200   2.986   5.878  1.1590 -0.5855 -0.5081
  162SAPE  C21918123   4.111   3.122   5.730 -0.0869  0.0059  0.3352
  162SAPE  H19R18124   4.056   3.170   5.813 -1.8619 -1.5410  0.1109
  162SAPE  H19S18125   4.032   3.119   5.653 -1.1563  2.3903  1.2565
  162SAPE  C22018126   4.233   3.199   5.679  0.2006 -0.2258  0.1574
  162SAPE  H20R18127   4.292   3.131   5.614  0.3101 -0.8444  0.8968
  162SAPE  H20S18128   4.297   3.236   5.762  0.6876 -1.4146  0.3257
  162SAPE  H20T18129   4.193   3.286   5.622 -1.2640 -1.5260 -0.8822
  162SAPE   C3318130   4.020   3.335   5.110  0.6166  1.2918  0.8161
  162SAPE   H3X18131   3.922   3.313   5.061 -0.4449 -0.4750  3.4963
  162SAPE   H3Y18132   4.047   3.439   5.083  2.9583  0.4936 -0.1526
  162SAPE   C3418133   4.001   3.311   5.262  0.0827 -0.6862 -0.1934
  162SAPE   H4X18134   4.096   3.271   5.302 -0.3347 -1.6339 -0.1283
  162SAPE   H4Y18135   3.933   3.228   5.290 -0.9967  0.2885  0.1613
  162SAPE   C3518136   3.963   3.447   5.329 -0.1039 -0.6635 -0.8678
  162SAPE   H5X18137   3.878   3.485   5.268 -0.3915  3.2973  1.6766
  162SAPE   H5Y18138   4.052   3.513   5.317  0.4143 -1.1643  0.0958
  162SAPE   C3618139   3.923   3.444   5.475  0.0342 -0.9922  0.4991
  162SAPE   H6X18140   3.896   3.546   5.510 -1.9585 -0.9367 -1.0356
  162SAPE   H6Y18141   4.005   3.414   5.543  2.4851  0.5693 -1.5682
  162SAPE   C3718142   3.802   3.351   5.488 -0.3314  0.7180 -0.3616
  162SAPE   H7X18143   3.848   3.255   5.458 -0.2656  0.8086 -0.5536
  162SAPE   H7Y18144   3.711   3.381   5.430 -2.0414 -0.9410  1.3274
  162SAPE   C3818145   3.758   3.332   5.638  0.9154 -0.4053  0.6738
  162SAPE   H8X18146   3.700   3.417   5.680 -0.1844  0.2481 -1.9959
  162SAPE   H8Y18147   3.845   3.327   5.708 -1.0742  1.8417  3.5568
  162SAPE   C3918148   3.686   3.196   5.663  0.2729 -0.4374 -0.1472
  162SAPE   H9X18149   3.749   3.107   5.643 -0.1965 -0.8686  0.2823
  162SAPE   H9Y18150   3.607   3.185   5.586 -0.5196 -1.8627  0.8356
  162SAPE  C31018151   3.629   3.181   5.800 -0.9885  0.0043 -0.1422
  162SAPE  H10X18152   3.544   3.110   5.804 -0.1796 -0.9073  2.1540
  162SAPE  H10Y18153   3.600   3.279   5.845 -1.9524 -0.6298  0.6643
  162SAPE  C31118154   3.729   3.123   5.903  0.1460 -0.0378  0.2611
  162SAPE  H11X18155   3.810   3.199   5.900 -1.1901  1.5722  2.2035
  162SAPE  H11Y18156   3.765   3.024   5.868 -0.2901 -0.0400 -0.1906
  162SAPE  C31218157   3.697   3.123   6.057 -0.0990  0.2771  0.0854
  162SAPE  H12X18158   3.597   3.073   6.054 -0.8011  1.5521  1.0441
  162SAPE  H12Y18159   3.678   3.225   6.095  1.3195  0.6533 -0.1676
  162SAPE  C31318160   3.800   3.070   6.159  0.2644  0.2082 -0.3935
  162SAPE  H13X18161   3.875   3.149   6.184  0.3383 -0.3792  1.4016
  162SAPE  H13Y18162   3.848   2.978   6.119  5.0267  2.6841 -1.1340
  162SAPE  C31418163   3.740   3.048   6.294  1.0011  0.3702  0.3745
  162SAPE  H14X18164   3.658   2.976   6.276  2.0659 -1.1177  1.2007
  162SAPE  H14Y18165   3.693   3.141   6.333  0.8973 -0.1991  1.6543
  162SAPE  C31518166   3.835   2.990   6.398 -0.0992  0.8868 -0.5137
  162SAPE  H15X18167   3.920   3.061   6.401  0.7366  0.1192 -2.9704
  162SAPE  H15Y18168   3.871   2.890   6.365 -2.0161  0.0763 -0.3218
  162SAPE  C31618169   3.764   2.963   6.533  0.3388  0.3843 -0.5150
  162SAPE  H16X18170   3.688   2.882   6.523  0.6778  0.1497 -1.3260
  162SAPE  H16Y18171   3.716   3.055   6.570  0.2136 -0.8763  2.7633
  162SAPE  C31718172   3.864   2.930   6.646 -0.3212  0.1117  0.0328
  162SAPE  H17X18173   3.961   2.976   6.621 -0.9657  1.0470 -0.8191
  162SAPE  H17Y18174   3.890   2.822   6.642  1.2008  0.3666  1.7211
  162SAPE  C31818175   3.813   2.957   6.783  0.8043  0.0157 -0.0349
  162SAPE  H18X18176   3.813   3.067   6.798  1.5992  0.2116 -1.3370
  162SAPE  H18Y18177   3.881   2.917   6.861 -0.4184  0.5052  1.3253
  162SAPE  H18Z18178   3.711   2.918   6.804  0.5843  1.3323  1.5484
  163SAPE     N18179   5.748   3.044   4.125 -0.1200 -0.5712 -0.1276
  163SAPE   HN118180   5.741   3.092   4.032  0.7992  0.7084  0.4440
  163SAPE   HN218181   5.839   3.075   4.164 -0.3754  0.7724 -0.5277
  163SAPE   HN318182   5.743   2.943   4.103 -2.7230  0.1642 -4.1835
  163SAPE   C1218183   5.646   3.102   4.218 -0.1282  0.2700 -0.0127
  163SAPE  H12A18184   5.661   3.210   4.241 -2.1275  0.5124  0.3275
  163SAPE  H12B18185   5.645   3.056   4.319 -0.1485  0.9545  0.3053
  163SAPE   C1118186   5.505   3.102   4.159  0.2212 -0.1993 -0.1417
  163SAPE  H11A18187   5.506   3.171   4.072 -1.3296  2.0782  1.5404
  163SAPE  H11B18188   5.436   3.153   4.229 -1.9973 -1.6608 -1.1579
  163SAPE     P18189   5.307   2.943   4.101  0.0822  0.3665  0.2227
  163SAPE   O1318190   5.242   3.061   4.038  0.1094  0.0390 -0.2239
  163SAPE   O1418191   5.290   2.815   4.030  0.1091 -0.0430 -0.0915
  163SAPE   O1218192   5.461   2.967   4.122 -0.2133  0.2140  0.2501
  163SAPE   O1118193   5.251   2.934   4.252  0.0818 -0.0806 -0.0684
  163SAPE    C118194   5.302   2.823   4.333  0.3786 -1.4233 -0.1607
  163SAPE    HA18195   5.240   2.731   4.328 -2.6123  0.3406  1.5732
  163SAPE    HB18196   5.407   2.798   4.306  1.2359  1.5035  0.0869
  163SAPE    C218197   5.305   2.868   4.483 -0.0611 -0.0610  0.2192
  163SAPE    HS18198   5.384   2.814   4.540  0.8498  1.6791  0.6901
  163SAPE   O2118199   5.172   2.860   4.538 -0.4118  0.2261  0.3279
  163SAPE   C2118200   5.130   2.747   4.591 -0.0951  0.1138 -0.1241
  163SAPE   O2218201   5.196   2.642   4.599 -0.3748  0.0375  0.0205
  163SAPE   C2218202   4.989   2.764   4.642 -0.2458  0.7708 -0.2500
  163SAPE   H2R18203   4.924   2.787   4.555  1.4438  0.2827 -1.6918
  163SAPE   H2S18204   4.959   2.666   4.685 -3.0660  2.4458  2.0375
  163SAPE    C318205   5.360   3.013   4.493 -0.0400 -0.5753 -1.0310
  163SAPE    HX18206   5.296   3.084   4.437 -0.4931  1.0753  1.4299
  163SAPE    HY18207   5.464   3.013   4.455  0.6049  1.4858  0.5634
  163SAPE   O3118208   5.356   3.047   4.632  0.6166  0.5887 -0.3657
  163SAPE   C3118209   5.260   3.118   4.681  0.2447 -0.0449  0.8213
  163SAPE   O3218210   5.153   3.151   4.630  0.3292  0.1618  0.4602
  163SAPE   C3218211   5.309   3.171   4.817  0.0461  0.2116  0.4542
  163SAPE   H2X18212   5.250   3.260   4.848 -1.0677 -1.3876  3.2820
  163SAPE   H2Y18213   5.413   3.207   4.801 -0.4720  0.5747 -2.5125
  163SAPE   C2318214   4.976   2.866   4.760  0.7815 -0.8104  0.0194
  163SAPE   H3R18215   4.990   2.968   4.719 -2.8963 -0.2371 -0.1621
  163SAPE   H3S18216   5.049   2.841   4.840  2.6769  1.2744 -0.9466
  163SAPE   C2418217   4.829   2.859   4.818  0.2684  0.0654 -0.6597
  163SAPE   H4R18218   4.816   2.755   4.855 -0.0730 -0.0287 -1.0423
  163SAPE   H4S18219   4.756   2.888   4.740  2.1161 -0.6984 -2.7724
  163SAPE   C2518220   4.832   2.958   4.932  0.1145  0.1695 -0.1717
  163SAPE   H5R18221   4.851   2.918   5.033  1.9437  0.4426 -0.3698
  163SAPE   C2618222   4.792   3.085   4.924  0.1211 -0.1657  0.0179
  163SAPE   H6R18223   4.791   3.141   5.018  2.8012  0.1940 -0.0886
  163SAPE   C2718224   4.752   3.163   4.800 -0.3726 -0.5281 -0.5214
  163SAPE   H7R18225   4.655   3.137   4.753 -1.1071  0.6849  0.2621
  163SAPE   H7S18226   4.826   3.136   4.722 -0.7820 -1.0045 -0.7511
  163SAPE   C2818227   4.780   3.317   4.824 -0.8274 -0.0686  0.1049
  163SAPE   H8R18228   4.875   3.352   4.779 -0.2366  0.3751  1.6415
  163SAPE   C2918229   4.710   3.406   4.901 -0.8782  0.0267  0.3955
  163SAPE   H9R18230   4.735   3.513   4.910 -0.0005 -0.0256 -1.0903
  163SAPE  C21018231   4.589   3.369   4.979  0.9250 -0.3736  0.1553
  163SAPE  H10R18232   4.622   3.349   5.083  3.0190 -1.0491 -0.5805
  163SAPE  H10S18233   4.551   3.272   4.940 -1.0235  1.1387 -2.0363
  163SAPE  C21118234   4.478   3.464   4.969  0.4822 -0.1334 -0.1974
  163SAPE  H11R18235   4.459   3.506   4.870 -2.6082 -2.3824 -0.7116
  163SAPE  C21218236   4.409   3.519   5.071  1.0287  0.0909 -0.0686
  163SAPE  H12R18237   4.330   3.591   5.045  0.4151 -0.6214 -0.2219
  163SAPE  C21318238   4.417   3.497   5.212  0.2968  0.0109  0.3967
  163SAPE  H13R18239   4.489   3.414   5.229  0.3774 -0.1110 -0.4730
  163SAPE  H13S18240   4.320   3.475   5.261  0.6952  0.9759  1.6484
  163SAPE  C21418241   4.481   3.621   5.273  0.1652 -0.7082 -0.1496
  163SAPE  H14R18242   4.577   3.654   5.231 -1.0707  0.0296 -2.5915
  163SAPE  C21518243   4.424   3.705   5.364 -0.9408  0.0205 -0.0351
  163SAPE  H15R18244   4.484   3.792   5.392 -0.2808 -0.5746  0.4637
  163SAPE  C21618245   4.279   3.708   5.416 -0.2446 -0.2570 -0.0361
  163SAPE  H16R18246   4.214   3.654   5.344 -0.7401  0.0808  0.1568
  163SAPE  H16S18247   4.233   3.809   5.414  0.1452 -0.0819 -1.2237
  163SAPE  C21718248   4.248   3.637   5.546 -0.2865  0.4751 -0.5232
  163SAPE  H17R18249   4.266   3.528   5.540 -0.0372  0.4692  0.2401
  163SAPE  H17S18250   4.139   3.645   5.562 -0.7550 -1.5361 -2.2622
  163SAPE  C21818251   4.327   3.693   5.657 -0.3789 -0.2385  0.4361
  163SAPE  H18R18252   4.293   3.798   5.672 -1.4143 -0.8403  2.6416
  163SAPE  H18S18253   4.437   3.688   5.640 -0.6562 -0.7509 -1.4472
  163SAPE  C21918254   4.313   3.607   5.783  0.2594  0.1719  0.2850
  163SAPE  H19R18255   4.385   3.625   5.865 -0.1875  0.1708  0.6832
  163SAPE  H19S18256   4.359   3.513   5.745  0.5682  0.5320 -0.2453
  163SAPE  C22018257   4.175   3.578   5.837  0.5534 -0.1001  0.5348
  163SAPE  H20R18258   4.131   3.666   5.890 -0.1359  0.6700 -1.2520
  163SAPE  H20S18259   4.178   3.495   5.911  2.0226 -0.4266  0.1393
  163SAPE  H20T18260   4.104   3.549   5.757 -1.9270  1.7611  1.9065
  163SAPE   C3318261   5.290   3.055   4.924  0.0916  0.1092 -0.0138
  163SAPE   H3X18262   5.391   3.031   4.962 -0.3761 -1.9689  0.0520
  163SAPE   H3Y18263   5.264   2.960   4.874  0.1927  0.6993 -1.2185
  163SAPE   C3418264   5.189   3.096   5.024  0.4806  0.7051 -0.3495
  163SAPE   H4X18265   5.101   3.130   4.965 -1.3249 -1.4898  0.9239
  163SAPE   H4Y18266   5.229   3.181   5.084 -2.1923  1.3836  0.6028
  163SAPE   C3518267   5.134   2.982   5.115 -0.0580 -0.0179 -0.4934
  163SAPE   H5X18268   5.222   2.935   5.163 -0.5322  1.4325  2.0259
  163SAPE   H5Y18269   5.078   2.905   5.058 -0.2883 -0.1497 -0.0900
  163SAPE   C3618270   5.052   3.055   5.229  0.1819  1.0331  0.0365
  163SAPE   H6X18271   4.958   3.093   5.185 -0.9634 -1.9105 -0.2836
  163SAPE   H6Y18272   5.104   3.147   5.264  0.4778  1.0563 -0.4507
  163SAPE   C3718273   5.018   2.963   5.344  0.7308  0.0176 -0.7062
  163SAPE   H7X18274   5.112   2.943   5.400  0.9328  1.1763 -0.6063
  163SAPE   H7Y18275   4.989   2.863   5.304  2.5789 -0.3185 -1.3116
  163SAPE   C3818276   4.907   3.020   5.438  0.5973  0.7399 -0.5671
  163SAPE   H8X18277   4.811   3.036   5.384  0.5202  1.1678 -0.3067
  163SAPE   H8Y18278   4.937   3.120   5.476 -0.2754  0.2548  1.5219
  163SAPE   C3918279   4.878   2.928   5.557 -0.2309  0.1810 -0.8875
  163SAPE   H9X18280   4.963   2.920   5.628  0.0878  1.3682 -1.1232
  163SAPE   H9Y18281   4.842   2.829   5.521 -3.8660  1.0220  0.0361
  163SAPE  C31018282   4.760   2.987   5.624 -0.6298 -0.3431 -0.4302
  163SAPE  H10X18283   4.686   3.030   5.553 -0.1419  0.1268 -0.6580
  163SAPE  H10Y18284   4.799   3.054   5.704 -2.4401 -2.4933  2.4787
  163SAPE  C31118285   4.671   2.883   5.697  0.4117 -0.2531  0.1923
  163SAPE  H11X18286   4.718   2.837   5.786  1.0229  1.1012  0.5954
  163SAPE  H11Y18287   4.641   2.801   5.629 -1.9591 -2.2039  3.3666
  163SAPE  C31218288   4.541   2.944   5.760 -0.4630  0.7477 -0.3601
  163SAPE  H12X18289   4.462   2.866   5.770  1.9386 -1.8928 -0.4830
  163SAPE  H12Y18290   4.487   3.013   5.692 -0.9668  0.5697 -0.1456
  163SAPE  C31318291   4.578   3.014   5.895 -0.2696  0.7473  0.1836
  163SAPE  H13X18292   4.643   3.102   5.874  0.7396 -0.0026  0.1129
  163SAPE  H13Y18293   4.638   2.948   5.962  1.1977  1.9137  0.0905
  163SAPE  C31418294   4.448   3.075   5.955  0.2019  0.2720 -0.0273
  163SAPE  H14X18295   4.379   2.988   5.966  0.9381 -0.9404 -3.5547
  163SAPE  H14Y18296   4.396   3.154   5.898  0.1451  1.2662  1.3592
  163SAPE  C31518297   4.468   3.131   6.101 -0.0415  0.5550 -0.2046
  163SAPE  H15X18298   4.560   3.193   6.100  0.5274 -0.2829 -1.4531
  163SAPE  H15Y18299   4.485   3.043   6.168 -0.1924 -0.1835 -1.1173
  163SAPE  C31618300   4.354   3.227   6.136  0.5674  0.2506  0.1432
  163SAPE  H16X18301   4.259   3.170   6.121  0.6605  0.1006  0.1176
  163SAPE  H16Y18302   4.357   3.315   6.069  1.6611  1.0241  1.1884
  163SAPE  C31718303   4.343   3.257   6.282  0.4833 -0.1948 -0.1173
  163SAPE  H17X18304   4.439   3.305   6.309 -0.1490  0.6444  0.7015
  163SAPE  H17Y18305   4.336   3.166   6.345  2.5391 -0.5259 -0.3192
  163SAPE  C31818306   4.231   3.359   6.307  1.0518  0.0470  0.2558
  163SAPE  H18X18307   4.251   3.445   6.241 -0.1964  1.2840  1.4394
  163SAPE  H18Y18308   4.232   3.397   6.411 -0.4832 -0.9455  0.6661
  163SAPE  H18Z18309   4.135   3.308   6.287  0.5376  0.4888  1.4949
  164SAPE     N18310   6.004   2.154   4.538  0.6072 -0.4970  0.1308
  164SAPE   HN118311   5.943   2.127   4.618 -0.9826  0.9731 -0.5182
  164SAPE   HN218312   6.022   2.256   4.535 -0.8181 -0.2295 -0.0691
  164SAPE   HN318313   5.950   2.132   4.451  2.9207  0.0011 -1.5196
  164SAPE   C1218314   6.125   2.068   4.541  0.4052  1.2022 -0.3993
  164SAPE  H12A18315   6.163   2.068   4.646 -0.0364 -0.1022 -0.2188
  164SAPE  H12B18316   6.206   2.119   4.483  0.4098  3.1007  1.1698
  164SAPE   C1118317   6.095   1.922   4.500 -0.4647  0.1838 -0.1461
  164SAPE  H11A18318   6.191   1.873   4.529 -0.1382  1.0069  0.2084
  164SAPE  H11B18319   6.084   1.939   4.391  4.0129 -0.1097 -0.8533
  164SAPE     P18320   5.965   1.698   4.517 -0.2108 -0.3157  0.2220
  164SAPE   O1318321   5.863   1.642   4.605  0.4289 -0.5997  0.2735
  164SAPE   O1418322   5.944   1.691   4.371 -0.0438 -0.3111 -0.3283
  164SAPE   O1218323   5.986   1.852   4.562  0.2419 -0.6013  0.5828
  164SAPE   O1118324   6.112   1.638   4.552 -0.4972  0.3185  0.3890
  164SAPE    C118325   6.134   1.593   4.690  0.2473  0.0948  0.4624
  164SAPE    HA18326   6.040   1.571   4.745 -0.2721 -0.8666 -0.7868
  164SAPE    HB18327   6.203   1.506   4.691  1.7047  1.1999  0.2506
  164SAPE    C218328   6.203   1.705   4.774 -0.2081  0.2166  0.3782
  164SAPE    HS18329   6.163   1.803   4.740  0.3733  1.0530  2.0247
  164SAPE   O2118330   6.342   1.700   4.743 -0.1999  0.2793  0.2051
  164SAPE   C2118331   6.421   1.803   4.744  0.7619 -0.7314 -0.3940
  164SAPE   O2218332   6.395   1.920   4.774 -0.2009 -0.2567  0.0136
  164SAPE   C2218333   6.563   1.767   4.701  0.4686  0.1349 -0.1598
  164SAPE   H2R18334   6.603   1.684   4.763  2.3482  2.0555  1.3454
  164SAPE   H2S18335   6.551   1.747   4.593 -2.1232  1.4083 -0.1823
  164SAPE    C318336   6.193   1.676   4.924  0.3148  0.6936  0.1065
  164SAPE    HX18337   6.247   1.752   4.984  4.2005 -1.7773  0.0740
  164SAPE    HY18338   6.242   1.578   4.945 -2.3807 -0.8265 -0.2240
  164SAPE   O3118339   6.055   1.676   4.964  0.3106  0.7830  0.2960
  164SAPE   C3118340   6.040   1.622   5.085  0.3522 -0.4717 -0.5969
  164SAPE   O3218341   6.134   1.598   5.157  0.2274  0.5609 -0.0369
  164SAPE   C3218342   5.896   1.616   5.124 -0.1857  0.2133  0.2687
  164SAPE   H2X18343   5.849   1.523   5.087 -1.1212  1.0777 -0.8191
  164SAPE   H2Y18344   5.837   1.689   5.065 -0.1590 -1.3399 -1.7747
  164SAPE   C2318345   6.663   1.882   4.717 -0.0283 -0.2819  0.3444
  164SAPE   H3R18346   6.673   1.933   4.816  2.2300  3.0359 -1.3649
  164SAPE   H3S18347   6.635   1.964   4.647  0.6311  0.2666  0.6952
  164SAPE   C2418348   6.807   1.832   4.678  0.6579 -0.1038  0.5127
  164SAPE   H4R18349   6.869   1.924   4.679 -0.2014  0.5612 -1.5572
  164SAPE   H4S18350   6.811   1.792   4.575  1.9524  0.3785  0.3607
  164SAPE   C2518351   6.865   1.723   4.769 -0.1950 -0.4809  1.1203
  164SAPE   H5R18352   6.847   1.617   4.745 -1.1680 -0.0519 -0.1700
  164SAPE   C2618353   6.910   1.758   4.890 -0.0066  1.0714 -0.2900
  164SAPE   H6R18354   6.932   1.671   4.954  1.0890  1.5402 -0.0089
  164SAPE   C2718355   6.914   1.892   4.960  0.1357 -0.2094  0.2366
  164SAPE   H7R18356   6.814   1.906   5.005 -0.2765  0.4268 -0.8318
  164SAPE   H7S18357   6.901   1.977   4.889 -0.9376  0.9002  1.7030
  164SAPE   C2818358   7.016   1.907   5.063  0.2386  0.5536 -0.9169
  164SAPE   H8R18359   7.114   1.901   5.014 -0.3939  0.5658 -2.2180
  164SAPE   C2918360   7.005   1.951   5.190 -0.5092 -0.2423  0.6240
  164SAPE   H9R18361   7.095   1.945   5.253  0.4634 -1.7912 -0.8154
  164SAPE  C21018362   6.873   1.968   5.258 -0.0432 -0.0462  0.3805
  164SAPE  H10R18363   6.805   1.881   5.245 -1.0269  1.0665 -2.9427
  164SAPE  H10S18364   6.817   2.048   5.204 -0.7334 -0.3839  0.5767
  164SAPE  C21118365   6.879   2.011   5.405 -0.0798 -0.4255  0.3472
  164SAPE  H11R18366   6.846   1.925   5.465  1.1726 -1.5342 -0.4946
  164SAPE  C21218367   6.920   2.122   5.466  0.0077 -0.3924 -0.7337
  164SAPE  H12R18368   6.904   2.125   5.575 -2.1516  1.1924 -1.0336
  164SAPE  C21318369   6.973   2.240   5.397  0.0783  0.5557 -0.2069
  164SAPE  H13R18370   6.905   2.328   5.399 -1.2477 -0.4556  0.3162
  164SAPE  H13S18371   6.996   2.227   5.289  0.0819 -1.6216  0.0173
  164SAPE  C21418372   7.101   2.277   5.472  0.2384 -0.1870  0.8067
  164SAPE  H14R18373   7.179   2.200   5.467 -1.4740 -1.9771 -0.5012
  164SAPE  C21518374   7.127   2.388   5.546 -0.7407 -0.7223  0.6172
  164SAPE  H15R18375   7.221   2.387   5.603 -1.2283 -0.7991  1.4244
  164SAPE  C21618376   7.056   2.514   5.547  1.0672 -0.1632  0.2626
  164SAPE  H16R18377   6.979   2.508   5.468  0.8357 -1.4635  0.5745
  164SAPE  H16S18378   7.116   2.604   5.521 -0.5066  1.3827  1.7660
  164SAPE  C21718379   6.985   2.568   5.680  0.5800  0.3081 -0.5795
  164SAPE  H17R18380   6.906   2.498   5.715  0.6928  0.1660 -0.6099
  164SAPE  H17S18381   6.932   2.663   5.654  1.0324  0.8027  0.2834
  164SAPE  C21818382   7.081   2.591   5.795 -0.1831  0.2847 -0.3413
  164SAPE  H18R18383   7.171   2.637   5.749 -0.1571  0.0762 -0.5055
  164SAPE  H18S18384   7.117   2.492   5.832  0.2110 -0.7325 -3.1761
  164SAPE  C21918385   7.029   2.672   5.915 -0.4108 -0.2355 -0.0669
  164SAPE  H19R18386   6.927   2.636   5.944 -0.6916 -0.5281 -1.3801
  164SAPE  H19S18387   7.003   2.774   5.879 -1.1357 -0.2703  0.3194
  164SAPE  C22018388   7.129   2.679   6.025 -0.4378  0.2226  0.3694
  164SAPE  H20R18389   7.079   2.736   6.106 -0.1785 -0.5455  1.0822
  164SAPE  H20S18390   7.234   2.710   6.004 -0.1217 -0.6076  0.6510
  164SAPE  H20T18391   7.149   2.579   6.070 -0.0734 -0.0748 -0.4354
  164SAPE   C3318392   5.883   1.611   5.276 -0.5627 -0.1733  0.0374
  164SAPE   H3X18393   5.938   1.697   5.321  0.0820 -0.1974 -0.6851
  164SAPE   H3Y18394   5.925   1.518   5.320  0.6897 -0.2145 -1.1655
  164SAPE   C3418395   5.737   1.600   5.316 -0.3672 -0.3896 -0.2787
  164SAPE   H4X18396   5.707   1.495   5.296 -0.8034 -0.3708  0.2297
  164SAPE   H4Y18397   5.677   1.672   5.257  0.1778 -0.5392 -1.0208
  164SAPE   C3518398   5.713   1.642   5.463 -0.0961 -0.6938 -0.1479
  164SAPE   H5X18399   5.607   1.625   5.492 -1.1892  1.0601 -2.7568
  164SAPE   H5Y18400   5.735   1.751   5.475  0.4545 -0.8809  0.6796
  164SAPE   C3618401   5.790   1.567   5.577 -0.0781  0.3639 -0.7128
  164SAPE   H6X18402   5.892   1.604   5.595 -0.1082  0.2255 -0.2598
  164SAPE   H6Y18403   5.814   1.470   5.527  1.2628  1.3404 -2.0347
  164SAPE   C3718404   5.714   1.529   5.704  1.0215 -1.1137 -0.2309
  164SAPE   H7X18405   5.771   1.450   5.758  0.0593 -0.5193  1.7218
  164SAPE   H7Y18406   5.617   1.488   5.668  1.7551 -2.2053 -1.0241
  164SAPE   C3818407   5.673   1.647   5.800  0.1664  1.1081  0.2509
  164SAPE   H8X18408   5.583   1.702   5.769 -1.3786 -1.0326  0.7018
  164SAPE   H8Y18409   5.768   1.704   5.801  0.3278  0.8400  0.6761
  164SAPE   C3918410   5.641   1.606   5.947  0.0793 -0.1416  0.8569
  164SAPE   H9X18411   5.734   1.577   6.000  0.0190  3.3851  3.1717
  164SAPE   H9Y18412   5.578   1.516   5.932  0.5240 -0.0339 -2.2501
  164SAPE  C31018413   5.546   1.701   6.020  0.3645  0.1321  1.0242
  164SAPE  H10X18414   5.489   1.655   6.104  1.9662 -1.4841  1.3147
  164SAPE  H10Y18415   5.466   1.726   5.948  0.8192  0.7965  0.7368
  164SAPE  C31118416   5.616   1.832   6.057  0.0757  0.2754  0.1993
  164SAPE  H11X18417   5.673   1.872   5.970  0.1899 -1.0431 -0.3570
  164SAPE  H11Y18418   5.703   1.818   6.126 -1.5940 -0.9602  2.1435
  164SAPE  C31218419   5.527   1.939   6.121 -0.5754  0.1743  1.0958
  164SAPE  H12X18420   5.433   1.960   6.066 -1.0963 -1.0564  1.4817
  164SAPE  H12Y18421   5.583   2.034   6.133 -0.5189  0.0234  2.1016
  164SAPE  C31318422   5.476   1.897   6.261 -0.0953 -0.7408  0.0479
  164SAPE  H13X18423   5.563   1.853   6.313 -0.4781  0.1080  1.4736
  164SAPE  H13Y18424   5.411   1.807   6.261 -1.1289 -0.0351  1.3955
  164SAPE  C31418425   5.417   2.013   6.335  0.0808  0.0931  0.5996
  164SAPE  H14X18426   5.340   2.068   6.276  0.1024 -0.5468 -0.0317
  164SAPE  H14Y18427   5.492   2.093   6.352 -0.1894  0.5867 -0.4776
  164SAPE  C31518428   5.342   1.973   6.470  0.1602 -0.0491  0.5321
  164SAPE  H15X18429   5.426   1.945   6.537  0.8322 -0.6284 -0.5245
  164SAPE  H15Y18430   5.274   1.887   6.453  0.5612  0.0495 -1.7898
  164SAPE  C31618431   5.248   2.083   6.528 -0.4847 -0.5672 -0.1930
  164SAPE  H16X18432   5.171   2.025   6.582 -0.4242  0.4755  1.0594
  164SAPE  H16Y18433   5.217   2.143   6.440  0.3823  1.9655  1.1311
  164SAPE  C31718434   5.321   2.183   6.626 -0.3722 -0.4116 -0.0745
  164SAPE  H17X18435   5.386   2.244   6.560  0.6864 -1.1694  0.2455
  164SAPE  H17Y18436   5.383   2.116   6.690 -0.0897 -2.2736 -2.1781
  164SAPE  C31818437   5.231   2.266   6.724  0.0607  0.4313 -0.2324
  164SAPE  H18X18438   5.145   2.199   6.744  0.1589  0.4329  0.1920
  164SAPE  H18Y18439   5.196   2.361   6.679  0.9307  0.2610 -1.3335
  164SAPE  H18Z18440   5.275   2.282   6.825  1.3893  1.8168 -0.9736
  165SAPE     N18441   0.317   2.459   4.102 -0.8235 -0.0409 -0.3489
  165SAPE   HN118442   0.304   2.362   4.138 -1.6824  0.8801  1.9906
  165SAPE   HN218443   0.393   2.453   4.032 -1.0289 -2.8522 -0.4578
  165SAPE   HN318444   0.341   2.526   4.177  0.2790 -0.7164 -0.0775
  165SAPE   C1218445   0.194   2.501   4.029 -0.3096  0.0006  0.3874
  165SAPE  H12A18446   0.188   2.444   3.934  0.1236 -0.4445  0.6235
  165SAPE  H12B18447   0.197   2.612   4.016  0.0307 -0.1837 -1.2474
  165SAPE   C1118448   0.072   2.460   4.109  0.7087  0.1819 -0.7141
  165SAPE  H11A18449  -0.013   2.484   4.041  1.0821 -0.8229 -1.5608
  165SAPE  H11B18450   0.059   2.510   4.207  2.9038  0.5864 -0.5778
  165SAPE     P18451   0.098   2.234   4.258 -0.3597  0.0809  0.3985
  165SAPE   O1318452   0.014   2.110   4.253 -0.4690  0.1607  0.6452
  165SAPE   O1418453   0.244   2.222   4.265 -0.3300 -0.5258 -0.3958
  165SAPE   O1218454   0.071   2.311   4.117 -0.3948 -0.4480 -0.2619
  165SAPE   O1118455   0.043   2.335   4.366  0.0698 -0.3824 -0.1490
  165SAPE    C118456   0.090   2.351   4.497 -0.0354  0.2629 -0.0087
  165SAPE    HA18457   0.200   2.349   4.508 -0.2587  0.8935  3.1350
  165SAPE    HB18458   0.055   2.449   4.537 -3.4661 -1.2121  0.9623
  165SAPE    C218459   0.022   2.254   4.601 -0.9598 -0.4283  0.0352
  165SAPE    HS18460   0.060   2.293   4.698  2.2485  0.2822 -1.3846
  165SAPE   O2118461   0.068   2.120   4.583  0.0529 -0.1334  0.4667
  165SAPE   C2118462   0.196   2.098   4.617  0.2708 -0.2902 -0.6084
  165SAPE   O2218463   0.264   2.180   4.679 -0.4253  0.1078 -0.4269
  165SAPE   C2218464   0.239   1.957   4.578 -0.0783 -0.0781  0.4011
  165SAPE   H2R18465   0.151   1.892   4.600  1.0436 -1.3074  1.4324
  165SAPE   H2S18466   0.247   1.971   4.469  0.0894 -1.0957  0.2697
  165SAPE    C318467  -0.132   2.252   4.604  0.3939 -0.7217  0.1176
  165SAPE    HX18468  -0.160   2.191   4.693  3.6059 -0.7757  1.2183
  165SAPE    HY18469  -0.175   2.205   4.512  0.9821  0.4034 -0.7547
  165SAPE   O3118470  -0.178   2.380   4.626  0.2400  0.6021  0.5083
  165SAPE   C3118471  -0.296   2.400   4.585  0.0187 -1.2867 -0.2078
  165SAPE   O3218472  -0.379   2.326   4.542  0.1830  0.0799  0.2852
  165SAPE   C3218473  -0.323   2.557   4.592  0.0907  0.2847  0.6830
  165SAPE   H2X18474  -0.390   2.587   4.509  2.0217 -0.0157 -1.0486
  165SAPE   H2Y18475  -0.221   2.600   4.581  0.3111 -0.3412  0.2154
  165SAPE   C2318476   0.370   1.900   4.652  0.0151 -0.3295  0.1873
  165SAPE   H3R18477   0.449   1.977   4.639  2.6587 -2.9272 -0.2380
  165SAPE   H3S18478   0.407   1.809   4.600 -0.0795  0.3740 -1.1586
  165SAPE   C2418479   0.345   1.882   4.801  0.6020 -0.6338 -0.8244
  165SAPE   H4R18480   0.254   1.821   4.821  1.2885 -1.1260  0.9647
  165SAPE   H4S18481   0.332   1.983   4.843  2.9194 -0.8064  0.4728
  165SAPE   C2518482   0.460   1.803   4.860 -0.1253 -0.2338  0.0676
  165SAPE   H5R18483   0.510   1.733   4.791 -0.6952 -0.9897  0.4101
  165SAPE   C2618484   0.528   1.825   4.974 -0.1858 -0.1511  0.4445
  165SAPE   H6R18485   0.602   1.751   5.008 -1.7239 -1.3458  1.2753
  165SAPE   C2718486   0.485   1.929   5.074  0.2027  0.4665 -0.5412
  165SAPE   H7R18487   0.434   1.877   5.158  1.4891  1.2833  0.7764
  165SAPE   H7S18488   0.417   2.010   5.039 -0.8022  0.0203  0.3266
  165SAPE   C2818489   0.605   1.999   5.121  0.0325 -0.5866 -0.3242
  165SAPE   H8R18490   0.698   1.991   5.062  1.1906  0.7211  1.2099
  165SAPE   C2918491   0.625   2.047   5.253 -0.6424  0.1542  0.6161
  165SAPE   H9R18492   0.726   2.084   5.274 -0.3962  0.2320 -0.6136
  165SAPE  C21018493   0.521   2.079   5.361  0.4646  0.4028 -0.0724
  165SAPE  H10R18494   0.423   2.034   5.335  0.1722  1.5863 -1.1371
  165SAPE  H10S18495   0.489   2.185   5.350 -2.1984 -0.5011 -2.0991
  165SAPE  C21118496   0.557   2.033   5.501  0.2725  0.4142 -0.1960
  165SAPE  H11R18497   0.599   1.932   5.509 -1.8150 -0.5265 -0.4530
  165SAPE  C21218498   0.549   2.115   5.610 -0.2683  0.3808 -0.2824
  165SAPE  H12R18499   0.591   2.070   5.702 -0.4502  0.8437  0.0347
  165SAPE  C21318500   0.508   2.262   5.619  0.1613 -0.3614  0.5761
  165SAPE  H13R18501   0.455   2.275   5.716 -1.3125 -1.8656  0.0041
  165SAPE  H13S18502   0.431   2.283   5.543  0.8639  0.1830 -0.0093
  165SAPE  C21418503   0.623   2.358   5.603 -0.1165 -0.0714  0.2930
  165SAPE  H14R18504   0.713   2.310   5.561  0.9445  2.8987 -1.1576
  165SAPE  C21518505   0.637   2.489   5.642 -0.1014  0.1175  0.5872
  165SAPE  H15R18506   0.734   2.541   5.639 -0.2123  0.3415  0.7832
  165SAPE  C21618507   0.523   2.563   5.708  0.0805  0.3480 -0.8457
  165SAPE  H16R18508   0.458   2.504   5.776 -0.9629  2.1077 -0.2355
  165SAPE  H16S18509   0.445   2.592   5.635 -2.6545 -1.1215  1.3094
  165SAPE  C21718510   0.571   2.683   5.796  0.1529 -0.2368  0.2764
  165SAPE  H17R18511   0.479   2.739   5.823  0.7045  1.4467 -1.1371
  165SAPE  H17S18512   0.639   2.751   5.740  1.5343 -1.8192 -0.0595
  165SAPE  C21818513   0.648   2.652   5.922 -0.4280 -0.2222  0.6747
  165SAPE  H18R18514   0.750   2.617   5.895 -0.3154  0.3322  0.3594
  165SAPE  H18S18515   0.595   2.581   5.989  1.5637 -0.7929  1.7255
  165SAPE  C21918516   0.695   2.771   6.006  0.0660 -0.9603 -0.9913
  165SAPE  H19R18517   0.596   2.810   6.039  0.8323 -0.4212  0.8127
  165SAPE  H19S18518   0.755   2.851   5.957  1.2569 -1.3560 -0.2121
  165SAPE  C22018519   0.774   2.726   6.122  0.2165 -0.0130 -0.0895
  165SAPE  H20R18520   0.876   2.685   6.107  0.5222  0.0109  1.6934
  165SAPE  H20S18521   0.712   2.655   6.181 -1.4981  1.2534 -0.2807
  165SAPE  H20T18522   0.788   2.810   6.194  1.2787 -0.7855  0.6439
  165SAPE   C3318523  -0.387   2.588   4.723 -0.8109  0.5789  0.3427
  165SAPE   H3X18524  -0.338   2.528   4.803 -1.4086 -1.2345 -0.6057
  165SAPE   H3Y18525  -0.495   2.563   4.715 -0.8542 -0.2456  2.7796
  165SAPE   C3418526  -0.375   2.736   4.758  0.8454  0.0624 -0.8170
  165SAPE   H4X18527  -0.438   2.795   4.688 -1.7340 -0.7202  0.7135
  165SAPE   H4Y18528  -0.270   2.771   4.759  0.8036  0.2060  1.0393
  165SAPE   C3518529  -0.428   2.767   4.899 -0.7421  0.0315 -0.4266
  165SAPE   H5X18530  -0.532   2.728   4.907 -0.2294 -1.4470 -0.6855
  165SAPE   H5Y18531  -0.435   2.875   4.926 -2.7785 -0.0044 -0.6037
  165SAPE   C3618532  -0.347   2.690   5.009 -0.0406 -0.9332  0.0270
  165SAPE   H6X18533  -0.237   2.698   4.990  0.1177 -1.7236  0.5475
  165SAPE   H6Y18534  -0.369   2.581   5.007  0.1250 -1.0111  1.5101
  165SAPE   C3718535  -0.383   2.729   5.162  0.1030  0.2781  1.2478
  165SAPE   H7X18536  -0.489   2.702   5.176  0.7840 -3.4087  0.3295
  165SAPE   H7Y18537  -0.370   2.839   5.171  0.9114  0.3237 -0.1490
  165SAPE   C3818538  -0.314   2.665   5.274 -0.4458  0.0572 -0.4350
  165SAPE   H8X18539  -0.208   2.698   5.281 -0.9724  1.5322  1.1801
  165SAPE   H8Y18540  -0.312   2.556   5.250  3.8068  0.1432 -1.3399
  165SAPE   C3918541  -0.383   2.672   5.409  0.6275 -0.4260 -0.5331
  165SAPE   H9X18542  -0.475   2.611   5.411  2.2760 -3.0618  0.4172
  165SAPE   H9Y18543  -0.422   2.774   5.432  0.1121 -0.6605 -0.3577
  165SAPE  C31018544  -0.295   2.613   5.520  0.0384 -0.4788  0.0057
  165SAPE  H10X18545  -0.199   2.663   5.500 -0.5475  0.6517 -0.0554
  165SAPE  H10Y18546  -0.294   2.505   5.490  1.4229 -0.0069 -1.8250
  165SAPE  C31118547  -0.341   2.624   5.664  0.1264 -0.7596 -0.1108
  165SAPE  H11X18548  -0.285   2.555   5.731  1.6153 -1.5811 -2.0953
  165SAPE  H11Y18549  -0.444   2.583   5.672  0.9026 -2.5912  1.2944
  165SAPE  C31218550  -0.336   2.767   5.716  0.1742  0.4945  0.1838
  165SAPE  H12X18551  -0.359   2.840   5.636  1.3614  0.6495 -0.0466
  165SAPE  H12Y18552  -0.229   2.790   5.738  0.1355  0.9527 -0.1105
  165SAPE  C31318553  -0.415   2.804   5.838  0.1952  0.2018  0.1473
  165SAPE  H13X18554  -0.525   2.789   5.827  0.2034 -0.4268  0.8413
  165SAPE  H13Y18555  -0.408   2.910   5.868 -1.0823 -0.1317  1.7714
  165SAPE  C31418556  -0.366   2.719   5.954  0.1851 -0.0864 -0.0920
  165SAPE  H14X18557  -0.261   2.748   5.976 -0.8117  2.5198  1.6785
  165SAPE  H14Y18558  -0.372   2.609   5.934 -2.5615  0.1913 -1.1510
  165SAPE  C31518559  -0.430   2.755   6.096  0.3021 -0.3377  0.1131
  165SAPE  H15X18560  -0.541   2.744   6.094  0.2782 -0.0221 -0.3576
  165SAPE  H15Y18561  -0.407   2.860   6.122  0.8739  0.1733 -2.2538
  165SAPE  C31618562  -0.371   2.676   6.211  0.0604 -0.2846  0.4258
  165SAPE  H16X18563  -0.341   2.572   6.184 -0.0710 -0.5170  1.1556
  165SAPE  H16Y18564  -0.444   2.661   6.293 -0.1563 -2.5198 -0.1277
  165SAPE  C31718565  -0.248   2.744   6.271 -0.0240 -0.2890 -0.3201
  165SAPE  H17X18566  -0.271   2.849   6.299 -0.6106 -0.3959 -0.3916
  165SAPE  H17Y18567  -0.175   2.742   6.187  0.7727 -1.3478  0.3799
  165SAPE  C31818568  -0.200   2.675   6.403  0.5442 -0.3751 -0.0227
  165SAPE  H18X18569  -0.288   2.665   6.470  1.1247  0.6876  0.9214
  165SAPE  H18Y18570  -0.119   2.735   6.450 -1.0064  0.4592  1.6929
  165SAPE  H18Z18571  -0.159   2.576   6.371  1.2912  0.5787 -2.1695
  166SAPE     N18572   1.148   4.795   3.946  0.1816 -0.1708  0.5513
  166SAPE   HN118573   1.221   4.731   3.984  0.8642  1.4904  2.1907
  166SAPE   HN218574   1.099   4.753   3.864  1.1602  1.9328 -1.1910
  166SAPE   HN318575   1.191   4.883   3.910  0.6997 -0.2830  0.8891
  166SAPE   C1218576   1.052   4.826   4.056  0.0042  0.0918 -0.9278
  166SAPE  H12A18577   1.043   4.740   4.126 -0.7576  1.5278  0.8106
  166SAPE  H12B18578   0.948   4.834   4.017 -0.4884 -0.8021  0.1424
  166SAPE   C1118579   1.087   4.964   4.120  0.2969  0.0855 -0.5028
  166SAPE  H11A18580   1.177   4.926   4.173 -1.2695 -0.0489  2.2115
  166SAPE  H11B18581   1.004   4.999   4.185 -0.0368 -1.2066 -0.2037
  166SAPE     P18582   1.251   5.131   3.992  0.0273 -0.5782  0.1902
  166SAPE   O1318583   1.345   5.020   3.957 -0.4054 -0.0201 -0.0511
  166SAPE   O1418584   1.240   5.231   3.885 -0.3144  0.1849 -0.4870
  166SAPE   O1218585   1.109   5.067   4.018 -0.1057  0.1136 -0.3031
  166SAPE   O1118586   1.281   5.209   4.127  0.7589 -0.4121  0.1988
  166SAPE    C118587   1.186   5.258   4.225 -0.8290 -0.3573 -0.2556
  166SAPE    HA18588   1.162   5.366   4.210 -1.2864 -0.4540 -0.2409
  166SAPE    HB18589   1.088   5.206   4.220 -1.1743  0.0978  1.1555
  166SAPE    C218590   1.246   5.230   4.371 -0.1635  0.1897  0.3382
  166SAPE    HS18591   1.273   5.123   4.375  0.4440  0.3668  2.4860
  166SAPE   O2118592   1.154   5.267   4.473  0.2230 -0.1412  0.3687
  166SAPE   C2118593   1.100   5.167   4.540  0.6321 -0.3480 -0.7562
  166SAPE   O2218594   1.089   5.054   4.500  0.2889  0.4344  0.0720
  166SAPE   C2218595   1.021   5.224   4.665 -1.0028  0.3171  0.6645
  166SAPE   H2R18596   1.093   5.258   4.742 -1.0501 -0.1133  0.9004
  166SAPE   H2S18597   0.962   5.312   4.632  0.8698  0.5386 -2.4906
  166SAPE    C318598   1.377   5.307   4.384  0.4663 -0.4124  0.1167
  166SAPE    HX18599   1.358   5.408   4.342  1.4451 -0.9561 -1.7502
  166SAPE    HY18600   1.444   5.249   4.317 -0.4169 -0.8453 -0.4202
  166SAPE   O3118601   1.434   5.314   4.513  0.0459  0.3866 -0.2062
  166SAPE   C3118602   1.552   5.373   4.515 -0.5127  0.2561  0.2121
  166SAPE   O3218603   1.601   5.424   4.412 -0.1679 -0.0923 -0.5618
  166SAPE   C3218604   1.622   5.356   4.645  0.3107  0.3843 -0.2330
  166SAPE   H2X18605   1.660   5.253   4.659  1.3317  0.9931  2.0157
  166SAPE   H2Y18606   1.549   5.374   4.727  0.1065 -0.7153 -0.1553
  166SAPE   C2318607   0.931   5.111   4.727  0.9510  0.1854  0.4763
  166SAPE   H3R18608   0.995   5.025   4.757  1.0727  0.3778  0.7792
  166SAPE   H3S18609   0.862   5.075   4.649 -1.3495 -1.0719  2.9292
  166SAPE   C2418610   0.857   5.166   4.854 -0.2880  0.3126 -0.0896
  166SAPE   H4R18611   0.812   5.260   4.815  2.0424  1.3824 -0.3537
  166SAPE   H4S18612   0.939   5.198   4.921  0.0424  0.7605 -0.6990
  166SAPE   C2518613   0.751   5.077   4.910  0.1007 -0.1421 -0.4335
  166SAPE   H5R18614   0.677   5.034   4.841  0.0435 -0.6113 -0.0823
  166SAPE   C2618615   0.723   5.059   5.040 -0.3092 -0.2719  0.2853
  166SAPE   H6R18616   0.634   5.001   5.068 -1.0949  0.5028 -0.5196
  166SAPE   C2718617   0.783   5.118   5.164 -0.3931 -0.6969 -0.0946
  166SAPE   H7R18618   0.706   5.120   5.243 -3.4758 -2.3293 -2.7872
  166SAPE   H7S18619   0.801   5.226   5.150  1.0927 -0.5418  2.5303
  166SAPE   C2818620   0.910   5.046   5.198  0.1184  0.0626 -0.3674
  166SAPE   H8R18621   0.954   5.001   5.108  0.4858  1.0661 -0.7109
  166SAPE   C2918622   0.971   5.033   5.318 -0.7099 -0.8195 -0.4755
  166SAPE   H9R18623   1.043   4.950   5.327 -0.2748 -0.5794 -1.5915
  166SAPE  C21018624   0.918   5.100   5.446  0.9118 -0.8718 -0.0011
  166SAPE  H10R18625   0.844   5.180   5.422  0.4559 -1.1280  0.5232
  166SAPE  H10S18626   1.003   5.150   5.498  0.5798 -1.4327  1.1029
  166SAPE  C21118627   0.851   5.000   5.534  0.2399  0.0972  0.2116
  166SAPE  H11R18628   0.825   4.904   5.486 -2.9234  1.9461 -2.1851
  166SAPE  C21218629   0.828   5.016   5.665  0.2363 -0.1738 -0.5535
  166SAPE  H12R18630   0.782   4.932   5.719  3.0544 -1.3471  0.1862
  166SAPE  C21318631   0.866   5.130   5.755 -0.2319 -0.6699  0.5225
  166SAPE  H13R18632   0.828   5.224   5.711  0.3353 -0.6547  0.0602
  166SAPE  H13S18633   0.977   5.123   5.760 -0.3346 -3.2542  0.4247
  166SAPE  C21418634   0.810   5.143   5.893 -0.2417  0.3173  0.0121
  166SAPE  H14R18635   0.700   5.150   5.897 -0.3860  0.5963 -2.6174
  166SAPE  C21518636   0.886   5.135   6.005 -0.1820 -0.1967 -0.5117
  166SAPE  H15R18637   0.825   5.131   6.097 -1.3382  0.3942 -1.2278
  166SAPE  C21618638   1.037   5.111   6.023 -0.2561  0.7568  0.1694
  166SAPE  H16R18639   1.086   5.069   5.933 -0.3465 -0.4930  0.6788
  166SAPE  H16S18640   1.050   5.037   6.105  0.1004  0.4723 -0.1392
  166SAPE  C21718641   1.119   5.231   6.064 -0.0766 -0.1171 -0.9416
  166SAPE  H17R18642   1.079   5.332   6.040  1.0889  0.0281 -2.4558
  166SAPE  H17S18643   1.210   5.218   6.001  1.7202 -0.5970  1.6042
  166SAPE  C21818644   1.152   5.225   6.212 -0.0479  0.0131 -0.3753
  166SAPE  H18R18645   1.057   5.201   6.265 -0.0581 -3.0078 -1.5618
  166SAPE  H18S18646   1.207   5.315   6.248 -0.5769 -0.3850  1.5275
  166SAPE  C21918647   1.265   5.118   6.247  0.1640  0.1790  0.5387
  166SAPE  H19R18648   1.358   5.150   6.195 -0.3336 -0.3986 -0.7322
  166SAPE  H19S18649   1.227   5.034   6.186  0.3481  1.7761 -1.9265
  166SAPE  C22018650   1.285   5.091   6.393 -0.0093  0.4168 -0.1410
  166SAPE  H20R18651   1.311   5.182   6.451  1.0197 -0.3296  0.6089
  166SAPE  H20S18652   1.370   5.022   6.409 -1.3604 -1.1716  0.5918
  166SAPE  H20T18653   1.194   5.042   6.435 -1.4793  2.5943 -0.6160
  166SAPE   C3318654   1.751   5.445   4.645  0.3610 -0.4606  0.0647
  166SAPE   H3X18655   1.741   5.549   4.606 -0.4057  0.2692  2.0426
  166SAPE   H3Y18656   1.819   5.396   4.573 -0.8601 -0.9748 -0.7796
  166SAPE   C3418657   1.813   5.451   4.788  0.0984  0.0844  0.8050
  166SAPE   H4X18658   1.726   5.488   4.846 -1.4170  2.4074 -2.5971
  166SAPE   H4Y18659   1.895   5.527   4.793 -0.1535  0.5357 -1.0382
  166SAPE   C3518660   1.865   5.312   4.849  0.3762  0.0208  0.1016
  166SAPE   H5X18661   1.917   5.274   4.758  1.9116  1.5211  0.3100
  166SAPE   H5Y18662   1.783   5.242   4.876  0.9085 -0.5506  0.2626
  166SAPE   C3618663   1.956   5.329   4.970 -0.1858  0.3737  0.4164
  166SAPE   H6X18664   2.036   5.403   4.947 -0.6526  0.2296 -1.8414
  166SAPE   H6Y18665   1.996   5.230   5.000  2.0395  0.7168 -1.2014
  166SAPE   C3718666   1.871   5.369   5.098 -0.3975 -0.5434  1.1537
  166SAPE   H7X18667   1.797   5.290   5.122 -2.1825 -0.2482 -2.6588
  166SAPE   H7Y18668   1.811   5.461   5.080 -0.4087 -0.6112  0.8448
  166SAPE   C3818669   1.955   5.408   5.215 -0.4536 -0.2164  0.0085
  166SAPE   H8X18670   1.978   5.516   5.213 -2.3571  0.2263 -1.8352
  166SAPE   H8Y18671   2.050   5.351   5.217 -0.6346 -0.5264  1.9622
  166SAPE   C3918672   1.887   5.395   5.350 -0.1528 -0.0644 -1.1628
  166SAPE   H9X18673   1.964   5.422   5.425 -1.5264  0.9147 -0.0262
  166SAPE   H9Y18674   1.838   5.298   5.374  1.2957  0.1454  3.6229
  166SAPE  C31018675   1.777   5.504   5.382  0.0414  0.4802  0.8008
  166SAPE  H10X18676   1.703   5.476   5.304  0.7910  1.8627 -0.4781
  166SAPE  H10Y18677   1.816   5.606   5.362 -0.0364  0.6255  1.3795
  166SAPE  C31118678   1.714   5.497   5.526 -0.7324  1.1092  0.2169
  166SAPE  H11X18679   1.791   5.524   5.601 -1.1821  0.7818  0.8019
  166SAPE  H11Y18680   1.702   5.387   5.535  1.4427  0.9044  1.3242
  166SAPE  C31218681   1.589   5.578   5.534  0.1511  0.3316  0.2738
  166SAPE  H12X18682   1.527   5.549   5.621 -1.3526 -2.2066 -1.4868
  166SAPE  H12Y18683   1.533   5.567   5.439  0.1490 -1.4878  0.4431
  166SAPE  C31318684   1.630   5.727   5.544 -0.4611 -0.0676 -0.3516
  166SAPE  H13X18685   1.696   5.748   5.458  0.6730 -1.9356  0.0009
  166SAPE  H13Y18686   1.688   5.739   5.638  2.0637  1.7157 -2.0249
  166SAPE  C31418687   1.503   5.818   5.536  0.1697  0.3443  0.0330
  166SAPE  H14X18688   1.423   5.771   5.475 -0.1929 -2.3166  2.3457
  166SAPE  H14Y18689   1.536   5.910   5.484  1.2023 -0.3317 -0.5407
  166SAPE  C31518690   1.430   5.844   5.667 -0.7171  0.1692  0.3719
  166SAPE  H15X18691   1.486   5.920   5.725  0.5976 -0.5363  0.0640
  166SAPE  H15Y18692   1.425   5.748   5.723 -0.6037 -0.8347 -1.2734
  166SAPE  C31618693   1.291   5.911   5.631 -0.4707  0.6291 -1.1186
  166SAPE  H16X18694   1.220   5.852   5.569 -0.4754  0.0635 -0.5884
  166SAPE  H16Y18695   1.321   6.003   5.576  0.2273  0.1842 -1.5016
  166SAPE  C31718696   1.222   5.957   5.756 -0.2200  1.0029 -0.6172
  166SAPE  H17X18697   1.288   6.028   5.811 -0.7768  2.2948 -1.5847
  166SAPE  H17Y18698   1.203   5.876   5.829 -0.1552  1.8182  0.3300
  166SAPE  C31818699   1.088   6.020   5.723 -0.7723 -0.1934  0.1243
  166SAPE  H18X18700   1.106   6.111   5.661  1.9267 -0.0946  0.9133
  166SAPE  H18Y18701   1.053   6.058   5.821 -1.7536  2.8530 -1.2872
  166SAPE  H18Z18702   1.016   5.952   5.673 -1.9306 -0.7158  2.3550
  167SAPE     N18703   5.456   1.694   4.223  0.4312  0.3515  0.0878
  167SAPE   HN118704   5.415   1.782   4.261 -0.1992 -1.2626  3.4559
  167SAPE   HN218705   5.412   1.614   4.272  0.8913  0.7077  1.1168
  167SAPE   HN318706   5.558   1.704   4.241  0.8302 -0.3012 -1.6271
  167SAPE   C1218707   5.407   1.684   4.080 -0.8625 -0.4099  0.4629
  167SAPE  H12A18708   5.491   1.731   4.024  0.4367 -0.2589  2.4315
  167SAPE  H12B18709   5.319   1.751   4.071  0.2279  0.7916 -2.3239
  167SAPE   C1118710   5.385   1.535   4.035  0.2182 -0.5604  0.7209
  167SAPE  H11A18711   5.484   1.488   4.020  0.4538  0.2014 -0.1811
  167SAPE  H11B18712   5.321   1.534   3.944 -0.0271  0.1434  0.8772
  167SAPE     P18713   5.261   1.329   4.120 -0.2424  0.1391  0.2801
  167SAPE   O1318714   5.115   1.339   4.142  0.4765  0.1169 -0.1988
  167SAPE   O1418715   5.308   1.279   3.987  0.0117 -0.2409 -0.5583
  167SAPE   O1218716   5.318   1.472   4.142  0.3376 -0.4234  0.4707
  167SAPE   O1118717   5.322   1.234   4.230  0.0651 -0.2057  0.1728
  167SAPE    C118718   5.455   1.263   4.281  1.1106  0.2527 -0.1806
  167SAPE    HA18719   5.533   1.239   4.205 -0.9948  0.4751 -2.5253
  167SAPE    HB18720   5.479   1.369   4.306  0.2732  0.4373 -0.1515
  167SAPE    C218721   5.487   1.187   4.406 -0.1420 -0.7130  0.0173
  167SAPE    HS18722   5.592   1.206   4.437  0.2943 -0.4007 -1.5606
  167SAPE   O2118723   5.453   1.047   4.384  0.4019 -0.2217  0.2499
  167SAPE   C2118724   5.499   0.965   4.468  0.1123 -0.6535  1.4469
  167SAPE   O2218725   5.593   0.990   4.540  0.0786  0.1509 -0.3532
  167SAPE   C2218726   5.424   0.828   4.451  0.3738  0.1402  0.0392
  167SAPE   H2R18727   5.315   0.832   4.429  0.3624  2.1144  0.3076
  167SAPE   H2S18728   5.474   0.770   4.370  1.7857  2.2919 -0.7252
  167SAPE    C318729   5.392   1.233   4.524 -0.1052 -0.8276  0.3025
  167SAPE    HX18730   5.295   1.202   4.479  0.0298 -0.0656 -0.5528
  167SAPE    HY18731   5.396   1.343   4.537  1.7423 -0.6741 -1.0816
  167SAPE   O3118732   5.405   1.171   4.655 -0.2645 -0.4912 -0.1080
  167SAPE   C3118733   5.514   1.210   4.726  0.0574  0.5408 -0.0263
  167SAPE   O3218734   5.602   1.282   4.687 -0.0754 -0.1417 -0.1473
  167SAPE   C3218735   5.516   1.143   4.868 -0.0738 -0.1698 -0.1056
  167SAPE   H2X18736   5.616   1.095   4.878  0.6727  1.2355 -0.6090
  167SAPE   H2Y18737   5.430   1.073   4.881 -1.5835  1.7170  0.3675
  167SAPE   C2318738   5.443   0.755   4.591  0.4941  0.8208  0.5411
  167SAPE   H3R18739   5.553   0.741   4.599  0.3904  0.3929  1.2863
  167SAPE   H3S18740   5.403   0.652   4.581  0.8481  0.4511  2.5365
  167SAPE   C2418741   5.373   0.824   4.707 -0.5096  1.0008  0.1987
  167SAPE   H4R18742   5.413   0.927   4.702  2.5283 -0.0144  1.6055
  167SAPE   H4S18743   5.399   0.777   4.804  0.0647  1.1759  0.1306
  167SAPE   C2518744   5.227   0.847   4.703  0.5325  0.4085 -0.0757
  167SAPE   H5R18745   5.192   0.899   4.612 -1.4121  0.6741  0.7675
  167SAPE   C2618746   5.139   0.826   4.803  0.3934 -0.2098 -0.3891
  167SAPE   H6R18747   5.032   0.838   4.781  0.5713  1.2498 -0.6005
  167SAPE   C2718748   5.156   0.768   4.944  0.0849 -0.4937 -0.0251
  167SAPE   H7R18749   5.231   0.687   4.954  2.3813  1.3249 -1.4519
  167SAPE   H7S18750   5.063   0.718   4.980  0.2345  0.7593  2.2922
  167SAPE   C2818751   5.194   0.875   5.048  0.3931  0.5151  0.7156
  167SAPE   H8R18752   5.246   0.961   5.003 -0.4751  0.9315  0.4854
  167SAPE   C2918753   5.166   0.881   5.179  0.1733  0.3480 -0.2972
  167SAPE   H9R18754   5.182   0.972   5.239 -0.1509  0.3576 -0.2202
  167SAPE  C21018755   5.076   0.778   5.248 -0.2022  0.4658 -0.6245
  167SAPE  H10R18756   5.140   0.693   5.279  0.3715  1.0864 -0.0600
  167SAPE  H10S18757   5.008   0.732   5.174 -1.2091  2.3859 -0.9519
  167SAPE  C21118758   4.988   0.821   5.358 -0.0947  0.1611  0.3488
  167SAPE  H11R18759   4.885   0.844   5.327  0.5142  2.6297 -0.0576
  167SAPE  C21218760   5.016   0.834   5.490 -0.4899 -0.0951 -0.3086
  167SAPE  H12R18761   4.943   0.868   5.565  1.1665 -0.4108  1.5213
  167SAPE  C21318762   5.143   0.812   5.558  0.0820 -0.2513 -0.0122
  167SAPE  H13R18763   5.212   0.772   5.481 -1.6144  0.6827 -2.1239
  167SAPE  H13S18764   5.137   0.733   5.636  1.6097 -0.0092  0.3857
  167SAPE  C21418765   5.211   0.936   5.614 -0.4040 -0.0071 -0.0571
  167SAPE  H14R18766   5.267   0.997   5.542 -2.4919  0.9069 -0.9643
  167SAPE  C21518767   5.230   0.961   5.744  0.4852  0.0382  0.1486
  167SAPE  H15R18768   5.283   1.055   5.765 -1.2962  0.8791  1.0894
  167SAPE  C21618769   5.182   0.882   5.860 -0.1720  0.3541 -0.1645
  167SAPE  H16R18770   5.262   0.889   5.936 -0.1646  0.5644 -0.1924
  167SAPE  H16S18771   5.163   0.775   5.837  0.3639  0.1293  0.4196
  167SAPE  C21718772   5.046   0.940   5.897 -0.0006 -0.3164 -0.0575
  167SAPE  H17R18773   4.972   0.909   5.821 -1.6963  0.2339  1.3062
  167SAPE  H17S18774   5.055   1.050   5.902 -1.5817 -0.1659 -0.2598
  167SAPE  C21818775   5.001   0.887   6.029  0.3329  0.1593 -0.5684
  167SAPE  H18R18776   5.067   0.912   6.115 -0.8676  0.6860  0.2178
  167SAPE  H18S18777   4.991   0.777   6.022 -0.7923  0.0634  1.6415
  167SAPE  C21918778   4.878   0.957   6.082 -0.0550 -0.0005 -0.2789
  167SAPE  H19R18779   4.794   0.938   6.012  0.6708 -3.1701 -0.4631
  167SAPE  H19S18780   4.900   1.066   6.079  2.0080 -0.3664  0.2156
  167SAPE  C22018781   4.844   0.926   6.229  1.0720 -0.3384 -0.2461
  167SAPE  H20R18782   4.741   0.964   6.248 -0.5676 -2.1661 -4.3284
  167SAPE  H20S18783   4.916   0.983   6.291  0.2661  1.1221 -0.5955
  167SAPE  H20T18784   4.843   0.820   6.260 -0.1144 -0.4059 -0.4672
  167SAPE   C3318785   5.492   1.249   4.973  0.1777  0.1613  0.3927
  167SAPE   H3X18786   5.412   1.313   4.929  2.1144  2.3207 -0.1648
  167SAPE   H3Y18787   5.579   1.317   4.983  0.8283 -0.2176 -2.0742
  167SAPE   C3418788   5.450   1.195   5.113 -0.0132 -0.2803  0.2918
  167SAPE   H4X18789   5.540   1.144   5.153 -0.0479 -1.3937 -1.0126
  167SAPE   H4Y18790   5.370   1.118   5.107 -1.4849  1.2298 -0.4241
  167SAPE   C3518791   5.416   1.303   5.215  0.1277  0.4917 -0.2846
  167SAPE   H5X18792   5.349   1.385   5.180  0.3678  1.6229  1.8021
  167SAPE   H5Y18793   5.511   1.358   5.226  0.4614  0.6685 -3.1719
  167SAPE   C3618794   5.357   1.239   5.345 -0.1202 -0.3212  0.1154
  167SAPE   H6X18795   5.427   1.164   5.386 -0.4549  0.8891  3.1526
  167SAPE   H6Y18796   5.260   1.189   5.328 -0.3675  0.2343 -0.1278
  167SAPE   C3718797   5.334   1.334   5.458  0.1636  0.5933 -0.7740
  167SAPE   H7X18798   5.243   1.391   5.428 -2.9011 -1.9962  2.5674
  167SAPE   H7Y18799   5.419   1.405   5.467  1.3238 -0.9339  1.2606
  167SAPE   C3818800   5.287   1.279   5.596  0.2333  0.3370 -0.0144
  167SAPE   H8X18801   5.352   1.199   5.637 -0.3050  1.1091  2.5221
  167SAPE   H8Y18802   5.182   1.244   5.600  0.2811  0.2570  2.8844
  167SAPE   C3918803   5.298   1.395   5.705 -0.1392 -0.6831 -0.2827
  167SAPE   H9X18804   5.260   1.494   5.673  1.1732  0.4760  1.5715
  167SAPE   H9Y18805   5.405   1.416   5.724 -0.2749  1.1779 -1.3793
  167SAPE  C31018806   5.220   1.355   5.831  0.3197  0.2001  0.3973
  167SAPE  H10X18807   5.278   1.285   5.894  1.5627  1.4989  0.7263
  167SAPE  H10Y18808   5.127   1.307   5.793  0.3277  2.1351 -2.3947
  167SAPE  C31118809   5.164   1.465   5.915 -0.2577 -0.8154  0.3390
  167SAPE  H11X18810   5.077   1.512   5.865  0.1571 -0.4804 -0.0771
  167SAPE  H11Y18811   5.246   1.541   5.916 -1.1857  0.2170 -0.1730
  167SAPE  C31218812   5.128   1.429   6.060 -0.5349 -0.0591  0.0412
  167SAPE  H12X18813   5.055   1.346   6.071 -1.4570  0.4860 -1.6314
  167SAPE  H12Y18814   5.078   1.519   6.101 -0.2701  0.4956 -0.8103
  167SAPE  C31318815   5.251   1.406   6.146  0.0525 -0.2606  0.3174
  167SAPE  H13X18816   5.292   1.505   6.175 -3.3064  0.7006  2.3430
  167SAPE  H13Y18817   5.330   1.355   6.088  0.5665  0.2459  0.5667
  167SAPE  C31418818   5.215   1.305   6.260 -0.9932 -0.4722  0.1508
  167SAPE  H14X18819   5.216   1.207   6.208  3.7813 -0.1956 -0.7739
  167SAPE  H14Y18820   5.120   1.327   6.312 -0.6819  0.6119  0.2814
  167SAPE  C31518821   5.319   1.312   6.374  0.2100 -0.1434  0.2259
  167SAPE  H15X18822   5.406   1.259   6.330  1.2190  1.3369  0.4000
  167SAPE  H15Y18823   5.269   1.251   6.453  2.0519  0.8005  2.2075
  167SAPE  C31618824   5.337   1.456   6.422 -0.0782 -0.0783 -0.4931
  167SAPE  H16X18825   5.243   1.513   6.402 -1.3208 -2.0376 -0.4843
  167SAPE  H16Y18826   5.419   1.489   6.354 -0.5867 -0.3355 -1.2455
  167SAPE  C31718827   5.374   1.475   6.577 -0.4561  0.5191  0.6124
  167SAPE  H17X18828   5.445   1.561   6.578 -1.3933  1.3208  1.7009
  167SAPE  H17Y18829   5.430   1.384   6.607  0.6990  1.3435  1.0709
  167SAPE  C31818830   5.260   1.523   6.669  0.5892 -0.6100  0.0306
  167SAPE  H18X18831   5.302   1.533   6.771 -0.9615  1.0138  0.5843
  167SAPE  H18Y18832   5.167   1.462   6.675 -0.1509 -0.1861 -4.2142
  167SAPE  H18Z18833   5.232   1.628   6.644 -1.5674 -1.2671 -0.5473
  168SAPE     N18834   3.233   5.416   4.259  0.1721 -0.9246  1.3135
  168SAPE   HN118835   3.268   5.513   4.270  0.4947 -1.2831  4.2538
  168SAPE   HN218836   3.204   5.403   4.160  1.0963 -0.0345  0.9048
  168SAPE   HN318837   3.147   5.417   4.318 -0.7552  0.3999  0.0130
  168SAPE   C1218838   3.319   5.316   4.325  1.0953 -0.6243  0.6527
  168SAPE  H12A18839   3.422   5.352   4.344  0.9355 -1.0342  2.5068
  168SAPE  H12B18840   3.315   5.227   4.258  2.6680  0.5227 -1.0808
  168SAPE   C1118841   3.255   5.261   4.456 -0.4261  0.3867  0.3573
  168SAPE  H11A18842   3.249   5.350   4.523  0.5120 -0.1783  1.2158
  168SAPE  H11B18843   3.333   5.193   4.496 -1.7542 -1.0638  0.5596
  168SAPE     P18844   3.105   5.053   4.443  0.3866 -0.3154 -0.0215
  168SAPE   O1318845   2.987   5.016   4.368 -0.6712 -0.1245 -0.7598
  168SAPE   O1418846   3.223   4.972   4.406 -0.1592  0.3695 -0.0646
  168SAPE   O1218847   3.127   5.202   4.429 -0.2752  0.1889 -0.0083
  168SAPE   O1118848   3.086   5.032   4.595  0.0951 -0.3929 -0.8298
  168SAPE    C118849   2.988   5.100   4.673  0.6303 -0.1172  1.0109
  168SAPE    HA18850   3.002   5.210   4.687  2.5557 -0.4347  1.8387
  168SAPE    HB18851   2.891   5.102   4.620  2.2851 -2.1646 -2.3721
  168SAPE    C218852   2.976   5.033   4.808 -0.0489  0.9859  0.8662
  168SAPE    HS18853   2.905   5.097   4.863 -0.0298  1.1376  0.7166
  168SAPE   O2118854   3.105   5.042   4.869 -0.1886  0.0935  0.0716
  168SAPE   C2118855   3.142   5.152   4.934 -0.0144  0.3504  0.0688
  168SAPE   O2218856   3.077   5.254   4.942  0.4059  0.4150  0.4207
  168SAPE   C2218857   3.262   5.109   5.025  0.5399  0.1700  0.0814
  168SAPE   H2R18858   3.283   5.005   4.995  0.1804  0.1409 -0.0669
  168SAPE   H2S18859   3.352   5.167   4.994  0.4569 -0.3339 -1.1606
  168SAPE    C318860   2.927   4.885   4.806  0.2538  0.3462  0.3196
  168SAPE    HX18861   2.995   4.835   4.734 -0.9189 -2.2866  0.9185
  168SAPE    HY18862   2.825   4.873   4.764  0.7157  1.7536 -1.2764
  168SAPE   O3118863   2.941   4.823   4.938 -0.6215 -0.1514 -0.1982
  168SAPE   C3118864   2.973   4.693   4.940 -0.2056  0.4572  0.6795
  168SAPE   O3218865   2.970   4.615   4.846 -0.5221 -0.8851  0.3907
  168SAPE   C3218866   2.990   4.651   5.085  0.3463 -0.9726  0.2035
  168SAPE   H2X18867   3.038   4.551   5.080  0.4823 -0.9666  1.1958
  168SAPE   H2Y18868   2.886   4.644   5.124  1.2500 -2.2126  2.6013
  168SAPE   C2318869   3.236   5.113   5.182  0.2209  0.6466  0.5853
  168SAPE   H3R18870   3.321   5.054   5.224  1.4010  2.0271  0.2027
  168SAPE   H3S18871   3.143   5.057   5.205 -0.9017  1.9559 -0.6116
  168SAPE   C2418872   3.237   5.258   5.223  0.4662  0.0104 -0.0978
  168SAPE   H4R18873   3.296   5.314   5.148 -0.8855  1.3548 -0.2128
  168SAPE   H4S18874   3.308   5.267   5.308  1.1844 -2.8210 -0.2907
  168SAPE   C2518875   3.103   5.328   5.257 -0.4199 -0.1642  0.4647
  168SAPE   H5R18876   3.076   5.417   5.199 -1.0442 -1.5071 -1.4254
  168SAPE   C2618877   3.016   5.280   5.347  0.3098  0.5026 -0.2022
  168SAPE   H6R18878   2.923   5.333   5.372  1.3989  1.8532  1.1345
  168SAPE   C2718879   3.038   5.157   5.430  0.5575  0.0475 -0.3408
  168SAPE   H7R18880   3.144   5.124   5.431  0.6300  0.2736 -0.5783
  168SAPE   H7S18881   2.998   5.069   5.374  1.8097 -2.1298  1.9338
  168SAPE   C2818882   2.977   5.145   5.567 -0.5075 -0.4572 -0.5727
  168SAPE   H8R18883   2.867   5.141   5.567 -0.6004 -0.4637  2.6151
  168SAPE   C2918884   3.046   5.176   5.684  0.3679  0.2432 -0.3596
  168SAPE   H9R18885   2.981   5.177   5.772  2.3767  0.8153  1.1955
  168SAPE  C21018886   3.189   5.208   5.707 -0.1281  0.6549 -0.2593
  168SAPE  H10R18887   3.196   5.318   5.693 -1.9351  0.9319  0.6912
  168SAPE  H10S18888   3.248   5.156   5.628 -2.5511 -1.0995 -1.0158
  168SAPE  C21118889   3.248   5.183   5.839  0.2885 -0.4210 -0.8345
  168SAPE  H11R18890   3.204   5.103   5.900  1.5524 -1.6962 -1.5529
  168SAPE  C21218891   3.365   5.231   5.896  0.5331  0.2165 -0.2977
  168SAPE  H12R18892   3.399   5.200   5.996  0.9327 -1.5233 -0.9361
  168SAPE  C21318893   3.448   5.333   5.828  0.3953  0.0092 -0.9390
  168SAPE  H13R18894   3.424   5.425   5.886  1.3585 -0.3775  0.1049
  168SAPE  H13S18895   3.418   5.359   5.724  1.7936  1.2150 -1.0669
  168SAPE  C21418896   3.594   5.298   5.826  0.8080  0.2448 -0.4434
  168SAPE  H14R18897   3.620   5.194   5.804 -0.5093 -0.1040 -0.3968
  168SAPE  C21518898   3.695   5.384   5.869 -0.0267 -0.5315  0.3568
  168SAPE  H15R18899   3.800   5.356   5.855 -0.6005 -2.1523 -1.0746
  168SAPE  C21618900   3.676   5.517   5.919  0.2285 -0.6161  0.5323
  168SAPE  H16R18901   3.622   5.591   5.856  1.4105  0.7232  1.0465
  168SAPE  H16S18902   3.775   5.566   5.924 -0.4203  0.7947  0.2013
  168SAPE  C21718903   3.621   5.522   6.056  0.4926 -0.3588 -0.2600
  168SAPE  H17R18904   3.532   5.457   6.063  0.9239 -0.9342 -0.0127
  168SAPE  H17S18905   3.594   5.626   6.084  2.2802  0.4534 -1.3657
  168SAPE  C21818906   3.724   5.482   6.164 -0.5243  0.9562  0.7968
  168SAPE  H18R18907   3.810   5.552   6.165  1.0273 -0.8190 -0.9442
  168SAPE  H18S18908   3.754   5.379   6.137 -0.1534  0.7551  1.9396
  168SAPE  C21918909   3.653   5.474   6.295 -0.1045 -0.1584 -0.5396
  168SAPE  H19R18910   3.554   5.426   6.301  0.3727 -1.1156 -0.0652
  168SAPE  H19S18911   3.648   5.583   6.318  0.7859 -0.5030  1.5402
  168SAPE  C22018912   3.733   5.403   6.401 -0.1473 -0.4270  0.1112
  168SAPE  H20R18913   3.708   5.295   6.403 -0.3116 -0.3753  1.1849
  168SAPE  H20S18914   3.710   5.440   6.503 -2.8536 -0.5788 -0.3614
  168SAPE  H20T18915   3.843   5.409   6.386  0.2179  1.8459  2.7464
  168SAPE   C3318916   3.072   4.755   5.172 -0.8326 -0.9263 -0.2398
  168SAPE   H3X18917   3.009   4.838   5.210  0.6604 -1.1112  2.9547
  168SAPE   H3Y18918   3.149   4.789   5.100  0.3636 -0.1275  1.3390
  168SAPE   C3418919   3.148   4.685   5.291  0.2125  0.5199  0.6134
  168SAPE   H4X18920   3.184   4.585   5.257  0.1318  0.6679  0.0807
  168SAPE   H4Y18921   3.079   4.691   5.377 -1.3230  0.4682 -0.5823
  168SAPE   C3518922   3.273   4.774   5.326  0.0739  0.4404 -0.0944
  168SAPE   H5X18923   3.242   4.877   5.353 -2.8400 -0.6571  1.1647
  168SAPE   H5Y18924   3.331   4.793   5.233 -0.8224  3.0135 -0.2098
  168SAPE   C3618925   3.365   4.713   5.436 -0.2493  1.2194  0.3124
  168SAPE   H6X18926   3.431   4.800   5.454 -2.4107  3.7669 -2.9042
  168SAPE   H6Y18927   3.409   4.622   5.390 -2.4662  1.3198 -2.2523
  168SAPE   C3718928   3.300   4.659   5.564 -0.2651  0.3356  0.4398
  168SAPE   H7X18929   3.377   4.638   5.641 -0.5150 -1.2930  0.2899
  168SAPE   H7Y18930   3.246   4.568   5.530  0.5610 -0.2321  0.6174
  168SAPE   C3818931   3.192   4.747   5.634  0.5901 -0.8511 -0.0964
  168SAPE   H8X18932   3.100   4.754   5.572 -0.6354 -0.7454  1.6763
  168SAPE   H8Y18933   3.233   4.850   5.631 -0.6496 -0.3574 -1.3455
  168SAPE   C3918934   3.163   4.698   5.778  0.5901 -0.3614  0.7301
  168SAPE   H9X18935   3.103   4.777   5.827  0.0136  0.4222 -1.1377
  168SAPE   H9Y18936   3.253   4.674   5.838  0.4823  0.6712  1.3284
  168SAPE  C31018937   3.083   4.565   5.773  0.1363 -0.3167 -0.4241
  168SAPE  H10X18938   3.151   4.477   5.777  0.3086 -0.1871 -0.4810
  168SAPE  H10Y18939   3.046   4.567   5.668 -0.5458  0.3968 -0.1714
  168SAPE  C31118940   2.974   4.568   5.867  0.0578  0.1027 -0.1232
  168SAPE  H11X18941   2.897   4.493   5.840 -2.3972  1.3791  2.7664
  168SAPE  H11Y18942   2.914   4.661   5.855  0.0822  0.0500 -0.6846
  168SAPE  C31218943   3.022   4.548   6.009 -0.3005  0.4820 -0.0131
  168SAPE  H12X18944   3.113   4.611   6.011 -1.0897  1.6507  0.6313
  168SAPE  H12Y18945   3.061   4.447   6.029  0.4776  0.8362  0.2806
  168SAPE  C31318946   2.930   4.605   6.117  0.7153 -0.2000  0.7330
  168SAPE  H13X18947   2.837   4.546   6.132  0.7056  0.2061  2.4551
  168SAPE  H13Y18948   2.893   4.701   6.075  1.9772 -0.3083 -0.6903
  168SAPE  C31418949   2.995   4.632   6.252 -0.1409 -0.0524  0.2767
  168SAPE  H14X18950   3.092   4.681   6.231  1.4934 -2.8930  0.6395
  168SAPE  H14Y18951   3.016   4.538   6.307 -2.4098  0.3269  1.8921
  168SAPE  C31518952   2.909   4.721   6.346 -0.1007 -0.6854  0.1084
  168SAPE  H15X18953   2.810   4.670   6.355 -0.8615  0.8927  1.1109
  168SAPE  H15Y18954   2.896   4.820   6.298  1.6700 -0.5758 -0.1802
  168SAPE  C31618955   2.980   4.739   6.482 -0.4483 -0.2136  0.1135
  168SAPE  H16X18956   3.074   4.795   6.466 -0.0171 -0.8088  0.5038
  168SAPE  H16Y18957   3.011   4.643   6.529  1.7107 -0.1869 -1.1174
  168SAPE  C31718958   2.890   4.812   6.587 -0.4310 -0.2842  0.1698
  168SAPE  H17X18959   2.935   4.799   6.688  1.2766 -2.4243 -0.7894
  168SAPE  H17Y18960   2.794   4.758   6.598 -0.7823  0.5556  1.3875
  168SAPE  C31818961   2.862   4.954   6.560  0.0463  0.0049 -0.3598
  168SAPE  H18X18962   2.959   5.005   6.575  0.2464 -0.2676 -0.7290
  168SAPE  H18Y18963   2.787   4.986   6.636 -0.2721 -0.6067 -0.4056
  168SAPE  H18Z18964   2.827   4.984   6.459 -0.5993  0.1102 -0.1128
  169SAPE     N18965   0.209   0.819   4.256 -0.5118  0.0409  0.3468
  169SAPE   HN118966   0.130   0.801   4.192 -0.0263  1.1574 -0.5919
  169SAPE   HN218967   0.230   0.920   4.241  2.4505 -0.3490  1.1051
  169SAPE   HN318968   0.284   0.762   4.210 -0.5347 -0.6466  1.1327
  169SAPE   C1218969   0.190   0.798   4.402  0.6026  0.3522 -0.0727
  169SAPE  H12A18970   0.079   0.800   4.412  0.3322 -1.5598 -1.8836
  169SAPE  H12B18971   0.228   0.890   4.451  1.6677 -0.0977 -0.0393
  169SAPE   C1118972   0.245   0.660   4.452  0.2006  0.9312 -0.6070
  169SAPE  H11A18973   0.179   0.582   4.409  0.9857  0.6993 -1.4255
  169SAPE  H11B18974   0.237   0.651   4.563  1.6168  0.9011 -0.4906
  169SAPE     P18975   0.424   0.562   4.286 -0.7119  0.2471 -0.0779
  169SAPE   O1318976   0.344   0.439   4.280  0.2194  0.6686 -0.0578
  169SAPE   O1418977   0.413   0.651   4.172  0.2482 -0.3158  0.0194
  169SAPE   O1218978   0.381   0.648   4.416 -0.3352  0.4482  0.1443
  169SAPE   O1118979   0.573   0.521   4.316 -0.0986 -0.0541  0.1740
  169SAPE    C118980   0.622   0.505   4.446  0.1768 -0.2067  0.8856
  169SAPE    HA18981   0.728   0.471   4.442  0.4235  0.6172 -1.0814
  169SAPE    HB18982   0.621   0.602   4.499  0.4162 -0.0711  0.6502
  169SAPE    C218983   0.548   0.394   4.534  1.0109 -0.3059  0.0039
  169SAPE    HS18984   0.515   0.313   4.466 -2.1821  1.8500 -1.2261
  169SAPE   O2118985   0.435   0.455   4.600  0.2866  0.6654 -0.5696
  169SAPE   C2118986   0.349   0.363   4.643  0.1663 -0.1264 -0.2269
  169SAPE   O2218987   0.327   0.255   4.592 -0.7174  0.4960 -0.6865
  169SAPE   C2218988   0.253   0.427   4.736  0.0495 -0.2519 -0.1727
  169SAPE   H2R18989   0.263   0.537   4.721  0.6404 -0.3682 -0.6656
  169SAPE   H2S18990   0.153   0.387   4.709  0.4761 -0.2117 -1.9666
  169SAPE    C318991   0.642   0.336   4.639 -0.5177 -0.9395  0.3417
  169SAPE    HX18992   0.680   0.418   4.704 -0.5943 -0.4992 -0.1631
  169SAPE    HY18993   0.741   0.311   4.595 -1.0629  1.3952 -2.5464
  169SAPE   O3118994   0.588   0.230   4.719 -0.0909 -0.1600 -0.1919
  169SAPE   C3118995   0.588   0.112   4.663  0.1137  0.2375  0.1126
  169SAPE   O3218996   0.652   0.080   4.560  0.4716 -0.1612 -0.5301
  169SAPE   C3218997   0.487   0.024   4.742 -0.4320  0.5587 -0.3137
  169SAPE   H2X18998   0.451  -0.065   4.687 -0.3040 -1.3057  2.4385
  169SAPE   H2Y18999   0.400   0.084   4.777  0.0063  0.5147  0.8744
  169SAPE   C2319000   0.275   0.370   4.883 -0.3737  0.6367 -0.0197
  169SAPE   H3R19001   0.276   0.259   4.882  1.4629  0.6193 -1.5104
  169SAPE   H3S19002   0.181   0.397   4.935  0.1064  1.0648  0.6341
  169SAPE   C2419003   0.398   0.428   4.951  0.3526  0.1529 -0.1144
  169SAPE   H4R19004   0.491   0.416   4.891 -0.6082 -2.2615 -1.2459
  169SAPE   H4S19005   0.414   0.373   5.046 -0.5425 -1.3313 -0.7909
  169SAPE   C2519006   0.370   0.570   4.978  0.5056  0.0367 -0.2286
  169SAPE   H5R19007   0.374   0.640   4.893 -1.8376  0.2073 -0.2661
  169SAPE   C2619008   0.355   0.620   5.105 -0.1828  0.0080 -0.0528
  169SAPE   H6R19009   0.335   0.729   5.109 -1.2223 -0.1735  0.0725
  169SAPE   C2719010   0.353   0.539   5.234  0.1435  0.1591 -0.4986
  169SAPE   H7R19011   0.433   0.462   5.222  0.3840  0.4674 -0.8914
  169SAPE   H7S19012   0.267   0.469   5.246 -0.4224  0.7742 -0.9315
  169SAPE   C2819013   0.372   0.627   5.357  0.1404  0.7328 -0.1495
  169SAPE   H8R19014   0.281   0.652   5.412 -0.3292 -1.5163  0.2051
  169SAPE   C2919015   0.491   0.667   5.412  0.5586  0.2552  0.7842
  169SAPE   H9R19016   0.497   0.727   5.503  5.6174 -1.0161  1.5565
  169SAPE  C21019017   0.625   0.638   5.352  0.6417 -0.0770  0.0909
  169SAPE  H10R19018   0.639   0.710   5.268  0.4432  0.8397  0.8246
  169SAPE  H10S19019   0.633   0.535   5.312  1.0674 -0.3760  0.9296
  169SAPE  C21119020   0.741   0.675   5.449 -0.8174  0.5051 -0.1132
  169SAPE  H11R19021   0.732   0.781   5.478 -1.1511  1.0123 -1.9397
  169SAPE  C21219022   0.857   0.604   5.470 -0.8306 -0.3929 -0.0231
  169SAPE  H12R19023   0.920   0.645   5.550 -2.3128  0.5095  0.7167
  169SAPE  C21319024   0.890   0.466   5.428 -0.3097 -0.5955 -0.0206
  169SAPE  H13R19025   0.841   0.446   5.331 -0.4942 -1.9977  0.3299
  169SAPE  H13S19026   0.841   0.395   5.498 -2.5787  2.5445  1.8479
  169SAPE  C21419027   1.039   0.434   5.418  0.1381  0.1569 -0.4278
  169SAPE  H14R19028   1.073   0.418   5.315 -1.9044 -1.9152 -0.8582
  169SAPE  C21519029   1.132   0.418   5.523 -0.2172  0.0100  0.4841
  169SAPE  H15R19030   1.232   0.393   5.486  0.0283  1.1048  0.3566
  169SAPE  C21619031   1.106   0.433   5.667 -0.1124  0.3143 -0.2503
  169SAPE  H16R19032   1.162   0.351   5.717 -0.1638  1.0787  1.0906
  169SAPE  H16S19033   0.998   0.422   5.692 -0.8495  0.6068 -2.9424
  169SAPE  C21719034   1.178   0.557   5.726  0.4321 -0.2149  0.5933
  169SAPE  H17R19035   1.138   0.652   5.685  0.6072 -1.1280 -1.8708
  169SAPE  H17S19036   1.280   0.536   5.689  0.9478  1.0867  1.2310
  169SAPE  C21819037   1.185   0.554   5.884  0.2052  0.1233  0.5660
  169SAPE  H18R19038   1.267   0.618   5.924 -0.1029  1.0315 -0.2261
  169SAPE  H18S19039   1.207   0.451   5.920  0.5182  0.3763  1.1152
  169SAPE  C21919040   1.044   0.579   5.936  0.5687  0.3709  0.0380
  169SAPE  H19R19041   0.984   0.487   5.919  2.5360 -1.2641  1.5128
  169SAPE  H19S19042   1.009   0.665   5.874 -1.0333 -1.0363 -1.0930
  169SAPE  C22019043   1.044   0.611   6.083 -0.0459 -0.8934  0.3519
  169SAPE  H20R19044   1.108   0.544   6.144  1.3732 -0.7895 -0.9806
  169SAPE  H20S19045   0.942   0.588   6.120 -0.0580 -1.2394  0.1054
  169SAPE  H20T19046   1.068   0.719   6.097  2.9971 -1.7757  3.2172
  169SAPE   C3319047   0.553  -0.048   4.862  0.4547 -0.4454 -0.2135
  169SAPE   H3X19048   0.661  -0.076   4.854  1.3989  2.4493  0.9416
  169SAPE   H3Y19049   0.493  -0.139   4.881  0.4978 -0.5690 -0.6577
  169SAPE   C3419050   0.534   0.043   4.994  0.5545 -0.2128  0.2450
  169SAPE   H4X19051   0.428   0.076   4.985  0.5771 -0.1474  0.2124
  169SAPE   H4Y19052   0.590   0.139   4.987  0.2496  0.0231  0.9569
  169SAPE   C3519053   0.583  -0.032   5.122 -0.4630 -0.5399 -0.2651
  169SAPE   H5X19054   0.682  -0.073   5.094 -1.1871 -2.1934 -0.5325
  169SAPE   H5Y19055   0.511  -0.115   5.143 -0.2229 -0.6616  0.0998
  169SAPE   C3619056   0.584   0.070   5.242 -0.3610  0.2991 -0.4195
  169SAPE   H6X19057   0.495   0.135   5.235  0.6614  1.8102  0.0269
  169SAPE   H6Y19058   0.672   0.137   5.224 -0.5108  0.9602  1.1488
  169SAPE   C3719059   0.599   0.010   5.381  0.1424 -0.1611 -0.3054
  169SAPE   H7X19060   0.682  -0.064   5.382 -1.1885 -1.8279 -2.7965
  169SAPE   H7Y19061   0.510  -0.050   5.410  1.5018 -0.6812  3.3067
  169SAPE   C3819062   0.607   0.113   5.490  0.1133 -0.3421 -0.0251
  169SAPE   H8X19063   0.686   0.180   5.450 -0.8985 -0.3768 -2.2520
  169SAPE   H8Y19064   0.641   0.065   5.584 -2.4121  0.1961  1.2400
  169SAPE   C3919065   0.476   0.197   5.512 -0.1856  0.3429  0.1334
  169SAPE   H9X19066   0.407   0.123   5.558 -1.3673  0.3547 -1.5131
  169SAPE   H9Y19067   0.426   0.230   5.418 -1.7272  0.5599  0.9777
  169SAPE  C31019068   0.493   0.318   5.603  0.5205 -0.4389  0.2873
  169SAPE  H10X19069   0.557   0.397   5.557  0.2571 -1.4185 -1.9048
  169SAPE  H10Y19070   0.544   0.284   5.695  0.5801 -2.1514 -0.3539
  169SAPE  C31119071   0.352   0.367   5.640  0.3525  0.8201  0.5470
  169SAPE  H11X19072   0.282   0.292   5.682 -0.4619  0.5470 -1.2407
  169SAPE  H11Y19073   0.313   0.398   5.541 -0.0792 -0.3040  0.3510
  169SAPE  C31219074   0.348   0.492   5.728 -0.2880 -1.2275  0.1067
  169SAPE  H12X19075   0.407   0.573   5.680 -0.5651 -1.2474 -0.2791
  169SAPE  H12Y19076   0.399   0.481   5.826  4.0311 -1.6826 -1.9873
  169SAPE  C31319077   0.205   0.546   5.746 -0.1193 -0.2039  0.2409
  169SAPE  H13X19078   0.135   0.461   5.765  1.3293 -2.2922 -2.8887
  169SAPE  H13Y19079   0.188   0.579   5.642 -0.3542 -2.8545 -0.6214
  169SAPE  C31419080   0.191   0.664   5.854 -0.6870 -0.1994 -0.3916
  169SAPE  H14X19081   0.129   0.747   5.814 -0.6825 -0.6940 -1.4617
  169SAPE  H14Y19082   0.293   0.707   5.864 -0.6896  0.0781 -1.4553
  169SAPE  C31519083   0.132   0.619   5.990  0.3180 -0.6338  0.3708
  169SAPE  H15X19084   0.210   0.560   6.042 -2.2030 -0.4065  4.8322
  169SAPE  H15Y19085   0.041   0.563   5.962  0.2749  0.1569 -1.2301
  169SAPE  C31619086   0.101   0.737   6.076  0.8862  0.9519  0.3048
  169SAPE  H16X19087   0.190   0.802   6.093  1.4435  0.5496 -0.9929
  169SAPE  H16Y19088   0.077   0.705   6.180  0.2654 -0.8067 -0.3567
  169SAPE  C31719089  -0.027   0.816   6.038 -0.1756 -0.0923 -0.3412
  169SAPE  H17X19090  -0.107   0.745   6.007 -0.3417  0.2042 -0.5903
  169SAPE  H17Y19091   0.017   0.866   5.949 -0.1624 -0.9043 -0.8011
  169SAPE  C31819092  -0.074   0.907   6.159 -0.7735  0.7941  0.3149
  169SAPE  H18X19093  -0.152   0.978   6.123 -1.0033 -0.5408 -2.0272
  169SAPE  H18Y19094   0.014   0.968   6.190 -1.1307  1.3563  0.2358
  169SAPE  H18Z19095  -0.116   0.852   6.246 -1.9452 -0.4290 -0.9774
  170SAPE     N19096   6.826   3.513   3.839  0.0896 -1.2052 -0.4146
  170SAPE   HN119097   6.760   3.569   3.780  2.0369  0.2612 -1.3029
  170SAPE   HN219098   6.780   3.425   3.872 -0.0158 -0.6875  0.8381
  170SAPE   HN319099   6.845   3.578   3.917 -2.4036  0.4145 -1.0126
  170SAPE   C1219100   6.959   3.484   3.779  0.9594 -1.4999  0.6148
  170SAPE  H12A19101   6.998   3.584   3.750 -3.7513  0.7639  1.0639
  170SAPE  H12B19102   6.937   3.432   3.683 -0.4060  1.0492 -0.5619
  170SAPE   C1119103   7.050   3.398   3.870 -1.0378  1.0124 -0.2375
  170SAPE  H11A19104   7.082   3.472   3.946  0.7864  2.5717 -2.3614
  170SAPE  H11B19105   7.133   3.365   3.803 -0.5723  0.3955  0.6245
  170SAPE     P19106   7.071   3.162   3.996 -0.5048  0.3752  0.1214
  170SAPE   O1319107   6.982   3.042   4.014  0.3035  0.0108  0.5057
  170SAPE   O1419108   7.183   3.146   3.899  0.1119  0.7129  0.1939
  170SAPE   O1219109   6.985   3.285   3.940 -0.6363  0.0841 -0.8055
  170SAPE   O1119110   7.123   3.216   4.135  0.5472 -0.3354 -0.5652
  170SAPE    C119111   7.031   3.259   4.238  0.8693  0.4392  0.2474
  170SAPE    HA19112   7.069   3.346   4.295 -0.0833  0.2953  1.1226
  170SAPE    HB19113   6.933   3.289   4.196  1.6286  2.3382 -0.2976
  170SAPE    C219114   6.982   3.148   4.340 -0.3212  0.7563  0.9936
  170SAPE    HS19115   6.918   3.077   4.282 -1.4963  1.5584  1.2800
  170SAPE   O2119116   6.890   3.215   4.434 -0.4947  0.6411 -0.2056
  170SAPE   C2119117   6.830   3.129   4.518  0.4389  0.1681  0.6315
  170SAPE   O2219118   6.830   3.006   4.510 -1.4378 -0.0641 -0.3302
  170SAPE   C2219119   6.749   3.200   4.622 -0.3749 -0.4196  0.7160
  170SAPE   H2R19120   6.829   3.231   4.693  3.6202 -1.7961 -2.7862
  170SAPE   H2S19121   6.701   3.289   4.574 -0.5211 -1.9786 -2.2268
  170SAPE    C319122   7.105   3.083   4.405  0.5383 -0.4712  0.2130
  170SAPE    HX19123   7.164   3.040   4.321 -1.5840 -0.5481 -1.3514
  170SAPE    HY19124   7.074   2.995   4.466  0.3039 -0.3437  0.2788
  170SAPE   O3119125   7.197   3.185   4.467  0.5647  0.2825 -0.3626
  170SAPE   C3119126   7.166   3.219   4.594  0.1814  0.5042 -0.3059
  170SAPE   O3219127   7.078   3.172   4.664 -0.1804 -0.3500  0.6914
  170SAPE   C3219128   7.262   3.331   4.630  0.7975  0.4610  0.2444
  170SAPE   H2X19129   7.234   3.433   4.596 -2.0938  0.1744  1.5326
  170SAPE   H2Y19130   7.366   3.312   4.594  0.0436 -2.0809 -0.8287
  170SAPE   C2319131   6.642   3.115   4.687  0.5344  0.8832 -0.4155
  170SAPE   H3R19132   6.666   3.013   4.726 -0.1859  0.4879 -0.9852
  170SAPE   H3S19133   6.566   3.089   4.611  0.3857 -0.8419  0.2653
  170SAPE   C2419134   6.576   3.193   4.802 -0.5338 -0.3016 -0.3539
  170SAPE   H4R19135   6.656   3.220   4.874 -1.5533 -0.0423  0.7218
  170SAPE   H4S19136   6.510   3.127   4.862 -0.7793  0.4801  0.2525
  170SAPE   C2519137   6.501   3.322   4.765 -0.2538  0.1178 -1.2329
  170SAPE   H5R19138   6.493   3.326   4.656 -1.6161  0.4492 -1.1476
  170SAPE   C2619139   6.460   3.417   4.848 -0.3688  0.0929 -0.1157
  170SAPE   H6R19140   6.407   3.500   4.801  0.8263  0.8623 -0.1405
  170SAPE   C2719141   6.494   3.427   4.993 -0.4040  0.6696 -0.5974
  170SAPE   H7R19142   6.587   3.372   5.020  1.2973  2.5777 -2.2142
  170SAPE   H7S19143   6.422   3.376   5.059  0.3619 -1.6039 -1.4244
  170SAPE   C2819144   6.498   3.571   5.036 -0.4622 -0.0553  0.8885
  170SAPE   H8R19145   6.453   3.640   4.963 -1.6032 -1.4450  0.2320
  170SAPE   C2919146   6.554   3.620   5.148 -0.2083 -0.0848  0.3064
  170SAPE   H9R19147   6.569   3.729   5.147  1.2713 -0.2673 -0.5755
  170SAPE  C21019148   6.617   3.540   5.258  0.2058  0.5839  0.9582
  170SAPE  H10R19149   6.716   3.580   5.288  2.3890 -1.7843 -2.4119
  170SAPE  H10S19150   6.647   3.440   5.221  1.1677  0.8113  1.0924
  170SAPE  C21119151   6.523   3.523   5.376 -0.0175  0.4809  0.8363
  170SAPE  H11R19152   6.432   3.468   5.348 -0.1818  1.4420 -0.6354
  170SAPE  C21219153   6.547   3.545   5.507 -0.2670 -0.8189  0.6159
  170SAPE  H12R19154   6.469   3.524   5.581  1.2375 -1.3786  2.1217
  170SAPE  C21319155   6.666   3.616   5.560  0.1406  0.0938  0.1963
  170SAPE  H13R19156   6.755   3.596   5.496 -0.3693  1.7176 -1.1189
  170SAPE  H13S19157   6.691   3.568   5.657 -1.0981 -1.4934 -0.2365
  170SAPE  C21419158   6.656   3.768   5.577 -0.0315 -0.3236 -0.6120
  170SAPE  H14R19159   6.574   3.804   5.514 -1.4363 -2.8587 -0.4037
  170SAPE  C21519160   6.726   3.843   5.664  0.4841 -0.8344 -0.4146
  170SAPE  H15R19161   6.685   3.945   5.674 -0.4336 -1.3241  1.2939
  170SAPE  C21619162   6.823   3.798   5.770 -0.8316  0.1969  0.1735
  170SAPE  H16R19163   6.912   3.865   5.772 -1.9818  1.8097 -0.5720
  170SAPE  H16S19164   6.852   3.697   5.734 -0.7208  0.2051  0.2388
  170SAPE  C21719165   6.760   3.775   5.910  0.0466  0.2384 -0.1810
  170SAPE  H17R19166   6.692   3.689   5.898 -1.3378  1.4714 -1.5632
  170SAPE  H17S19167   6.683   3.852   5.934 -1.2676 -0.9076 -0.6224
  170SAPE  C21819168   6.864   3.750   6.022  0.9537  0.2314  0.2477
  170SAPE  H18R19169   6.932   3.675   5.976  1.9980  1.0972  0.3365
  170SAPE  H18S19170   6.826   3.695   6.111 -0.0298  0.4603 -0.0189
  170SAPE  C21919171   6.943   3.869   6.062  0.4972  0.1016 -0.4234
  170SAPE  H19R19172   6.947   3.918   5.963 -3.0219  0.5867 -0.4613
  170SAPE  H19S19173   7.043   3.842   6.101  0.1787 -2.1376 -1.0084
  170SAPE  C22019174   6.866   3.973   6.150 -0.9783  0.9147  0.1777
  170SAPE  H20R19175   6.783   4.011   6.087  0.2602 -1.1169 -2.9049
  170SAPE  H20S19176   6.933   4.061   6.162 -0.1750  0.2540  0.6665
  170SAPE  H20T19177   6.827   3.930   6.245 -0.6100 -2.4940 -1.0771
  170SAPE   C3319178   7.263   3.350   4.788  0.6301  0.6587 -0.3799
  170SAPE   H3X19179   7.300   3.259   4.839 -0.1762  0.7463  0.3715
  170SAPE   H3Y19180   7.161   3.371   4.826  0.5702 -1.3512  0.6823
  170SAPE   C3419181   7.360   3.460   4.837  0.5332 -0.2724  0.0118
  170SAPE   H4X19182   7.331   3.546   4.774  0.8706  0.6151  1.0395
  170SAPE   H4Y19183   7.459   3.415   4.812 -0.2704 -2.4958  0.6495
  170SAPE   C3519184   7.351   3.502   4.986  0.6962  0.9270  0.4408
  170SAPE   H5X19185   7.339   3.406   5.040  0.0244  0.9522  0.3483
  170SAPE   H5Y19186   7.268   3.571   5.012  1.3241  1.3928  1.2609
  170SAPE   C3619187   7.477   3.569   5.038  0.4976  0.0432  0.0774
  170SAPE   H6X19188   7.496   3.660   4.978 -0.6194 -0.3449 -0.8926
  170SAPE   H6Y19189   7.562   3.499   5.025  0.2866 -0.6193  1.8784
  170SAPE   C3719190   7.458   3.603   5.178  0.7240 -0.0573 -0.5182
  170SAPE   H7X19191   7.447   3.515   5.244 -0.9106 -0.5115 -1.3608
  170SAPE   H7Y19192   7.380   3.680   5.194 -0.5453 -1.5666  0.9277
  170SAPE   C3819193   7.579   3.684   5.241 -0.1384  0.0027  0.3307
  170SAPE   H8X19194   7.585   3.779   5.184 -3.3922  0.8225  1.1724
  170SAPE   H8Y19195   7.668   3.619   5.226  0.8139  1.0801  1.1730
  170SAPE   C3919196   7.560   3.708   5.386  0.1144 -0.3254 -0.2601
  170SAPE   H9X19197   7.556   3.606   5.430  0.4061 -0.3539 -0.2992
  170SAPE   H9Y19198   7.464   3.756   5.414  0.6679  0.6642 -0.0316
  170SAPE  C31019199   7.690   3.778   5.447 -0.4415 -0.1356  0.0565
  170SAPE  H10X19200   7.703   3.874   5.391 -1.8044  0.3431  0.5106
  170SAPE  H10Y19201   7.768   3.703   5.424 -1.0368 -0.3869 -1.2195
  170SAPE  C31119202   7.680   3.808   5.596  0.2647  0.1599 -0.1533
  170SAPE  H11X19203   7.634   3.723   5.650  0.3533 -0.2480 -0.7153
  170SAPE  H11Y19204   7.620   3.897   5.626 -0.1456 -0.9626  2.6461
  170SAPE  C31219205   7.820   3.829   5.668  0.4739  1.0217 -0.3302
  170SAPE  H12X19206   7.858   3.928   5.635  0.4916  0.8185 -0.9390
  170SAPE  H12Y19207   7.890   3.748   5.637 -0.3173 -0.1877  0.9009
  170SAPE  C31319208   7.801   3.793   5.821  0.2843  0.4643  0.5537
  170SAPE  H13X19209   7.762   3.690   5.835 -0.7074  0.9038  1.1014
  170SAPE  H13Y19210   7.725   3.862   5.862  0.0526  0.1545  0.6498
  170SAPE  C31419211   7.922   3.815   5.916 -0.6054 -0.2002 -0.0375
  170SAPE  H14X19212   7.971   3.909   5.883 -0.2012 -0.2314  0.4492
  170SAPE  H14Y19213   8.005   3.743   5.898 -0.9545 -0.7045  0.3252
  170SAPE  C31519214   7.883   3.818   6.064  0.6688  0.2197 -0.0372
  170SAPE  H15X19215   7.863   3.717   6.104  3.1229 -0.0044  0.8073
  170SAPE  H15Y19216   7.791   3.880   6.079 -0.8381 -1.6198 -1.2966
  170SAPE  C31619217   7.999   3.866   6.155  0.3078 -0.7237  0.3310
  170SAPE  H16X19218   8.085   3.799   6.131  0.1183 -1.3832  1.4554
  170SAPE  H16Y19219   7.971   3.857   6.262 -1.7542 -1.0767 -0.1826
  170SAPE  C31719220   8.052   4.007   6.134  0.1505 -0.0688  0.7207
  170SAPE  H17X19221   7.983   4.088   6.167  1.3075  1.0130  0.5706
  170SAPE  H17Y19222   8.072   4.029   6.027 -0.3290  2.3222  1.0653
  170SAPE  C31819223   8.183   4.033   6.202 -0.1588 -0.4381  0.1614
  170SAPE  H18X19224   8.189   3.962   6.287 -0.9267 -0.8825 -0.1442
  170SAPE  H18Y19225   8.218   4.136   6.225  0.3968 -0.2494 -1.4132
  170SAPE  H18Z19226   8.263   3.996   6.135 -0.5924 -1.9614  0.4629
  171SAPE     N19227   2.268   3.173   3.783  0.5272  0.1708  0.5292
  171SAPE   HN119228   2.193   3.163   3.710  0.9778 -0.0127  0.0839
  171SAPE   HN219229   2.307   3.268   3.796  0.6952  0.1463  0.2256
  171SAPE   HN319230   2.345   3.113   3.748  1.6407  1.3000  0.9638
  171SAPE   C1219231   2.226   3.123   3.916 -0.0033  0.4077 -0.0380
  171SAPE  H12A19232   2.304   3.146   3.993  0.6978 -2.0345  0.0756
  171SAPE  H12B19233   2.196   3.016   3.907 -2.1407  0.8281  1.3331
  171SAPE   C1119234   2.085   3.184   3.952  0.0002  0.4032 -0.0102
  171SAPE  H11A19235   2.086   3.295   3.956 -0.1891  0.7415 -4.2140
  171SAPE  H11B19236   2.064   3.152   4.056 -2.6122 -0.5202 -0.7281
  171SAPE     P19237   1.860   3.062   3.872 -0.4544 -0.0481 -0.1117
  171SAPE   O1319238   1.749   3.126   3.803  0.0116 -1.1953 -0.3561
  171SAPE   O1419239   1.899   2.931   3.822  0.1569  0.8627 -0.4382
  171SAPE   O1219240   1.981   3.159   3.860 -0.7892 -0.1208 -0.5127
  171SAPE   O1119241   1.830   3.048   4.031 -0.2455  0.4906  0.4335
  171SAPE    C119242   1.760   3.147   4.104  0.4375  0.1988 -0.3480
  171SAPE    HA19243   1.822   3.239   4.114 -0.0711  0.4058  1.3047
  171SAPE    HB19244   1.668   3.184   4.053  0.8678 -1.3873 -2.3879
  171SAPE    C219245   1.728   3.092   4.241 -0.4780 -0.2409 -0.1855
  171SAPE    HS19246   1.685   3.179   4.295  1.3994 -0.7832  2.3626
  171SAPE   O2119247   1.849   3.057   4.319 -0.2606  1.0868 -0.0137
  171SAPE   C2119248   1.929   3.158   4.359  0.0113  0.8364  0.2844
  171SAPE   O2219249   1.910   3.276   4.329 -0.2341 -0.8124 -0.2543
  171SAPE   C2219250   2.044   3.092   4.436 -0.0345 -0.5367 -0.0926
  171SAPE   H2R19251   2.010   3.043   4.530  1.6523  2.0239  2.0229
  171SAPE   H2S19252   2.088   3.010   4.376 -2.1702 -2.3229  0.6734
  171SAPE    C319253   1.628   2.979   4.250 -0.8513 -0.5529 -0.7636
  171SAPE    HX19254   1.673   2.879   4.229  1.8802  0.8792 -2.3266
  171SAPE    HY19255   1.556   2.995   4.167 -0.4033 -0.2176 -1.0959
  171SAPE   O3119256   1.565   2.964   4.378 -0.1332  0.4088  0.0735
  171SAPE   C3119257   1.460   3.042   4.395 -0.7047 -0.1109  0.0652
  171SAPE   O3219258   1.411   3.112   4.308  0.1513 -0.2564 -0.0618
  171SAPE   C3219259   1.399   3.021   4.533 -0.3433  0.8388  0.5824
  171SAPE   H2X19260   1.476   3.027   4.614 -0.4123 -2.2987  1.0347
  171SAPE   H2Y19261   1.357   2.918   4.525  0.4741  0.5005  0.4686
  171SAPE   C2319262   2.170   3.185   4.475 -0.4678 -0.0565 -0.2074
  171SAPE   H3R19263   2.209   3.229   4.381 -0.2936 -1.5714 -0.8856
  171SAPE   H3S19264   2.250   3.121   4.520 -1.6887 -1.7555 -0.3694
  171SAPE   C2419265   2.124   3.291   4.572 -0.0487 -0.2133 -0.2185
  171SAPE   H4R19266   2.044   3.352   4.525  0.6671  1.8640  1.0610
  171SAPE   H4S19267   2.208   3.362   4.590  0.3998 -0.9469  0.6229
  171SAPE   C2519268   2.079   3.236   4.704  0.4017 -0.3103  0.6807
  171SAPE   H5R19269   2.161   3.194   4.765  0.1616 -0.4900  0.8851
  171SAPE   C2619270   1.961   3.246   4.767  0.2864  0.0052  0.3371
  171SAPE   H6R19271   1.946   3.196   4.864  1.8655 -2.1785 -0.4712
  171SAPE   C2719272   1.842   3.317   4.713  0.4893 -0.3707 -0.1929
  171SAPE   H7R19273   1.854   3.352   4.608 -2.6275  0.2555 -0.4422
  171SAPE   H7S19274   1.822   3.411   4.769 -1.1358 -0.7149 -0.1265
  171SAPE   C2819275   1.720   3.224   4.722  0.1655  0.3055 -0.3901
  171SAPE   H8R19276   1.709   3.154   4.638 -1.3076 -3.1037  2.3873
  171SAPE   C2919277   1.639   3.201   4.827  0.4387 -0.0644  0.5995
  171SAPE   H9R19278   1.575   3.111   4.829 -0.4131  0.5415  0.8833
  171SAPE  C21019279   1.634   3.283   4.958 -0.3804 -0.3876  0.0063
  171SAPE  H10R19280   1.533   3.325   4.978 -0.7957 -2.1341  1.9432
  171SAPE  H10S19281   1.703   3.371   4.955 -1.2122  0.3573  1.5074
  171SAPE  C21119282   1.671   3.183   5.068  0.6468  0.0706  0.4083
  171SAPE  H11R19283   1.753   3.115   5.038  0.4892  1.2588 -3.1075
  171SAPE  C21219284   1.616   3.161   5.190  0.0915  0.5228 -0.1356
  171SAPE  H12R19285   1.655   3.069   5.235 -1.9249 -1.4590 -2.1671
  171SAPE  C21319286   1.508   3.233   5.264  0.2278  0.1397  0.3024
  171SAPE  H13R19287   1.445   3.275   5.183  1.2566 -0.3476 -0.7821
  171SAPE  H13S19288   1.544   3.318   5.325  0.5247  0.9364 -0.9701
  171SAPE  C21419289   1.422   3.136   5.341 -0.4662 -0.0057  0.5619
  171SAPE  H14R19290   1.419   3.036   5.296 -0.0821 -0.3853  1.3655
  171SAPE  C21519291   1.361   3.154   5.461 -1.1153 -0.0797  0.3377
  171SAPE  H15R19292   1.307   3.072   5.509 -0.5270  1.5068  4.0376
  171SAPE  C21619293   1.357   3.282   5.543 -0.1912 -0.8311  0.0702
  171SAPE  H16R19294   1.263   3.303   5.598 -0.2973 -1.4800  0.1410
  171SAPE  H16S19295   1.372   3.371   5.478  0.1173  0.3894  1.7553
  171SAPE  C21719296   1.474   3.287   5.643 -0.3970  0.1007  0.4893
  171SAPE  H17R19297   1.466   3.390   5.684  2.1338  1.0463 -1.1532
  171SAPE  H17S19298   1.574   3.280   5.595  0.2041 -2.4345  1.9266
  171SAPE  C21819299   1.462   3.183   5.760  0.3928  0.1809 -0.4241
  171SAPE  H18R19300   1.485   3.084   5.716  0.9648  0.1993 -0.1803
  171SAPE  H18S19301   1.359   3.193   5.800  0.8198  3.1358  0.2036
  171SAPE  C21919302   1.551   3.220   5.877 -0.5063 -0.6535 -0.1296
  171SAPE  H19R19303   1.508   3.317   5.907 -1.1449 -0.2128 -2.2614
  171SAPE  H19S19304   1.659   3.234   5.852 -0.8302 -2.0999 -2.7826
  171SAPE  C22019305   1.539   3.112   5.992  0.0304 -0.2664  0.0420
  171SAPE  H20R19306   1.438   3.120   6.037 -0.1165  1.1167 -0.4959
  171SAPE  H20S19307   1.617   3.136   6.067 -0.3865 -1.2380  0.8240
  171SAPE  H20T19308   1.555   3.008   5.956 -0.3908 -0.4758  0.4508
  171SAPE   C3319309   1.288   3.122   4.568  0.2780 -0.0048  0.0067
  171SAPE   H3X19310   1.227   3.140   4.476 -1.6161 -1.4114  0.9207
  171SAPE   H3Y19311   1.330   3.214   4.612 -0.7848 -0.7333  2.7746
  171SAPE   C3419312   1.193   3.063   4.669 -0.1957 -0.7700 -0.5267
  171SAPE   H4X19313   1.141   2.978   4.619 -1.1104 -0.6180  0.1458
  171SAPE   H4Y19314   1.109   3.134   4.687 -0.3954 -0.4757 -2.4086
  171SAPE   C3519315   1.258   3.032   4.810  0.0147  0.1576  0.7844
  171SAPE   H5X19316   1.284   3.131   4.853  0.3133  0.4595 -0.0604
  171SAPE   H5Y19317   1.346   2.964   4.803  1.4867  1.8466  1.8422
  171SAPE   C3619318   1.157   2.957   4.904 -0.1094 -0.2528 -0.2796
  171SAPE   H6X19319   1.143   2.852   4.873  1.1382 -0.9306  1.3371
  171SAPE   H6Y19320   1.060   3.007   4.882 -0.7744 -1.6776 -0.6944
  171SAPE   C3719321   1.201   2.965   5.057  0.6669 -0.3442  0.0911
  171SAPE   H7X19322   1.206   3.073   5.083  1.9452 -0.2145 -0.5970
  171SAPE   H7Y19323   1.294   2.907   5.074  1.4921  0.8512 -0.2573
  171SAPE   C3819324   1.085   2.904   5.132 -0.0414  0.7493 -0.6682
  171SAPE   H8X19325   1.068   2.801   5.092  0.3679  0.4980 -0.2017
  171SAPE   H8Y19326   0.993   2.966   5.126 -1.0666 -0.7180 -0.9199
  171SAPE   C3919327   1.122   2.883   5.282  0.2964  0.1073  0.5841
  171SAPE   H9X19328   1.143   2.981   5.329 -0.5418  0.7914 -0.4369
  171SAPE   H9Y19329   1.219   2.830   5.280  1.1857  1.6847  0.3969
  171SAPE  C31019330   1.026   2.803   5.372  0.8642 -0.4303  0.7430
  171SAPE  H10X19331   1.016   2.700   5.331 -1.8297 -0.1877  0.5987
  171SAPE  H10Y19332   0.923   2.844   5.382  1.0276 -0.5119  3.5236
  171SAPE  C31119333   1.077   2.804   5.516  0.1709  0.7443 -0.1926
  171SAPE  H11X19334   1.184   2.782   5.497  0.3091  1.3072 -0.0926
  171SAPE  H11Y19335   1.029   2.720   5.571  0.5183 -0.4676 -1.6607
  171SAPE  C31219336   1.050   2.936   5.597 -0.1792  0.1014 -0.0775
  171SAPE  H12X19337   0.945   2.940   5.633 -0.0355 -1.5688  0.6016
  171SAPE  H12Y19338   1.064   3.016   5.520  0.9537  0.8150  0.8455
  171SAPE  C31319339   1.145   2.963   5.710 -0.6727  0.2633  0.0984
  171SAPE  H13X19340   1.150   3.073   5.718  0.6840  0.4454 -2.2776
  171SAPE  H13Y19341   1.246   2.930   5.678 -0.6205  0.2089  0.3214
  171SAPE  C31419342   1.114   2.897   5.841  0.1959  0.6785 -0.0541
  171SAPE  H14X19343   1.137   2.789   5.829 -0.8921  0.5856 -1.5701
  171SAPE  H14Y19344   1.008   2.899   5.874 -0.1089  1.0050 -1.0155
  171SAPE  C31519345   1.202   2.933   5.952  0.1252 -0.8001 -0.0564
  171SAPE  H15X19346   1.187   3.043   5.959 -0.7683 -0.8710 -0.7964
  171SAPE  H15Y19347   1.305   2.901   5.925 -0.4835 -0.7785 -2.6119
  171SAPE  C31619348   1.162   2.870   6.087 -0.2576 -0.0255 -0.3921
  171SAPE  H16X19349   1.189   2.763   6.078 -0.0726 -0.0826  0.7550
  171SAPE  H16Y19350   1.051   2.880   6.094 -0.1993  0.0971  0.3466
  171SAPE  C31719351   1.223   2.940   6.212  0.2994 -0.1732  0.4404
  171SAPE  H17X19352   1.198   3.047   6.195 -1.1718 -0.9123 -3.1112
  171SAPE  H17Y19353   1.333   2.927   6.204  0.4069 -0.6360  2.2508
  171SAPE  C31819354   1.167   2.870   6.342 -0.2835  0.3482  0.5221
  171SAPE  H18X19355   1.186   2.927   6.435 -1.1248 -0.8529  1.4416
  171SAPE  H18Y19356   1.217   2.774   6.366  0.2365  0.3839 -0.3392
  171SAPE  H18Z19357   1.059   2.847   6.333 -0.0986 -0.4994  0.3901
  172SAPE     N19358   1.597   5.454   4.148 -0.1760 -0.0525 -0.2768
  172SAPE   HN119359   1.588   5.461   4.251  1.2573  1.8690 -0.2144
  172SAPE   HN219360   1.524   5.508   4.096  0.1769  1.2827  0.5447
  172SAPE   HN319361   1.595   5.357   4.113 -1.3679 -0.9050  1.9592
  172SAPE   C1219362   1.725   5.520   4.118 -0.1281 -0.4591 -0.9798
  172SAPE  H12A19363   1.723   5.536   4.009 -1.7457  0.5768 -0.8237
  172SAPE  H12B19364   1.803   5.445   4.144  1.7169  1.9082  0.8283
  172SAPE   C1119365   1.738   5.646   4.195  0.6918  0.2637 -0.7697
  172SAPE  H11A19366   1.749   5.627   4.304  0.4986  0.7644 -0.6589
  172SAPE  H11B19367   1.645   5.705   4.179  0.7160  0.0532 -1.7187
  172SAPE     P19368   1.990   5.716   4.219  0.3039 -0.2290  0.1809
  172SAPE   O1319369   2.049   5.591   4.169  0.6881  0.4473  0.5728
  172SAPE   O1419370   2.065   5.843   4.191  0.2190 -0.3217 -0.5912
  172SAPE   O1219371   1.850   5.718   4.153 -0.3234 -0.8524 -0.0545
  172SAPE   O1119372   1.960   5.696   4.370  0.0483 -0.0650 -0.2067
  172SAPE    C119373   1.911   5.797   4.456  0.5000 -0.2888  0.4196
  172SAPE    HA19374   1.868   5.875   4.390  2.4132 -1.0759 -1.8703
  172SAPE    HB19375   1.837   5.749   4.524  0.6854 -2.2902 -0.7327
  172SAPE    C219376   2.023   5.864   4.537 -0.1244 -0.0397  0.1567
  172SAPE    HS19377   2.093   5.895   4.456  1.4834  1.7862  2.1364
  172SAPE   O2119378   2.073   5.767   4.630 -0.0834 -0.2878 -0.0101
  172SAPE   C2119379   2.200   5.745   4.629 -0.4695 -0.8151  0.7779
  172SAPE   O2219380   2.288   5.809   4.572  0.6397 -0.0637  0.4451
  172SAPE   C2219381   2.231   5.618   4.710  0.2954  0.2614 -0.0951
  172SAPE   H2R19382   2.142   5.601   4.775 -1.1916  0.9219 -1.8637
  172SAPE   H2S19383   2.243   5.531   4.641 -2.0914 -0.1918 -0.0095
  172SAPE    C319384   1.968   5.981   4.615  1.1043 -0.0382 -0.0367
  172SAPE    HX19385   1.906   5.924   4.687  1.2035 -0.2286 -0.1036
  172SAPE    HY19386   1.917   6.052   4.547  1.3539 -1.1328 -1.4102
  172SAPE   O3119387   2.070   6.048   4.687  0.7194  0.0905 -0.5436
  172SAPE   C3119388   2.018   6.119   4.791  0.1103 -0.4142  0.0205
  172SAPE   O3219389   1.900   6.156   4.797 -0.1041  0.0430  0.2413
  172SAPE   C3219390   2.125   6.157   4.902 -0.2193 -0.0957  0.5129
  172SAPE   H2X19391   2.163   6.260   4.893  0.6228 -0.3836  0.7119
  172SAPE   H2Y19392   2.209   6.085   4.890 -1.1312 -1.1600  0.3264
  172SAPE   C2319393   2.355   5.639   4.802 -0.1469 -0.5766 -1.3232
  172SAPE   H3R19394   2.452   5.651   4.749 -0.1942  0.6180 -1.1612
  172SAPE   H3S19395   2.370   5.543   4.856 -0.7426  0.2563  0.4113
  172SAPE   C2419396   2.339   5.758   4.900 -0.0224 -0.4978  0.2570
  172SAPE   H4R19397   2.234   5.759   4.937 -0.2169  0.5538 -0.2885
  172SAPE   H4S19398   2.342   5.852   4.841 -0.9180 -0.7086 -0.1400
  172SAPE   C2519399   2.444   5.768   5.003  0.2351 -0.6779 -0.6370
  172SAPE   H5R19400   2.547   5.779   4.965  0.9836  1.5015  1.7519
  172SAPE   C2619401   2.427   5.761   5.136  0.2459 -0.4540 -0.1096
  172SAPE   H6R19402   2.517   5.784   5.195  1.1990  1.3114 -2.1224
  172SAPE   C2719403   2.302   5.753   5.218  0.9616 -0.3204 -0.0123
  172SAPE   H7R19404   2.219   5.807   5.168 -0.1925 -0.5808  1.5495
  172SAPE   H7S19405   2.321   5.811   5.311 -0.6097  0.3058 -0.0534
  172SAPE   C2819406   2.260   5.611   5.252  0.4727 -0.3832  0.0758
  172SAPE   H8R19407   2.231   5.554   5.162  1.0448 -0.9914  0.2763
  172SAPE   C2919408   2.247   5.547   5.368  0.2108 -0.0360  0.6144
  172SAPE   H9R19409   2.212   5.443   5.364  0.5091 -0.1015 -1.3748
  172SAPE  C21019410   2.281   5.610   5.500 -0.3300 -0.3112  0.6963
  172SAPE  H10R19411   2.275   5.721   5.500 -2.4592 -0.3923  0.6634
  172SAPE  H10S19412   2.389   5.601   5.521  0.1556 -1.7983 -1.9297
  172SAPE  C21119413   2.189   5.570   5.611 -0.5224 -0.1447 -0.2697
  172SAPE  H11R19414   2.082   5.590   5.591 -0.5851  0.2540  0.4735
  172SAPE  C21219415   2.234   5.532   5.731 -0.4454 -0.5999 -0.6791
  172SAPE  H12R19416   2.167   5.538   5.818  1.7535  0.0073  1.0454
  172SAPE  C21319417   2.380   5.522   5.762 -0.6824 -0.5951  0.4533
  172SAPE  H13R19418   2.428   5.622   5.750 -1.4704 -0.2874 -0.2410
  172SAPE  H13S19419   2.430   5.460   5.684 -1.0450 -0.8435  0.4195
  172SAPE  C21419420   2.406   5.470   5.899  0.3202  0.8271  0.4018
  172SAPE  H14R19421   2.370   5.535   5.980 -0.2250  0.1847  0.6826
  172SAPE  C21519422   2.467   5.359   5.946  0.2891 -0.1374 -0.2156
  172SAPE  H15R19423   2.470   5.343   6.055  0.0101  1.0407 -0.0177
  172SAPE  C21619424   2.527   5.255   5.859  0.7887  0.6336  1.0605
  172SAPE  H16R19425   2.521   5.282   5.751  1.7139  1.1813  1.1306
  172SAPE  H16S19426   2.477   5.159   5.880 -0.4935  0.2242 -2.9213
  172SAPE  C21719427   2.674   5.227   5.884 -0.4074 -0.3097 -0.4019
  172SAPE  H17R19428   2.730   5.323   5.879 -2.8735  1.3485  1.4185
  172SAPE  H17S19429   2.712   5.143   5.822 -0.7905 -2.2936  1.9119
  172SAPE  C21819430   2.684   5.175   6.030 -0.2781 -0.2900  0.2133
  172SAPE  H18R19431   2.623   5.083   6.046 -2.3270  1.0022  0.1114
  172SAPE  H18S19432   2.652   5.250   6.105 -0.4971  1.3651 -1.4832
  172SAPE  C21919433   2.833   5.156   6.077 -0.3317 -0.0245  0.4498
  172SAPE  H19R19434   2.859   5.180   6.182  1.1707  1.2843 -0.1917
  172SAPE  H19S19435   2.884   5.243   6.031 -2.3792  0.7313 -0.5258
  172SAPE  C22019436   2.903   5.022   6.030 -0.2260 -0.1379 -0.2626
  172SAPE  H20R19437   2.996   5.003   6.088 -0.6387 -1.2950  0.0484
  172SAPE  H20S19438   2.927   5.009   5.922  1.1363  0.3167 -0.0364
  172SAPE  H20T19439   2.833   4.940   6.058  0.1097 -0.8121 -1.3159
  172SAPE   C3319440   2.062   6.150   5.042 -0.5393  0.0030 -0.5900
  172SAPE   H3X19441   2.007   6.057   5.069 -1.9278  0.9952  0.0856
  172SAPE   H3Y19442   1.991   6.235   5.051  0.4047  0.8068 -0.6334
  172SAPE   C3419443   2.176   6.158   5.146 -1.1305  0.6217 -0.5615
  172SAPE   H4X19444   2.242   6.246   5.138  3.0280 -1.9942  1.5303
  172SAPE   H4Y19445   2.232   6.063   5.135  1.4142  2.2278 -2.4672
  172SAPE   C3519446   2.131   6.166   5.297 -0.7804 -0.3159  0.2221
  172SAPE   H5X19447   2.068   6.257   5.299  0.4917  0.6403 -0.8938
  172SAPE   H5Y19448   2.219   6.192   5.359  0.5946  1.6561 -2.3416
  172SAPE   C3619449   2.057   6.053   5.352  0.6764  0.1544  0.3613
  172SAPE   H6X19450   2.116   5.966   5.387 -1.0080 -0.8833  0.7548
  172SAPE   H6Y19451   1.990   6.014   5.273 -1.4611 -1.1012  2.6553
  172SAPE   C3719452   1.974   6.083   5.473  0.1045 -0.3579  0.2513
  172SAPE   H7X19453   1.904   6.164   5.443  3.0347  1.5122 -2.2555
  172SAPE   H7Y19454   2.041   6.129   5.549 -0.0361 -1.5133  1.0955
  172SAPE   C3819455   1.905   5.966   5.540  0.5466  0.0336  0.2324
  172SAPE   H8X19456   1.973   5.878   5.544 -0.9222 -1.1253  2.5632
  172SAPE   H8Y19457   1.812   5.939   5.485  0.4735  0.8237 -0.0449
  172SAPE   C3919458   1.863   5.981   5.688  0.4989 -0.1790 -0.2967
  172SAPE   H9X19459   1.775   5.915   5.702 -0.0749  0.3266 -1.3666
  172SAPE   H9Y19460   1.825   6.084   5.707 -0.5594 -0.7069  0.5285
  172SAPE  C31019461   1.981   5.953   5.782 -0.0704 -0.3497  0.0010
  172SAPE  H10X19462   2.075   6.004   5.751 -1.9959  2.1000 -2.3156
  172SAPE  H10Y19463   2.013   5.847   5.770  2.7233  0.2337  1.4636
  172SAPE  C31119464   1.941   5.965   5.935  0.0004 -0.1646 -0.1065
  172SAPE  H11X19465   1.881   6.056   5.954  0.9274  0.4482 -0.0352
  172SAPE  H11Y19466   2.032   5.998   5.990 -1.7064  2.3945  1.3809
  172SAPE  C31219467   1.869   5.835   5.986 -0.8281 -0.3657  0.0880
  172SAPE  H12X19468   1.935   5.747   5.977  0.3900  0.4471  0.7354
  172SAPE  H12Y19469   1.775   5.821   5.928 -0.1120 -1.6714 -0.7813
  172SAPE  C31319470   1.826   5.849   6.132  1.0954 -0.0895 -0.3142
  172SAPE  H13X19471   1.765   5.758   6.151  0.7752 -0.2057 -1.7601
  172SAPE  H13Y19472   1.758   5.935   6.148  0.1926 -0.7376 -0.6199
  172SAPE  C31419473   1.941   5.864   6.232  0.6534  0.7346 -0.5983
  172SAPE  H14X19474   1.988   5.965   6.238 -0.8595  1.5172 -1.3561
  172SAPE  H14Y19475   2.022   5.800   6.189 -0.2140 -0.0121 -1.1440
  172SAPE  C31519476   1.913   5.798   6.370 -0.3324  0.1454 -0.0289
  172SAPE  H15X19477   1.871   5.698   6.344 -0.9441  0.3425  0.1819
  172SAPE  H15Y19478   1.839   5.859   6.428  0.6302  0.9102  0.4191
  172SAPE  C31619479   2.028   5.773   6.471 -0.1826  0.0971  0.0365
  172SAPE  H16X19480   2.043   5.868   6.527  2.0576 -0.5614  0.6512
  172SAPE  H16Y19481   2.123   5.759   6.417 -0.0395  2.4231 -0.4153
  172SAPE  C31719482   1.999   5.653   6.571 -0.2518 -0.0774  0.5267
  172SAPE  H17X19483   2.093   5.631   6.627  0.0332 -0.0667  0.0547
  172SAPE  H17Y19484   1.984   5.564   6.507  3.3092 -0.8292  0.5202
  172SAPE  C31819485   1.883   5.685   6.663 -0.1987  0.8131  0.8795
  172SAPE  H18X19486   1.874   5.593   6.724  2.3196 -1.1782 -1.4737
  172SAPE  H18Y19487   1.792   5.707   6.603  0.6364 -1.1714 -1.2725
  172SAPE  H18Z19488   1.905   5.769   6.733  0.4292  0.9492  0.5285
  173SLPC     N19489   0.408   3.607   0.441 -0.1708 -0.0856 -0.3290
  173SLPC   C1319490   0.382   3.757   0.421  1.0410 -0.4020  0.1142
  173SLPC  H13A19491   0.342   3.766   0.321  0.9668 -0.4596  0.1389
  173SLPC  H13B19492   0.319   3.793   0.501  0.8114 -3.2157  1.3501
  173SLPC  H13C19493   0.469   3.820   0.417  0.1550  0.8494  0.0840
  173SLPC   C1419494   0.268   3.539   0.474 -0.3884  0.3263  0.2131
  173SLPC  H14A19495   0.265   3.438   0.512  0.5090 -0.2406 -1.1182
  173SLPC  H14B19496   0.214   3.607   0.538 -1.6427  1.1044 -1.5659
  173SLPC  H14C19497   0.205   3.543   0.386  0.5238  0.6490 -0.4514
  173SLPC   C1519498   0.496   3.591   0.561  0.2931 -0.7869  0.4148
  173SLPC  H15A19499   0.440   3.592   0.654 -0.8511 -0.1777 -0.2697
  173SLPC  H15B19500   0.538   3.491   0.552 -0.3374 -0.8885 -1.9409
  173SLPC  H15C19501   0.563   3.676   0.566 -1.5547  0.6878  1.4319
  173SLPC   C1219502   0.487   3.555   0.318  0.3129  0.6433 -1.0403
  173SLPC  H12A19503   0.523   3.454   0.332 -1.7959  0.1251  1.5146
  173SLPC  H12B19504   0.575   3.617   0.315  0.9138 -0.0512  0.8737
  173SLPC   C1119505   0.410   3.549   0.181  0.2323 -0.3936 -0.4769
  173SLPC  H11A19506   0.309   3.504   0.185 -0.1186  0.2051 -1.7602
  173SLPC  H11B19507   0.462   3.493   0.101  0.1862 -0.7714 -0.2425
  173SLPC     P19508   0.515   3.769   0.095  0.4106  0.2166  0.3156
  173SLPC   O1319509   0.495   3.914   0.114 -0.2161  0.1773  0.3860
  173SLPC   O1419510   0.639   3.712   0.153  0.1121  0.1203  0.3199
  173SLPC   O1219511   0.389   3.688   0.141 -0.4174  0.1571 -0.0649
  173SLPC   O1119512   0.515   3.734  -0.060 -0.3865 -0.4515  0.0908
  173SLPC    C119513   0.400   3.694  -0.126 -0.6358  0.6875 -1.1455
  173SLPC    HA19514   0.380   3.589  -0.097 -2.0259  1.2456  0.0414
  173SLPC    HB19515   0.319   3.763  -0.094 -1.1367  0.9100 -2.7840
  173SLPC    C219516   0.407   3.715  -0.279  0.5010 -0.2386 -0.2744
  173SLPC    HS19517   0.486   3.648  -0.320  2.2240  1.8102 -0.5037
  173SLPC   O2119518   0.439   3.847  -0.308  0.2432 -0.7902 -0.2026
  173SLPC   C2119519   0.498   3.880  -0.414 -0.6243  0.0911 -0.1541
  173SLPC   O2219520   0.572   3.809  -0.486  0.6442 -0.2158 -0.2671
  173SLPC   C2219521   0.479   4.027  -0.443 -0.3715 -1.4614  0.4975
  173SLPC   H2R19522   0.371   4.052  -0.450  0.7122  4.1051 -1.5622
  173SLPC   H2S19523   0.517   4.100  -0.368  0.7227  0.1577 -1.5353
  173SLPC    C319524   0.264   3.679  -0.343  0.6006 -0.1309  0.1132
  173SLPC    HX19525   0.184   3.747  -0.307  1.3880  2.9237 -3.3479
  173SLPC    HY19526   0.234   3.578  -0.307 -0.9757 -0.7664 -2.7348
  173SLPC   O3119527   0.252   3.684  -0.489 -0.1483 -0.2340  0.5175
  173SLPC   C3119528   0.301   3.574  -0.550  0.1436 -0.5402 -0.8285
  173SLPC   O3219529   0.326   3.468  -0.492  0.2851 -1.1395 -0.3146
  173SLPC   C3219530   0.316   3.586  -0.699  0.7399  0.2347  0.0482
  173SLPC   H2X19531   0.222   3.613  -0.753  0.9910 -0.8792 -1.0073
  173SLPC   H2Y19532   0.335   3.485  -0.743  1.4045  0.1291  0.5809
  173SLPC   C2319533   0.547   4.072  -0.576 -0.3919  0.4637  1.0339
  173SLPC   H3R19534   0.535   3.991  -0.651  2.4813  0.5623  0.3574
  173SLPC   H3S19535   0.656   4.084  -0.561 -0.3399  0.6861  0.5044
  173SLPC   C2419536   0.500   4.202  -0.633 -0.0638  0.6364  0.4211
  173SLPC   H4R19537   0.554   4.283  -0.580  1.2273 -0.5658  1.0023
  173SLPC   H4S19538   0.392   4.190  -0.610  0.1680 -2.0467  0.3284
  173SLPC   C2519539   0.525   4.220  -0.785  0.1260 -0.9156  0.3435
  173SLPC   H5R19540   0.626   4.181  -0.810  0.3366 -0.6499  0.7738
  173SLPC   H5S19541   0.522   4.331  -0.792  1.9201 -0.8894 -0.5735
  173SLPC   C2619542   0.419   4.145  -0.864 -0.0607 -0.2048 -0.3975
  173SLPC   H6R19543   0.321   4.196  -0.864  0.0492  0.0312 -1.8229
  173SLPC   H6S19544   0.405   4.045  -0.817  0.2103 -0.5415 -1.0243
  173SLPC   C2719545   0.454   4.128  -1.013  0.9670  1.0529  0.7998
  173SLPC   H7R19546   0.369   4.071  -1.056  1.7086 -0.9489  1.8381
  173SLPC   H7S19547   0.544   4.063  -1.023  0.3032  0.4383 -3.2016
  173SLPC   C2819548   0.456   4.257  -1.092  0.8555 -0.2834 -0.4759
  173SLPC   H8R19549   0.508   4.338  -1.036  2.3390 -1.7678  0.3935
  173SLPC   H8S19550   0.352   4.296  -1.093  0.7400 -0.5670 -2.0515
  173SLPC   C2919551   0.509   4.240  -1.231 -0.3222 -0.0979 -0.0400
  173SLPC   H9R19552   0.436   4.218  -1.311 -0.0120  1.2497 -0.7152
  173SLPC  C21019553   0.641   4.254  -1.258  0.2011  0.2628  0.3954
  173SLPC  H10R19554   0.676   4.243  -1.361  1.4574 -2.8210  1.0183
  173SLPC  C21119555   0.750   4.264  -1.152  0.2489 -0.1085 -0.2209
  173SLPC  H11R19556   0.725   4.206  -1.061 -0.8376  0.6939  0.0150
  173SLPC  H11S19557   0.744   4.368  -1.111 -0.3356  0.3781 -1.4814
  173SLPC  C21219558   0.890   4.252  -1.216  0.0034 -0.1590 -0.1558
  173SLPC  H12R19559   0.946   4.164  -1.179  2.2912  1.0185 -0.6097
  173SLPC  C21319560   0.955   4.334  -1.299  0.2829 -0.5222  0.3547
  173SLPC  H13R19561   1.051   4.299  -1.339  1.1510  2.1976 -0.1345
  173SLPC  C21419562   0.904   4.466  -1.354 -0.3336 -0.5676 -0.3526
  173SLPC  H14R19563   0.960   4.552  -1.311  0.9163 -1.2549 -0.5400
  173SLPC  H14S19564   0.800   4.478  -1.318 -0.3404 -0.5972 -0.3628
  173SLPC  C21519565   0.914   4.484  -1.510 -0.0108 -0.0513  0.4381
  173SLPC  H15R19566   1.020   4.489  -1.541  0.0215  0.3921  0.6194
  173SLPC  H15S19567   0.861   4.576  -1.543  0.0332 -0.1859 -0.0195
  173SLPC  C21619568   0.839   4.366  -1.579  0.3737  0.6475  0.3656
  173SLPC  H16R19569   0.755   4.348  -1.508  0.5507  0.1106  0.4385
  173SLPC  H16S19570   0.895   4.270  -1.581  0.1268  0.4927  0.8265
  173SLPC  C21719571   0.796   4.404  -1.724 -0.0155  0.3964 -0.2199
  173SLPC  H17R19572   0.878   4.412  -1.799 -0.5765 -2.0422 -1.1981
  173SLPC  H17S19573   0.745   4.503  -1.726 -0.8492 -0.0190 -0.3759
  173SLPC  C21819574   0.698   4.302  -1.785  0.2621  0.9424  0.6908
  173SLPC  H18R19575   0.752   4.209  -1.813 -0.8127  0.4849  0.0509
  173SLPC  H18S19576   0.669   4.345  -1.883  3.1027 -0.5127 -0.9209
  173SLPC  H18T19577   0.610   4.286  -1.720  0.1218  4.5106  1.5558
  173SLPC   C3319578   0.428   3.675  -0.755  0.4562 -0.0961  0.6675
  173SLPC   H3X19579   0.514   3.683  -0.685  1.7451 -0.5278 -0.7992
  173SLPC   H3Y19580   0.382   3.775  -0.773 -1.1795 -0.9054  0.1837
  173SLPC   C3419581   0.481   3.631  -0.893 -0.0704 -0.0489 -0.4634
  173SLPC   H4X19582   0.518   3.528  -0.875 -0.9673 -0.2884  0.1106
  173SLPC   H4Y19583   0.572   3.687  -0.923  0.4714  0.8577  2.4748
  173SLPC   C3519584   0.383   3.640  -1.007 -0.5860  1.1642 -0.4898
  173SLPC   H5X19585   0.363   3.748  -1.028 -2.2799  1.3492  1.7611
  173SLPC   H5Y19586   0.291   3.583  -0.983  0.9645 -0.6992  1.3880
  173SLPC   C3619587   0.456   3.579  -1.129 -0.2842  0.5346 -0.4320
  173SLPC   H6X19588   0.507   3.485  -1.100 -1.1862 -0.1970 -1.1437
  173SLPC   H6Y19589   0.538   3.647  -1.162  1.9808 -2.2541 -0.8628
  173SLPC   C3719590   0.383   3.557  -1.256  0.7409  0.3001  0.0694
  173SLPC   H7X19591   0.319   3.646  -1.273 -0.9032 -0.4809  1.7108
  173SLPC   H7Y19592   0.316   3.471  -1.234  0.5766  1.3483  4.4267
  173SLPC   C3819593   0.470   3.521  -1.383  0.3283 -0.3425 -0.3674
  173SLPC   H8X19594   0.569   3.475  -1.362 -0.1175 -0.9811  0.3721
  173SLPC   H8Y19595   0.495   3.622  -1.423 -1.1772  0.8905  1.5697
  173SLPC   C3919596   0.395   3.448  -1.488  0.0603  0.3226  0.1074
  173SLPC   H9X19597   0.300   3.505  -1.494  1.2965  2.4051 -1.3927
  173SLPC   H9Y19598   0.377   3.344  -1.454  0.4685  0.0238 -0.5649
  173SLPC  C31019599   0.475   3.441  -1.620 -0.1745  0.7716 -0.8933
  173SLPC  H10X19600   0.558   3.370  -1.600 -0.0463  1.8364  3.4515
  173SLPC  H10Y19601   0.520   3.541  -1.639  0.8855  0.3555 -0.6952
  173SLPC  C31119602   0.383   3.382  -1.732 -0.9695 -0.4727  0.9804
  173SLPC  H11X19603   0.305   3.454  -1.766 -2.0402 -2.4135 -0.9282
  173SLPC  H11Y19604   0.315   3.299  -1.701 -3.0223  0.9861  0.5959
  173SLPC  C31219605   0.465   3.347  -1.858  0.7435  0.5892  0.6272
  173SLPC  H12X19606   0.563   3.304  -1.830  0.2164  0.2203  1.9505
  173SLPC  H12Y19607   0.474   3.436  -1.925  0.8645 -0.3476 -0.6511
  173SLPC  C31319608   0.395   3.240  -1.952 -0.1945 -0.8361 -0.2171
  173SLPC  H13X19609   0.286   3.262  -1.947  0.0131  0.0859  0.3045
  173SLPC  H13Y19610   0.424   3.138  -1.918 -0.0642 -1.1338 -1.1896
  173SLPC  C31419611   0.451   3.247  -2.091 -0.0015  0.2988  0.1988
  173SLPC  H14X19612   0.560   3.270  -2.095 -0.2513  1.6193  0.6076
  173SLPC  H14Y19613   0.403   3.334  -2.139 -1.1229  0.2368  1.1698
  173SLPC  C31519614   0.419   3.127  -2.185  0.4310  0.2800 -0.2531
  173SLPC  H15X19615   0.311   3.142  -2.209  0.9279 -0.0608 -2.9880
  173SLPC  H15Y19616   0.442   3.030  -2.136  0.9457  1.8512  2.8434
  173SLPC  C31619617   0.517   3.109  -2.308 -0.0215 -0.3958  0.6225
  173SLPC  H16X19618   0.489   3.027  -2.377  0.4616 -1.7146  1.9356
  173SLPC  H16Y19619   0.620   3.087  -2.274  1.0002  2.8911  0.0157
  173SLPC  C31719620   0.524   3.236  -2.403 -0.0182 -0.8974 -0.2644
  173SLPC  H17X19621   0.573   3.309  -2.336 -1.9003  1.1202 -0.9621
  173SLPC  H17Y19622   0.423   3.281  -2.416 -0.4349 -1.5747  0.5254
  173SLPC  C31819623   0.596   3.223  -2.532  0.2119 -0.8683 -0.2673
  173SLPC  H18X19624   0.550   3.144  -2.595 -0.0250 -1.4023  0.5652
  173SLPC  H18Y19625   0.702   3.202  -2.506  1.1187  1.7028 -1.5569
  173SLPC  H18Z19626   0.606   3.320  -2.585  0.5584  0.7441  2.5436
  174SLPC     N19627   4.090   5.181   0.312  0.1303  0.2184 -0.1966
  174SLPC   C1319628   4.198   5.265   0.375 -0.4848 -0.5479  0.2568
  174SLPC  H13A19629   4.292   5.213   0.385  1.4157  2.7045  0.6164
  174SLPC  H13B19630   4.227   5.336   0.299 -1.5132 -2.0194 -1.6187
  174SLPC  H13C19631   4.163   5.317   0.462  2.1023  3.4070 -0.8296
  174SLPC   C1419632   3.974   5.274   0.291 -0.0330 -0.2413 -0.2563
  174SLPC  H14A19633   3.988   5.355   0.221 -2.2817  0.3097 -0.1500
  174SLPC  H14B19634   3.881   5.231   0.257 -1.3149  1.1320  1.3383
  174SLPC  H14C19635   3.955   5.329   0.382 -0.1188 -0.3746 -0.1938
  174SLPC   C1519636   4.044   5.079   0.414 -0.2307  0.1051 -0.3217
  174SLPC  H15A19637   3.964   5.023   0.369 -0.5395  0.8849 -0.7748
  174SLPC  H15B19638   4.113   4.997   0.423 -1.9420 -1.4048 -0.4343
  174SLPC  H15C19639   4.029   5.119   0.514 -1.0683 -1.1236  0.0685
  174SLPC   C1219640   4.141   5.116   0.182 -0.3364  0.7455 -0.3796
  174SLPC  H12A19641   4.236   5.068   0.199 -0.5867  0.1245 -0.7220
  174SLPC  H12B19642   4.168   5.204   0.125  0.7550  0.5421 -0.2075
  174SLPC   C1119643   4.048   5.032   0.102  0.5115  0.5849  0.4701
  174SLPC  H11A19644   4.089   5.008   0.001 -0.3054 -0.6943  0.4121
  174SLPC  H11B19645   3.960   5.095   0.076 -0.5265 -0.4303  1.4321
  174SLPC     P19646   4.112   4.777   0.150 -0.1575  0.3327 -0.0614
  174SLPC   O1319647   4.253   4.795   0.184 -0.0298  0.0964 -0.5693
  174SLPC   O1419648   4.045   4.665   0.222 -0.2431 -0.5997  0.1129
  174SLPC   O1219649   4.023   4.905   0.175  0.1896 -0.2721 -0.2247
  174SLPC   O1119650   4.106   4.752  -0.002 -0.5245  0.0684  0.3704
  174SLPC    C119651   3.990   4.750  -0.082 -0.1956  0.2496 -0.1291
  174SLPC    HA19652   3.896   4.718  -0.031 -0.2937 -1.1061 -1.0997
  174SLPC    HB19653   3.972   4.844  -0.139 -1.9397 -1.8612 -3.3824
  174SLPC    C219654   4.012   4.649  -0.198  0.4302 -0.3010  0.3026
  174SLPC    HS19655   3.999   4.555  -0.142  1.2237 -0.6721 -0.1244
  174SLPC   O2119656   4.136   4.674  -0.260  0.4467  0.0687 -0.7959
  174SLPC   C2119657   4.188   4.559  -0.303  0.3635  0.5797  0.4472
  174SLPC   O2219658   4.134   4.449  -0.291  0.0984 -0.2013 -0.5880
  174SLPC   C2219659   4.315   4.589  -0.384 -0.0048 -0.9004 -0.2110
  174SLPC   H2R19660   4.301   4.676  -0.451  1.6310 -1.6388 -1.6027
  174SLPC   H2S19661   4.398   4.607  -0.311 -0.9867  1.6028  0.3907
  174SLPC    C319662   3.900   4.659  -0.304  0.1294  0.1515  0.0451
  174SLPC    HX19663   3.906   4.748  -0.370 -0.5862 -0.4552 -0.8730
  174SLPC    HY19664   3.797   4.660  -0.261 -0.8488 -2.0256 -1.9748
  174SLPC   O3119665   3.896   4.541  -0.391 -0.5469 -0.1523 -0.1748
  174SLPC   C3119666   3.940   4.553  -0.513  0.4777 -0.0886  0.6123
  174SLPC   O3219667   4.000   4.651  -0.556 -0.2121  0.2913  0.1626
  174SLPC   C3219668   3.902   4.426  -0.597 -0.8276 -0.0816 -0.3900
  174SLPC   H2X19669   3.842   4.351  -0.541  0.6064  0.1111  1.4916
  174SLPC   H2Y19670   3.990   4.358  -0.596  0.3349  1.3753 -0.6169
  174SLPC   C2319671   4.348   4.476  -0.473  0.0654 -0.4476  0.9685
  174SLPC   H3R19672   4.255   4.449  -0.527  1.1323 -1.1591 -0.5849
  174SLPC   H3S19673   4.376   4.383  -0.419  1.5710 -0.8900 -0.4931
  174SLPC   C2419674   4.452   4.533  -0.581  0.0274  0.4808 -0.0484
  174SLPC   H4R19675   4.550   4.531  -0.530 -1.0230  1.8738  2.1676
  174SLPC   H4S19676   4.437   4.641  -0.602  1.6284  0.8190  0.3841
  174SLPC   C2519677   4.466   4.458  -0.709  0.1893  0.4695  0.0231
  174SLPC   H5R19678   4.444   4.353  -0.681  0.9347  0.2316 -0.2626
  174SLPC   H5S19679   4.567   4.451  -0.754  0.0758  0.3619 -0.2140
  174SLPC   C2619680   4.367   4.535  -0.801  0.6631  0.4737 -0.1209
  174SLPC   H6R19681   4.419   4.633  -0.802  2.5159 -0.3616  2.7939
  174SLPC   H6S19682   4.268   4.552  -0.753  0.5830  1.2763 -0.5487
  174SLPC   C2719683   4.343   4.469  -0.939 -0.3020 -0.1908 -0.8793
  174SLPC   H7R19684   4.251   4.514  -0.983 -0.0670  0.0129 -1.1643
  174SLPC   H7S19685   4.333   4.363  -0.909  3.3838 -0.8928 -1.6991
  174SLPC   C2819686   4.452   4.487  -1.046  0.1795  0.0732 -0.1663
  174SLPC   H8R19687   4.474   4.592  -1.073 -1.6652  1.1984  2.3803
  174SLPC   H8S19688   4.418   4.443  -1.143 -2.7888  0.9985  0.3599
  174SLPC   C2919689   4.587   4.437  -1.015 -0.4165  0.6349 -0.1897
  174SLPC   H9R19690   4.655   4.511  -0.972  1.1474 -0.5224 -0.5829
  174SLPC  C21019691   4.632   4.310  -1.042 -0.4172 -0.5560 -0.3258
  174SLPC  H10R19692   4.737   4.293  -1.013 -0.2623  2.9575  1.7644
  174SLPC  C21119693   4.550   4.203  -1.100  0.6638  0.2554 -0.7870
  174SLPC  H11R19694   4.505   4.243  -1.193 -0.4962  0.7051 -0.0474
  174SLPC  H11S19695   4.474   4.168  -1.027  0.7091  0.8959 -0.4335
  174SLPC  C21219696   4.631   4.075  -1.142  0.5060 -0.5803  1.1746
  174SLPC  H12R19697   4.736   4.103  -1.160 -0.7567  3.2368 -1.8243
  174SLPC  C21319698   4.586   3.953  -1.150  0.5821  0.5818 -0.1291
  174SLPC  H13R19699   4.657   3.875  -1.181  0.5039 -0.0598  1.2190
  174SLPC  C21419700   4.436   3.917  -1.143 -0.0391  0.3258 -1.0065
  174SLPC  H14R19701   4.391   4.004  -1.089  2.8447  1.3132 -0.0207
  174SLPC  H14S19702   4.410   3.824  -1.087  0.6259  0.0137 -1.2096
  174SLPC  C21519703   4.379   3.909  -1.281 -0.3478 -0.1619 -0.1997
  174SLPC  H15R19704   4.441   3.834  -1.335  0.5902 -2.2752  3.4560
  174SLPC  H15S19705   4.392   4.002  -1.339 -1.8799  0.9948  1.2356
  174SLPC  C21619706   4.229   3.865  -1.271 -0.4179 -0.6759  0.5013
  174SLPC  H16R19707   4.164   3.955  -1.256  1.4225  0.8100 -0.0676
  174SLPC  H16S19708   4.209   3.799  -1.185 -1.6179 -0.7800  0.1727
  174SLPC  C21719709   4.180   3.808  -1.403  0.6430 -0.0131 -0.2602
  174SLPC  H17R19710   4.070   3.795  -1.395  0.8875 -1.1331  3.5940
  174SLPC  H17S19711   4.228   3.708  -1.403 -0.9233 -0.8147  1.0240
  174SLPC  C21819712   4.217   3.883  -1.527 -0.7715  0.0072  0.1893
  174SLPC  H18R19713   4.192   3.990  -1.515  0.7891  0.3798  0.3595
  174SLPC  H18S19714   4.173   3.838  -1.618  0.2866 -1.0823  0.1843
  174SLPC  H18T19715   4.327   3.866  -1.529 -0.8472 -0.5022  0.0628
  174SLPC   C3319716   3.871   4.447  -0.752  0.3219  0.0317 -0.8394
  174SLPC   H3X19717   3.962   4.494  -0.796 -0.1335  2.2270  0.4016
  174SLPC   H3Y19718   3.793   4.524  -0.773 -0.6938 -1.0575 -1.1333
  174SLPC   C3419719   3.815   4.324  -0.822 -0.2705 -0.5951 -0.5705
  174SLPC   H4X19720   3.732   4.293  -0.755 -1.1932 -1.1006 -1.8987
  174SLPC   H4Y19721   3.901   4.253  -0.823  4.0310  4.0552 -0.5151
  174SLPC   C3519722   3.756   4.349  -0.959  0.5333 -0.3546  0.6369
  174SLPC   H5X19723   3.665   4.412  -0.959 -0.0360 -0.9262 -2.9328
  174SLPC   H5Y19724   3.717   4.251  -0.995  3.4082 -1.6135  0.6877
  174SLPC   C3619725   3.844   4.412  -1.067 -0.7078  0.8552  0.6222
  174SLPC   H6X19726   3.882   4.510  -1.030 -0.6600  1.2045 -0.3338
  174SLPC   H6Y19727   3.782   4.423  -1.158 -0.5543  3.0104  0.7218
  174SLPC   C3719728   3.968   4.335  -1.108  0.5128 -0.3404  0.5889
  174SLPC   H7X19729   3.946   4.227  -1.103  0.0908 -0.1962  2.9140
  174SLPC   H7Y19730   4.050   4.364  -1.039  2.7702 -0.6969 -1.7933
  174SLPC   C3819731   4.024   4.370  -1.249 -0.2593 -0.5469  0.4721
  174SLPC   H8X19732   4.086   4.462  -1.240  2.7467 -2.4235  0.5273
  174SLPC   H8Y19733   3.933   4.386  -1.310 -1.0442  0.0453  1.7442
  174SLPC   C3919734   4.096   4.254  -1.321  0.9606  0.2046  0.0824
  174SLPC   H9X19735   4.032   4.164  -1.312  0.0928  1.0109  3.2161
  174SLPC   H9Y19736   4.191   4.229  -1.268  0.2898  0.4629  1.4491
  174SLPC  C31019737   4.130   4.296  -1.466 -0.5318  0.7336  0.7586
  174SLPC  H10X19738   4.205   4.230  -1.515 -0.1147  2.3271 -0.8437
  174SLPC  H10Y19739   4.175   4.397  -1.466  0.4960  0.2866  0.7432
  174SLPC  C31119740   4.008   4.308  -1.565  1.0830 -0.4203 -0.0212
  174SLPC  H11X19741   3.952   4.393  -1.520 -0.5368 -1.7266  0.5361
  174SLPC  H11Y19742   3.941   4.221  -1.550  0.6349  0.2580  2.4592
  174SLPC  C31219743   4.043   4.336  -1.709  0.0904  0.6135  0.1603
  174SLPC  H12X19744   4.114   4.422  -1.711  0.6627  0.2737 -4.3648
  174SLPC  H12Y19745   3.945   4.360  -1.754 -0.3880  1.3718  1.5438
  174SLPC  C31319746   4.108   4.217  -1.778  0.1338 -0.2347  0.2649
  174SLPC  H13X19747   4.035   4.133  -1.777  1.6805 -1.6198  0.3031
  174SLPC  H13Y19748   4.194   4.195  -1.712 -0.5328  1.7992  1.9252
  174SLPC  C31419749   4.164   4.237  -1.918  0.0624 -0.1440 -0.3185
  174SLPC  H14X19750   4.250   4.305  -1.902 -0.0010 -0.2155  0.3446
  174SLPC  H14Y19751   4.090   4.288  -1.984  0.6203 -0.7185 -1.4071
  174SLPC  C31519752   4.215   4.108  -1.977  0.2711  0.8620 -0.1601
  174SLPC  H15X19753   4.271   4.057  -1.895  1.3658  0.0733 -1.3598
  174SLPC  H15Y19754   4.288   4.133  -2.056 -0.1493 -0.8348 -1.1141
  174SLPC  C31619755   4.100   4.018  -2.021 -0.3171  0.2736  0.6494
  174SLPC  H16X19756   4.033   4.086  -2.078  0.2266  0.7238  0.5492
  174SLPC  H16Y19757   4.046   3.979  -1.932 -0.7543 -0.7953 -0.0541
  174SLPC  C31719758   4.151   3.897  -2.111 -0.3013  0.5472 -0.3509
  174SLPC  H17X19759   4.065   3.832  -2.140  0.7285 -0.9033 -0.2570
  174SLPC  H17Y19760   4.220   3.843  -2.044  1.0459  1.4212 -0.9992
  174SLPC  C31819761   4.220   3.923  -2.244 -0.0657  0.1339 -0.2067
  174SLPC  H18X19762   4.148   3.957  -2.322 -0.2963 -0.0825 -0.0914
  174SLPC  H18Y19763   4.259   3.826  -2.284 -0.5387  0.3317 -1.1888
  174SLPC  H18Z19764   4.293   4.005  -2.232 -1.3441  1.4400 -0.9679
  175SLPC     N19765   5.944   2.056   0.073 -0.6953 -0.5454  0.0956
  175SLPC   C1319766   5.793   2.039   0.044 -0.2625 -0.5150 -0.6197
  175SLPC  H13A19767   5.760   1.936   0.042 -1.4526 -0.2894  2.4928
  175SLPC  H13B19768   5.723   2.091   0.108  0.6281 -2.2992  1.9887
  175SLPC  H13C19769   5.766   2.069  -0.056 -2.0605 -1.0617 -0.3358
  175SLPC   C1419770   5.971   1.978   0.202  0.2986  0.1869 -0.4270
  175SLPC  H14A19771   5.885   1.996   0.265 -1.8041 -1.8643 -2.4970
  175SLPC  H14B19772   5.963   1.874   0.172 -3.5602  0.0269  0.6708
  175SLPC  H14C19773   6.064   2.002   0.252  0.7075 -0.0104 -1.0754
  175SLPC   C1519774   5.973   2.199   0.092  0.0955  0.5366 -0.3562
  175SLPC  H15A19775   6.076   2.202   0.121  0.2314  0.3540 -0.8007
  175SLPC  H15B19776   5.963   2.256   0.001  1.4402  1.8192  0.2674
  175SLPC  H15C19777   5.909   2.236   0.171 -1.1400 -1.7375 -0.2097
  175SLPC   C1219778   6.029   1.997  -0.041  0.1243  0.0777  0.6488
  175SLPC  H12A19779   6.005   2.062  -0.124 -1.8913 -0.0862  1.0601
  175SLPC  H12B19780   5.987   1.900  -0.061  0.6865 -0.1766  0.6961
  175SLPC   C1119781   6.179   1.981  -0.032 -0.0764  0.1992  0.4622
  175SLPC  H11A19782   6.225   2.079  -0.010 -3.3867  1.7620  0.9976
  175SLPC  H11B19783   6.214   1.962  -0.136 -3.6242 -0.7709 -0.6866
  175SLPC     P19784   6.183   1.733   0.012 -0.0050  0.3720 -0.3218
  175SLPC   O1319785   6.281   1.640   0.073  0.3896  0.4617 -0.3295
  175SLPC   O1419786   6.036   1.705   0.051 -0.3143  0.7717  0.0332
  175SLPC   O1219787   6.221   1.884   0.058  0.9688 -0.1944 -0.3285
  175SLPC   O1119788   6.200   1.729  -0.147 -0.3138  0.1322 -0.7244
  175SLPC    C119789   6.185   1.615  -0.221  0.5082 -0.2911 -0.4452
  175SLPC    HA19790   6.280   1.559  -0.234  0.6172 -0.5920  1.4584
  175SLPC    HB19791   6.118   1.542  -0.171  0.7506 -0.8972 -0.9856
  175SLPC    C219792   6.127   1.650  -0.361  1.1693 -0.6174  0.0236
  175SLPC    HS19793   6.108   1.564  -0.428 -1.5995  0.6077 -0.8961
  175SLPC   O2119794   6.196   1.750  -0.431  0.2431 -0.2022 -0.0063
  175SLPC   C2119795   6.312   1.698  -0.473 -0.1546  0.0361  0.0884
  175SLPC   O2219796   6.351   1.584  -0.458 -0.5093 -0.2706 -0.4206
  175SLPC   C2219797   6.402   1.807  -0.538 -0.4554 -0.7107 -0.2782
  175SLPC   H2R19798   6.371   1.839  -0.640  1.2476  0.9557 -0.3282
  175SLPC   H2S19799   6.389   1.897  -0.474  0.1507 -1.1454  0.4704
  175SLPC    C319800   5.979   1.699  -0.340 -0.3402  0.7428 -0.7587
  175SLPC    HX19801   5.971   1.793  -0.282  1.8291 -1.0619  2.8095
  175SLPC    HY19802   5.946   1.619  -0.270  0.0717  1.7472  0.6229
  175SLPC   O3119803   5.896   1.676  -0.458  0.1227  0.1832  0.0712
  175SLPC   C3119804   5.872   1.778  -0.538 -0.6262  0.0576 -0.2761
  175SLPC   O3219805   5.902   1.893  -0.523  0.0155 -0.4113  0.3285
  175SLPC   C3219806   5.779   1.718  -0.655 -0.1284 -0.6554 -0.3682
  175SLPC   H2X19807   5.685   1.691  -0.602 -0.6467  1.1223 -0.3325
  175SLPC   H2Y19808   5.834   1.635  -0.705  2.0499 -0.0997  0.9764
  175SLPC   C2319809   6.550   1.782  -0.553  0.4697 -0.7133  0.1175
  175SLPC   H3R19810   6.591   1.746  -0.457  0.1465  1.3148  1.0692
  175SLPC   H3S19811   6.611   1.874  -0.563  1.5886 -1.3192  1.0758
  175SLPC   C2419812   6.587   1.679  -0.664 -0.1294  0.3681 -0.0372
  175SLPC   H4R19813   6.545   1.580  -0.637  2.1043 -0.2173  1.5473
  175SLPC   H4S19814   6.697   1.673  -0.653 -0.3135 -0.3159  1.7661
  175SLPC   C2519815   6.550   1.726  -0.806  0.1064  0.0671 -0.5047
  175SLPC   H5R19816   6.572   1.835  -0.800 -1.2151  0.3284  0.0495
  175SLPC   H5S19817   6.442   1.707  -0.823  0.1185 -0.6019  0.1322
  175SLPC   C2619818   6.634   1.675  -0.926  0.1269  0.3851  0.0667
  175SLPC   H6R19819   6.613   1.567  -0.937  2.2380  0.1355 -2.5344
  175SLPC   H6S19820   6.741   1.666  -0.897  0.0994 -0.6236 -0.1311
  175SLPC   C2719821   6.627   1.746  -1.060  0.5142 -0.1045 -0.4111
  175SLPC   H7R19822   6.650   1.853  -1.041 -2.9269  0.9887 -1.6499
  175SLPC   H7S19823   6.519   1.743  -1.086 -0.5527 -0.5495  3.4329
  175SLPC   C2819824   6.720   1.687  -1.162 -0.2640 -0.3181  0.1140
  175SLPC   H8R19825   6.694   1.579  -1.172  2.2407 -0.9255 -0.7152
  175SLPC   H8S19826   6.824   1.683  -1.122 -0.1911  2.2998  0.3581
  175SLPC   C2919827   6.712   1.766  -1.291 -0.2905  0.7621 -0.1699
  175SLPC   H9R19828   6.613   1.774  -1.339  1.1197 -0.8685 -3.7212
  175SLPC  C21019829   6.809   1.836  -1.353  0.3757  0.0584 -0.2787
  175SLPC  H10R19830   6.777   1.887  -1.445 -1.4056  0.2239  0.3993
  175SLPC  C21119831   6.952   1.854  -1.316  0.4552 -0.5597  0.7488
  175SLPC  H11R19832   6.997   1.754  -1.294  0.9074 -0.1789  1.5906
  175SLPC  H11S19833   6.948   1.899  -1.214 -0.8750 -0.1550  0.5392
  175SLPC  C21219834   7.047   1.909  -1.418  0.6347  0.0587  0.3110
  175SLPC  H12R19835   7.081   2.010  -1.389  2.7316 -0.1425 -1.2147
  175SLPC  C21319836   7.097   1.854  -1.529  0.1475  0.2882 -0.1369
  175SLPC  H13R19837   7.173   1.914  -1.580  1.7789  1.7175  3.6226
  175SLPC  C21419838   7.073   1.714  -1.574 -0.5057  0.5486 -0.6327
  175SLPC  H14R19839   7.007   1.662  -1.501 -0.4328  0.9582 -0.2663
  175SLPC  H14S19840   7.173   1.666  -1.569  0.3954  2.3688 -0.5638
  175SLPC  C21519841   7.001   1.699  -1.704  0.1351  0.3446  0.0972
  175SLPC  H15R19842   6.906   1.756  -1.701  0.1164  0.3916 -0.9833
  175SLPC  H15S19843   6.979   1.592  -1.726 -1.4345  0.5004  0.7742
  175SLPC  C21619844   7.073   1.748  -1.831  0.4797 -0.7681 -0.3264
  175SLPC  H16R19845   7.068   1.859  -1.832  2.0518 -0.6607  0.4671
  175SLPC  H16S19846   7.011   1.719  -1.919 -2.1560 -0.4718  1.3078
  175SLPC  C21719847   7.216   1.690  -1.843  0.3551  0.0359  0.4769
  175SLPC  H17R19848   7.219   1.580  -1.832 -0.8993 -0.7150 -4.3680
  175SLPC  H17S19849   7.275   1.745  -1.767  0.3088  0.2228  0.3778
  175SLPC  C21819850   7.274   1.706  -1.983 -0.3105 -0.2865  0.5133
  175SLPC  H18R19851   7.300   1.813  -1.997  0.7511 -0.6336 -0.2962
  175SLPC  H18S19852   7.195   1.678  -2.056 -0.0190  0.3320 -0.0517
  175SLPC  H18T19853   7.367   1.647  -2.000 -1.3134 -1.4951 -1.1248
  175SLPC   C3319854   5.747   1.826  -0.760 -0.8316  0.0173  0.3975
  175SLPC   H3X19855   5.730   1.925  -0.714  0.4554  1.0764 -1.2692
  175SLPC   H3Y19856   5.648   1.810  -0.808  0.3286 -1.6650 -1.6174
  175SLPC   C3419857   5.859   1.843  -0.868  0.0204  0.7120  0.4094
  175SLPC   H4X19858   5.965   1.816  -0.846  0.1264  0.0260 -0.8230
  175SLPC   H4Y19859   5.857   1.951  -0.893  0.8225  0.7619  0.5421
  175SLPC   C3519860   5.821   1.749  -0.989 -0.3651 -0.2382  0.0743
  175SLPC   H5X19861   5.780   1.653  -0.954  0.0486 -0.3297  0.3165
  175SLPC   H5Y19862   5.919   1.729  -1.037  0.1796 -1.3942  1.5875
  175SLPC   C3619863   5.738   1.826  -1.094 -0.1637 -0.3770 -0.1766
  175SLPC   H6X19864   5.778   1.929  -1.101 -0.3140 -0.3950 -1.4319
  175SLPC   H6Y19865   5.632   1.841  -1.065 -0.4613  1.3490 -1.9967
  175SLPC   C3719866   5.755   1.773  -1.234 -0.1749  0.3872  0.2889
  175SLPC   H7X19867   5.728   1.665  -1.236 -0.2624  0.4125  0.0316
  175SLPC   H7Y19868   5.857   1.774  -1.278 -0.0914  0.8418  0.4871
  175SLPC   C3819869   5.666   1.854  -1.333 -0.3394  0.0569 -0.3394
  175SLPC   H8X19870   5.713   1.954  -1.343 -0.3479  0.1578  0.5531
  175SLPC   H8Y19871   5.561   1.874  -1.303 -0.5552 -1.3685 -0.0621
  175SLPC   C3919872   5.670   1.815  -1.481  0.1705 -0.4322  0.2207
  175SLPC   H9X19873   5.632   1.711  -1.495  0.8988 -0.7655  0.6755
  175SLPC   H9Y19874   5.775   1.827  -1.513  0.1499 -0.3671  0.1764
  175SLPC  C31019875   5.583   1.913  -1.566  0.2645  0.2069  0.6984
  175SLPC  H10X19876   5.532   1.983  -1.496  1.0170  0.7990  0.6621
  175SLPC  H10Y19877   5.491   1.873  -1.614 -1.3246  2.2808  1.8405
  175SLPC  C31119878   5.662   2.005  -1.657 -0.2808 -0.3484 -0.8168
  175SLPC  H11X19879   5.734   2.067  -1.598 -1.1837 -1.2672  1.3501
  175SLPC  H11Y19880   5.599   2.089  -1.694  1.0957  1.2509  0.2880
  175SLPC  C31219881   5.738   1.937  -1.769  0.7516  0.0035 -0.5258
  175SLPC  H12X19882   5.675   1.860  -1.819 -0.6470 -0.6520  2.0623
  175SLPC  H12Y19883   5.831   1.896  -1.725  2.2325 -0.6341 -4.0016
  175SLPC  C31319884   5.790   2.022  -1.876 -0.9424 -0.6467  0.0668
  175SLPC  H13X19885   5.853   2.106  -1.839 -0.8158  0.5782 -2.6900
  175SLPC  H13Y19886   5.699   2.065  -1.921  0.7891  0.2720 -2.8510
  175SLPC  C31419887   5.863   1.942  -1.989 -0.2801  0.4618 -0.2976
  175SLPC  H14X19888   5.805   1.850  -2.013  2.7735 -1.4480 -1.0293
  175SLPC  H14Y19889   5.956   1.908  -1.937 -0.4243  1.6521  0.7835
  175SLPC  C31519890   5.893   2.017  -2.110  0.5234 -0.9380  0.3870
  175SLPC  H15X19891   5.950   2.110  -2.087  0.1527 -0.7707  0.6358
  175SLPC  H15Y19892   5.794   2.055  -2.143  0.3269 -1.8277 -0.0941
  175SLPC  C31619893   5.961   1.938  -2.221 -0.0217  0.1063 -0.3535
  175SLPC  H16X19894   5.904   1.852  -2.261 -1.1744  1.2653 -1.2823
  175SLPC  H16Y19895   6.063   1.902  -2.193  0.2727  0.5484 -0.8273
  175SLPC  C31719896   5.990   2.032  -2.340  0.4497  0.1103 -0.0422
  175SLPC  H17X19897   6.035   2.127  -2.304 -1.5218  1.8154 -1.7819
  175SLPC  H17Y19898   5.893   2.059  -2.387 -0.0626 -1.5502 -0.0059
  175SLPC  C31819899   6.079   1.964  -2.444  1.4307  0.1205 -0.2889
  175SLPC  H18X19900   6.181   1.997  -2.413  0.9678  1.1008  0.2784
  175SLPC  H18Y19901   6.051   2.018  -2.536 -2.3812  0.1221  0.7202
  175SLPC  H18Z19902   6.069   1.855  -2.460 -1.3771  0.5235 -1.7382
  176SLPC     N19903   5.071   5.808   0.273 -0.3315  0.0436  0.0372
  176SLPC   C1319904   5.126   5.944   0.262 -0.5294  0.0719 -0.5310
  176SLPC  H13A19905   5.105   6.008   0.347  1.6131  1.8036 -1.2168
  176SLPC  H13B19906   5.234   5.943   0.261 -0.1004  3.6729  4.5568
  176SLPC  H13C19907   5.098   5.999   0.174 -0.6488 -1.0655 -1.2206
  176SLPC   C1419908   4.924   5.824   0.297 -0.2274  0.2769 -0.5743
  176SLPC  H14A19909   4.889   5.884   0.380 -0.2951 -0.1261 -0.3096
  176SLPC  H14B19910   4.879   5.861   0.206 -2.2034 -2.3954 -0.8049
  176SLPC  H14C19911   4.887   5.724   0.315  1.8295 -0.0969  2.0918
  176SLPC   C1519912   5.134   5.745   0.397  0.6971  0.1616  0.8416
  176SLPC  H15A19913   5.241   5.736   0.384  0.6712  0.0533  0.7010
  176SLPC  H15B19914   5.100   5.789   0.489  1.2180  1.1849  0.5630
  176SLPC  H15C19915   5.103   5.643   0.411  3.0716 -1.1658 -2.3246
  176SLPC   C1219916   5.104   5.722   0.145 -0.4154  0.5223 -1.2891
  176SLPC  H12A19917   5.074   5.776   0.056 -0.8121 -0.0784 -1.5232
  176SLPC  H12B19918   5.048   5.630   0.148  1.8807 -0.9537  1.8814
  176SLPC   C1119919   5.253   5.687   0.122 -0.9307  0.5664 -0.2367
  176SLPC  H11A19920   5.244   5.598   0.056  0.9903  1.0197 -1.1757
  176SLPC  H11B19921   5.312   5.648   0.207 -1.3088 -1.3684 -0.8039
  176SLPC     P19922   5.446   5.875   0.088  0.2081  0.0138 -0.7056
  176SLPC   O1319923   5.403   5.996   0.159 -0.4844 -0.0319 -0.0658
  176SLPC   O1419924   5.542   5.787   0.164 -0.3618 -0.0082  0.7596
  176SLPC   O1219925   5.323   5.790   0.045 -0.0764 -0.5019  0.2386
  176SLPC   O1119926   5.504   5.920  -0.049 -1.1348  0.1070 -0.1003
  176SLPC    C119927   5.513   5.848  -0.166  0.1877  0.0161  0.4559
  176SLPC    HA19928   5.531   5.740  -0.147  1.8614  0.0954 -0.4184
  176SLPC    HB19929   5.420   5.835  -0.224  1.7930 -0.6393 -2.1735
  176SLPC    C219930   5.636   5.907  -0.251 -0.2505 -0.2102 -0.1162
  176SLPC    HS19931   5.605   6.002  -0.298 -2.1218 -1.3661 -1.3514
  176SLPC   O2119932   5.684   5.817  -0.355 -0.0087 -0.2299  0.6651
  176SLPC   C2119933   5.603   5.799  -0.455  0.3502 -0.5279 -0.5579
  176SLPC   O2219934   5.498   5.861  -0.475 -0.1714  0.6822  0.0392
  176SLPC   C2219935   5.666   5.690  -0.537  0.1433 -0.7894  0.6510
  176SLPC   H2R19936   5.750   5.741  -0.589 -0.8250 -0.6809 -0.8848
  176SLPC   H2S19937   5.710   5.610  -0.474 -0.3594  0.3574  2.5275
  176SLPC    C319938   5.758   5.951  -0.162 -0.2306  0.4252  0.1329
  176SLPC    HX19939   5.781   5.858  -0.107 -2.7414  0.6469  1.7190
  176SLPC    HY19940   5.724   6.038  -0.101  1.8660  0.3641  1.4725
  176SLPC   O3119941   5.878   5.984  -0.231  0.9149 -0.1051 -0.2926
  176SLPC   C3119942   5.866   6.098  -0.297 -0.0098 -0.2458 -0.3888
  176SLPC   O3219943   5.764   6.169  -0.300 -0.4178 -0.3099  0.3214
  176SLPC   C3219944   5.994   6.125  -0.381 -0.1293  0.5301  0.1745
  176SLPC   H2X19945   6.079   6.119  -0.309 -0.1678 -0.4756  0.1548
  176SLPC   H2Y19946   5.993   6.232  -0.411  0.0939  0.6513  0.5830
  176SLPC   C2319947   5.560   5.631  -0.639  0.2488 -0.4683 -0.2411
  176SLPC   H3R19948   5.464   5.637  -0.584  1.9496  0.2914  2.8861
  176SLPC   H3S19949   5.572   5.526  -0.671 -0.4112 -0.0321 -2.0309
  176SLPC   C2419950   5.550   5.725  -0.762 -0.4196 -0.1961  0.9688
  176SLPC   H4R19951   5.645   5.727  -0.820  0.1893  1.0652  1.9859
  176SLPC   H4S19952   5.549   5.830  -0.727  1.0990  1.0401 -2.2016
  176SLPC   C2519953   5.431   5.699  -0.853 -0.3066  0.2995 -0.5801
  176SLPC   H5R19954   5.406   5.789  -0.913 -1.7791 -0.0347 -0.5047
  176SLPC   H5S19955   5.341   5.664  -0.798 -0.1828 -2.2121 -1.8273
  176SLPC   C2619956   5.455   5.585  -0.959 -0.2290 -0.5925 -0.7270
  176SLPC   H6R19957   5.483   5.489  -0.911  2.7960 -1.4051 -3.6984
  176SLPC   H6S19958   5.543   5.614  -1.020 -0.5801  1.2149 -0.4195
  176SLPC   C2719959   5.339   5.563  -1.056 -0.0241  0.1967  0.6074
  176SLPC   H7R19960   5.245   5.535  -1.005 -2.3221  0.0447 -3.3073
  176SLPC   H7S19961   5.353   5.464  -1.105  0.9182  0.9555 -0.7289
  176SLPC   C2819962   5.324   5.663  -1.170 -0.2664 -0.7717  0.3679
  176SLPC   H8R19963   5.421   5.665  -1.223  1.0634 -1.1336  2.6165
  176SLPC   H8S19964   5.303   5.759  -1.119  1.0824 -1.0047  1.4364
  176SLPC   C2919965   5.207   5.627  -1.258 -0.0969  0.5731  0.2647
  176SLPC   H9R19966   5.106   5.611  -1.218  0.8035 -2.7716  1.5251
  176SLPC  C21019967   5.216   5.612  -1.396 -0.3350 -0.4033 -0.0041
  176SLPC  H10R19968   5.126   5.588  -1.455 -0.8919  0.6734  0.3807
  176SLPC  C21119969   5.337   5.626  -1.484 -0.2901 -0.0214 -0.4962
  176SLPC  H11R19970   5.394   5.718  -1.459  0.0649  0.6401 -3.3900
  176SLPC  H11S19971   5.309   5.650  -1.589 -1.1758 -1.3169 -0.5842
  176SLPC  C21219972   5.442   5.518  -1.496 -0.0520 -0.9397 -0.0841
  176SLPC  H12R19973   5.502   5.506  -1.404 -2.9636  1.6023  2.3948
  176SLPC  C21319974   5.467   5.449  -1.607 -0.8693  0.6125  1.0384
  176SLPC  H13R19975   5.554   5.382  -1.603 -0.2658  1.1803 -1.1221
  176SLPC  C21419976   5.389   5.452  -1.738 -0.2571 -0.3346 -0.3116
  176SLPC  H14R19977   5.290   5.502  -1.729 -1.3034 -1.9798 -1.9251
  176SLPC  H14S19978   5.357   5.352  -1.775 -0.7536 -0.1938 -0.2680
  176SLPC  C21519979   5.454   5.530  -1.850 -0.0324  0.4161 -0.6872
  176SLPC  H15R19980   5.557   5.490  -1.861 -0.2186 -0.3915  0.2706
  176SLPC  H15S19981   5.479   5.631  -1.813 -0.3684  0.2158  0.1133
  176SLPC  C21619982   5.371   5.551  -1.976 -0.5712  0.2007 -0.0151
  176SLPC  H16R19983   5.399   5.641  -2.036 -2.3903  0.8920  0.1044
  176SLPC  H16S19984   5.268   5.579  -1.947 -0.3096  0.5423  0.6107
  176SLPC  C21719985   5.367   5.424  -2.061  0.7045 -0.1883  0.2364
  176SLPC  H17R19986   5.326   5.340  -2.001 -1.2206  1.0533  0.7437
  176SLPC  H17S19987   5.470   5.392  -2.087  0.6593  0.7920 -1.2413
  176SLPC  C21819988   5.284   5.456  -2.184 -0.4681 -0.2445  0.2623
  176SLPC  H18R19989   5.175   5.474  -2.172 -0.5216 -0.4053  0.0194
  176SLPC  H18S19990   5.306   5.374  -2.256  0.8759  1.1262 -0.9464
  176SLPC  H18T19991   5.331   5.546  -2.228  2.2433 -0.6835  1.9567
  176SLPC   C3319992   6.008   6.029  -0.496  0.0833  0.4527  0.2330
  176SLPC   H3X19993   6.002   5.924  -0.461 -2.5781 -0.2416 -1.8958
  176SLPC   H3Y19994   6.111   6.038  -0.538  0.5347  2.8636  1.7044
  176SLPC   C3419995   5.905   6.072  -0.602 -0.6727  0.2216 -0.3073
  176SLPC   H4X19996   5.901   6.183  -0.599 -2.7877  0.1712  0.5541
  176SLPC   H4Y19997   5.804   6.033  -0.579 -0.7386  1.1606  1.1785
  176SLPC   C3519998   5.949   6.021  -0.745  0.5404 -0.0500 -1.1090
  176SLPC   H5X19999   5.977   5.914  -0.730 -0.8768 -0.2702  0.2499
  176SLPC   H5Y20000   6.047   6.067  -0.770  1.0908 -0.1646  0.6840
  176SLPC   C3620001   5.833   6.050  -0.842  0.1830  0.0480  0.1089
  176SLPC   H6X20002   5.817   6.159  -0.858 -0.2058 -0.1318 -0.8316
  176SLPC   H6Y20003   5.736   6.023  -0.797 -0.7866  1.7083 -0.8846
  176SLPC   C3720004   5.850   5.985  -0.982 -0.4877  0.2904 -0.1826
  176SLPC   H7X20005   5.867   5.876  -0.969 -0.2673  0.3313 -0.1223
  176SLPC   H7Y20006   5.940   6.030  -1.028  0.0007  0.6554  1.0859
  176SLPC   C3820007   5.730   6.012  -1.071 -0.1843  0.1478 -0.0654
  176SLPC   H8X20008   5.721   6.123  -1.066  0.2909  0.1646  3.3827
  176SLPC   H8Y20009   5.638   5.971  -1.024  0.3628 -1.3135 -0.2398
  176SLPC   C3920010   5.751   5.958  -1.213 -0.8050  0.0465  0.2890
  176SLPC   H9X20011   5.858   5.973  -1.237 -1.2084  0.5871 -1.2935
  176SLPC   H9Y20012   5.689   6.018  -1.283 -2.2263  0.0724  1.5255
  176SLPC  C31020013   5.704   5.812  -1.225 -0.1734  0.0457  0.3086
  176SLPC  H10X20014   5.594   5.806  -1.234 -0.1515 -1.4852  0.7861
  176SLPC  H10Y20015   5.737   5.749  -1.139 -3.2915  2.0096  3.1911
  176SLPC  C31120016   5.754   5.750  -1.356 -0.3320  0.1804 -0.4453
  176SLPC  H11X20017   5.707   5.649  -1.366  0.3921 -0.1542 -0.5300
  176SLPC  H11Y20018   5.862   5.732  -1.337 -0.5753  0.0937  0.9341
  176SLPC  C31220019   5.734   5.816  -1.489  0.6285 -0.7875  0.2920
  176SLPC  H12X20020   5.789   5.912  -1.486 -0.0395 -0.4016  0.3248
  176SLPC  H12Y20021   5.626   5.823  -1.518  0.0701 -3.1560  1.5128
  176SLPC  C31320022   5.790   5.731  -1.606 -0.3150  0.2286 -0.0410
  176SLPC  H13X20023   5.742   5.631  -1.597 -0.7112  0.4576  0.4581
  176SLPC  H13Y20024   5.898   5.713  -1.592 -0.0252  2.2498  0.7369
  176SLPC  C31420025   5.775   5.784  -1.752  0.0576  0.5445  0.3114
  176SLPC  H14X20026   5.848   5.868  -1.764  0.5494  0.1827  0.7018
  176SLPC  H14Y20027   5.676   5.828  -1.775  0.6593  0.9626 -1.6498
  176SLPC  C31520028   5.819   5.681  -1.854 -0.1637  0.6235  0.9021
  176SLPC  H15X20029   5.766   5.585  -1.840 -0.3044  0.9049  2.4391
  176SLPC  H15Y20030   5.928   5.663  -1.848 -0.1333  0.1782 -0.5561
  176SLPC  C31620031   5.783   5.731  -1.998 -0.6389  0.1278  0.4454
  176SLPC  H16X20032   5.818   5.831  -2.032  0.8145 -0.4351  0.2282
  176SLPC  H16Y20033   5.672   5.737  -2.011 -0.6225  0.1533  0.3224
  176SLPC  C31720034   5.827   5.636  -2.108  0.0740  0.6224 -0.3634
  176SLPC  H17X20035   5.826   5.535  -2.063  2.1214  0.3613 -0.7946
  176SLPC  H17Y20036   5.934   5.646  -2.136  0.6513  0.3154  1.5631
  176SLPC  C31820037   5.741   5.644  -2.235  0.2962  0.3299  0.1583
  176SLPC  H18X20038   5.785   5.584  -2.317 -0.2506  0.6366 -0.3629
  176SLPC  H18Y20039   5.730   5.750  -2.267  1.6681  0.5506  0.3489
  176SLPC  H18Z20040   5.642   5.604  -2.204 -0.1873  1.7197  0.4653
  177SLPC     N20041   5.352   4.769   0.154  0.1461 -0.5472 -0.3289
  177SLPC   C1320042   5.208   4.805   0.119 -0.4212  0.1030  0.7381
  177SLPC  H13A20043   5.131   4.776   0.189 -1.2312  0.3701 -0.0197
  177SLPC  H13B20044   5.195   4.910   0.097 -2.4072  0.1607  1.8760
  177SLPC  H13C20045   5.185   4.752   0.027  1.9457  1.5906 -0.8209
  177SLPC   C1420046   5.376   4.621   0.167  0.7270 -0.0762 -0.2519
  177SLPC  H14A20047   5.475   4.595   0.201 -0.0567 -0.4763  1.8471
  177SLPC  H14B20048   5.315   4.589   0.249 -0.5878  0.1664 -1.1117
  177SLPC  H14C20049   5.343   4.573   0.076 -1.9343  2.4440 -0.7777
  177SLPC   C1520050   5.394   4.834   0.273  0.3064  0.2387 -0.9405
  177SLPC  H15A20051   5.501   4.824   0.278  0.5330  2.5071  0.5564
  177SLPC  H15B20052   5.362   4.937   0.278 -0.5427 -0.0647  0.5011
  177SLPC  H15C20053   5.347   4.790   0.360  1.3573 -0.0115 -0.4794
  177SLPC   C1220054   5.440   4.811   0.042 -0.5321 -0.5357  0.6853
  177SLPC  H12A20055   5.400   4.766  -0.048 -0.1533 -0.5997  0.5466
  177SLPC  H12B20056   5.540   4.773   0.056 -0.0014  0.0897 -1.0951
  177SLPC   C1120057   5.462   4.964   0.028  0.6448 -0.5949 -0.7142
  177SLPC  H11A20058   5.533   4.984  -0.054 -0.6000  2.9953 -1.1087
  177SLPC  H11B20059   5.493   5.019   0.119 -0.6137  0.7143 -1.0377
  177SLPC     P20060   5.271   5.150   0.027  0.5580 -0.5450 -0.2385
  177SLPC   O1320061   5.263   5.150   0.176  0.4458  0.2416  0.4454
  177SLPC   O1420062   5.350   5.263  -0.033 -0.2124  0.0618 -0.2512
  177SLPC   O1220063   5.337   5.012  -0.015 -0.2002 -0.0983  0.4177
  177SLPC   O1120064   5.119   5.160  -0.030 -0.4101 -0.7625  0.1275
  177SLPC    C120065   5.085   5.048  -0.116  0.8053  0.5011 -0.1950
  177SLPC    HA20066   5.135   4.949  -0.113 -2.4742 -1.2926  3.8172
  177SLPC    HB20067   4.980   5.023  -0.091  0.8476  0.6155  0.1005
  177SLPC    C220068   5.066   5.090  -0.262 -0.3541  0.3853 -0.0394
  177SLPC    HS20069   5.050   4.994  -0.316 -1.8584  1.0453 -0.8218
  177SLPC   O2120070   5.173   5.175  -0.305 -0.4486 -0.0625  0.2246
  177SLPC   C2120071   5.275   5.103  -0.341  0.0080 -0.2986 -0.7535
  177SLPC   O2220072   5.286   4.981  -0.344 -0.0963  0.5850 -0.0656
  177SLPC   C2220073   5.394   5.206  -0.358 -0.6834  0.6869  0.3165
  177SLPC   H2R20074   5.348   5.304  -0.381  1.2232  1.2507 -1.3811
  177SLPC   H2S20075   5.446   5.220  -0.261 -1.8802  1.0367  0.9237
  177SLPC    C320076   4.937   5.175  -0.274 -0.2607  0.5327 -0.3254
  177SLPC    HX20077   4.937   5.272  -0.219 -1.8182 -0.1139  0.8868
  177SLPC    HY20078   4.853   5.123  -0.223 -0.6840  0.9090 -0.6293
  177SLPC   O3120079   4.914   5.187  -0.414  0.3435 -0.4361  0.5051
  177SLPC   C3120080   4.824   5.278  -0.446  0.7491 -0.1414  0.4988
  177SLPC   O3220081   4.741   5.317  -0.369  0.6410  0.0531  0.8180
  177SLPC   C3220082   4.819   5.312  -0.601 -0.7950 -0.3063 -0.3094
  177SLPC   H2X20083   4.805   5.220  -0.661  1.3508  0.3545 -1.9253
  177SLPC   H2Y20084   4.917   5.354  -0.631 -0.4550  0.7405  2.0259
  177SLPC   C2320085   5.480   5.157  -0.480 -0.2250 -0.1476 -0.1535
  177SLPC   H3R20086   5.503   5.049  -0.479  2.6127  0.3650 -0.1833
  177SLPC   H3S20087   5.577   5.203  -0.449 -0.9198  0.0854  1.8604
  177SLPC   C2420088   5.439   5.215  -0.613 -0.5460  0.3631 -0.0631
  177SLPC   H4R20089   5.530   5.224  -0.676 -0.0454  0.2923  0.6476
  177SLPC   H4S20090   5.411   5.322  -0.599 -0.6340  0.3426 -0.0769
  177SLPC   C2520091   5.335   5.129  -0.693  0.1342  0.6371 -0.3122
  177SLPC   H5R20092   5.235   5.151  -0.649  0.4747  3.0429 -0.5904
  177SLPC   H5S20093   5.363   5.022  -0.704  1.1282  1.0049 -1.6754
  177SLPC   C2620094   5.317   5.176  -0.841  0.1372  0.9754  0.8694
  177SLPC   H6R20095   5.414   5.164  -0.893  0.4672 -0.6824  1.7995
  177SLPC   H6S20096   5.294   5.284  -0.846  1.4830  1.3147  1.5946
  177SLPC   C2720097   5.210   5.090  -0.913  0.4388  0.1235 -0.8379
  177SLPC   H7R20098   5.237   4.982  -0.909  1.0410  0.2354 -1.5610
  177SLPC   H7S20099   5.215   5.114  -1.021 -0.2649 -0.6820 -1.0561
  177SLPC   C2820100   5.067   5.123  -0.863 -0.3830 -1.3986  0.3068
  177SLPC   H8R20101   5.059   5.100  -0.755  1.0320 -1.2342  0.4729
  177SLPC   H8S20102   4.993   5.066  -0.923  1.9390 -3.6549 -0.5900
  177SLPC   C2920103   5.034   5.270  -0.893 -0.6315  0.8887 -0.2298
  177SLPC   H9R20104   5.034   5.341  -0.809  0.3030  1.6351 -0.8347
  177SLPC  C21020105   4.997   5.317  -1.014  0.1877  0.2083  0.5913
  177SLPC  H10R20106   4.976   5.425  -1.017 -0.7734  0.0035 -1.0852
  177SLPC  C21120107   4.994   5.255  -1.148  0.0522 -0.6200 -0.1195
  177SLPC  H11R20108   5.036   5.154  -1.134  1.3125  0.1936  2.7614
  177SLPC  H11S20109   5.059   5.316  -1.214 -1.4066  1.4388  0.2090
  177SLPC  C21220110   4.859   5.247  -1.208  0.4994  0.6703  0.7422
  177SLPC  H12R20111   4.779   5.215  -1.140  0.7866  1.2198  1.3445
  177SLPC  C21320112   4.835   5.275  -1.339  0.1663  0.5483 -0.1884
  177SLPC  H13R20113   4.739   5.257  -1.388 -0.8724  0.6668  1.7129
  177SLPC  C21420114   4.951   5.314  -1.427  0.3459 -0.4956  0.2699
  177SLPC  H14R20115   5.033   5.238  -1.419  1.1644  0.4720  1.4436
  177SLPC  H14S20116   4.997   5.411  -1.399 -2.2426  0.3106  2.0599
  177SLPC  C21520117   4.889   5.335  -1.568 -0.2207 -0.3878  0.1330
  177SLPC  H15R20118   4.962   5.372  -1.643 -0.7849  0.4463 -0.0119
  177SLPC  H15S20119   4.805   5.407  -1.555  0.5015  0.3498  0.7952
  177SLPC  C21620120   4.831   5.205  -1.635  0.6619 -0.0790  0.0065
  177SLPC  H16R20121   4.765   5.229  -1.721 -1.4431 -0.8730  1.3218
  177SLPC  H16S20122   4.768   5.152  -1.562  0.0301 -2.0370 -1.8625
  177SLPC  C21720123   4.940   5.103  -1.688 -0.1829 -0.8114 -0.2961
  177SLPC  H17R20124   4.883   5.017  -1.730 -2.5755  1.4234 -2.0068
  177SLPC  H17S20125   5.008   5.067  -1.609  1.6011 -0.9796 -1.8380
  177SLPC  C21820126   5.005   5.158  -1.814 -0.2803 -0.4841  0.0311
  177SLPC  H18R20127   4.941   5.160  -1.905  1.0067 -1.6514 -0.9455
  177SLPC  H18S20128   5.099   5.105  -1.839  1.4633  1.9933  0.9295
  177SLPC  H18T20129   5.054   5.257  -1.798 -1.0321 -0.1704  0.4492
  177SLPC   C3320130   4.707   5.405  -0.646 -0.1816 -0.3754  0.5088
  177SLPC   H3X20131   4.737   5.460  -0.738  1.4214  0.0668  1.2479
  177SLPC   H3Y20132   4.674   5.477  -0.567 -1.5336  0.4488 -0.7700
  177SLPC   C3420133   4.575   5.340  -0.677  0.6940 -0.1584  0.2524
  177SLPC   H4X20134   4.526   5.303  -0.584 -0.3381 -0.2155 -0.2986
  177SLPC   H4Y20135   4.585   5.260  -0.754 -1.3127 -1.9322  1.7182
  177SLPC   C3520136   4.472   5.433  -0.739  0.1252  0.4429  0.2500
  177SLPC   H5X20137   4.456   5.521  -0.673  1.7854  0.8555  0.1432
  177SLPC   H5Y20138   4.369   5.392  -0.747 -0.5561  1.7949  1.5218
  177SLPC   C3620139   4.501   5.466  -0.885 -0.0505  0.6950  0.1724
  177SLPC   H6X20140   4.602   5.507  -0.907  0.7225 -0.7962  0.8052
  177SLPC   H6Y20141   4.418   5.536  -0.908 -0.1212 -0.5922 -4.5576
  177SLPC   C3720142   4.489   5.342  -0.984 -0.6033  0.0234 -0.0879
  177SLPC   H7X20143   4.391   5.291  -0.969 -0.6548 -0.5599 -2.1044
  177SLPC   H7Y20144   4.572   5.268  -0.984  2.2199  2.9740 -0.8156
  177SLPC   C3820145   4.478   5.394  -1.131 -0.0342 -0.0325  0.0353
  177SLPC   H8X20146   4.569   5.452  -1.157 -0.1723 -1.5928 -4.7208
  177SLPC   H8Y20147   4.393   5.463  -1.152 -0.0217 -0.4131 -1.3450
  177SLPC   C3920148   4.463   5.288  -1.244  0.2328  0.6597  0.0598
  177SLPC   H9X20149   4.373   5.235  -1.207  0.3899  1.4152  1.5998
  177SLPC   H9Y20150   4.553   5.224  -1.243 -2.2228 -3.0836  1.1716
  177SLPC  C31020151   4.452   5.343  -1.388  0.3111  0.1791 -0.0176
  177SLPC  H10X20152   4.555   5.375  -1.417  0.0453  0.9995 -0.0745
  177SLPC  H10Y20153   4.377   5.424  -1.384  1.5491  1.4367 -1.0125
  177SLPC  C31120154   4.413   5.234  -1.492  0.3303  0.0008  0.0202
  177SLPC  H11X20155   4.310   5.207  -1.461  0.3174 -2.2429 -1.7303
  177SLPC  H11Y20156   4.481   5.146  -1.495 -2.0224 -1.9122 -0.4396
  177SLPC  C31220157   4.411   5.291  -1.637  0.1523 -0.6116 -0.1466
  177SLPC  H12X20158   4.513   5.302  -1.678 -0.0344  0.3902 -0.3470
  177SLPC  H12Y20159   4.362   5.390  -1.631  0.0594 -0.7349  1.8848
  177SLPC  C31320160   4.327   5.196  -1.730  0.2601  0.2245  0.5362
  177SLPC  H13X20161   4.219   5.218  -1.717  0.3190  1.1225 -0.3345
  177SLPC  H13Y20162   4.342   5.087  -1.717 -1.0298  0.0427  0.6056
  177SLPC  C31420163   4.373   5.212  -1.877 -0.9415 -0.2196  0.5367
  177SLPC  H14X20164   4.347   5.315  -1.912  0.0466 -0.7024 -1.8427
  177SLPC  H14Y20165   4.303   5.148  -1.934 -2.5387  1.0127  1.0200
  177SLPC  C31520166   4.519   5.165  -1.907  0.5787 -0.4524  0.0399
  177SLPC  H15X20167   4.588   5.236  -1.856  0.8969 -0.1959 -0.7318
  177SLPC  H15Y20168   4.543   5.179  -2.014  1.3997 -1.8799  0.0093
  177SLPC  C31620169   4.556   5.022  -1.866 -0.4245 -0.2387  0.4573
  177SLPC  H16X20170   4.467   4.956  -1.854  0.7018 -2.1301 -1.0897
  177SLPC  H16Y20171   4.602   5.023  -1.765 -1.3025  1.1047  0.8771
  177SLPC  C31720172   4.648   4.959  -1.969 -0.2392 -0.0305  0.0539
  177SLPC  H17X20173   4.720   5.042  -1.984 -0.3556 -0.0742 -0.8144
  177SLPC  H17Y20174   4.586   4.950  -2.061 -2.1939 -0.0655  1.3207
  177SLPC  C31820175   4.724   4.833  -1.932 -0.0177 -0.4566 -0.8880
  177SLPC  H18X20176   4.768   4.844  -1.831  0.2161 -0.8859 -0.9405
  177SLPC  H18Y20177   4.813   4.807  -1.993  0.1967  1.0447 -1.2604
  177SLPC  H18Z20178   4.659   4.743  -1.941  0.3247 -0.9380  1.0152
  178SLPC     N20179   5.671   3.549   0.621  0.0356 -0.4703  0.6997
  178SLPC   C1320180   5.564   3.453   0.636 -0.0628  0.6825 -0.0651
  178SLPC  H13A20181   5.594   3.367   0.693 -1.1646  0.9849  0.9993
  178SLPC  H13B20182   5.469   3.492   0.669 -1.1983 -1.1357 -1.0011
  178SLPC  H13C20183   5.535   3.413   0.540 -0.5993 -0.3954  0.5223
  178SLPC   C1420184   5.757   3.557   0.743 -0.3386  0.1981  0.1315
  178SLPC  H14A20185   5.829   3.637   0.740 -2.3599  2.3984  3.1644
  178SLPC  H14B20186   5.695   3.581   0.829 -1.4929 -3.0695  0.3871
  178SLPC  H14C20187   5.811   3.464   0.759  1.1276  1.1390  0.7974
  178SLPC   C1520188   5.595   3.684   0.602 -0.5053  0.5859  0.2612
  178SLPC  H15A20189   5.662   3.764   0.576  0.5013  0.4481  2.1860
  178SLPC  H15B20190   5.515   3.675   0.531  0.6842  1.3177 -1.2421
  178SLPC  H15C20191   5.539   3.724   0.685 -2.6659  0.4523 -1.0737
  178SLPC   C1220192   5.762   3.522   0.507  0.6041 -0.4568 -0.0363
  178SLPC  H12A20193   5.816   3.429   0.518  2.3868  0.5432  0.1176
  178SLPC  H12B20194   5.836   3.600   0.504  0.1412 -0.0393 -2.9113
  178SLPC   C1120195   5.706   3.528   0.361  0.0671 -0.0704  0.6034
  178SLPC  H11A20196   5.789   3.542   0.288  0.9841  0.0077  1.6300
  178SLPC  H11B20197   5.642   3.618   0.349  0.0786 -0.0507  0.6858
  178SLPC     P20198   5.679   3.299   0.242  0.2930 -0.0681  0.0144
  178SLPC   O1320199   5.830   3.299   0.249  0.3067 -0.3495 -0.5970
  178SLPC   O1420200   5.613   3.175   0.282 -0.2591 -0.0514 -0.2836
  178SLPC   O1220201   5.625   3.417   0.325 -0.3600  0.2963  0.3158
  178SLPC   O1120202   5.623   3.343   0.101  0.1520 -0.0353 -0.4832
  178SLPC    C120203   5.664   3.270  -0.013  0.1451 -0.6330  0.2348
  178SLPC    HA20204   5.739   3.325  -0.075 -0.1283 -0.2498  0.2401
  178SLPC    HB20205   5.708   3.170   0.009 -0.8296 -0.7089  1.9880
  178SLPC    C220206   5.546   3.247  -0.113 -0.6564  0.4188 -0.3196
  178SLPC    HS20207   5.580   3.159  -0.172  2.0578  0.4559  0.9881
  178SLPC   O2120208   5.520   3.362  -0.199 -0.3685  0.1569  0.5771
  178SLPC   C2120209   5.613   3.385  -0.295 -0.5573 -0.7818 -0.7265
  178SLPC   O2220210   5.717   3.324  -0.301  0.2465 -0.1664 -0.6081
  178SLPC   C2220211   5.566   3.490  -0.403  0.2494  0.1754  0.7915
  178SLPC   H2R20212   5.458   3.476  -0.423  0.7188 -1.0228 -1.1220
  178SLPC   H2S20213   5.576   3.587  -0.348  2.2305 -0.3549  1.4580
  178SLPC    C320214   5.428   3.193  -0.035 -0.4262  0.1629  0.9990
  178SLPC    HX20215   5.406   3.265   0.047 -0.7008  0.5000  0.6312
  178SLPC    HY20216   5.467   3.097   0.005  1.2665 -0.5119 -1.9695
  178SLPC   O3120217   5.316   3.181  -0.127  0.2586 -0.1935 -0.5164
  178SLPC   C3120218   5.295   3.062  -0.167 -0.5526 -0.0089 -0.2214
  178SLPC   O3220219   5.369   2.968  -0.171 -0.2673 -0.4117  0.3653
  178SLPC   C3220220   5.150   3.059  -0.220 -0.1650 -0.2199 -0.1821
  178SLPC   H2X20221   5.099   3.151  -0.186 -1.3136 -1.2250  0.8732
  178SLPC   H2Y20222   5.098   2.980  -0.162  2.0703  0.9043  3.7270
  178SLPC   C2320223   5.639   3.492  -0.537 -0.4997  0.0351  0.9068
  178SLPC   H3R20224   5.679   3.393  -0.566 -2.0185 -0.6412  1.0021
  178SLPC   H3S20225   5.736   3.546  -0.529 -0.7380  0.5367  0.5268
  178SLPC   C2420226   5.554   3.545  -0.652 -0.6055 -0.7413 -0.7935
  178SLPC   H4R20227   5.516   3.642  -0.612  0.7715 -0.1852 -0.7715
  178SLPC   H4S20228   5.458   3.491  -0.665 -1.7267  0.4264  1.7642
  178SLPC   C2520229   5.620   3.567  -0.790  0.2667 -0.5014  0.0662
  178SLPC   H5R20230   5.680   3.485  -0.833  1.2029  1.2289 -2.1495
  178SLPC   H5S20231   5.694   3.647  -0.768  0.5346  0.0344 -2.4738
  178SLPC   C2620232   5.532   3.633  -0.902 -0.6445  0.2707  0.5648
  178SLPC   H6R20233   5.471   3.716  -0.860 -1.4798 -0.0870  0.0734
  178SLPC   H6S20234   5.462   3.553  -0.935  0.0119 -0.9726  2.0571
  178SLPC   C2720235   5.607   3.693  -1.022  0.5352 -0.4798  0.2932
  178SLPC   H7R20236   5.670   3.617  -1.072  1.0825  0.5291 -0.5972
  178SLPC   H7S20237   5.680   3.761  -0.974  0.0237  1.4060 -1.4529
  178SLPC   C2820238   5.521   3.768  -1.117 -0.5200  0.1641  1.0061
  178SLPC   H8R20239   5.463   3.855  -1.078  1.2178  1.5900  0.5662
  178SLPC   H8S20240   5.453   3.685  -1.145  0.9325 -1.1646  1.2926
  178SLPC   C2920241   5.607   3.817  -1.230 -1.2695  0.5183 -1.3436
  178SLPC   H9R20242   5.699   3.862  -1.190  0.6021 -0.6156 -4.0462
  178SLPC  C21020243   5.585   3.828  -1.362 -0.7381 -0.2341 -0.4822
  178SLPC  H10R20244   5.675   3.852  -1.419 -1.7220 -0.1809 -2.0617
  178SLPC  C21120245   5.460   3.799  -1.440 -0.0445  0.2316  0.7192
  178SLPC  H11R20246   5.435   3.893  -1.494  0.4993  1.4392  2.4744
  178SLPC  H11S20247   5.378   3.784  -1.367 -1.5703  0.8651 -0.7778
  178SLPC  C21220248   5.468   3.691  -1.540 -0.2325  0.3332  0.7008
  178SLPC  H12R20249   5.442   3.587  -1.513  1.4096 -1.2705 -3.2256
  178SLPC  C21320250   5.517   3.702  -1.666  0.0413  0.2936 -0.2936
  178SLPC  H13R20251   5.529   3.622  -1.740 -1.1541  0.9608 -1.2517
  178SLPC  C21420252   5.550   3.829  -1.734 -0.5271  0.5923 -0.4911
  178SLPC  H14R20253   5.659   3.838  -1.749  0.0140 -0.9615  1.9659
  178SLPC  H14S20254   5.529   3.918  -1.672 -1.8680  0.6946 -1.0539
  178SLPC  C21520255   5.477   3.850  -1.864  0.6732 -0.4268  0.1657
  178SLPC  H15R20256   5.478   3.956  -1.896  0.3167 -0.4858 -0.0379
  178SLPC  H15S20257   5.369   3.837  -1.843  0.3639 -0.5321 -1.4240
  178SLPC  C21620258   5.527   3.754  -1.970  0.3076  0.4392 -0.8364
  178SLPC  H16R20259   5.460   3.758  -2.058 -1.2784 -1.4989  0.2099
  178SLPC  H16S20260   5.518   3.646  -1.946  1.0798  0.9587  2.1205
  178SLPC  C21720261   5.668   3.768  -2.030  0.0280  0.4696  0.1223
  178SLPC  H17R20262   5.670   3.705  -2.122  0.3540 -0.4102  0.7300
  178SLPC  H17S20263   5.747   3.732  -1.962  1.1353  0.4441 -1.1337
  178SLPC  C21820264   5.701   3.905  -2.084  0.4977 -0.2155 -0.2824
  178SLPC  H18R20265   5.792   3.905  -2.148  0.4834  0.0439 -0.3067
  178SLPC  H18S20266   5.709   3.973  -1.997 -0.9166 -0.5593  0.1475
  178SLPC  H18T20267   5.614   3.937  -2.146  0.9016  1.7312  0.0852
  178SLPC   C3320268   5.143   3.040  -0.366  0.4349  0.2828  0.8650
  178SLPC   H3X20269   5.043   3.004  -0.398  0.4195  0.4536  0.7172
  178SLPC   H3Y20270   5.206   2.954  -0.397  1.7705  1.2557  0.7796
  178SLPC   C3420271   5.190   3.171  -0.438  0.1929 -0.2900  0.0898
  178SLPC   H4X20272   5.296   3.191  -0.411  0.4435  0.5659 -1.4632
  178SLPC   H4Y20273   5.131   3.259  -0.405  0.2402  0.4853 -1.7980
  178SLPC   C3520274   5.173   3.167  -0.588 -0.4131  0.4972  0.0319
  178SLPC   H5X20275   5.065   3.168  -0.614 -0.0406 -0.0556 -1.6195
  178SLPC   H5Y20276   5.220   3.074  -0.625  1.9520  2.3198 -1.8312
  178SLPC   C3620277   5.237   3.285  -0.652 -0.2780  0.2853 -0.0628
  178SLPC   H6X20278   5.346   3.263  -0.653 -0.7110 -2.2946  1.3243
  178SLPC   H6Y20279   5.235   3.383  -0.601 -1.7233  0.1514  0.1894
  178SLPC   C3720280   5.191   3.299  -0.798 -0.4009  0.2781  0.0758
  178SLPC   H7X20281   5.247   3.385  -0.841  2.6478 -1.3958  0.3951
  178SLPC   H7Y20282   5.083   3.322  -0.803 -0.0562  2.5026  1.6778
  178SLPC   C3820283   5.227   3.177  -0.890 -0.3647 -0.6702  0.1671
  178SLPC   H8X20284   5.192   3.079  -0.854  1.1513 -0.6285  1.9132
  178SLPC   H8Y20285   5.338   3.170  -0.897 -0.2433  1.5867 -1.6533
  178SLPC   C3920286   5.189   3.188  -1.041 -0.0853  0.2653  0.7170
  178SLPC   H9X20287   5.078   3.195  -1.049 -0.0873 -0.6650 -0.5581
  178SLPC   H9Y20288   5.211   3.097  -1.101  0.2411  1.3148 -0.8102
  178SLPC  C31020289   5.265   3.300  -1.113  0.8027 -0.4261 -1.1367
  178SLPC  H10X20290   5.366   3.311  -1.068  0.3291  2.4144 -0.5726
  178SLPC  H10Y20291   5.225   3.399  -1.081 -0.2467 -1.2372  0.1641
  178SLPC  C31120292   5.262   3.275  -1.264  0.3711  0.2989 -0.1645
  178SLPC  H11X20293   5.163   3.226  -1.275 -0.3159  1.4851  0.4700
  178SLPC  H11Y20294   5.343   3.206  -1.298  0.6474  1.2124 -1.4242
  178SLPC  C31220295   5.270   3.406  -1.338  0.1588  0.4507 -0.0426
  178SLPC  H12X20296   5.362   3.455  -1.376 -1.0033  1.7842 -1.2648
  178SLPC  H12Y20297   5.220   3.478  -1.270  0.0809  1.3576 -1.0210
  178SLPC  C31320298   5.173   3.410  -1.461  0.0783 -0.0152  0.0734
  178SLPC  H13X20299   5.175   3.510  -1.509  1.9091 -0.5339 -1.0405
  178SLPC  H13Y20300   5.071   3.392  -1.421  0.1314 -1.1263 -0.2505
  178SLPC  C31420301   5.201   3.302  -1.565 -0.6809  0.4970 -0.1565
  178SLPC  H14X20302   5.204   3.203  -1.514  1.2544  0.1779 -0.8172
  178SLPC  H14Y20303   5.300   3.312  -1.615 -0.8721 -0.9995 -0.8969
  178SLPC  C31520304   5.098   3.312  -1.681 -0.5809 -0.1518  0.1106
  178SLPC  H15X20305   5.086   3.419  -1.711 -0.0071 -0.4452 -1.2183
  178SLPC  H15Y20306   4.999   3.283  -1.639 -0.3563 -0.1814  0.6300
  178SLPC  C31620307   5.134   3.225  -1.803  0.7457 -0.2740  0.0112
  178SLPC  H16X20308   5.215   3.272  -1.864 -0.1072  1.5013  0.1610
  178SLPC  H16Y20309   5.036   3.225  -1.856  0.7302  0.9110  0.0058
  178SLPC  C31720310   5.173   3.085  -1.782  0.7488  0.2091  0.5891
  178SLPC  H17X20311   5.106   3.033  -1.710  2.0852 -1.6797  0.5332
  178SLPC  H17Y20312   5.272   3.078  -1.731  1.1503 -1.6855 -0.3742
  178SLPC  C31820313   5.170   3.004  -1.910 -0.2883 -0.4261  0.2992
  178SLPC  H18X20314   5.092   3.042  -1.980  0.6252  1.0350  0.0307
  178SLPC  H18Y20315   5.145   2.901  -1.878 -0.0786  0.0972  2.2696
  178SLPC  H18Z20316   5.262   3.018  -1.969 -1.2493 -2.0322 -1.6999
  179SLPC     N20317   4.132   1.301   4.331  0.0308 -0.0350 -0.1537
  179SLPC   C1320318   4.160   1.445   4.289  0.2666  0.9827  0.2633
  179SLPC  H13A20319   4.068   1.502   4.293  0.5217  1.4931 -0.8702
  179SLPC  H13B20320   4.233   1.487   4.356  2.8653 -2.3399 -0.2420
  179SLPC  H13C20321   4.200   1.448   4.189 -1.0454 -0.9244 -0.3709
  179SLPC   C1420322   4.059   1.298   4.462 -1.5074  0.6647  0.0924
  179SLPC  H14A20323   4.129   1.315   4.543 -0.1745 -2.1427 -0.3740
  179SLPC  H14B20324   3.981   1.373   4.453 -1.2040  0.9049 -0.6416
  179SLPC  H14C20325   4.021   1.200   4.484  1.7772 -0.5186  1.0434
  179SLPC   C1520326   4.266   1.235   4.333  0.0457 -0.3577  0.1666
  179SLPC  H15A20327   4.255   1.128   4.340  2.4912 -0.5958  1.1046
  179SLPC  H15B20328   4.322   1.254   4.242  1.3380  3.2081  1.5498
  179SLPC  H15C20329   4.314   1.275   4.421 -1.7002  1.2897  0.4385
  179SLPC   C1220330   4.047   1.242   4.225 -0.4726  0.2744  0.0844
  179SLPC  H12A20331   4.082   1.269   4.126 -1.8676 -0.6183 -0.6890
  179SLPC  H12B20332   3.951   1.290   4.223 -0.8926 -0.5572 -1.2097
  179SLPC   C1120333   4.017   1.092   4.232 -0.3117  0.8764 -0.8167
  179SLPC  H11A20334   4.109   1.033   4.253 -1.4873 -0.0063  2.4620
  179SLPC  H11B20335   3.992   1.052   4.131  1.7349 -0.2902 -0.9195
  179SLPC     P20336   3.773   1.064   4.313  0.4017 -0.7275  0.1638
  179SLPC   O1320337   3.742   1.211   4.306 -0.1852  0.7109  0.1977
  179SLPC   O1420338   3.743   0.983   4.191  0.4078 -0.3255  0.0228
  179SLPC   O1220339   3.925   1.049   4.335 -0.0608 -0.0408  0.3252
  179SLPC   O1120340   3.718   0.994   4.439  0.1994  0.7617  0.3692
  179SLPC    C120341   3.774   0.857   4.455  0.1153 -0.6853  0.0461
  179SLPC    HA20342   3.862   0.834   4.391 -0.8649  1.5653 -2.2869
  179SLPC    HB20343   3.816   0.840   4.556 -0.3648 -0.5057  0.2827
  179SLPC    C220344   3.677   0.742   4.437  0.2782 -0.3273  0.5455
  179SLPC    HS20345   3.623   0.750   4.340 -0.7091  0.6381  1.1513
  179SLPC   O2120346   3.573   0.757   4.548 -0.2241 -0.1058 -0.2105
  179SLPC   C2120347   3.456   0.701   4.514  0.0174  0.0483  0.0143
  179SLPC   O2220348   3.427   0.656   4.405  0.1713 -0.0655 -0.1127
  179SLPC   C2220349   3.367   0.699   4.636  0.3906 -0.2159  0.1286
  179SLPC   H2R20350   3.367   0.796   4.690 -1.4990 -0.3369  0.3998
  179SLPC   H2S20351   3.263   0.673   4.609  0.0951  0.5322  0.5543
  179SLPC    C320352   3.746   0.601   4.452  0.5241 -0.1355 -0.1117
  179SLPC    HX20353   3.825   0.603   4.375 -0.0809  2.3083 -0.7668
  179SLPC    HY20354   3.673   0.519   4.433 -0.9453  1.6935 -3.1146
  179SLPC   O3120355   3.792   0.591   4.590  0.0389 -0.5605  0.4217
  179SLPC   C3120356   3.896   0.513   4.609 -0.0353  0.1555  0.1429
  179SLPC   O3220357   3.945   0.449   4.519 -0.1433 -1.0924  0.3225
  179SLPC   C3220358   3.932   0.497   4.762 -0.4053  0.4714  0.1728
  179SLPC   H2X20359   4.036   0.532   4.776  0.4314 -0.6859 -2.5372
  179SLPC   H2Y20360   3.938   0.389   4.786 -0.0519  0.9186  2.2138
  179SLPC   C2320361   3.422   0.589   4.732 -0.0984  0.0254  0.3099
  179SLPC   H3R20362   3.513   0.625   4.785 -1.3924  1.2580  1.8108
  179SLPC   H3S20363   3.450   0.507   4.664  2.5341  2.0213 -1.1894
  179SLPC   C2420364   3.310   0.545   4.833  0.1155  0.2484 -0.1126
  179SLPC   H4R20365   3.231   0.500   4.770 -1.3771  2.1806  0.2783
  179SLPC   H4S20366   3.248   0.625   4.880 -2.5909  0.3654 -3.4831
  179SLPC   C2520367   3.345   0.456   4.949 -0.0872  0.4599  0.6201
  179SLPC   H5R20368   3.428   0.500   5.009 -1.2502  3.4037  0.2578
  179SLPC   H5S20369   3.380   0.361   4.904  0.0369 -0.2321  2.1421
  179SLPC   C2620370   3.222   0.429   5.038 -0.7485 -0.9438 -0.4957
  179SLPC   H6R20371   3.137   0.398   4.973 -0.6876 -0.4557 -0.8124
  179SLPC   H6S20372   3.198   0.526   5.086  1.2377 -0.8127  0.3158
  179SLPC   C2720373   3.242   0.319   5.140  0.1241  0.3128 -0.1262
  179SLPC   H7R20374   3.256   0.221   5.090  3.4355  0.6870 -0.1569
  179SLPC   H7S20375   3.161   0.312   5.215  0.1818  0.4284 -0.0534
  179SLPC   C2820376   3.361   0.351   5.235  0.0756  0.3856  0.3557
  179SLPC   H8R20377   3.359   0.454   5.275  0.8082  0.6368 -0.2415
  179SLPC   H8S20378   3.448   0.337   5.167  1.1492 -2.1465  2.0839
  179SLPC   C2920379   3.380   0.249   5.350 -0.0523 -0.7137 -0.0746
  179SLPC   H9R20380   3.433   0.156   5.326  1.3605  0.3871 -1.3946
  179SLPC  C21020381   3.346   0.272   5.473  0.0761  0.3614 -0.5173
  179SLPC  H10R20382   3.364   0.196   5.550  0.0047 -1.1683 -1.9452
  179SLPC  C21120383   3.299   0.405   5.535  0.1407 -0.6481  0.4164
  179SLPC  H11R20384   3.246   0.454   5.450  2.1653  1.0336  0.0513
  179SLPC  H11S20385   3.377   0.479   5.559  0.3613 -0.8209  0.2402
  179SLPC  C21220386   3.196   0.387   5.642 -0.1582  0.0591 -0.0217
  179SLPC  H12R20387   3.101   0.345   5.606 -0.3404  1.4653 -1.2723
  179SLPC  C21320388   3.209   0.414   5.771  0.4721 -0.3637 -0.6857
  179SLPC  H13R20389   3.128   0.378   5.836  0.4136 -0.8106 -1.0056
  179SLPC  C21420390   3.332   0.470   5.845  0.4404 -0.4320  0.2972
  179SLPC  H14R20391   3.306   0.576   5.867 -1.5629 -1.0401  1.0513
  179SLPC  H14S20392   3.414   0.478   5.771  0.1262  2.1088  0.1237
  179SLPC  C21520393   3.380   0.424   5.983  0.2999 -0.1926  0.8611
  179SLPC  H15R20394   3.469   0.479   6.018  0.2706 -0.3245  1.1448
  179SLPC  H15S20395   3.392   0.314   5.972 -1.8370 -0.3883 -0.1318
  179SLPC  C21620396   3.285   0.460   6.101  0.6290 -0.0134  0.1949
  179SLPC  H16R20397   3.178   0.444   6.079  0.1184 -2.5102  3.6353
  179SLPC  H16S20398   3.300   0.568   6.125  2.0056 -0.1141 -0.0871
  179SLPC  C21720399   3.316   0.381   6.222  0.6107 -0.9272  0.2297
  179SLPC  H17R20400   3.418   0.404   6.257  0.1419  0.2446  0.9018
  179SLPC  H17S20401   3.308   0.275   6.191 -1.5846 -0.4104 -1.2654
  179SLPC  C21820402   3.223   0.416   6.335 -0.0271 -0.7579 -0.0697
  179SLPC  H18R20403   3.134   0.351   6.337 -1.2098  0.8044  0.0872
  179SLPC  H18S20404   3.184   0.516   6.308  0.7001 -0.3453  0.3594
  179SLPC  H18T20405   3.271   0.417   6.436 -1.0610 -1.0114  0.4420
  179SLPC   C3320406   3.837   0.572   4.857  0.6554  0.6107 -0.5424
  179SLPC   H3X20407   3.734   0.533   4.845  0.7997 -0.4783  1.3320
  179SLPC   H3Y20408   3.838   0.682   4.838 -0.0245  0.5957 -0.6985
  179SLPC   C3420409   3.866   0.555   5.004  0.1855  0.2315 -0.1821
  179SLPC   H4X20410   3.926   0.641   5.040 -1.5894  1.0156  1.0326
  179SLPC   H4Y20411   3.925   0.462   5.024 -1.5912 -1.1350 -0.9892
  179SLPC   C3520412   3.740   0.552   5.091 -0.4334  0.3712 -0.1177
  179SLPC   H5X20413   3.685   0.648   5.080  0.0962  0.9279  1.8095
  179SLPC   H5Y20414   3.679   0.472   5.043 -0.8696  0.2091  0.7019
  179SLPC   C3620415   3.770   0.511   5.242  0.0529  0.0195  0.8276
  179SLPC   H6X20416   3.673   0.533   5.291  0.4574 -0.1003  1.6963
  179SLPC   H6Y20417   3.848   0.570   5.296 -0.0133  1.9310 -1.0381
  179SLPC   C3720418   3.779   0.363   5.267 -0.1744 -0.0909 -0.1525
  179SLPC   H7X20419   3.851   0.316   5.197 -0.5280  0.5192 -0.9346
  179SLPC   H7Y20420   3.685   0.303   5.265  1.0780 -2.3801  2.5220
  179SLPC   C3820421   3.828   0.338   5.407  0.1731  0.3123 -0.0975
  179SLPC   H8X20422   3.916   0.401   5.432  0.0310  0.5554 -0.2043
  179SLPC   H8Y20423   3.868   0.234   5.408 -1.6037 -0.4120  1.6358
  179SLPC   C3920424   3.717   0.352   5.518 -1.4017  0.5112  0.2820
  179SLPC   H9X20425   3.628   0.285   5.507 -0.1883 -0.9340 -1.1635
  179SLPC   H9Y20426   3.683   0.458   5.515  0.5571  1.1449 -1.0602
  179SLPC  C31020427   3.781   0.320   5.653  0.7228  0.4850 -0.3714
  179SLPC  H10X20428   3.878   0.374   5.664  0.5559  1.3642 -2.5697
  179SLPC  H10Y20429   3.821   0.217   5.653  0.9359  0.5668  0.0306
  179SLPC  C31120430   3.695   0.344   5.773  0.0323  0.4871 -0.3162
  179SLPC  H11X20431   3.591   0.312   5.752 -1.0137  1.9982  2.0974
  179SLPC  H11Y20432   3.700   0.454   5.792  0.0538  0.5512 -0.6830
  179SLPC  C31220433   3.745   0.269   5.899 -0.1344 -0.0091 -0.0485
  179SLPC  H12X20434   3.851   0.303   5.899  0.4744 -1.7859  0.5208
  179SLPC  H12Y20435   3.751   0.159   5.881  1.1206  0.0987 -0.3334
  179SLPC  C31320436   3.684   0.303   6.039 -0.2657 -0.3544  0.7646
  179SLPC  H13X20437   3.586   0.252   6.051 -0.3238 -0.0394  1.6978
  179SLPC  H13Y20438   3.686   0.413   6.058  1.0853 -0.1019 -0.6433
  179SLPC  C31420439   3.761   0.248   6.167  0.5649  0.4312 -0.0279
  179SLPC  H14X20440   3.859   0.296   6.182  0.7296  0.1311 -0.1296
  179SLPC  H14Y20441   3.792   0.143   6.148  2.8139  1.4981 -2.8268
  179SLPC  C31520442   3.667   0.238   6.291 -0.2312  0.2207  0.6332
  179SLPC  H15X20443   3.584   0.169   6.269  0.1614 -0.4872  1.3341
  179SLPC  H15Y20444   3.635   0.340   6.323  1.7996  1.0006  0.3830
  179SLPC  C31620445   3.761   0.185   6.409 -0.0192 -0.3066  0.3779
  179SLPC  H16X20446   3.830   0.268   6.434 -1.0418  0.0108  2.3840
  179SLPC  H16Y20447   3.822   0.098   6.376 -0.8826 -1.1492  0.9338
  179SLPC  C31720448   3.687   0.134   6.527 -0.9772 -0.5277 -0.3860
  179SLPC  H17X20449   3.612   0.209   6.562  0.8166  2.0952 -1.8381
  179SLPC  H17Y20450   3.757   0.117   6.611 -2.9606 -1.4410  1.1669
  179SLPC  C31820451   3.625   0.006   6.485  0.8528  0.3343 -0.6033
  179SLPC  H18X20452   3.526   0.027   6.439 -0.0334 -2.3939 -0.1464
  179SLPC  H18Y20453   3.591  -0.064   6.565  0.9927  2.0947  1.0658
  179SLPC  H18Z20454   3.686  -0.058   6.417  3.5413  0.0919  1.7978
  180SLPC     N20455   2.357   3.920   3.914 -0.0722 -0.0903  0.5521
  180SLPC   C1320456   2.493   3.979   3.963  0.9491  0.2549  0.4897
  180SLPC  H13A20457   2.566   3.944   3.891  1.2135 -0.2352  0.9962
  180SLPC  H13B20458   2.478   4.086   3.969 -2.9852 -0.1502  0.4950
  180SLPC  H13C20459   2.504   3.943   4.063  2.2989  2.5518  1.2442
  180SLPC   C1420460   2.383   3.772   3.916  0.4510  0.4389  0.1776
  180SLPC  H14A20461   2.296   3.721   3.878  0.1338  1.4366 -0.4781
  180SLPC  H14B20462   2.470   3.740   3.860  1.2969 -1.7649  2.5358
  180SLPC  H14C20463   2.412   3.741   4.016  0.3529 -2.5572 -0.6274
  180SLPC   C1520464   2.337   3.974   3.776 -0.0749  0.6508  0.1458
  180SLPC  H15A20465   2.242   3.941   3.735  0.5306  1.8243 -2.3557
  180SLPC  H15B20466   2.335   4.081   3.782 -0.7097  0.6424  0.2022
  180SLPC  H15C20467   2.412   3.939   3.706  1.9776 -0.8045  2.8660
  180SLPC   C1220468   2.243   3.960   3.998 -0.3331  0.2911 -0.1852
  180SLPC  H12A20469   2.260   3.915   4.095  1.6445  2.2274  0.4388
  180SLPC  H12B20470   2.155   3.918   3.951  0.7597 -0.0979 -1.9748
  180SLPC   C1120471   2.214   4.108   4.012  0.0432  0.3706  0.0503
  180SLPC  H11A20472   2.306   4.170   4.022  0.5955 -0.3158 -0.6562
  180SLPC  H11B20473   2.155   4.125   4.105 -2.5291  1.6012 -1.7016
  180SLPC     P20474   1.980   4.157   3.899 -0.1636 -0.0638 -0.0462
  180SLPC   O1320475   1.937   4.136   3.758  0.4939  0.2461  0.2210
  180SLPC   O1420476   1.924   4.071   4.004  0.6707  0.2982  0.4042
  180SLPC   O1220477   2.142   4.158   3.901  0.0801  0.3276  0.4892
  180SLPC   O1120478   1.939   4.307   3.932 -0.1506 -0.5844 -0.0121
  180SLPC    C120479   2.009   4.389   4.023  0.0667  0.3910 -0.0974
  180SLPC    HA20480   2.117   4.373   4.000 -0.2887  0.1353 -1.7038
  180SLPC    HB20481   1.987   4.496   4.008 -1.0657  0.2554  0.5303
  180SLPC    C220482   1.961   4.359   4.167  0.0960 -0.5590  0.5238
  180SLPC    HS20483   1.980   4.250   4.180  2.0169 -0.1447  1.5621
  180SLPC   O2120484   1.827   4.404   4.195  0.0388  0.5628  0.8554
  180SLPC   C2120485   1.772   4.343   4.303 -0.0791  0.7362 -0.3141
  180SLPC   O2220486   1.815   4.244   4.363  0.5908  0.0521  0.1560
  180SLPC   C2220487   1.636   4.408   4.334 -0.9842 -0.0709  0.6000
  180SLPC   H2R20488   1.610   4.481   4.254 -0.3825 -1.3897 -0.8453
  180SLPC   H2S20489   1.559   4.329   4.321 -1.5477  0.7588 -1.5470
  180SLPC    C320490   2.058   4.439   4.250  0.2542  0.7889  0.0612
  180SLPC    HX20491   2.048   4.545   4.219  0.0255  0.9649  0.7247
  180SLPC    HY20492   2.160   4.403   4.224 -0.4575 -2.1364  0.9400
  180SLPC   O3120493   2.025   4.441   4.388 -0.3784 -0.0399 -0.4378
  180SLPC   C3120494   2.074   4.339   4.463 -0.1638 -0.0751  0.4166
  180SLPC   O3220495   2.158   4.256   4.435 -0.2563 -0.0306 -0.1594
  180SLPC   C3220496   2.017   4.354   4.606 -0.4196 -0.0595  0.0269
  180SLPC   H2X20497   1.909   4.380   4.599 -0.6551 -1.2890 -1.8606
  180SLPC   H2Y20498   2.067   4.442   4.650 -2.9360  2.3049 -1.5323
  180SLPC   C2320499   1.612   4.476   4.474  0.4109 -0.1785 -0.3809
  180SLPC   H3R20500   1.526   4.546   4.475  2.6264  2.7871 -1.7298
  180SLPC   H3S20501   1.701   4.538   4.495  0.5338 -0.2173 -0.7747
  180SLPC   C2420502   1.589   4.362   4.575 -0.7870  0.2820  0.4643
  180SLPC   H4R20503   1.684   4.310   4.601 -1.4336 -1.2835 -0.1373
  180SLPC   H4S20504   1.536   4.276   4.528  0.3373  1.1670 -2.6393
  180SLPC   C2520505   1.512   4.404   4.699  0.6158  0.3243  0.0559
  180SLPC   H5R20506   1.489   4.317   4.765  0.1990  0.4665  0.1020
  180SLPC   H5S20507   1.414   4.437   4.658 -0.3064 -1.8523  0.3476
  180SLPC   C2620508   1.575   4.507   4.786 -0.1469 -0.4080  0.3823
  180SLPC   H6R20509   1.501   4.557   4.851 -1.2762 -4.6370  2.7260
  180SLPC   H6S20510   1.610   4.580   4.710  0.3124  0.6708  1.5971
  180SLPC   C2720511   1.696   4.470   4.870 -0.7331  0.4343 -0.1441
  180SLPC   H7R20512   1.771   4.438   4.795 -0.6749  1.0955 -0.3765
  180SLPC   H7S20513   1.684   4.376   4.929  1.7261 -0.3749 -0.8274
  180SLPC   C2820514   1.737   4.581   4.972  0.2548 -0.5538  0.1795
  180SLPC   H8R20515   1.757   4.674   4.916  3.1795 -1.3686 -0.3011
  180SLPC   H8S20516   1.836   4.559   5.018  0.4106  0.9473  0.6000
  180SLPC   C2920517   1.633   4.602   5.081 -0.3331 -0.1439  0.0329
  180SLPC   H9R20518   1.533   4.625   5.041 -1.0104 -2.3043  0.3428
  180SLPC  C21020519   1.646   4.594   5.214  0.1420  0.3531  0.0875
  180SLPC  H10R20520   1.558   4.610   5.278 -0.5948 -1.3048 -0.4594
  180SLPC  C21120521   1.770   4.549   5.291  0.4851 -0.4596  0.0487
  180SLPC  H11R20522   1.818   4.627   5.354 -0.8189  0.2651  0.1875
  180SLPC  H11S20523   1.852   4.521   5.222  0.3272 -1.8822  0.4023
  180SLPC  C21220524   1.728   4.429   5.369 -0.2299 -0.2407  0.4698
  180SLPC  H12R20525   1.726   4.333   5.316  1.6569  1.0052 -2.0857
  180SLPC  C21320526   1.713   4.433   5.501 -0.2475  0.5962 -0.3547
  180SLPC  H13R20527   1.698   4.333   5.544  0.7349  0.9849  0.9703
  180SLPC  C21420528   1.721   4.552   5.593 -0.4118  0.1202 -0.2544
  180SLPC  H14R20529   1.803   4.616   5.554  1.8453 -2.1465  0.4580
  180SLPC  H14S20530   1.762   4.518   5.690  0.9106 -2.5668 -1.6362
  180SLPC  C21520531   1.583   4.617   5.616  0.4772 -0.7950  0.0843
  180SLPC  H15R20532   1.503   4.552   5.656 -1.0309  1.3946  0.8202
  180SLPC  H15S20533   1.555   4.656   5.515 -0.8131 -2.7803 -0.3818
  180SLPC  C21620534   1.601   4.751   5.691 -0.1257  0.4075 -0.7641
  180SLPC  H16R20535   1.508   4.809   5.669  0.3323  0.8460 -1.5794
  180SLPC  H16S20536   1.698   4.789   5.652 -0.1483 -1.6150 -3.0149
  180SLPC  C21720537   1.587   4.739   5.842 -0.3458  0.4078  0.3235
  180SLPC  H17R20538   1.683   4.716   5.893  0.5748  2.0252 -0.6076
  180SLPC  H17S20539   1.517   4.655   5.863  1.0580 -1.0494 -0.5410
  180SLPC  C21820540   1.537   4.866   5.915  0.1440 -0.7985 -0.5854
  180SLPC  H18R20541   1.435   4.895   5.883  0.6992  3.5149  0.9955
  180SLPC  H18S20542   1.599   4.941   5.861 -1.5629 -1.0850 -3.1141
  180SLPC  H18T20543   1.543   4.858   6.025  0.4104  0.4886 -0.4882
  180SLPC   C3320544   2.030   4.227   4.693 -0.8248 -0.8603 -0.9035
  180SLPC   H3X20545   2.137   4.195   4.698 -0.0415  1.5320 -0.9649
  180SLPC   H3Y20546   1.970   4.148   4.643 -0.7688 -1.6984  0.3050
  180SLPC   C3420547   1.989   4.257   4.838 -0.2506  0.7253 -0.3534
  180SLPC   H4X20548   1.879   4.273   4.836 -0.2855  0.4265 -1.9473
  180SLPC   H4Y20549   2.034   4.345   4.889  0.2506 -1.2739  2.9665
  180SLPC   C3520550   2.003   4.133   4.927  0.0753 -0.3900  0.0282
  180SLPC   H5X20551   2.111   4.108   4.937  1.0203  3.4816  1.3378
  180SLPC   H5Y20552   1.943   4.048   4.886  0.3542 -0.2140 -0.7555
  180SLPC   C3620553   1.956   4.166   5.068  0.2941  1.0901  0.0293
  180SLPC   H6X20554   1.850   4.197   5.079 -0.6972 -2.3508  1.5180
  180SLPC   H6Y20555   2.018   4.248   5.110  1.4567  0.0296  0.4666
  180SLPC   C3720556   1.967   4.042   5.156 -0.0863  0.2280  0.6588
  180SLPC   H7X20557   2.072   4.004   5.151  0.1893  1.0263  0.1015
  180SLPC   H7Y20558   1.919   3.954   5.107  1.6087  0.4580 -1.6513
  180SLPC   C3820559   1.923   4.071   5.296 -0.0326 -0.0726 -0.1928
  180SLPC   H8X20560   1.812   4.082   5.305 -0.1487  1.9873 -2.8900
  180SLPC   H8Y20561   1.951   4.170   5.338 -1.1213  1.2129 -2.2961
  180SLPC   C3920562   1.964   3.947   5.391  0.1810 -0.0749  0.1928
  180SLPC   H9X20563   2.074   3.954   5.396  0.0208  2.6234  1.6924
  180SLPC   H9Y20564   1.938   3.850   5.342  2.2208  0.4979 -2.2067
  180SLPC  C31020565   1.932   3.967   5.543  0.0033 -0.5779 -0.2081
  180SLPC  H10X20566   1.825   3.944   5.563 -0.2878  1.0291  0.2313
  180SLPC  H10Y20567   1.963   4.071   5.566 -0.4348 -0.2883 -0.9049
  180SLPC  C31120568   2.020   3.888   5.648 -0.3723  0.2287  0.5535
  180SLPC  H11X20569   2.125   3.884   5.614 -0.6979  0.7423 -0.5642
  180SLPC  H11Y20570   1.994   3.780   5.641  1.1706 -0.2445  1.5710
  180SLPC  C31220571   2.017   3.940   5.797 -0.5366  0.0965 -0.1259
  180SLPC  H12X20572   1.921   3.910   5.844 -0.3186 -1.5758 -0.6831
  180SLPC  H12Y20573   2.032   4.050   5.796 -2.2520  0.4664  2.8691
  180SLPC  C31320574   2.130   3.872   5.888 -0.0890 -0.1185  0.6201
  180SLPC  H13X20575   2.227   3.889   5.838  0.0328 -2.3087  0.0420
  180SLPC  H13Y20576   2.124   3.763   5.906  1.3678  0.1251  3.0093
  180SLPC  C31420577   2.127   3.941   6.026  0.5151 -0.7878 -0.2122
  180SLPC  H14X20578   2.047   3.909   6.095  0.1711  1.2196  0.3919
  180SLPC  H14Y20579   2.111   4.050   6.008 -0.2242 -1.1576 -2.0627
  180SLPC  C31520580   2.261   3.913   6.087  0.6327  0.2000  0.5406
  180SLPC  H15X20581   2.284   3.968   6.180  1.1069  0.5157  0.2467
  180SLPC  H15Y20582   2.350   3.914   6.020  0.5194  0.2198  0.3886
  180SLPC  C31620583   2.255   3.777   6.140 -0.0020  0.1692 -0.2099
  180SLPC  H16X20584   2.260   3.701   6.059 -4.9021 -0.1654 -0.5323
  180SLPC  H16Y20585   2.163   3.756   6.199 -0.1696 -0.9959 -0.8517
  180SLPC  C31720586   2.373   3.752   6.239  0.3355  0.3952  0.6913
  180SLPC  H17X20587   2.326   3.776   6.337 -2.2828  1.6488 -0.7541
  180SLPC  H17Y20588   2.468   3.805   6.218 -0.1361  1.2897  0.8054
  180SLPC  C31820589   2.410   3.600   6.238 -0.6715 -0.7103 -0.3258
  180SLPC  H18X20590   2.481   3.582   6.321 -0.3028 -0.5531 -0.6009
  180SLPC  H18Y20591   2.465   3.589   6.142 -2.6864  3.1893 -2.1834
  180SLPC  H18Z20592   2.319   3.536   6.243 -0.1528 -1.4956 -0.7316
  181SLPC     N20593   0.743   5.792   3.727 -0.0593 -0.1695  0.4526
  181SLPC   C1320594   0.646   5.903   3.736  0.1577 -1.1218  0.8894
  181SLPC  H13A20595   0.676   5.990   3.793 -2.5853  0.7322 -0.2782
  181SLPC  H13B20596   0.627   5.936   3.635 -0.3713 -2.0225  0.6896
  181SLPC  H13C20597   0.548   5.878   3.772 -0.2408 -1.6328 -0.4928
  181SLPC   C1420598   0.876   5.848   3.691  0.1711 -0.1419 -0.0979
  181SLPC  H14A20599   0.883   5.874   3.586 -1.7017 -2.4734 -0.8793
  181SLPC  H14B20600   0.888   5.942   3.744  0.7849 -0.3998  0.2291
  181SLPC  H14C20601   0.954   5.783   3.726  0.4686 -0.0713 -0.6082
  181SLPC   C1520602   0.696   5.696   3.627  0.0449  0.3560  0.0102
  181SLPC  H15A20603   0.719   5.745   3.534 -0.9521  1.3865  0.2719
  181SLPC  H15B20604   0.751   5.604   3.636  0.5820  0.5455 -1.1019
  181SLPC  H15C20605   0.591   5.674   3.636  0.2946 -0.1753  2.0890
  181SLPC   C1220606   0.754   5.723   3.868 -0.3618 -0.4452  0.2975
  181SLPC  H12A20607   0.655   5.686   3.888 -0.8569 -0.0954 -1.3391
  181SLPC  H12B20608   0.791   5.806   3.927  0.1052 -0.3233 -0.1579
  181SLPC   C1120609   0.858   5.610   3.889 -0.1809 -0.3679  0.6735
  181SLPC  H11A20610   0.842   5.550   3.797 -0.4429  1.0321 -0.2267
  181SLPC  H11B20611   0.838   5.555   3.984  1.2392 -0.5630  0.8858
  181SLPC     P20612   1.053   5.743   4.005 -0.1840  0.1246  0.2590
  181SLPC   O1320613   1.190   5.688   4.038  0.9125  0.3968  0.3196
  181SLPC   O1420614   1.055   5.887   3.970  0.5233  0.6410 -0.7948
  181SLPC   O1220615   0.992   5.668   3.887 -0.5099  0.0892 -0.1327
  181SLPC   O1120616   0.947   5.736   4.115  0.5160 -0.1986 -0.3504
  181SLPC    C120617   0.954   5.630   4.209 -0.3147  0.4284  0.5020
  181SLPC    HA20618   0.954   5.533   4.155  1.8541  1.1939 -1.0384
  181SLPC    HB20619   1.051   5.641   4.263  0.2158  0.6993 -0.4768
  181SLPC    C220620   0.849   5.632   4.320  0.1615 -0.0097  0.3913
  181SLPC    HS20621   0.751   5.628   4.267  0.1199  1.9296  0.2713
  181SLPC   O2120622   0.858   5.763   4.384  0.0654 -0.1636 -0.2866
  181SLPC   C2120623   0.756   5.800   4.452 -0.4277  0.0808 -0.5284
  181SLPC   O2220624   0.643   5.743   4.455  0.1865  0.7872  0.3231
  181SLPC   C2220625   0.796   5.934   4.520  0.1482  0.6865  0.8113
  181SLPC   H2R20626   0.900   5.917   4.558 -0.1450 -1.9826  0.6049
  181SLPC   H2S20627   0.796   6.013   4.442  0.9415 -0.5705 -0.5090
  181SLPC    C320628   0.875   5.516   4.414 -0.1378  0.0567 -0.1781
  181SLPC    HX20629   0.983   5.514   4.438  0.1522 -3.0454 -1.2465
  181SLPC    HY20630   0.856   5.429   4.347 -0.4540  0.7324 -0.9832
  181SLPC   O3120631   0.795   5.520   4.536 -0.2388  0.1510  0.4017
  181SLPC   C3120632   0.699   5.425   4.546  0.8393  0.1703 -1.0280
  181SLPC   O3220633   0.700   5.320   4.480  0.8868 -0.3393 -0.4168
  181SLPC   C3220634   0.583   5.466   4.637 -1.5523  0.1826 -0.5488
  181SLPC   H2X20635   0.507   5.517   4.574 -0.7812  1.2483 -0.6422
  181SLPC   H2Y20636   0.609   5.541   4.715 -2.9135 -0.4839  0.5871
  181SLPC   C2320637   0.697   5.976   4.638 -0.6924  0.0873  0.1463
  181SLPC   H3R20638   0.688   5.896   4.715 -0.3042 -0.2300 -0.1334
  181SLPC   H3S20639   0.591   5.990   4.606 -2.0310 -1.6435  3.3068
  181SLPC   C2420640   0.744   6.097   4.705 -0.2129 -0.3537 -0.3724
  181SLPC   H4R20641   0.761   6.179   4.632 -2.3116 -0.4067 -0.9678
  181SLPC   H4S20642   0.836   6.075   4.764 -1.7120  1.2009  2.8217
  181SLPC   C2520643   0.643   6.163   4.808 -0.4141  0.8317  0.1082
  181SLPC   H5R20644   0.546   6.160   4.754 -0.4310 -1.7469  0.1220
  181SLPC   H5S20645   0.674   6.266   4.834 -1.4268  0.6587  2.2114
  181SLPC   C2620646   0.626   6.083   4.937 -0.6776 -0.0624 -0.5999
  181SLPC   H6R20647   0.641   5.978   4.903 -0.9162 -0.0032 -0.8905
  181SLPC   H6S20648   0.520   6.089   4.967  0.0594  1.0621  2.0452
  181SLPC   C2720649   0.705   6.127   5.055  0.3030  0.1049 -0.0434
  181SLPC   H7R20650   0.685   6.236   5.050 -2.6061 -0.3984 -3.6817
  181SLPC   H7S20651   0.813   6.103   5.044 -0.3066 -3.4797  0.5775
  181SLPC   C2820652   0.660   6.055   5.182  0.7361 -0.5175  0.1515
  181SLPC   H8R20653   0.742   6.047   5.256  0.2159  0.9323  0.9162
  181SLPC   H8S20654   0.633   5.951   5.155 -1.4509 -0.4511  1.8050
  181SLPC   C2920655   0.529   6.118   5.237  0.5101 -0.3956  0.2213
  181SLPC   H9R20656   0.446   6.138   5.168 -1.0334 -0.6129  1.9408
  181SLPC  C21020657   0.512   6.168   5.361  0.2538 -0.0459  0.2816
  181SLPC  H10R20658   0.412   6.197   5.395 -0.6249 -0.9055 -1.4697
  181SLPC  C21120659   0.612   6.166   5.468 -0.0187 -0.4146  0.3573
  181SLPC  H11R20660   0.597   6.250   5.539 -1.4938 -1.8584  1.8608
  181SLPC  H11S20661   0.707   6.169   5.411 -0.1711 -2.5380 -0.1024
  181SLPC  C21220662   0.596   6.047   5.557  0.1326 -0.3400  0.2414
  181SLPC  H12R20663   0.633   5.953   5.514  0.3614 -0.3694  0.4977
  181SLPC  C21320664   0.544   6.042   5.680  0.2129  0.3959  0.4447
  181SLPC  H13R20665   0.538   5.951   5.741 -1.5226  1.0914  1.4017
  181SLPC  C21420666   0.480   6.167   5.747 -0.5147  0.2266  0.3836
  181SLPC  H14R20667   0.375   6.141   5.769 -0.2998 -0.2369  0.8838
  181SLPC  H14S20668   0.473   6.259   5.686  0.1587  0.6663  0.9499
  181SLPC  C21520669   0.553   6.192   5.878  0.1709 -0.0048 -0.3822
  181SLPC  H15R20670   0.575   6.095   5.929 -0.1472 -0.6176 -1.3895
  181SLPC  H15S20671   0.476   6.233   5.948 -0.0491 -1.2344  0.1262
  181SLPC  C21620672   0.672   6.286   5.872 -0.0597  0.7017  0.4557
  181SLPC  H16R20673   0.646   6.383   5.825  0.1013  0.0629 -1.0161
  181SLPC  H16S20674   0.742   6.230   5.806 -1.4646  0.1263 -0.5995
  181SLPC  C21720675   0.730   6.305   6.016 -0.1072 -0.2718 -0.3104
  181SLPC  H17R20676   0.834   6.344   6.012 -0.1640 -0.2178 -3.2892
  181SLPC  H17S20677   0.745   6.201   6.052 -1.4716  0.0530  1.3248
  181SLPC  C21820678   0.642   6.378   6.115 -0.5156  0.8372  0.1815
  181SLPC  H18R20679   0.534   6.353   6.108 -0.8646  2.5922 -2.2233
  181SLPC  H18S20680   0.656   6.487   6.101  3.0869  0.7919  2.3351
  181SLPC  H18T20681   0.682   6.359   6.216  1.1481 -1.9484 -0.8722
  181SLPC   C3320682   0.524   5.337   4.706  0.5332  0.0697 -0.0733
  181SLPC   H3X20683   0.581   5.318   4.800  1.0087  1.5404 -0.0411
  181SLPC   H3Y20684   0.526   5.251   4.635  3.1310  0.2874 -0.3876
  181SLPC   C3420685   0.377   5.355   4.738  0.5802 -0.7242  0.7475
  181SLPC   H4X20686   0.339   5.417   4.655 -0.7548 -2.0373  0.3365
  181SLPC   H4Y20687   0.366   5.425   4.823 -2.0305  1.0033 -0.8897
  181SLPC   C3520688   0.295   5.229   4.743  0.3775  0.7924 -0.3139
  181SLPC   H5X20689   0.306   5.154   4.663 -0.7594 -0.3801  0.5912
  181SLPC   H5Y20690   0.188   5.257   4.754  0.3775  0.6836 -0.0148
  181SLPC   C3620691   0.332   5.143   4.869  0.2146 -0.0733 -0.4393
  181SLPC   H6X20692   0.440   5.116   4.872  0.4785  1.0080  0.3569
  181SLPC   H6Y20693   0.262   5.056   4.867  2.1911 -1.7780  0.6834
  181SLPC   C3720694   0.308   5.222   5.000  0.8757 -0.3730 -0.3212
  181SLPC   H7X20695   0.201   5.248   5.004  0.7004 -1.0952 -0.0848
  181SLPC   H7Y20696   0.371   5.313   5.007  0.2833  0.3228 -2.8672
  181SLPC   C3820697   0.342   5.135   5.123  0.5950  0.1333 -0.8161
  181SLPC   H8X20698   0.421   5.062   5.097 -1.0241 -2.4919  1.0957
  181SLPC   H8Y20699   0.250   5.075   5.138  1.1686 -0.1980  1.9627
  181SLPC   C3920700   0.384   5.215   5.245  0.1112 -0.6579 -0.3176
  181SLPC   H9X20701   0.310   5.297   5.256 -1.0197 -1.0822 -3.8211
  181SLPC   H9Y20702   0.479   5.273   5.240 -0.5043  0.3304 -1.0659
  181SLPC  C31020703   0.382   5.132   5.378 -0.0669  0.6890  0.5102
  181SLPC  H10X20704   0.457   5.051   5.368 -2.0119 -0.9269 -2.2075
  181SLPC  H10Y20705   0.286   5.086   5.407 -0.0861  0.0181 -0.5781
  181SLPC  C31120706   0.420   5.222   5.494  0.0229 -0.5341  0.2480
  181SLPC  H11X20707   0.336   5.293   5.509 -1.5612 -2.4865  1.1995
  181SLPC  H11Y20708   0.514   5.275   5.470 -0.6112  1.3759  1.7615
  181SLPC  C31220709   0.451   5.147   5.623 -0.5031 -0.6647 -0.2332
  181SLPC  H12X20710   0.551   5.102   5.604  0.2505  1.8520 -2.9022
  181SLPC  H12Y20711   0.378   5.064   5.637  0.9330 -1.7691  0.9428
  181SLPC  C31320712   0.462   5.239   5.744 -0.0992 -0.6951 -0.5733
  181SLPC  H13X20713   0.518   5.329   5.712 -0.1744 -0.0477  1.0467
  181SLPC  H13Y20714   0.516   5.183   5.823 -0.0324  1.0367  0.6730
  181SLPC  C31420715   0.326   5.284   5.799 -0.2493  0.6712 -0.6737
  181SLPC  H14X20716   0.258   5.196   5.799  0.9060 -0.2564  0.3427
  181SLPC  H14Y20717   0.282   5.364   5.736  0.1709  0.6145 -1.0438
  181SLPC  C31520718   0.350   5.342   5.941 -0.0964  0.2557  0.2499
  181SLPC  H15X20719   0.423   5.425   5.935  0.5072 -0.2594  0.3656
  181SLPC  H15Y20720   0.378   5.259   6.010 -1.5699 -1.4519 -1.1060
  181SLPC  C31620721   0.225   5.403   5.994  0.1821 -0.2870 -0.1402
  181SLPC  H16X20722   0.150   5.324   6.016  0.6788 -1.1264 -1.3051
  181SLPC  H16Y20723   0.179   5.464   5.913 -1.4422 -2.9414 -1.3750
  181SLPC  C31720724   0.253   5.478   6.124  0.1462 -0.0006  0.4781
  181SLPC  H17X20725   0.339   5.546   6.101 -0.1322 -0.1223 -1.0742
  181SLPC  H17Y20726   0.294   5.399   6.190  2.0442 -0.4163 -1.0677
  181SLPC  C31820727   0.137   5.563   6.178  0.4473 -0.1118 -0.3443
  181SLPC  H18X20728   0.166   5.593   6.281 -1.2758  1.7170 -0.3276
  181SLPC  H18Y20729   0.041   5.508   6.180 -0.5428  1.4468 -2.0036
  181SLPC  H18Z20730   0.119   5.659   6.124 -0.7057 -0.0309  0.1500
  182SLPC     N20731   5.752   4.420   3.742 -0.0812  0.5710 -0.0972
  182SLPC   C1320732   5.864   4.491   3.816 -0.7811 -0.3401  0.1747
  182SLPC  H13A20733   5.896   4.575   3.757 -0.6757 -0.5627 -0.0843
  182SLPC  H13B20734   5.837   4.510   3.919  0.8236  2.2549  0.1835
  182SLPC  H13C20735   5.958   4.439   3.831 -0.2074  0.4835 -0.4725
  182SLPC   C1420736   5.809   4.356   3.620  0.4695  0.0693 -0.0759
  182SLPC  H14A20737   5.726   4.327   3.557 -1.5662  1.7681  1.6574
  182SLPC  H14B20738   5.856   4.429   3.557 -0.1068  1.1653  0.7279
  182SLPC  H14C20739   5.873   4.270   3.639 -0.8822 -1.2795 -1.4014
  182SLPC   C1520740   5.644   4.509   3.717  0.2605 -0.5353  0.5325
  182SLPC  H15A20741   5.552   4.456   3.699  0.3148 -0.5361  0.2506
  182SLPC  H15B20742   5.621   4.579   3.796 -2.4719 -1.3146  0.5376
  182SLPC  H15C20743   5.663   4.570   3.629 -2.5012  1.0413  0.9129
  182SLPC   C1220744   5.708   4.311   3.839 -0.0560  0.2779  0.3245
  182SLPC  H12A20745   5.795   4.252   3.864 -0.0062  0.8745  1.6478
  182SLPC  H12B20746   5.641   4.244   3.786  3.1271 -1.7229 -1.4402
  182SLPC   C1120747   5.631   4.357   3.967  1.1691 -0.1558  0.6521
  182SLPC  H11A20748   5.650   4.462   3.999 -0.8411 -0.0198  1.5159
  182SLPC  H11B20749   5.654   4.293   4.054  0.5256  1.3082  1.9452
  182SLPC     P20750   5.411   4.225   3.951 -0.0414  0.4397  0.1761
  182SLPC   O1320751   5.270   4.256   3.913 -0.3668 -0.2644  0.6867
  182SLPC   O1420752   5.477   4.117   3.870  0.5445 -0.0340 -0.6257
  182SLPC   O1220753   5.488   4.359   3.942 -0.5839  0.1944  0.5504
  182SLPC   O1120754   5.413   4.189   4.109  0.4644 -0.1678 -0.2220
  182SLPC    C120755   5.401   4.276   4.216  0.2088 -0.0668  0.0038
  182SLPC    HA20756   5.454   4.224   4.298 -0.8599  0.0447  0.7835
  182SLPC    HB20757   5.445   4.374   4.186 -1.8623  1.5076  1.7480
  182SLPC    C220758   5.254   4.290   4.262  0.4155  0.1908  0.0212
  182SLPC    HS20759   5.194   4.334   4.180 -1.6551 -1.9682  0.2684
  182SLPC   O2120760   5.260   4.381   4.372 -0.0549  0.0581 -0.1614
  182SLPC   C2120761   5.151   4.447   4.407  0.4828 -0.7540  0.0204
  182SLPC   O2220762   5.038   4.443   4.355 -0.6231  0.1022  0.2294
  182SLPC   C2220763   5.181   4.534   4.531 -0.3018  0.1276 -0.0301
  182SLPC   H2R20764   5.275   4.590   4.513 -2.1115  4.0669  1.6371
  182SLPC   H2S20765   5.096   4.606   4.532 -0.6437 -0.1150 -2.9134
  182SLPC    C320766   5.179   4.156   4.285  0.5052  0.2089  0.4942
  182SLPC    HX20767   5.192   4.107   4.186 -1.0488  2.3672 -0.8478
  182SLPC    HY20768   5.072   4.181   4.299  1.2404  3.6810  0.7629
  182SLPC   O3120769   5.246   4.089   4.392 -0.1162  0.2422  0.1497
  182SLPC   C3120770   5.184   4.098   4.506  0.0142  0.0011  0.3118
  182SLPC   O3220771   5.074   4.140   4.531  0.3663  0.5095  0.4767
  182SLPC   C3220772   5.281   4.051   4.617 -0.1258  0.6456 -0.1302
  182SLPC   H2X20773   5.377   4.107   4.607  0.6440 -0.8599 -1.5931
  182SLPC   H2Y20774   5.297   3.949   4.577  0.2805  1.0516 -1.0269
  182SLPC   C2320775   5.186   4.450   4.665 -0.0039  0.9132  0.8416
  182SLPC   H3R20776   5.256   4.363   4.668 -2.8868 -1.6163 -0.1669
  182SLPC   H3S20777   5.087   4.404   4.684  0.3535  0.0120  0.5764
  182SLPC   C2420778   5.215   4.532   4.796  0.2464 -0.4508  0.7670
  182SLPC   H4R20779   5.129   4.602   4.796  0.1981 -0.5047  0.0131
  182SLPC   H4S20780   5.310   4.588   4.784 -1.6865  3.0527  0.6308
  182SLPC   C2520781   5.220   4.451   4.929  0.1088 -0.1751 -0.0249
  182SLPC   H5R20782   5.310   4.387   4.941  1.2287  1.4363  0.5523
  182SLPC   H5S20783   5.134   4.381   4.921 -1.0328  1.2388 -0.5789
  182SLPC   C2620784   5.231   4.525   5.066  0.3165  0.5551  0.0497
  182SLPC   H6R20785   5.148   4.598   5.053 -2.3534 -2.4856 -1.3732
  182SLPC   H6S20786   5.330   4.575   5.057  0.4620  0.2264 -0.1723
  182SLPC   C2720787   5.213   4.418   5.185  0.1770  0.5238  1.0647
  182SLPC   H7R20788   5.295   4.344   5.176  0.0577  0.3714  1.2400
  182SLPC   H7S20789   5.119   4.363   5.166 -0.6369  0.9847  3.3954
  182SLPC   C2820790   5.203   4.468   5.324 -0.6354  0.2450  0.5439
  182SLPC   H8R20791   5.148   4.398   5.392  0.7884 -2.2828 -0.7727
  182SLPC   H8S20792   5.147   4.564   5.319  0.6062  0.8997 -2.3134
  182SLPC   C2920793   5.348   4.497   5.364 -0.1906 -0.2779 -0.1151
  182SLPC   H9R20794   5.416   4.533   5.285  0.5811  3.0602  1.8969
  182SLPC  C21020795   5.405   4.488   5.483 -0.2652  0.0599  0.1461
  182SLPC  H10R20796   5.512   4.512   5.490 -0.2906 -0.1619  1.4837
  182SLPC  C21120797   5.345   4.440   5.620  0.2977 -0.7399  0.3035
  182SLPC  H11R20798   5.362   4.332   5.641  1.0772 -0.7939 -0.5496
  182SLPC  H11S20799   5.234   4.450   5.610  0.3542 -1.3185 -1.0490
  182SLPC  C21220800   5.382   4.518   5.741  0.0906  0.4791 -0.4236
  182SLPC  H12R20801   5.442   4.608   5.723 -0.3976  0.9266  0.1755
  182SLPC  C21320802   5.344   4.498   5.874  0.5936  0.1846  0.5714
  182SLPC  H13R20803   5.392   4.563   5.949  0.4569 -0.4695  1.2296
  182SLPC  C21420804   5.252   4.389   5.912  0.0766  0.0458  0.3738
  182SLPC  H14R20805   5.242   4.305   5.840 -1.5552 -1.0837  1.8330
  182SLPC  H14S20806   5.149   4.432   5.910 -0.7998 -1.9521 -1.6832
  182SLPC  C21520807   5.297   4.356   6.055  0.0629 -0.1003  0.8504
  182SLPC  H15R20808   5.288   4.447   6.119 -0.6632 -0.4968  1.3210
  182SLPC  H15S20809   5.407   4.344   6.046 -0.1166 -1.4160  0.1194
  182SLPC  C21620810   5.212   4.244   6.109  0.2860  0.2863 -0.0173
  182SLPC  H16R20811   5.241   4.147   6.062 -0.2495 -0.3061  0.8350
  182SLPC  H16S20812   5.104   4.246   6.086  0.3197 -0.4205 -0.2732
  182SLPC  C21720813   5.232   4.232   6.262 -0.1412  0.1841  0.2074
  182SLPC  H17R20814   5.160   4.160   6.304 -2.8001  2.8423  0.5314
  182SLPC  H17S20815   5.221   4.331   6.312  0.5602  0.4055 -0.0643
  182SLPC  C21820816   5.370   4.168   6.288 -0.0238  0.0130 -0.9413
  182SLPC  H18R20817   5.383   4.061   6.261  0.4310  0.1745 -1.3777
  182SLPC  H18S20818   5.382   4.175   6.398  0.9018 -0.7428 -0.9862
  182SLPC  H18T20819   5.449   4.234   6.245 -1.1265 -0.0616 -3.2555
  182SLPC   C3320820   5.217   4.035   4.755 -0.0292  0.1234  0.3616
  182SLPC   H3X20821   5.131   3.966   4.753  1.3544 -1.6464 -0.8421
  182SLPC   H3Y20822   5.185   4.134   4.793 -3.3546 -0.0358 -1.6722
  182SLPC   C3420823   5.315   3.984   4.862  0.0429  0.2579 -0.3211
  182SLPC   H4X20824   5.415   4.032   4.855  0.4931 -0.9124 -2.9765
  182SLPC   H4Y20825   5.332   3.880   4.828 -0.2893  0.3217 -0.6750
  182SLPC   C3520826   5.271   3.990   5.015  0.1957 -0.8001 -0.3722
  182SLPC   H5X20827   5.177   3.932   5.016  0.5430 -1.3730 -0.7264
  182SLPC   H5Y20828   5.267   4.096   5.047 -0.0175 -1.2572  1.2236
  182SLPC   C3620829   5.375   3.929   5.112 -0.2099  0.1042  0.1358
  182SLPC   H6X20830   5.463   3.995   5.100 -0.2921  0.3018  0.6092
  182SLPC   H6Y20831   5.401   3.828   5.074  0.7981  0.3505  0.1425
  182SLPC   C3720832   5.324   3.928   5.251  0.1937 -0.3111 -0.6124
  182SLPC   H7X20833   5.403   3.876   5.309 -0.3752 -0.3882  0.1093
  182SLPC   H7Y20834   5.230   3.867   5.245  0.0672  0.0147 -3.1020
  182SLPC   C3820835   5.290   4.065   5.301 -0.0941 -0.2582  0.1031
  182SLPC   H8X20836   5.185   4.087   5.272  0.0032  0.9918  0.6631
  182SLPC   H8Y20837   5.367   4.130   5.255 -1.2259  0.0744 -1.4354
  182SLPC   C3920838   5.306   4.078   5.453 -0.1154  1.2279 -0.3375
  182SLPC   H9X20839   5.314   4.187   5.476  0.4951  1.0678  0.2412
  182SLPC   H9Y20840   5.395   4.017   5.480  0.1607  2.0864  0.8167
  182SLPC  C31020841   5.188   4.018   5.531 -0.4618  0.3586  0.2681
  182SLPC  H10X20842   5.185   3.912   5.498  0.2571  0.5486 -0.4446
  182SLPC  H10Y20843   5.099   4.075   5.498  1.8625  3.8561 -0.6445
  182SLPC  C31120844   5.201   4.026   5.686  1.1006 -0.2511 -0.3281
  182SLPC  H11X20845   5.198   4.133   5.714  1.5345  0.1054 -1.5896
  182SLPC  H11Y20846   5.299   3.986   5.719  1.2438 -0.9799 -1.5866
  182SLPC  C31220847   5.089   3.953   5.769 -0.2284 -0.0688  0.3245
  182SLPC  H12X20848   4.990   3.950   5.719  0.6480 -3.3512 -1.4901
  182SLPC  H12Y20849   5.086   4.007   5.866  1.8680 -0.0559  0.4342
  182SLPC  C31320850   5.126   3.807   5.791  0.2166  0.0989  0.2666
  182SLPC  H13X20851   5.150   3.763   5.693  0.9394 -0.2312  0.5834
  182SLPC  H13Y20852   5.038   3.752   5.828 -1.8708  1.6790 -2.0402
  182SLPC  C31420853   5.241   3.793   5.893  0.0478 -0.1543  0.4748
  182SLPC  H14X20854   5.325   3.858   5.864 -1.1692  0.4491 -1.9142
  182SLPC  H14Y20855   5.275   3.687   5.891 -1.6034 -0.7313  1.1369
  182SLPC  C31520856   5.211   3.821   6.048 -0.3398 -0.0158  0.3926
  182SLPC  H15X20857   5.131   3.750   6.078  0.1782 -1.1515 -0.7836
  182SLPC  H15Y20858   5.168   3.922   6.062  0.6124  0.3886  0.4629
  182SLPC  C31620859   5.335   3.805   6.143  0.5119 -0.3708 -0.2483
  182SLPC  H16X20860   5.287   3.791   6.243 -1.6460 -2.8500 -1.5031
  182SLPC  H16Y20861   5.405   3.891   6.137 -0.7444  0.6699 -0.5326
  182SLPC  C31720862   5.421   3.681   6.123  0.4366 -0.9349 -0.4436
  182SLPC  H17X20863   5.509   3.695   6.189  0.0645  2.7774 -0.5128
  182SLPC  H17Y20864   5.469   3.681   6.023 -2.4234  0.4508 -1.9298
  182SLPC  C31820865   5.344   3.545   6.136 -0.2166 -0.4404  0.3217
  182SLPC  H18X20866   5.415   3.465   6.107  1.2132  0.3590  1.5105
  182SLPC  H18Y20867   5.255   3.538   6.069  0.4985 -0.8454 -0.6152
  182SLPC  H18Z20868   5.322   3.530   6.244  1.1306 -3.4184  0.2858
  183SLPC     N20869   1.561   6.509   4.099  0.4343  0.2554 -0.8556
  183SLPC   C1320870   1.533   6.655   4.089  0.0786 -0.4780 -0.2514
  183SLPC  H13A20871   1.622   6.716   4.079  0.4431 -0.8331  0.7143
  183SLPC  H13B20872   1.467   6.671   4.005  1.4741  0.4501 -1.2243
  183SLPC  H13C20873   1.485   6.696   4.177  1.8632  2.0335 -0.3145
  183SLPC   C1420874   1.695   6.485   4.159 -0.3767 -0.5429 -0.1964
  183SLPC  H14A20875   1.714   6.380   4.175 -1.3363 -0.9001 -1.2775
  183SLPC  H14B20876   1.775   6.530   4.103  0.1437 -0.5961  0.4887
  183SLPC  H14C20877   1.704   6.528   4.258  1.9078  1.6188 -1.2522
  183SLPC   C1520878   1.547   6.438   3.971  0.7712  0.1321 -0.1149
  183SLPC  H15A20879   1.541   6.331   3.989 -2.4741 -0.2798 -2.6807
  183SLPC  H15B20880   1.453   6.465   3.925  0.3336  0.7207  1.0772
  183SLPC  H15C20881   1.632   6.468   3.911  0.8877  0.7649  0.3661
  183SLPC   C1220882   1.452   6.455   4.196  0.3272 -0.3266  0.1195
  183SLPC  H12A20883   1.356   6.469   4.148  0.3986 -1.0399 -0.2540
  183SLPC  H12B20884   1.455   6.517   4.284 -0.8427  0.4509 -0.3619
  183SLPC   C1120885   1.463   6.312   4.244 -0.2324 -0.1578 -0.4148
  183SLPC  H11A20886   1.380   6.300   4.317 -0.7554  0.3604 -0.9117
  183SLPC  H11B20887   1.559   6.314   4.299  0.0050 -0.4537 -0.8188
  183SLPC     P20888   1.530   6.073   4.182  0.3868 -0.0613 -0.3906
  183SLPC   O1320889   1.604   6.024   4.067 -0.0844  0.1906 -0.1517
  183SLPC   O1420890   1.594   6.063   4.316 -0.4412  0.5914 -0.3750
  183SLPC   O1220891   1.471   6.213   4.143 -0.1937 -0.0773 -0.1444
  183SLPC   O1120892   1.406   5.982   4.180 -0.0852 -0.3365  0.5963
  183SLPC    C120893   1.279   6.013   4.234 -0.3029 -0.8785 -0.3048
  183SLPC    HA20894   1.239   6.110   4.196  1.4762  1.3650  3.0523
  183SLPC    HB20895   1.207   5.941   4.190  0.3507 -0.5399 -2.0044
  183SLPC    C220896   1.267   6.008   4.389 -0.6927 -1.0171  0.3210
  183SLPC    HS20897   1.359   6.057   4.428 -1.4494  0.1570  0.7039
  183SLPC   O2120898   1.261   5.869   4.412  0.2512 -0.9284  0.1019
  183SLPC   C2120899   1.325   5.822   4.521 -0.0655 -0.1640  0.0378
  183SLPC   O2220900   1.384   5.887   4.603  0.1257  0.2997  0.1659
  183SLPC   C2220901   1.310   5.671   4.533 -0.2701  0.2399 -0.4143
  183SLPC   H2R20902   1.220   5.638   4.476 -0.8453  0.4624  0.3530
  183SLPC   H2S20903   1.392   5.619   4.478 -2.1042 -0.3359 -2.7608
  183SLPC    C320904   1.145   6.070   4.448  1.0388 -0.5342 -0.6002
  183SLPC    HX20905   1.051   6.027   4.408 -0.9694  3.1467 -0.2930
  183SLPC    HY20906   1.152   6.174   4.410  2.4116 -0.5963 -0.5670
  183SLPC   O3120907   1.132   6.061   4.591  0.3756 -0.0695  0.7484
  183SLPC   C3120908   1.181   6.151   4.663 -0.3411  0.0840 -0.2366
  183SLPC   O3220909   1.240   6.253   4.624 -0.2405  0.9731 -0.1919
  183SLPC   C3220910   1.139   6.133   4.810  0.3141  0.2194 -0.4458
  183SLPC   H2X20911   1.135   6.024   4.830  1.2883 -0.4634 -3.5066
  183SLPC   H2Y20912   1.033   6.167   4.809 -0.0271 -0.6731  1.3925
  183SLPC   C2320913   1.299   5.620   4.684 -0.2501 -0.3718 -0.5401
  183SLPC   H3R20914   1.392   5.639   4.741 -1.7140  2.4420  1.1709
  183SLPC   H3S20915   1.275   5.512   4.681  0.6368 -0.6025  0.3085
  183SLPC   C2420916   1.188   5.689   4.767  0.1964  0.4345  0.1441
  183SLPC   H4R20917   1.208   5.798   4.777  0.6956  0.3434  0.1651
  183SLPC   H4S20918   1.208   5.645   4.867 -0.4019  1.8954  0.9431
  183SLPC   C2520919   1.043   5.656   4.720  0.9239  0.7948 -1.2289
  183SLPC   H5R20920   1.015   5.548   4.719  0.6888  0.8563 -1.3774
  183SLPC   H5S20921   1.039   5.685   4.613  0.2492 -0.1869 -1.4880
  183SLPC   C2620922   0.932   5.720   4.809 -0.1360 -0.0319  0.1758
  183SLPC   H6R20923   0.832   5.685   4.778 -0.3003  1.2739 -0.8433
  183SLPC   H6S20924   0.927   5.828   4.782 -2.1231  0.4120  1.9998
  183SLPC   C2720925   0.956   5.695   4.965  0.0061 -0.6992  0.8446
  183SLPC   H7R20926   0.878   5.748   5.024 -1.4203 -0.7128 -0.9423
  183SLPC   H7S20927   1.050   5.736   5.007 -0.4487  0.7042  0.5575
  183SLPC   C2820928   0.926   5.548   5.007 -0.8661 -0.4379 -0.8562
  183SLPC   H8R20929   0.936   5.535   5.117  0.9245 -2.7549 -1.1887
  183SLPC   H8S20930   0.991   5.470   4.961 -0.8366 -0.2183 -1.1916
  183SLPC   C2920931   0.785   5.512   4.967 -0.1201  0.0367  0.4303
  183SLPC   H9R20932   0.768   5.481   4.863 -0.1653  0.0770  0.4255
  183SLPC  C21020933   0.673   5.503   5.038  0.0399  0.1737  0.6531
  183SLPC  H10R20934   0.580   5.477   4.985  0.7513 -1.6591  0.2654
  183SLPC  C21120935   0.655   5.549   5.184 -0.0381 -0.1615 -0.2626
  183SLPC  H11R20936   0.756   5.541   5.229  0.7454 -1.1038 -2.0860
  183SLPC  H11S20937   0.583   5.483   5.236 -0.3501  0.4886  0.1394
  183SLPC  C21220938   0.612   5.694   5.197 -0.1899  0.3242 -0.3648
  183SLPC  H12R20939   0.702   5.756   5.189  1.1071 -1.4244  0.1336
  183SLPC  C21320940   0.488   5.744   5.218  1.5648 -0.5841 -0.6542
  183SLPC  H13R20941   0.482   5.853   5.236  1.1815 -0.9398  1.7245
  183SLPC  C21420942   0.354   5.666   5.233 -0.3371 -0.0118  0.5867
  183SLPC  H14R20943   0.367   5.556   5.225 -1.1809 -0.0942  0.2431
  183SLPC  H14S20944   0.279   5.682   5.153 -1.2240  0.2109  1.4339
  183SLPC  C21520945   0.276   5.703   5.366  0.0587 -0.2474 -0.0422
  183SLPC  H15R20946   0.195   5.628   5.375  0.3274 -0.4738  0.6329
  183SLPC  H15S20947   0.227   5.802   5.357 -0.4277 -0.2843  1.7132
  183SLPC  C21620948   0.361   5.699   5.497 -0.6185  0.2817 -0.1976
  183SLPC  H16R20949   0.459   5.749   5.483 -0.3781  0.5235  2.0414
  183SLPC  H16S20950   0.364   5.592   5.526 -1.6165 -0.4231 -2.4407
  183SLPC  C21720951   0.284   5.764   5.614  0.4738  0.0482  0.5287
  183SLPC  H17R20952   0.173   5.761   5.600  0.2202  2.3429  1.5169
  183SLPC  H17S20953   0.318   5.870   5.613  0.0664  0.1901  1.0358
  183SLPC  C21820954   0.330   5.704   5.739 -0.5420  0.1969  0.4862
  183SLPC  H18R20955   0.275   5.608   5.750 -1.7828  0.6276 -1.3371
  183SLPC  H18S20956   0.315   5.769   5.827  0.0770  1.3147 -0.2000
  183SLPC  H18T20957   0.440   5.689   5.726 -0.9592 -3.2651  0.0198
  183SLPC   C3320958   1.219   6.195   4.927  0.1418  0.6318 -0.2792
  183SLPC   H3X20959   1.269   6.290   4.899  0.5575  0.2522 -0.8666
  183SLPC   H3Y20960   1.305   6.130   4.955 -0.2641  0.4255  0.4921
  183SLPC   C3420961   1.127   6.212   5.048 -0.4766 -0.5599  0.4230
  183SLPC   H4X20962   1.033   6.269   5.029  0.4978  1.4533  1.2782
  183SLPC   H4Y20963   1.189   6.274   5.117  2.1260 -2.3584 -0.1577
  183SLPC   C3520964   1.117   6.082   5.127 -0.0491 -0.1922 -0.4448
  183SLPC   H5X20965   1.212   6.025   5.137 -0.6757 -1.3013 -0.6094
  183SLPC   H5Y20966   1.056   6.010   5.070 -1.7265 -0.5227  1.6462
  183SLPC   C3620967   1.059   6.113   5.262 -0.0383 -0.6470 -0.7179
  183SLPC   H6X20968   0.957   6.153   5.247 -1.2315 -1.9611  2.8539
  183SLPC   H6Y20969   1.120   6.188   5.317  1.2642 -1.3764 -1.1233
  183SLPC   C3720970   1.030   5.995   5.358  0.2734 -0.0209 -0.5763
  183SLPC   H7X20971   0.967   6.028   5.442  0.0218 -0.9245 -0.3984
  183SLPC   H7Y20972   1.133   5.985   5.399  0.2567  1.7565 -0.0130
  183SLPC   C3820973   0.994   5.865   5.288  0.0694  0.8532 -0.1388
  183SLPC   H8X20974   1.076   5.836   5.219  0.1881  0.6463  0.0836
  183SLPC   H8Y20975   0.893   5.869   5.242 -0.9624 -2.1677  1.5697
  183SLPC   C3920976   0.994   5.745   5.389 -0.0994 -0.0066  0.3894
  183SLPC   H9X20977   1.099   5.738   5.423  0.1680 -1.2621 -0.6306
  183SLPC   H9Y20978   0.983   5.652   5.330  2.1391 -0.0517 -0.0485
  183SLPC  C31020979   0.907   5.735   5.510  0.1678  0.4607  0.5366
  183SLPC  H10X20980   0.873   5.838   5.536  0.4351  0.5060  0.7095
  183SLPC  H10Y20981   0.953   5.694   5.602 -1.9095 -0.7602  1.0984
  183SLPC  C31120982   0.790   5.644   5.501 -0.2880  0.0321 -0.9334
  183SLPC  H11X20983   0.823   5.540   5.479 -1.5297 -0.0749 -2.5364
  183SLPC  H11Y20984   0.721   5.671   5.418  1.6947  1.1609 -2.2788
  183SLPC  C31220985   0.717   5.626   5.636  0.5972 -0.2624  0.0630
  183SLPC  H12X20986   0.609   5.621   5.612  0.7056  1.2455 -0.9514
  183SLPC  H12Y20987   0.739   5.722   5.688 -1.7854  0.3469  0.0368
  183SLPC  C31320988   0.767   5.516   5.731 -0.1921 -0.1480  0.7853
  183SLPC  H13X20989   0.878   5.518   5.726 -0.2265  1.7368  0.1779
  183SLPC  H13Y20990   0.740   5.418   5.687 -2.0355  0.2528  0.9754
  183SLPC  C31420991   0.716   5.540   5.866 -0.2307  0.2765 -0.4616
  183SLPC  H14X20992   0.732   5.443   5.919 -1.7731  1.3366  2.1742
  183SLPC  H14Y20993   0.606   5.549   5.854 -0.2409 -1.5499 -2.3103
  183SLPC  C31520994   0.794   5.646   5.943  0.4084  0.0019 -0.4347
  183SLPC  H15X20995   0.750   5.745   5.917 -0.5690  0.6631  3.1240
  183SLPC  H15Y20996   0.902   5.646   5.920  0.3819  2.3020 -0.7924
  183SLPC  C31620997   0.766   5.630   6.095  0.2025 -0.6351  0.4583
  183SLPC  H16X20998   0.656   5.642   6.086  0.3182  1.4764  1.3676
  183SLPC  H16Y20999   0.812   5.723   6.134 -0.8536  0.9276 -1.7681
  183SLPC  C31721000   0.798   5.504   6.167  0.2348 -0.0876 -0.1044
  183SLPC  H17X21001   0.908   5.487   6.177  0.1880 -2.3428 -2.4052
  183SLPC  H17Y21002   0.766   5.414   6.110  0.5393 -1.3127  1.5527
  183SLPC  C31821003   0.740   5.501   6.301  0.4534 -0.7831 -0.5269
  183SLPC  H18X21004   0.638   5.545   6.294  0.3789 -0.9721 -0.6175
  183SLPC  H18Y21005   0.800   5.556   6.377 -0.5546 -0.2274 -0.0998
  183SLPC  H18Z21006   0.728   5.400   6.343  0.7094  0.1759  2.0102
  184SLPC     N21007   0.119   1.483   4.097 -0.2540  0.4895  0.3200
  184SLPC   C1321008   0.072   1.589   4.009 -0.1270  0.4263  0.7873
  184SLPC  H13A21009  -0.027   1.571   3.970 -0.5307 -1.2641  2.4734
  184SLPC  H13B21010   0.055   1.682   4.062 -0.7863  0.2726  0.8536
  184SLPC  H13C21011   0.144   1.617   3.933  0.9032  1.9442  2.2378
  184SLPC   C1421012   0.126   1.353   4.016 -0.2108  0.0614 -0.4547
  184SLPC  H14A21013   0.030   1.304   4.011 -1.2713  1.6502  2.1450
  184SLPC  H14B21014   0.151   1.375   3.913  1.2533  1.4020  0.1355
  184SLPC  H14C21015   0.206   1.292   4.056  0.8269  1.3328 -0.4912
  184SLPC   C1521016   0.016   1.475   4.207 -0.0617 -0.1572 -0.1658
  184SLPC  H15A21017   0.019   1.559   4.275  1.6125 -1.2272  1.1705
  184SLPC  H15B21018  -0.083   1.469   4.164 -1.9194  0.2785  3.5967
  184SLPC  H15C21019   0.037   1.391   4.271  0.4857  0.1030  0.0047
  184SLPC   C1221020   0.251   1.516   4.156 -0.0159 -0.1864  0.9202
  184SLPC  H12A21021   0.242   1.619   4.187  1.3575  0.2986 -0.1887
  184SLPC  H12B21022   0.325   1.511   4.077  0.3649 -1.7714  1.3402
  184SLPC   C1121023   0.303   1.441   4.281 -0.1503 -0.2127  0.1572
  184SLPC  H11A21024   0.226   1.466   4.357 -0.1051 -0.2120  0.2025
  184SLPC  H11B21025   0.400   1.476   4.322  0.1311 -2.1288  1.2350
  184SLPC     P21026   0.250   1.192   4.355  0.0071 -0.1091 -0.0373
  184SLPC   O1321027   0.098   1.204   4.378 -0.0445  0.3545 -0.2714
  184SLPC   O1421028   0.301   1.069   4.297  0.3401 -0.1928  0.0990
  184SLPC   O1221029   0.304   1.305   4.257  0.3642  0.2695  0.0260
  184SLPC   O1121030   0.339   1.218   4.486 -0.6112 -0.0972 -0.1056
  184SLPC    C121031   0.292   1.309   4.587  0.0877 -0.3876 -0.4305
  184SLPC    HA21032   0.353   1.401   4.592 -0.3319 -0.1218 -0.0876
  184SLPC    HB21033   0.183   1.330   4.578  0.4567  1.3439 -1.1921
  184SLPC    C221034   0.324   1.250   4.723 -0.0478 -0.0034 -0.0031
  184SLPC    HS21035   0.277   1.150   4.732  1.2481 -0.5181  1.3456
  184SLPC   O2121036   0.284   1.332   4.832 -0.1447  0.8489  0.6373
  184SLPC   C2121037   0.153   1.347   4.846  0.9241 -0.4304 -0.5482
  184SLPC   O2221038   0.065   1.290   4.786  0.7858  0.0047  0.6647
  184SLPC   C2221039   0.136   1.435   4.967  0.1264  0.3619  0.7710
  184SLPC   H2R21040   0.210   1.393   5.039 -2.0657 -2.0968  1.7210
  184SLPC   H2S21041   0.170   1.538   4.942  1.1906  0.5123  2.6272
  184SLPC    C321042   0.476   1.220   4.728  0.1706  0.1632 -0.0266
  184SLPC    HX21043   0.528   1.317   4.721 -0.7164  0.6345 -0.2619
  184SLPC    HY21044   0.504   1.165   4.635  1.6559  1.1019 -0.1702
  184SLPC   O3121045   0.513   1.144   4.843  0.2441 -0.3749 -0.3269
  184SLPC   C3121046   0.641   1.107   4.854  0.8509  0.4651 -0.2494
  184SLPC   O3221047   0.727   1.153   4.784  0.1894  0.0464  0.1861
  184SLPC   C3221048   0.667   1.012   4.974  0.2401 -0.8173  0.0775
  184SLPC   H2X21049   0.660   0.911   4.929 -0.8660 -0.1417 -1.3341
  184SLPC   H2Y21050   0.588   1.016   5.053 -0.2731 -0.4757 -0.4480
  184SLPC   C2321051  -0.010   1.409   5.022 -0.0701  0.4892  0.1523
  184SLPC   H3R21052  -0.038   1.302   5.026 -0.7746  0.6360 -0.6195
  184SLPC   H3S21053  -0.078   1.452   4.946 -0.0266  0.8931  0.3398
  184SLPC   C2421054  -0.022   1.469   5.162 -0.9871 -0.2760  0.3288
  184SLPC   H4R21055   0.027   1.569   5.162 -1.4566 -0.0441  0.6994
  184SLPC   H4S21056   0.022   1.403   5.239  0.6527  0.3615 -0.0238
  184SLPC   C2521057  -0.170   1.501   5.198  0.2378  1.0267  1.2653
  184SLPC   H5R21058  -0.228   1.408   5.215 -1.6285  1.8382 -0.2637
  184SLPC   H5S21059  -0.212   1.546   5.105  2.6696 -0.9994 -0.9553
  184SLPC   C2621060  -0.193   1.600   5.315 -0.5228 -0.3166 -0.6716
  184SLPC   H6R21061  -0.144   1.690   5.271  0.0553 -1.0622 -1.5804
  184SLPC   H6S21062  -0.130   1.565   5.399  0.1617  0.2776 -0.9305
  184SLPC   C2721063  -0.340   1.625   5.354  0.6282  0.2024  0.0941
  184SLPC   H7R21064  -0.339   1.660   5.459 -0.5664  0.0516  0.1665
  184SLPC   H7S21065  -0.392   1.527   5.348 -2.5597  1.8587 -2.7461
  184SLPC   C2821066  -0.408   1.729   5.260  0.1812 -0.4968 -0.6473
  184SLPC   H8R21067  -0.395   1.693   5.156 -3.9455  0.6058 -1.7291
  184SLPC   H8S21068  -0.355   1.821   5.292 -1.8797 -0.6954  4.0880
  184SLPC   C2921069  -0.559   1.728   5.292 -0.1406  0.2504 -0.8505
  184SLPC   H9R21070  -0.616   1.661   5.227 -1.7397  1.3511 -0.6241
  184SLPC  C21021071  -0.622   1.772   5.402  0.3505 -0.4625 -0.0498
  184SLPC  H10R21072  -0.729   1.753   5.419  0.3126 -0.9442 -0.7622
  184SLPC  C21121073  -0.553   1.848   5.516 -0.4603 -0.2069  0.2328
  184SLPC  H11R21074  -0.575   1.957   5.515  1.6923  0.2593 -0.3733
  184SLPC  H11S21075  -0.443   1.850   5.506 -0.3668  2.1009  0.9886
  184SLPC  C21221076  -0.594   1.778   5.647 -0.6763 -0.8247  0.4196
  184SLPC  H12R21077  -0.688   1.721   5.645 -2.4193  1.5754  3.9491
  184SLPC  C21321078  -0.513   1.762   5.759  0.0534 -0.7234  0.5751
  184SLPC  H13R21079  -0.553   1.719   5.852 -1.3141 -0.3633  0.1635
  184SLPC  C21421080  -0.379   1.826   5.778  0.2433 -0.3403 -0.4910
  184SLPC  H14R21081  -0.369   1.858   5.884 -1.0902 -2.5606  0.3894
  184SLPC  H14S21082  -0.365   1.923   5.726  1.2671  0.8947  1.9446
  184SLPC  C21521083  -0.258   1.741   5.755 -0.0694 -0.6337  0.2777
  184SLPC  H15R21084  -0.165   1.787   5.794 -0.0851 -1.5871  1.4866
  184SLPC  H15S21085  -0.245   1.733   5.645 -1.8597  2.4583 -0.2933
  184SLPC  C21621086  -0.268   1.605   5.820 -0.5054 -0.4228  1.5315
  184SLPC  H16R21087  -0.352   1.543   5.782 -0.2451  0.0173  0.1727
  184SLPC  H16S21088  -0.267   1.613   5.931  0.6844 -2.6012  1.7357
  184SLPC  C21721089  -0.139   1.518   5.814  0.4873  0.0905 -0.3920
  184SLPC  H17R21090  -0.166   1.412   5.832 -0.4365  0.1537 -1.2887
  184SLPC  H17S21091  -0.081   1.546   5.904 -1.0594 -0.9992  1.0037
  184SLPC  C21821092  -0.065   1.519   5.682 -0.2848  0.3272 -0.4434
  184SLPC  H18R21093  -0.137   1.533   5.599 -2.0725  1.5652  1.2363
  184SLPC  H18S21094   0.005   1.433   5.675 -1.6938 -0.9041  0.0816
  184SLPC  H18T21095  -0.012   1.616   5.692 -0.9658  0.7599 -0.9667
  184SLPC   C3321096   0.805   1.037   5.022 -0.1164 -0.4491  0.0046
  184SLPC   H3X21097   0.829   1.145   5.013 -1.8218 -0.0220  0.1540
  184SLPC   H3Y21098   0.883   0.981   4.965  0.0976  0.7523 -0.9234
  184SLPC   C3421099   0.830   0.999   5.170  0.5526 -0.1020  0.2784
  184SLPC   H4X21100   0.937   0.979   5.188  0.3555  0.1600  1.8993
  184SLPC   H4Y21101   0.780   0.900   5.183 -1.3850  1.0446  2.1043
  184SLPC   C3521102   0.770   1.105   5.261 -0.4604  0.7464 -0.0687
  184SLPC   H5X21103   0.659   1.095   5.257 -0.3739 -0.8528  0.8384
  184SLPC   H5Y21104   0.796   1.204   5.217 -0.1193  0.8881  0.4476
  184SLPC   C3621105   0.810   1.100   5.404 -0.4067  0.1520 -0.4085
  184SLPC   H6X21106   0.918   1.119   5.425 -0.4205 -1.1846  1.0537
  184SLPC   H6Y21107   0.794   0.995   5.438  0.2512  0.1984  0.0730
  184SLPC   C3721108   0.727   1.200   5.485  0.0351 -0.0567  0.0503
  184SLPC   H7X21109   0.622   1.196   5.448  0.1559  0.6748 -0.3897
  184SLPC   H7Y21110   0.760   1.306   5.472 -1.4279  0.3926 -0.1951
  184SLPC   C3821111   0.730   1.164   5.632 -0.1377  0.3587  0.4473
  184SLPC   H8X21112   0.682   1.240   5.698 -1.1534 -0.3206  0.5199
  184SLPC   H8Y21113   0.835   1.167   5.667  0.1296 -1.7138 -0.0573
  184SLPC   C3921114   0.666   1.036   5.673 -0.4998 -0.3711 -0.5150
  184SLPC   H9X21115   0.730   0.949   5.646  0.1995 -0.9489  2.6118
  184SLPC   H9Y21116   0.567   1.032   5.623 -1.5374 -0.0073  1.4134
  184SLPC  C31021117   0.638   1.032   5.829 -0.2492 -0.4812  0.2068
  184SLPC  H10X21118   0.567   1.111   5.861  0.2464  0.2715 -0.5262
  184SLPC  H10Y21119   0.732   1.049   5.885 -0.9175  4.0269  0.2802
  184SLPC  C31121120   0.573   0.903   5.861 -0.6839  0.1663 -0.0274
  184SLPC  H11X21121   0.565   0.845   5.767 -0.2731 -0.0965  0.0952
  184SLPC  H11Y21122   0.471   0.926   5.900 -0.5620 -1.4672  1.4028
  184SLPC  C31221123   0.643   0.831   5.973  0.2462  0.1844  0.2699
  184SLPC  H12X21124   0.668   0.898   6.057  0.6537 -1.6423  1.6791
  184SLPC  H12Y21125   0.745   0.793   5.952  0.5034  0.2441  1.3621
  184SLPC  C31321126   0.561   0.716   6.028 -0.9439 -0.2832  0.4470
  184SLPC  H13X21127   0.498   0.676   5.945 -1.2040  0.4913  0.2609
  184SLPC  H13Y21128   0.503   0.745   6.118  1.0081 -0.1863  1.7309
  184SLPC  C31421129   0.645   0.600   6.078  0.3135  0.5442 -0.0776
  184SLPC  H14X21130   0.692   0.645   6.168 -0.9215  3.3892 -0.7272
  184SLPC  H14Y21131   0.727   0.574   6.008  0.4565  0.6254  0.0606
  184SLPC  C31521132   0.570   0.469   6.109  0.2732  0.0169  0.3056
  184SLPC  H15X21133   0.492   0.458   6.031  0.6896 -1.3148  0.0659
  184SLPC  H15Y21134   0.507   0.471   6.201  0.2993 -2.2043  0.4107
  184SLPC  C31621135   0.659   0.340   6.106  0.3202  0.0385  1.1190
  184SLPC  H16X21136   0.714   0.345   6.009 -1.3168 -0.5512  0.1092
  184SLPC  H16Y21137   0.599   0.249   6.086  3.6119 -1.8706 -1.0978
  184SLPC  C31721138   0.752   0.335   6.229  0.6895 -0.1728  0.1384
  184SLPC  H17X21139   0.695   0.346   6.323  2.0522  0.6873  0.8989
  184SLPC  H17Y21140   0.804   0.433   6.230 -2.8894  2.0416 -2.8083
  184SLPC  C31821141   0.835   0.203   6.245  0.9954 -0.0406 -0.5414
  184SLPC  H18X21142   0.782   0.116   6.290  2.3623 -0.5459  0.1292
  184SLPC  H18Y21143   0.921   0.223   6.313 -0.1579 -0.2443  1.0340
  184SLPC  H18Z21144   0.872   0.186   6.142  0.9437 -0.7602 -0.4426
  185POPC     N21145   3.209   2.349   8.383 -0.6483  0.4182 -0.7468
  185POPC   C1221146   3.145   2.451   8.299  0.1612  0.4363  0.4379
  185POPC  H12A21147   3.039   2.435   8.290  0.1457 -0.6824  2.1159
  185POPC  H12B21148   3.191   2.439   8.202  1.5964  0.5421  1.0763
  185POPC   C1321149   3.359   2.368   8.393  0.8094 -0.5891  0.1653
  185POPC  H13A21150   3.413   2.352   8.301 -0.6169 -0.9236 -0.6381
  185POPC  H13B21151   3.387   2.468   8.423  2.3386 -1.0336  0.3420
  185POPC  H13C21152   3.389   2.297   8.469  2.3371 -0.2281 -0.0664
  185POPC   C1421153   3.153   2.359   8.529  0.1878 -0.5709 -0.1186
  185POPC  H14A21154   3.210   2.301   8.600 -2.3321 -3.8138 -0.4976
  185POPC  H14B21155   3.160   2.466   8.544 -1.3832 -0.5194  0.3680
  185POPC  H14C21156   3.048   2.335   8.533  0.4028 -1.5039  0.0472
  185POPC   C1521157   3.169   2.213   8.341  0.5652  0.4959 -0.2339
  185POPC  H15A21158   3.066   2.181   8.342  0.9366 -0.7879 -0.7610
  185POPC  H15B21159   3.217   2.133   8.395 -3.0940 -1.6797  0.1443
  185POPC  H15C21160   3.196   2.186   8.240  1.7697 -1.4264  0.5560
  185POPC   C1121161   3.171   2.595   8.337 -0.5671  0.9203  0.1716
  185POPC  H11A21162   3.137   2.662   8.255 -2.9265 -0.0381  0.2965
  185POPC  H11B21163   3.280   2.612   8.348 -0.3618 -0.1574 -0.1094
  185POPC     P21164   2.954   2.670   8.463  0.3407  0.1231 -0.3000
  185POPC   O1321165   2.947   2.810   8.427 -0.2390  0.3674 -0.0283
  185POPC   O1421166   2.913   2.627   8.601 -0.2124  0.0264 -0.3153
  185POPC   O1221167   3.110   2.644   8.460 -0.4518  0.1958  0.1492
  185POPC   O1121168   2.887   2.587   8.351 -0.1944 -0.0753  0.5750
  185POPC    C121169   2.756   2.531   8.352 -0.1379 -0.3578  0.0514
  185POPC    HA21170   2.692   2.567   8.268  1.2145 -0.2628 -0.9653
  185POPC    HB21171   2.703   2.554   8.447 -0.0548  2.2489 -0.4552
  185POPC    C221172   2.774   2.378   8.328  0.2164 -0.6699  0.0324
  185POPC    HS21173   2.831   2.343   8.417 -0.1206  0.3616  0.6634
  185POPC   O2121174   2.843   2.367   8.206  0.2686  0.6974 -0.0236
  185POPC   C2121175   2.869   2.246   8.165 -0.5275 -0.1994 -0.0947
  185POPC   O2221176   2.892   2.145   8.233 -0.4188 -0.1125  0.3302
  185POPC   C2221177   2.880   2.256   8.007 -0.6715  0.8115 -0.0609
  185POPC   H2R21178   2.970   2.316   7.980  1.8478 -2.3225  0.7379
  185POPC   H2S21179   2.788   2.309   7.975  0.7090  1.6482 -3.1115
  185POPC    C321180   2.637   2.297   8.343  0.0378  0.3173 -0.4389
  185POPC    HX21181   2.620   2.304   8.453 -0.9238 -0.9610 -0.4851
  185POPC    HY21182   2.650   2.188   8.326 -0.0729 -0.2940  2.8077
  185POPC   O3121183   2.526   2.355   8.270 -0.4296  0.3301 -0.5910
  185POPC   C3121184   2.508   2.309   8.145 -0.2581  0.4028  0.1831
  185POPC   O3221185   2.570   2.217   8.093  0.3211  0.8859 -0.8197
  185POPC   C3221186   2.400   2.395   8.077 -0.4397 -0.3233 -0.1253
  185POPC   H2X21187   2.341   2.458   8.147  0.9082 -0.0046  0.7542
  185POPC   H2Y21188   2.339   2.319   8.024 -0.5598  0.2500 -0.8109
  185POPC   C2321189   2.903   2.114   7.953  0.0850  0.5799 -0.0166
  185POPC   H3R21190   2.814   2.054   7.980 -1.2509  1.9880 -1.1079
  185POPC   H3S21191   2.995   2.066   7.992 -0.8447 -1.8718 -0.6777
  185POPC   C2421192   2.925   2.106   7.800  0.6577  0.2072  0.8355
  185POPC   H4R21193   2.946   2.001   7.774  1.8322  0.1877  1.7817
  185POPC   H4S21194   3.010   2.171   7.771  0.8554 -0.3796  0.0832
  185POPC   C2521195   2.803   2.143   7.710  0.1246 -0.3505  0.1093
  185POPC   H5R21196   2.791   2.252   7.728  1.6031 -0.2456  0.6495
  185POPC   H5S21197   2.721   2.085   7.758 -0.2471 -0.9899 -1.2726
  185POPC   C2621198   2.804   2.104   7.564  0.2184  0.2295  0.6001
  185POPC   H6R21199   2.708   2.136   7.518  1.4000  0.6078 -1.6931
  185POPC   H6S21200   2.812   1.995   7.546 -1.0086  0.4886 -1.9875
  185POPC   C2721201   2.910   2.174   7.480 -0.2576  0.1391 -0.5759
  185POPC   H7R21202   3.004   2.123   7.510 -0.1952  0.8430  0.4582
  185POPC   H7S21203   2.923   2.280   7.510  0.3038 -0.4342  1.3245
  185POPC   C2821204   2.889   2.149   7.327  0.5548  0.6241  0.4260
  185POPC   H8R21205   2.793   2.189   7.288  0.7329  0.1547 -0.5044
  185POPC   H8S21206   2.893   2.038   7.315  1.1689  0.5549  1.1527
  185POPC   C2921207   3.000   2.199   7.231  0.7874 -0.1274 -0.9350
  185POPC   H9121208   3.099   2.175   7.272  1.5963  1.6905 -1.7433
  185POPC  C21021209   2.995   2.294   7.143  0.1495 -0.3439  1.2521
  185POPC  H10121210   3.088   2.328   7.095  0.4509  0.5872  2.4373
  185POPC  C21121211   2.873   2.363   7.094  0.0530 -0.4002 -0.1221
  185POPC  H11R21212   2.909   2.441   7.023 -1.1612 -0.8322 -1.2483
  185POPC  H11S21213   2.820   2.415   7.177  1.4727  1.5946 -0.3747
  185POPC  C21221214   2.779   2.272   7.007 -0.3040  0.2581 -0.0819
  185POPC  H12R21215   2.684   2.329   7.002  0.4199  1.4593 -0.4051
  185POPC  H12S21216   2.753   2.179   7.062 -2.4538  0.5476 -0.5107
  185POPC  C21321217   2.829   2.236   6.865 -0.6025 -0.9790 -0.1475
  185POPC  H13R21218   2.899   2.151   6.885  2.0837  1.1050 -0.1481
  185POPC  H13S21219   2.892   2.310   6.812 -0.4287 -0.4913  0.7216
  185POPC  C21421220   2.712   2.178   6.782 -0.0831  0.1123 -0.1575
  185POPC  H14R21221   2.623   2.246   6.783 -0.4538 -0.3417  1.8835
  185POPC  H14S21222   2.681   2.082   6.829 -1.2971 -0.1292 -1.3703
  185POPC  C21521223   2.747   2.154   6.634 -0.4539 -0.8182 -0.0926
  185POPC  H15R21224   2.784   2.250   6.591 -0.5838 -1.6617 -2.2449
  185POPC  H15S21225   2.649   2.127   6.589 -0.0581 -1.2149 -0.7469
  185POPC  C21621226   2.839   2.037   6.616  0.0940  0.8473  0.6085
  185POPC  H16R21227   2.820   1.958   6.692 -0.3914 -1.6186 -1.8856
  185POPC  H16S21228   2.942   2.074   6.634  0.0389  3.4343 -3.2641
  185POPC  C21721229   2.831   1.988   6.472  0.1217 -0.5697  0.4278
  185POPC  H17R21230   2.838   2.081   6.411 -0.1337 -0.3591  0.7136
  185POPC  H17S21231   2.729   1.947   6.462  0.2250 -1.2964  2.0395
  185POPC  C21821232   2.923   1.870   6.440 -0.1428  0.4443  0.0543
  185POPC  H18R21233   3.029   1.900   6.434 -0.0131  0.1856  0.8769
  185POPC  H18S21234   2.887   1.816   6.350 -1.0989  2.0449 -0.5609
  185POPC  H18T21235   2.922   1.808   6.532 -0.6986  1.0190  0.4458
  185POPC   C3321236   2.456   2.488   7.963 -0.2231  0.1391  0.3359
  185POPC   H3X21237   2.537   2.552   8.006  0.3412 -0.2290 -0.1587
  185POPC   H3Y21238   2.376   2.558   7.931 -1.7483 -0.2104  3.0797
  185POPC   C3421239   2.487   2.409   7.832  0.9255 -0.1084 -0.9181
  185POPC   H4X21240   2.394   2.369   7.788  0.9051 -0.2297 -0.7678
  185POPC   H4Y21241   2.562   2.328   7.845  0.3720 -0.5822 -0.6524
  185POPC   C3521242   2.552   2.504   7.723 -0.2693 -0.0799 -0.1158
  185POPC   H5X21243   2.620   2.438   7.666 -1.1824 -2.1936  1.1105
  185POPC   H5Y21244   2.605   2.593   7.764  2.7560 -1.1214 -1.4660
  185POPC   C3621245   2.458   2.559   7.619  0.4756  0.8066  0.4747
  185POPC   H6X21246   2.511   2.621   7.543 -0.5964 -1.1523 -2.0096
  185POPC   H6Y21247   2.384   2.620   7.676 -2.7261 -1.6662 -0.6860
  185POPC   C3721248   2.383   2.453   7.530  0.0275 -0.1225  0.4746
  185POPC   H7X21249   2.320   2.516   7.464  3.8906  0.9751 -2.5214
  185POPC   H7Y21250   2.323   2.388   7.598 -0.8868  0.7485  0.5286
  185POPC   C3821251   2.486   2.373   7.444  0.5659 -0.1577  0.1016
  185POPC   H8X21252   2.500   2.272   7.489 -0.6269 -0.0596  0.7482
  185POPC   H8Y21253   2.578   2.433   7.431 -0.3082  0.9509 -1.2884
  185POPC   C3921254   2.443   2.348   7.299 -0.1639  0.3334 -0.3616
  185POPC   H9X21255   2.342   2.303   7.303 -0.3350  0.7729  0.3360
  185POPC   H9Y21256   2.523   2.278   7.265  1.8954  0.8130  3.0368
  185POPC  C31021257   2.442   2.472   7.212 -0.4105  0.7304  0.0142
  185POPC  H10X21258   2.542   2.519   7.210 -0.0538 -0.0633 -1.0440
  185POPC  H10Y21259   2.370   2.550   7.247  0.6494  1.0681  1.5330
  185POPC  C31121260   2.388   2.427   7.070  0.0813 -0.3628 -0.4283
  185POPC  H11X21261   2.296   2.368   7.091 -0.2311 -0.3423 -1.6677
  185POPC  H11Y21262   2.470   2.361   7.035  0.0074 -1.3175  1.0953
  185POPC  C31221263   2.378   2.549   6.975  0.0221  0.2154  0.2649
  185POPC  H12X21264   2.484   2.568   6.948 -0.0572  1.8163  0.9052
  185POPC  H12Y21265   2.350   2.640   7.033  0.6389 -0.2756  1.3519
  185POPC  C31321266   2.293   2.536   6.847 -0.1563 -0.9823  0.1536
  185POPC  H13X21267   2.192   2.500   6.875 -1.7151  1.3905 -2.0568
  185POPC  H13Y21268   2.333   2.450   6.789 -1.0763 -1.4309  0.1600
  185POPC  C31421269   2.291   2.660   6.758 -0.6397 -0.3126  0.5435
  185POPC  H14X21270   2.395   2.698   6.756 -0.1666 -1.5682 -1.9105
  185POPC  H14Y21271   2.220   2.733   6.803 -0.2251  0.0921  0.5424
  185POPC  C31521272   2.252   2.630   6.615 -0.1779 -0.1953  0.9186
  185POPC  H15X21273   2.142   2.622   6.609 -0.2182 -1.4842  2.5610
  185POPC  H15Y21274   2.296   2.533   6.583  0.6358  1.1114 -2.3362
  185POPC  C31621275   2.296   2.726   6.501 -0.0656 -0.4621 -1.0782
  185POPC  H16X21276   2.266   2.697   6.398 -0.7944 -1.5203 -0.5833
  185POPC  H16Y21277   2.405   2.745   6.508 -0.2617  0.2607  0.1918
  185POPC  H16Z21278   2.267   2.830   6.527  1.1902 -0.5744  1.0372
  186POPC     N21279   4.726   0.934   0.075  0.4026  0.1317  0.1216
  186POPC   C1221280   4.638   1.025  -0.014 -0.2886 -0.7779 -0.6618
  186POPC  H12A21281   4.665   1.124   0.018  2.5109 -1.0299 -1.9459
  186POPC  H12B21282   4.534   1.002   0.005 -1.0425  1.8518 -1.2684
  186POPC   C1321283   4.706   0.790   0.046  0.1190  0.2415 -0.1416
  186POPC  H13A21284   4.717   0.777  -0.060  1.3421  0.0907 -0.0050
  186POPC  H13B21285   4.785   0.730   0.088 -0.2175  0.3122  0.6090
  186POPC  H13C21286   4.607   0.760   0.079  0.1240  1.1721  0.7783
  186POPC   C1421287   4.866   0.974   0.044 -0.4729 -0.1842  0.2784
  186POPC  H14A21288   4.880   1.079   0.068  1.0284 -0.1200 -0.7539
  186POPC  H14B21289   4.930   0.912   0.104 -2.4231 -2.7410 -0.1326
  186POPC  H14C21290   4.904   0.953  -0.055 -0.1187  0.4992  0.2612
  186POPC   C1521291   4.694   0.955   0.219  0.5629  0.1946 -0.2176
  186POPC  H15A21292   4.660   1.057   0.231 -1.5972 -0.6193  1.1801
  186POPC  H15B21293   4.780   0.945   0.283 -0.1706  2.1677  1.1939
  186POPC  H15C21294   4.608   0.896   0.247 -0.2787  0.9336 -1.1550
  186POPC   C1121295   4.649   1.014  -0.166 -0.2825 -0.1310  0.0513
  186POPC  H11A21296   4.745   1.060  -0.198 -0.0075 -1.7126 -1.5254
  186POPC  H11B21297   4.571   1.075  -0.217  0.0598  0.8740  0.6971
  186POPC     P21298   4.507   0.826  -0.288 -0.1279  0.0759 -0.1699
  186POPC   O1321299   4.396   0.851  -0.193 -0.0744  0.4572 -0.0847
  186POPC   O1421300   4.536   0.688  -0.327  0.4174  0.3102 -0.7848
  186POPC   O1221301   4.636   0.878  -0.217 -0.2539 -0.0220 -0.9463
  186POPC   O1121302   4.487   0.917  -0.413  0.4233  0.7358 -0.2956
  186POPC    C121303   4.357   0.907  -0.475 -0.2403 -0.1843  0.0355
  186POPC    HA21304   4.293   0.998  -0.461 -1.0698 -0.6853 -0.3909
  186POPC    HB21305   4.297   0.821  -0.440  0.5628 -0.4060  0.9072
  186POPC    C221306   4.368   0.894  -0.637 -0.6503 -0.2284 -0.6416
  186POPC    HS21307   4.269   0.909  -0.685 -0.1458 -1.2511 -2.0552
  186POPC   O2121308   4.416   0.762  -0.673 -0.0384  0.2742  0.1481
  186POPC   C2121309   4.339   0.659  -0.668  0.3759 -0.4486 -0.0032
  186POPC   O2221310   4.217   0.662  -0.641 -0.2440 -0.0416  0.3290
  186POPC   C2221311   4.413   0.540  -0.720  0.3091 -0.1324 -0.2091
  186POPC   H2R21312   4.336   0.479  -0.772  0.3313 -0.7694  0.5008
  186POPC   H2S21313   4.463   0.484  -0.639  0.7447 -1.4625 -1.3551
  186POPC    C321314   4.452   1.014  -0.688  0.0060 -0.5286 -0.1927
  186POPC    HX21315   4.541   1.001  -0.622  0.1792 -1.1742 -0.5445
  186POPC    HY21316   4.402   1.109  -0.659 -1.7540 -1.3736 -0.3692
  186POPC   O3121317   4.471   1.009  -0.821  0.7193 -0.1296  0.0451
  186POPC   C3121318   4.580   1.072  -0.872 -0.1944 -0.1212  0.2188
  186POPC   O3221319   4.663   1.126  -0.795 -0.3817 -0.7507  0.6035
  186POPC   C3221320   4.578   1.080  -1.021 -0.2079  0.5714 -0.9796
  186POPC   H2X21321   4.609   0.981  -1.062 -1.7311  0.3525 -1.6938
  186POPC   H2Y21322   4.651   1.159  -1.047  0.4534 -0.0850 -1.1548
  186POPC   C2321323   4.526   0.575  -0.825 -0.5598 -0.7621 -0.3387
  186POPC   H3R21324   4.603   0.497  -0.813  0.2916 -0.1433 -1.5265
  186POPC   H3S21325   4.570   0.675  -0.801 -0.1190 -0.8240 -0.8715
  186POPC   C2421326   4.477   0.583  -0.975  0.7069 -0.2650 -0.3585
  186POPC   H4R21327   4.435   0.485  -1.007  0.6408  0.3807 -2.3354
  186POPC   H4S21328   4.567   0.593  -1.039 -0.3226  1.1555 -1.6490
  186POPC   C2521329   4.386   0.700  -1.005 -0.0834  0.6306  0.0627
  186POPC   H5R21330   4.411   0.804  -0.975 -2.1770  0.8081  1.3870
  186POPC   H5S21331   4.297   0.688  -0.941 -0.1659  2.9481  0.4543
  186POPC   C2621332   4.338   0.702  -1.152 -0.3042 -0.1245  0.0609
  186POPC   H6R21333   4.313   0.597  -1.182  0.4492  0.3504 -2.4359
  186POPC   H6S21334   4.425   0.726  -1.216  0.1694  0.7265  1.0094
  186POPC   C2721335   4.213   0.790  -1.185 -0.5440 -0.2850  0.2641
  186POPC   H7R21336   4.250   0.887  -1.147 -2.2549  0.4799  0.0740
  186POPC   H7S21337   4.124   0.760  -1.125 -1.0042  0.3532 -0.0907
  186POPC   C2821338   4.175   0.804  -1.335  0.2707 -0.5099 -0.3268
  186POPC   H8R21339   4.083   0.864  -1.348 -0.3468 -1.1203  1.0104
  186POPC   H8S21340   4.139   0.703  -1.367 -5.0350  1.3018 -1.0532
  186POPC   C2921341   4.283   0.847  -1.424  0.0330 -0.2097  0.5552
  186POPC   H9121342   4.375   0.787  -1.418 -0.0662 -0.6009 -1.3602
  186POPC  C21021343   4.269   0.953  -1.508  0.6392  0.5851  0.2381
  186POPC  H10121344   4.357   0.987  -1.565  1.1101  1.4251  1.4276
  186POPC  C21121345   4.155   1.041  -1.533  0.2003 -0.6670 -1.1702
  186POPC  H11R21346   4.170   1.150  -1.516 -0.1511 -0.6436 -0.9896
  186POPC  H11S21347   4.072   1.024  -1.461  1.0771  1.0053  0.3008
  186POPC  C21221348   4.096   1.036  -1.670  0.4798 -0.0349  0.0792
  186POPC  H12R21349   4.089   0.934  -1.713  1.6053 -0.1519  0.1518
  186POPC  H12S21350   4.157   1.093  -1.744 -1.7580  0.9877 -1.0779
  186POPC  C21321351   3.954   1.089  -1.681 -0.0990  0.0718  0.5235
  186POPC  H13R21352   3.938   1.188  -1.632 -0.1323  1.6448 -2.4386
  186POPC  H13S21353   3.874   1.019  -1.650 -0.0044 -0.3695 -0.2142
  186POPC  C21421354   3.922   1.114  -1.836 -0.4152 -0.0279 -0.3957
  186POPC  H14R21355   3.980   1.046  -1.902  0.6750  0.2158  0.2893
  186POPC  H14S21356   3.959   1.211  -1.875  0.3514 -0.7319 -1.5042
  186POPC  C21521357   3.778   1.083  -1.878 -0.7303 -0.0950  0.3937
  186POPC  H15R21358   3.716   1.151  -1.814  0.8726  0.9508  0.8929
  186POPC  H15S21359   3.748   0.977  -1.864 -2.5334  0.3497  0.1448
  186POPC  C21621360   3.751   1.122  -2.029  0.5092  0.1909 -0.3424
  186POPC  H16R21361   3.816   1.074  -2.105  0.7755  1.9883 -1.3052
  186POPC  H16S21362   3.769   1.229  -2.053  0.5118  0.2215 -0.2057
  186POPC  C21721363   3.597   1.104  -2.058 -1.1439 -0.4397 -0.0189
  186POPC  H17R21364   3.532   1.134  -1.973 -0.3322 -0.0803  0.4913
  186POPC  H17S21365   3.586   0.993  -2.058  0.9787 -0.7409  2.1874
  186POPC  C21821366   3.541   1.167  -2.185 -0.3240  0.2174 -0.2707
  186POPC  H18R21367   3.435   1.132  -2.195 -0.6790  1.0450  0.4626
  186POPC  H18S21368   3.589   1.121  -2.273 -0.3624 -1.9114  0.7438
  186POPC  H18T21369   3.544   1.277  -2.170  1.3784  0.0231  1.1111
  186POPC   C3321370   4.441   1.128  -1.077  0.1848  0.2682  0.1313
  186POPC   H3X21371   4.424   1.234  -1.047 -2.0223  0.5424 -1.8024
  186POPC   H3Y21372   4.360   1.065  -1.033 -1.0326  1.0247 -0.9513
  186POPC   C3421373   4.432   1.131  -1.231  0.1366  0.4504 -0.6541
  186POPC   H4X21374   4.325   1.118  -1.256  0.1111 -1.2706  0.1763
  186POPC   H4Y21375   4.472   1.034  -1.268 -0.9950 -0.1786 -0.2747
  186POPC   C3521376   4.501   1.254  -1.303 -0.5659  0.1686 -0.7541
  186POPC   H5X21377   4.525   1.217  -1.405 -0.1603 -1.7841  0.0036
  186POPC   H5Y21378   4.593   1.273  -1.244 -0.8158  1.8479 -0.8526
  186POPC   C3621379   4.412   1.376  -1.302 -0.6261  0.2809 -0.0886
  186POPC   H6X21380   4.481   1.455  -1.340  0.3892  0.6941  2.3702
  186POPC   H6Y21381   4.392   1.410  -1.197 -1.3533  0.2994 -0.2254
  186POPC   C3721382   4.275   1.378  -1.378  0.3882  0.4401  0.2569
  186POPC   H7X21383   4.201   1.307  -1.334  0.4299  1.6555  2.4588
  186POPC   H7Y21384   4.303   1.338  -1.478  4.9245 -0.2055  1.5226
  186POPC   C3821385   4.210   1.516  -1.388 -0.5567 -0.0538 -0.1185
  186POPC   H8X21386   4.201   1.573  -1.293 -1.8590  1.7459 -1.2485
  186POPC   H8Y21387   4.111   1.521  -1.438 -0.8829  0.7905  0.5744
  186POPC   C3921388   4.295   1.600  -1.477 -0.3848  0.4381  0.4139
  186POPC   H9X21389   4.347   1.529  -1.545 -0.1344 -0.3844  1.4198
  186POPC   H9Y21390   4.367   1.649  -1.407 -0.7159 -0.2388  1.2523
  186POPC  C31021391   4.219   1.695  -1.565  0.4037 -0.8361 -0.6733
  186POPC  H10X21392   4.154   1.759  -1.503  0.0482 -0.1018 -1.7796
  186POPC  H10Y21393   4.139   1.640  -1.619 -0.7773 -2.0843  2.1836
  186POPC  C31121394   4.305   1.785  -1.654 -0.2610  0.6749  0.2079
  186POPC  H11X21395   4.410   1.800  -1.623  0.5307  0.0138 -2.0215
  186POPC  H11Y21396   4.265   1.887  -1.668  0.8184  1.1068  0.2465
  186POPC  C31221397   4.321   1.718  -1.792  0.4429 -0.8804  0.0129
  186POPC  H12X21398   4.226   1.668  -1.821  0.8021 -0.6182 -1.6777
  186POPC  H12Y21399   4.389   1.633  -1.772  1.8846 -0.2198 -1.7679
  186POPC  C31321400   4.370   1.795  -1.917 -0.8602 -0.3507  0.2896
  186POPC  H13X21401   4.361   1.727  -2.004  0.0598 -1.0765  0.7522
  186POPC  H13Y21402   4.478   1.815  -1.900 -1.3334  0.0846  3.2537
  186POPC  C31421403   4.315   1.934  -1.939 -0.8859  0.2128  0.7586
  186POPC  H14X21404   4.369   1.971  -2.029 -1.1815  3.1653  1.7015
  186POPC  H14Y21405   4.358   1.994  -1.857  0.4287  0.7602 -0.2938
  186POPC  C31521406   4.168   1.947  -1.974 -0.6017  0.8072  0.0189
  186POPC  H15X21407   4.112   1.913  -1.884  0.6435  1.1602  0.9541
  186POPC  H15Y21408   4.153   1.882  -2.063  1.1915  1.0769 -0.5251
  186POPC  C31621409   4.120   2.093  -1.997 -0.2023 -0.0250 -0.2038
  186POPC  H16X21410   4.011   2.090  -1.976 -0.3019 -1.1617 -0.7672
  186POPC  H16Y21411   4.127   2.120  -2.105  1.2617  0.5905  0.0275
  186POPC  H16Z21412   4.172   2.158  -1.924  0.7042  0.1306 -0.9733
  187POPC     N21413   0.263   4.028   4.069  0.4013  0.1240  0.1514
  187POPC   C1221414   0.265   3.937   4.190  0.0778 -0.0959 -0.8479
  187POPC  H12A21415   0.336   3.984   4.256  1.8533 -0.8657 -2.1370
  187POPC  H12B21416   0.316   3.847   4.160  1.9195  0.8509 -0.7048
  187POPC   C1321417   0.171   3.957   3.966 -1.2792 -0.0231 -0.3236
  187POPC  H13A21418   0.210   3.864   3.928  0.5625  1.2294 -1.7049
  187POPC  H13B21419   0.072   3.946   4.007 -0.6836  0.3651  1.3149
  187POPC  H13C21420   0.162   4.018   3.877 -0.8656 -0.7842 -0.9075
  187POPC   C1421421   0.208   4.161   4.113 -0.1763  0.7437  0.7291
  187POPC  H14A21422   0.283   4.220   4.165 -0.8905  0.6571  1.8955
  187POPC  H14B21423   0.165   4.221   4.035  0.2031  0.1200  0.0342
  187POPC  H14C21424   0.124   4.150   4.180 -0.3406  3.4908  1.0920
  187POPC   C1521425   0.394   4.051   3.995  0.1889 -0.2648  0.3582
  187POPC  H15A21426   0.408   3.968   3.927 -2.2612  0.4784 -1.1657
  187POPC  H15B21427   0.474   4.071   4.065 -0.1982 -0.3421  0.8291
  187POPC  H15C21428   0.391   4.136   3.929  2.8326 -0.1329  0.2942
  187POPC   C1121429   0.141   3.900   4.278  0.0989  0.2743 -0.1735
  187POPC  H11A21430   0.095   3.996   4.311 -1.8357 -1.0148  1.1217
  187POPC  H11B21431   0.168   3.835   4.364  0.4366 -2.0592 -1.9342
  187POPC     P21432   0.035   3.681   4.183 -0.1920  0.2186 -0.4264
  187POPC   O1321433   0.182   3.646   4.179  0.4317 -0.0083 -0.6796
  187POPC   O1421434  -0.039   3.648   4.061  0.1980  0.0023  0.2651
  187POPC   O1221435   0.038   3.838   4.208  0.3528 -0.1628 -0.8832
  187POPC   O1121436  -0.045   3.610   4.308 -0.6142 -0.1175 -0.4234
  187POPC    C121437  -0.124   3.696   4.393  0.0473  0.1078 -0.0301
  187POPC    HA21438  -0.196   3.761   4.339  1.0510  2.7427  1.5893
  187POPC    HB21439  -0.063   3.766   4.453 -1.4705  0.1298  1.5794
  187POPC    C221440  -0.185   3.608   4.513  0.5068 -0.2797  1.0057
  187POPC    HS21441  -0.259   3.532   4.481 -0.4234  1.1022 -0.2655
  187POPC   O2121442  -0.248   3.702   4.608  0.0777 -0.1987 -0.5293
  187POPC   C2121443  -0.375   3.708   4.613  0.2595 -0.1931 -0.0107
  187POPC   O2221444  -0.452   3.634   4.557 -0.0470 -0.6812 -0.5764
  187POPC   C2221445  -0.408   3.812   4.717 -0.1243  0.6641  0.0104
  187POPC   H2R21446  -0.357   3.909   4.702 -0.5082  0.6402 -1.6735
  187POPC   H2S21447  -0.363   3.767   4.808  0.7730 -1.2067 -1.2831
  187POPC    C321448  -0.066   3.527   4.580  0.4656 -0.0884  0.0162
  187POPC    HX21449   0.029   3.582   4.564  1.1081 -1.3565 -0.6388
  187POPC    HY21450  -0.054   3.444   4.507 -0.6129 -0.5233  0.3180
  187POPC   O3121451  -0.102   3.484   4.714 -0.4675 -0.2779 -0.6210
  187POPC   C3121452  -0.061   3.555   4.811 -0.9348 -0.1216 -0.5278
  187POPC   O3221453   0.012   3.655   4.806 -0.1261  0.4600  0.0898
  187POPC   C3221454  -0.121   3.502   4.943 -0.1531 -0.5070  0.0797
  187POPC   H2X21455  -0.161   3.400   4.925 -2.0218  0.1229  0.4298
  187POPC   H2Y21456  -0.201   3.569   4.979  0.2712  0.6589 -1.0869
  187POPC   C2321457  -0.562   3.842   4.738 -0.3593  0.2339  0.4089
  187POPC   H3R21458  -0.614   3.748   4.765 -1.0676  0.3335 -0.5877
  187POPC   H3S21459  -0.610   3.879   4.645 -0.6813  0.8367  0.8022
  187POPC   C2421460  -0.579   3.946   4.852  0.2549 -0.1179  0.0004
  187POPC   H4R21461  -0.546   4.041   4.805 -1.2742 -0.6673 -2.3809
  187POPC   H4S21462  -0.503   3.921   4.928  2.9431 -0.9714 -2.7512
  187POPC   C2521463  -0.726   3.957   4.888  0.0486 -0.0416  1.0685
  187POPC   H5R21464  -0.795   3.949   4.801 -0.0303  0.8482  1.0401
  187POPC   H5S21465  -0.748   4.051   4.942  2.1008  0.3769  1.2455
  187POPC   C2621466  -0.769   3.842   4.985 -0.3910 -1.2638  0.1788
  187POPC   H6R21467  -0.735   3.745   4.940  2.3181  0.7196 -2.4814
  187POPC   H6S21468  -0.880   3.846   4.989 -0.3904  1.2035 -0.6996
  187POPC   C2721469  -0.708   3.854   5.123 -0.2855  0.5874  0.3572
  187POPC   H7R21470  -0.740   3.954   5.160  1.5642  2.3501 -2.3368
  187POPC   H7S21471  -0.597   3.865   5.119 -0.2264  1.3944  2.6536
  187POPC   C2821472  -0.732   3.738   5.215 -0.1245 -0.2330 -0.0756
  187POPC   H8R21473  -0.685   3.763   5.312 -0.9755 -2.0438  0.8640
  187POPC   H8S21474  -0.682   3.651   5.167  0.1370 -0.6799  0.9770
  187POPC   C2921475  -0.873   3.696   5.232 -0.1744 -0.0620 -0.4546
  187POPC   H9121476  -0.912   3.667   5.133 -1.5473  1.8744 -0.5405
  187POPC  C21021477  -0.936   3.670   5.352 -0.0251 -0.2389  0.0470
  187POPC  H10121478  -1.037   3.628   5.342  0.2849 -1.2924  1.1248
  187POPC  C21121479  -0.895   3.707   5.492  0.1459  0.3157  0.6069
  187POPC  H11R21480  -0.792   3.749   5.499 -0.7653  2.3636  3.0811
  187POPC  H11S21481  -0.895   3.612   5.550  2.4294 -0.9556 -1.3055
  187POPC  C21221482  -0.999   3.804   5.550 -0.7341 -0.6126 -0.7057
  187POPC  H12R21483  -1.094   3.748   5.561 -0.6175 -0.5500  0.9035
  187POPC  H12S21484  -1.009   3.900   5.495 -3.9044 -1.1374 -1.2036
  187POPC  C21321485  -0.958   3.850   5.696  0.3980  0.5316 -0.5333
  187POPC  H13R21486  -0.959   3.774   5.777  2.4755  0.7178 -0.2982
  187POPC  H13S21487  -1.037   3.923   5.726  1.3647  0.6159  2.0749
  187POPC  C21421488  -0.833   3.932   5.706 -0.0440  0.4221  0.5743
  187POPC  H14R21489  -0.836   4.009   5.627 -0.2956 -1.0509 -0.9068
  187POPC  H14S21490  -0.740   3.872   5.693  0.8740  2.3377 -2.3942
  187POPC  C21521491  -0.825   4.004   5.840  0.1020 -0.1513 -0.0077
  187POPC  H15R21492  -0.823   3.943   5.932 -0.9870  1.5103  1.1661
  187POPC  H15S21493  -0.919   4.062   5.842  0.9968  1.3629  2.7736
  187POPC  C21621494  -0.702   4.098   5.840  0.1422  0.2369 -0.2533
  187POPC  H16R21495  -0.716   4.191   5.899 -1.2404 -0.8063  1.1076
  187POPC  H16S21496  -0.685   4.133   5.735  2.0797 -2.9616 -1.1646
  187POPC  C21721497  -0.576   4.027   5.904 -0.2378  0.4704  0.3353
  187POPC  H17R21498  -0.542   3.940   5.843 -1.6035 -1.8301  2.6588
  187POPC  H17S21499  -0.600   3.975   5.999  1.5510 -1.2485 -0.0815
  187POPC  C21821500  -0.464   4.128   5.931 -0.1453  0.1409  0.1173
  187POPC  H18R21501  -0.511   4.214   5.984 -0.5332  1.0222 -1.6095
  187POPC  H18S21502  -0.422   4.160   5.834  1.8709 -1.1323  0.5030
  187POPC  H18T21503  -0.379   4.085   5.990  0.1028  1.3420  0.6800
  187POPC   C3321504  -0.027   3.494   5.059 -0.1311  0.3994  0.1267
  187POPC   H3X21505   0.063   3.433   5.037  1.9012  3.0358  0.6440
  187POPC   H3Y21506  -0.090   3.439   5.132  0.8118  1.0601  1.4903
  187POPC   C3421507  -0.001   3.625   5.131 -0.2538 -0.8684 -0.1873
  187POPC   H4X21508  -0.094   3.683   5.147 -0.9266 -2.1396  0.6521
  187POPC   H4Y21509   0.072   3.691   5.078 -1.9412 -0.5313 -2.2143
  187POPC   C3521510   0.046   3.602   5.274 -0.4566 -0.2744  0.2734
  187POPC   H5X21511   0.156   3.589   5.267 -0.5290 -0.3425 -1.2813
  187POPC   H5Y21512   0.013   3.504   5.314  1.1636 -0.4767  1.1843
  187POPC   C3621513   0.031   3.722   5.371  0.0116  0.2154 -0.4399
  187POPC   H6X21514  -0.077   3.746   5.377 -0.3951 -1.3179 -1.2656
  187POPC   H6Y21515   0.089   3.804   5.323  0.4152  0.8489  1.0843
  187POPC   C3721516   0.088   3.704   5.510  0.8523 -0.2033  0.2997
  187POPC   H7X21517   0.044   3.616   5.561 -0.4981  0.3040  0.0275
  187POPC   H7Y21518   0.066   3.798   5.566  0.5376 -0.0599 -0.0651
  187POPC   C3821519   0.239   3.700   5.508  0.2319  0.3926 -0.7158
  187POPC   H8X21520   0.278   3.794   5.463 -0.4870  0.2471 -1.6662
  187POPC   H8Y21521   0.269   3.618   5.439  0.0870 -1.8941  1.7871
  187POPC   C3921522   0.313   3.674   5.636 -0.2326  0.2793 -0.3169
  187POPC   H9X21523   0.416   3.635   5.622 -0.7575 -1.3086  0.0913
  187POPC   H9Y21524   0.252   3.604   5.697 -0.8446  0.1565 -1.0601
  187POPC  C31021525   0.327   3.805   5.721  0.3414  0.1224 -0.4603
  187POPC  H10X21526   0.226   3.836   5.757  0.3451  0.5515 -0.8117
  187POPC  H10Y21527   0.365   3.889   5.659  1.2777  0.8438  1.0322
  187POPC  C31121528   0.412   3.788   5.847 -0.1760 -0.0514 -1.2286
  187POPC  H11X21529   0.427   3.880   5.908  1.9074 -2.5935  2.4714
  187POPC  H11Y21530   0.516   3.769   5.811  0.6292 -1.2083  1.4623
  187POPC  C31221531   0.357   3.696   5.949 -0.1382 -0.3219 -0.3463
  187POPC  H12X21532   0.332   3.606   5.889  1.6652 -0.5499 -0.8188
  187POPC  H12Y21533   0.270   3.739   6.003  0.1169  0.3866 -0.4869
  187POPC  C31321534   0.461   3.647   6.044 -0.0264 -0.0061  0.2593
  187POPC  H13X21535   0.541   3.587   5.995  0.6275  1.1430 -0.1115
  187POPC  H13Y21536   0.416   3.582   6.122  0.0120 -1.5302 -0.9411
  187POPC  C31421537   0.550   3.755   6.121  0.4155  0.7131 -0.1474
  187POPC  H14X21538   0.619   3.800   6.047 -0.0356 -0.4307 -1.2988
  187POPC  H14Y21539   0.621   3.703   6.189  0.4837 -0.1840 -0.8878
  187POPC  C31521540   0.461   3.846   6.202 -0.3526  0.1600 -0.0836
  187POPC  H15X21541   0.435   3.795   6.297 -0.5859  1.3657  0.5210
  187POPC  H15Y21542   0.367   3.867   6.148 -1.6759 -3.0168  0.7585
  187POPC  C31621543   0.534   3.971   6.251 -0.3083 -0.6328  0.0464
  187POPC  H16X21544   0.578   3.956   6.352  0.1733 -0.1825 -0.0880
  187POPC  H16Y21545   0.463   4.056   6.259 -2.3535 -1.8289 -3.3431
  187POPC  H16Z21546   0.610   4.001   6.176 -0.5385  0.1495  0.1165
  188POPC     N21547   5.139   0.819   4.082  0.1032  0.2775 -0.2691
  188POPC   C1221548   5.193   0.886   4.204  0.1783  0.0771  0.2588
  188POPC  H12A21549   5.269   0.953   4.166 -2.4570  2.7301 -0.6504
  188POPC  H12B21550   5.225   0.806   4.270  1.0644  0.8704  0.8149
  188POPC   C1321551   5.082   0.926   3.988 -0.1583 -0.7195  0.7118
  188POPC  H13A21552   4.999   0.978   4.034 -0.7054  1.1617 -2.1298
  188POPC  H13B21553   5.159   0.994   3.957 -0.3915  0.1148  1.9293
  188POPC  H13C21554   5.046   0.885   3.894 -0.5168 -0.6321  0.8098
  188POPC   C1421555   5.255   0.752   4.011  0.6848  0.2594  0.1346
  188POPC  H14A21556   5.319   0.836   3.991 -0.8498  1.3156 -0.5445
  188POPC  H14B21557   5.304   0.684   4.079 -0.8521  0.2282  1.2687
  188POPC  H14C21558   5.222   0.707   3.918  1.2543 -1.3326  0.6573
  188POPC   C1521559   5.035   0.713   4.117  0.3083  0.1342 -0.5447
  188POPC  H15A21560   5.082   0.636   4.175  1.3672  0.7019 -0.6195
  188POPC  H15B21561   4.992   0.672   4.027 -0.8122 -1.7304  0.7692
  188POPC  H15C21562   4.943   0.744   4.163 -0.0931  0.9991 -1.8469
  188POPC   C1121563   5.102   0.981   4.284  0.5692 -0.0330 -0.0990
  188POPC  H11A21564   5.059   1.052   4.210  1.1975 -1.5452 -2.0084
  188POPC  H11B21565   5.152   1.043   4.361 -2.3709 -0.1379  2.1078
  188POPC     P21566   4.844   0.949   4.327 -0.0844  0.1014 -0.3580
  188POPC   O1321567   4.783   0.853   4.235 -0.5705  0.1594  0.4137
  188POPC   O1421568   4.815   1.094   4.311 -0.3863  1.1751 -0.0663
  188POPC   O1221569   4.997   0.921   4.352 -0.2064  0.4730  0.4126
  188POPC   O1121570   4.775   0.918   4.464 -0.1414 -0.3310  0.3644
  188POPC    C121571   4.842   0.945   4.589  0.3082  0.8205 -0.5675
  188POPC    HA21572   4.941   0.895   4.591 -0.8446 -1.9115 -3.3422
  188POPC    HB21573   4.799   0.885   4.672  0.8942  1.6688  0.3714
  188POPC    C221574   4.825   1.091   4.638  0.3019  0.0520  0.2686
  188POPC    HS21575   4.876   1.156   4.563  2.7093 -1.7683  0.1871
  188POPC   O2121576   4.890   1.087   4.765 -1.1499 -0.7985  0.3075
  188POPC   C2121577   4.945   1.204   4.808 -0.2664 -0.0729 -0.2054
  188POPC   O2221578   4.952   1.312   4.750 -0.4240 -0.0270  0.4315
  188POPC   C2221579   5.007   1.183   4.948  0.2315  0.1076 -0.1444
  188POPC   H2R21580   5.086   1.105   4.942 -0.0958 -0.1761 -0.9954
  188POPC   H2S21581   4.922   1.141   5.005  1.4767 -1.9925  0.2738
  188POPC    C321582   4.677   1.135   4.642  0.5028 -0.1975  0.2446
  188POPC    HX21583   4.633   1.120   4.541  3.1551  1.8214 -1.3544
  188POPC    HY21584   4.679   1.245   4.660 -2.1512  0.4330 -2.5318
  188POPC   O3121585   4.599   1.070   4.746 -0.0975 -0.0515  0.4299
  188POPC   C3121586   4.593   1.137   4.866 -0.4417  0.2869 -0.4727
  188POPC   O3221587   4.618   1.251   4.888 -0.3806 -0.5624 -0.2438
  188POPC   C3221588   4.554   1.030   4.975  0.1906 -0.5854 -0.5529
  188POPC   H2X21589   4.619   0.939   4.973  0.9762 -0.0228 -1.4202
  188POPC   H2Y21590   4.451   0.997   4.947 -0.5407 -1.6795  2.9343
  188POPC   C2321591   5.057   1.314   5.021 -0.0611  0.1144 -0.7905
  188POPC   H3R21592   5.072   1.394   4.946  1.0738 -0.2974 -1.0189
  188POPC   H3S21593   5.152   1.284   5.070 -0.3681 -1.3359 -1.0398
  188POPC   C2421594   4.956   1.335   5.137  0.5212 -0.4827  0.6598
  188POPC   H4R21595   4.945   1.244   5.199  0.0903 -1.4619 -0.8127
  188POPC   H4S21596   4.854   1.363   5.104  0.6728 -0.7406 -0.0383
  188POPC   C2521597   5.011   1.428   5.244 -0.3316 -0.5564 -0.0468
  188POPC   H5R21598   5.044   1.525   5.200 -1.4900  0.3810  1.0486
  188POPC   H5S21599   5.106   1.388   5.283 -1.0436 -0.9703  1.3057
  188POPC   C2621600   4.907   1.474   5.349  0.2779 -0.7612  0.0194
  188POPC   H6R21601   4.814   1.414   5.359 -0.5373  0.6413  1.4767
  188POPC   H6S21602   4.872   1.576   5.321  1.0856 -1.3885 -3.8832
  188POPC   C2721603   4.961   1.479   5.493  0.0897 -0.5152  0.6474
  188POPC   H7R21604   5.053   1.542   5.496 -0.5557  0.5927 -1.1019
  188POPC   H7S21605   5.009   1.381   5.514  1.5428  0.4574  2.0547
  188POPC   C2821606   4.862   1.526   5.607 -0.0358 -0.1896 -0.0471
  188POPC   H8R21607   4.916   1.529   5.704 -2.0019 -0.8176  1.1313
  188POPC   H8S21608   4.781   1.452   5.624 -0.5859  0.6856  1.3245
  188POPC   C2921609   4.800   1.665   5.587 -0.2885  0.0426 -0.0260
  188POPC   H9121610   4.778   1.684   5.481 -1.4694  2.0191  0.5207
  188POPC  C21021611   4.801   1.770   5.679 -0.1770 -0.1647  0.5723
  188POPC  H10121612   4.769   1.871   5.652  0.5541 -0.3385 -1.0491
  188POPC  C21121613   4.856   1.768   5.816 -0.2124 -0.7978  0.3466
  188POPC  H11R21614   4.935   1.690   5.817  1.5349  0.8948  0.2974
  188POPC  H11S21615   4.782   1.740   5.895 -2.5018  0.2828 -1.2797
  188POPC  C21221616   4.927   1.896   5.852  0.1951 -0.1069 -0.5554
  188POPC  H12R21617   4.852   1.974   5.877 -1.1105 -2.1110  2.2908
  188POPC  H12S21618   4.991   1.930   5.768  1.3944  2.6880  1.3310
  188POPC  C21321619   5.020   1.884   5.972 -0.1377 -0.2261 -0.1956
  188POPC  H13R21620   5.045   1.990   5.996  1.3514 -0.4271 -0.7880
  188POPC  H13S21621   5.111   1.824   5.952  1.0687  1.1705  0.8353
  188POPC  C21421622   4.956   1.822   6.098 -0.6874  0.2600 -0.0877
  188POPC  H14R21623   4.911   1.731   6.054 -0.6824  1.7493 -3.4796
  188POPC  H14S21624   4.875   1.890   6.132 -1.2122 -1.1829  1.6635
  188POPC  C21521625   5.060   1.797   6.213  0.1098 -0.4469  0.7680
  188POPC  H15R21626   5.121   1.889   6.228  1.6770 -1.2699 -0.2707
  188POPC  H15S21627   5.127   1.723   6.165  0.2160 -0.3281  0.7339
  188POPC  C21621628   5.006   1.733   6.340 -0.3510 -0.3684  0.6638
  188POPC  H16R21629   4.936   1.808   6.381 -0.5039  0.5063 -1.1098
  188POPC  H16S21630   5.102   1.716   6.395  2.3834  3.5714 -2.3154
  188POPC  C21721631   4.942   1.605   6.315 -0.0888 -0.3811  0.2405
  188POPC  H17R21632   5.010   1.524   6.283  0.8100 -0.2118  1.6351
  188POPC  H17S21633   4.866   1.627   6.237 -1.2662 -1.0110  1.1731
  188POPC  C21821634   4.872   1.559   6.446  0.2560  0.0851  0.3090
  188POPC  H18R21635   4.819   1.466   6.415 -0.7643  0.1762  1.6640
  188POPC  H18S21636   4.791   1.630   6.472 -0.9057 -1.2895  0.6052
  188POPC  H18T21637   4.940   1.546   6.533 -0.7970  0.5755  1.2219
  188POPC   C3321638   4.551   1.101   5.114 -0.1134 -0.4043  0.0392
  188POPC   H3X21639   4.469   1.176   5.125  1.3447  1.0876  1.2297
  188POPC   H3Y21640   4.636   1.172   5.122 -1.0450  0.6453  1.1702
  188POPC   C3421641   4.548   1.002   5.226 -0.5977  0.2523 -0.1036
  188POPC   H4X21642   4.640   0.946   5.201 -1.3987 -0.8852 -0.5851
  188POPC   H4Y21643   4.459   0.935   5.230 -2.4219  2.5322 -0.1323
  188POPC   C3521644   4.557   1.070   5.356  0.8425 -0.0009 -0.2419
  188POPC   H5X21645   4.460   1.122   5.370  1.3902  1.3596 -1.2731
  188POPC   H5Y21646   4.636   1.143   5.329  0.6249  0.1429 -0.4946
  188POPC   C3621647   4.597   0.969   5.465  0.0923  0.1192  0.4461
  188POPC   H6X21648   4.693   0.921   5.438 -0.5477 -0.4258 -0.9515
  188POPC   H6Y21649   4.517   0.892   5.469  0.3182 -0.1576 -0.1915
  188POPC   C3721650   4.616   1.032   5.598  0.2480 -0.5945 -0.5858
  188POPC   H7X21651   4.618   0.946   5.669  0.2866  0.1790  0.3674
  188POPC   H7Y21652   4.527   1.093   5.622  0.0208 -1.9419  2.5463
  188POPC   C3821653   4.743   1.114   5.599  0.1147  0.2300  0.4000
  188POPC   H8X21654   4.740   1.195   5.523  2.3647  0.3730  0.3981
  188POPC   H8Y21655   4.825   1.051   5.558 -0.4808  0.3776 -1.0793
  188POPC   C3921656   4.787   1.158   5.735  0.2974  0.3164  0.4094
  188POPC   H9X21657   4.884   1.213   5.732  0.3593  0.1770 -0.5522
  188POPC   H9Y21658   4.802   1.072   5.804  1.5820  1.7196  1.9502
  188POPC  C31021659   4.692   1.253   5.813  1.3958 -0.3734  0.0498
  188POPC  H10X21660   4.616   1.187   5.862  1.4854 -2.5329 -2.4608
  188POPC  H10Y21661   4.640   1.318   5.739  2.0940 -0.4768 -0.5314
  188POPC  C31121662   4.768   1.334   5.918 -0.4935  0.7479  0.4078
  188POPC  H11X21663   4.813   1.419   5.863 -1.7729  0.9791 -0.3237
  188POPC  H11Y21664   4.839   1.264   5.967  0.2745  1.4686  0.3442
  188POPC  C31221665   4.679   1.398   6.032 -0.3801  0.2311  0.5964
  188POPC  H12X21666   4.599   1.443   5.971  0.8546 -0.3118 -1.5271
  188POPC  H12Y21667   4.744   1.474   6.080  0.0780 -0.6403  1.4025
  188POPC  C31321668   4.618   1.296   6.131 -0.2800  0.6689  0.5575
  188POPC  H13X21669   4.701   1.231   6.165 -0.1570  0.6738  0.2699
  188POPC  H13Y21670   4.543   1.238   6.073 -0.1177  0.7441  0.2725
  188POPC  C31421671   4.536   1.356   6.249  0.1066 -0.3870 -0.4872
  188POPC  H14X21672   4.603   1.403   6.324  0.8457  1.3638 -2.1756
  188POPC  H14Y21673   4.482   1.270   6.295 -0.3211  1.3596  2.4612
  188POPC  C31521674   4.441   1.459   6.206  0.3319 -0.8520  0.7339
  188POPC  H15X21675   4.420   1.430   6.101  0.2563  1.1353  0.1731
  188POPC  H15Y21676   4.498   1.554   6.208 -2.7230  1.1156  3.2974
  188POPC  C31621677   4.314   1.480   6.283  0.1346 -0.4574  0.1736
  188POPC  H16X21678   4.261   1.382   6.284 -1.2309  0.2728  0.1156
  188POPC  H16Y21679   4.239   1.548   6.240 -0.2850 -0.9971  0.0368
  188POPC  H16Z21680   4.329   1.511   6.389 -0.1666 -1.0658  0.4047
  189SAPI   C1221681   3.673   1.790   0.233 -0.0553 -0.4672 -0.1841
  189SAPI    H221682   3.706   1.889   0.198  1.0491 -0.7395  0.0571
  189SAPI    O221683   3.740   1.692   0.151 -0.1272  0.1733 -1.0801
  189SAPI   HO221684   3.759   1.724   0.062 -0.6806 -0.7040 -1.5255
  189SAPI   C1321685   3.718   1.784   0.382  0.5832 -0.4725  0.4274
  189SAPI    H321686   3.660   1.869   0.423 -1.6253 -1.2735 -0.8429
  189SAPI    O321687   3.856   1.821   0.396  0.6604  0.8309  0.1232
  189SAPI   HO321688   3.903   1.738   0.390 -0.1649  0.3521  0.1001
  189SAPI   C1421689   3.677   1.655   0.440 -0.2461  0.0318  0.0004
  189SAPI    H421690   3.727   1.572   0.385 -0.1258 -0.0391  0.2144
  189SAPI    O421691   3.724   1.641   0.572 -0.5156 -0.0399 -0.0983
  189SAPI   HO421692   3.680   1.700   0.633 -0.1288 -0.4252  0.5721
  189SAPI   C1521693   3.526   1.618   0.419 -0.1917  0.1042  0.1445
  189SAPI    H521694   3.472   1.686   0.488  0.5536 -0.3314  1.1695
  189SAPI    O521695   3.488   1.487   0.467 -0.4746  0.3045 -0.4821
  189SAPI   HO521696   3.531   1.423   0.410 -1.2562  0.0649 -0.8169
  189SAPI   C1621697   3.467   1.655   0.280 -0.1063  0.4841 -0.0688
  189SAPI    H621698   3.498   1.568   0.218 -1.2273 -2.3540  3.0637
  189SAPI    O621699   3.319   1.658   0.279  0.2528  0.1594 -0.1857
  189SAPI   HO621700   3.286   1.662   0.189  0.9515  0.1700 -0.4509
  189SAPI   C1121701   3.519   1.783   0.221 -0.5404  0.3306  0.0729
  189SAPI    H121702   3.476   1.858   0.291 -1.0992 -1.5021  1.7791
  189SAPI     P21703   3.416   1.939   0.032  0.0976 -0.0950 -0.3078
  189SAPI   O1321704   3.445   2.045   0.128 -0.0550  0.3008 -0.4775
  189SAPI   O1421705   3.270   1.919  -0.006 -0.3734 -0.2801 -0.1227
  189SAPI   O1221706   3.477   1.797   0.086 -0.2003  0.2407 -0.3182
  189SAPI   O1121707   3.501   1.962  -0.099  0.2984 -0.1176  0.6574
  189SAPI    C121708   3.645   1.939  -0.096 -0.0080 -0.9935 -0.4347
  189SAPI    HA21709   3.686   1.946   0.007 -1.0216  0.2947 -0.0887
  189SAPI    HB21710   3.682   1.846  -0.144  4.9945  1.0267 -1.0395
  189SAPI    C221711   3.720   2.050  -0.175  0.3963  0.6938  0.6445
  189SAPI    HS21712   3.696   2.143  -0.119  1.1375  0.3189  1.6107
  189SAPI   O2121713   3.654   2.037  -0.301  0.0041  0.4902 -0.1320
  189SAPI   C2121714   3.582   2.140  -0.338  0.5137  0.1371  0.2186
  189SAPI   O2221715   3.583   2.248  -0.279  0.4325 -0.4860  0.7656
  189SAPI   C2221716   3.507   2.104  -0.468 -0.3414  0.5339 -0.2949
  189SAPI   H2R21717   3.487   1.994  -0.475 -2.5517  0.9382 -1.2655
  189SAPI   H2S21718   3.406   2.150  -0.471 -0.2973  0.5909 -1.5757
  189SAPI    C321719   3.875   2.020  -0.184  0.2076  0.4523  0.1593
  189SAPI    HX21720   3.881   1.914  -0.218 -2.3443 -0.0193  0.9989
  189SAPI    HY21721   3.925   2.026  -0.085  1.8579 -2.8497 -0.3370
  189SAPI   O3121722   3.937   2.114  -0.274  0.2988  0.5912 -0.1364
  189SAPI   C3121723   4.059   2.066  -0.311 -0.3535 -0.7390 -0.2587
  189SAPI   O3221724   4.108   1.967  -0.267 -0.3692  0.2816 -0.1695
  189SAPI   C3221725   4.125   2.160  -0.420  0.3025  0.0935 -0.2976
  189SAPI   H2X21726   4.198   2.098  -0.476 -0.1846 -0.0194 -0.8142
  189SAPI   H2Y21727   4.180   2.247  -0.377  1.3684 -0.8076  0.2200
  189SAPI   C2321728   3.592   2.144  -0.592 -0.2485 -0.0711 -0.3049
  189SAPI   H3R21729   3.698   2.113  -0.581 -0.4011 -1.0146 -1.2261
  189SAPI   H3S21730   3.594   2.255  -0.600 -3.4438  0.0106 -1.3491
  189SAPI   C2421731   3.532   2.093  -0.713  0.4531 -0.1582  0.2435
  189SAPI   H4R21732   3.506   1.985  -0.708 -0.4726 -0.0574 -1.6652
  189SAPI   H4S21733   3.610   2.121  -0.787  1.6218 -0.0151  1.5035
  189SAPI   C2521734   3.400   2.157  -0.749 -0.6072 -0.1433 -0.0011
  189SAPI   H5R21735   3.322   2.155  -0.671 -1.7570 -1.3600 -1.1159
  189SAPI   C2621736   3.364   2.192  -0.872 -0.5743  0.0079  0.4162
  189SAPI   H6R21737   3.273   2.253  -0.886  0.7830  1.8536 -0.7381
  189SAPI   C2721738   3.444   2.193  -0.999  0.3346 -0.4208 -0.0595
  189SAPI   H7R21739   3.543   2.145  -0.983  0.3537 -0.2191  0.4669
  189SAPI   H7S21740   3.473   2.300  -1.010 -1.0145 -0.2116 -1.9277
  189SAPI   C2821741   3.380   2.139  -1.123 -0.2402 -0.2110 -0.9778
  189SAPI   H8R21742   3.303   2.061  -1.113 -0.1080 -0.1307  1.1181
  189SAPI   C2921743   3.385   2.202  -1.244 -0.2309 -0.2076  0.0806
  189SAPI   H9R21744   3.324   2.163  -1.327 -3.1800 -0.2752  2.1366
  189SAPI  C21021745   3.466   2.323  -1.277 -0.2548  0.0528 -0.1565
  189SAPI  H10R21746   3.514   2.297  -1.374 -0.0751  2.4712 -0.7785
  189SAPI  H10S21747   3.546   2.337  -1.201 -1.8914 -1.6591  1.9997
  189SAPI  C21121748   3.376   2.445  -1.311 -0.3691  1.1272  0.6367
  189SAPI  H11R21749   3.339   2.494  -1.220 -0.4997  1.4709  0.3980
  189SAPI  C21221750   3.324   2.477  -1.430  0.1870  0.3699  0.1385
  189SAPI  H12R21751   3.255   2.563  -1.440  2.3064  2.0310 -0.8773
  189SAPI  C21321752   3.367   2.432  -1.563 -0.3726 -0.1252  0.5290
  189SAPI  H13R21753   3.287   2.374  -1.614  1.7713 -1.5111 -1.4654
  189SAPI  H13S21754   3.445   2.352  -1.559 -0.3075 -0.4089 -2.9860
  189SAPI  C21421755   3.402   2.547  -1.650  0.5806 -0.0493 -0.1646
  189SAPI  H14R21756   3.500   2.592  -1.631  0.7742 -0.3195 -0.5124
  189SAPI  C21521757   3.331   2.600  -1.752  1.1476  0.2089  0.4402
  189SAPI  H15R21758   3.360   2.681  -1.820 -1.8398  0.3343 -0.8361
  189SAPI  C21621759   3.189   2.555  -1.787  0.2906  0.0647 -0.2378
  189SAPI  H16R21760   3.167   2.453  -1.750  1.8083 -0.4936 -0.7960
  189SAPI  H16S21761   3.184   2.545  -1.898  0.4313 -0.8051 -0.1718
  189SAPI  C21721762   3.079   2.643  -1.719  0.4929  0.0706  0.0711
  189SAPI  H17R21763   3.093   2.740  -1.771 -0.3540 -0.4349 -1.1514
  189SAPI  H17S21764   3.098   2.653  -1.610  1.0799  2.5681 -0.2099
  189SAPI  C21821765   2.940   2.593  -1.746  0.9273  0.5690  1.2036
  189SAPI  H18R21766   2.934   2.486  -1.716 -0.3192 -0.0795 -1.1163
  189SAPI  H18S21767   2.919   2.588  -1.855 -0.4066  1.3102  1.3963
  189SAPI  C21921768   2.828   2.668  -1.664 -0.3376 -0.0006  0.1137
  189SAPI  H19R21769   2.838   2.778  -1.673 -1.9262  0.2848  1.3234
  189SAPI  H19S21770   2.845   2.641  -1.558  0.0352 -1.6025 -0.3179
  189SAPI  C22021771   2.678   2.620  -1.698 -0.2902 -0.1683 -1.1108
  189SAPI  H20R21772   2.608   2.681  -1.637  0.0923 -0.2320 -0.5937
  189SAPI  H20S21773   2.664   2.514  -1.669 -2.1724  0.8132  2.1801
  189SAPI  H20T21774   2.648   2.632  -1.804 -2.6341 -0.4881 -0.5350
  189SAPI   C3321775   4.024   2.208  -0.523  0.0584  0.1881 -0.1379
  189SAPI   H3X21776   3.943   2.256  -0.464  2.2569  1.0150  2.4030
  189SAPI   H3Y21777   3.995   2.117  -0.579  1.4239 -1.6704  2.0555
  189SAPI   C3421778   4.085   2.308  -0.617 -0.7245 -0.1886 -0.1167
  189SAPI   H4X21779   4.189   2.288  -0.649 -1.6130 -0.0992 -3.5636
  189SAPI   H4Y21780   4.092   2.404  -0.561 -2.8842  0.2066 -0.4058
  189SAPI   C3521781   4.012   2.326  -0.753 -0.0300  1.0508 -0.2101
  189SAPI   H5X21782   4.006   2.230  -0.810  0.9247  0.2788  0.9540
  189SAPI   H5Y21783   4.069   2.400  -0.813 -1.4671  2.3750 -0.0007
  189SAPI   C3621784   3.876   2.376  -0.727 -0.0548 -0.1311  0.2808
  189SAPI   H6X21785   3.858   2.426  -0.629  1.0672  0.6494  0.1122
  189SAPI   H6Y21786   3.800   2.296  -0.739 -0.6689  0.3555  0.9242
  189SAPI   C3721787   3.842   2.487  -0.825 -0.0334 -0.3285 -0.0358
  189SAPI   H7X21788   3.849   2.462  -0.933 -0.2868 -0.4748 -0.0194
  189SAPI   H7Y21789   3.901   2.577  -0.800 -0.6339 -0.3019  1.3898
  189SAPI   C3821790   3.685   2.534  -0.824 -0.0606  0.7879 -0.0416
  189SAPI   H8X21791   3.655   2.573  -0.725 -0.1261 -2.6852  1.4548
  189SAPI   H8Y21792   3.621   2.443  -0.831 -0.3175  0.9008  0.7717
  189SAPI   C3921793   3.663   2.630  -0.937  0.3856 -0.1134 -0.1485
  189SAPI   H9X21794   3.684   2.583  -1.036 -0.5814  2.5646 -1.7069
  189SAPI   H9Y21795   3.729   2.719  -0.928  1.6664 -0.7026 -2.6465
  189SAPI  C31021796   3.522   2.684  -0.933  0.9835 -0.1489 -0.6331
  189SAPI  H10X21797   3.491   2.686  -0.827 -0.1905 -3.7048 -0.7674
  189SAPI  H10Y21798   3.444   2.622  -0.983 -0.5764  1.2009  0.0567
  189SAPI  C31121799   3.521   2.819  -0.997 -0.7395  1.1670  0.3658
  189SAPI  H11X21800   3.605   2.877  -0.953 -0.1454 -0.8682  2.1162
  189SAPI  H11Y21801   3.433   2.874  -0.957 -1.1950 -0.2835  1.4538
  189SAPI  C31221802   3.537   2.825  -1.154  0.5602  1.0478 -0.2226
  189SAPI  H12X21803   3.456   2.763  -1.198  2.8471 -2.4724  0.1652
  189SAPI  H12Y21804   3.624   2.769  -1.193  1.6938  0.3438  3.0259
  189SAPI  C31321805   3.518   2.967  -1.213  0.0333  0.7619 -0.5032
  189SAPI  H13X21806   3.596   3.040  -1.180 -1.2053  1.1647  1.7487
  189SAPI  H13Y21807   3.423   3.011  -1.177  0.2671  0.0504  1.0740
  189SAPI  C31421808   3.531   2.969  -1.364 -0.0383 -0.8816 -0.0510
  189SAPI  H14X21809   3.631   2.930  -1.391  1.2513  2.1986 -0.1405
  189SAPI  H14Y21810   3.535   3.077  -1.391 -1.7946 -0.4189  1.3355
  189SAPI  C31521811   3.404   2.913  -1.435 -0.1401 -0.2905  0.0593
  189SAPI  H15X21812   3.312   2.957  -1.392  0.0564 -1.3573  1.6485
  189SAPI  H15Y21813   3.399   2.810  -1.394 -2.1964 -0.0256  0.5496
  189SAPI  C31621814   3.414   2.920  -1.584 -0.2516  0.4134  0.7985
  189SAPI  H16X21815   3.328   2.861  -1.623  0.8614 -1.8907  1.6370
  189SAPI  H16Y21816   3.501   2.860  -1.618  0.6503  1.2879  1.5127
  189SAPI  C31721817   3.415   3.056  -1.645 -0.0943  0.0616 -0.8151
  189SAPI  H17X21818   3.514   3.100  -1.620  0.9222 -1.8225 -1.3696
  189SAPI  H17Y21819   3.334   3.118  -1.602  1.4050  0.2906  1.8929
  189SAPI  C31821820   3.406   3.025  -1.794  0.1552 -0.2138  0.2699
  189SAPI  H18X21821   3.366   3.116  -1.843 -1.9211 -1.4937 -0.5450
  189SAPI  H18Y21822   3.327   2.950  -1.815  1.1894 -0.7340 -2.1115
  189SAPI  H18Z21823   3.503   2.994  -1.840  0.5896 -0.8238  1.5509
  190SAPI   C1221824   1.144   3.454   0.164 -0.3984 -0.4173  0.5248
  190SAPI    H221825   1.222   3.523   0.125  0.1079 -1.0954  0.3127
  190SAPI    O221826   1.054   3.432   0.053 -0.8695 -0.2903 -0.1437
  190SAPI   HO221827   1.105   3.434  -0.029 -0.6952  2.1895 -0.0426
  190SAPI   C1321828   1.221   3.327   0.198  0.2398 -0.3904  0.0185
  190SAPI    H321829   1.294   3.357   0.276 -0.5534 -0.0793  0.6516
  190SAPI    O321830   1.289   3.277   0.088  0.2026 -0.4433  0.7169
  190SAPI   HO321831   1.223   3.242   0.027 -0.0675  3.3564 -1.5443
  190SAPI   C1421832   1.125   3.230   0.268  0.0415 -0.2258  0.0727
  190SAPI    H421833   1.067   3.188   0.182  1.5659  0.0433 -1.1317
  190SAPI    O421834   1.194   3.121   0.329  0.5670 -0.0620  0.4198
  190SAPI   HO421835   1.203   3.049   0.266 -1.9268  0.1325 -0.2791
  190SAPI   C1521836   1.026   3.284   0.370  0.9062 -0.2152  0.3300
  190SAPI    H521837   1.082   3.296   0.465 -0.5407  0.8580  1.0978
  190SAPI    O521838   0.913   3.198   0.387  0.6704  0.2726 -0.3608
  190SAPI   HO521839   0.863   3.187   0.305  0.3432 -0.2030 -0.1005
  190SAPI   C1621840   0.963   3.423   0.337  0.1123  0.0318  0.1815
  190SAPI    H621841   0.888   3.419   0.255 -0.2643  1.0654  0.4571
  190SAPI    O621842   0.897   3.473   0.448 -0.4626  0.0740  0.3992
  190SAPI   HO621843   0.814   3.428   0.465 -1.9708  3.0028  1.5481
  190SAPI   C1121844   1.075   3.515   0.288 -0.0855 -0.3361 -0.9531
  190SAPI    H121845   1.156   3.516   0.364 -0.8601  0.1517 -0.1128
  190SAPI     P21846   1.096   3.779   0.305 -0.0298 -0.1802 -0.2225
  190SAPI   O1321847   1.154   3.769   0.440  0.6398  0.3354 -0.7705
  190SAPI   O1421848   0.999   3.889   0.290  0.2026  0.0339  0.8404
  190SAPI   O1221849   1.014   3.648   0.256  0.5098  0.1720 -0.5452
  190SAPI   O1121850   1.209   3.794   0.193 -0.2355 -0.0468  0.0977
  190SAPI    C121851   1.182   3.766   0.052  0.4239 -0.1275  0.6204
  190SAPI    HA21852   1.268   3.708   0.012 -1.4351 -1.0471 -2.3038
  190SAPI    HB21853   1.095   3.705   0.019  0.8152  0.9367 -2.7782
  190SAPI    C221854   1.168   3.903  -0.026 -0.6721  0.8446 -0.1757
  190SAPI    HS21855   1.080   3.954   0.019 -1.0016 -0.1077  0.2848
  190SAPI   O2121856   1.146   3.876  -0.166 -0.6723 -0.2574  0.9402
  190SAPI   C2121857   1.029   3.832  -0.206 -1.1260 -0.0292  0.0212
  190SAPI   O2221858   0.936   3.799  -0.136 -0.0221 -0.3260  0.2305
  190SAPI   C2221859   1.034   3.816  -0.358 -0.0332 -1.0556 -0.4562
  190SAPI   H2R21860   1.063   3.912  -0.407  0.8691 -1.4945 -0.7937
  190SAPI   H2S21861   1.103   3.739  -0.397 -0.1660 -0.5713 -1.6974
  190SAPI    C321862   1.295   3.997  -0.014  0.0802 -0.6740  0.1456
  190SAPI    HX21863   1.315   4.003   0.095  2.0782  0.4582 -0.2280
  190SAPI    HY21864   1.275   4.100  -0.049 -0.2283 -0.8882 -0.3289
  190SAPI   O3121865   1.412   3.940  -0.067 -0.4008  0.3647 -0.3293
  190SAPI   C3121866   1.456   3.999  -0.173 -0.2655 -0.4875 -0.2355
  190SAPI   O3221867   1.430   4.112  -0.210 -0.0944  0.8070  0.4697
  190SAPI   C3221868   1.562   3.913  -0.246  0.4568  0.2031 -0.0129
  190SAPI   H2X21869   1.558   3.807  -0.215 -1.0464  0.2324 -0.0162
  190SAPI   H2Y21870   1.662   3.957  -0.228 -0.3281  2.4185 -0.6789
  190SAPI   C2321871   0.897   3.780  -0.424  0.3133 -0.4217 -0.3878
  190SAPI   H3R21872   0.833   3.870  -0.413  0.6763 -0.1477 -0.4920
  190SAPI   H3S21873   0.848   3.692  -0.377 -0.8469 -0.0110 -0.7943
  190SAPI   C2421874   0.909   3.756  -0.578  0.3578 -0.4471 -0.2601
  190SAPI   H4R21875   0.808   3.718  -0.606  0.3057  0.5134 -1.4386
  190SAPI   H4S21876   0.980   3.671  -0.588  0.6702 -0.7155  2.9691
  190SAPI   C2521877   0.931   3.872  -0.669 -0.3118 -0.6189 -0.1529
  190SAPI   H5R21878   0.958   3.966  -0.619  0.2312 -0.7255 -0.2411
  190SAPI   C2621879   0.921   3.874  -0.804  0.1631  0.0321 -0.4770
  190SAPI   H6R21880   0.950   3.955  -0.873  1.3043 -0.3408 -0.4589
  190SAPI   C2721881   0.905   3.755  -0.889  0.0365  0.4553 -0.3233
  190SAPI   H7R21882   0.796   3.746  -0.911  0.2649 -0.8447 -0.9692
  190SAPI   H7S21883   0.932   3.660  -0.840  1.6865 -0.1118 -2.1977
  190SAPI   C2821884   0.982   3.759  -1.025 -0.0391 -0.4948 -0.4612
  190SAPI   H8R21885   1.092   3.759  -1.030  0.1516  4.6111 -3.3236
  190SAPI   C2921886   0.926   3.778  -1.144  0.0562 -0.3189 -1.0825
  190SAPI   H9R21887   0.995   3.771  -1.230 -1.1735  1.7702 -2.3150
  190SAPI  C21021888   0.785   3.800  -1.184 -0.0794  0.5027  0.2533
  190SAPI  H10R21889   0.726   3.810  -1.090 -0.0555 -0.7797  0.4165
  190SAPI  H10S21890   0.741   3.715  -1.240 -1.5612  1.0795  0.4844
  190SAPI  C21121891   0.784   3.937  -1.246 -0.5543  0.1727 -0.3723
  190SAPI  H11R21892   0.786   4.021  -1.176  1.7956  0.5835 -0.8373
  190SAPI  C21221893   0.776   3.969  -1.374  0.9440  0.6001  0.2270
  190SAPI  H12R21894   0.792   4.074  -1.402 -0.9586  1.0436  0.6902
  190SAPI  C21321895   0.763   3.874  -1.488  0.6403  0.1342 -0.2081
  190SAPI  H13R21896   0.817   3.779  -1.469  0.3549 -0.3117 -1.4846
  190SAPI  H13S21897   0.811   3.928  -1.573 -1.6870  2.4879 -0.1365
  190SAPI  C21421898   0.620   3.839  -1.526 -0.0995  0.2210  0.0057
  190SAPI  H14R21899   0.559   3.823  -1.436 -0.4775  0.7528 -0.1476
  190SAPI  C21521900   0.572   3.797  -1.649 -0.2841 -0.2748 -0.3964
  190SAPI  H15R21901   0.468   3.761  -1.657 -0.3700 -0.1236  0.0103
  190SAPI  C21621902   0.646   3.805  -1.781  0.1151  0.1639 -0.3224
  190SAPI  H16R21903   0.745   3.856  -1.769 -0.3930  0.8198  1.3218
  190SAPI  H16S21904   0.595   3.880  -1.846  1.9073  1.0647 -0.7603
  190SAPI  C21721905   0.661   3.675  -1.855  0.2092  0.3053 -0.0504
  190SAPI  H17R21906   0.557   3.655  -1.891  0.1192  0.3656  0.1741
  190SAPI  H17S21907   0.687   3.593  -1.785  1.7291 -0.7074 -1.7124
  190SAPI  C21821908   0.749   3.684  -1.973  0.0974  0.1166 -0.0455
  190SAPI  H18R21909   0.847   3.709  -1.927  1.2243 -1.7126 -1.2750
  190SAPI  H18S21910   0.715   3.767  -2.038 -1.2665  0.3862  0.9684
  190SAPI  C21921911   0.777   3.554  -2.049  0.7515  0.5645 -0.3450
  190SAPI  H19R21912   0.692   3.513  -2.107  0.7605 -2.1171  1.3412
  190SAPI  H19S21913   0.808   3.479  -1.973  0.5252  0.5000 -0.3155
  190SAPI  C22021914   0.896   3.559  -2.139  0.4413  0.2680  0.1243
  190SAPI  H20R21915   0.894   3.513  -2.240  1.2003  1.6053 -0.5284
  190SAPI  H20S21916   0.978   3.502  -2.090  0.6161  0.4026 -0.0089
  190SAPI  H20T21917   0.948   3.657  -2.144  2.2411 -0.6699 -0.2623
  190SAPI   C3321918   1.529   3.901  -0.394  0.6698 -0.8869  0.6563
  190SAPI   H3X21919   1.606   3.835  -0.440  0.9741  0.3764 -0.7266
  190SAPI   H3Y21920   1.538   4.000  -0.444  0.1089 -1.3017 -0.2930
  190SAPI   C3421921   1.387   3.829  -0.418  0.5697 -0.1516  0.4184
  190SAPI   H4X21922   1.307   3.897  -0.380  0.2398 -0.1981 -0.1903
  190SAPI   H4Y21923   1.380   3.738  -0.354 -0.5539 -0.7363 -0.5000
  190SAPI   C3521924   1.346   3.791  -0.567  0.1008 -0.3532 -0.2796
  190SAPI   H5X21925   1.431   3.817  -0.634  1.2645 -2.3635  0.3422
  190SAPI   H5Y21926   1.250   3.843  -0.587 -1.1611 -1.5874  2.1361
  190SAPI   C3621927   1.308   3.646  -0.598  0.0630  0.1349 -0.9873
  190SAPI   H6X21928   1.227   3.607  -0.532  2.2293 -1.2065  1.0225
  190SAPI   H6Y21929   1.401   3.594  -0.569  0.5728  1.9220  0.8117
  190SAPI   C3721930   1.280   3.612  -0.742  0.2817  0.6143 -0.0994
  190SAPI   H7X21931   1.354   3.673  -0.798  0.8983 -0.1016 -0.0709
  190SAPI   H7Y21932   1.184   3.653  -0.781 -0.8409 -1.0825  0.7689
  190SAPI   C3821933   1.288   3.456  -0.767  0.5409  1.1246 -0.2147
  190SAPI   H8X21934   1.203   3.404  -0.718  0.6831  0.2127 -0.9141
  190SAPI   H8Y21935   1.371   3.411  -0.708 -0.2843 -1.9376 -1.1918
  190SAPI   C3921936   1.288   3.410  -0.915  0.1521  0.1090  0.4701
  190SAPI   H9X21937   1.330   3.308  -0.927 -0.1857  0.0403 -0.1847
  190SAPI   H9Y21938   1.354   3.479  -0.972 -1.0535  0.4778 -0.5275
  190SAPI  C31021939   1.154   3.410  -0.987  0.9658 -0.2835 -0.8468
  190SAPI  H10X21940   1.096   3.503  -0.967  0.9764 -0.2369 -1.0269
  190SAPI  H10Y21941   1.083   3.334  -0.947  0.5422  0.3403 -0.3925
  190SAPI  C31121942   1.158   3.381  -1.141 -0.2041  0.0570 -0.2566
  190SAPI  H11X21943   1.193   3.275  -1.143  1.2484  0.4947  0.4217
  190SAPI  H11Y21944   1.234   3.442  -1.192 -1.0748 -1.1972 -3.2518
  190SAPI  C31221945   1.028   3.400  -1.214 -0.4506  0.7481 -0.4392
  190SAPI  H12X21946   0.988   3.503  -1.203  0.1107  0.9847 -0.6203
  190SAPI  H12Y21947   0.943   3.341  -1.174  1.9186 -2.1337  0.6770
  190SAPI  C31321948   1.033   3.385  -1.358  0.2077  0.0019  0.3573
  190SAPI  H13X21949   1.100   3.298  -1.374  0.3308  0.1665 -0.0265
  190SAPI  H13Y21950   1.079   3.479  -1.395 -1.5597 -0.0083 -2.1614
  190SAPI  C31421951   0.897   3.356  -1.425 -0.6001 -0.6726 -0.3737
  190SAPI  H14X21952   0.812   3.419  -1.391 -0.8005 -0.1464 -1.7704
  190SAPI  H14Y21953   0.875   3.248  -1.411 -1.2671 -0.3979  0.8781
  190SAPI  C31521954   0.906   3.380  -1.578 -0.3048  1.1445 -0.4957
  190SAPI  H15X21955   0.926   3.487  -1.597 -2.1120  1.6139  0.0802
  190SAPI  H15Y21956   0.806   3.360  -1.621 -0.6998  3.1275 -0.5952
  190SAPI  C31621957   1.012   3.292  -1.656  0.8337  0.2764 -0.2590
  190SAPI  H16X21958   1.001   3.185  -1.627 -1.8363  0.5431 -0.0655
  190SAPI  H16Y21959   1.115   3.329  -1.638  1.3169 -1.0022 -0.2480
  190SAPI  C31721960   1.001   3.299  -1.806 -0.1048 -0.0123  1.0509
  190SAPI  H17X21961   1.017   3.403  -1.844 -0.0184 -0.8510 -1.4028
  190SAPI  H17Y21962   0.900   3.256  -1.826  0.2790 -0.7282  0.6395
  190SAPI  C31821963   1.094   3.206  -1.875 -0.1728  0.0042 -0.2914
  190SAPI  H18X21964   1.197   3.240  -1.851  0.2661  1.1365 -3.3719
  190SAPI  H18Y21965   1.057   3.225  -1.978 -1.8885  1.2086  0.5038
  190SAPI  H18Z21966   1.078   3.102  -1.840  3.6204 -0.4853  0.3460
  191SAPI   C1221967   3.339   5.731   3.896  0.2703 -0.5003  0.1817
  191SAPI    H221968   3.449   5.731   3.881  0.1978  1.3214 -0.6502
  191SAPI    O221969   3.306   5.815   3.999 -0.8344  0.1404 -0.5057
  191SAPI   HO221970   3.377   5.879   4.009 -0.7346  0.1316 -1.1577
  191SAPI   C1321971   3.270   5.756   3.764  0.2604 -0.8018  0.2565
  191SAPI    H321972   3.281   5.675   3.688  1.3636 -0.1391 -0.3215
  191SAPI    O321973   3.327   5.875   3.708 -0.0814  0.3623 -0.0479
  191SAPI   HO321974   3.268   5.887   3.633 -0.1506 -1.3856 -0.3188
  191SAPI   C1421975   3.121   5.774   3.791  0.1285  0.3764  0.0378
  191SAPI    H421976   3.111   5.864   3.856  1.6270  0.2329  0.4966
  191SAPI    O421977   3.051   5.801   3.673 -0.7926  0.0468 -0.1492
  191SAPI   HO421978   2.998   5.880   3.685  0.3023  1.3594 -2.9418
  191SAPI   C1521979   3.066   5.655   3.874  0.1515 -1.2327 -0.7171
  191SAPI    H521980   3.041   5.577   3.799 -0.4996 -0.3291 -1.4706
  191SAPI    O521981   2.933   5.685   3.923  0.0211 -0.1978  0.8894
  191SAPI   HO521982   2.877   5.710   3.849 -0.8678 -1.1025  1.2433
  191SAPI   C1621983   3.159   5.589   3.980  0.9989  0.3500  0.0630
  191SAPI    H621984   3.143   5.643   4.076 -2.3353 -3.8360  2.2159
  191SAPI    O621985   3.117   5.451   4.005  0.1694 -0.2672  0.6356
  191SAPI   HO621986   3.120   5.407   3.920 -0.7029 -1.0757  0.9974
  191SAPI   C1121987   3.302   5.585   3.930 -0.9285 -0.7229  0.2643
  191SAPI    H121988   3.311   5.531   3.833 -0.0581  1.1655 -0.7700
  191SAPI     P21989   3.522   5.460   4.020  0.1008 -0.5146  0.2185
  191SAPI   O1321990   3.549   5.421   3.878 -0.1420  0.3192 -0.7189
  191SAPI   O1421991   3.536   5.366   4.129 -0.8143 -1.0223 -0.4434
  191SAPI   O1221992   3.376   5.534   4.033 -0.5155 -0.4543 -0.5853
  191SAPI   O1121993   3.615   5.582   4.056 -0.1919  0.3839  0.2734
  191SAPI    C121994   3.760   5.543   4.063 -0.0479  0.5312  0.1261
  191SAPI    HA21995   3.787   5.457   3.998  1.1496  0.9366  0.0807
  191SAPI    HB21996   3.816   5.632   4.027 -0.8595  0.7220 -0.7016
  191SAPI    C221997   3.806   5.511   4.208  0.3597 -0.3315  0.0540
  191SAPI    HS21998   3.754   5.420   4.244  0.6903 -1.7630 -2.7998
  191SAPI   O2121999   3.765   5.629   4.281 -0.1051  0.5350 -0.3471
  191SAPI   C2122000   3.732   5.610   4.407 -0.2809  0.0017  0.5763
  191SAPI   O2222001   3.697   5.500   4.456 -1.0741 -0.7091  0.4382
  191SAPI   C2222002   3.736   5.744   4.476  0.0402 -0.9688 -0.0284
  191SAPI   H2R22003   3.832   5.794   4.453 -0.4796  1.1446  1.9415
  191SAPI   H2S22004   3.651   5.799   4.430 -0.7132 -2.3966 -0.4250
  191SAPI    C322005   3.960   5.498   4.215 -0.4449  0.3062 -0.6076
  191SAPI    HX22006   4.003   5.593   4.178  2.9690 -0.5788  0.6902
  191SAPI    HY22007   3.987   5.410   4.153  1.9046 -0.3257  1.1882
  191SAPI   O3122008   3.992   5.467   4.349 -0.3140 -0.4490  0.2290
  191SAPI   C3122009   4.123   5.464   4.370 -0.0873 -0.5223 -0.7164
  191SAPI   O3222010   4.209   5.499   4.294 -0.1723  0.0580  0.9714
  191SAPI   C3222011   4.143   5.403   4.511  0.4533 -0.1721  0.2823
  191SAPI   H2X22012   4.245   5.360   4.515 -0.6786 -3.2352 -0.7743
  191SAPI   H2Y22013   4.063   5.328   4.528 -1.0848  0.9126 -1.6780
  191SAPI   C2322014   3.731   5.734   4.631 -0.2932  1.0818  0.1228
  191SAPI   H3R22015   3.802   5.651   4.651 -1.1742  0.2332 -0.1728
  191SAPI   H3S22016   3.632   5.695   4.663  0.2098 -2.9344 -2.3742
  191SAPI   C2422017   3.762   5.866   4.702  1.0499 -0.4082 -0.2187
  191SAPI   H4R22018   3.855   5.893   4.647 -0.2761 -1.6798 -3.3741
  191SAPI   H4S22019   3.777   5.839   4.809 -1.9050 -0.4077  0.2772
  191SAPI   C2522020   3.670   5.983   4.693  1.0096  0.1116  0.0881
  191SAPI   H5R22021   3.670   6.035   4.596 -0.4706  1.2346  0.6549
  191SAPI   C2622022   3.603   6.042   4.789 -0.4517 -0.0577  0.6557
  191SAPI   H6R22023   3.542   6.130   4.765  2.2660  1.8793  0.4291
  191SAPI   C2722024   3.579   5.983   4.925  0.3213  0.2706  0.6301
  191SAPI   H7R22025   3.568   5.874   4.904  0.4161  0.4696 -0.5011
  191SAPI   H7S22026   3.478   6.014   4.959 -1.3905 -0.7596 -3.0522
  191SAPI   C2822027   3.682   5.993   5.038  0.3895 -0.1976  0.9535
  191SAPI   H8R22028   3.782   6.026   5.004 -0.9031  1.5037 -1.5545
  191SAPI   C2922029   3.647   5.993   5.170 -0.1610 -0.4714  0.1341
  191SAPI   H9R22030   3.726   6.008   5.245 -0.7352  0.4989  0.5652
  191SAPI  C21022031   3.510   5.946   5.212 -0.0851 -0.4292  0.3061
  191SAPI  H10R22032   3.481   5.868   5.139  0.9482 -1.8325  1.3376
  191SAPI  H10S22033   3.428   6.018   5.190 -1.1821 -2.4735 -3.1213
  191SAPI  C21122034   3.498   5.906   5.354  0.2651 -0.1116  0.3333
  191SAPI  H11R22035   3.574   5.953   5.419  0.6865  1.0124 -0.9294
  191SAPI  C21222036   3.415   5.820   5.403 -0.1163  0.1291 -0.5997
  191SAPI  H12R22037   3.440   5.787   5.505  0.1437  0.7057 -0.4711
  191SAPI  C21322038   3.309   5.736   5.328  0.3489  0.8498  0.7361
  191SAPI  H13R22039   3.345   5.704   5.228 -3.1438 -1.3629  0.0096
  191SAPI  H13S22040   3.223   5.805   5.311 -1.4888 -1.3713  0.5472
  191SAPI  C21422041   3.262   5.611   5.404  0.0286  0.0164  0.3488
  191SAPI  H14R22042   3.288   5.518   5.352  3.2409  0.1440  1.4820
  191SAPI  C21522043   3.184   5.609   5.519 -0.0505  0.3566  0.0886
  191SAPI  H15R22044   3.149   5.512   5.557  0.6708  0.8501  2.1431
  191SAPI  C21622045   3.134   5.725   5.595  0.2406  0.3742  0.7160
  191SAPI  H16R22046   3.027   5.714   5.626 -0.0673  2.7855  0.7220
  191SAPI  H16S22047   3.130   5.822   5.541 -2.1725 -1.5071 -2.8957
  191SAPI  C21722048   3.213   5.745   5.723  0.7668 -0.0979  0.1350
  191SAPI  H17R22049   3.170   5.825   5.786  1.5965  1.0970 -0.7544
  191SAPI  H17S22050   3.315   5.772   5.686  0.5098 -0.7868 -1.1447
  191SAPI  C21822051   3.200   5.621   5.811 -0.0307  0.0222 -0.4801
  191SAPI  H18R22052   3.263   5.538   5.773  1.9762  2.3370 -2.5834
  191SAPI  H18S22053   3.094   5.592   5.821  0.0744 -0.4890 -0.8020
  191SAPI  C21922054   3.246   5.642   5.964 -0.0827 -0.4458  0.2641
  191SAPI  H19R22055   3.273   5.542   6.005 -2.6102 -1.1952  0.2708
  191SAPI  H19S22056   3.159   5.679   6.022  0.0165  1.0123 -0.4806
  191SAPI  C22022057   3.364   5.746   5.978  0.2201  0.1138  0.5116
  191SAPI  H20R22058   3.399   5.745   6.083  0.0029  1.0460  0.6042
  191SAPI  H20S22059   3.323   5.847   5.957 -1.0387 -0.4162  0.3436
  191SAPI  H20T22060   3.452   5.728   5.912  0.6456 -2.9495  1.7258
  191SAPI   C3322061   4.124   5.519   4.611  0.2783  0.0653 -0.6936
  191SAPI   H3X22062   4.018   5.552   4.610  0.0350 -0.7067 -1.2805
  191SAPI   H3Y22063   4.193   5.604   4.590  0.5385 -0.5496 -2.5351
  191SAPI   C3422064   4.169   5.472   4.749  0.9899 -0.0871 -0.7258
  191SAPI   H4X22065   4.278   5.450   4.749  1.3788  1.6048 -2.2314
  191SAPI   H4Y22066   4.115   5.378   4.774 -0.1013  0.2808 -1.6120
  191SAPI   C3522067   4.156   5.585   4.852  0.3482  0.0724  0.2354
  191SAPI   H5X22068   4.048   5.608   4.856  0.6162  1.1821  2.5578
  191SAPI   H5Y22069   4.195   5.678   4.804  1.9482  0.0996  1.4914
  191SAPI   C3622070   4.217   5.558   4.989 -0.8034  0.3202  0.0954
  191SAPI   H6X22071   4.187   5.637   5.061 -1.2332 -0.5920  0.9393
  191SAPI   H6Y22072   4.328   5.562   4.987 -0.7011 -1.6392 -1.3174
  191SAPI   C3722073   4.145   5.438   5.052 -0.2421  0.2977 -0.6404
  191SAPI   H7X22074   4.184   5.352   4.993 -0.9385 -2.4380  2.5914
  191SAPI   H7Y22075   4.035   5.443   5.041 -0.5072 -1.3805  0.7191
  191SAPI   C3822076   4.187   5.416   5.198 -0.0415  0.3865  0.1406
  191SAPI   H8X22077   4.166   5.512   5.250 -0.4710  0.8036 -0.7794
  191SAPI   H8Y22078   4.296   5.402   5.209 -0.4075 -1.6460  1.6534
  191SAPI   C3922079   4.117   5.301   5.269  0.0046 -0.8530  0.3459
  191SAPI   H9X22080   4.130   5.203   5.218 -1.2163 -0.1859 -1.3555
  191SAPI   H9Y22081   4.007   5.311   5.256  0.2577  0.8158 -0.8396
  191SAPI  C31022082   4.153   5.302   5.417  0.6018 -0.3329 -0.3023
  191SAPI  H10X22083   4.120   5.402   5.452 -1.2490 -1.4688  1.3684
  191SAPI  H10Y22084   4.262   5.291   5.436  0.3586 -0.7878  0.9223
  191SAPI  C31122085   4.090   5.191   5.498  0.1286  0.7614 -0.5278
  191SAPI  H11X22086   4.137   5.094   5.469  0.9606  0.9670  0.0998
  191SAPI  H11Y22087   3.983   5.172   5.476 -0.1808  0.1951  1.3240
  191SAPI  C31222088   4.094   5.214   5.654  1.2624 -0.5606 -0.8351
  191SAPI  H12X22089   4.073   5.321   5.669  0.7089 -1.0777  3.0526
  191SAPI  H12Y22090   4.198   5.203   5.690 -0.0610 -2.7453  2.8834
  191SAPI  C31322091   4.005   5.118   5.734 -0.1363  0.1581 -0.3592
  191SAPI  H13X22092   4.030   5.014   5.705 -0.2833 -0.0043  0.0895
  191SAPI  H13Y22093   3.900   5.146   5.714  0.0437  1.6599  0.6208
  191SAPI  C31422094   4.042   5.128   5.881 -0.1225  0.3725  0.5523
  191SAPI  H14X22095   4.037   5.235   5.910 -1.1377  0.0594  1.6180
  191SAPI  H14Y22096   4.147   5.090   5.885  0.2338  1.3448  0.6098
  191SAPI  C31522097   3.957   5.039   5.972 -0.3548 -0.2109  0.2396
  191SAPI  H15X22098   3.970   4.934   5.938 -1.5103 -0.1816 -0.3243
  191SAPI  H15Y22099   3.853   5.067   5.944  0.1640  1.3214 -0.2533
  191SAPI  C31622100   3.992   5.047   6.120  0.0402  0.2550  0.1447
  191SAPI  H16X22101   4.076   4.980   6.147 -0.4489  0.1686  1.5214
  191SAPI  H16Y22102   3.910   5.016   6.188  0.6015 -0.5892  0.4500
  191SAPI  C31722103   4.035   5.185   6.166 -1.0845  0.1997  0.3705
  191SAPI  H17X22104   3.946   5.252   6.158 -0.5940  0.9888  1.3098
  191SAPI  H17Y22105   4.118   5.216   6.099 -1.4037 -0.8990 -0.5665
  191SAPI  C31822106   4.074   5.191   6.318 -0.3142  0.8513  0.4415
  191SAPI  H18X22107   3.981   5.150   6.363 -1.0175  0.1894 -1.5091
  191SAPI  H18Y22108   4.102   5.293   6.351  4.1327  0.2404 -0.8619
  191SAPI  H18Z22109   4.167   5.134   6.338 -0.3118  1.1906  1.4664
  192SAPI   C1222110   0.244   6.801   4.312 -0.2074  0.0556 -0.0623
  192SAPI    H222111   0.238   6.718   4.385  0.3653  0.9624  1.0268
  192SAPI    O222112   0.121   6.825   4.252  0.2343  0.1152  0.0742
  192SAPI   HO222113   0.099   6.757   4.188 -1.3464 -0.2778  0.9756
  192SAPI   C1322114   0.297   6.928   4.370 -0.1603 -0.3078  0.2262
  192SAPI    H322115   0.396   6.905   4.416 -0.5191  0.4966  1.4565
  192SAPI    O322116   0.207   6.983   4.470 -0.0739 -0.1961  0.0990
  192SAPI   HO322117   0.246   7.060   4.513 -1.2354 -0.2501  1.3159
  192SAPI   C1422118   0.329   7.033   4.264 -0.1389 -0.5675 -0.2459
  192SAPI    H422119   0.234   7.079   4.229  0.4784  1.8563  1.0576
  192SAPI    O422120   0.412   7.138   4.314  0.6474 -0.2101  0.0858
  192SAPI   HO422121   0.370   7.223   4.325  0.8648 -0.0561 -0.2581
  192SAPI   C1522122   0.392   6.974   4.134 -0.3702 -0.2843 -0.3763
  192SAPI    H522123   0.500   6.977   4.160 -0.3190 -2.1265 -0.2648
  192SAPI    O522124   0.401   7.070   4.029 -0.5196  0.7222 -0.1556
  192SAPI   HO522125   0.459   7.138   4.063 -0.1265  1.5848 -2.3786
  192SAPI   C1622126   0.357   6.833   4.088 -0.0915 -0.0391  0.5199
  192SAPI    H622127   0.267   6.851   4.026  0.1191  1.2657  0.5480
  192SAPI    O622128   0.466   6.793   4.009  0.9130 -0.1400 -0.7933
  192SAPI   HO622129   0.440   6.808   3.918 -0.4672  2.4646 -0.0472
  192SAPI   C1122130   0.342   6.748   4.205  0.6472  0.7620  0.2127
  192SAPI    H122131   0.439   6.739   4.257 -0.3479 -0.3830  1.9835
  192SAPI     P22132   0.378   6.482   4.172 -0.0014  0.2696 -0.0668
  192SAPI   O1322133   0.524   6.495   4.149 -0.0793  0.1080  0.1034
  192SAPI   O1422134   0.309   6.372   4.093 -0.7062  0.1730  0.5195
  192SAPI   O1222135   0.289   6.617   4.151 -0.1204 -0.1389  0.2204
  192SAPI   O1122136   0.346   6.472   4.329 -0.1209  0.1983 -0.2281
  192SAPI    C122137   0.229   6.417   4.390  0.1784  0.0980  0.0924
  192SAPI    HA22138   0.183   6.492   4.457  3.2334  0.0632  2.4551
  192SAPI    HB22139   0.164   6.375   4.310  1.9509 -1.6265 -0.5084
  192SAPI    C222140   0.278   6.299   4.484  0.7527 -0.3015  0.4768
  192SAPI    HS22141   0.188   6.250   4.527 -0.2163  1.4909  0.5814
  192SAPI   O2122142   0.365   6.353   4.587 -0.3189  0.0248 -0.4116
  192SAPI   C2122143   0.306   6.417   4.694  0.0064  0.7514  0.0949
  192SAPI   O2222144   0.186   6.439   4.700 -0.7786 -0.3835  0.1299
  192SAPI   C2222145   0.410   6.463   4.786 -0.0901  0.6373  0.1102
  192SAPI   H2R22146   0.468   6.380   4.833 -0.3087  1.4765  1.9307
  192SAPI   H2S22147   0.481   6.530   4.732  0.4050  0.6019  0.7073
  192SAPI    C322148   0.358   6.190   4.401  0.0372 -0.0371 -0.4900
  192SAPI    HX22149   0.453   6.234   4.366 -0.6686  1.5148 -0.5093
  192SAPI    HY22150   0.290   6.168   4.316 -1.4268  0.2547  0.5746
  192SAPI   O3122151   0.380   6.070   4.491  0.5535  0.7518 -0.0142
  192SAPI   C3122152   0.312   5.963   4.457  1.0031  0.5305 -0.2050
  192SAPI   O3222153   0.231   5.956   4.366 -0.3395 -0.0915 -0.0868
  192SAPI   C3222154   0.354   5.844   4.539 -1.1781  0.3257  0.7472
  192SAPI   H2X22155   0.457   5.862   4.575  0.5009  0.3692 -3.4844
  192SAPI   H2Y22156   0.355   5.760   4.466  0.0271  1.5490 -0.7003
  192SAPI   C2322157   0.369   6.541   4.911  0.2954  0.2192  0.6160
  192SAPI   H3R22158   0.321   6.629   4.864  2.4427  0.4722 -1.2715
  192SAPI   H3S22159   0.457   6.578   4.967  2.2902 -2.1597 -0.7327
  192SAPI   C2422160   0.287   6.446   5.008  0.3123 -0.3273 -0.0947
  192SAPI   H4R22161   0.330   6.452   5.110 -0.2056  2.6787  0.0336
  192SAPI   H4S22162   0.289   6.338   4.984 -2.2574 -1.0168  2.2307
  192SAPI   C2522163   0.141   6.484   5.010  0.2704 -0.7903 -0.0866
  192SAPI   H5R22164   0.088   6.491   4.914 -1.9857 -0.5374  1.1248
  192SAPI   C2622165   0.064   6.530   5.114  0.6504 -0.5712 -0.3271
  192SAPI   H6R22166  -0.042   6.554   5.099  0.3959 -0.6240  1.1618
  192SAPI   C2722167   0.117   6.539   5.254 -0.1942  0.0509 -0.8321
  192SAPI   H7R22168   0.198   6.467   5.279  1.0783  2.5606  3.3280
  192SAPI   H7S22169   0.039   6.510   5.328  0.1862 -0.1327 -0.4990
  192SAPI   C2822170   0.163   6.679   5.288  0.9539 -0.2174  0.4019
  192SAPI   H8R22171   0.098   6.755   5.244  0.4716 -0.8317  0.0297
  192SAPI   C2922172   0.265   6.713   5.369 -0.3719  0.4156 -0.8661
  192SAPI   H9R22173   0.294   6.816   5.395  0.6085  0.0018 -0.2739
  192SAPI  C21022174   0.346   6.614   5.457  0.5505 -0.2137  0.4700
  192SAPI  H10R22175   0.436   6.671   5.489  0.3560 -0.5794  1.7134
  192SAPI  H10S22176   0.395   6.540   5.389 -0.2572 -0.0596 -0.3070
  192SAPI  C21122177   0.274   6.561   5.580  0.0477 -0.0441 -0.6374
  192SAPI  H11R22178   0.175   6.517   5.563 -0.0913 -0.8114  1.7089
  192SAPI  C21222179   0.322   6.557   5.710 -0.4845  0.0648 -0.6994
  192SAPI  H12R22180   0.255   6.504   5.780 -0.2569  0.2927 -0.3067
  192SAPI  C21322181   0.452   6.617   5.768 -0.9152  0.1457 -0.0277
  192SAPI  H13R22182   0.533   6.624   5.692  0.1323  1.8170  1.1749
  192SAPI  H13S22183   0.501   6.540   5.831  3.1958 -0.0030 -3.0354
  192SAPI  C21422184   0.435   6.752   5.827  0.2988  0.1365 -0.4768
  192SAPI  H14R22185   0.340   6.804   5.808  0.3382  0.8554  1.1449
  192SAPI  C21522186   0.516   6.808   5.913 -0.3778 -0.6909  0.2938
  192SAPI  H15R22187   0.484   6.907   5.949 -0.6805 -0.2350 -1.1374
  192SAPI  C21622188   0.656   6.756   5.955  0.4955  0.1573  0.3306
  192SAPI  H16R22189   0.664   6.659   5.901 -1.0192 -1.0721  2.1952
  192SAPI  H16S22190   0.662   6.729   6.062  0.6916 -1.5826 -0.0742
  192SAPI  C21722191   0.774   6.843   5.919 -0.0603  0.0623  0.4009
  192SAPI  H17R22192   0.862   6.789   5.960 -1.6188 -0.5071  3.2400
  192SAPI  H17S22193   0.760   6.936   5.977 -1.1964 -1.7215  3.2394
  192SAPI  C21822194   0.796   6.878   5.770 -0.0801 -0.3518 -0.6612
  192SAPI  H18R22195   0.730   6.965   5.748  0.9952  0.3172 -1.3754
  192SAPI  H18S22196   0.767   6.797   5.699 -1.2749  1.1307 -1.9689
  192SAPI  C21922197   0.940   6.924   5.745 -0.0187  0.7639  0.6536
  192SAPI  H19R22198   0.965   6.912   5.637  0.7869 -2.6981  1.1023
  192SAPI  H19S22199   1.001   6.854   5.806 -1.8714 -1.0637  0.5242
  192SAPI  C22022200   0.955   7.069   5.784 -0.8741 -0.0272 -0.5163
  192SAPI  H20R22201   0.927   7.132   5.697 -2.3652  1.5013  0.9780
  192SAPI  H20S22202   1.058   7.105   5.807 -0.9263  0.3644 -0.8751
  192SAPI  H20T22203   0.886   7.098   5.866 -2.5373  1.3049 -2.2748
  192SAPI   C3322204   0.261   5.806   4.655 -0.2297 -0.2521 -0.0970
  192SAPI   H3X22205   0.278   5.702   4.688 -1.3659  0.1673  1.9673
  192SAPI   H3Y22206   0.158   5.825   4.619  0.4477 -0.6198 -2.3690
  192SAPI   C3422207   0.301   5.890   4.769  0.7275 -0.2472 -0.2547
  192SAPI   H4X22208   0.312   5.996   4.738  0.6652  0.6279  2.4304
  192SAPI   H4Y22209   0.406   5.867   4.799  0.2641  0.0456  1.7164
  192SAPI   C3522210   0.201   5.889   4.893  0.1683  0.2477 -0.0062
  192SAPI   H5X22211   0.191   5.791   4.944 -0.0895  1.1427  1.7536
  192SAPI   H5Y22212   0.102   5.917   4.850  0.1322  0.7797  0.3996
  192SAPI   C3622213   0.239   5.988   4.994 -0.0089  0.0246  0.1630
  192SAPI   H6X22214   0.251   6.091   4.954 -3.3021  1.3661  2.1964
  192SAPI   H6Y22215   0.338   5.959   5.035  0.6518 -0.6228 -1.8029
  192SAPI   C3722216   0.132   6.010   5.104 -0.2232 -0.0108 -0.3026
  192SAPI   H7X22217   0.093   5.918   5.153  0.6843  0.2831  1.0227
  192SAPI   H7Y22218   0.032   6.044   5.069 -0.5543  0.0098  0.6345
  192SAPI   C3822219   0.176   6.087   5.225  0.0369 -0.4089  1.0419
  192SAPI   H8X22220   0.222   6.182   5.189 -0.1010 -1.2726 -1.6683
  192SAPI   H8Y22221   0.252   6.024   5.277 -0.3272 -1.6082  0.1818
  192SAPI   C3922222   0.067   6.116   5.330  0.9559 -0.0112  0.2878
  192SAPI   H9X22223   0.039   6.026   5.389  0.1085  0.2038  0.2174
  192SAPI   H9Y22224  -0.027   6.130   5.273 -0.8177 -2.7519  2.3064
  192SAPI  C31022225   0.101   6.210   5.451  0.0577  0.7560  0.0444
  192SAPI  H10X22226   0.077   6.318   5.436  1.0564  0.7222 -2.1575
  192SAPI  H10Y22227   0.210   6.209   5.474  0.2706 -0.4418 -0.9716
  192SAPI  C31122228   0.026   6.167   5.575  0.1030  0.4501 -0.3825
  192SAPI  H11X22229   0.052   6.061   5.594  0.8230  0.4042 -1.4854
  192SAPI  H11Y22230  -0.084   6.165   5.561 -0.1404 -0.7129  1.4894
  192SAPI  C31222231   0.066   6.261   5.690 -0.2307  0.6000 -0.1621
  192SAPI  H12X22232   0.031   6.365   5.673  0.8987  0.9215 -0.6774
  192SAPI  H12Y22233   0.177   6.262   5.703 -0.1942 -0.7472 -0.3074
  192SAPI  C31322234   0.017   6.202   5.816  0.1923 -0.3787 -0.3421
  192SAPI  H13X22235  -0.010   6.094   5.813 -0.0075 -0.3396  0.0178
  192SAPI  H13Y22236  -0.075   6.261   5.837  1.0569  1.6202 -1.8079
  192SAPI  C31422237   0.118   6.206   5.931 -0.5485 -0.5337 -0.6063
  192SAPI  H14X22238   0.160   6.305   5.958  0.7551 -1.2199  0.0334
  192SAPI  H14Y22239   0.208   6.153   5.893  1.2775  0.7498  1.6624
  192SAPI  C31522240   0.068   6.136   6.056  0.4352  0.4286 -0.6931
  192SAPI  H15X22241   0.077   6.030   6.023 -1.6909 -0.5153  1.5045
  192SAPI  H15Y22242  -0.042   6.150   6.068  0.5408  2.0949 -1.4363
  192SAPI  C31622243   0.151   6.150   6.189  0.1835  0.2686 -0.3361
  192SAPI  H16X22244   0.164   6.255   6.224  1.7489 -0.1223  0.3235
  192SAPI  H16Y22245   0.251   6.109   6.163  0.7537  0.3140  1.6652
  192SAPI  C31722246   0.085   6.055   6.288 -0.0522 -0.2095 -1.0940
  192SAPI  H17X22247   0.083   5.959   6.232  0.5142 -1.0212  0.2065
  192SAPI  H17Y22248  -0.018   6.091   6.307 -0.0501 -0.4094 -0.6868
  192SAPI  C31822249   0.149   6.035   6.425 -0.2551 -0.1029 -0.0693
  192SAPI  H18X22250   0.136   5.928   6.452 -1.9551 -0.0364 -0.5511
  192SAPI  H18Y22251   0.088   6.077   6.507  0.6272 -0.7691  0.9585
  192SAPI  H18Z22252   0.255   6.070   6.433  0.0494 -0.4580 -1.9661
  193SOD    SOD22253   1.293   1.775   0.513 -0.3088 -0.0679 -1.2305
  194SOD    SOD22254   5.756   6.919   0.550  0.2184  0.1789 -0.1471
  195SOD    SOD22255   4.772   5.723   8.350 -0.1941 -0.3130 -0.0373
  196SOD    SOD22256   0.595   1.461   3.314  0.4815 -0.5709 -0.1302
  197SOD    SOD22257   6.922   6.938   4.396  0.0027 -0.3264 -0.1065
  198SOD    SOD22258   2.786   1.930   1.922 -0.1945  0.6709  0.1270
  199SOD    SOD22259   6.487   0.925   3.327  0.3375  0.1441  0.3437
  200SOD    SOD22260   5.673   6.850   2.552  0.3150  0.1379  0.0198
  201SOD    SOD22261   4.922   6.672   2.002  0.4092 -0.1822  0.2032
  202SOD    SOD22262   1.513   1.429   4.136 -0.1359  0.4348  0.4095
  203SOD    SOD22263   2.905   1.273   2.046 -0.4335 -0.2760  0.3177
  204SOD    SOD22264   3.890   5.090   4.232  0.3173  0.4470 -0.4072
  205SOD    SOD22265   4.660   1.916   2.073 -0.5885 -0.1655 -0.7515
  206SOD    SOD22266   5.338   6.018   1.157 -0.1893  0.1314  0.3954
  207SOD    SOD22267   2.539   3.085   0.700  0.2421 -0.0961 -0.0223
  208SOD    SOD22268   3.497   2.837   3.830  0.0940  0.3495  0.0939
  209SOD    SOD22269   3.938   6.272   3.854  0.0639  0.0327  0.2178
  210SOD    SOD22270   3.477   4.244   4.025  0.1503 -0.5323 -0.1540
  211SOD    SOD22271   0.887   2.835   3.406  0.2120 -0.0186 -0.4461
  212SOD    SOD22272   1.486   6.848   1.791  0.2446 -0.2514 -0.3458
  213SOD    SOD22273   2.316   0.850   3.661  0.1010  0.0256  0.0173
  214SOD    SOD22274   5.460   1.442   3.011  0.2127 -0.6326 -0.0329
  215SOD    SOD22275   0.526   2.705   0.270 -0.1526 -0.1671  0.1749
  216SOD    SOD22276   6.237   5.125   2.796 -0.0574 -0.3006  0.3019
  217SOD    SOD22277   3.483   6.144   1.782 -0.4349 -0.0706 -0.2825
  218SOD    SOD22278   5.238   6.922   0.452  0.6756 -0.0446  0.3380
  219SOD    SOD22279   6.092   6.004   1.458 -0.1998 -0.4231 -0.1939
  220SOD    SOD22280   5.027   1.981   0.468 -0.6683  0.2026 -0.1858
  221SOD    SOD22281   3.453   2.299   0.514  0.4981  0.3357 -0.2565
  222SOD    SOD22282   2.758   4.254   1.217  0.3537 -0.8178  0.2472
  223SOD    SOD22283   3.768   1.168   3.719  0.0057 -0.0112 -0.7055
  224SOD    SOD22284   5.451   3.383   2.705 -0.2306  0.4139  0.1937
  225SOD    SOD22285   5.718   3.793   4.171  0.3824 -0.4679  0.0273
  226SOD    SOD22286   3.804   0.578   3.501  0.0600 -0.3053 -0.0938
  227SOD    SOD22287   5.233   6.343   0.267 -0.0805 -0.4760 -0.4736
  228SOD    SOD22288   5.120   1.126   3.569  0.1045  0.1590  0.2838
  229SOD    SOD22289   2.716   6.922   0.212  0.5107 -0.1662  0.3285
  230SOD    SOD22290   5.395   2.613   2.866  0.1608 -0.1796 -0.4590
  231SOD    SOD22291   2.344   4.890   0.242  0.1413  0.2562  0.3835
  232SOD    SOD22292   2.065   2.707   1.075  0.5381  0.4349  0.3322
  233SOD    SOD22293   4.229   1.502   1.246  0.0257 -0.3840 -0.1341
  234CLA    CLA22294   5.813   1.012   2.764  0.4364  0.0825  0.1707
  235CLA    CLA22295   3.417   5.221   1.825  0.0080 -0.4511 -0.0003
  236CLA    CLA22296   1.793   2.523   1.480  0.0442  0.0107  0.3237
  237CLA    CLA22297   5.196   4.287   0.313  0.4612 -0.2345 -0.0303
  238CLA    CLA22298   5.344   1.921   3.495 -0.0320 -0.0625  0.1429
  239CLA    CLA22299   4.391   3.920   3.539 -0.2358 -0.0627  0.1447
  240CLA    CLA22300   5.070   0.820   2.181 -0.1855  0.0928  0.2585
  241CLA    CLA22301   5.998   2.663   2.448 -0.1365  0.3640  0.2617
  242CLA    CLA22302   6.428   4.904   2.176 -0.3480  0.1350  0.0522
  243CLA    CLA22303   4.930   5.767   2.589 -0.5848 -0.1219 -0.2107
  244CLA    CLA22304   5.421   6.498   1.017 -0.1957 -0.5707 -0.1707
  245CLA    CLA22305   2.539   1.287   1.355  0.0735 -0.1213  0.0255
  246CLA    CLA22306   4.329   5.274   0.918 -0.2323  0.0570  0.2851
  247CLA    CLA22307   3.068   0.816   2.449  0.2795  0.1719 -0.4583
  248CLA    CLA22308   2.568   3.057   3.862  0.4113  0.0061 -0.1982
  249CLA    CLA22309   3.448   6.557   2.962 -0.1626  0.2005 -0.6134
  250CLA    CLA22310   1.668   2.380   2.201  0.7957  0.5213  0.1759
  251TIP3   OH222311   4.075   6.449   0.902  0.2020 -0.0712  0.2552
  251TIP3    H122312   4.025   6.530   0.893  0.9597  0.6659  2.1744
  251TIP3    H222313   4.137   6.466   0.972  0.0159 -2.4838  1.1214
  252TIP3   OH222314   4.501   6.909   2.217 -0.2104  0.2081  0.2601
  252TIP3    H122315   4.567   6.892   2.284 -1.2318  0.5267  1.3918
  252TIP3    H222316   4.551   6.928   2.138  1.0173 -1.8522  0.4800
  253TIP3   OH222317   2.225   5.506   1.188  0.7050  0.1380  0.1740
  253TIP3    H122318   2.256   5.436   1.131 -0.7621  0.9221 -1.7156
  253TIP3    H222319   2.256   5.586   1.145  0.6611  0.7337  1.2189
  254TIP3   OH222320   2.794   2.580   3.062 -0.2893  0.1372  0.0982
  254TIP3    H122321   2.847   2.514   3.017 -2.2496 -0.1610 -1.9066
  254TIP3    H222322   2.707   2.571   3.025 -0.7850  3.4906  0.1481
  255TIP3   OH222323   1.127   2.289   4.557 -0.0392 -0.3195  0.1920
  255TIP3    H122324   1.033   2.272   4.564 -0.5643  2.0728 -0.2692
  255TIP3    H222325   1.156   2.230   4.487 -1.1765 -1.1057  0.3450
  256TIP3   OH222326   5.773   3.586   8.410  0.0311 -0.2315 -0.7078
  256TIP3    H122327   5.861   3.551   8.396  0.1189 -0.4838  0.4007
  256TIP3    H222328   5.740   3.539   8.487 -1.0709 -0.1376 -1.1003
  257TIP3   OH222329   2.552   5.740   3.250  0.4606 -0.0742 -0.0541
  257TIP3    H122330   2.497   5.763   3.325  2.2604  0.5379  1.1464
  257TIP3    H222331   2.498   5.761   3.174 -0.9026  0.6565  1.0522
  258TIP3   OH222332   6.583   3.163   0.492 -0.8348 -0.6265  0.6541
  258TIP3    H122333   6.589   3.180   0.586 -2.0629 -1.0570  0.8308
  258TIP3    H222334   6.598   3.249   0.452  4.0030 -1.0684  0.9486
  259TIP3   OH222335   4.276   0.186   3.283  0.1373  0.6497 -0.6690
  259TIP3    H122336   4.257   0.180   3.376 -2.9372 -1.6134 -1.2884
  259TIP3    H222337   4.268   0.279   3.263 -2.6690  0.8285  0.7814
  260TIP3   OH222338   4.071   6.293   1.933 -0.3057 -0.4694  0.2008
  260TIP3    H122339   4.157   6.333   1.916 -0.8681  0.7644  0.1363
  260TIP3    H222340   4.062   6.225   1.867 -0.3714  0.9813 -1.3377
  261TIP3   OH222341   6.823   4.597   0.674  0.1172  0.0583 -0.4652
  261TIP3    H122342   6.906   4.560   0.703  0.5874  1.0055 -0.5725
  261TIP3    H222343   6.822   4.584   0.580  0.6013  0.9010 -0.6017
  262TIP3   OH222344   1.843   3.131   1.953 -0.5264 -0.2812 -0.4365
  262TIP3    H122345   1.760   3.095   1.983 -0.1947 -1.1570 -0.5154
  262TIP3    H222346   1.901   3.125   2.029 -0.8673  1.4969 -0.0064
  263TIP3   OH222347   2.005   5.372   1.335 -0.1906  0.2206  0.1030
  263TIP3    H122348   2.083   5.416   1.301 -0.5287  0.2351 -0.6775
  263TIP3    H222349   1.933   5.430   1.311 -0.5287 -0.2165  0.0500
  264TIP3   OH222350   0.999   4.184   8.416  0.0814 -0.1911 -0.3192
  264TIP3    H122351   0.974   4.146   8.500  1.6188 -0.7747 -0.0918
  264TIP3    H222352   0.917   4.190   8.367 -0.7240 -0.5671  0.9199
  265TIP3   OH222353   0.523   3.432   2.384 -0.1477  0.1934  0.3460
  265TIP3    H122354   0.574   3.402   2.308 -1.3785 -2.7004  0.5244
  265TIP3    H222355   0.502   3.523   2.364  1.0098  0.0382 -1.9670
  266TIP3   OH222356   3.270   4.043   3.360  0.0788  0.0238  0.0452
  266TIP3    H122357   3.185   4.019   3.397  0.0276  0.1129 -0.0127
  266TIP3    H222358   3.275   4.138   3.370 -0.7094  0.3095 -1.7408
  267TIP3   OH222359   0.970   6.023   1.266 -0.6082  0.2461 -0.5136
  267TIP3    H122360   1.059   5.992   1.251 -0.9210 -1.2317  0.5522
  267TIP3    H222361   0.968   6.110   1.224  1.9161  1.2000  1.1164
  268TIP3   OH222362   2.477   4.927   4.111  0.0418 -0.2643  0.7467
  268TIP3    H122363   2.493   4.852   4.168 -0.6369 -2.3633 -1.6383
  268TIP3    H222364   2.561   4.941   4.067 -0.8440 -2.4902 -1.8880
  269TIP3   OH222365   3.827   3.150   0.867  0.9043  0.0274 -0.2630
  269TIP3    H122366   3.868   3.076   0.824  2.1000 -1.0200  2.4483
  269TIP3    H222367   3.747   3.114   0.906  1.5619  0.0749  1.1899
  270TIP3   OH222368   0.639   0.855   8.250  0.0823 -0.1275  0.0295
  270TIP3    H122369   0.556   0.899   8.270  0.5693  0.4197  0.9188
  270TIP3    H222370   0.698   0.881   8.321  0.2156 -2.7458  1.0221
  271TIP3   OH222371   5.153   1.764   8.351  0.3307  0.1642 -0.2237
  271TIP3    H122372   5.147   1.731   8.261 -0.0196 -0.7486  0.1164
  271TIP3    H222373   5.237   1.731   8.382 -0.6061 -1.6271  0.5589
  272TIP3   OH222374   2.940   5.153   2.721  0.7114 -0.0268 -0.0402
  272TIP3    H122375   2.953   5.245   2.741  2.6395 -0.2101 -0.2277
  272TIP3    H222376   2.874   5.152   2.652 -2.1878  0.9282  2.5271
  273TIP3   OH222377   1.983   2.636   0.552  0.0110 -0.4267  0.1988
  273TIP3    H122378   2.032   2.554   0.553  0.9044  0.0843 -0.3473
  273TIP3    H222379   1.920   2.625   0.481  0.9336 -0.2080 -0.6800
  274TIP3   OH222380   1.304   4.228   1.446  0.2759  0.0134  0.0565
  274TIP3    H122381   1.371   4.291   1.422  1.0061 -0.5532  0.5682
  274TIP3    H222382   1.325   4.203   1.536 -2.0945  1.7367  1.2064
  275TIP3   OH222383   2.990   3.793   3.668 -0.0221  0.7149  0.1515
  275TIP3    H122384   2.985   3.700   3.691  1.8603  1.1024  2.6449
  275TIP3    H222385   2.981   3.839   3.752 -0.8252  2.8247 -0.9971
  276TIP3   OH222386   3.276   5.750   2.729  0.4915 -0.2277  0.0326
  276TIP3    H122387   3.281   5.817   2.798 -0.9213 -0.2013  0.1326
  276TIP3    H222388   3.216   5.787   2.665 -1.3309 -1.9209  0.6985
  277TIP3   OH222389   6.174   0.885   4.033 -0.4360  0.4419  0.0483
  277TIP3    H122390   6.090   0.866   3.989 -0.0198 -0.2141 -0.4902
  277TIP3    H222391   6.184   0.813   4.096  0.3846 -0.2861 -0.8787
  278TIP3   OH222392   2.392   0.127   1.534 -0.2810  0.4660 -0.3586
  278TIP3    H122393   2.357   0.172   1.457 -2.4651 -0.2358  0.1447
  278TIP3    H222394   2.440   0.053   1.498 -1.0034  0.3261 -1.0658
  279TIP3   OH222395   3.098   4.370   3.085  0.1165 -0.3268 -0.1376
  279TIP3    H122396   3.139   4.366   2.998 -0.1346  0.4190 -0.2963
  279TIP3    H222397   3.103   4.280   3.117  3.6217  0.0054  0.6725
  280TIP3   OH222398   2.580   3.118   4.397  0.2304  0.1557  0.2881
  280TIP3    H122399   2.652   3.071   4.441 -0.1493 -0.4232  0.2973
  280TIP3    H222400   2.571   3.074   4.312 -0.7234 -0.3887  0.6542
  281TIP3   OH222401   1.049   3.013   1.335  0.3395  0.4989  0.3810
  281TIP3    H122402   0.992   2.970   1.271 -2.4824  0.9330  2.4218
  281TIP3    H222403   1.131   2.963   1.331 -0.1172 -0.2285 -2.6259
  282TIP3   OH222404   0.101   2.337   3.292  0.3534  0.1286  0.0846
  282TIP3    H122405   0.115   2.423   3.331 -0.0613 -0.5409  1.8140
  282TIP3    H222406   0.154   2.278   3.345 -2.5274 -1.2646  1.6962
  283TIP3   OH222407   1.699   6.570   1.099  0.0900  0.2486 -0.1406
  283TIP3    H122408   1.661   6.511   1.033 -0.3901 -0.0538  0.3933
  283TIP3    H222409   1.791   6.578   1.074  0.4757 -1.7233  0.4597
  284TIP3   OH222410   1.868   1.352   1.805 -0.2556  0.2663 -0.0206
  284TIP3    H122411   1.805   1.378   1.872 -0.3174 -0.1512  0.0871
  284TIP3    H222412   1.951   1.346   1.852  0.1113  1.9063 -0.3774
  285TIP3   OH222413   4.977   2.738   0.561 -0.0461  0.9953 -0.6751
  285TIP3    H122414   5.037   2.688   0.506 -0.0630  2.4456 -2.0775
  285TIP3    H222415   5.032   2.772   0.632 -0.0867 -1.1385  0.4542
  286TIP3   OH222416   3.965   6.477   3.402  0.4130 -0.0480 -0.0908
  286TIP3    H122417   4.050   6.512   3.375  0.1629  0.9789  0.4135
  286TIP3    H222418   3.970   6.383   3.381  1.1949  0.2259 -1.2197
  287TIP3   OH222419   6.342   6.032   1.658  0.7515  0.3673 -0.1171
  287TIP3    H122420   6.434   6.042   1.684  0.3784  0.3063  1.2707
  287TIP3    H222421   6.300   5.993   1.734 -0.3166 -0.1883 -0.9676
  288TIP3   OH222422   0.368   4.666   2.343 -0.1056 -0.2577  0.1947
  288TIP3    H122423   0.305   4.594   2.341 -0.4308 -0.0415  1.6599
  288TIP3    H222424   0.450   4.627   2.315 -0.7714 -0.6385 -1.3490
  289TIP3   OH222425   3.939   5.156   1.813  0.0805  0.1729 -0.1641
  289TIP3    H122426   3.890   5.084   1.854 -0.1499 -0.9274 -2.2510
  289TIP3    H222427   4.026   5.120   1.798 -0.3815 -0.1659 -2.3451
  290TIP3   OH222428   6.421   6.423   0.837  0.1229  0.2441  0.3288
  290TIP3    H122429   6.394   6.351   0.894 -0.1078  1.1867  1.4510
  290TIP3    H222430   6.366   6.414   0.759 -1.1023  0.1706  1.1664
  291TIP3   OH222431   3.841   2.429   8.212  0.2013  0.2752 -0.4905
  291TIP3    H122432   3.826   2.335   8.220  1.4518  0.1076  0.2350
  291TIP3    H222433   3.757   2.469   8.235  0.2234 -0.6134  1.2824
  292TIP3   OH222434   4.483   1.322   8.249  0.1102 -0.2408 -0.1467
  292TIP3    H122435   4.394   1.319   8.285  0.0529 -0.6693 -0.3168
  292TIP3    H222436   4.539   1.298   8.323  0.1643  0.9283  0.2051
  293TIP3   OH222437   3.884   4.338   0.121  0.3057  0.1739 -0.1790
  293TIP3    H122438   3.899   4.243   0.117  3.1154  0.5709 -1.5620
  293TIP3    H222439   3.937   4.367   0.195 -1.1494  0.6474  0.7303
  294TIP3   OH222440   0.879   1.817   1.184  0.6262 -0.0119  0.1527
  294TIP3    H122441   0.870   1.853   1.272  2.8584  0.7004  0.1468
  294TIP3    H222442   0.955   1.759   1.190  2.3805  1.9440 -1.8283
  295TIP3   OH222443   2.278   3.945   2.901 -0.3593 -0.0570  0.3491
  295TIP3    H122444   2.189   3.979   2.908 -0.0110  1.0265 -0.2131
  295TIP3    H222445   2.272   3.872   2.838 -0.8336  0.0492  0.2716
  296TIP3   OH222446   3.196   6.084   2.497 -0.1243 -0.0063  0.4431
  296TIP3    H122447   3.141   6.097   2.420  0.6808  0.1666 -0.1156
  296TIP3    H222448   3.193   5.989   2.513 -0.6110  0.0056  0.4515
  297TIP3   OH222449   1.261   5.979   1.317 -0.0135 -0.1695  0.1211
  297TIP3    H122450   1.272   6.073   1.304  1.3190 -0.6198 -2.6040
  297TIP3    H222451   1.350   5.946   1.330 -0.2875 -1.2375 -0.5824
  298TIP3   OH222452   4.084   2.519   1.543 -0.1841 -0.4483  0.1587
  298TIP3    H122453   4.007   2.498   1.597 -0.3359 -0.7522 -0.1693
  298TIP3    H222454   4.159   2.490   1.594 -0.3718 -1.5350 -0.1493
  299TIP3   OH222455   1.722   5.420   1.645 -0.3343 -0.1992 -0.0140
  299TIP3    H122456   1.803   5.467   1.625 -0.8386  0.6358 -0.1735
  299TIP3    H222457   1.717   5.422   1.741  0.4058 -1.2697  0.0573
  300TIP3   OH222458   2.590   0.863   2.128 -0.0101 -0.4507 -0.2171
  300TIP3    H122459   2.588   0.948   2.172 -0.5089 -0.1267 -0.8526
  300TIP3    H222460   2.678   0.829   2.147 -0.4286 -0.6171  1.5435
  301TIP3   OH222461   0.144   4.299   3.193 -0.4121  0.1802 -0.0456
  301TIP3    H122462   0.190   4.244   3.129  0.4659  2.3896 -1.4425
  301TIP3    H222463   0.204   4.306   3.267  0.4397  0.9947 -0.7919
  302TIP3   OH222464   3.995   6.925   3.536 -0.2852 -0.7471 -0.0158
  302TIP3    H122465   3.944   6.862   3.484  1.2662 -1.1445 -1.1209
  302TIP3    H222466   4.069   6.875   3.570  1.0627  0.4608 -1.0269
  303TIP3   OH222467   4.856   1.183   0.811 -0.1645 -0.2310 -0.0196
  303TIP3    H122468   4.767   1.217   0.819 -1.4061 -3.4409  1.4643
  303TIP3    H222469   4.853   1.127   0.733  1.0724  0.8219 -0.8752
  304TIP3   OH222470   3.706   4.669   3.803  0.0417  0.1486 -0.4991
  304TIP3    H122471   3.769   4.603   3.833  1.2283  1.8487  0.9637
  304TIP3    H222472   3.679   4.715   3.882  0.1923  2.2026 -1.5595
  305TIP3   OH222473   3.138   1.511   0.472 -0.1990  0.1760  0.2686
  305TIP3    H122474   3.073   1.538   0.408  0.8209  3.0344  0.2931
  305TIP3    H222475   3.221   1.541   0.436  1.3540 -3.8665 -0.0597
  306TIP3   OH222476   2.105   6.916   0.166 -0.1219 -0.3079 -0.6016
  306TIP3    H122477   2.128   6.874   0.083  0.6060 -0.2507 -0.4444
  306TIP3    H222478   2.183   6.966   0.189  0.1715 -1.3086  0.7242
  307TIP3   OH222479   6.511   6.691   0.843  0.5876 -1.1677 -0.4729
  307TIP3    H122480   6.546   6.687   0.754  1.1107 -3.2534 -0.2380
  307TIP3    H222481   6.473   6.604   0.857  1.0325 -1.0821  1.5246
  308TIP3   OH222482   5.384   4.481   8.249 -0.2268 -0.6727 -0.6925
  308TIP3    H122483   5.308   4.470   8.306  1.2471  0.1085  1.5739
  308TIP3    H222484   5.449   4.420   8.283  0.7210 -0.1916 -1.5589
  309TIP3   OH222485   5.045   5.970   3.983 -0.0484 -0.5355 -0.1983
  309TIP3    H122486   4.958   5.938   4.007 -1.4905  1.5975 -2.1560
  309TIP3    H222487   5.067   6.033   4.052  0.6607 -2.0948  1.0681
  310TIP3   OH222488   3.237   0.852   1.696 -0.2592  0.2193  0.3896
  310TIP3    H122489   3.269   0.808   1.617  0.4610  0.6616  0.4247
  310TIP3    H222490   3.227   0.782   1.760  1.6296  0.1933  0.6915
  311TIP3   OH222491   3.350   6.745   0.538 -0.1674  0.0273  0.1302
  311TIP3    H122492   3.346   6.659   0.579  0.0959 -1.9049 -3.4763
  311TIP3    H222493   3.270   6.750   0.485  1.0108  0.8248 -1.6839
  312TIP3   OH222494   6.727   6.137   1.484  0.1236  0.4192 -0.2058
  312TIP3    H122495   6.809   6.177   1.513  0.5010  2.2919 -3.4081
  312TIP3    H222496   6.753   6.062   1.431 -0.4106 -0.7182  1.0744
  313TIP3   OH222497   3.838   6.637   2.158 -0.0894  0.5314 -0.2075
  313TIP3    H122498   3.788   6.664   2.236  0.3221  0.7804 -0.0283
  313TIP3    H222499   3.903   6.575   2.192  0.2020  0.7707 -0.3252
  314TIP3   OH222500   1.220   5.622   2.318  0.6635 -0.5070  0.4123
  314TIP3    H122501   1.145   5.567   2.293  1.6443 -2.1601  0.9180
  314TIP3    H222502   1.203   5.646   2.409 -0.0324  0.5341  0.0278
  315TIP3   OH222503   3.805   1.477   8.415  0.4818 -0.0152  0.4043
  315TIP3    H122504   3.800   1.385   8.444  0.6783 -0.2459 -0.2807
  315TIP3    H222505   3.785   1.527   8.494 -0.1647 -0.6569  0.6707
  316TIP3   OH222506   4.515   5.106   3.986  0.5151  0.3225 -1.1681
  316TIP3    H122507   4.495   5.043   4.055 -0.0891 -1.5294 -2.9168
  316TIP3    H222508   4.605   5.133   4.004  0.7098 -0.8744 -0.1971
  317TIP3   OH222509   4.112   3.313   2.446 -0.0133  0.1332  0.0379
  317TIP3    H122510   4.047   3.272   2.503 -1.9608  2.7848 -0.1198
  317TIP3    H222511   4.075   3.305   2.358  0.8659 -0.0494 -0.3295
  318TIP3   OH222512   0.271   1.372   1.008  0.0766 -0.2187  0.1389
  318TIP3    H122513   0.337   1.315   0.968 -1.5766 -1.2669 -1.2312
  318TIP3    H222514   0.320   1.449   1.037  2.1929 -1.7361  0.8867
  319TIP3   OH222515   0.868   1.399   4.060  0.6287 -0.1564  0.1520
  319TIP3    H122516   0.848   1.438   3.975  0.6280 -0.4186  0.0312
  319TIP3    H222517   0.802   1.436   4.120 -1.6457 -2.6031 -0.6477
  320TIP3   OH222518   6.319   6.394   0.555  0.2278 -0.4623 -0.1775
  320TIP3    H122519   6.255   6.414   0.486 -0.5749  0.1880  0.7266
  320TIP3    H222520   6.401   6.379   0.508 -0.6416 -1.6247 -1.3931
  321TIP3   OH222521   5.153   3.800   2.472 -0.3461 -0.1572 -0.6543
  321TIP3    H122522   5.138   3.857   2.396  0.1376  1.1247  0.1968
  321TIP3    H222523   5.140   3.711   2.437 -1.1021  0.4457 -2.0076
  322TIP3   OH222524   4.762   1.369   1.430 -0.2020 -0.4057  0.3394
  322TIP3    H122525   4.761   1.456   1.471 -2.9858  0.1614 -0.6743
  322TIP3    H222526   4.846   1.331   1.456 -0.5930  0.9430  4.2337
  323TIP3   OH222527   5.199   4.171   2.739 -0.4448 -0.4878  0.3553
  323TIP3    H122528   5.173   4.079   2.742  0.3453 -0.7489 -0.4219
  323TIP3    H222529   5.143   4.214   2.804 -0.8864 -1.4951  0.6571
  324TIP3   OH222530   5.814   0.166   1.423 -0.4792  0.0108  0.5654
  324TIP3    H122531   5.894   0.186   1.472  0.9444 -0.3283 -1.4845
  324TIP3    H222532   5.818   0.072   1.407  0.8148  0.5061 -2.8378
  325TIP3   OH222533   4.930   3.702   4.006  0.3912  0.5078  1.2261
  325TIP3    H122534   4.903   3.614   4.031 -0.3724 -0.1894 -1.6825
  325TIP3    H222535   4.848   3.749   3.991  0.7495  0.7298 -0.2260
  326TIP3   OH222536   0.706   0.195   0.151  0.0765  0.1875 -0.1178
  326TIP3    H122537   0.758   0.138   0.095 -1.3479 -0.4306 -0.8756
  326TIP3    H222538   0.769   0.235   0.210  1.3715 -0.6477 -0.8840
  327TIP3   OH222539   5.214   6.149   2.151 -0.7316  0.2226  0.3044
  327TIP3    H122540   5.176   6.238   2.151 -0.5475  0.3557  2.5271
  327TIP3    H222541   5.307   6.163   2.135 -0.2993  0.7294  2.7889
  328TIP3   OH222542   4.899   6.186   3.516 -0.5001  0.0617 -0.0591
  328TIP3    H122543   4.821   6.237   3.493 -0.0352  0.7502 -0.1129
  328TIP3    H222544   4.883   6.158   3.606  0.0528  1.8749  0.6382
  329TIP3   OH222545   3.623   6.200   2.662  0.1023  0.2988 -0.1105
  329TIP3    H122546   3.682   6.131   2.632 -0.7795 -0.3453 -0.3893
  329TIP3    H222547   3.584   6.165   2.742 -2.7239 -0.9421 -1.8668
  330TIP3   OH222548   0.701   1.466   3.122 -0.4334  0.1082 -0.0762
  330TIP3    H122549   0.768   1.521   3.082 -0.4852 -0.1360 -0.5016
  330TIP3    H222550   0.673   1.407   3.052  0.9612 -1.7655  0.8470
  331TIP3   OH222551   0.328   6.384   3.730 -0.3688  0.2948  0.0683
  331TIP3    H122552   0.388   6.327   3.778  1.0942 -0.0342 -2.0143
  331TIP3    H222553   0.269   6.325   3.684 -0.6822  0.5474  0.1403
  332TIP3   OH222554   2.784   5.683   7.734  0.1479  0.6348  0.2051
  332TIP3    H122555   2.762   5.603   7.685 -1.2560 -0.0332  1.8383
  332TIP3    H222556   2.715   5.744   7.713  1.1862  1.4563 -0.9850
  333TIP3   OH222557   0.640   5.031   0.821  0.0216 -0.1104 -0.1525
  333TIP3    H122558   0.591   5.112   0.807  2.0962  1.0507 -1.1382
  333TIP3    H222559   0.572   4.963   0.828 -1.7126  1.2494 -2.3473
  334TIP3   OH222560   3.175   1.963   8.181 -0.0302  0.3594  0.5948
  334TIP3    H122561   3.086   1.930   8.171  1.0100 -2.6926  0.5677
  334TIP3    H222562   3.209   1.918   8.259  2.2825 -0.5780 -0.8615
  335TIP3   OH222563   2.919   3.000   0.541 -0.6396 -0.0122 -0.0520
  335TIP3    H122564   2.896   3.067   0.476  2.1610 -0.3220 -1.4997
  335TIP3    H222565   2.910   2.917   0.494 -0.6028 -0.4050  0.6259
  336TIP3   OH222566   0.517   0.933   0.352  0.1998 -0.2720 -0.6041
  336TIP3    H122567   0.558   0.847   0.360  0.6076 -0.0583 -0.3542
  336TIP3    H222568   0.586   0.988   0.313  0.9327  0.6370  1.8169
  337TIP3   OH222569   3.036   3.763   2.306 -0.2091 -0.0366  0.5510
  337TIP3    H122570   3.066   3.679   2.339 -1.4149 -0.9723 -0.6496
  337TIP3    H222571   3.115   3.818   2.306  0.9200 -1.5941  0.0203
  338TIP3   OH222572   1.009   1.651   4.231 -0.2423  0.1447  0.4759
  338TIP3    H122573   0.941   1.618   4.289 -0.4998  1.1234  0.7468
  338TIP3    H222574   1.000   1.747   4.234 -0.7190  0.2305 -1.6832
  339TIP3   OH222575   1.895   5.743   1.365  0.1694  0.6174 -0.7878
  339TIP3    H122576   1.900   5.767   1.272 -0.0125 -0.4485 -1.0878
  339TIP3    H222577   1.965   5.678   1.377 -0.5762 -0.1527 -0.4773
  340TIP3   OH222578   0.789   6.479   1.107 -0.1751 -0.5898 -0.2524
  340TIP3    H122579   0.767   6.477   1.014 -0.1547 -1.7702 -0.2447
  340TIP3    H222580   0.761   6.394   1.140 -1.0146  0.1583  1.0283
  341TIP3   OH222581   5.061   3.565   1.876 -0.1441  0.2280  0.5692
  341TIP3    H122582   5.035   3.625   1.946 -2.3809  0.5220 -0.4477
  341TIP3    H222583   5.029   3.605   1.796  0.1663 -1.3056 -0.3654
  342TIP3   OH222584   2.836   5.648   0.242  0.1275  0.2644  0.6025
  342TIP3    H122585   2.901   5.580   0.223 -0.4770 -0.5541  1.4134
  342TIP3    H222586   2.755   5.616   0.203 -0.3851  0.0514  1.8072
  343TIP3   OH222587   2.790   1.264   0.176  0.2794  0.2416 -0.1790
  343TIP3    H122588   2.742   1.301   0.250  0.6243  0.0935  0.1198
  343TIP3    H222589   2.868   1.319   0.168  0.5265 -0.0906 -0.0700
  344TIP3   OH222590   0.399   6.223   1.275  0.0436 -0.3600  0.1569
  344TIP3    H122591   0.322   6.195   1.225 -1.7372  2.8227  0.8310
  344TIP3    H222592   0.377   6.205   1.366 -0.6257  1.8373  0.4879
  345TIP3   OH222593   1.853   2.672   3.739  0.2586  0.4447 -0.5752
  345TIP3    H122594   1.908   2.665   3.661  0.6902  1.1193 -0.3427
  345TIP3    H222595   1.857   2.764   3.763 -0.3481  0.3533 -0.0958
  346TIP3   OH222596   6.779   0.292   2.937 -0.5857  0.6853  0.2221
  346TIP3    H122597   6.717   0.340   2.992 -1.1901  0.1358  0.0387
  346TIP3    H222598   6.744   0.302   2.848 -0.9459 -0.4043  0.2251
  347TIP3   OH222599   1.034   2.935   1.957  0.1492 -0.1669 -0.0211
  347TIP3    H122600   0.981   3.002   2.001  0.0643 -0.8691  0.9859
  347TIP3    H222601   1.058   2.874   2.027  2.9419  0.5143 -0.2698
  348TIP3   OH222602   4.067   6.596   2.576 -0.6542 -0.7574 -0.1390
  348TIP3    H122603   4.007   6.522   2.588 -0.3365 -1.1568 -0.9089
  348TIP3    H222604   4.047   6.656   2.648 -1.3652 -1.2951  0.1192
  349TIP3   OH222605   6.606   1.230   8.317  0.2112  0.4373 -0.1838
  349TIP3    H122606   6.532   1.287   8.293 -0.8225  0.0453  1.8563
  349TIP3    H222607   6.660   1.284   8.375  1.3657  0.5889 -1.3628
  350TIP3   OH222608   5.605   6.256   1.126  0.4302 -0.3030  0.3685
  350TIP3    H122609   5.573   6.182   1.177 -2.3256 -0.4269 -1.3697
  350TIP3    H222610   5.526   6.305   1.101  2.0123  2.2426 -0.0635
  351TIP3   OH222611   4.949   3.184   4.413  0.3301  0.8001 -0.5030
  351TIP3    H122612   4.985   3.189   4.501  2.3134 -4.6301 -0.6323
  351TIP3    H222613   4.854   3.178   4.426  0.4361  1.9857  1.0289
  352TIP3   OH222614   1.547   2.420   1.623 -0.3776 -0.5467  0.0127
  352TIP3    H122615   1.580   2.411   1.713 -0.6225 -0.7131  0.0872
  352TIP3    H222616   1.621   2.456   1.574 -0.2937 -0.2963  0.3169
  353TIP3   OH222617   5.873   3.705   2.049  0.1166  0.2256 -0.3767
  353TIP3    H122618   5.821   3.648   1.992  0.2981 -0.5176  0.1799
  353TIP3    H222619   5.818   3.781   2.065 -0.7190 -0.4584  0.0446
  354TIP3   OH222620   4.453   1.585   1.252 -0.8179 -1.0425  0.1905
  354TIP3    H122621   4.465   1.573   1.158 -2.1208  0.0596 -0.1362
  354TIP3    H222622   4.517   1.652   1.276 -1.3163 -0.4228 -0.1674
  355TIP3   OH222623   3.656   2.503   4.170 -0.6171  0.3364  0.2365
  355TIP3    H122624   3.720   2.439   4.200  1.4592  2.3200  0.3230
  355TIP3    H222625   3.674   2.513   4.076 -2.1962 -0.5262 -0.1959
  356TIP3   OH222626   2.703   3.464   1.514  0.1086 -0.6041  0.8084
  356TIP3    H122627   2.677   3.521   1.586 -2.1688 -0.3693 -0.1082
  356TIP3    H222628   2.745   3.522   1.451 -1.3266 -0.0615  0.3108
  357TIP3   OH222629   3.741   0.158   4.215  0.0619  0.3271 -0.7305
  357TIP3    H122630   3.727   0.229   4.153 -1.6215  1.0454  0.3981
  357TIP3    H222631   3.811   0.190   4.273 -0.6465  1.0587 -0.2644
  358TIP3   OH222632   5.200   1.036   2.993  0.0679 -0.8096 -0.9542
  358TIP3    H122633   5.293   1.023   2.976 -0.3115 -1.4954 -2.6973
  358TIP3    H222634   5.171   0.954   3.032  0.2416 -0.4773 -0.1044
  359TIP3   OH222635   4.177   4.285   2.867  0.0834  0.3302  0.8483
  359TIP3    H122636   4.234   4.217   2.904 -0.3479 -0.3880  0.2273
  359TIP3    H222637   4.112   4.301   2.936 -0.9472 -1.2752  0.3096
  360TIP3   OH222638   3.141   0.254   3.426  0.3114  0.3478  0.1197
  360TIP3    H122639   3.166   0.306   3.350 -1.0381 -0.3286 -0.8236
  360TIP3    H222640   3.095   0.316   3.484 -0.9368  0.3317 -0.8156
  361TIP3   OH222641   3.037   3.466   1.386 -0.5238  0.2237 -0.0451
  361TIP3    H122642   3.018   3.401   1.319 -0.2614  0.0313  0.0648
  361TIP3    H222643   2.961   3.524   1.385 -0.9144 -0.2762  0.0830
  362TIP3   OH222644   1.076   1.666   0.383  0.0133 -0.8638 -0.3918
  362TIP3    H122645   1.018   1.604   0.427 -0.3535 -0.5420 -0.4198
  362TIP3    H222646   1.061   1.651   0.289  0.7252 -1.4839 -0.4149
  363TIP3   OH222647   0.364   6.848   3.754 -0.1239  0.3896 -0.2644
  363TIP3    H122648   0.381   6.773   3.696  0.2758 -0.2380  0.6489
  363TIP3    H222649   0.380   6.924   3.698  1.6416 -0.1923 -0.6206
  364TIP3   OH222650   0.769   2.034   1.347 -0.2509 -0.0521  0.2697
  364TIP3    H122651   0.750   2.121   1.380 -2.3010 -0.6033  0.6815
  364TIP3    H222652   0.818   1.991   1.417 -1.0238  0.1263  0.9423
  365TIP3   OH222653   5.248   5.576   2.529  0.1778 -0.1054 -0.3482
  365TIP3    H122654   5.195   5.536   2.459 -0.3398  1.6883 -1.0360
  365TIP3    H222655   5.210   5.663   2.540  1.5129  0.3535  0.8151
  366TIP3   OH222656   0.680   5.002   1.829 -0.1197  0.0137  0.3756
  366TIP3    H122657   0.763   4.984   1.784  0.1726  2.8433 -0.3927
  366TIP3    H222658   0.701   4.996   1.922  0.5363 -0.8791  0.1803
  367TIP3   OH222659   3.315   6.233   3.778  0.4356  0.0049  0.7207
  367TIP3    H122660   3.347   6.262   3.693 -0.2153  1.5718  0.9798
  367TIP3    H222661   3.393   6.233   3.834  0.8066 -0.7365  0.2178
  368TIP3   OH222662   3.135   6.861   2.454 -0.4978  0.2818  0.2473
  368TIP3    H122663   3.136   6.824   2.366 -0.6098  1.6078 -0.3283
  368TIP3    H222664   3.226   6.858   2.482 -0.1176  1.6852 -0.7295
  369TIP3   OH222665   0.160   3.040   2.618 -0.4074 -0.4801 -0.0012
  369TIP3    H122666   0.215   2.975   2.575  1.1648 -0.8034  2.3258
  369TIP3    H222667   0.200   3.124   2.596 -0.3460 -0.5560 -0.1803
  370TIP3   OH222668   0.333   3.251   0.532 -0.0579  0.7784  0.3288
  370TIP3    H122669   0.330   3.236   0.438 -0.1474  0.3811  0.3896
  370TIP3    H222670   0.259   3.200   0.566  1.3099 -0.9564  0.8458
  371TIP3   OH222671   5.813   1.773   4.817 -0.4275 -0.2195 -0.0138
  371TIP3    H122672   5.907   1.770   4.836 -0.7569 -1.1205  1.6021
  371TIP3    H222673   5.804   1.732   4.732  0.5265 -1.2105  0.3476
  372TIP3   OH222674   3.200   5.060   1.979  0.4005  0.4834  0.1789
  372TIP3    H122675   3.254   5.049   2.058  0.6110  0.9187  0.0995
  372TIP3    H222676   3.249   5.122   1.925  0.3153  0.0872 -0.3519
  373TIP3   OH222677   2.814   6.386   2.593  0.3916  0.2715  0.0640
  373TIP3    H122678   2.801   6.335   2.672  1.2670 -0.3841 -0.1977
  373TIP3    H222679   2.909   6.388   2.581  0.2476 -1.2057 -1.9313
  374TIP3   OH222680   4.488   2.360   3.188  0.2244  0.4621 -0.0763
  374TIP3    H122681   4.543   2.402   3.254  0.7680 -3.5676  2.4066
  374TIP3    H222682   4.550   2.332   3.120  1.1210 -1.9163  1.5424
  375TIP3   OH222683   4.829   4.661   0.570  0.3147 -0.6174  0.3374
  375TIP3    H122684   4.751   4.647   0.518  0.4205 -1.1534  0.3174
  375TIP3    H222685   4.889   4.709   0.512 -0.8874  2.0715  1.1360
  376TIP3   OH222686   4.051   3.787   3.981  0.1999  0.4249  0.3910
  376TIP3    H122687   4.090   3.783   3.894  0.3810  2.6261  0.3097
  376TIP3    H222688   4.124   3.807   4.039 -0.0654 -0.1124  0.9144
  377TIP3   OH222689   5.705   6.096   0.355  0.3350 -0.1601  0.0038
  377TIP3    H122690   5.755   6.135   0.427  1.6600 -1.0686 -0.3793
  377TIP3    H222691   5.696   6.004   0.379  2.4043 -0.9157 -1.7594
  378TIP3   OH222692   4.364   3.188   2.445 -0.5367  0.1869 -0.0896
  378TIP3    H122693   4.346   3.147   2.530 -0.0771 -0.4279 -0.2823
  378TIP3    H222694   4.284   3.236   2.424 -1.6721 -1.8293 -0.5587
  379TIP3   OH222695   6.123   2.430   3.079 -0.2497  0.0013 -0.6145
  379TIP3    H122696   6.216   2.409   3.064  0.4073  1.2206  1.3342
  379TIP3    H222697   6.099   2.374   3.153 -1.0485 -0.2071 -1.0289
  380TIP3   OH222698   0.400   3.693   3.459  0.1866  0.2512  0.0285
  380TIP3    H122699   0.433   3.674   3.547  2.3630 -0.8756 -0.9620
  380TIP3    H222700   0.438   3.778   3.437  1.5735 -0.5129 -0.6602
  381TIP3   OH222701   4.061   6.529   2.307  0.4160  0.3073 -0.1886
  381TIP3    H122702   4.057   6.559   2.398 -1.4487  1.9077 -0.7330
  381TIP3    H222703   4.126   6.458   2.308  1.5596  1.2852  2.0767
  382TIP3   OH222704   1.771   1.080   1.809 -0.5083  0.3875  0.2695
  382TIP3    H122705   1.804   1.169   1.826 -0.6704  0.4238  0.3989
  382TIP3    H222706   1.688   1.076   1.857 -0.7110  0.3111 -0.0856
  383TIP3   OH222707   3.261   4.616   1.149  0.2685  0.1545 -0.2139
  383TIP3    H122708   3.343   4.649   1.112  1.2845 -1.5636  0.4257
  383TIP3    H222709   3.215   4.576   1.075  2.2262 -3.1420  0.1825
  384TIP3   OH222710   1.573   2.927   2.991 -0.1011 -0.3285  0.3257
  384TIP3    H122711   1.482   2.903   3.012 -0.2350 -0.4270 -0.3461
  384TIP3    H222712   1.590   2.885   2.907 -0.0453  1.1884 -0.4504
  385TIP3   OH222713   5.256   0.676   2.407  0.0434 -0.4501 -0.5812
  385TIP3    H122714   5.176   0.679   2.460  0.0878 -0.2365 -0.5275
  385TIP3    H222715   5.225   0.690   2.317 -0.0978 -1.3534 -0.6804
  386TIP3   OH222716   6.164   5.413   0.642 -0.3181 -0.0007 -0.8950
  386TIP3    H122717   6.194   5.452   0.724  2.1078 -1.5031 -0.9796
  386TIP3    H222718   6.229   5.440   0.577 -0.8226 -0.8722 -1.8006
  387TIP3   OH222719   4.163   1.567   2.286  0.2810 -0.3794  0.2640
  387TIP3    H122720   4.082   1.590   2.332 -1.1994 -0.0505 -2.3428
  387TIP3    H222721   4.141   1.487   2.238  1.9708 -1.0619  0.5537
  388TIP3   OH222722   0.934   5.203   3.871  0.5244  0.1492 -0.2084
  388TIP3    H122723   0.995   5.165   3.934 -0.0067 -1.5517 -0.6780
  388TIP3    H222724   0.848   5.170   3.897  0.0560  0.8594 -0.7853
  389TIP3   OH222725   4.425   0.711   1.926 -0.7916 -0.4133 -0.2414
  389TIP3    H122726   4.458   0.753   1.847  0.6510  0.9182  1.0112
  389TIP3    H222727   4.356   0.769   1.956  0.3479  0.4379  0.8036
  390TIP3   OH222728   4.382   2.549   1.007 -0.2071 -0.4781 -0.6589
  390TIP3    H122729   4.339   2.504   0.934 -1.6389 -0.7884  0.3271
  390TIP3    H222730   4.313   2.603   1.045  0.3711 -0.7020  0.7739
  391TIP3   OH222731   1.660   0.304   0.382 -0.0849 -0.3677  0.7039
  391TIP3    H122732   1.686   0.396   0.374  0.7024 -0.5433  1.1370
  391TIP3    H222733   1.607   0.287   0.305  2.6257 -0.5095 -1.2686
  392TIP3   OH222734   2.078   1.267   2.953  0.0084 -0.5329  0.2947
  392TIP3    H122735   2.051   1.320   2.879 -2.6376  0.1064  1.6012
  392TIP3    H222736   2.050   1.178   2.931  0.4421 -0.5994 -0.0092
  393TIP3   OH222737   4.171   0.690   1.399  0.3785  0.2550 -0.6326
  393TIP3    H122738   4.191   0.653   1.313  0.7346  0.9928 -0.8780
  393TIP3    H222739   4.215   0.775   1.400 -1.1307  1.0849 -0.4454
  394TIP3   OH222740   1.595   1.257   8.370 -0.1514 -0.7291 -1.0718
  394TIP3    H122741   1.540   1.258   8.292  1.5651 -0.0556 -2.3267
  394TIP3    H222742   1.637   1.171   8.369 -0.1653 -0.7408 -0.8518
  395TIP3   OH222743   4.770   6.270   1.364 -0.0586 -0.1902  0.6798
  395TIP3    H122744   4.774   6.204   1.433 -0.5338  0.4750  1.3583
  395TIP3    H222745   4.853   6.317   1.370  0.4047 -0.8979  0.0043
  396TIP3   OH222746   4.134   3.221   2.024 -0.5369  0.1594 -0.1342
  396TIP3    H122747   4.141   3.252   1.934  1.3588  0.1844 -0.0167
  396TIP3    H222748   4.120   3.301   2.076  1.1835  0.4925 -0.1459
  397TIP3   OH222749   5.871   0.106   3.499 -0.8537 -0.0812  0.5199
  397TIP3    H122750   5.964   0.123   3.482 -0.9989  0.7416  0.5036
  397TIP3    H222751   5.853   0.023   3.454 -0.3361  0.1956 -0.2166
  398TIP3   OH222752   3.057   5.666   1.466  0.0951  0.5968 -0.0188
  398TIP3    H122753   3.085   5.575   1.457 -0.7797  0.4386 -1.7645
  398TIP3    H222754   2.982   5.673   1.406  1.1310  2.8559 -1.1711
  399TIP3   OH222755   6.780   3.147   1.698 -0.0781  0.7254  0.1640
  399TIP3    H122756   6.762   3.121   1.608 -3.4550 -0.2769  0.9948
  399TIP3    H222757   6.795   3.241   1.694  1.5139  0.4533 -1.5815
  400TIP3   OH222758   0.180   6.040   2.320  1.1692  0.3938 -0.5331
  400TIP3    H122759   0.210   6.062   2.232 -1.5794 -0.3536 -1.7500
  400TIP3    H222760   0.248   5.983   2.355  1.8638 -0.0853 -2.5485
  401TIP3   OH222761   3.166   5.194   3.252 -0.1180 -0.0300  0.0288
  401TIP3    H122762   3.111   5.261   3.293  0.8153  0.2264  0.9155
  401TIP3    H222763   3.165   5.215   3.159 -1.2779  0.1299  0.0605
  402TIP3   OH222764   5.035   5.655   3.402  0.1941  0.1101  0.4703
  402TIP3    H122765   5.032   5.646   3.306  0.5774 -1.9140  0.6041
  402TIP3    H222766   5.045   5.749   3.417 -1.9480  0.7067 -1.4035
  403TIP3   OH222767   1.360   2.447   1.226 -0.3351 -0.4597 -0.1396
  403TIP3    H122768   1.387   2.358   1.248  0.8587 -0.3848 -1.1087
  403TIP3    H222769   1.370   2.497   1.307 -3.0718 -1.5817  0.9977
  404TIP3   OH222770   5.248   3.662   3.727 -0.1577 -0.0437  0.1950
  404TIP3    H122771   5.308   3.588   3.720 -0.2587 -0.0735 -0.4199
  404TIP3    H222772   5.282   3.713   3.801  0.6053 -0.0788 -0.1203
  405TIP3   OH222773   5.222   1.962   2.473  0.2202  0.1876  0.4430
  405TIP3    H122774   5.295   1.975   2.534  0.5033 -0.7077  0.3029
  405TIP3    H222775   5.220   1.868   2.458  0.6639  0.4596 -1.5576
  406TIP3   OH222776   4.118   3.990   1.121  0.3537  0.2236  0.3337
  406TIP3    H122777   4.027   4.012   1.101  0.0478 -1.4021 -0.1815
  406TIP3    H222778   4.167   4.069   1.100 -0.9276  1.1369  0.6342
  407TIP3   OH222779   6.218   3.235   1.217  0.1196 -0.3984 -0.4549
  407TIP3    H122780   6.181   3.155   1.254 -1.0876 -1.4727 -3.6269
  407TIP3    H222781   6.143   3.284   1.184  0.9172  1.6747  0.5902
  408TIP3   OH222782   4.321   2.156   4.654 -0.6022  0.2800  0.3092
  408TIP3    H122783   4.334   2.073   4.702 -0.1089  0.0177 -0.2621
  408TIP3    H222784   4.337   2.133   4.563  1.6319  1.4209  0.3556
  409TIP3   OH222785   0.607   2.062   2.279  0.3030 -0.1455 -0.2195
  409TIP3    H122786   0.700   2.085   2.279 -0.0386  1.3395 -0.5589
  409TIP3    H222787   0.563   2.140   2.245 -1.2194 -0.2166  1.4248
  410TIP3   OH222788   1.541   5.292   1.184 -0.0107 -0.2142 -0.0957
  410TIP3    H122789   1.462   5.298   1.238 -1.4337  2.1103 -2.2102
  410TIP3    H222790   1.612   5.316   1.242 -1.1990  0.2195  1.2319
  411TIP3   OH222791   0.191   2.518   3.673  0.2987  0.1311  0.3195
  411TIP3    H122792   0.131   2.574   3.625 -0.5483  0.8506  2.1263
  411TIP3    H222793   0.247   2.479   3.606 -2.7743 -1.3694 -1.5803
  412TIP3   OH222794   3.766   1.625   3.337 -0.1348  0.5767  0.0285
  412TIP3    H122795   3.857   1.599   3.347 -0.6352 -1.1048  0.5671
  412TIP3    H222796   3.739   1.653   3.425 -0.4750 -0.1446  0.1612
  413TIP3   OH222797   2.875   6.938   3.242 -0.1793  0.2048  0.1063
  413TIP3    H122798   2.865   6.871   3.174 -0.9426 -0.7163  1.0835
  413TIP3    H222799   2.951   6.990   3.214  0.7007 -1.3277 -0.4787
  414TIP3   OH222800   2.663   6.217   3.648  0.0692 -0.0256 -0.2511
  414TIP3    H122801   2.688   6.305   3.620  1.0005 -0.5046 -0.9987
  414TIP3    H222802   2.602   6.231   3.720  2.1802  1.2212  1.3983
  415TIP3   OH222803   0.799   0.867   0.945  0.4733  0.4334  0.0667
  415TIP3    H122804   0.831   0.951   0.913  1.5383 -0.1232 -0.3586
  415TIP3    H222805   0.752   0.829   0.870 -0.9184  1.0763  0.5703
  416TIP3   OH222806   1.882   1.465   3.178  0.3012 -0.2963 -0.0041
  416TIP3    H122807   1.848   1.453   3.090 -0.5228 -0.0269  0.2729
  416TIP3    H222808   1.973   1.434   3.173  0.1498 -0.6203 -0.8496
  417TIP3   OH222809   6.059   5.554   1.499  0.0866  0.2472 -0.0429
  417TIP3    H122810   6.058   5.615   1.572  0.6794 -0.2167  0.3628
  417TIP3    H222811   6.133   5.582   1.445  0.0532  0.1866 -0.1208
  418TIP3   OH222812   0.443   4.867   1.792 -0.5845 -0.2354 -0.0779
  418TIP3    H122813   0.443   4.865   1.888 -1.2555 -0.3852 -0.0750
  418TIP3    H222814   0.534   4.848   1.768 -0.1698  0.8837  0.5358
  419TIP3   OH222815   3.536   0.221   3.497  0.2374  0.0688  0.2335
  419TIP3    H122816   3.476   0.163   3.450 -0.9059  0.6924  0.8579
  419TIP3    H222817   3.548   0.180   3.583  1.5300 -0.5650 -0.2309
  420TIP3   OH222818   3.133   3.760   4.656 -0.0034 -0.1454  0.4228
  420TIP3    H122819   3.058   3.755   4.598  0.4271  1.5471 -0.3275
  420TIP3    H222820   3.191   3.689   4.627 -1.1473 -1.3051  0.8531
  421TIP3   OH222821   3.122   5.710   0.444 -0.5025  0.1190  0.1716
  421TIP3    H122822   3.137   5.804   0.452 -3.5620  0.6304  1.1301
  421TIP3    H222823   3.103   5.681   0.533 -1.6908 -0.9575 -0.4055
  422TIP3   OH222824   0.281   6.484   0.481  0.2421  0.0513  0.1211
  422TIP3    H122825   0.220   6.411   0.493  2.3794 -2.2454 -1.9380
  422TIP3    H222826   0.235   6.560   0.518 -2.5745 -2.0705  1.3323
  423TIP3   OH222827   2.656   3.226   0.245  0.0078  0.0824  0.0951
  423TIP3    H122828   2.587   3.160   0.235  0.2919 -0.7960  3.1097
  423TIP3    H222829   2.609   3.309   0.250 -0.7887 -0.4070  1.1296
  424TIP3   OH222830   1.803   3.207   0.167  0.1346  0.3875 -0.1463
  424TIP3    H122831   1.810   3.285   0.111 -1.2663  1.9693  1.7364
  424TIP3    H222832   1.709   3.188   0.169  0.4195 -1.1235 -0.2285
  425TIP3   OH222833   0.221   5.530   2.081 -0.2959  0.1133 -0.8167
  425TIP3    H122834   0.293   5.466   2.079 -0.2692  0.1451 -0.8799
  425TIP3    H222835   0.150   5.486   2.034 -0.3240  0.0750 -0.7402
  426TIP3   OH222836   6.088   1.323   2.194  0.0864  0.0239  0.0689
  426TIP3    H122837   6.001   1.348   2.164 -0.2460 -0.8770  0.2318
  426TIP3    H222838   6.140   1.314   2.114 -0.4626 -1.1575 -0.1852
  427TIP3   OH222839   0.966   0.890   3.283  0.7526  0.0264 -0.5285
  427TIP3    H122840   0.975   0.836   3.205  0.7442 -0.6770 -0.0424
  427TIP3    H222841   0.949   0.829   3.354 -0.5360  0.7523 -0.1759
  428TIP3   OH222842   0.754   2.336   2.813  0.7961 -0.2678  0.2190
  428TIP3    H122843   0.753   2.407   2.750 -1.0085  1.8726  2.4339
  428TIP3    H222844   0.663   2.307   2.819  1.5155 -3.2078 -0.9142
  429TIP3   OH222845   1.420   1.368   0.717 -0.0554  0.4054  0.0409
  429TIP3    H122846   1.442   1.305   0.785  2.2987 -1.6767 -2.3923
  429TIP3    H222847   1.362   1.320   0.658  1.5957  0.4849 -1.7446
  430TIP3   OH222848   0.301   6.310   8.153  0.2510  0.3519 -0.2384
  430TIP3    H122849   0.306   6.215   8.149  0.3915  0.3795 -0.7371
  430TIP3    H222850   0.383   6.340   8.113 -0.0372  0.6893 -0.5804
  431TIP3   OH222851   2.075   6.293   2.135  0.0321  0.4067 -0.0530
  431TIP3    H122852   2.073   6.372   2.081 -0.3500 -0.1252 -0.8363
  431TIP3    H222853   2.156   6.300   2.186  0.5765  0.7431 -0.9573
  432TIP3   OH222854   3.060   4.845   1.836  0.4589 -0.3318  0.5363
  432TIP3    H122855   3.102   4.922   1.875  0.9581 -0.3215 -0.0028
  432TIP3    H222856   2.972   4.844   1.873  0.4045  0.5745  0.4510
  433TIP3   OH222857   2.079   6.923   1.153 -0.1517 -0.7385  0.2630
  433TIP3    H122858   2.047   7.008   1.123 -0.1167 -1.3939 -1.8214
  433TIP3    H222859   2.004   6.884   1.199 -0.1637  0.3916  1.2368
  434TIP3   OH222860   0.183   1.809   2.727 -0.1321  0.6565 -0.3580
  434TIP3    H122861   0.263   1.839   2.683 -0.3455  2.5842  0.4433
  434TIP3    H222862   0.115   1.870   2.696 -1.5596 -1.4993 -1.7414
  435TIP3   OH222863   4.118   2.122   2.790  0.2575 -0.0408 -0.5113
  435TIP3    H122864   4.046   2.113   2.727  0.5190 -0.6533 -0.7272
  435TIP3    H222865   4.197   2.125   2.736  0.5096 -0.8858 -0.2069
  436TIP3   OH222866   4.061   0.300   0.115 -0.0006  0.5548  0.4358
  436TIP3    H122867   3.973   0.292   0.078 -0.5085 -0.0709  1.6905
  436TIP3    H222868   4.058   0.379   0.168  0.3038  0.7318  0.1879
  437TIP3   OH222869   2.394   3.408   1.279 -0.3845 -0.3120  0.3801
  437TIP3    H122870   2.298   3.404   1.283 -0.5007  1.1980  0.0003
  437TIP3    H222871   2.424   3.364   1.358 -1.3380 -1.9179 -0.1122
  438TIP3   OH222872   6.403   4.878   3.907 -0.4775 -0.3137  0.1381
  438TIP3    H122873   6.429   4.970   3.898  0.7925 -0.5695  1.0385
  438TIP3    H222874   6.324   4.871   3.853 -0.0913  1.0849 -0.6675
  439TIP3   OH222875   2.232   4.424   1.819  0.0948  0.1534  0.2390
  439TIP3    H122876   2.260   4.494   1.879  2.3476 -0.8763  0.4781
  439TIP3    H222877   2.260   4.453   1.733  0.8308 -0.3151  0.3088
  440TIP3   OH222878   1.528   5.709   0.419  0.5543 -0.0458  0.3054
  440TIP3    H122879   1.620   5.703   0.444  1.5500  2.6530 -2.1453
  440TIP3    H222880   1.529   5.715   0.323 -2.0897  0.8872  0.2378
  441TIP3   OH222881   5.128   2.857   1.479  0.1885  0.1375 -0.0695
  441TIP3    H122882   5.170   2.927   1.430 -1.7830  1.3562 -0.1275
  441TIP3    H222883   5.118   2.786   1.415  1.0105  0.2837 -0.3697
  442TIP3   OH222884   6.483   3.278   1.914 -0.5054 -0.4543 -0.0204
  442TIP3    H122885   6.404   3.231   1.940  0.6441 -1.3398  2.0538
  442TIP3    H222886   6.551   3.211   1.909  0.6998  0.6475  0.8889
  443TIP3   OH222887   3.767   0.911   1.617  0.5342  0.1676 -0.3582
  443TIP3    H122888   3.700   0.864   1.568 -0.4242  0.9992  0.1267
  443TIP3    H222889   3.815   0.843   1.664 -1.2956 -0.3051  0.9248
  444TIP3   OH222890   4.444   5.477   0.552 -0.2390 -0.1078 -0.1180
  444TIP3    H122891   4.395   5.540   0.500 -1.1975 -0.6486  0.1032
  444TIP3    H222892   4.482   5.528   0.624  0.1905  0.4528 -0.7384
  445TIP3   OH222893   3.913   0.174   0.619 -0.1900  0.1052 -0.0653
  445TIP3    H122894   3.908   0.079   0.623 -0.9866  0.0437 -1.6607
  445TIP3    H222895   4.002   0.195   0.648 -0.1592 -1.0606  0.7786
  446TIP3   OH222896   2.605   2.629   1.650 -0.1837  0.7962 -0.1548
  446TIP3    H122897   2.523   2.643   1.603  0.2816  1.2803 -0.8290
  446TIP3    H222898   2.637   2.717   1.670 -1.5530  0.7109  3.2243
  447TIP3   OH222899   4.606   1.344   3.016 -0.0437 -0.1643 -0.7542
  447TIP3    H122900   4.596   1.249   3.019 -1.6145 -0.0132 -0.6894
  447TIP3    H222901   4.696   1.358   3.046 -0.3417 -1.5355  1.0216
  448TIP3   OH222902   0.303   4.536   2.987  0.2953  0.4316 -0.5903
  448TIP3    H122903   0.330   4.586   3.064  0.1772 -0.0628 -0.2276
  448TIP3    H222904   0.209   4.551   2.980  0.4229  1.0822 -1.0846
  449TIP3   OH222905   2.995   3.326   3.272 -0.1745 -0.2227 -0.3340
  449TIP3    H122906   3.012   3.364   3.359  1.7816 -1.8627  0.0729
  449TIP3    H222907   3.065   3.362   3.217 -0.7749 -0.0364 -0.9901
  450TIP3   OH222908   3.561   1.343   2.446 -0.0729 -0.3686  0.0529
  450TIP3    H122909   3.588   1.380   2.362  0.6221 -0.1635  0.3613
  450TIP3    H222910   3.581   1.250   2.439  1.8027 -0.0526  0.6764
  451TIP3   OH222911   3.102   1.640   1.421 -0.4648  0.0450 -0.0547
  451TIP3    H122912   3.143   1.626   1.336 -1.3607  1.2106 -0.7177
  451TIP3    H222913   3.046   1.564   1.434  1.8101 -1.5969  0.8818
  452TIP3   OH222914   3.965   5.643   3.806 -0.1996  0.5827  0.3486
  452TIP3    H122915   3.900   5.712   3.811  0.2812  1.1947 -1.3702
  452TIP3    H222916   3.934   5.585   3.737  1.0703  0.9003 -0.5181
  453TIP3   OH222917   2.061   6.478   2.507  0.3862 -0.4142  0.3407
  453TIP3    H122918   2.064   6.456   2.600  1.8207  2.7270  1.1468
  453TIP3    H222919   1.977   6.442   2.478  0.3425 -2.3801  2.5363
  454TIP3   OH222920   6.799   5.141   3.974  0.6708 -0.2738  0.6112
  454TIP3    H122921   6.822   5.186   3.892  1.8648  0.0498  1.0986
  454TIP3    H222922   6.722   5.188   4.006 -1.3444 -1.9221 -1.4998
  455TIP3   OH222923   4.404   5.509   2.244  0.3286 -0.0509 -0.4889
  455TIP3    H122924   4.362   5.475   2.165  1.2295  0.0935 -1.0488
  455TIP3    H222925   4.440   5.594   2.218  0.8389 -0.1038  0.0008
  456TIP3   OH222926   6.851   2.699   2.177  0.3690  0.0077 -0.6306
  456TIP3    H122927   6.866   2.728   2.087  0.9044 -0.8143 -0.8163
  456TIP3    H222928   6.853   2.779   2.229  0.0034  0.4947 -1.3572
  457TIP3   OH222929   1.408   3.094   1.908 -0.5660  0.2291  0.5240
  457TIP3    H122930   1.396   3.165   1.971 -0.1914  0.6157  0.1681
  457TIP3    H222931   1.338   3.107   1.844  0.2810  1.0875 -0.2695
  458TIP3   OH222932   4.399   4.620   4.600  0.0709 -0.0375 -0.4140
  458TIP3    H122933   4.329   4.663   4.550 -0.8204 -0.2190  0.6453
  458TIP3    H222934   4.354   4.574   4.671  1.3167  0.4972  0.7750
  459TIP3   OH222935   3.094   4.918   3.342  0.4409 -0.6848 -0.5093
  459TIP3    H122936   3.005   4.926   3.306 -0.0355 -0.8835  0.5767
  459TIP3    H222937   3.126   5.007   3.348 -0.2506 -0.4910  0.4403
  460TIP3   OH222938   0.343   2.235   1.297  0.5846 -0.7069  0.2874
  460TIP3    H122939   0.338   2.328   1.277  0.6429 -1.0756 -1.6316
  460TIP3    H222940   0.437   2.215   1.297  0.6297 -0.5906  1.7153
  461TIP3   OH222941   1.630   5.724   2.123 -0.4334 -0.1675 -0.4730
  461TIP3    H122942   1.605   5.665   2.051  0.4780 -0.1560 -0.8168
  461TIP3    H222943   1.605   5.811   2.092 -0.0742 -0.1664 -0.7675
  462TIP3   OH222944   0.666   4.319   2.106  0.5306 -0.0744  0.9821
  462TIP3    H122945   0.659   4.412   2.086  2.2064  0.3926  2.2504
  462TIP3    H222946   0.579   4.293   2.137 -1.0276  0.0947 -2.7672
  463TIP3   OH222947   3.949   2.504   4.169  0.0872 -0.2413 -0.5211
  463TIP3    H122948   4.018   2.570   4.161  0.9263 -1.1023 -0.5594
  463TIP3    H222949   3.920   2.489   4.080  0.9875 -1.0295 -0.7053
  464TIP3   OH222950   4.026   2.736   0.517  0.2525  0.5358  0.5735
  464TIP3    H122951   4.032   2.822   0.475 -2.2563  0.6876  0.4030
  464TIP3    H222952   4.039   2.673   0.446 -3.1904  0.8011 -0.4762
  465TIP3   OH222953   4.300   2.299   1.560 -0.4222 -0.2398  0.0565
  465TIP3    H122954   4.313   2.351   1.640 -0.5088  0.5188 -0.4084
  465TIP3    H222955   4.374   2.239   1.559  0.2400  0.5541  0.0980
  466TIP3   OH222956   0.034   1.149   1.173  0.7539 -0.5878  0.0599
  466TIP3    H122957   0.060   1.164   1.082  1.5680 -1.9412  0.0415
  466TIP3    H222958  -0.051   1.105   1.166  0.0563  0.7216  0.0208
  467TIP3   OH222959   4.507   5.849   7.854 -0.0080 -0.0093  0.5364
  467TIP3    H122960   4.499   5.767   7.902 -1.5715 -0.1613  0.0964
  467TIP3    H222961   4.592   5.884   7.878  0.9383 -2.0335  0.2977
  468TIP3   OH222962   0.979   2.376   1.476  1.0358  0.2026  0.4554
  468TIP3    H122963   0.991   2.334   1.390 -0.0167 -0.5484  0.6523
  468TIP3    H222964   0.972   2.469   1.456 -0.6654 -0.0822 -0.4623
  469TIP3   OH222965   4.342   0.891   2.908 -0.6718  0.3609 -0.3892
  469TIP3    H122966   4.424   0.871   2.863 -0.6419 -1.1372  0.2428
  469TIP3    H222967   4.331   0.985   2.899  1.3696  0.6717 -0.0988
  470TIP3   OH222968   5.362   3.162   0.393  0.7090  0.3188 -0.4419
  470TIP3    H122969   5.323   3.130   0.312  1.3615 -3.3871  0.5217
  470TIP3    H222970   5.457   3.159   0.378  0.8324 -0.2341  0.3672
  471TIP3   OH222971   6.181   4.648   3.078  0.1644 -0.7776  0.1378
  471TIP3    H122972   6.115   4.702   3.034 -0.9739 -0.4972  2.1030
  471TIP3    H222973   6.132   4.574   3.115  1.0747 -1.0129  0.9228
  472TIP3   OH222974   3.739   0.485   1.422  0.4140 -0.4282  0.9389
  472TIP3    H122975   3.819   0.435   1.437  0.1409 -0.6979  1.5359
  472TIP3    H222976   3.698   0.443   1.346  1.4759  0.5278 -0.2108
  473TIP3   OH222977   1.474   1.882   2.653  0.3456  0.2835  0.4395
  473TIP3    H122978   1.457   1.788   2.641  0.6431  0.2578  0.2066
  473TIP3    H222979   1.465   1.896   2.747  0.7237 -0.0680  0.5323
  474TIP3   OH222980   3.916   3.550   3.861 -0.4030  0.3491 -0.1137
  474TIP3    H122981   3.915   3.636   3.902 -1.9511 -0.6102  2.0547
  474TIP3    H222982   3.946   3.491   3.930  3.6312 -0.6506 -2.3336
  475TIP3   OH222983   6.918   4.856   0.776 -0.3517 -0.3797  0.0633
  475TIP3    H122984   6.873   4.775   0.750 -0.1761 -0.7857  0.9857
  475TIP3    H222985   6.965   4.884   0.697  2.4941 -3.1234  0.5879
  476TIP3   OH222986   6.169   6.347   2.603 -0.0606 -0.2949  0.0926
  476TIP3    H122987   6.146   6.439   2.610 -2.8847 -0.8189 -1.1639
  476TIP3    H222988   6.261   6.347   2.576 -0.7885  2.2973 -2.9379
  477TIP3   OH222989   6.003   5.322   0.856  0.7240 -0.2529 -0.3433
  477TIP3    H122990   6.033   5.353   0.771  0.2722 -0.7128 -0.6763
  477TIP3    H222991   6.082   5.318   0.910  0.9907  0.1637 -0.7010
  478TIP3   OH222992   0.957   6.714   2.213  0.2667  0.5023  0.1718
  478TIP3    H122993   0.961   6.805   2.245 -2.9580 -0.0354  2.7432
  478TIP3    H222994   0.889   6.716   2.146 -1.8374 -0.2953  2.1385
  479TIP3   OH222995   6.632   1.467   2.940 -0.4158 -0.6005 -0.6357
  479TIP3    H122996   6.562   1.493   3.000  0.2018 -2.0849  0.8079
  479TIP3    H222997   6.616   1.519   2.861 -2.4215 -0.0180  0.0823
  480TIP3   OH222998   3.528   6.832   0.868  0.4592  0.0760  0.0548
  480TIP3    H122999   3.571   6.856   0.785 -0.1769  0.5408 -0.1486
  480TIP3    H223000   3.593   6.779   0.914  2.1195  2.4555  0.6649
  481TIP3   OH223001   4.853   0.387   1.232 -0.7227 -0.3189  0.4604
  481TIP3    H123002   4.874   0.456   1.169  0.6057  0.3556  1.6016
  481TIP3    H223003   4.852   0.307   1.180 -3.7153  0.6115 -1.2039
  482TIP3   OH223004   0.751   5.210   8.306  0.0148 -0.1433  0.2186
  482TIP3    H123005   0.791   5.190   8.391 -0.7237  0.4727  0.7288
  482TIP3    H223006   0.681   5.145   8.297  0.3447 -0.4495 -0.0918
  483TIP3   OH223007   3.812   0.713   8.006  0.2568 -0.0711  0.0765
  483TIP3    H123008   3.889   0.703   8.062  0.4407  1.4555  0.1633
  483TIP3    H223009   3.738   0.712   8.067  0.4698  1.8334  0.4581
  484TIP3   OH223010   4.052   6.329   8.234 -0.6136 -0.4952  0.1282
  484TIP3    H123011   3.982   6.285   8.187 -2.0254  0.9312  0.7795
  484TIP3    H223012   4.057   6.284   8.318 -1.7254  0.2364  0.6096
  485TIP3   OH223013   6.235   2.526   0.788  0.1507  0.0565 -0.1641
  485TIP3    H123014   6.255   2.437   0.817  2.4334  0.1698 -1.2315
  485TIP3    H223015   6.167   2.555   0.849 -0.5521 -2.3257  0.3256
  486TIP3   OH223016   0.636   6.391   4.471  0.0754 -0.1215  0.2363
  486TIP3    H123017   0.656   6.342   4.392  1.9610 -1.0207  1.2174
  486TIP3    H223018   0.555   6.351   4.505  0.4454 -1.1728 -0.0919
  487TIP3   OH223019   0.931   1.595   0.874 -0.3828  0.3266  0.0851
  487TIP3    H123020   0.950   1.526   0.811  0.3480  1.7650 -1.3326
  487TIP3    H223021   0.978   1.672   0.842 -2.2475  1.8923  0.8268
  488TIP3   OH223022   2.093   2.487   1.370  0.0913 -0.8224  0.4703
  488TIP3    H123023   2.001   2.469   1.389  0.6279 -3.1684  1.1861
  488TIP3    H223024   2.119   2.417   1.310  1.3303  0.0435 -0.0429
  489TIP3   OH223025   3.690   4.076   1.354 -0.7034  0.1294 -0.2601
  489TIP3    H123026   3.658   4.132   1.424 -0.7137  0.2751 -0.3794
  489TIP3    H223027   3.704   3.991   1.395 -1.0416  0.1191 -0.1588
  490TIP3   OH223028   2.526   4.232   1.069 -0.5363  0.5916  0.2457
  490TIP3    H123029   2.509   4.140   1.091 -0.5626  1.4923  5.0422
  490TIP3    H223030   2.439   4.270   1.055 -0.7751  0.4431  1.2475
  491TIP3   OH223031   5.193   6.361   1.622 -0.0855  0.1686 -0.3445
  491TIP3    H123032   5.152   6.277   1.643  2.1865 -1.3533 -1.6402
  491TIP3    H223033   5.253   6.378   1.694  0.3410  0.0691 -0.6743
  492TIP3   OH223034   4.324   5.167   3.464  0.2413  0.5732  0.0537
  492TIP3    H123035   4.305   5.254   3.428  0.4330  0.7271  0.3249
  492TIP3    H223036   4.419   5.159   3.456  0.1257 -0.0236 -0.9080
  493TIP3   OH223037   0.258   5.358   0.614  0.0043 -0.4258  0.6334
  493TIP3    H123038   0.276   5.451   0.602 -0.3398 -0.3226  0.8721
  493TIP3    H223039   0.307   5.314   0.545 -2.2390  0.1473 -1.4601
  494TIP3   OH223040   1.669   1.405   2.833  0.0942  0.0062  0.5910
  494TIP3    H123041   1.760   1.421   2.859  0.8954 -3.5388  0.3904
  494TIP3    H223042   1.670   1.412   2.738  0.8433 -2.5501  0.3483
  495TIP3   OH223043   2.699   4.245   4.064  0.4693 -0.1572 -0.1811
  495TIP3    H123044   2.696   4.183   4.136 -0.5604 -0.9060 -0.8475
  495TIP3    H223045   2.762   4.208   4.003  0.7341  0.0628 -0.0440
  496TIP3   OH223046   2.149   4.330   1.543 -0.2498 -0.0522  0.5632
  496TIP3    H123047   2.176   4.340   1.452 -0.9427  1.5814  0.5110
  496TIP3    H223048   2.069   4.382   1.551 -0.1418 -0.0738  2.1328
  497TIP3   OH223049   4.885   4.788   2.818 -0.2053  0.4059  0.2185
  497TIP3    H123050   4.904   4.878   2.845  0.0923 -0.5745  3.8762
  497TIP3    H223051   4.789   4.785   2.811 -0.3057  0.7927  1.2081
  498TIP3   OH223052   4.675   0.513   1.718 -0.2143  0.0724  0.1757
  498TIP3    H123053   4.708   0.603   1.717  0.5646 -0.2078  0.4862
  498TIP3    H223054   4.741   0.462   1.670 -0.9956 -0.2245 -0.6196
  499TIP3   OH223055   1.811   2.791   3.039 -0.0788  0.4126 -0.4496
  499TIP3    H123056   1.863   2.851   3.092 -0.0440 -2.6288  3.4019
  499TIP3    H223057   1.725   2.833   3.032 -0.2144  0.8349  2.5202
  500TIP3   OH223058   6.543   2.596   1.283  0.8737 -0.1851  0.0979
  500TIP3    H123059   6.534   2.660   1.213 -1.2139 -1.2297 -0.6583
  500TIP3    H223060   6.454   2.576   1.310  1.5815 -0.8377  2.1283
  501TIP3   OH223061   5.231   4.440   2.977  0.5200 -0.9488  0.4048
  501TIP3    H123062   5.174   4.368   3.003  1.1509 -1.7825 -0.4640
  501TIP3    H223063   5.177   4.494   2.919  0.1467 -0.8849  0.8037
  502TIP3   OH223064   4.509   1.792   0.551  0.1758 -0.4836  0.4637
  502TIP3    H123065   4.493   1.875   0.596  1.0294 -0.6665  1.1388
  502TIP3    H223066   4.526   1.816   0.460 -0.2358  0.0188  0.5160
  503TIP3   OH223067   6.377   1.599   1.081  0.4287 -0.3316  0.2333
  503TIP3    H123068   6.341   1.600   0.992  1.4994 -0.6962 -0.2289
  503TIP3    H223069   6.472   1.609   1.069  0.8992 -2.8432  1.1275
  504TIP3   OH223070   5.019   1.870   3.862 -0.8545  0.4209  0.7122
  504TIP3    H123071   4.994   1.951   3.818 -1.3844 -0.6169 -0.9941
  504TIP3    H223072   4.939   1.819   3.866 -0.0798 -0.9643 -0.4265
  505TIP3   OH223073   0.862   4.160   1.146 -0.1335  0.6761  0.5223
  505TIP3    H123074   0.889   4.069   1.160 -0.6090  0.0507 -2.1753
  505TIP3    H223075   0.924   4.211   1.200  1.7476 -1.1050  0.1940
  506TIP3   OH223076   5.783   2.043   0.426  0.3901  0.1749  0.4943
  506TIP3    H123077   5.782   1.962   0.477 -0.1554 -0.9165 -1.1660
  506TIP3    H223078   5.696   2.081   0.439  0.1764 -0.2140  0.2421
  507TIP3   OH223079   0.075   4.881   3.094 -0.3370 -0.1534 -0.8718
  507TIP3    H123080   0.122   4.895   3.177  0.1437  1.3425 -1.3624
  507TIP3    H223081   0.133   4.916   3.027 -0.4886 -1.8320 -1.9335
  508TIP3   OH223082   1.025   4.750   3.487  0.0870 -0.5486  0.1723
  508TIP3    H123083   1.034   4.840   3.457 -0.3629  0.3402  2.4964
  508TIP3    H223084   0.946   4.718   3.442 -0.3797  0.5777  0.1566
  509TIP3   OH223085   6.886   6.448   8.252  0.1359 -0.1770 -0.6528
  509TIP3    H123086   6.796   6.480   8.255  0.3246  0.3338 -0.3009
  509TIP3    H223087   6.917   6.472   8.165  0.7544  1.9644  0.1025
  510TIP3   OH223088   5.142   2.929   2.718  0.3155  0.3781  0.2534
  510TIP3    H123089   5.235   2.949   2.717  0.0619  1.6104 -0.2448
  510TIP3    H223090   5.099   3.014   2.725 -0.7789 -0.1362 -0.0231
  511TIP3   OH223091   2.104   4.941   0.636  0.3791 -0.2696 -0.6848
  511TIP3    H123092   2.047   4.940   0.559 -1.3092  2.7996  0.3483
  511TIP3    H223093   2.044   4.954   0.710  2.1584 -0.3498  0.8406
  512TIP3   OH223094   2.203   2.484   1.874 -0.0747 -0.6401  0.0460
  512TIP3    H123095   2.122   2.536   1.869  0.8400  0.8810  0.3359
  512TIP3    H223096   2.243   2.495   1.787  0.4161 -0.3390  0.3039
  513TIP3   OH223097   1.771   5.528   1.160  0.3399 -0.0747 -0.0029
  513TIP3    H123098   1.715   5.535   1.238 -0.5833 -0.1232 -0.6351
  513TIP3    H223099   1.712   5.496   1.092  1.4452 -1.3524 -0.3975
  514TIP3   OH223100   6.788   2.184   1.247  0.2005  0.3148  0.0488
  514TIP3    H123101   6.866   2.135   1.221  1.1093  1.8217 -0.2150
  514TIP3    H223102   6.786   2.258   1.187 -1.2127  0.5244  0.3316
  515TIP3   OH223103   1.127   6.102   3.354 -0.9595  0.3159 -0.1247
  515TIP3    H123104   1.149   6.142   3.270  0.2907 -1.0415 -0.4953
  515TIP3    H223105   1.211   6.075   3.390 -1.3960  1.4023  1.8863
  516TIP3   OH223106   6.895   1.599   2.407 -1.1576  0.9628 -0.0666
  516TIP3    H123107   6.944   1.584   2.488 -0.8871  1.0005 -0.2193
  516TIP3    H223108   6.938   1.675   2.367  0.2824 -0.4627 -1.4102
  517TIP3   OH223109   2.792   1.966   0.015  0.0281 -0.0152 -0.2557
  517TIP3    H123110   2.707   1.960   0.059  0.2767  1.6096  0.5425
  517TIP3    H223111   2.781   1.918  -0.067 -1.2945 -0.8108  0.3650
  518TIP3   OH223112   0.788   0.001   4.339 -0.3030  0.4313  0.1212
  518TIP3    H123113   0.722   0.016   4.407 -0.8204 -2.3828  0.3729
  518TIP3    H223114   0.762  -0.082   4.299  1.4157  0.7675 -1.8334
  519TIP3   OH223115   6.654   3.696   2.195 -0.4164  0.1532 -0.7154
  519TIP3    H123116   6.663   3.605   2.223 -3.2092 -0.8818 -2.7258
  519TIP3    H223117   6.744   3.730   2.194  0.5341 -1.9906  1.7276
  520TIP3   OH223118   5.561   5.899   2.215 -0.2306  0.2883  0.2012
  520TIP3    H123119   5.481   5.854   2.241  0.2435 -0.6309  0.1128
  520TIP3    H223120   5.584   5.954   2.290 -0.2661 -0.3909  0.7092
  521TIP3   OH223121   4.916   4.623   0.860 -0.0982 -0.1282  0.0120
  521TIP3    H123122   4.868   4.651   0.782  1.0037  0.2753 -0.5471
  521TIP3    H223123   4.987   4.687   0.869 -1.8946  1.6927  3.1266
  522TIP3   OH223124   0.026   3.266   1.900 -0.0968 -0.3471 -0.4173
  522TIP3    H123125  -0.033   3.202   1.861 -0.8788  0.0444  0.0998
  522TIP3    H223126   0.034   3.240   1.991 -0.6860  0.4642 -0.1213
  523TIP3   OH223127   1.856   0.523   2.809 -0.4412  0.2644 -0.0245
  523TIP3    H123128   1.826   0.438   2.779 -2.0738  0.8938 -0.3025
  523TIP3    H223129   1.908   0.504   2.887 -0.5422 -0.9931 -0.2441
  524TIP3   OH223130   5.004   6.562   4.121  0.3275 -0.0584 -0.1323
  524TIP3    H123131   5.096   6.579   4.144  0.2605  0.1317 -0.0006
  524TIP3    H223132   4.982   6.634   4.061  0.8660 -1.2063 -1.7908
  525TIP3   OH223133   5.248   6.639   2.387  0.4221  0.5293 -0.3218
  525TIP3    H123134   5.246   6.593   2.471 -1.4958 -1.0206 -1.1155
  525TIP3    H223135   5.333   6.615   2.349  2.1797  2.7816  1.8627
  526TIP3   OH223136   4.090   3.342   3.774  0.0945  0.6867 -0.6386
  526TIP3    H123137   4.083   3.346   3.679  0.4788 -2.0004 -0.8483
  526TIP3    H223138   4.003   3.316   3.804  0.1536  0.8618 -0.3062
  527TIP3   OH223139   4.626   0.807   2.284  0.3915  0.5451 -0.3805
  527TIP3    H123140   4.692   0.821   2.352  0.9961  2.9593 -1.3601
  527TIP3    H223141   4.662   0.851   2.207 -1.3422 -0.0684 -1.6033
  528TIP3   OH223142   3.055   1.166   0.355  0.3618  0.5193  0.6165
  528TIP3    H123143   3.010   1.235   0.306  0.7816 -0.3126 -1.0251
  528TIP3    H223144   3.126   1.211   0.400 -0.2928  1.3803  0.8227
  529TIP3   OH223145   5.783   0.784   2.379 -0.0406 -0.2723  0.0893
  529TIP3    H123146   5.803   0.878   2.378 -1.0796 -0.0164  0.8105
  529TIP3    H223147   5.798   0.755   2.289  1.7360  0.2458  0.1817
  530TIP3   OH223148   2.632   3.262   0.578 -0.0562 -0.1759  0.3188
  530TIP3    H123149   2.612   3.318   0.503  0.3949  2.0281  1.7436
  530TIP3    H223150   2.720   3.288   0.604  0.6294 -2.4106  0.3647
  531TIP3   OH223151   6.297   3.532   4.025 -0.4661 -0.0894 -0.0816
  531TIP3    H123152   6.220   3.543   4.079  0.8095  1.0569  1.5952
  531TIP3    H223153   6.331   3.620   4.013  0.6767 -0.5856 -0.6297
  532TIP3   OH223154   0.338   3.250   1.331 -0.4426  0.4927  0.2344
  532TIP3    H123155   0.363   3.172   1.281 -2.0648  0.0599  0.0444
  532TIP3    H223156   0.291   3.216   1.407  0.8686  1.2098  1.4134
  533TIP3   OH223157   2.703   5.380   0.980 -0.4412  0.5557 -0.2050
  533TIP3    H123158   2.720   5.296   1.024 -0.0037 -0.4149 -2.1168
  533TIP3    H223159   2.790   5.421   0.973 -0.2396 -0.0507 -1.5600
  534TIP3   OH223160   1.496   0.558   4.066  0.5640  0.3943 -0.2317
  534TIP3    H123161   1.414   0.530   4.107  1.1108  1.3063  1.5546
  534TIP3    H223162   1.564   0.510   4.112  1.0816 -0.4336 -1.7762
  535TIP3   OH223163   3.521   6.326   0.752  0.2831  0.0901 -0.0999
  535TIP3    H123164   3.538   6.334   0.658 -1.4536  0.4301 -0.4200
  535TIP3    H223165   3.431   6.293   0.757  0.6012 -0.6097  1.4453
  536TIP3   OH223166   3.156   5.812   2.182  0.6251 -0.5253  0.3119
  536TIP3    H123167   3.131   5.756   2.108  2.4676 -2.4928  1.0821
  536TIP3    H223168   3.197   5.888   2.141 -0.4664 -0.4570 -0.7182
  537TIP3   OH223169   3.611   2.463   3.412  0.0169  0.2409  0.0366
  537TIP3    H123170   3.522   2.492   3.433  0.2952  1.3966 -0.3238
  537TIP3    H223171   3.621   2.381   3.460 -1.4006 -0.1483 -0.2782
  538TIP3   OH223172   6.332   1.323   1.069 -0.0110  0.0052  0.0578
  538TIP3    H123173   6.274   1.314   0.993  1.1680  0.8898 -0.9915
  538TIP3    H223174   6.352   1.417   1.072 -1.2031  0.2632  2.3875
  539TIP3   OH223175   5.702   4.961   2.584  0.0571  0.3662 -0.4396
  539TIP3    H123176   5.665   4.931   2.502 -0.9864  0.3098  0.0402
  539TIP3    H223177   5.747   5.042   2.562 -0.5161  0.5385 -1.0030
  540TIP3   OH223178   3.757   3.564   1.669  0.0613 -0.1159  0.0346
  540TIP3    H123179   3.722   3.630   1.729  0.1099 -0.7548  0.7822
  540TIP3    H223180   3.832   3.607   1.627 -0.4295  0.5913 -0.1342
  541TIP3   OH223181   1.402   6.187   2.403 -0.0520 -0.5593 -0.0266
  541TIP3    H123182   1.384   6.244   2.328  0.5662 -0.1764  0.1094
  541TIP3    H223183   1.353   6.107   2.384  0.8395 -0.8396 -1.3137
  542TIP3   OH223184   0.374   3.928   2.668 -0.0839  0.4615  0.1775
  542TIP3    H123185   0.397   3.910   2.759  0.1293 -1.8265 -0.2864
  542TIP3    H223186   0.446   3.891   2.617 -1.4741 -0.6847 -1.0216
  543TIP3   OH223187   5.795   6.858   1.688 -0.5907  0.5320 -0.5253
  543TIP3    H123188   5.847   6.798   1.635 -0.6940 -0.2997  0.2833
  543TIP3    H223189   5.705   6.844   1.659 -0.9752 -1.7046  1.4355
  544TIP3   OH223190   0.432   1.013   8.353 -0.3193 -0.1320 -0.5131
  544TIP3    H123191   0.359   0.982   8.407 -0.8434  0.3015 -0.9518
  544TIP3    H223192   0.390   1.051   8.276  0.4460 -1.6789 -1.7491
  545TIP3   OH223193   0.778   4.873   1.468 -0.3477  0.3628 -0.1939
  545TIP3    H123194   0.773   4.802   1.404 -0.2343  1.1570 -1.0976
  545TIP3    H223195   0.871   4.879   1.489 -0.3473  0.3055 -0.1771
  546TIP3   OH223196   0.278   2.503   1.256 -0.1800  0.4755  0.1357
  546TIP3    H123197   0.236   2.538   1.334 -0.8285 -1.7023  0.8546
  546TIP3    H223198   0.219   2.527   1.184 -2.2944 -1.6196  0.9947
  547TIP3   OH223199   4.684   3.584   2.885  0.1134  0.0216 -0.2574
  547TIP3    H123200   4.664   3.648   2.954 -0.1730  1.4768 -1.6266
  547TIP3    H223201   4.643   3.503   2.915  0.9080  0.3144  1.7751
  548TIP3   OH223202   4.447   4.965   0.177  0.2206  0.3322 -0.1125
  548TIP3    H123203   4.500   4.904   0.229  0.2130  1.1046  0.8180
  548TIP3    H223204   4.369   4.914   0.153  2.8687 -2.2651 -4.8745
  549TIP3   OH223205   6.692   2.284   1.758  0.0221 -0.2145 -0.1118
  549TIP3    H123206   6.675   2.219   1.827  2.0344 -0.7559 -0.0699
  549TIP3    H223207   6.778   2.261   1.724  0.6350  2.2173 -0.3869
  550TIP3   OH223208   6.394   1.136   3.321  0.3187 -0.0728 -0.2484
  550TIP3    H123209   6.318   1.165   3.269  0.2704 -0.1178 -0.2030
  550TIP3    H223210   6.459   1.205   3.309 -0.6374  1.2699  1.7756
  551TIP3   OH223211   1.079   2.865   3.803  0.1691  0.0673 -0.2793
  551TIP3    H123212   1.076   2.770   3.814 -1.3525  0.3275  2.3264
  551TIP3    H223213   1.160   2.892   3.846 -0.0979  0.0389  0.2562
  552TIP3   OH223214   5.303   3.749   0.305 -0.6454  0.2371 -0.0339
  552TIP3    H123215   5.345   3.662   0.308 -1.4803 -0.1627  0.2560
  552TIP3    H223216   5.282   3.768   0.396  0.5877  1.2895  0.0685
  553TIP3   OH223217   2.325   4.156   0.768  0.1330  0.4042 -0.5207
  553TIP3    H123218   2.237   4.188   0.785  0.1223  0.5729 -0.8768
  553TIP3    H223219   2.380   4.203   0.832 -0.0655  0.1077 -0.1280
  554TIP3   OH223220   0.536   2.731   2.395  0.6227 -0.3372 -0.8502
  554TIP3    H123221   0.523   2.637   2.404  1.8796 -0.3477  1.4053
  554TIP3    H223222   0.630   2.744   2.407  0.1530  1.4105  1.6505
  555TIP3   OH223223   2.614   2.886   0.291 -0.0874 -0.5214  0.7260
  555TIP3    H123224   2.678   2.849   0.351 -0.4552 -3.4440 -0.5333
  555TIP3    H223225   2.588   2.813   0.235 -1.3932  1.5382 -1.5556
  556TIP3   OH223226   3.893   2.222   1.360  0.1176 -0.4147  0.0856
  556TIP3    H123227   3.938   2.216   1.444 -1.6689  0.8746  1.1959
  556TIP3    H223228   3.922   2.306   1.324  2.9121 -2.0686 -1.9286
  557TIP3   OH223229   4.407   2.484   1.285 -0.3396 -0.1828 -0.1128
  557TIP3    H123230   4.402   2.521   1.197  0.5458 -0.5816 -0.3431
  557TIP3    H223231   4.321   2.503   1.323 -0.5591  0.4458 -0.8740
  558TIP3   OH223232   6.139   0.101   3.408 -0.5457  0.0983 -0.2032
  558TIP3    H123233   6.093   0.020   3.388 -1.4261  0.6756 -0.5611
  558TIP3    H223234   6.225   0.090   3.368 -0.7337 -0.5646 -0.4379
  559TIP3   OH223235   3.413   3.783   2.052 -0.3812 -0.1772 -0.5536
  559TIP3    H123236   3.409   3.875   2.028 -0.9379 -0.0647 -0.0542
  559TIP3    H223237   3.342   3.741   2.004 -0.2388 -0.3133 -0.6471
  560TIP3   OH223238   4.157   1.730   1.218  0.1502  0.2182 -0.1430
  560TIP3    H123239   4.177   1.782   1.140  3.2511  0.3161  0.5581
  560TIP3    H223240   4.101   1.787   1.271 -2.0045  0.1545 -2.1829
  561TIP3   OH223241   1.504   2.051   3.818 -0.0942  0.0709  0.4858
  561TIP3    H123242   1.434   2.002   3.775 -0.7245  1.1792  0.2321
  561TIP3    H223243   1.578   1.990   3.819 -0.2748 -0.2294 -1.5244
  562TIP3   OH223244   1.669   2.263   3.541  0.4050 -0.0943  0.0885
  562TIP3    H123245   1.638   2.221   3.461 -0.1370  0.4134  0.0295
  562TIP3    H223246   1.746   2.313   3.513  0.7622 -0.6424  0.0671
  563TIP3   OH223247   3.577   5.840   3.471  0.0266 -0.1831  0.5421
  563TIP3    H123248   3.541   5.888   3.545  0.9008  1.8180 -0.2579
  563TIP3    H223249   3.543   5.885   3.393  1.9316 -0.0011 -0.2397
  564TIP3   OH223250   6.698   1.723   3.304  0.0838 -0.0565  0.3594
  564TIP3    H123251   6.610   1.706   3.338  0.0542  0.0460  0.3357
  564TIP3    H223252   6.749   1.750   3.380  0.5927 -1.9147  0.7324
  565TIP3   OH223253   3.981   3.242   0.404 -0.1664 -0.1643 -0.3949
  565TIP3    H123254   4.016   3.199   0.482  0.4755 -1.3454 -1.2933
  565TIP3    H223255   4.052   3.300   0.375  0.8266 -1.9457 -1.7467
  566TIP3   OH223256   3.427   0.431   3.623 -0.1794 -0.1748 -0.1280
  566TIP3    H123257   3.418   0.499   3.557  1.3426 -0.6390 -0.8652
  566TIP3    H223258   3.464   0.357   3.576  2.5810  0.0223  1.4970
  567TIP3   OH223259   1.971   3.534   1.238  0.0623  0.6951 -0.0838
  567TIP3    H123260   1.963   3.440   1.220 -0.0717  1.0447 -2.0241
  567TIP3    H223261   1.959   3.541   1.333  0.7666 -1.3111  0.2060
  568TIP3   OH223262   1.092   2.174   3.397  0.1975  0.4983 -0.2126
  568TIP3    H123263   1.123   2.107   3.336  0.8064  1.4629 -0.9818
  568TIP3    H223264   1.163   2.183   3.461 -0.4786 -0.5797  0.7379
  569TIP3   OH223265   5.451   4.552   0.562 -0.5056 -0.8811 -0.2520
  569TIP3    H123266   5.368   4.580   0.524 -0.4166 -1.9164 -1.2737
  569TIP3    H223267   5.510   4.542   0.487  1.0017  1.1562  0.5607
  570TIP3   OH223268   2.987   5.232   0.275 -0.0556  0.2778  0.3144
  570TIP3    H123269   3.057   5.285   0.314 -0.0664  0.0797  0.6147
  570TIP3    H223270   3.017   5.214   0.186  1.5877 -2.0492  1.2428
  571TIP3   OH223271   3.141   2.020   3.216 -0.1622 -0.2020  0.5616
  571TIP3    H123272   3.161   1.962   3.289 -2.1351 -0.7655  0.7159
  571TIP3    H223273   3.098   1.964   3.151  0.6544  0.4855 -0.6260
  572TIP3   OH223274   1.830   5.171   2.247 -0.1811  0.0467 -0.4090
  572TIP3    H123275   1.797   5.154   2.159  0.8520  0.6615 -0.9305
  572TIP3    H223276   1.874   5.255   2.241  0.3152 -0.1231  0.5886
  573TIP3   OH223277   0.949   4.445   0.174  0.1737  0.4399 -0.0875
  573TIP3    H123278   0.949   4.390   0.095 -1.7243  1.2721 -0.7243
  573TIP3    H223279   1.038   4.481   0.178  0.8256 -0.9923 -0.8284
  574TIP3   OH223280   1.651   5.044   0.323 -0.3418 -0.2207  0.3678
  574TIP3    H123281   1.701   4.975   0.367 -0.7326 -1.3144 -0.8737
  574TIP3    H223282   1.566   5.006   0.306 -1.9375  1.8137  2.9831
  575TIP3   OH223283   5.839   2.179   1.166  0.2660 -0.1258  0.4158
  575TIP3    H123284   5.855   2.202   1.257  2.7175 -0.5741  0.1787
  575TIP3    H223285   5.879   2.250   1.116  0.5218 -0.7571 -0.3012
  576TIP3   OH223286   2.048   5.470   4.507  0.5602 -0.1185  0.4450
  576TIP3    H123287   2.136   5.493   4.478  0.9487 -0.8502  1.0334
  576TIP3    H223288   1.996   5.548   4.487  1.4041  0.4449  0.3877
  577TIP3   OH223289   6.611   2.675   0.795  0.2268 -0.6802 -0.0444
  577TIP3    H123290   6.574   2.719   0.719 -1.2963 -2.3967 -0.3720
  577TIP3    H223291   6.616   2.583   0.769 -0.1711 -1.2894  1.8618
  578TIP3   OH223292   3.200   4.287   2.255  0.5520 -0.2323  0.1310
  578TIP3    H123293   3.156   4.350   2.311 -0.2678 -0.7097  0.0529
  578TIP3    H223294   3.133   4.261   2.191  0.9801 -0.8861 -0.0689
  579TIP3   OH223295   5.581   3.412   2.290  0.5357 -0.4366 -0.6097
  579TIP3    H123296   5.499   3.364   2.293  0.2790  0.0192  2.0125
  579TIP3    H223297   5.556   3.504   2.285  0.9524 -0.3633 -1.6592
  580TIP3   OH223298   3.111   2.161   3.979 -0.2058  0.1616 -0.5137
  580TIP3    H123299   3.124   2.080   4.028  1.4941  0.1110 -0.9831
  580TIP3    H223300   3.017   2.165   3.963 -0.5891 -0.5965  1.3804
  581TIP3   OH223301   6.405   3.936   2.979  0.3935  0.0451 -0.4233
  581TIP3    H123302   6.423   3.997   2.907  0.9688 -0.0991 -0.3990
  581TIP3    H223303   6.445   3.976   3.056 -0.6823  0.4664 -0.0641
  582TIP3   OH223304   2.876   5.586   8.006  0.1185 -0.3338  0.2759
  582TIP3    H123305   2.849   5.573   7.915 -1.1219  0.3448  0.5134
  582TIP3    H223306   2.856   5.678   8.024  0.5979 -0.3872  1.1556
  583TIP3   OH223307   2.301   2.120   2.401  0.0159  0.0846  0.4869
  583TIP3    H123308   2.225   2.062   2.392 -1.1280  1.6261 -0.1147
  583TIP3    H223309   2.353   2.103   2.323  0.3928 -1.0770  0.9652
  584TIP3   OH223310   6.384   1.416   1.633  0.0196  0.2230 -0.2120
  584TIP3    H123311   6.436   1.381   1.705 -1.2634 -0.6329  0.3331
  584TIP3    H223312   6.416   1.370   1.555 -1.0443 -1.6210  0.3656
  585TIP3   OH223313   6.272   1.882   2.816 -0.4760 -0.2139  0.1915
  585TIP3    H123314   6.305   1.792   2.817 -1.9822 -0.8020  1.4783
  585TIP3    H223315   6.232   1.893   2.730 -0.7209 -0.9555  0.2049
  586TIP3   OH223316   0.417   0.266   2.770 -0.1139  0.4337  0.1881
  586TIP3    H123317   0.331   0.269   2.812  0.3841  1.7830  1.2042
  586TIP3    H223318   0.403   0.218   2.689 -1.1619 -2.2116  1.8073
  587TIP3   OH223319   3.209   6.055   0.582  0.0157  0.1776 -0.2536
  587TIP3    H123320   3.170   6.127   0.531  0.6176  0.8172  0.1812
  587TIP3    H223321   3.134   6.007   0.616 -0.4050 -0.1938 -1.6395
  588TIP3   OH223322   3.519   2.077   2.268 -0.2720 -0.7159  0.3486
  588TIP3    H123323   3.502   2.136   2.195  0.2511  0.6339  1.2791
  588TIP3    H223324   3.540   1.993   2.227  0.2669  0.0760 -1.0486
  589TIP3   OH223325   0.504   2.068   3.449 -0.0943  0.6153  0.4667
  589TIP3    H123326   0.539   1.997   3.395 -0.4307  0.2586  0.7121
  589TIP3    H223327   0.440   2.026   3.506 -0.3683  1.1332  0.5519
  590TIP3   OH223328   1.946   2.520   8.332 -0.1959 -0.6480 -0.4766
  590TIP3    H123329   1.979   2.580   8.264 -0.1763  0.5341  0.5469
  590TIP3    H223330   1.876   2.471   8.289  1.6403 -1.9444 -2.1881
  591TIP3   OH223331   2.186   5.967   3.273 -0.3329  0.1971  0.4438
  591TIP3    H123332   2.115   5.970   3.337  0.1483 -1.9578  1.1771
  591TIP3    H223333   2.157   5.903   3.208  0.5036  0.0163  0.2344
  592TIP3   OH223334   0.288   3.395   0.773 -0.2828 -0.3918 -0.0021
  592TIP3    H123335   0.373   3.403   0.816 -0.7026 -1.5008  1.1170
  592TIP3    H223336   0.297   3.317   0.717  0.3420  1.1832 -2.2195
  593TIP3   OH223337   2.676   5.259   2.061 -0.2417 -0.3454  0.0612
  593TIP3    H123338   2.649   5.316   1.990  1.3628  2.2879  1.4305
  593TIP3    H223339   2.607   5.270   2.128 -2.2205 -3.4771 -1.2042
  594TIP3   OH223340   0.549   2.809   0.478  0.4248  0.3854 -0.2461
  594TIP3    H123341   0.508   2.872   0.537 -0.4281 -1.1686  0.8903
  594TIP3    H223342   0.632   2.788   0.520  0.7805  0.8309 -0.7045
  595TIP3   OH223343   0.119   1.475   8.376 -1.0676 -0.1130 -0.2542
  595TIP3    H123344   0.180   1.548   8.387  0.8487 -1.2841 -2.2524
  595TIP3    H223345   0.034   1.516   8.362 -0.2372  1.6961 -0.1994
  596TIP3   OH223346   0.744   3.699   2.730  0.0362 -0.0477 -0.5745
  596TIP3    H123347   0.693   3.677   2.652 -0.7548 -1.0947  0.2085
  596TIP3    H223348   0.759   3.615   2.773  2.9108  0.1532 -1.0412
  597TIP3   OH223349   1.027   0.711   0.729 -0.8016  0.8137 -0.3148
  597TIP3    H123350   1.031   0.737   0.821 -0.2821  1.4717 -0.5137
  597TIP3    H223351   1.116   0.722   0.697 -0.7278 -0.5181 -0.6174
  598TIP3   OH223352   4.670   3.059   1.193  0.4252 -0.1712 -0.0914
  598TIP3    H123353   4.635   3.141   1.158 -0.5278 -0.1232  0.9130
  598TIP3    H223354   4.703   3.012   1.117 -2.4544 -0.5039 -1.2491
  599TIP3   OH223355   0.351   6.254   2.561  0.2779 -0.2380 -0.1298
  599TIP3    H123356   0.369   6.164   2.588  0.4455 -0.4902 -1.0635
  599TIP3    H223357   0.436   6.290   2.537  0.2155  0.1842  0.2539
  600TIP3   OH223358   0.075   5.196   3.163 -0.1714  0.3623 -0.6067
  600TIP3    H123359   0.166   5.198   3.191 -0.6045 -1.1547  1.0965
  600TIP3    H223360   0.037   5.277   3.198  0.2506  0.4336 -0.3113
  601TIP3   OH223361   4.369   4.735   2.167  0.3789  0.2746 -0.0403
  601TIP3    H123362   4.289   4.749   2.117  0.2636 -1.7690 -0.5088
  601TIP3    H223363   4.353   4.654   2.216  1.9076  0.1867  0.3698
  602TIP3   OH223364   1.991   2.880   2.162  0.1243  0.2160  0.3831
  602TIP3    H123365   2.059   2.849   2.102 -0.4694  1.6792 -1.1544
  602TIP3    H223366   1.986   2.814   2.230  1.1827 -1.2966 -0.9451
  603TIP3   OH223367   6.537   3.216   3.053 -0.0723  0.3353  0.2683
  603TIP3    H123368   6.497   3.281   3.111 -3.2387 -0.1700 -1.1051
  603TIP3    H223369   6.532   3.134   3.102 -1.2827  0.1932 -0.0523
  604TIP3   OH223370   1.502   5.990   2.033 -0.2161 -0.0466  0.3135
  604TIP3    H123371   1.574   6.031   1.984 -0.8781  0.3044 -0.3941
  604TIP3    H223372   1.426   6.045   2.014 -0.5344 -0.0249  1.5986
  605TIP3   OH223373   0.623   4.297   1.732  0.2527 -0.1611 -0.2360
  605TIP3    H123374   0.573   4.377   1.748 -0.4653 -0.6394 -0.0438
  605TIP3    H223375   0.653   4.269   1.819 -1.4316 -1.3240  0.0361
  606TIP3   OH223376   5.961   3.253   2.138 -0.2813 -0.0366  0.1118
  606TIP3    H123377   6.018   3.327   2.118 -0.4928  0.2193  0.4578
  606TIP3    H223378   5.879   3.272   2.092  0.3272 -1.0341 -1.4849
  607TIP3   OH223379   2.009   6.028   2.893 -0.0335  0.3114 -0.9905
  607TIP3    H123380   1.949   5.953   2.888 -0.3545  0.2228  2.1084
  607TIP3    H223381   2.092   5.994   2.861  0.1480 -1.8765  1.4287
  608TIP3   OH223382   2.936   3.423   1.891  0.2926 -0.4753  0.3283
  608TIP3    H123383   2.848   3.403   1.924  0.3112  0.2483  0.8382
  608TIP3    H223384   2.930   3.412   1.796 -0.6042  0.4894  0.2598
  609TIP3   OH223385   6.758   2.000   3.254 -0.3072  0.8243 -0.1154
  609TIP3    H123386   6.744   2.054   3.176  0.0603 -0.3225 -1.0128
  609TIP3    H223387   6.715   1.917   3.234  1.2384 -0.0917  0.1760
  610TIP3   OH223388   3.645   3.570   2.842  0.6397  0.0289  0.2238
  610TIP3    H123389   3.692   3.643   2.802  1.7801  0.2416  1.8676
  610TIP3    H223390   3.621   3.601   2.930  0.3545 -1.2497  0.6267
  611TIP3   OH223391   1.191   0.951   2.101 -0.0359  0.0856  0.4321
  611TIP3    H123392   1.115   0.893   2.112  0.8664 -0.7568  2.6817
  611TIP3    H223393   1.177   1.021   2.165  0.8577  0.1771  0.5388
  612TIP3   OH223394   6.694   6.251   2.457  0.6574  0.1577 -0.1664
  612TIP3    H123395   6.761   6.188   2.432 -1.2410 -0.9305 -2.9527
  612TIP3    H223396   6.636   6.203   2.517  0.0174 -0.3507 -1.1604
  613TIP3   OH223397   6.467   4.331   2.278 -0.1110 -0.4471  0.0509
  613TIP3    H123398   6.393   4.387   2.255 -0.6867 -1.8262 -1.7277
  613TIP3    H223399   6.531   4.347   2.209  1.0125  0.2282  1.2029
  614TIP3   OH223400   0.937   4.927   2.919 -0.5145  0.1036 -0.4576
  614TIP3    H123401   0.936   4.945   2.825 -1.5332  0.4252 -0.3931
  614TIP3    H223402   0.847   4.943   2.948 -0.5006 -1.1418  0.3629
  615TIP3   OH223403   6.831   5.489   1.348 -0.1975  0.3889 -0.2171
  615TIP3    H123404   6.889   5.462   1.419 -0.6973 -0.2776 -0.0499
  615TIP3    H223405   6.779   5.411   1.329 -2.7776  1.5701  1.3259
  616TIP3   OH223406   5.901   3.156   8.260  0.0351  0.0244 -0.3064
  616TIP3    H123407   5.847   3.225   8.222  0.4323 -0.1424 -1.1980
  616TIP3    H223408   5.849   3.077   8.251 -0.2716  0.1316  0.3965
  617TIP3   OH223409   6.090   1.674   0.949 -0.5624 -0.8167  0.6414
  617TIP3    H123410   6.084   1.762   0.987  2.7570 -0.8427  1.5241
  617TIP3    H223411   6.040   1.680   0.867 -2.1990  1.2186  1.7006
  618TIP3   OH223412   3.442   4.089   0.307 -0.3858 -0.2041 -0.1952
  618TIP3    H123413   3.526   4.077   0.264 -1.1283 -2.1310 -1.2223
  618TIP3    H223414   3.454   4.166   0.363  2.6933 -1.6190  1.3099
  619TIP3   OH223415   5.370   0.360   0.617  0.2337  0.5435 -0.5869
  619TIP3    H123416   5.299   0.395   0.563 -0.4763  0.1722  0.0733
  619TIP3    H223417   5.393   0.431   0.676  0.5933  0.7484 -0.9683
  620TIP3   OH223418   1.721   3.067   3.526  0.2007 -0.3389 -1.4179
  620TIP3    H123419   1.714   3.106   3.613 -2.8336 -1.1453 -1.1933
  620TIP3    H223420   1.810   3.032   3.523  1.1532  1.6984  0.4417
  621TIP3   OH223421   4.360   0.520   3.630 -0.4720 -0.1434 -0.5724
  621TIP3    H123422   4.440   0.481   3.664 -0.7325 -0.7997 -0.7003
  621TIP3    H223423   4.384   0.553   3.543 -0.1627  0.2964 -0.3218
  622TIP3   OH223424   6.647   4.835   0.539  0.0313 -0.0720  0.5602
  622TIP3    H123425   6.562   4.835   0.583 -0.9783  3.1688 -1.0499
  622TIP3    H223426   6.698   4.900   0.589  0.5915 -0.0216 -0.0775
  623TIP3   OH223427   4.611   0.212   2.459  0.0796 -0.0778 -0.1153
  623TIP3    H123428   4.606   0.306   2.440  0.9932  0.2409  1.1026
  623TIP3    H223429   4.539   0.174   2.408 -0.2290  1.2549 -0.7335
  624TIP3   OH223430   1.540   4.937   2.113 -0.3630 -0.2979  0.2218
  624TIP3    H123431   1.580   4.938   2.026 -0.6484 -1.0582  0.0708
  624TIP3    H223432   1.550   4.846   2.143 -0.9410 -0.2247  0.6641
  625TIP3   OH223433   2.205   5.054   0.343 -0.1176  0.1887 -0.3193
  625TIP3    H123434   2.239   5.010   0.421 -0.3236  1.4097  0.4876
  625TIP3    H223435   2.117   5.083   0.369 -0.3456  0.2460 -1.1470
  626TIP3   OH223436   1.433   4.156   1.975  0.1380 -0.7605 -0.5043
  626TIP3    H123437   1.344   4.121   1.972  0.5556 -1.8171 -2.2502
  626TIP3    H223438   1.451   4.168   2.068 -1.5254 -1.2979 -0.0740
  627TIP3   OH223439   2.261   6.115   4.418  0.3928 -0.2035  0.3788
  627TIP3    H123440   2.314   6.059   4.475 -0.0547 -2.4009 -1.2336
  627TIP3    H223441   2.319   6.135   4.344 -0.0276 -0.0043  0.1049
  628TIP3   OH223442   2.982   4.741   3.838  0.4784 -0.1446 -0.0564
  628TIP3    H123443   2.901   4.788   3.859  0.1762 -1.0919  1.0290
  628TIP3    H223444   2.954   4.649   3.832  0.9213 -0.1976 -2.7562
  629TIP3   OH223445   5.958   1.151   0.225  0.5184 -0.1668 -0.3562
  629TIP3    H123446   5.963   1.241   0.259  0.6206 -0.0440 -0.6852
  629TIP3    H223447   5.946   1.163   0.131  0.7644 -0.5000 -0.4289
  630TIP3   OH223448   4.397   4.568   3.210 -0.5033 -0.4015 -0.0543
  630TIP3    H123449   4.480   4.564   3.162 -0.0319  0.9901  0.5801
  630TIP3    H223450   4.417   4.622   3.287 -2.0527  0.1404  0.0064
  631TIP3   OH223451   3.728   2.736   3.521  0.5602 -0.3872  0.1422
  631TIP3    H123452   3.678   2.662   3.486 -1.2868  1.2821 -0.9153
  631TIP3    H223453   3.731   2.721   3.615 -1.1001 -1.0691  0.1212
  632TIP3   OH223454   2.224   1.146   2.011 -0.2201 -0.1966 -0.5505
  632TIP3    H123455   2.296   1.124   1.950 -0.6350 -0.2305 -1.0370
  632TIP3    H223456   2.160   1.077   1.996  0.1053 -0.7801  0.6666
  633TIP3   OH223457   2.579   2.527   3.938 -0.7419  0.0652 -0.1435
  633TIP3    H123458   2.494   2.484   3.938 -0.8027  0.1640  0.4977
  633TIP3    H223459   2.601   2.536   4.031  0.0357 -0.0878 -0.3037
  634TIP3   OH223460   4.824   4.278   4.478 -0.1751  0.5447  0.0564
  634TIP3    H123461   4.880   4.353   4.457  1.5434 -1.1134 -1.7996
  634TIP3    H223462   4.886   4.211   4.508 -1.4653 -0.6174  0.1931
  635TIP3   OH223463   4.162   0.438   2.829 -0.2545 -0.6573 -0.0114
  635TIP3    H123464   4.068   0.423   2.841 -0.3209  0.1546  0.5190
  635TIP3    H223465   4.171   0.532   2.813  0.7743  0.1129  3.9054
  636TIP3   OH223466   0.024   3.401   0.892 -0.6001 -0.1854 -0.3594
  636TIP3    H123467   0.026   3.489   0.928  0.2925  0.2671 -1.4578
  636TIP3    H223468   0.116   3.375   0.885 -0.8647 -1.4199  0.4282
  637TIP3   OH223469   2.489   4.792   2.961 -0.2068  0.4395  0.4111
  637TIP3    H123470   2.469   4.700   2.946  0.2200  0.4872 -0.5102
  637TIP3    H223471   2.495   4.800   3.056  0.6174 -0.6748  0.4746
  638TIP3   OH223472   5.398   2.566   3.092  0.9033  0.0504  0.1317
  638TIP3    H123473   5.480   2.589   3.136  1.5826 -1.0753 -0.4879
  638TIP3    H223474   5.349   2.515   3.156  1.7716 -1.3557 -0.2940
  639TIP3   OH223475   2.034   6.080   4.283 -0.3713  0.1436  0.3574
  639TIP3    H123476   2.028   5.988   4.255  0.4285  0.8510 -2.4281
  639TIP3    H223477   2.118   6.086   4.328 -0.4984 -0.5134  0.6952
  640TIP3   OH223478   2.063   2.969   2.799 -0.2251 -0.0241 -0.5752
  640TIP3    H123479   2.104   2.896   2.752  0.2644 -0.0271 -0.1443
  640TIP3    H223480   2.102   3.048   2.761 -1.3525  0.0551 -1.6103
  641TIP3   OH223481   3.310   5.824   1.406 -0.5723  0.6059  0.1583
  641TIP3    H123482   3.306   5.763   1.332  0.5049  0.3488  0.2974
  641TIP3    H223483   3.286   5.771   1.482  0.0283  0.4257  0.2299
  642TIP3   OH223484   2.839   4.696   2.452 -0.4361 -0.1052 -0.0022
  642TIP3    H123485   2.892   4.728   2.526 -1.8611 -2.8437  2.4303
  642TIP3    H223486   2.752   4.733   2.468 -0.5266  0.0791 -0.9053
  643TIP3   OH223487   3.623   2.972   3.688  0.1225 -0.1741 -0.8990
  643TIP3    H123488   3.665   2.919   3.621  1.1544  1.0728 -1.2804
  643TIP3    H223489   3.669   3.056   3.685 -0.5957  0.3151  0.5598
  644TIP3   OH223490   1.031   0.827   2.594  0.2299 -0.0324 -0.2584
  644TIP3    H123491   1.076   0.787   2.519 -2.5607 -1.0579 -1.5471
  644TIP3    H223492   1.028   0.758   2.660  0.1014 -0.1518 -0.3871
  645TIP3   OH223493   2.977   3.046   8.008 -0.2465 -0.0031  0.1723
  645TIP3    H123494   3.013   3.134   7.993  1.8152 -0.5264  1.6540
  645TIP3    H223495   3.050   2.996   8.045 -2.0529 -1.6475  1.7214
  646TIP3   OH223496   0.715   0.268   1.237  0.3454 -0.6183  0.2113
  646TIP3    H123497   0.761   0.226   1.165 -0.1069  0.3371 -0.6482
  646TIP3    H223498   0.679   0.348   1.200 -1.9292 -1.2618  0.8841
  647TIP3   OH223499   2.428   5.429   3.080 -0.1961  0.2659 -0.2388
  647TIP3    H123500   2.366   5.386   3.022 -0.6822 -0.6582  0.9248
  647TIP3    H223501   2.382   5.507   3.111  0.1154  0.8341 -1.1687
  648TIP3   OH223502   1.920   0.152   3.142  0.2199  0.1438  0.1127
  648TIP3    H123503   1.902   0.168   3.235 -0.0935 -1.7182  0.4164
  648TIP3    H223504   1.835   0.128   3.105 -0.0883  2.7966 -1.1738
  649TIP3   OH223505   0.682   1.386   3.806  0.1094  0.6121 -0.0056
  649TIP3    H123506   0.746   1.325   3.770 -0.3849  0.4635 -0.6330
  649TIP3    H223507   0.607   1.331   3.830 -0.4059  0.9934 -0.7319
  650TIP3   OH223508   4.480   1.488   2.834  0.4970  0.4825 -0.2530
  650TIP3    H123509   4.507   1.425   2.901 -1.6166 -1.0951 -0.7785
  650TIP3    H223510   4.479   1.572   2.880  0.7084 -0.2895  1.2435
  651TIP3   OH223511   3.626   5.370   8.356  0.6158 -0.1877 -0.4472
  651TIP3    H123512   3.539   5.334   8.373  0.5539  0.1230 -0.0843
  651TIP3    H223513   3.656   5.324   8.278 -0.7856  1.2577 -1.9073
  652TIP3   OH223514   4.627   3.653   3.162  0.4163 -0.8340 -0.0902
  652TIP3    H123515   4.546   3.702   3.145  0.1264 -1.7075 -1.3482
  652TIP3    H223516   4.623   3.634   3.256  0.0046  0.5763  0.2116
  653TIP3   OH223517   5.200   4.629   0.447 -0.0467  0.1019  0.0786
  653TIP3    H123518   5.124   4.681   0.419 -0.1881 -0.7108 -1.1580
  653TIP3    H223519   5.177   4.539   0.423  0.4520 -0.4613  1.6133
  654TIP3   OH223520   6.858   1.297   1.886  0.3319 -0.2143  0.6747
  654TIP3    H123521   6.919   1.313   1.958 -1.9843  0.0771  2.7023
  654TIP3    H223522   6.844   1.202   1.887  0.8500 -0.3032  0.0953
  655TIP3   OH223523   6.614   3.134   3.407  0.0326 -0.4196  0.2240
  655TIP3    H123524   6.545   3.099   3.350  0.6697 -1.6712  0.1647
  655TIP3    H223525   6.695   3.105   3.365  0.5611  0.1026  0.8656
  656TIP3   OH223526   2.554   0.736   1.310  0.5290  1.0236  0.1773
  656TIP3    H123527   2.544   0.646   1.342  0.9300  0.9990  0.2395
  656TIP3    H223528   2.487   0.744   1.242  0.8125  0.5166 -0.1725
  657TIP3   OH223529   2.828   0.340   1.287 -0.1188  0.7685 -0.1140
  657TIP3    H123530   2.816   0.429   1.252 -1.5227  1.1059  1.1405
  657TIP3    H223531   2.773   0.285   1.230 -0.5834  0.9657  0.1394
  658TIP3   OH223532   1.285   1.920   1.791 -0.5257  0.0943  0.3873
  658TIP3    H123533   1.359   1.980   1.802 -0.0693 -0.6596  1.7158
  658TIP3    H223534   1.253   1.937   1.703  0.5688  1.1803  0.1674
  659TIP3   OH223535   4.796   1.972   2.661 -0.2250  0.2082  0.2240
  659TIP3    H123536   4.858   1.913   2.618 -1.1349 -1.2298  0.8266
  659TIP3    H223537   4.785   2.044   2.599 -1.4797 -1.7667 -2.0060
  660TIP3   OH223538   4.980   2.942   0.756  0.2977 -0.2347 -0.0513
  660TIP3    H123539   5.063   2.929   0.802  0.7746  0.8131 -0.5603
  660TIP3    H223540   4.997   3.017   0.698 -1.5739  1.2781  1.2506
  661TIP3   OH223541   2.060   5.303   2.493  0.3394  0.1071 -0.3618
  661TIP3    H123542   1.970   5.280   2.472 -0.5767  1.2483  1.9441
  661TIP3    H223543   2.091   5.352   2.417 -1.4911  0.9381 -0.6208
  662TIP3   OH223544   5.952   2.003   1.576 -0.0368  0.7725 -0.8845
  662TIP3    H123545   5.873   1.959   1.545  0.2983  0.9399 -2.0461
  662TIP3    H223546   5.930   2.033   1.664 -0.9986  0.1533 -0.8927
  663TIP3   OH223547   4.964   3.167   2.752  0.2114  0.2920  0.1035
  663TIP3    H123548   4.891   3.113   2.781 -2.2931  2.1385 -2.2287
  663TIP3    H223549   4.989   3.218   2.829 -1.0963 -0.2325  0.9069
  664TIP3   OH223550   6.882   2.675   1.617 -0.5571  0.5083 -0.3223
  664TIP3    H123551   6.822   2.611   1.577  0.0530  0.2341 -0.8145
  664TIP3    H223552   6.842   2.760   1.598 -2.0193  0.2765  1.3723
  665TIP3   OH223553   2.691   2.912   1.689 -0.0128  0.4954 -0.2288
  665TIP3    H123554   2.706   2.905   1.594 -3.0615 -0.9666 -0.7483
  665TIP3    H223555   2.670   3.004   1.703  1.5376  0.9487 -0.7464
  666TIP3   OH223556   0.099   6.479   8.012  0.1130 -0.1236 -0.5374
  666TIP3    H123557   0.155   6.425   8.068  1.3936  0.1175 -1.5547
  666TIP3    H223558   0.157   6.547   7.978 -1.3678  1.6692  0.3695
  667TIP3   OH223559   6.126   1.611   0.532 -0.6737  0.0150 -0.0148
  667TIP3    H123560   6.050   1.573   0.576 -0.0000 -1.7987 -0.3300
  667TIP3    H223561   6.110   1.597   0.439 -0.4144  0.5320 -0.1398
  668TIP3   OH223562   1.056   0.994   2.816  0.3174 -0.0719  0.5903
  668TIP3    H123563   1.051   0.948   2.733 -3.1830 -1.9960  1.6284
  668TIP3    H223564   0.994   1.066   2.807 -0.7793 -0.8197  1.6937
  669TIP3   OH223565   1.857   6.306   3.939  0.5524  1.1175  0.2952
  669TIP3    H123566   1.869   6.235   4.002 -0.5019  2.4210  2.0623
  669TIP3    H223567   1.905   6.277   3.861  0.0422 -1.5748  0.8662
  670TIP3   OH223568   2.869   2.630   1.302  0.7428 -0.1769  0.2777
  670TIP3    H123569   2.945   2.580   1.271  1.6957 -0.3839  2.7435
  670TIP3    H223570   2.843   2.586   1.383 -0.9353  0.9437  0.3954
  671TIP3   OH223571   3.245   3.990   2.898 -0.4257  0.0364 -0.5779
  671TIP3    H123572   3.233   3.946   2.815  0.3197 -0.5066 -0.4082
  671TIP3    H223573   3.239   4.084   2.877  0.1020 -0.0866 -1.2941
  672TIP3   OH223574   3.707   2.176   4.055  0.1488 -0.1744  0.4450
  672TIP3    H123575   3.626   2.132   4.030  0.6956 -1.1395  0.3401
  672TIP3    H223576   3.724   2.148   4.145 -0.1827  0.8635  0.8482
  673TIP3   OH223577   6.212   0.036   1.622  0.1852 -0.0574 -0.3558
  673TIP3    H123578   6.292   0.062   1.666 -0.3088 -0.8287  1.0516
  673TIP3    H223579   6.169   0.118   1.598  1.9276  0.3875 -2.2189
  674TIP3   OH223580   0.069   1.405   3.715 -0.0146  0.3048 -0.1700
  674TIP3    H123581  -0.008   1.387   3.768  1.1037 -0.1651  1.3806
  674TIP3    H223582   0.085   1.499   3.727 -0.4879  0.4586 -0.7126
  675TIP3   OH223583   2.600   6.165   1.771 -0.6318  0.0694  0.4348
  675TIP3    H123584   2.560   6.140   1.687  0.4207 -3.3060  0.7776
  675TIP3    H223585   2.533   6.147   1.836 -0.7335  0.6594  0.4953
  676TIP3   OH223586   1.614   2.376   3.783 -0.5713  0.0392 -0.0262
  676TIP3    H123587   1.536   2.359   3.837 -1.6948  0.4034 -1.4587
  676TIP3    H223588   1.609   2.310   3.714  0.5934 -0.1296  0.0320
  677TIP3   OH223589   2.687   4.148   4.370 -0.2620 -0.7837 -0.1607
  677TIP3    H123590   2.650   4.236   4.379  0.7715 -0.0056 -2.6826
  677TIP3    H223591   2.741   4.137   4.448 -2.3150 -0.2348  1.4420
  678TIP3   OH223592   6.658   3.996   1.505 -0.3671  0.0679  0.2116
  678TIP3    H123593   6.694   4.026   1.588 -1.2611 -0.9902  1.0145
  678TIP3    H223594   6.585   4.055   1.487 -0.7139 -0.2308  0.6290
  679TIP3   OH223595   0.330   3.385   1.710  0.0878  0.4170  0.2817
  679TIP3    H123596   0.395   3.392   1.640 -0.9810  2.3537 -0.6162
  679TIP3    H223597   0.284   3.470   1.708 -2.7235 -0.9751  0.5799
  680TIP3   OH223598   1.940   4.491   2.917  0.6711  0.0243  0.1197
  680TIP3    H123599   1.999   4.466   2.987  0.5900  1.0268  0.5532
  680TIP3    H223600   1.997   4.512   2.843  0.8853  1.1914  0.6009
  681TIP3   OH223601   1.042   1.472   3.765 -0.2403  0.2409  0.3436
  681TIP3    H123602   1.086   1.408   3.821 -0.8358 -0.4769  0.0190
  681TIP3    H223603   1.042   1.553   3.815 -0.3206 -0.2616  1.1768
  682TIP3   OH223604   3.768   4.594   1.773  0.6898  0.1489 -0.2964
  682TIP3    H123605   3.732   4.677   1.742 -1.0554 -0.6563 -0.5730
  682TIP3    H223606   3.768   4.603   1.868  1.8738  0.9735 -0.3501
  683TIP3   OH223607   1.696   0.407   1.759 -0.1162 -0.2610  0.2861
  683TIP3    H123608   1.720   0.496   1.732 -0.9670  1.0897  3.5107
  683TIP3    H223609   1.625   0.382   1.699 -0.1561  1.3966 -0.4186
  684TIP3   OH223610   2.311   4.609   4.380 -0.0173 -0.5119  0.1949
  684TIP3    H123611   2.381   4.662   4.341 -1.0636  0.4146 -0.5174
  684TIP3    H223612   2.231   4.640   4.337 -1.0076 -0.7699  1.7480
  685TIP3   OH223613   5.277   4.700   4.272  0.4530  0.5483  0.3628
  685TIP3    H123614   5.305   4.641   4.202  2.3525 -1.0677  2.3413
  685TIP3    H223615   5.181   4.694   4.271  0.4910 -0.5535 -1.1216
  686TIP3   OH223616   4.715   4.983   0.543 -0.3029  0.3723 -0.0694
  686TIP3    H123617   4.642   5.036   0.575  0.1985  0.4493  1.0100
  686TIP3    H223618   4.793   5.024   0.581  0.0759 -1.2862  1.1040
  687TIP3   OH223619   5.481   5.943   3.394  0.4968 -0.0877 -0.0200
  687TIP3    H123620   5.453   5.875   3.455  2.1084 -1.4031 -0.6648
  687TIP3    H223621   5.574   5.956   3.414  0.4943  1.0980 -0.6945
  688TIP3   OH223622   5.568   6.019   2.997  0.0365  0.2977  0.3793
  688TIP3    H123623   5.526   5.951   3.049 -1.2636  0.5537 -0.3007
  688TIP3    H223624   5.598   6.083   3.061 -0.2248 -0.1015  0.9098
  689TIP3   OH223625   5.767   5.645   2.710  0.5340 -0.2129 -0.5954
  689TIP3    H123626   5.717   5.615   2.634 -1.2551  1.1121  0.0002
  689TIP3    H223627   5.856   5.658   2.676 -0.0714 -0.3030 -2.3028
  690TIP3   OH223628   0.507   0.022   2.376  0.2772 -0.0692 -0.0892
  690TIP3    H123629   0.468   0.099   2.418  0.6175 -0.9292  1.9218
  690TIP3    H223630   0.575   0.058   2.320 -1.1078  1.2295 -1.0221
  691TIP3   OH223631   1.821   6.877   8.223  0.3850 -0.1924  0.4889
  691TIP3    H123632   1.769   6.868   8.303  1.3092 -0.8163  1.0306
  691TIP3    H223633   1.806   6.796   8.175 -0.1059  0.1484  0.0441
  692TIP3   OH223634   3.451   0.491   1.622 -0.0572  0.4889 -0.5738
  692TIP3    H123635   3.502   0.422   1.579 -1.1317  0.2450 -1.4904
  692TIP3    H223636   3.517   0.542   1.669  0.9874 -0.0736 -1.3597
  693TIP3   OH223637   2.854   6.229   3.138  0.3166  0.0833  0.0290
  693TIP3    H123638   2.779   6.170   3.140 -0.4618  1.0475  0.1322
  693TIP3    H223639   2.923   6.182   3.183 -0.9756  0.1374  2.2301
  694TIP3   OH223640   6.065   3.149   0.061 -0.6605 -0.0124  0.3690
  694TIP3    H123641   6.018   3.221   0.103  0.3455  2.3690 -2.2509
  694TIP3    H223642   6.062   3.170  -0.033  2.3368 -1.7059 -0.2482
  695TIP3   OH223643   5.818   5.935   1.135  0.1323 -0.0004  0.4389
  695TIP3    H123644   5.743   5.928   1.194  0.3310 -0.8426  0.6105
  695TIP3    H223645   5.814   5.857   1.081  1.2952 -0.4595  0.9619
  696TIP3   OH223646   5.265   1.921   4.236  0.1254 -0.0059  0.3952
  696TIP3    H123647   5.221   1.900   4.318  2.0098 -1.4645  1.1149
  696TIP3    H223648   5.294   2.011   4.247  1.0659 -0.4365  1.7240
  697TIP3   OH223649   5.681   6.802   2.296  0.0695 -0.6605 -0.0337
  697TIP3    H123650   5.599   6.773   2.256 -0.4642  0.8515 -0.1309
  697TIP3    H223651   5.748   6.780   2.231 -0.2146 -2.1116  0.1433
  698TIP3   OH223652   3.458   4.647   2.315  0.1508  0.0003 -0.0418
  698TIP3    H123653   3.458   4.694   2.232  1.0268 -0.4843 -0.3238
  698TIP3    H223654   3.375   4.598   2.315  0.5888 -0.7718 -1.0833
  699TIP3   OH223655   5.400   3.400   3.446 -0.5612 -0.0399 -0.1259
  699TIP3    H123656   5.476   3.361   3.489 -0.4915  1.1436  0.8915
  699TIP3    H223657   5.325   3.367   3.495 -0.6758 -0.7850 -0.7923
  700TIP3   OH223658   1.366   2.817   1.883  0.2941 -0.6127  0.4784
  700TIP3    H123659   1.384   2.811   1.977  0.6915  2.1119  0.6745
  700TIP3    H223660   1.404   2.901   1.857 -2.4010  0.1245 -1.4952
  701TIP3   OH223661   2.593   0.196   0.656 -0.2316  0.2074 -0.0678
  701TIP3    H123662   2.553   0.260   0.598  1.3345  2.1920  0.9382
  701TIP3    H223663   2.524   0.175   0.719 -0.8871  0.6005 -0.6365
  702TIP3   OH223664   3.950   6.858   1.098 -0.8330 -0.3019  0.2498
  702TIP3    H123665   3.963   6.827   1.188 -0.8745 -3.5734 -0.7349
  702TIP3    H223666   3.870   6.910   1.102 -1.8902 -1.9244  1.8292
  703TIP3   OH223667   6.171   0.476   1.132  0.6588  0.0222  0.4678
  703TIP3    H123668   6.258   0.473   1.092  1.1713 -1.0248  1.6107
  703TIP3    H223669   6.146   0.384   1.143  0.4984  0.2533  2.4335
  704TIP3   OH223670   3.436   1.005   2.067  0.1713 -0.3219  0.0106
  704TIP3    H123671   3.420   0.943   2.138  1.7092 -0.8272 -0.0424
  704TIP3    H223672   3.526   0.987   2.039  1.2330  2.8032  0.9061
  705TIP3   OH223673   3.481   4.720   3.597 -0.0205 -0.3286  0.2386
  705TIP3    H123674   3.539   4.692   3.669  1.2932  1.7319  0.0837
  705TIP3    H223675   3.402   4.750   3.641  0.3183 -0.1615  0.7506
  706TIP3   OH223676   6.747   2.419   3.814 -0.0730  0.2318  0.3664
  706TIP3    H123677   6.819   2.410   3.752  0.0464 -1.5958  0.7159
  706TIP3    H223678   6.749   2.512   3.839 -0.0149  0.9860 -2.1594
  707TIP3   OH223679   1.947   5.729   1.093  0.4983 -0.0115 -0.0868
  707TIP3    H123680   1.888   5.657   1.114  0.2190  0.5931  1.2756
  707TIP3    H223681   1.965   5.719   0.999 -0.3714 -1.2230 -0.1362
  708TIP3   OH223682   3.269   2.640   0.209  0.0353 -0.1615  0.1093
  708TIP3    H123683   3.198   2.649   0.145 -0.4461 -0.6983  0.5523
  708TIP3    H223684   3.342   2.689   0.171 -0.4411  0.0541 -0.5517
  709TIP3   OH223685   0.073   2.829   1.850  0.0919  0.1779  0.2950
  709TIP3    H123686   0.065   2.734   1.859  0.4616  0.2109  1.0341
  709TIP3    H223687   0.053   2.846   1.758 -1.5521 -0.4444  0.4939
  710TIP3   OH223688   2.595   5.654   4.421 -0.5506  0.0447 -0.0835
  710TIP3    H123689   2.530   5.718   4.392  0.6063  1.1792 -0.2384
  710TIP3    H223690   2.679   5.691   4.395  0.2669 -0.7523  1.2913
  711TIP3   OH223691   3.978   5.903   4.073 -0.0350 -0.6991  0.5065
  711TIP3    H123692   4.010   5.818   4.043  0.4517 -0.9658  1.7291
  711TIP3    H223693   3.883   5.893   4.077 -0.0095 -1.0560  0.2539
  712TIP3   OH223694   0.763   5.626   0.184 -0.6926  0.5403 -0.0447
  712TIP3    H123695   0.713   5.607   0.105 -0.3999 -0.6399  0.0372
  712TIP3    H223696   0.791   5.717   0.174 -0.7912  0.4466 -1.2227
  713TIP3   OH223697   2.489   4.724   0.881 -0.1220 -0.3866 -0.5421
  713TIP3    H123698   2.429   4.652   0.899 -2.2241  1.4610  0.2538
  713TIP3    H223699   2.438   4.785   0.827  2.0438 -0.0673 -2.4102
  714TIP3   OH223700   5.588   5.912   2.482  0.0817  0.0252  0.1605
  714TIP3    H123701   5.570   6.000   2.515 -0.9441 -0.5549  1.1788
  714TIP3    H223702   5.597   5.858   2.560  2.3535 -0.5087 -0.3836
  715TIP3   OH223703   5.431   6.486   8.165 -0.4825  0.4861  0.4101
  715TIP3    H123704   5.488   6.477   8.241 -1.4061 -0.2097  1.0402
  715TIP3    H223705   5.419   6.396   8.133 -0.0977  0.7730 -0.5650
  716TIP3   OH223706   5.497   6.053   1.316  0.2511  0.7698  0.2275
  716TIP3    H123707   5.540   5.974   1.348  2.4469  1.8605  0.1679
  716TIP3    H223708   5.456   6.091   1.393 -0.9870 -0.4812  0.2213
  717TIP3   OH223709   0.675   6.235   1.249 -0.5051 -0.9120 -0.3467
  717TIP3    H123710   0.581   6.235   1.269 -0.3757  0.6440  0.4330
  717TIP3    H223711   0.708   6.154   1.290 -1.4299 -1.2423 -0.2337
  718TIP3   OH223712   4.437   2.091   3.626 -0.1672  0.4322 -0.3670
  718TIP3    H123713   4.416   2.131   3.542  0.4480  0.9935 -0.2655
  718TIP3    H223714   4.475   2.163   3.678  0.3731 -0.1326  0.0418
  719TIP3   OH223715   2.333   3.576   0.699 -0.5075 -1.1089  0.2384
  719TIP3    H123716   2.284   3.657   0.710  0.3423 -0.4552 -0.6890
  719TIP3    H223717   2.420   3.595   0.733  0.0697 -1.2183 -1.1310
  720TIP3   OH223718   2.578   3.814   1.313  0.3090  0.2817  0.0833
  720TIP3    H123719   2.501   3.783   1.266 -0.3772 -1.3837  2.1807
  720TIP3    H223720   2.648   3.755   1.284 -0.0649 -0.6043  0.9248
  721TIP3   OH223721   3.134   3.001   2.149  0.1406  0.3591 -0.5563
  721TIP3    H123722   3.101   3.086   2.121 -1.3936 -0.2809 -0.8248
  721TIP3    H223723   3.106   2.940   2.081  0.8215 -0.4312 -0.1520
  722TIP3   OH223724   1.660   1.498   1.535 -0.2554 -0.0119  0.3227
  722TIP3    H123725   1.639   1.578   1.583  0.4963  0.9308 -0.8744
  722TIP3    H223726   1.706   1.528   1.457 -0.2357 -1.5995 -0.3101
  723TIP3   OH223727   2.020   2.336   0.924  0.1549  0.0776  0.2080
  723TIP3    H123728   2.017   2.257   0.871 -1.5919  0.3813 -0.2215
  723TIP3    H223729   2.041   2.306   1.012 -0.0243 -0.8127 -0.0476
  724TIP3   OH223730   5.243   4.246   3.282 -0.0221 -0.2088  0.4501
  724TIP3    H123731   5.323   4.300   3.285 -0.2018  0.1952 -0.9511
  724TIP3    H223732   5.263   4.180   3.216 -1.0440  0.2608 -0.3512
  725TIP3   OH223733   4.246   4.083   0.366  0.5431 -0.0089 -0.4960
  725TIP3    H123734   4.222   4.148   0.432 -0.8074 -1.1094  0.1476
  725TIP3    H223735   4.338   4.063   0.385  1.1373  1.9994 -1.0105
  726TIP3   OH223736   4.875   5.584   1.656  0.1513  0.1426  0.2812
  726TIP3    H123737   4.934   5.509   1.669  0.4033 -0.0204 -1.6116
  726TIP3    H223738   4.855   5.613   1.745  0.3612 -1.9185  1.0645
  727TIP3   OH223739   2.764   4.690   0.372  0.1106  0.2499 -0.0955
  727TIP3    H123740   2.827   4.758   0.395  1.2814 -0.7204 -0.3213
  727TIP3    H223741   2.721   4.722   0.292  1.3303  0.3109 -0.7487
  728TIP3   OH223742   5.604   3.876   2.275  0.2836  0.9800 -0.2428
  728TIP3    H123743   5.608   3.945   2.209 -2.3858  1.6736  0.1986
  728TIP3    H223744   5.577   3.920   2.355 -1.9710 -0.5295 -0.0544
  729TIP3   OH223745   6.016   6.162   3.265  0.2954 -0.1251 -0.2427
  729TIP3    H123746   6.005   6.115   3.182  0.1657 -0.2947 -0.1288
  729TIP3    H223747   5.995   6.098   3.332 -2.0998  0.6880 -0.1144
  730TIP3   OH223748   2.682   3.482   2.245  0.5308  0.0011  0.3121
  730TIP3    H123749   2.743   3.414   2.216  2.6212  0.4616  3.1829
  730TIP3    H223750   2.738   3.552   2.278 -1.5784  1.6823  0.5741
  731TIP3   OH223751   6.244   1.359   1.935 -0.1908  0.4889 -0.2212
  731TIP3    H123752   6.332   1.321   1.931 -0.1612  0.1809  2.1351
  731TIP3    H223753   6.196   1.315   1.865  0.8753 -1.1581  0.0287
  732TIP3   OH223754   3.494   2.160   3.793 -0.1018 -1.1194 -0.2682
  732TIP3    H123755   3.457   2.228   3.849  0.1586  0.8137 -2.2857
  732TIP3    H223756   3.506   2.085   3.850 -1.2725  0.2265  1.8639
  733TIP3   OH223757   5.767   2.399   0.445 -0.6475 -0.3428 -0.0833
  733TIP3    H123758   5.817   2.402   0.364  0.8197 -1.3569  0.7492
  733TIP3    H223759   5.822   2.351   0.506 -1.6017  0.6358  1.6205
  734TIP3   OH223760   3.669   2.156   0.190  0.1950  0.0100  0.3259
  734TIP3    H123761   3.673   2.224   0.122 -0.8227 -0.5659 -0.3329
  734TIP3    H223762   3.595   2.101   0.164  0.1928 -0.5937  1.5629
  735TIP3   OH223763   3.184   5.434   1.462  0.2808 -0.5111  0.2588
  735TIP3    H123764   3.253   5.476   1.514 -2.1058  0.9903  2.4364
  735TIP3    H223765   3.173   5.348   1.502  0.3933 -0.4778  0.3614
  736TIP3   OH223766   0.984   1.297   4.704 -0.8650  0.1929  0.2998
  736TIP3    H123767   0.904   1.256   4.737 -0.6595 -0.9390 -0.5202
  736TIP3    H223768   1.053   1.265   4.763 -0.7132 -0.6394 -0.3058
  737TIP3   OH223769   0.326   2.830   1.004  0.0424  0.4489  0.0413
  737TIP3    H123770   0.247   2.796   1.047 -0.7130  2.2198  0.1327
  737TIP3    H223771   0.360   2.755   0.955 -0.8339 -0.7676  1.1884
  738TIP3   OH223772   1.479   3.104   3.774  0.0805  0.2112  0.2019
  738TIP3    H123773   1.574   3.100   3.760  0.3077 -0.0996  1.6952
  738TIP3    H223774   1.449   3.015   3.756  0.4437 -0.3178  1.9926
  739TIP3   OH223775   5.353   6.953   0.928 -0.0635  0.3467  0.7443
  739TIP3    H123776   5.420   6.922   0.867 -0.0999 -0.6838  1.2112
  739TIP3    H223777   5.360   7.048   0.924 -0.3870  0.3246 -1.2215
  740TIP3   OH223778   4.504   2.135   1.521  0.9727  0.2467  0.4238
  740TIP3    H123779   4.501   2.173   1.433  0.5525  2.4717  1.3223
  740TIP3    H223780   4.509   2.041   1.507 -0.2418  0.4654 -1.9905
  741TIP3   OH223781   0.922   6.095   3.904  0.4165  0.0738  0.5186
  741TIP3    H123782   0.972   6.015   3.917 -0.5278 -0.0904  4.2846
  741TIP3    H223783   0.966   6.160   3.960  0.9979  2.2243 -2.2077
  742TIP3   OH223784   0.747   4.769   2.279  0.2161 -0.5123  0.1857
  742TIP3    H123785   0.812   4.829   2.316 -2.1392  1.2252  1.8123
  742TIP3    H223786   0.758   4.689   2.331 -0.0334  0.3576  1.6505
  743TIP3   OH223787   4.977   2.335   2.025 -0.0536 -0.0018  0.1342
  743TIP3    H123788   4.891   2.370   2.049 -0.9485  0.3221 -3.0771
  743TIP3    H223789   5.023   2.410   1.987  1.3080 -0.4251  0.8805
  744TIP3   OH223790   3.442   0.833   3.156  0.8022 -0.1464  0.0442
  744TIP3    H123791   3.521   0.786   3.130  0.0631 -0.9865 -0.7777
  744TIP3    H223792   3.438   0.908   3.097 -0.1592 -1.3208 -1.4627
  745TIP3   OH223793   4.179   6.734   1.505  0.5425 -0.2438 -0.5434
  745TIP3    H123794   4.211   6.650   1.472 -2.0739 -1.0599 -1.2153
  745TIP3    H223795   4.184   6.725   1.601  0.4102 -1.1351 -0.6080
  746TIP3   OH223796   6.234   4.638   0.179 -0.3043 -0.1177 -0.1596
  746TIP3    H123797   6.192   4.691   0.111  1.5382  0.8864 -0.5919
  746TIP3    H223798   6.324   4.671   0.183  0.7787 -2.8019 -0.0053
  747TIP3   OH223799   4.310   6.572   2.425 -0.1642 -0.9135  0.4711
  747TIP3    H123800   4.364   6.539   2.497 -1.0219  1.0388  2.1260
  747TIP3    H223801   4.228   6.598   2.467 -0.1789  1.6066 -0.9373
  748TIP3   OH223802   0.207   5.922   3.144 -0.3011 -0.2065  0.1451
  748TIP3    H123803   0.285   5.971   3.118 -0.2936 -1.0499 -1.5094
  748TIP3    H223804   0.153   5.986   3.191  0.9845  0.6076  0.5701
  749TIP3   OH223805   2.550   4.716   4.285 -0.3895  0.0633  0.2025
  749TIP3    H123806   2.584   4.648   4.227  0.4472  2.1845 -1.9756
  749TIP3    H223807   2.628   4.765   4.312 -1.1693  2.0821 -0.9610
  750TIP3   OH223808   6.214   5.691   3.471  0.2779 -0.1779  0.6916
  750TIP3    H123809   6.296   5.688   3.422  0.1103 -0.4194  0.4215
  750TIP3    H223810   6.154   5.741   3.416  0.4791  0.6914  1.2552
  751TIP3   OH223811   2.790   6.308   1.885 -0.2109 -0.0272  0.1341
  751TIP3    H123812   2.718   6.262   1.841  0.6572 -0.7784 -0.5152
  751TIP3    H223813   2.773   6.401   1.866 -0.7879 -0.2237 -0.3586
  752TIP3   OH223814   1.808   6.322   2.537 -0.1208 -0.2446  0.4981
  752TIP3    H123815   1.793   6.301   2.629 -0.2415  0.6622  0.7036
  752TIP3    H223816   1.756   6.259   2.488  0.5921 -1.2587  1.0228
  753TIP3   OH223817   3.350   3.803   3.267  0.1937  0.3010  0.4937
  753TIP3    H123818   3.346   3.765   3.355 -2.0005 -1.0838 -0.1474
  753TIP3    H223819   3.341   3.898   3.282 -1.3855 -0.0058  1.6951
  754TIP3   OH223820   2.543   3.948   4.792 -0.8765 -0.1411 -0.0639
  754TIP3    H123821   2.520   3.976   4.703 -1.1808  0.5446  0.2211
  754TIP3    H223822   2.636   3.926   4.787 -0.8851 -0.0774 -0.5459
  755TIP3   OH223823   1.182   4.602   1.374  0.0245  0.0888  0.3525
  755TIP3    H123824   1.231   4.578   1.296 -0.5654 -1.0981  0.3170
  755TIP3    H223825   1.249   4.629   1.437  0.6738 -0.7251  0.0381
  756TIP3   OH223826   6.223   5.754   2.477  0.3543 -0.2825  0.1803
  756TIP3    H123827   6.262   5.837   2.506  1.6329 -0.6480 -0.4152
  756TIP3    H223828   6.298   5.699   2.455 -0.4999 -0.6538 -2.0844
  757TIP3   OH223829   2.269   3.396   2.494 -0.6101 -0.0842  0.0605
  757TIP3    H123830   2.261   3.422   2.402 -3.4848 -1.2541 -0.1054
  757TIP3    H223831   2.357   3.426   2.519  0.6678 -0.5525 -3.3067
  758TIP3   OH223832   3.852   3.424   0.724  0.5460  0.4706 -0.3698
  758TIP3    H123833   3.941   3.456   0.708  1.2215  1.0880  3.5099
  758TIP3    H223834   3.861   3.329   0.730  1.4309  0.6127  1.6847
  759TIP3   OH223835   5.793   4.713   3.066  0.5100  0.1362 -0.1485
  759TIP3    H123836   5.778   4.775   2.995  2.2065  0.9873  0.1847
  759TIP3    H223837   5.879   4.737   3.102  1.0360 -2.1168  0.2895
  760TIP3   OH223838   4.060   3.174   2.892 -0.7045  0.3065  0.0360
  760TIP3    H123839   3.967   3.160   2.874 -0.4906  0.2647 -1.0473
  760TIP3    H223840   4.089   3.092   2.932 -0.6556 -0.4919 -1.5738
  761TIP3   OH223841   3.150   0.297   2.070 -0.4853  0.6006 -0.5708
  761TIP3    H123842   3.156   0.323   1.978 -1.8677  0.6885 -0.6531
  761TIP3    H223843   3.149   0.379   2.119  0.3358  0.5523 -0.4601
  762TIP3   OH223844   4.744   1.874   0.832  0.9342 -0.3312 -0.2506
  762TIP3    H123845   4.669   1.935   0.832  1.7811  0.8039  1.6285
  762TIP3    H223846   4.742   1.834   0.745 -1.7148 -0.1846 -0.3544
  763TIP3   OH223847   4.697   4.549   3.289 -0.4119 -0.1716 -0.3058
  763TIP3    H123848   4.655   4.634   3.304  2.0061  0.9709  0.3928
  763TIP3    H223849   4.665   4.494   3.360  0.8329  1.3200  1.5045
  764TIP3   OH223850   3.204   3.990   2.328  0.2376 -0.7045 -0.2594
  764TIP3    H123851   3.294   3.991   2.293  1.8417  0.7387  3.4147
  764TIP3    H223852   3.181   4.082   2.336  0.6493 -0.7909  3.6068
  765TIP3   OH223853   1.711   5.188   3.325  0.2686 -0.0656  0.0991
  765TIP3    H123854   1.645   5.221   3.386  0.1906  0.7596 -0.4140
  765TIP3    H223855   1.664   5.123   3.273  0.0266  0.0498  0.1686
  766TIP3   OH223856   0.561   1.281   2.443 -0.3718  0.8253  0.1881
  766TIP3    H123857   0.503   1.336   2.494  1.9762  1.9679  1.7808
  766TIP3    H223858   0.567   1.325   2.358 -1.1185  1.1608  0.3003
  767TIP3   OH223859   0.267   2.153   0.891 -0.4464  0.1251 -0.8665
  767TIP3    H123860   0.317   2.085   0.937  0.3707  0.4501 -1.2439
  767TIP3    H223861   0.329   2.226   0.884 -1.4400  1.0708 -0.1025
  768TIP3   OH223862   1.135   0.399   0.651  0.1364  0.5456 -0.1168
  768TIP3    H123863   1.140   0.444   0.736  0.0751 -0.2885  0.3374
  768TIP3    H223864   1.186   0.318   0.664  0.5045  0.6232 -1.0138
  769TIP3   OH223865   0.207   2.151   2.786  0.1299  0.2461  0.7878
  769TIP3    H123866   0.171   2.126   2.871 -0.9971 -0.6092  0.0793
  769TIP3    H223867   0.139   2.207   2.747  1.1440  1.6231  0.9120
  770TIP3   OH223868   3.863   1.018   0.923 -0.0047  0.4573 -0.2399
  770TIP3    H123869   3.868   1.026   0.828 -1.9519 -3.1823 -0.7967
  770TIP3    H223870   3.862   0.924   0.940  0.7435  0.9511  3.4695
  771TIP3   OH223871   5.342   5.400   0.288 -0.3108 -0.0051  0.4591
  771TIP3    H123872   5.274   5.336   0.267 -0.4109  0.8253 -2.0835
  771TIP3    H223873   5.416   5.376   0.231 -0.1721  1.7940 -0.1703
  772TIP3   OH223874   3.877   5.974   3.153 -0.6034  0.4070 -0.3267
  772TIP3    H123875   3.785   5.981   3.126 -0.7252  0.5055  0.1061
  772TIP3    H223876   3.897   6.059   3.192 -0.2158  0.5148 -0.7581
  773TIP3   OH223877   4.610   5.167   1.646  0.1621 -0.3812 -0.5500
  773TIP3    H123878   4.608   5.171   1.551 -1.4151  1.9386 -0.4876
  773TIP3    H223879   4.626   5.257   1.675  0.4040 -0.9835  1.3815
  774TIP3   OH223880   0.016   3.675   2.730 -0.1595 -0.8162  0.1173
  774TIP3    H123881  -0.025   3.733   2.795 -0.1150 -1.9902  1.2429
  774TIP3    H223882  -0.044   3.601   2.722  0.6761 -1.5289  0.1707
  775TIP3   OH223883   1.720   4.632   3.009 -0.9448  0.0747 -0.0686
  775TIP3    H123884   1.791   4.573   2.984  1.1853  1.8841  1.3442
  775TIP3    H223885   1.721   4.633   3.104 -2.7291  0.3748 -0.0061
  776TIP3   OH223886   3.521   3.484   4.403 -0.5002 -0.1247 -0.1275
  776TIP3    H123887   3.584   3.452   4.468 -1.2140  0.1992  0.7433
  776TIP3    H223888   3.468   3.407   4.381 -0.0984 -0.2911 -0.5120
  777TIP3   OH223889   1.076   4.593   3.752  0.4206  0.4616  0.3577
  777TIP3    H123890   1.040   4.628   3.671 -3.0990 -0.3172  1.4186
  777TIP3    H223891   1.087   4.500   3.736  2.8732  0.7717 -0.1636
  778TIP3   OH223892   5.926   0.011   0.097 -0.3845 -0.3524  0.4104
  778TIP3    H123893   5.859  -0.054   0.077 -0.9643  0.6176 -0.9522
  778TIP3    H223894   6.009  -0.032   0.075 -0.4999 -1.5562  2.0974
  779TIP3   OH223895   0.442   4.402   0.759  0.7471 -0.6228  0.0505
  779TIP3    H123896   0.500   4.344   0.710 -1.2485 -2.2655 -0.5003
  779TIP3    H223897   0.440   4.483   0.708  0.1183 -1.6667 -1.6662
  780TIP3   OH223898   5.872   5.402   1.714 -0.6408 -0.7362  0.3221
  780TIP3    H123899   5.796   5.447   1.676 -0.9181 -1.2837  0.2053
  780TIP3    H223900   5.865   5.312   1.681  0.2171 -0.7259  0.0855
  781TIP3   OH223901   6.055   6.599   2.612  0.0459 -0.0593 -0.6940
  781TIP3    H123902   5.967   6.602   2.649  0.6773 -0.2349  0.8924
  781TIP3    H223903   6.096   6.681   2.637  0.2878  0.1098 -1.5913
  782TIP3   OH223904   4.975   1.148   1.776 -0.1088 -0.4934 -0.0731
  782TIP3    H123905   5.048   1.171   1.834 -0.1091  0.0643 -0.2841
  782TIP3    H223906   4.947   1.061   1.805  0.2685 -0.4663  0.3808
  783TIP3   OH223907   2.918   1.566   0.041  0.2230 -0.0195 -0.5603
  783TIP3    H123908   2.947   1.647   0.000 -0.2163 -0.8904 -2.7786
  783TIP3    H223909   2.827   1.583   0.067  0.2020  0.2804 -0.8181
  784TIP3   OH223910   6.181   2.814   1.116  0.0159 -0.8564 -0.4319
  784TIP3    H123911   6.248   2.789   1.053 -0.4337 -0.4440 -1.0804
  784TIP3    H223912   6.148   2.899   1.085 -0.8820 -1.0988 -0.1881
  785TIP3   OH223913   0.173   6.095   1.174 -0.2660  0.3463 -0.3398
  785TIP3    H123914   0.219   6.028   1.224 -1.9107  0.2869  1.2133
  785TIP3    H223915   0.110   6.132   1.237 -1.4339  1.2689 -1.9837
  786TIP3   OH223916   3.019   6.240   1.735  0.2003 -0.2799 -0.5963
  786TIP3    H123917   2.999   6.272   1.647  0.0854  0.6913 -0.2308
  786TIP3    H223918   2.950   6.277   1.790  0.4395 -0.6350 -0.0481
  787TIP3   OH223919   4.112   3.450   0.628 -0.0120  0.6767 -0.0078
  787TIP3    H123920   4.166   3.373   0.645 -1.4787 -0.2381  0.8016
  787TIP3    H223921   4.148   3.488   0.548  1.0503 -0.5830 -0.1593
  788TIP3   OH223922   1.860   4.895   2.130 -0.4679  0.5581  0.3726
  788TIP3    H123923   1.851   4.970   2.189 -1.3559 -0.0039  0.9820
  788TIP3    H223924   1.781   4.843   2.146 -1.2707  0.9147 -2.0939
  789TIP3   OH223925   5.853   2.904   3.244  0.3792  0.6316  0.3954
  789TIP3    H123926   5.934   2.857   3.263 -0.3398 -0.7902  0.1003
  789TIP3    H223927   5.860   2.985   3.295  1.5083  0.0537  1.2181
  790TIP3   OH223928   3.521   1.066   4.615  0.2652 -0.3159 -0.1583
  790TIP3    H123929   3.558   1.151   4.638  2.0856 -1.0745 -0.1498
  790TIP3    H223930   3.585   1.027   4.556  0.2836 -2.3635  1.1304
  791TIP3   OH223931   1.763   1.006   3.051  0.5328  0.0541 -0.4772
  791TIP3    H123932   1.752   1.035   2.961 -0.1499  0.9874 -0.1112
  791TIP3    H223933   1.690   1.046   3.098  1.3585  0.2930  0.6405
  792TIP3   OH223934   0.689   0.774   3.217  0.1011  0.1206 -0.4028
  792TIP3    H123935   0.769   0.777   3.270 -0.7452 -0.0735  0.9127
  792TIP3    H223936   0.721   0.765   3.127  1.5635 -0.5568  0.1487
  793TIP3   OH223937   2.820   1.050   1.983  0.4588 -0.3889 -0.1664
  793TIP3    H123938   2.801   0.994   1.908 -1.8224  0.6169 -0.4112
  793TIP3    H223939   2.829   0.990   2.056 -3.2788 -1.1607 -0.1447
  794TIP3   OH223940   0.732   2.801   2.875 -0.1503 -0.3207  0.3729
  794TIP3    H123941   0.639   2.778   2.877  0.0403 -1.1484  0.2235
  794TIP3    H223942   0.736   2.879   2.820 -1.2040  2.1317  3.4885
  795TIP3   OH223943   1.489   5.452   3.708 -0.6363 -0.2404 -0.1868
  795TIP3    H123944   1.466   5.447   3.801  1.6913 -1.0709  0.4226
  795TIP3    H223945   1.569   5.505   3.706 -1.6360  1.2876 -1.9637
  796TIP3   OH223946   5.781   3.023   2.638  0.2532  0.2653 -0.2124
  796TIP3    H123947   5.749   2.946   2.685  0.2628  0.5450  0.2474
  796TIP3    H223948   5.811   2.988   2.554 -1.7040  0.0395 -0.8816
  797TIP3   OH223949   0.657   4.020   0.482 -0.3554 -0.6913  0.1458
  797TIP3    H123950   0.645   4.066   0.400 -1.5711 -1.2999 -0.0378
  797TIP3    H223951   0.680   3.930   0.457  1.0339 -0.4645  0.4949
  798TIP3   OH223952   3.002   6.149   2.285  0.5978  0.4999  0.1435
  798TIP3    H123953   2.943   6.215   2.248 -0.1390  0.4457  1.1513
  798TIP3    H223954   2.954   6.067   2.277  1.1652  0.2142 -0.3593
  799TIP3   OH223955   4.372   6.224   0.427 -0.2307  0.2634  0.8280
  799TIP3    H123956   4.305   6.216   0.359 -0.3511  0.5519  0.9122
  799TIP3    H223957   4.452   6.245   0.378 -0.4175  0.9567  0.8124
  800TIP3   OH223958   3.545   6.771   3.870 -0.4257  0.5014 -0.1500
  800TIP3    H123959   3.621   6.774   3.927 -1.3071  3.3682  1.0653
  800TIP3    H223960   3.475   6.736   3.925 -0.3460 -0.7898 -0.8356
  801TIP3   OH223961   0.287   3.152   1.823 -0.7050 -0.5652 -0.7543
  801TIP3    H123962   0.231   3.101   1.881 -1.1538  0.2196 -0.4740
  801TIP3    H223963   0.249   3.240   1.825 -1.1171 -0.6540 -2.7089
  802TIP3   OH223964   2.893   6.754   0.239  0.0133  0.2864 -1.2537
  802TIP3    H123965   2.964   6.787   0.295  2.3850 -4.6768 -0.7972
  802TIP3    H223966   2.936   6.728   0.158 -1.9513  0.0851 -2.2955
  803TIP3   OH223967   2.928   3.026   1.920  0.9420  0.1800  0.0336
  803TIP3    H123968   2.853   2.970   1.940  1.4656  0.2523  2.5265
  803TIP3    H223969   2.894   3.091   1.859 -0.9723  0.0883  0.9381
  804TIP3   OH223970   4.197   6.341   3.124 -0.2055  0.2903 -0.5231
  804TIP3    H123971   4.128   6.376   3.068 -0.9099  0.5165  0.4665
  804TIP3    H223972   4.154   6.276   3.178 -0.2915  2.2516  1.9545
  805TIP3   OH223973   1.655   1.992   2.940 -0.0063  0.6003 -0.8964
  805TIP3    H123974   1.562   1.985   2.960 -0.2472  3.1295 -0.7745
  805TIP3    H223975   1.659   1.994   2.845 -0.1148  0.7614 -0.8982
  806TIP3   OH223976   2.927   1.670   2.964 -0.2352  0.1043 -0.3394
  806TIP3    H123977   2.925   1.616   2.885  0.5873 -0.2267 -0.1442
  806TIP3    H223978   3.018   1.699   2.971 -0.9305  2.9182 -1.3490
  807TIP3   OH223979   4.762   4.600   2.416 -0.7248  0.6332  0.0376
  807TIP3    H123980   4.699   4.600   2.488  1.1463 -2.0605  1.9075
  807TIP3    H223981   4.748   4.516   2.372  0.0092  1.0354 -0.9974
  808TIP3   OH223982   1.054   3.827   2.595 -0.2305  0.3331  0.3676
  808TIP3    H123983   1.021   3.866   2.515  0.3727 -0.2865 -0.1973
  808TIP3    H223984   0.995   3.858   2.663 -1.4398 -0.0396 -0.4797
  809TIP3   OH223985   4.598   0.173   1.273  0.2816  0.0152 -0.5261
  809TIP3    H123986   4.624   0.116   1.346 -1.6135  1.3318  1.3005
  809TIP3    H223987   4.548   0.243   1.314  0.5112  1.7291 -2.9656
  810TIP3   OH223988   5.509   4.107   1.750  0.8381 -0.1318  0.7715
  810TIP3    H123989   5.541   4.148   1.670 -0.2724  0.8196  0.7882
  810TIP3    H223990   5.533   4.015   1.741  3.8501  0.5204  0.9531
  811TIP3   OH223991   1.962   3.049   1.279 -0.4086 -0.0653  0.4204
  811TIP3    H123992   1.986   2.973   1.227  1.0643  0.1699  0.7106
  811TIP3    H223993   1.875   3.029   1.312 -0.3939 -1.2405 -0.2146
  812TIP3   OH223994   1.210   1.863   2.056 -0.1398  0.1363  0.8533
  812TIP3    H123995   1.252   1.777   2.062 -0.1930 -0.0460 -0.7692
  812TIP3    H223996   1.221   1.888   1.964 -1.3084  1.2581  0.9923
  813TIP3   OH223997   4.106   4.016   0.690 -0.1043  0.0673  0.3683
  813TIP3    H123998   4.120   4.076   0.764  1.9095 -0.3963  0.4154
  813TIP3    H223999   4.155   4.055   0.618 -2.5137  0.8137 -0.9707
  814TIP3   OH224000   0.802   2.440   0.599 -0.0144 -0.3293  0.2285
  814TIP3    H124001   0.819   2.398   0.683 -0.3754 -1.2492 -0.1489
  814TIP3    H224002   0.885   2.481   0.576  0.1537 -0.2641  0.9175
  815TIP3   OH224003   1.258   6.224   3.776  0.1026  0.4430  0.0082
  815TIP3    H124004   1.342   6.225   3.730 -0.1156 -1.5454 -0.5228
  815TIP3    H224005   1.258   6.142   3.825 -0.3991  1.7026  2.2502
  816TIP3   OH224006   1.490   5.950   2.945 -0.3847 -0.0238  0.1421
  816TIP3    H124007   1.443   6.018   2.993 -0.2634 -0.0603  0.3137
  816TIP3    H224008   1.424   5.881   2.930 -0.6435  0.3564 -0.4885
  817TIP3   OH224009   1.882   5.138   8.278  0.4685  0.4111 -0.2836
  817TIP3    H124010   1.967   5.101   8.301  0.0233 -0.2141  0.3780
  817TIP3    H224011   1.851   5.178   8.359  1.5490  3.5802 -1.2362
  818TIP3   OH224012   6.102   2.874   1.582  0.6162 -0.3482  0.1575
  818TIP3    H124013   6.020   2.918   1.602  1.1501  1.3407 -1.1401
  818TIP3    H224014   6.139   2.852   1.668 -0.0542  1.0586  0.8381
  819TIP3   OH224015   5.550   2.153   3.420 -0.0518 -0.5336  0.0275
  819TIP3    H124016   5.504   2.076   3.454 -0.6425  0.4495  1.5278
  819TIP3    H224017   5.541   2.219   3.488  0.3396  0.9289 -1.2829
  820TIP3   OH224018   1.247   1.655   4.385 -0.2201 -0.3018 -0.7435
  820TIP3    H124019   1.246   1.748   4.406  0.0125 -0.2229 -1.0691
  820TIP3    H224020   1.155   1.631   4.378 -0.3275 -0.4468  0.8126
  821TIP3   OH224021   2.348   0.075   0.246 -0.3162  0.1692 -0.2438
  821TIP3    H124022   2.430   0.076   0.197 -1.0748  0.4089 -1.5444
  821TIP3    H224023   2.375   0.086   0.337  1.2108 -1.3670 -0.4502
  822TIP3   OH224024   3.353   2.605   3.405 -0.2261 -0.1646 -0.0229
  822TIP3    H124025   3.354   2.588   3.499 -2.4591 -0.4562 -0.0124
  822TIP3    H224026   3.378   2.697   3.397 -2.0393  0.4564  1.0375
  823TIP3   OH224027   6.678   4.082   1.795  0.0735 -0.6205 -0.5460
  823TIP3    H124028   6.655   4.018   1.863  1.3780  0.0417  0.5860
  823TIP3    H224029   6.620   4.156   1.812 -0.4570 -0.9324 -0.9608
  824TIP3   OH224030   1.696   5.291   3.835  0.3691  0.4685  0.4720
  824TIP3    H124031   1.730   5.292   3.746  0.4561  0.3605  0.5043
  824TIP3    H224032   1.746   5.223   3.880 -0.2179 -0.0275  0.3889
  825TIP3   OH224033   2.908   1.754   0.742 -0.1896  0.1324 -0.0645
  825TIP3    H124034   2.996   1.791   0.752 -0.3655  0.0792  2.0146
  825TIP3    H224035   2.881   1.781   0.654  1.9484  0.0122 -0.8304
  826TIP3   OH224036   4.903   4.221   0.957 -0.3037  0.2630 -0.6128
  826TIP3    H124037   4.940   4.173   0.884 -0.1958  1.1006 -1.1240
  826TIP3    H224038   4.976   4.273   0.992 -0.5307  0.4365 -0.3868
  827TIP3   OH224039   0.533   3.780   4.260  0.0206 -0.1970  0.2838
  827TIP3    H124040   0.559   3.854   4.315 -1.3268 -0.1025  0.8304
  827TIP3    H224041   0.450   3.751   4.298 -0.9321 -0.1568 -1.6867
  828TIP3   OH224042   0.508   3.892   3.751 -0.2513  0.2439  0.6041
  828TIP3    H124043   0.539   3.982   3.742  0.9215 -0.1302  0.6190
  828TIP3    H224044   0.586   3.839   3.734 -0.7064 -0.7429  1.4833
  829TIP3   OH224045   3.399   1.685   3.980  0.4417 -0.0909  0.3746
  829TIP3    H124046   3.361   1.717   3.898 -1.0993  0.0203  1.0998
  829TIP3    H224047   3.348   1.727   4.049  2.0112  0.1855  1.4364
  830TIP3   OH224048   2.885   2.773   0.409 -0.2340  0.5120  0.1394
  830TIP3    H124049   2.980   2.770   0.401 -0.2633 -1.6660  0.1304
  830TIP3    H224050   2.853   2.741   0.324 -0.9574  0.4897  0.4151
  831TIP3   OH224051   6.744   1.581   4.433  0.2225  0.2601  0.5407
  831TIP3    H124052   6.786   1.498   4.410  1.6719  1.3312 -0.8342
  831TIP3    H224053   6.794   1.614   4.507  1.7990  1.4188 -0.9471
  832TIP3   OH224054   2.211   4.735   1.677 -0.1166  0.5975  0.4786
  832TIP3    H124055   2.293   4.762   1.720  0.5618  0.2973 -0.5825
  832TIP3    H224056   2.237   4.662   1.620 -0.9977  0.9338 -0.3752
  833TIP3   OH224057   1.144   5.462   3.788  0.2588  0.1811  0.5557
  833TIP3    H124058   1.142   5.375   3.827 -2.4027  0.5364  1.4724
  833TIP3    H224059   1.073   5.509   3.832 -0.2058  1.9399 -1.8590
  834TIP3   OH224060   0.397   2.914   3.660  0.3001  0.6312 -0.6350
  834TIP3    H124061   0.368   2.843   3.718  1.1007  1.3817  0.7304
  834TIP3    H224062   0.416   2.870   3.577  0.8391 -0.7787  0.1947
  835TIP3   OH224063   3.328   3.972   1.273  0.5944  0.6421  0.1082
  835TIP3    H124064   3.405   4.014   1.235  0.6891 -0.0661 -0.4992
  835TIP3    H224065   3.318   3.890   1.224 -1.2432  1.2629 -0.6473
  836TIP3   OH224066   5.090   2.380   1.652  0.1403 -0.2297  0.0041
  836TIP3    H124067   5.175   2.388   1.610 -0.5624 -1.5188 -1.7657
  836TIP3    H224068   5.105   2.317   1.723  0.9444  0.6186  0.6138
  837TIP3   OH224069   1.181   5.016   1.737  0.4937  0.5593 -0.3983
  837TIP3    H124070   1.277   5.024   1.739  0.7158 -1.6945  0.7873
  837TIP3    H224071   1.155   5.010   1.829 -0.5893 -0.6164 -0.7514
  838TIP3   OH224072   6.766   5.220   2.325 -0.0108  0.2138 -0.1463
  838TIP3    H124073   6.743   5.154   2.390 -1.0291  0.2365 -0.4765
  838TIP3    H224074   6.812   5.288   2.376 -1.7343  0.7579  0.7801
  839TIP3   OH224075   3.578   5.286   0.697 -0.4499  0.1882  0.6801
  839TIP3    H124076   3.626   5.212   0.732 -0.8464 -0.6436 -0.4732
  839TIP3    H224077   3.501   5.248   0.654  1.0303  0.8334 -2.9240
  840TIP3   OH224078   1.765   2.693   0.844 -0.0286 -0.0750 -0.0368
  840TIP3    H124079   1.834   2.639   0.804 -0.8337 -1.5863  0.5269
  840TIP3    H224080   1.801   2.720   0.928  0.3435  0.1825 -0.2771
  841TIP3   OH224081   4.376   5.566   4.047  0.0719 -0.0631 -0.4452
  841TIP3    H124082   4.309   5.623   4.011  0.9571  1.2055 -0.1311
  841TIP3    H224083   4.330   5.515   4.114 -0.6219  0.6525 -0.3601
  842TIP3   OH224084   6.472   5.691   2.704 -0.7807 -0.1897 -0.1076
  842TIP3    H124085   6.525   5.719   2.629 -0.2731 -1.9573 -0.4598
  842TIP3    H224086   6.535   5.661   2.768 -1.3002 -1.5418 -0.1976
  843TIP3   OH224087   6.018   3.432   8.399 -0.0805 -0.0071  0.0273
  843TIP3    H124088   6.051   3.437   8.488  0.1109  0.3069 -0.0615
  843TIP3    H224089   6.095   3.436   8.343 -0.1404 -0.9175 -0.1398
  844TIP3   OH224090   6.547   1.245   1.826  0.1004  0.0241 -0.4510
  844TIP3    H124091   6.622   1.186   1.825  0.6574  0.7127 -0.2095
  844TIP3    H224092   6.568   1.311   1.893 -1.4719 -0.7130  0.8566
  845TIP3   OH224093   0.070   5.926   1.991 -0.0587  0.4029  0.2198
  845TIP3    H124094   0.052   5.870   2.066  1.8057 -1.5788 -0.6770
  845TIP3    H224095   0.166   5.932   1.988  0.1054 -1.2494 -3.0141
  846TIP3   OH224096   5.467   3.229   2.860  0.0232  0.5960 -0.3234
  846TIP3    H124097   5.438   3.235   2.951 -1.8073  0.5685 -0.8795
  846TIP3    H224098   5.503   3.141   2.852 -1.1950  0.0482  0.0094
  847TIP3   OH224099   2.422   3.039   3.590 -0.1855 -0.0207  0.2642
  847TIP3    H124100   2.502   3.027   3.642 -0.4340  1.9249  1.1783
  847TIP3    H224101   2.383   2.951   3.585  1.6887 -0.9069  0.2761
  848TIP3   OH224102   0.564   6.762   2.770  0.4916 -0.0882  0.3124
  848TIP3    H124103   0.572   6.703   2.845 -1.4111  1.0759  1.5115
  848TIP3    H224104   0.498   6.721   2.715  0.8136 -0.1896 -0.0047
  849TIP3   OH224105   2.664   5.487   0.111  0.1932 -0.4260 -0.0729
  849TIP3    H124106   2.590   5.548   0.107  0.7660  0.2459 -2.8124
  849TIP3    H224107   2.625   5.401   0.099 -0.2999 -0.2550  0.2625
  850TIP3   OH224108   1.376   5.259   1.881 -0.1769  0.1318 -0.1283
  850TIP3    H124109   1.309   5.248   1.948  0.9132  0.1908  1.0033
  850TIP3    H224110   1.457   5.229   1.922  0.2307 -1.5972 -2.0444
  851TIP3   OH224111   4.158   3.842   0.327 -0.3145  0.6071  0.2849
  851TIP3    H124112   4.131   3.854   0.418  0.1194 -2.0190  0.8526
  851TIP3    H224113   4.201   3.924   0.304 -1.3579  1.7380  2.0764
  852TIP3   OH224114   0.898   5.093   1.355  0.1350  0.8674  0.1260
  852TIP3    H124115   0.961   5.123   1.420 -2.2556  2.6869  1.7524
  852TIP3    H224116   0.879   5.002   1.379  0.7491  0.8947  0.7281
  853TIP3   OH224117   3.453   5.438   2.635  0.6057 -0.0901 -0.0505
  853TIP3    H124118   3.511   5.449   2.710 -0.7293  0.1773  0.9784
  853TIP3    H224119   3.379   5.387   2.669 -0.3052  0.5412 -1.0152
  854TIP3   OH224120   2.406   4.677   0.163  0.1109 -0.1175 -0.7316
  854TIP3    H124121   2.425   4.587   0.189 -0.5665 -0.2603 -0.7139
  854TIP3    H224122   2.489   4.711   0.132  0.6389 -0.3860  0.3260
  855TIP3   OH224123   6.493   3.888   2.525 -0.0909 -0.2156  0.2504
  855TIP3    H124124   6.563   3.881   2.460 -0.4594  0.2153 -0.2017
  855TIP3    H224125   6.433   3.953   2.489 -1.2580 -1.3113  0.1442
  856TIP3   OH224126   5.596   5.602   3.234  0.4934 -0.3150 -0.4900
  856TIP3    H124127   5.535   5.571   3.301  0.1733  3.0528  0.9571
  856TIP3    H224128   5.564   5.689   3.211  2.9428  0.2723 -2.0613
  857TIP3   OH224129   6.619   1.766   3.720  0.1357  0.3572  0.6511
  857TIP3    H124130   6.626   1.786   3.813  0.4005  0.1011  0.6853
  857TIP3    H224131   6.540   1.712   3.712  0.9975 -0.9776  0.9506
  858TIP3   OH224132   5.273   3.044   1.333 -0.0196 -0.0219  0.7249
  858TIP3    H124133   5.341   2.985   1.300 -0.4062  0.2850 -0.7113
  858TIP3    H224134   5.321   3.117   1.371  0.5028  0.5961 -1.0197
  859TIP3   OH224135   0.211   2.232   3.523 -0.2867  0.1816 -0.4043
  859TIP3    H124136   0.227   2.139   3.537  0.4115  0.1879 -1.1196
  859TIP3    H224137   0.283   2.276   3.569  0.3121  0.3014 -1.4318
  860TIP3   OH224138   5.941   6.950   3.099 -0.4605 -0.3378  0.2497
  860TIP3    H124139   5.976   6.935   3.187 -0.3053  1.1919  0.4800
  860TIP3    H224140   5.848   6.971   3.113 -0.0353  1.7739  0.2899
  861TIP3   OH224141   6.938   6.778   2.089 -0.0781  0.2355 -0.1715
  861TIP3    H124142   7.033   6.787   2.099  0.0333 -0.0873 -0.8941
  861TIP3    H224143   6.925   6.685   2.071 -0.3083  0.6365 -2.3641
  862TIP3   OH224144   0.678   1.451   2.844  0.0675 -0.6790 -0.3453
  862TIP3    H124145   0.743   1.501   2.794 -1.3601 -0.7113 -2.3367
  862TIP3    H224146   0.665   1.371   2.794 -1.0111 -0.9786  0.3718
  863TIP3   OH224147   3.918   3.189   2.581  0.1457  0.1837 -0.2849
  863TIP3    H124148   3.834   3.194   2.534  0.8503 -1.0057 -1.7648
  863TIP3    H224149   3.894   3.187   2.673 -1.5198 -1.0901 -0.6976
  864TIP3   OH224150   2.409   5.829   1.837  0.1916 -0.3162 -0.7296
  864TIP3    H124151   2.489   5.797   1.795  0.5161 -1.6386  0.7913
  864TIP3    H224152   2.414   5.796   1.926 -0.0560  3.0511  0.6993
  865TIP3   OH224153   6.334   1.886   0.289  0.5513 -0.1630  0.1477
  865TIP3    H124154   6.288   1.894   0.205 -1.2815 -1.0871  0.9942
  865TIP3    H224155   6.366   1.796   0.290  0.5633 -0.1568  0.4381
  866TIP3   OH224156   4.006   3.738   4.317  0.1849  0.4543  0.3437
  866TIP3    H124157   3.963   3.654   4.302  1.8715 -0.1822 -1.2546
  866TIP3    H224158   4.099   3.718   4.323  0.6483  2.1941 -0.1504
  867TIP3   OH224159   1.678   2.645   1.858 -0.1052  0.3100 -0.1950
  867TIP3    H124160   1.610   2.578   1.864  1.0220 -0.7786  3.3831
  867TIP3    H224161   1.672   2.693   1.941  0.7041  3.1181 -1.6397
  868TIP3   OH224162   0.802   0.015   0.636 -0.5639  0.3120 -0.0609
  868TIP3    H124163   0.888   0.045   0.664 -0.6948  1.6643 -1.0147
  868TIP3    H224164   0.805   0.020   0.540 -1.7510  0.5506 -0.0969
  869TIP3   OH224165   4.011   1.852   0.967 -0.0620  0.3750 -0.1919
  869TIP3    H124166   4.023   1.762   0.998  1.9045 -0.0021 -1.8512
  869TIP3    H224167   3.998   1.903   1.047  0.9201 -1.0733  0.9492
  870TIP3   OH224168   6.020   1.746   3.367 -0.0062  0.0233 -0.1368
  870TIP3    H124169   5.971   1.823   3.339 -0.0307  0.6813  1.6237
  870TIP3    H224170   5.998   1.735   3.459  0.4083 -1.7997 -0.2187
  871TIP3   OH224171   3.446   0.288   1.356 -1.1305 -0.4127  0.6423
  871TIP3    H124172   3.503   0.346   1.306 -1.4306 -1.6854 -1.3039
  871TIP3    H224173   3.500   0.259   1.429 -0.0335  0.1324  0.0762
  872TIP3   OH224174   2.664   1.311   1.634 -0.4220  0.5356  0.1636
  872TIP3    H124175   2.608   1.314   1.557 -1.1254 -1.5509  0.5081
  872TIP3    H224176   2.721   1.236   1.618 -0.4943  0.1498  1.5891
  873TIP3   OH224177   0.820   2.155   3.501 -0.0241  0.2355 -0.2941
  873TIP3    H124178   0.816   2.059   3.500  0.1799  0.1940  1.0919
  873TIP3    H224179   0.908   2.176   3.470  0.3111 -0.0747  0.4256
  874TIP3   OH224180   6.651   3.728   0.397 -0.1496 -0.5795  0.2104
  874TIP3    H124181   6.596   3.697   0.326  0.5726  1.4529 -1.3154
  874TIP3    H224182   6.738   3.737   0.358  0.1077  1.2737  1.1292
  875TIP3   OH224183   3.613   4.243   0.779  0.2767  1.7164  0.1879
  875TIP3    H124184   3.596   4.313   0.716 -0.5487  1.6742  0.3569
  875TIP3    H224185   3.699   4.264   0.815  1.0802  1.3735 -1.4220
  876TIP3   OH224186   5.157   4.452   0.030  0.3077 -0.2983  0.1071
  876TIP3    H124187   5.161   4.386   0.099 -0.0591  0.0868  0.5035
  876TIP3    H224188   5.064   4.472   0.021  0.3408 -0.4258 -0.5837
  877TIP3   OH224189   5.630   4.246   2.564  0.1330  0.1648  0.3574
  877TIP3    H124190   5.579   4.211   2.637  0.4652 -1.5336 -0.1828
  877TIP3    H224191   5.591   4.206   2.487  1.0650  0.3652 -0.2271
  878TIP3   OH224192   0.983   1.428   4.474  0.1315  0.0035 -0.3758
  878TIP3    H124193   0.964   1.366   4.544  0.1760  0.7573  0.3152
  878TIP3    H224194   0.910   1.490   4.476  0.7066  0.6805 -0.2466
  879TIP3   OH224195   4.304   2.312   2.248 -0.3137  0.4208  0.0492
  879TIP3    H124196   4.310   2.405   2.226 -1.8582  0.3160 -0.9898
  879TIP3    H224197   4.314   2.267   2.164  0.3204 -0.3562  0.5277
  880TIP3   OH224198   0.611   3.198   3.492 -0.6167  0.3860  0.1945
  880TIP3    H124199   0.646   3.287   3.495  1.1799 -0.1729 -1.6305
  880TIP3    H224200   0.550   3.193   3.566  0.8788  2.4243  1.6682
  881TIP3   OH224201   5.954   2.254   2.908 -0.5210 -0.0387 -0.2385
  881TIP3    H124202   5.859   2.250   2.913 -0.5006 -0.0939  0.1662
  881TIP3    H224203   5.979   2.318   2.975 -0.0833 -2.2796  1.8539
  882TIP3   OH224204   6.795   2.174   3.468 -0.8787  0.2825  0.2193
  882TIP3    H124205   6.826   2.240   3.406 -1.8896 -0.2326 -0.8851
  882TIP3    H224206   6.793   2.093   3.417 -1.7524 -0.1537  0.9208
  883TIP3   OH224207   1.316   0.705   2.359  0.2313  0.1450 -0.4430
  883TIP3    H124208   1.391   0.734   2.307  2.1519  0.6715  2.3578
  883TIP3    H224209   1.350   0.635   2.415 -1.2925  0.4740  1.0052
  884TIP3   OH224210   4.669   2.316   0.774 -0.2117  0.0425  0.1146
  884TIP3    H124211   4.642   2.253   0.707  0.7242 -0.6796  0.4054
  884TIP3    H224212   4.721   2.380   0.728  1.4951 -1.1304  0.3056
  885TIP3   OH224213   5.264   6.386   1.917  0.3486 -0.3754 -0.0046
  885TIP3    H124214   5.328   6.316   1.904 -0.5213 -1.2102  0.1171
  885TIP3    H224215   5.294   6.431   1.996  0.8075 -0.7214  0.0264
  886TIP3   OH224216   4.989   1.733   0.135 -0.1131 -0.1935 -0.0812
  886TIP3    H124217   5.031   1.738   0.049 -0.1317  0.6172 -0.0485
  886TIP3    H224218   4.915   1.674   0.122 -0.1170 -0.0719 -0.6282
  887TIP3   OH224219   0.885   1.281   1.954 -0.2659  0.3507  0.0290
  887TIP3    H124220   0.868   1.193   1.986 -2.6349  1.0785  1.0624
  887TIP3    H224221   0.977   1.298   1.976 -0.1235 -1.4042  0.9302
  888TIP3   OH224222   3.025   3.259   2.574 -0.4326 -0.6264 -0.2491
  888TIP3    H124223   3.120   3.246   2.581 -0.1996  0.7619 -0.5782
  888TIP3    H224224   2.987   3.177   2.605  0.8985 -1.7053 -1.3465
  889TIP3   OH224225   6.814   1.861   3.536  0.2259 -0.1787  0.2000
  889TIP3    H124226   6.861   1.897   3.611  0.4077  1.3126 -0.6008
  889TIP3    H224227   6.729   1.834   3.571  0.1301  0.9401  0.8657
  890TIP3   OH224228   3.767   0.283   2.399 -0.9295  1.0191  0.4612
  890TIP3    H124229   3.701   0.284   2.469 -0.4515  0.9053  0.9206
  890TIP3    H224230   3.810   0.198   2.407 -1.0974  0.8674 -0.1960
  891TIP3   OH224231   1.473   6.492   0.005  0.2596 -0.1551  0.1239
  891TIP3    H124232   1.469   6.573   0.056  2.0043 -0.3771  0.7006
  891TIP3    H224233   1.494   6.520  -0.084 -2.8780  0.2418 -0.5951
  892TIP3   OH224234   2.086   2.339   2.059  0.1514  0.5446  0.1941
  892TIP3    H124235   2.130   2.390   1.991  1.5017 -0.9922 -0.1468
  892TIP3    H224236   2.154   2.283   2.096 -1.3843 -1.6326 -0.0346
  893TIP3   OH224237   3.935   3.052   3.266 -0.1126  0.4745 -0.8724
  893TIP3    H124238   3.851   3.007   3.278 -0.0315 -0.4016 -3.1172
  893TIP3    H224239   3.912   3.145   3.263 -0.8171  0.3342 -0.1394
  894TIP3   OH224240   6.594   1.002   0.055  0.4650 -0.4321  0.0249
  894TIP3    H124241   6.505   0.968   0.057  1.0023 -2.2423  4.5280
  894TIP3    H224242   6.637   0.954  -0.016 -1.5661 -1.0828 -0.8294
  895TIP3   OH224243   6.527   3.757   2.811 -0.1513  0.6414 -0.1302
  895TIP3    H124244   6.500   3.781   2.722 -0.5876  1.1953  0.1487
  895TIP3    H224245   6.491   3.826   2.867 -2.9490 -1.5009  0.9260
  896TIP3   OH224246   4.062   2.291   3.535  0.3568  0.0498  0.0757
  896TIP3    H124247   4.120   2.336   3.474  1.2141  0.8875  1.4577
  896TIP3    H224248   4.121   2.237   3.588 -0.2536  0.0671  0.7810
  897TIP3   OH224249   6.270   5.948   1.952 -0.2344 -0.3883 -0.2265
  897TIP3    H124250   6.303   5.868   1.912  2.0701  0.2327  0.2695
  897TIP3    H224251   6.216   5.919   2.025 -1.0802 -1.4731 -1.2468
  898TIP3   OH224252   5.492   4.461   1.157  0.0418  0.0801 -0.2565
  898TIP3    H124253   5.522   4.551   1.150  1.3181 -0.3620 -0.6490
  898TIP3    H224254   5.572   4.408   1.161 -0.6544 -0.9359  1.6559
  899TIP3   OH224255   1.994   4.587   0.850 -0.1220 -0.2525  0.1381
  899TIP3    H124256   2.053   4.517   0.823  0.3669 -0.6307  2.0481
  899TIP3    H224257   1.919   4.579   0.791  0.5088 -1.5293 -0.5313
  900TIP3   OH224258   3.378   6.847   3.574  0.4732 -0.4347 -0.5766
  900TIP3    H124259   3.338   6.799   3.646 -1.5447  0.7985 -0.8233
  900TIP3    H224260   3.447   6.899   3.615 -0.0679 -0.4226  0.3294
  901TIP3   OH224261   6.210   1.740   2.263 -0.0114 -0.6953 -0.7333
  901TIP3    H124262   6.128   1.697   2.287 -0.5012  0.3463 -0.4621
  901TIP3    H224263   6.227   1.713   2.173  0.5176 -2.6553 -0.0909
  902TIP3   OH224264   3.763   2.133   3.739  0.5118 -0.1063  0.1099
  902TIP3    H124265   3.672   2.158   3.725  0.4575  0.1280  0.8296
  902TIP3    H224266   3.810   2.169   3.664  0.3241  1.5778  0.7458
  903TIP3   OH224267   2.783   1.219   3.281 -0.0482  0.3579  0.5248
  903TIP3    H124268   2.764   1.134   3.240  1.4988 -0.3850  1.2596
  903TIP3    H224269   2.699   1.266   3.279 -0.1927  0.2147 -3.0522
  904TIP3   OH224270   5.414   0.248   3.012  0.3123  0.4062  0.0016
  904TIP3    H124271   5.324   0.218   3.002 -0.3042  1.5327  1.7709
  904TIP3    H224272   5.424   0.265   3.105  1.8160  1.9422 -0.3834
  905TIP3   OH224273   5.726   0.911   0.272 -0.1484  0.1744 -0.4385
  905TIP3    H124274   5.767   0.997   0.280  0.0901  0.0797 -0.6426
  905TIP3    H224275   5.767   0.872   0.196 -0.1388 -0.1899 -0.2475
  906TIP3   OH224276   2.085   1.313   0.652  0.0817 -0.1337  0.1435
  906TIP3    H124277   2.054   1.340   0.565  0.3577  2.1421  0.6829
  906TIP3    H224278   2.007   1.280   0.696 -1.0136  2.5118  0.3687
  907TIP3   OH224279   0.947   6.438   1.951 -0.2855 -0.1206  0.1896
  907TIP3    H124280   0.999   6.507   1.910  0.0695  0.2373  1.2108
  907TIP3    H224281   1.012   6.379   1.990 -0.6115 -0.4135  0.2900
  908TIP3   OH224282   0.300   4.128   8.399 -0.0601  0.8021  0.6808
  908TIP3    H124283   0.340   4.187   8.463  1.0022 -1.1075  1.8572
  908TIP3    H224284   0.372   4.075   8.366 -1.2893 -1.5883  1.5876
  909TIP3   OH224285   0.249   6.628   3.445  0.1400  0.7684  0.2393
  909TIP3    H124286   0.168   6.578   3.460  0.5600 -0.3685 -1.0575
  909TIP3    H224287   0.318   6.562   3.450  0.7721  1.3183 -0.9581
  910TIP3   OH224288   0.464   2.497   0.177 -0.1083  0.1698 -0.0789
  910TIP3    H124289   0.385   2.489   0.123  0.4716 -2.2606 -0.6767
  910TIP3    H224290   0.535   2.470   0.119  1.3388  2.9825  0.2364
  911TIP3   OH224291   5.174   3.752   1.183 -0.3525  0.1283  0.7027
  911TIP3    H124292   5.167   3.817   1.114 -0.5265 -1.4472 -0.8331
  911TIP3    H224293   5.268   3.746   1.202 -0.3048  0.5673  0.6016
  912TIP3   OH224294   1.822   0.554   1.385  0.2042  0.7320  0.2146
  912TIP3    H124295   1.891   0.558   1.452 -1.7405 -1.3345  2.5299
  912TIP3    H224296   1.808   0.461   1.370  0.1097  1.1172 -2.7361
  913TIP3   OH224297   0.319   5.992   0.923 -0.2804  0.3103  0.5714
  913TIP3    H124298   0.291   5.965   1.011 -1.7659  0.7926  0.2629
  913TIP3    H224299   0.268   6.070   0.904  0.1445  0.3077 -0.6631
  914TIP3   OH224300   2.522   2.232   3.034  0.7366  0.1957 -1.0188
  914TIP3    H124301   2.569   2.225   3.118  0.2888 -1.4557 -0.8719
  914TIP3    H224302   2.431   2.214   3.057  0.6508 -0.5177 -1.8786
  915TIP3   OH224303   3.624   6.431   2.462  0.2191 -0.5859  0.4603
  915TIP3    H124304   3.573   6.394   2.534  1.3270 -1.1691  0.9587
  915TIP3    H224305   3.614   6.526   2.473  0.6174 -0.6575  1.5650
  916TIP3   OH224306   4.623   3.628   2.034  0.6004 -0.0743 -0.0035
  916TIP3    H124307   4.629   3.646   1.940 -0.0590  0.3459  0.0315
  916TIP3    H224308   4.650   3.536   2.042  3.2762  0.6095 -0.2692
  917TIP3   OH224309   0.259   0.970   1.752  0.2297  0.3158 -0.1050
  917TIP3    H124310   0.221   1.057   1.744  0.8660  0.5596 -0.5755
  917TIP3    H224311   0.187   0.910   1.729 -0.3572  0.6827  0.7324
  918TIP3   OH224312   0.860   0.500   0.036 -0.1068  1.1131 -0.2252
  918TIP3    H124313   0.860   0.461   0.123  1.6656  2.4844  0.4616
  918TIP3    H224314   0.875   0.427  -0.024  3.2035  0.6045  0.9983
  919TIP3   OH224315   4.252   4.834   4.190  0.4967  0.2186 -0.2101
  919TIP3    H124316   4.331   4.868   4.149  0.6893  0.3614  0.2768
  919TIP3    H224317   4.183   4.896   4.166  0.4207 -0.1981 -1.0861
  920TIP3   OH224318   1.420   4.781   8.240 -0.0805  0.5154  0.0756
  920TIP3    H124319   1.332   4.808   8.269  0.3528  2.9576 -0.6312
  920TIP3    H224320   1.470   4.772   8.321 -0.9479 -0.8981  0.4859
  921TIP3   OH224321   2.079   4.239   2.183  0.0942  0.0323  0.0170
  921TIP3    H124322   2.125   4.168   2.226 -0.6276 -1.5318 -1.6712
  921TIP3    H224323   2.123   4.249   2.099 -0.6142  0.7170 -0.2920
  922TIP3   OH224324   5.349   2.862   0.612  0.1325 -0.0099 -0.2845
  922TIP3    H124325   5.357   2.812   0.531 -1.9323  0.8887 -1.1013
  922TIP3    H224326   5.413   2.933   0.602 -1.8323  1.6001 -2.3580
  923TIP3   OH224327   6.792   0.628   3.518  0.3199 -0.1755  0.2144
  923TIP3    H124328   6.701   0.601   3.512 -0.3924  1.6957  1.6854
  923TIP3    H224329   6.833   0.566   3.578 -0.2775 -0.3004  0.4879
  924TIP3   OH224330   2.400   6.441   1.370  0.1667  0.6681  0.3433
  924TIP3    H124331   2.476   6.419   1.424 -0.5134 -0.3213  0.9347
  924TIP3    H224332   2.429   6.514   1.316  0.5914  2.4402  2.7822
  925TIP3   OH224333   4.869   6.452   3.474 -0.3232 -0.2339  0.2031
  925TIP3    H124334   4.940   6.388   3.481 -1.4192 -1.7399 -1.4142
  925TIP3    H224335   4.880   6.490   3.386 -0.1967  1.2090  0.8233
  926TIP3   OH224336   2.531   5.167   8.313 -0.2171  0.1817 -0.0037
  926TIP3    H124337   2.624   5.145   8.326 -0.8563 -1.6191  2.3243
  926TIP3    H224338   2.513   5.144   8.222  1.7601  1.2799 -0.7391
  927TIP3   OH224339   4.767   5.505   0.787 -0.1292  0.2433  0.0501
  927TIP3    H124340   4.734   5.490   0.875  0.3113 -1.1474  0.0030
  927TIP3    H224341   4.716   5.579   0.754 -2.9269 -1.4957  0.1532
  928TIP3   OH224342   5.807   4.146   3.062  0.3086 -0.2778 -0.4774
  928TIP3    H124343   5.802   4.108   2.974 -0.2036  0.4226 -0.7566
  928TIP3    H224344   5.785   4.239   3.050  1.6425  0.1618  0.1639
  929TIP3   OH224345   0.694   3.419   2.170 -0.4252 -1.0157 -0.3009
  929TIP3    H124346   0.730   3.501   2.138 -0.0780 -1.4577 -1.0602
  929TIP3    H224347   0.624   3.398   2.109 -0.2297 -1.5037 -0.3618
  930TIP3   OH224348   0.059   2.974   1.570 -0.0962 -0.0919  1.2884
  930TIP3    H124349  -0.031   2.946   1.585  0.0079 -0.7492  0.7730
  930TIP3    H224350   0.064   2.989   1.475  1.0776 -2.9492  0.7889
  931TIP3   OH224351   0.009   0.113   8.440 -0.4852 -0.3635  0.4565
  931TIP3    H124352   0.010   0.018   8.436  2.0809 -0.4346  0.6887
  931TIP3    H224353  -0.010   0.142   8.351  0.0218 -1.1350  0.0905
  932TIP3   OH224354   6.833   3.173   1.426 -0.3132 -0.4840  0.1934
  932TIP3    H124355   6.851   3.104   1.362 -0.6359  0.9983 -1.6068
  932TIP3    H224356   6.916   3.220   1.435 -1.1188  1.6730 -2.2381
  933TIP3   OH224357   4.362   0.438   2.628  0.2112  0.2215 -0.6312
  933TIP3    H124358   4.441   0.447   2.682  0.8582  1.4700 -1.7506
  933TIP3    H224359   4.292   0.420   2.692  1.1763  0.3334  0.4956
  934TIP3   OH224360   6.196   3.695   2.631 -0.7150  0.3312 -0.6153
  934TIP3    H124361   6.105   3.681   2.605 -1.1002  1.2670  0.1532
  934TIP3    H224362   6.190   3.748   2.711  0.4313 -1.6355  0.8604
  935TIP3   OH224363   0.024   5.366   1.950  0.7951  0.2033  0.0171
  935TIP3    H124364  -0.025   5.448   1.953  1.8608  0.8337  1.2066
  935TIP3    H224365  -0.041   5.298   1.968  0.0116  0.8307 -0.3878
  936TIP3   OH224366   6.204   5.523   0.339 -0.1888 -0.1228 -0.4390
  936TIP3    H124367   6.139   5.571   0.390  1.7972  0.3764  1.8022
  936TIP3    H224368   6.233   5.585   0.273 -0.7348  0.2483 -0.3364
  937TIP3   OH224369   1.288   5.752   0.688 -0.4967 -0.3968 -0.4517
  937TIP3    H124370   1.301   5.726   0.597 -1.7789 -0.6488 -0.5936
  937TIP3    H224371   1.269   5.670   0.734 -2.5967 -0.0169 -0.5232
  938TIP3   OH224372   5.088   4.015   0.146  0.2348  0.2332 -0.6178
  938TIP3    H124373   5.145   4.081   0.184  0.1501  0.0122 -0.0986
  938TIP3    H224374   5.130   3.992   0.063  0.5594  0.5367 -0.5403
  939TIP3   OH224375   1.908   4.482   1.578  0.3639 -0.0275  0.3378
  939TIP3    H124376   1.902   4.519   1.490 -0.4352 -0.5577  0.1647
  939TIP3    H224377   1.874   4.550   1.636  0.1517  0.0244  0.1523
  940TIP3   OH224378   1.811   3.353   3.498  0.1854 -0.5436 -0.3512
  940TIP3    H124379   1.741   3.341   3.434 -1.0896  1.2902  0.5922
  940TIP3    H224380   1.768   3.394   3.573  2.1311 -0.0991  0.5961
  941TIP3   OH224381   1.000   4.862   2.368  0.3135 -0.1647  0.3672
  941TIP3    H124382   1.039   4.778   2.391  1.3810 -0.0230 -0.8198
  941TIP3    H224383   1.060   4.899   2.304 -1.5806  0.2541 -1.2335
  942TIP3   OH224384   3.456   2.237   0.853 -0.2393 -0.0052  0.0781
  942TIP3    H124385   3.408   2.318   0.870  3.3049  2.4587 -0.7007
  942TIP3    H224386   3.506   2.255   0.773  0.7312 -2.9656 -0.1009
  943TIP3   OH224387   3.074   5.469   0.147 -0.0415 -0.7499 -0.1191
  943TIP3    H124388   3.129   5.460   0.224 -0.7013  0.3154  0.4903
  943TIP3    H224389   3.100   5.395   0.091  1.4818 -0.6862  0.4515
  944TIP3   OH224390   6.160   1.180   4.001  0.0713  0.1687  0.4373
  944TIP3    H124391   6.129   1.203   4.089 -0.3230  0.8443  0.1242
  944TIP3    H224392   6.173   1.085   4.005 -1.1554  0.0070  0.8483
  945TIP3   OH224393   0.366   0.056   0.572  0.1298  0.4948 -0.1375
  945TIP3    H124394   0.441   0.092   0.620  1.2626 -2.1209  0.2395
  945TIP3    H224395   0.400   0.039   0.485 -0.4784  0.6149 -0.4021
  946TIP3   OH224396   2.369   2.771   1.547 -0.3208 -0.3901 -0.1951
  946TIP3    H124397   2.387   2.854   1.502 -0.1026  0.4719  1.3971
  946TIP3    H224398   2.287   2.787   1.594  0.7151 -0.3601  1.7002
  947TIP3   OH224399   6.381   1.974   1.470 -0.1050  0.3920 -0.5569
  947TIP3    H124400   6.302   1.931   1.501  0.2212  0.1052 -0.1060
  947TIP3    H224401   6.379   2.061   1.509 -0.9627  0.9490 -1.7838
  948TIP3   OH224402   4.136   1.359   3.903 -0.0438 -0.0077  0.2001
  948TIP3    H124403   4.192   1.282   3.914  0.8498  0.8893  2.8314
  948TIP3    H224404   4.198   1.430   3.887 -0.4418  0.8167  2.0634
  949TIP3   OH224405   3.280   2.373   3.893  0.3274  1.0369 -0.0260
  949TIP3    H124406   3.227   2.295   3.904  1.6168 -0.1474 -1.6382
  949TIP3    H224407   3.303   2.399   3.982 -1.2120  0.3880  0.5998
  950TIP3   OH224408   6.217   6.766   1.128 -0.0977 -0.2199  0.0703
  950TIP3    H124409   6.311   6.754   1.118 -0.0162 -0.0279  0.5647
  950TIP3    H224410   6.199   6.737   1.218 -0.2302  1.3624  0.5819
  951TIP3   OH224411   3.032   1.756   0.299  0.0234 -0.2613  0.4666
  951TIP3    H124412   3.002   1.760   0.208 -0.2139 -2.7299  0.3772
  951TIP3    H224413   2.957   1.787   0.350  0.4821  2.0813 -0.1539
  952TIP3   OH224414   4.100   2.823   4.465 -0.4260  0.3951 -0.2168
  952TIP3    H124415   4.182   2.871   4.470  0.0907 -0.5718  1.2783
  952TIP3    H224416   4.043   2.878   4.410  1.2734  0.9534 -1.5265
  953TIP3   OH224417   6.863   3.493   0.512  0.0201 -0.5373 -0.2167
  953TIP3    H124418   6.809   3.445   0.449  0.4511 -1.3186 -0.0028
  953TIP3    H224419   6.891   3.426   0.574 -1.6997  0.4618  1.7613
  954TIP3   OH224420   4.642   2.230   3.803 -0.2199 -0.2460 -0.0400
  954TIP3    H124421   4.706   2.160   3.813 -1.0896 -1.3321 -1.6256
  954TIP3    H224422   4.613   2.249   3.892 -0.0839 -2.0267  0.4163
  955TIP3   OH224423   2.571   5.368   7.975  0.1678 -0.5069 -0.3117
  955TIP3    H124424   2.487   5.412   7.986 -0.5127 -1.7245 -0.4624
  955TIP3    H224425   2.632   5.417   8.031 -0.1642  1.5709 -1.6459
  956TIP3   OH224426   1.689   2.032   2.655 -0.2893  0.0875  0.0580
  956TIP3    H124427   1.717   2.086   2.581  2.1288 -0.9427  0.1330
  956TIP3    H224428   1.607   1.992   2.626 -1.7315  3.0484 -0.3010
  957TIP3   OH224429   1.928   1.142   2.753  0.0476 -0.3978 -0.7119
  957TIP3    H124430   1.847   1.095   2.773 -1.3112  1.9449 -0.3233
  957TIP3    H224431   1.932   1.143   2.658 -0.9048  0.1954 -0.7702
  958TIP3   OH224432   4.978   3.485   2.812  0.3997 -0.1195  0.4076
  958TIP3    H124433   4.883   3.489   2.802  0.3682 -0.5624  0.4906
  958TIP3    H224434   5.001   3.566   2.858  0.0406 -0.0987  0.5572
  959TIP3   OH224435   6.315   0.997   0.961  0.4346 -0.0650  0.4728
  959TIP3    H124436   6.371   0.984   0.885  2.0873  0.9768  1.4395
  959TIP3    H224437   6.250   1.061   0.933  0.9808  0.2488 -0.0912
  960TIP3   OH224438   1.979   3.400   3.736 -0.5039 -0.0118  0.3510
  960TIP3    H124439   1.990   3.307   3.755  0.4967 -0.1310 -0.6655
  960TIP3    H224440   1.939   3.402   3.649 -0.0771  0.5047  0.1583
  961TIP3   OH224441   4.806   3.271   0.125 -0.4372  0.2414 -0.0506
  961TIP3    H124442   4.898   3.280   0.148 -0.5693 -0.6921  0.9321
  961TIP3    H224443   4.798   3.182   0.090 -0.6644  0.8974 -1.7908
  962TIP3   OH224444   4.059   0.978   2.686  0.0202  0.1188  0.2810
  962TIP3    H124445   4.014   0.896   2.665  1.3319 -0.6748  0.5035
  962TIP3    H224446   4.106   1.001   2.606  0.0301  0.4149  0.3698
  963TIP3   OH224447   6.095   3.202   3.577  0.2677 -0.0505  0.4683
  963TIP3    H124448   6.156   3.164   3.639 -1.3964  0.0554  2.2533
  963TIP3    H224449   6.008   3.184   3.614 -0.7145  1.9469 -0.6811
  964TIP3   OH224450   4.549   3.507   0.793 -0.1386  0.2366 -0.5257
  964TIP3    H124451   4.643   3.525   0.793 -0.5020  2.6671  1.3251
  964TIP3    H224452   4.533   3.463   0.877 -0.8434  1.4370  0.0019
  965TIP3   OH224453   1.476   3.754   1.539 -0.0783 -0.0294 -0.2628
  965TIP3    H124454   1.394   3.798   1.518 -0.4380 -0.7085 -0.2985
  965TIP3    H224455   1.482   3.682   1.476  1.1271  0.7014 -1.0366
  966TIP3   OH224456   4.018   2.168   2.157  0.2764 -0.5070  0.2769
  966TIP3    H124457   4.025   2.092   2.214  0.8496  0.3416  1.3705
  966TIP3    H224458   4.101   2.215   2.168  0.0136  0.1893 -0.5204
  967TIP3   OH224459   4.667   5.396   2.295 -0.4120  0.4325 -0.1059
  967TIP3    H124460   4.723   5.464   2.332 -0.8068  1.8423 -1.9103
  967TIP3    H224461   4.580   5.435   2.294 -0.6859 -0.1712 -0.9625
  968TIP3   OH224462   4.986   3.725   2.089 -0.1808 -0.1823  0.5720
  968TIP3    H124463   4.933   3.755   2.016  0.7364  0.1256  0.0268
  968TIP3    H224464   4.923   3.708   2.159 -1.0521 -0.3573 -0.2391
  969TIP3   OH224465   3.706   1.024   2.967  0.1264  0.2163  0.2287
  969TIP3    H124466   3.704   1.042   3.061  3.0368  1.3575  0.1828
  969TIP3    H224467   3.777   1.078   2.934  0.1308 -1.2317 -2.4027
  970TIP3   OH224468   1.311   3.726   2.551  0.2582  0.4363  0.9268
  970TIP3    H124469   1.289   3.633   2.546 -0.2632  0.6150 -0.7496
  970TIP3    H224470   1.230   3.769   2.577 -0.8520  0.8086 -2.5879
  971TIP3   OH224471   2.476   2.968   2.506 -0.0301 -0.2433 -0.1945
  971TIP3    H124472   2.565   3.001   2.501 -0.7004  1.4281 -2.4824
  971TIP3    H224473   2.454   2.972   2.599  2.5878 -1.7415  0.5828
  972TIP3   OH224474   1.185   6.013   2.328 -0.2200 -0.2785 -0.2072
  972TIP3    H124475   1.131   6.091   2.336  0.8235  0.5338 -0.7703
  972TIP3    H224476   1.154   5.970   2.248  0.0196  0.2340 -0.5831
  973TIP3   OH224477   4.478   5.209   2.176 -0.4154  0.0985 -0.2050
  973TIP3    H124478   4.484   5.140   2.243  0.0853  0.9429  0.6520
  973TIP3    H224479   4.568   5.232   2.157 -0.5447 -0.4097 -1.4968
  974TIP3   OH224480   2.603   3.493   0.800  0.0951  0.1108 -0.4323
  974TIP3    H124481   2.591   3.500   0.895  0.7892  0.3563 -0.3549
  974TIP3    H224482   2.597   3.399   0.782 -0.4880  0.0982 -0.2173
  975TIP3   OH224483   2.922   5.137   1.947 -0.8875  0.3136  0.8813
  975TIP3    H124484   2.883   5.141   2.035  1.8480  1.3017  2.1804
  975TIP3    H224485   3.015   5.152   1.962 -0.5296  2.3047 -2.3903
  976TIP3   OH224486   0.332   1.905   1.640  0.4454  0.1683  0.2110
  976TIP3    H124487   0.396   1.975   1.649 -0.2131  0.8824 -0.4687
  976TIP3    H224488   0.274   1.934   1.569  0.9097 -1.6521 -0.9886
  977TIP3   OH224489   0.569   1.025   3.217  0.2214  0.6536  0.3167
  977TIP3    H124490   0.626   1.076   3.159  1.0026 -0.3424  0.1721
  977TIP3    H224491   0.574   0.936   3.182  0.2432  0.1524  1.5714
  978TIP3   OH224492   6.524   1.407   3.219 -0.7439  0.2032 -0.4954
  978TIP3    H124493   6.525   1.483   3.277 -1.4875 -0.6840  0.7258
  978TIP3    H224494   6.616   1.388   3.203 -0.5505  1.1581 -0.5434
  979TIP3   OH224495   1.170   0.044   2.558 -0.2871  0.2603  0.0619
  979TIP3    H124496   1.099   0.105   2.578  0.2019  0.3351  1.7477
  979TIP3    H224497   1.178  -0.010   2.636  0.1119 -1.1644 -0.9365
  980TIP3   OH224498   3.266   4.816   0.930  0.0107 -0.0296  0.2078
  980TIP3    H124499   3.338   4.784   0.985 -0.2116  0.6316  0.9073
  980TIP3    H224500   3.200   4.845   0.993 -1.0170 -0.9359 -0.4227
  981TIP3   OH224501   6.366   5.538   2.350 -0.6996  0.4829  0.0753
  981TIP3    H124502   6.335   5.577   2.268 -2.0312 -0.6124  0.0406
  981TIP3    H224503   6.402   5.453   2.324  1.8024  1.4220  0.2136
  982TIP3   OH224504   3.435   6.489   8.352 -0.4560 -0.8927 -0.1490
  982TIP3    H124505   3.459   6.568   8.401  0.6241 -0.8004 -0.7820
  982TIP3    H224506   3.484   6.418   8.395 -2.1794 -1.4257  1.0362
  983TIP3   OH224507   3.364   4.075   3.728 -0.1793 -0.3320 -0.4407
  983TIP3    H124508   3.343   3.982   3.736  0.9553 -0.5300  0.4923
  983TIP3    H224509   3.425   4.079   3.655  0.2353 -0.4051 -0.1001
  984TIP3   OH224510   3.921   4.304   0.695 -0.1176  0.4130 -0.1589
  984TIP3    H124511   3.916   4.399   0.705 -1.8621  0.2635  0.8838
  984TIP3    H224512   3.936   4.271   0.783  0.0309 -0.2994 -0.4464
  985TIP3   OH224513   0.064   4.405   3.622  0.6324 -0.0297  0.4548
  985TIP3    H124514  -0.030   4.397   3.633  0.6431  1.6681  2.3695
  985TIP3    H224515   0.076   4.490   3.579  1.2880 -0.1484  0.3878
  986TIP3   OH224516   4.043   5.682   0.507  0.4503  0.5771 -0.0424
  986TIP3    H124517   4.052   5.776   0.494  0.6400  0.6106  0.3078
  986TIP3    H224518   4.131   5.647   0.492  0.2825  0.3934 -0.6379
  987TIP3   OH224519   1.779   3.068   7.964  0.2446 -0.4628 -0.3815
  987TIP3    H124520   1.827   3.123   8.027 -0.7256  0.1391 -0.1443
  987TIP3    H224521   1.710   3.028   8.016  1.1133 -2.1914 -0.4892
  988TIP3   OH224522   6.778   3.993   4.142 -0.2915 -0.5777  0.4553
  988TIP3    H124523   6.859   3.945   4.125 -1.4214 -2.4442  0.0841
  988TIP3    H224524   6.804   4.062   4.203  1.4045 -1.7047  1.0885
  989TIP3   OH224525   6.819   4.651   1.538 -0.3412  0.3472 -0.1544
  989TIP3    H124526   6.801   4.580   1.600  0.3691  0.3457  0.0578
  989TIP3    H224527   6.735   4.667   1.496 -0.4059 -1.0034 -0.6040
  990TIP3   OH224528   3.768   2.124   2.068 -0.4425 -0.3723 -0.3708
  990TIP3    H124529   3.841   2.144   2.128  0.0227 -2.2824 -0.2574
  990TIP3    H224530   3.714   2.203   2.071 -0.1853 -0.1952  2.2174
  991TIP3   OH224531   5.704   6.194   0.751  0.1243  0.0374  0.7550
  991TIP3    H124532   5.721   6.101   0.739 -0.7603 -0.0250 -0.0933
  991TIP3    H224533   5.792   6.233   0.757  0.5171 -0.7434  0.2840
  992TIP3   OH224534   3.287   2.187   3.023 -0.5053  0.5916 -0.3088
  992TIP3    H124535   3.262   2.279   3.036 -3.1823 -0.0873 -0.1942
  992TIP3    H224536   3.245   2.140   3.093  2.1279 -0.6493  0.5801
  993TIP3   OH224537   6.511   1.864   2.463 -0.0845 -0.0049 -0.0268
  993TIP3    H124538   6.439   1.924   2.444  0.8504  1.5842  1.2246
  993TIP3    H224539   6.530   1.823   2.378 -2.2589 -0.2780 -0.4260
  994TIP3   OH224540   5.708   4.256   1.993 -0.1538  0.0038  0.4930
  994TIP3    H124541   5.663   4.333   1.958 -0.7668 -1.1069 -1.2991
  994TIP3    H224542   5.760   4.290   2.066 -0.1698  2.1588 -0.4206
  995TIP3   OH224543   5.284   3.495   2.829  0.1428  0.3867 -0.1341
  995TIP3    H124544   5.198   3.457   2.810 -0.1011  1.2148 -0.7661
  995TIP3    H224545   5.301   3.471   2.920 -0.8894  0.4502  0.0929
  996TIP3   OH224546   0.994   6.858   1.532  0.4009 -0.1951  0.2378
  996TIP3    H124547   1.026   6.836   1.445  0.1470 -0.8921  0.3132
  996TIP3    H224548   0.973   6.951   1.528 -0.9801 -0.5308 -0.8692
  997TIP3   OH224549   0.346   2.429   0.571  0.6823 -0.4171  0.6667
  997TIP3    H124550   0.412   2.396   0.632  1.8140 -1.8710 -1.2512
  997TIP3    H224551   0.372   2.520   0.556  0.8675 -0.2851  1.6820
  998TIP3   OH224552   4.819   6.680   0.337  0.3823 -0.2883  0.3429
  998TIP3    H124553   4.868   6.645   0.262 -0.5096  1.0337 -0.8987
  998TIP3    H224554   4.750   6.733   0.298  0.1348  0.7669  2.1276
  999TIP3   OH224555   2.622   6.932   2.053  0.6869  0.0229  0.1517
  999TIP3    H124556   2.614   6.994   2.125  1.1440 -1.1084  1.2224
  999TIP3    H224557   2.700   6.960   2.005  0.5761  0.5790  0.2919
 1000TIP3   OH224558   0.722   6.657   0.051  0.2537 -0.2327 -0.1490
 1000TIP3    H124559   0.658   6.697   0.111  0.8928  0.8700 -0.1924
 1000TIP3    H224560   0.671   6.590   0.005 -1.2156  1.4321 -1.0632
 1001TIP3   OH224561   4.683   0.071   3.139  0.0871 -0.1877  0.3996
 1001TIP3    H124562   4.688   0.150   3.192 -1.7576 -0.6076  1.2725
 1001TIP3    H224563   4.606   0.085   3.083 -0.1720 -1.2836  0.4634
 1002TIP3   OH224564   0.913   0.432   1.495 -0.3550  0.7994 -0.7014
 1002TIP3    H124565   0.830   0.397   1.526  0.3392 -0.4331 -0.1613
 1002TIP3    H224566   0.889   0.499   1.431 -1.7488  0.4942 -0.5239
 1003TIP3   OH224567   4.348   0.153   2.342 -0.2943 -1.3019  0.5413
 1003TIP3    H124568   4.396   0.114   2.269  1.6481 -0.3707  1.2759
 1003TIP3    H224569   4.301   0.227   2.303 -1.0927 -2.1450 -0.1541
 1004TIP3   OH224570   3.255   3.119   2.667 -0.2420  0.2682  0.1927
 1004TIP3    H124571   3.312   3.122   2.590 -1.4163 -1.0088 -0.7706
 1004TIP3    H224572   3.213   3.033   2.662 -0.4853  0.2365  2.1693
 1005TIP3   OH224573   6.032   4.418   3.150 -0.4362  0.1372 -0.8931
 1005TIP3    H124574   5.938   4.401   3.141 -0.4994  0.5339 -0.9868
 1005TIP3    H224575   6.074   4.344   3.105 -0.6643 -1.0042  0.6690
 1006TIP3   OH224576   0.747   1.471   2.125 -0.0085  0.4196  0.8754
 1006TIP3    H124577   0.783   1.399   2.072  0.8282  0.6528  1.1145
 1006TIP3    H224578   0.652   1.461   2.116  0.1010  0.6611 -0.9674
 1007TIP3   OH224579   5.617   4.531   0.347  0.0090  0.3644  0.2515
 1007TIP3    H124580   5.711   4.538   0.359 -0.1167  0.6614  1.1111
 1007TIP3    H224581   5.605   4.449   0.299  0.6216 -0.4113  1.3853
 1008TIP3   OH224582   3.005   3.724   1.575 -0.3021  0.3157 -0.0831
 1008TIP3    H124583   3.093   3.719   1.539 -0.0663  2.3625  0.0837
 1008TIP3    H224584   2.993   3.641   1.621  0.7682 -0.8132 -1.7649
 1009TIP3   OH224585   1.905   2.122   2.875  0.1063 -0.1298  0.1795
 1009TIP3    H124586   1.833   2.060   2.871  0.8363 -0.9596 -0.3655
 1009TIP3    H224587   1.955   2.095   2.952  1.1687 -1.0829 -0.8074
 1010TIP3   OH224588   2.485   3.782   0.520  0.5000 -0.1493 -0.0667
 1010TIP3    H124589   2.400   3.768   0.478 -0.2110  0.6761  1.0527
 1010TIP3    H224590   2.547   3.789   0.447 -0.8457  2.3808 -1.0793
 1011TIP3   OH224591   3.967   5.884   2.003 -0.1160 -0.0880 -0.2442
 1011TIP3    H124592   4.021   5.930   1.939  0.4240 -1.1194 -0.5585
 1011TIP3    H224593   3.909   5.829   1.950  0.2678 -0.8760  0.1464
 1012TIP3   OH224594   5.876   3.667   2.859 -0.0614  0.4829 -0.1971
 1012TIP3    H124595   5.842   3.721   2.931 -1.2411  1.3700 -1.3641
 1012TIP3    H224596   5.907   3.730   2.794 -0.7067 -0.2391 -1.2453
 1013TIP3   OH224597   2.181   0.589   2.090 -0.0757  0.2247  0.0389
 1013TIP3    H124598   2.265   0.560   2.125  0.1681  0.5538 -0.2644
 1013TIP3    H224599   2.143   0.510   2.051  0.3112  0.1747 -0.2479
 1014TIP3   OH224600   4.942   0.955   2.474  0.4284  0.0859 -0.2850
 1014TIP3    H124601   4.990   0.911   2.544  0.5233 -0.3955 -0.6530
 1014TIP3    H224602   4.955   0.900   2.397 -0.6249  0.0027 -0.4235
 1015TIP3   OH224603   6.753   1.723   1.500  0.5952  0.2341 -0.0877
 1015TIP3    H124604   6.773   1.667   1.425 -2.7282  0.3194 -1.1803
 1015TIP3    H224605   6.839   1.746   1.535  2.2257 -1.6746 -2.4453
 1016TIP3   OH224606   5.022   3.268   3.009  0.6178  0.2504  0.0599
 1016TIP3    H124607   4.971   3.345   2.983  2.0569  1.1120 -0.3040
 1016TIP3    H224608   5.064   3.294   3.091 -0.0672 -0.7089  0.7370
 1017TIP3   OH224609   3.275   2.766   3.010 -0.3798  0.6235 -0.4724
 1017TIP3    H124610   3.223   2.830   3.058 -1.1973 -0.3559 -0.0169
 1017TIP3    H224611   3.212   2.719   2.955 -0.0452 -0.7359  0.2543
 1018TIP3   OH224612   4.895   0.721   0.571 -0.4710 -0.3642  0.4157
 1018TIP3    H124613   4.890   0.686   0.482 -0.6132  1.5065 -0.3487
 1018TIP3    H224614   4.804   0.737   0.595 -0.4099 -0.5773  0.7931
 1019TIP3   OH224615   2.567   3.666   4.152  0.2213 -0.0228 -0.1778
 1019TIP3    H124616   2.518   3.746   4.169 -0.0781 -0.2785  0.1802
 1019TIP3    H224617   2.642   3.670   4.211  1.2697  0.9081 -1.5162
 1020TIP3   OH224618   1.974   3.471   0.272 -0.1562  1.0386 -0.0301
 1020TIP3    H124619   2.068   3.486   0.259  0.0944 -0.9097 -0.8830
 1020TIP3    H224620   1.938   3.464   0.184 -0.5814 -0.8127  0.2327
 1021TIP3   OH224621   4.564   5.370   3.592  0.1114 -0.6262  0.0863
 1021TIP3    H124622   4.520   5.386   3.509  1.1119 -0.1426 -0.3649
 1021TIP3    H224623   4.580   5.458   3.628 -0.7640 -0.8387  1.0439
 1022TIP3   OH224624   4.337   3.422   3.390  0.2535 -0.0408  0.2251
 1022TIP3    H124625   4.400   3.478   3.436  2.0505 -0.7636 -1.1995
 1022TIP3    H224626   4.315   3.353   3.452 -0.7462  1.3320  1.4464
 1023TIP3   OH224627   4.110   2.663   0.786  0.1999 -0.1606 -0.2651
 1023TIP3    H124628   4.058   2.667   0.706  0.6017 -1.1994 -0.5852
 1023TIP3    H224629   4.154   2.578   0.782  0.3079 -0.1750  1.0074
 1024TIP3   OH224630   2.593   1.705   1.253  0.4176 -0.4322  0.5365
 1024TIP3    H124631   2.577   1.614   1.226 -0.9513 -0.8926  2.6555
 1024TIP3    H224632   2.685   1.721   1.230 -0.5139 -0.6270 -4.3271
 1025TIP3   OH224633   4.986   4.706   4.241  0.5728 -0.3385 -0.0614
 1025TIP3    H124634   4.953   4.617   4.256  0.3003  0.1208  2.6167
 1025TIP3    H224635   4.915   4.751   4.195 -0.0213 -1.0240  0.1644
 1026TIP3   OH224636   6.739   6.482   3.490  0.3709 -0.1695 -0.1551
 1026TIP3    H124637   6.695   6.566   3.499  0.7555  0.1162 -0.8687
 1026TIP3    H224638   6.669   6.420   3.468 -0.1075 -0.3014  1.5885
 1027TIP3   OH224639   5.179   4.413   0.726  0.1013 -0.7752  0.5005
 1027TIP3    H124640   5.249   4.468   0.760 -1.4965  1.1122  0.9127
 1027TIP3    H224641   5.143   4.369   0.803  0.0437 -0.7955  0.4622
 1028TIP3   OH224642   2.160   3.792   0.713  0.2352  0.6480 -0.0126
 1028TIP3    H124643   2.159   3.840   0.630 -1.8120  1.1599  0.2425
 1028TIP3    H224644   2.077   3.816   0.755 -1.0062 -3.1893  0.1034
 1029TIP3   OH224645   1.532   6.657   1.285 -0.1376 -0.3351 -0.0490
 1029TIP3    H124646   1.512   6.743   1.249 -0.1217 -0.4321 -0.2890
 1029TIP3    H224647   1.582   6.613   1.216  3.0840  0.7804  1.3704
 1030TIP3   OH224648   4.560   5.180   0.726  0.2772  0.3909 -0.1190
 1030TIP3    H124649   4.611   5.242   0.778 -0.9112  1.8943 -0.6470
 1030TIP3    H224650   4.482   5.163   0.780  0.5234 -0.5359 -0.0500
 1031TIP3   OH224651   4.219   0.453   1.543  0.2224  0.1195  0.0863
 1031TIP3    H124652   4.309   0.437   1.513  0.2931  0.1512  0.2817
 1031TIP3    H224653   4.202   0.544   1.518  0.1445  0.0280 -0.2007
 1032TIP3   OH224654   3.541   2.336   1.392 -0.3281 -0.5426  0.0525
 1032TIP3    H124655   3.563   2.276   1.464  0.1352 -0.2982  0.1227
 1032TIP3    H224656   3.475   2.394   1.430  0.5464  0.1379  0.5715
 1033TIP3   OH224657   6.367   2.140   2.766 -0.0499  0.1574  1.1433
 1033TIP3    H124658   6.343   2.052   2.795 -0.7491  0.5357  1.7429
 1033TIP3    H224659   6.296   2.167   2.708 -0.2582  0.6380  1.6070
 1034TIP3   OH224660   4.298   2.806   0.556 -0.0536 -0.1040 -0.5691
 1034TIP3    H124661   4.362   2.750   0.600  1.0961  1.3725 -0.2836
 1034TIP3    H224662   4.214   2.761   0.568  0.3519 -0.3039  2.2888
 1035TIP3   OH224663   6.426   6.549   1.109 -0.3376 -0.2825 -0.0180
 1035TIP3    H124664   6.355   6.529   1.169 -0.2918  0.8515  0.4468
 1035TIP3    H224665   6.433   6.472   1.052 -0.6657 -1.1932  1.1428
 1036TIP3   OH224666   3.246   1.770   3.235 -0.2113  0.6032 -0.1191
 1036TIP3    H124667   3.224   1.727   3.317 -0.0178 -0.8881 -0.8191
 1036TIP3    H224668   3.342   1.771   3.233 -0.2108  1.2034 -0.0543
 1037TIP3   OH224669   4.686   2.295   2.578 -0.5855 -0.4942  0.2589
 1037TIP3    H124670   4.619   2.357   2.548  0.1970  0.4156  0.3495
 1037TIP3    H224671   4.701   2.319   2.669 -1.4940 -1.9427  0.8128
 1038TIP3   OH224672   3.024   0.369   3.152  0.3713  0.1692 -0.3663
 1038TIP3    H124673   2.987   0.446   3.109  0.5324 -0.5649 -1.8631
 1038TIP3    H224674   2.971   0.296   3.121  1.2409 -0.5307 -0.2538
 1039TIP3   OH224675   5.628   3.549   3.663 -0.4943 -0.1740 -0.4106
 1039TIP3    H124676   5.550   3.558   3.717 -0.8375 -0.5040 -0.8480
 1039TIP3    H224677   5.649   3.639   3.636  0.7585  0.2430  1.7496
 1040TIP3   OH224678   6.088   2.477   3.532  0.4930  0.2007 -0.0535
 1040TIP3    H124679   6.047   2.485   3.618 -0.1582 -1.0092 -0.2351
 1040TIP3    H224680   6.152   2.549   3.529 -0.4872  1.1481  0.8529
 1041TIP3   OH224681   1.756   4.590   3.589 -0.0788  0.2298  0.5970
 1041TIP3    H124682   1.776   4.657   3.524  0.8534  1.0804  1.7081
 1041TIP3    H224683   1.841   4.562   3.623 -0.5166 -0.5598  1.0956
 1042TIP3   OH224684   4.522   6.675   2.797  0.6612 -0.2735  0.5438
 1042TIP3    H124685   4.475   6.742   2.846  0.1930 -0.2270  0.0472
 1042TIP3    H224686   4.469   6.597   2.805  1.3156 -0.6579  1.2985
 1043TIP3   OH224687   6.919   4.883   1.399  0.1574  0.2215 -0.6217
 1043TIP3    H124688   7.011   4.857   1.405 -0.4850 -1.9719  0.8625
 1043TIP3    H224689   6.873   4.804   1.369 -1.4531  0.6893  0.4540
 1044TIP3   OH224690   2.006   5.577   2.817 -0.8085  0.4562 -0.1581
 1044TIP3    H124691   1.922   5.559   2.773 -1.0710  0.9812  0.1251
 1044TIP3    H224692   1.984   5.636   2.888 -0.3962 -0.4455  0.7456
 1045TIP3   OH224693   1.730   4.594   3.270  0.0263  0.2793  0.3299
 1045TIP3    H124694   1.680   4.545   3.335 -0.6516  0.0791 -0.3236
 1045TIP3    H224695   1.753   4.676   3.313 -0.6909  0.2853  0.7126
 1046TIP3   OH224696   2.748   5.078   0.995  0.0816  0.0637 -0.4861
 1046TIP3    H124697   2.723   5.053   1.084 -0.2664  1.2894 -0.2304
 1046TIP3    H224698   2.843   5.063   0.993 -0.0986 -1.2914 -0.3724
 1047TIP3   OH224699   2.024   1.639   2.295  0.5393  0.0065  0.2128
 1047TIP3    H124700   2.058   1.564   2.344  0.3391  0.3119  0.8424
 1047TIP3    H224701   2.099   1.674   2.248  0.4656 -1.0717 -0.7371
 1048TIP3   OH224702   4.290   2.717   1.457 -0.2686  0.4224  0.4604
 1048TIP3    H124703   4.230   2.777   1.501 -0.8095  0.3016 -0.1047
 1048TIP3    H224704   4.348   2.686   1.527  0.8389  2.5368  0.5586
 1049TIP3   OH224705   4.210   1.056   2.468  0.2342  0.0988 -0.0625
 1049TIP3    H124706   4.271   1.125   2.493 -0.7264  0.0716  2.7601
 1049TIP3    H224707   4.264   0.992   2.421  2.0124  0.8394  0.8708
 1050TIP3   OH224708   5.385   6.185   3.222  0.7523 -0.0537  0.2693
 1050TIP3    H124709   5.338   6.139   3.291 -0.4117  0.5968 -0.0595
 1050TIP3    H224710   5.472   6.201   3.259  0.0494  0.5763  1.7388
 1051TIP3   OH224711   1.908   0.176   1.113  0.1456  0.2072 -0.3801
 1051TIP3    H124712   1.884   0.241   1.179  1.2451  1.1093 -0.8452
 1051TIP3    H224713   1.902   0.222   1.029 -0.9181 -0.8325 -0.9119
 1052TIP3   OH224714   6.808   0.654   1.505  0.1333  0.1558 -0.4521
 1052TIP3    H124715   6.785   0.621   1.418  0.4909 -0.9849 -0.1347
 1052TIP3    H224716   6.819   0.748   1.492  1.3595 -0.1306 -1.9249
 1053TIP3   OH224717   0.490   0.840   3.991 -0.0044 -0.2029  0.9622
 1053TIP3    H124718   0.406   0.884   4.003  1.1671  1.9472  1.8866
 1053TIP3    H224719   0.522   0.823   4.080  1.6777  1.4430  0.7455
 1054TIP3   OH224720   3.228   2.071   3.667  0.0639 -0.0559  0.6745
 1054TIP3    H124721   3.315   2.081   3.706 -0.7059  2.2281  1.9983
 1054TIP3    H224722   3.170   2.119   3.726 -1.7176  0.5384 -1.4550
 1055TIP3   OH224723   1.001   1.133   2.469 -0.5052 -0.1381 -0.1147
 1055TIP3    H124724   0.937   1.198   2.498 -2.2704 -1.7024 -0.3511
 1055TIP3    H224725   0.956   1.084   2.400  0.6709 -1.8217  0.2681
 1056TIP3   OH224726   5.158   1.560   2.573  0.1639 -0.6108  0.5829
 1056TIP3    H124727   5.200   1.615   2.639  0.0704 -1.0173  0.9953
 1056TIP3    H224728   5.188   1.471   2.594 -1.2218 -0.9722  1.1598
 1057TIP3   OH224729   4.766   4.179   1.431  0.4387 -0.4721 -0.0844
 1057TIP3    H124730   4.706   4.132   1.489  1.0695 -0.9423  0.1989
 1057TIP3    H224731   4.823   4.228   1.491  1.0019 -0.8473 -0.3078
 1058TIP3   OH224732   2.215   1.542   0.691 -0.8668 -0.0796  0.7767
 1058TIP3    H124733   2.198   1.585   0.607  3.7188 -3.0059 -2.1314
 1058TIP3    H224734   2.192   1.450   0.675  1.1617 -0.9197  2.2902
 1059TIP3   OH224735   6.417   4.188   1.821  0.3640  0.2116 -0.0155
 1059TIP3    H124736   6.321   4.193   1.823  0.4383  2.3689  1.9822
 1059TIP3    H224737   6.436   4.143   1.739 -2.3568 -0.8448 -0.1831
 1060TIP3   OH224738   2.481   5.845   0.351  0.7510  0.3954 -0.0031
 1060TIP3    H124739   2.425   5.820   0.425 -2.6397  0.9089 -2.1622
 1060TIP3    H224740   2.490   5.765   0.299  0.9574  0.6149 -0.3090
 1061TIP3   OH224741   3.195   6.610   3.699 -0.7304 -0.1627  0.5498
 1061TIP3    H124742   3.162   6.527   3.735  3.0890 -1.1535  2.2785
 1061TIP3    H224743   3.253   6.584   3.628 -0.8262  1.1879 -0.0470
 1062TIP3   OH224744   4.963   0.699   1.677  0.3960 -0.0430  0.1182
 1062TIP3    H124745   5.023   0.688   1.603  1.8360 -0.0532  1.2423
 1062TIP3    H224746   5.018   0.687   1.754 -1.2128 -0.7093  1.2007
 1063TIP3   OH224747   1.368   4.210   2.783 -0.2347  0.0223  0.0985
 1063TIP3    H124748   1.429   4.145   2.747  0.5260  1.2681 -0.9651
 1063TIP3    H224749   1.425   4.272   2.828 -0.7086  1.1576 -0.8333
 1064TIP3   OH224750   1.557   6.218   7.988 -0.0675  0.6471  0.8244
 1064TIP3    H124751   1.612   6.140   7.983 -1.8487 -0.7292  1.5429
 1064TIP3    H224752   1.560   6.256   7.900 -0.2889 -1.0699  0.0377
 1065TIP3   OH224753   3.886   1.243   1.107  0.1925  0.5673 -0.2780
 1065TIP3    H124754   3.875   1.174   1.042  2.5559 -0.6316  0.4786
 1065TIP3    H224755   3.820   1.224   1.174 -0.9431  0.6675 -1.3230
 1066TIP3   OH224756   3.238   1.840   1.561  0.4801 -0.2694 -0.0040
 1066TIP3    H124757   3.204   1.910   1.506 -0.5340  0.3982  1.4109
 1066TIP3    H224758   3.183   1.764   1.540 -1.9808  0.7558  2.1443
 1067TIP3   OH224759   6.665   6.829   1.761 -0.1129 -0.0967 -0.0634
 1067TIP3    H124760   6.617   6.779   1.695 -1.8040 -0.5008  1.3770
 1067TIP3    H224761   6.610   6.907   1.776 -0.0420 -0.2756  1.2035
 1068TIP3   OH224762   1.720   4.344   3.123 -0.0737 -0.0331  0.2166
 1068TIP3    H124763   1.710   4.432   3.160 -2.4933  0.4723 -1.3822
 1068TIP3    H224764   1.753   4.291   3.195  0.2454  1.9087  1.5775
 1069TIP3   OH224765   0.519   1.768   0.898  0.6615 -0.1346 -0.0207
 1069TIP3    H124766   0.571   1.712   0.840  1.8553  1.3129 -0.4177
 1069TIP3    H224767   0.576   1.843   0.915 -1.0019  1.0959  0.2719
 1070TIP3   OH224768   4.857   5.989   2.790  0.9325 -1.0526  0.2656
 1070TIP3    H124769   4.883   5.920   2.729 -0.0255 -0.4513 -0.8650
 1070TIP3    H224770   4.766   6.009   2.767  0.3356 -1.1871  2.2769
 1071TIP3   OH224771   5.714   2.476   1.088  0.2440 -0.4695  0.1904
 1071TIP3    H124772   5.759   2.478   1.173  0.6972 -1.7210  0.0058
 1071TIP3    H224773   5.769   2.419   1.034 -0.8362 -0.9070 -0.4651
 1072TIP3   OH224774   3.140   2.929   0.161  0.2862 -0.3389 -0.4556
 1072TIP3    H124775   3.059   2.964   0.198  1.2978  1.9339 -0.2751
 1072TIP3    H224776   3.117   2.907   0.071 -0.6770 -0.3536 -0.2254
 1073TIP3   OH224777   4.625   2.931   4.071  0.2114 -0.5210  0.1733
 1073TIP3    H124778   4.680   2.892   4.139  1.8764  0.5001 -0.4989
 1073TIP3    H224779   4.595   3.014   4.109  0.4909 -0.3246 -0.0231
 1074TIP3   OH224780   1.662   4.675   2.167  0.3208 -0.0628 -0.2345
 1074TIP3    H124781   1.742   4.627   2.148  1.3252  1.1523  0.7122
 1074TIP3    H224782   1.669   4.699   2.259 -2.6647 -2.6313  0.8156
 1075TIP3   OH224783   5.702   4.904   0.344  0.4162  0.1437 -0.5231
 1075TIP3    H124784   5.770   4.879   0.406  1.3682  2.0095 -0.7196
 1075TIP3    H224785   5.748   4.908   0.259 -1.2794 -4.4970 -1.9819
 1076TIP3   OH224786   0.694   0.353   1.654  0.4935  0.4711 -0.2542
 1076TIP3    H124787   0.693   0.386   1.743 -1.1303  0.4102 -0.2336
 1076TIP3    H224788   0.662   0.263   1.661 -0.3272  0.6988 -0.9802
 1077TIP3   OH224789   1.247   3.735   3.080 -0.0791  0.3227  0.7971
 1077TIP3    H124790   1.304   3.788   3.025 -0.9127  0.5191  0.1033
 1077TIP3    H224791   1.198   3.680   3.018 -1.2201  0.7291  1.3104
 1078TIP3   OH224792   5.018   2.951   3.909  0.2606  0.1735  0.1772
 1078TIP3    H124793   5.088   3.008   3.940  1.4474 -1.0679 -0.1000
 1078TIP3    H224794   5.027   2.950   3.814  0.1111 -0.2893  0.1633
 1079TIP3   OH224795   1.034   2.906   0.637 -0.7022  0.1777 -0.6928
 1079TIP3    H124796   1.126   2.898   0.661 -1.1601 -3.3404  0.5085
 1079TIP3    H224797   1.009   2.993   0.668  2.0202  0.9980 -0.4997
 1080TIP3   OH224798   2.429   3.055   2.045  0.4982 -0.4024 -0.4140
 1080TIP3    H124799   2.425   3.005   2.127 -1.6472 -1.4254 -1.0583
 1080TIP3    H224800   2.437   3.146   2.072  1.1826 -0.8170  0.8729
 1081TIP3   OH224801   6.483   1.221   0.655 -0.3052 -0.1926  0.1446
 1081TIP3    H124802   6.444   1.246   0.571 -1.7312  0.1049  0.8690
 1081TIP3    H224803   6.491   1.303   0.704 -0.8004 -0.5279  0.8134
 1082TIP3   OH224804   6.085   4.071   1.496 -0.4827 -0.1800 -0.2792
 1082TIP3    H124805   6.003   4.072   1.445 -0.2623 -0.6574 -0.6450
 1082TIP3    H224806   6.065   4.125   1.573 -1.1169 -0.2186 -0.4063
 1083TIP3   OH224807   2.108   1.413   2.412 -0.3512 -0.4472 -0.3898
 1083TIP3    H124808   2.042   1.351   2.443 -1.5419 -0.0106 -1.9255
 1083TIP3    H224809   2.190   1.365   2.418 -0.7127 -0.8622  1.9803
 1084TIP3   OH224810   2.594   0.221   3.556  0.0030  0.3690 -0.5149
 1084TIP3    H124811   2.613   0.286   3.488  0.2065 -0.6004 -1.4221
 1084TIP3    H224812   2.616   0.137   3.515  1.6914 -0.1485  1.3059
 1085TIP3   OH224813   3.291   4.098   4.002  0.1398 -0.7767 -0.1131
 1085TIP3    H124814   3.219   4.156   3.977  0.3278 -0.6143 -0.2818
 1085TIP3    H224815   3.331   4.072   3.919  0.5902 -0.4588  0.0014
 1086TIP3   OH224816   1.833   6.605   1.647 -0.2182  0.5493  0.3229
 1086TIP3    H124817   1.817   6.581   1.738  0.0409  2.3343  0.8906
 1086TIP3    H224818   1.753   6.652   1.621  0.4640  1.7481  0.2950
 1087TIP3   OH224819   3.536   4.764   1.094  0.1003  0.0439  0.9458
 1087TIP3    H124820   3.615   4.788   1.046  0.2611 -0.8990  0.7215
 1087TIP3    H224821   3.568   4.743   1.182  0.0687 -0.0521  0.9351
 1088TIP3   OH224822   3.823   4.807   2.249 -0.3207  0.0591 -0.3844
 1088TIP3    H124823   3.845   4.900   2.247  1.6366 -0.3699 -0.5423
 1088TIP3    H224824   3.787   4.793   2.337  0.9159  0.6552  0.2333
 1089TIP3   OH224825   6.843   2.903   2.607 -0.4567 -0.3134  0.2178
 1089TIP3    H124826   6.816   2.984   2.565 -1.4942 -0.1048  1.2467
 1089TIP3    H224827   6.939   2.901   2.597 -0.5142  0.5959 -0.5637
 1090TIP3   OH224828   4.700   5.589   1.916  0.6406  0.9161  0.2177
 1090TIP3    H124829   4.699   5.494   1.932 -0.8061  0.7100 -0.8483
 1090TIP3    H224830   4.616   5.606   1.873 -0.0192  2.9982  2.1616
 1091TIP3   OH224831   0.985   4.997   2.629 -0.2523  0.1986  0.4090
 1091TIP3    H124832   1.028   5.081   2.611 -0.9607  0.3524 -0.6044
 1091TIP3    H224833   1.018   4.939   2.561 -2.5539  0.6471 -1.1991
 1092TIP3   OH224834   4.406   6.144   1.995 -0.2906  0.4515 -0.2757
 1092TIP3    H124835   4.490   6.187   1.978  0.9641 -1.0573  1.7455
 1092TIP3    H224836   4.342   6.216   1.993  1.1607  1.7864 -0.8961
 1093TIP3   OH224837   3.835   5.239   1.043  0.4998  0.2834  0.5129
 1093TIP3    H124838   3.818   5.313   0.985  1.0259  0.7712  0.9720
 1093TIP3    H224839   3.760   5.180   1.029 -0.0816  1.0352  0.3689
 1094TIP3   OH224840   5.895   1.013   0.595  0.4384 -0.4760  1.4703
 1094TIP3    H124841   5.861   1.057   0.517  1.1428 -0.8253  0.9524
 1094TIP3    H224842   5.956   1.075   0.633 -0.7630  0.1637  2.4177
 1095TIP3   OH224843   6.597   0.907   1.225 -0.0417 -0.0354 -0.4524
 1095TIP3    H124844   6.690   0.899   1.243  0.0866  2.8356  0.5941
 1095TIP3    H224845   6.590   0.983   1.168 -1.7607 -0.2019 -0.5280
 1096TIP3   OH224846   0.138   3.024   2.036  0.1953  0.0628  0.3112
 1096TIP3    H124847   0.213   2.983   2.079 -0.0456 -1.1543 -0.3651
 1096TIP3    H224848   0.099   2.953   1.985 -1.6393  0.5702  0.9321
 1097TIP3   OH224849   3.154   1.120   3.272 -0.0988  0.2285 -0.0865
 1097TIP3    H124850   3.188   1.092   3.357 -1.0664 -0.1226  0.2023
 1097TIP3    H224851   3.114   1.205   3.289  1.4907  1.1410 -0.6430
 1098TIP3   OH224852   6.034   0.794   3.345  0.7576  0.2092 -0.5901
 1098TIP3    H124853   5.977   0.759   3.276  0.8391 -0.6344 -0.2458
 1098TIP3    H224854   6.122   0.770   3.316  0.7829 -0.2688 -0.1338
 1099TIP3   OH224855   4.797   2.998   2.889 -0.0284 -0.2244 -0.1391
 1099TIP3    H124856   4.784   2.903   2.883 -0.0396 -0.2146 -0.2681
 1099TIP3    H224857   4.752   3.023   2.970 -0.3914 -0.2678 -0.3239
 1100TIP3   OH224858   4.134   4.406   2.115 -0.2183 -0.6221  0.0552
 1100TIP3    H124859   4.109   4.415   2.023  0.4533  0.2828 -0.0505
 1100TIP3    H224860   4.117   4.314   2.135 -3.3559 -0.1577 -0.0559
 1101TIP3   OH224861   3.263   0.681   1.476  0.2247  0.0215  0.0379
 1101TIP3    H124862   3.174   0.665   1.508 -1.0694  2.0401 -2.2049
 1101TIP3    H224863   3.275   0.617   1.406  0.1333  0.4280 -0.3486
 1102TIP3   OH224864   0.022   1.830   4.303  0.8464 -0.5431 -0.1765
 1102TIP3    H124865   0.002   1.924   4.298 -0.7347 -0.8326  0.1942
 1102TIP3    H224866  -0.048   1.788   4.254  1.3307 -1.5667 -0.0202
 1103TIP3   OH224867   1.868   0.169   1.765  0.1131 -0.0911 -0.9238
 1103TIP3    H124868   1.811   0.096   1.741  0.1174  0.0528 -1.3715
 1103TIP3    H224869   1.808   0.244   1.769 -0.2171 -0.4058  1.2007
 1104TIP3   OH224870   2.407   0.252   8.257 -0.0089  0.1971  0.2306
 1104TIP3    H124871   2.404   0.164   8.294 -0.8375  0.2446  0.2866
 1104TIP3    H224872   2.386   0.240   8.164 -1.3308  0.4545  0.4743
 1105TIP3   OH224873   1.164   3.098   1.772  0.1543 -0.3941  0.8042
 1105TIP3    H124874   1.109   3.049   1.833 -1.2022  0.6939  0.4977
 1105TIP3    H224875   1.112   3.104   1.692  0.9835  0.1265  0.2928
 1106TIP3   OH224876   0.957   1.262   0.439 -0.1066  0.1212 -0.0845
 1106TIP3    H124877   0.874   1.301   0.465  0.0428  0.2634  0.1875
 1106TIP3    H224878   0.942   1.168   0.441 -0.0019  0.1214  0.8385
 1107TIP3   OH224879   5.801   4.893   8.378  0.3686 -0.0561  0.0226
 1107TIP3    H124880   5.842   4.925   8.458 -2.4531  0.6691  1.2645
 1107TIP3    H224881   5.813   4.964   8.315  1.6088 -0.1777  0.0789
 1108TIP3   OH224882   2.428   0.678   2.230 -0.1133  0.5481 -0.3942
 1108TIP3    H124883   2.465   0.750   2.179  0.1086  0.0438 -0.9668
 1108TIP3    H224884   2.501   0.617   2.241 -0.2840  0.4335  0.1314
 1109TIP3   OH224885   2.511   0.391   1.194  0.4050 -0.2559  0.3633
 1109TIP3    H124886   2.445   0.404   1.126 -0.0552  0.2265  0.8976
 1109TIP3    H224887   2.523   0.296   1.197 -0.5519 -0.3796  0.5279
 1110TIP3   OH224888   0.546   4.519   4.187 -0.3868 -0.3293  0.2772
 1110TIP3    H124889   0.492   4.576   4.242  0.3165 -1.3447  2.0988
 1110TIP3    H224890   0.608   4.579   4.144 -0.4419  0.4207  1.2023
 1111TIP3   OH224891   2.828   5.766   3.443 -0.1080 -0.4530  0.3857
 1111TIP3    H124892   2.822   5.852   3.483 -0.2014 -0.3498  0.1515
 1111TIP3    H224893   2.759   5.765   3.377 -0.2180 -0.7699  0.5054
 1112TIP3   OH224894   0.347   4.433   3.388 -0.5732 -0.2891 -0.4551
 1112TIP3    H124895   0.418   4.389   3.341 -1.8554 -0.6963 -2.1038
 1112TIP3    H224896   0.390   4.507   3.431  1.1681 -1.5886  0.1948
 1113TIP3   OH224897   5.642   1.357   1.500 -0.1070  0.1854 -0.1804
 1113TIP3    H124898   5.672   1.305   1.574  0.6804  1.6343  0.5777
 1113TIP3    H224899   5.713   1.349   1.435  0.0250  0.3183 -0.0545
 1114TIP3   OH224900   3.813   4.312   4.039  0.1693 -0.1204 -0.0368
 1114TIP3    H124901   3.785   4.224   4.063 -0.4895 -0.0217 -0.4061
 1114TIP3    H224902   3.829   4.356   4.122 -0.3714 -0.3173  0.1764
 1115TIP3   OH224903   2.384   4.543   2.926 -0.6930 -0.6513  0.2831
 1115TIP3    H124904   2.386   4.467   2.983 -1.2027 -0.8360  0.0542
 1115TIP3    H224905   2.304   4.534   2.875  0.5867 -1.4201 -1.7253
 1116TIP3   OH224906   6.859   2.363   2.410  0.2943  0.2715  0.2550
 1116TIP3    H124907   6.818   2.421   2.346  3.1699  1.8582 -0.3537
 1116TIP3    H224908   6.821   2.277   2.392 -3.0475  1.5944  0.1975
 1117TIP3   OH224909   2.174   0.682   3.854  0.3822 -0.1899  0.5355
 1117TIP3    H124910   2.084   0.655   3.838  0.2111  1.4671 -1.8451
 1117TIP3    H224911   2.218   0.602   3.882 -1.5557 -1.3059  0.5662
 1118TIP3   OH224912   1.609   4.206   1.755 -0.5045 -0.2738  0.2443
 1118TIP3    H124913   1.537   4.145   1.738 -0.9322 -0.3135  1.9911
 1118TIP3    H224914   1.585   4.248   1.837  1.7719 -0.7323  1.2085
 1119TIP3   OH224915   2.169   3.090   0.803  0.7820  0.2825  0.0094
 1119TIP3    H124916   2.091   3.142   0.783  0.9842  1.0212  1.0667
 1119TIP3    H224917   2.172   3.024   0.734 -1.1330 -0.1554  0.2961
 1120TIP3   OH224918   6.409   6.668   0.426  0.1490  0.2011  0.7709
 1120TIP3    H124919   6.365   6.592   0.387 -0.3733  0.6993  0.3610
 1120TIP3    H224920   6.433   6.722   0.351  1.5168 -0.0728  0.9841
 1121TIP3   OH224921   6.937   6.868   1.824  0.7858  0.2473  0.1175
 1121TIP3    H124922   6.847   6.854   1.796  1.5824 -1.1822 -2.0498
 1121TIP3    H224923   6.939   6.840   1.915 -1.0831  0.9916  0.4154
 1122TIP3   OH224924   5.781   2.563   2.194  0.6072 -0.0684  0.7177
 1122TIP3    H124925   5.765   2.487   2.250  0.9551 -1.0545 -0.4656
 1122TIP3    H224926   5.844   2.616   2.243 -0.4123  0.0028  2.0138
 1123TIP3   OH224927   6.816   5.785   0.681  0.1182  0.0612 -0.0912
 1123TIP3    H124928   6.741   5.815   0.630 -0.7370  1.2509  1.7694
 1123TIP3    H224929   6.867   5.864   0.697 -0.0664 -0.1315  1.5406
 1124TIP3   OH224930   1.231   5.428   2.587 -0.1848  0.3803 -0.5592
 1124TIP3    H124931   1.273   5.343   2.577 -0.4303 -0.0570  1.5718
 1124TIP3    H224932   1.287   5.476   2.648 -0.9072  1.1196 -0.4564
 1125TIP3   OH224933   6.295   2.657   3.481 -0.2225  0.1324 -0.6195
 1125TIP3    H124934   6.349   2.673   3.404  1.5249 -2.3588 -0.0071
 1125TIP3    H224935   6.353   2.614   3.543 -2.1831 -0.0071  1.2388
 1126TIP3   OH224936   2.485   0.818   3.811  0.2791  0.7818 -0.6935
 1126TIP3    H124937   2.469   0.854   3.899 -1.3428  0.8282 -0.9700
 1126TIP3    H224938   2.535   0.738   3.827  1.6990  1.7954  0.1129
 1127TIP3   OH224939   0.716   2.338   2.429  0.5105 -0.2242  0.0551
 1127TIP3    H124940   0.721   2.292   2.345 -1.1378 -1.1611  0.4337
 1127TIP3    H224941   0.638   2.393   2.421 -0.3903 -1.2403  1.3873
 1128TIP3   OH224942   5.152   2.326   2.229 -0.1854  0.9228 -0.0184
 1128TIP3    H124943   5.205   2.401   2.200  2.1752 -1.5599 -2.9259
 1128TIP3    H224944   5.082   2.320   2.164 -0.8409  1.0807  0.6754
 1129TIP3   OH224945   0.057   2.277   2.033 -0.5268 -0.5015  0.2768
 1129TIP3    H124946   0.082   2.201   2.086  1.3291 -0.3468 -0.3125
 1129TIP3    H224947   0.124   2.342   2.052 -1.3499  0.5261 -0.2499
 1130TIP3   OH224948   3.715   0.876   2.582 -0.1954  0.1992 -0.5136
 1130TIP3    H124949   3.727   0.964   2.620 -0.3210  0.4588 -1.0689
 1130TIP3    H224950   3.711   0.818   2.658  0.9055  0.5466 -0.1784
 1131TIP3   OH224951   1.262   3.175   0.887 -0.0850 -0.0745 -0.2998
 1131TIP3    H124952   1.242   3.263   0.855 -0.5371  0.1824  0.6447
 1131TIP3    H224953   1.266   3.120   0.809 -1.4278  0.4728 -0.7606
 1132TIP3   OH224954   3.497   4.787   0.540 -0.0285 -0.5433  0.0536
 1132TIP3    H124955   3.406   4.776   0.569  0.1391 -0.8918  0.4523
 1132TIP3    H224956   3.493   4.779   0.445 -0.6026  0.7278 -0.0425
 1133TIP3   OH224957   1.009   0.731   2.330  0.0865  0.2105 -0.2149
 1133TIP3    H124958   1.014   0.760   2.239  0.6916 -1.3304 -0.7006
 1133TIP3    H224959   1.091   0.682   2.344 -0.4234 -0.3685  0.8741
 1134TIP3   OH224960   5.149   6.119   3.090 -0.3764  0.0896  0.3165
 1134TIP3    H124961   5.238   6.152   3.107 -0.0349 -0.3089 -0.6399
 1134TIP3    H224962   5.134   6.055   3.160  0.1096  0.1192  0.4565
 1135TIP3   OH224963   0.904   5.485   0.368 -0.2880 -0.6202 -0.3967
 1135TIP3    H124964   0.988   5.515   0.335 -0.4160  1.4685  1.0028
 1135TIP3    H224965   0.838   5.524   0.310 -0.3577 -2.4393 -1.6332
 1136TIP3   OH224966   1.775   1.690   3.311 -0.1401  0.2497  0.0664
 1136TIP3    H124967   1.749   1.620   3.370  1.3714 -0.5941 -0.2190
 1136TIP3    H224968   1.861   1.663   3.278  1.9648  3.5906  2.2213
 1137TIP3   OH224969   0.856   2.613   3.391  0.7423 -0.4052 -0.3172
 1137TIP3    H124970   0.845   2.543   3.456 -2.4424 -0.3547 -0.6804
 1137TIP3    H224971   0.826   2.574   3.309  1.4940  0.6117 -1.0985
 1138TIP3   OH224972   1.189   6.051   1.953 -0.2487  0.3955 -0.0152
 1138TIP3    H124973   1.162   6.139   1.980 -0.3606 -0.3057  2.3080
 1138TIP3    H224974   1.110   6.012   1.915  0.0365  1.5573 -1.9570
 1139TIP3   OH224975   0.916   3.078   4.044 -0.8809 -0.1706 -0.2867
 1139TIP3    H124976   0.988   3.049   3.989  0.6409  2.2223  0.3104
 1139TIP3    H224977   0.951   3.074   4.133 -2.4213 -1.4695  0.3214
 1140TIP3   OH224978   0.024   0.428   0.370  0.3875 -0.2608 -0.3838
 1140TIP3    H124979   0.009   0.462   0.282 -0.3667  1.2476  0.2920
 1140TIP3    H224980   0.105   0.471   0.399 -0.4034  0.7731  0.3609
 1141TIP3   OH224981   5.300   2.233   0.534 -0.6176 -0.3446 -0.0460
 1141TIP3    H124982   5.274   2.191   0.616 -0.7730 -1.6296 -0.7313
 1141TIP3    H224983   5.219   2.237   0.482 -1.0086  2.3925  0.6209
 1142TIP3   OH224984   2.454   1.065   1.853  0.0760  0.8094 -0.7587
 1142TIP3    H124985   2.514   1.111   1.911 -0.8489  1.1028 -0.0235
 1142TIP3    H224986   2.503   1.055   1.771  2.0851 -1.1954  0.5806
 1143TIP3   OH224987   2.521   0.754   0.878  0.6258 -0.1534  0.6330
 1143TIP3    H124988   2.493   0.768   0.969 -1.8624  0.6357 -0.1804
 1143TIP3    H224989   2.615   0.774   0.879  1.1874 -2.2756  3.4180
 1144TIP3   OH224990   2.461   3.202   3.367  0.2665 -0.5027  0.0181
 1144TIP3    H124991   2.403   3.276   3.384 -0.7477 -1.1855 -0.4138
 1144TIP3    H224992   2.470   3.159   3.451 -0.6599 -0.9674 -0.1192
 1145TIP3   OH224993   3.741   4.482   1.520  0.3030  0.0778  0.1865
 1145TIP3    H124994   3.752   4.531   1.601  0.5957  0.1364  0.1147
 1145TIP3    H224995   3.704   4.398   1.548  0.8399 -0.0832  0.4391
 1146TIP3   OH224996   0.839   1.966   1.715 -0.4461  0.3588  1.0128
 1146TIP3    H124997   0.916   2.015   1.745  1.2076 -1.6396  0.2565
 1146TIP3    H224998   0.798   1.934   1.796 -0.0121  0.7347  1.3909
 1147TIP3   OH224999   3.007   0.707   1.883 -0.1192  0.3572 -0.1372
 1147TIP3    H125000   2.945   0.712   1.956 -0.0092  1.0593 -0.0814
 1147TIP3    H225001   3.093   0.715   1.925  0.1443 -2.3066 -0.0243
 1148TIP3   OH225002   5.591   6.204   0.122  0.3829  0.3622 -0.2315
 1148TIP3    H125003   5.504   6.164   0.128  0.1635  0.7108 -0.9750
 1148TIP3    H225004   5.637   6.174   0.201  0.6278 -2.3229 -1.2763
 1149TIP3   OH225005   1.336   0.153   2.340 -0.0201 -0.3756  0.2948
 1149TIP3    H125006   1.409   0.091   2.338 -0.0777 -0.4511 -1.3877
 1149TIP3    H225007   1.272   0.113   2.399  0.1700 -1.6849 -0.3500
 1150TIP3   OH225008   4.351   1.667   0.802  0.1450  0.0902 -0.1322
 1150TIP3    H125009   4.320   1.732   0.866 -1.5477  0.3984 -1.2131
 1150TIP3    H225010   4.366   1.717   0.722  0.9289 -0.5117 -0.3729
 1151TIP3   OH225011   6.308   6.403   0.055  0.1059  0.2666 -0.1158
 1151TIP3    H125012   6.378   6.464   0.078  0.5546 -0.5317  0.7024
 1151TIP3    H225013   6.338   6.363  -0.027 -0.1641  1.0869 -0.6268
 1152TIP3   OH225014   5.127   4.463   2.616  0.4647 -0.2264 -0.1461
 1152TIP3    H125015   5.182   4.541   2.631 -0.2851  0.0995  1.0707
 1152TIP3    H225016   5.175   4.392   2.658  1.1273 -0.4464 -1.2175
 1153TIP3   OH225017   4.355   0.690   0.588  0.8489  0.6122 -0.5284
 1153TIP3    H125018   4.291   0.623   0.610  0.2148  1.1761 -0.6411
 1153TIP3    H225019   4.306   0.757   0.540  1.5823  0.8926 -0.9134
 1154TIP3   OH225020   6.895   5.605   2.699 -1.0794 -0.1022 -0.0937
 1154TIP3    H125021   6.981   5.564   2.697  0.1067  2.2163  0.2158
 1154TIP3    H225022   6.868   5.607   2.607 -0.5136 -0.2741 -0.2679
 1155TIP3   OH225023   0.120   6.508   3.167 -0.2080 -0.1453  0.2771
 1155TIP3    H125024   0.043   6.505   3.111 -0.6570  0.2061  0.8639
 1155TIP3    H225025   0.086   6.499   3.256  0.5131 -0.9386  0.4936
 1156TIP3   OH225026   4.600   6.773   1.360 -0.7400 -0.2889 -0.1009
 1156TIP3    H125027   4.653   6.815   1.429 -1.1409 -1.6073  1.0671
 1156TIP3    H225028   4.588   6.683   1.391 -0.3430 -1.1486 -2.2683
 1157TIP3   OH225029   5.946   5.119   2.528 -0.1003 -0.4252  0.0931
 1157TIP3    H125030   5.975   5.161   2.609  0.9471 -1.0709  0.0611
 1157TIP3    H225031   5.969   5.182   2.460 -1.3858  0.3178  0.3096
 1158TIP3   OH225032   3.677   1.325   2.847 -0.0233  0.3630  0.2891
 1158TIP3    H125033   3.583   1.333   2.863 -0.4803  2.0473 -2.5933
 1158TIP3    H225034   3.716   1.398   2.895 -0.2754  0.2317  0.7020
 1159TIP3   OH225035   1.774   3.203   2.516 -0.0043  0.2562  0.1578
 1159TIP3    H125036   1.782   3.276   2.577  1.8928 -1.0384  1.5817
 1159TIP3    H225037   1.863   3.186   2.487 -0.5630 -0.7795 -1.0440
 1160TIP3   OH225038   1.876   0.295   2.134  0.8294  0.6559  0.2788
 1160TIP3    H125039   1.893   0.306   2.228 -0.8173  0.0691  0.6926
 1160TIP3    H225040   1.952   0.249   2.101  0.7618 -0.5243  1.6610
 1161TIP3   OH225041   6.864   0.259   0.676 -0.0450  0.1135 -0.1748
 1161TIP3    H125042   6.856   0.276   0.770 -0.5996 -4.0053  0.7127
 1161TIP3    H225043   6.958   0.250   0.661 -0.0525 -2.2754  0.7789
 1162TIP3   OH225044   5.124   4.039   1.198  0.2949  0.2252 -0.2482
 1162TIP3    H125045   5.168   4.107   1.148 -1.7636  0.5839 -1.6913
 1162TIP3    H225046   5.032   4.044   1.170 -0.1149 -2.4862  0.3251
 1163TIP3   OH225047   4.002   4.318   3.088  0.3546  0.5905  0.0992
 1163TIP3    H125048   4.021   4.310   3.181 -0.0255 -0.3833  0.0950
 1163TIP3    H225049   3.916   4.360   3.084  1.4741  3.1167  0.1316
 1164TIP3   OH225050   6.622   6.415   2.955  0.3916  0.5108 -0.3340
 1164TIP3    H125051   6.625   6.371   3.040  0.5011 -1.7330 -1.4294
 1164TIP3    H225052   6.533   6.449   2.949  0.1665  0.0840  0.4068
 1165TIP3   OH225053   2.209   2.852   0.971  0.5792  0.3277  0.2671
 1165TIP3    H125054   2.303   2.860   0.987  0.5818  2.1828 -0.4509
 1165TIP3    H225055   2.191   2.915   0.901 -1.3283  0.5009  0.8593
 1166TIP3   OH225056   3.262   3.665   1.497  0.0381  0.0073  0.0346
 1166TIP3    H125057   3.358   3.672   1.494  0.2123 -1.9399 -0.7184
 1166TIP3    H225058   3.241   3.601   1.429 -1.6242 -1.0288  1.4359
 1167TIP3   OH225059   0.815   2.541   2.589  0.7447 -0.4662  0.3173
 1167TIP3    H125060   0.868   2.603   2.539  2.0507 -1.8662 -0.0955
 1167TIP3    H225061   0.810   2.463   2.534  0.0110 -1.1068  1.2629
 1168TIP3   OH225062   2.265   0.290   1.359  0.2791  0.1940 -0.7623
 1168TIP3    H125063   2.323   0.362   1.384  0.1546  0.4358 -1.1613
 1168TIP3    H225064   2.204   0.329   1.295 -0.5575  0.0396 -0.0793
 1169TIP3   OH225065   0.073   3.423   3.344 -0.0402  0.7538 -0.1564
 1169TIP3    H125066   0.006   3.489   3.366  1.6973  2.8589 -0.7933
 1169TIP3    H225067   0.132   3.424   3.420 -0.5106 -0.8722  0.2716
 1170TIP3   OH225068   4.493   0.974   2.667 -1.2647 -0.7235  0.1280
 1170TIP3    H125069   4.564   1.016   2.716 -0.7436 -0.9049 -0.4518
 1170TIP3    H225070   4.441   1.047   2.634  0.8535 -0.2809 -2.7162
 1171TIP3   OH225071   3.506   3.800   3.723 -0.3921 -0.6495  0.2361
 1171TIP3    H125072   3.592   3.794   3.681 -0.0347 -1.6584  1.0630
 1171TIP3    H225073   3.525   3.828   3.813 -0.9564 -0.5906  0.3429
 1172TIP3   OH225074   1.603   3.634   1.202 -0.9863  0.9701  0.3123
 1172TIP3    H125075   1.544   3.569   1.241  0.5862  0.0367  1.2289
 1172TIP3    H225076   1.678   3.583   1.171  0.3142  2.3318  1.0870
 1173TIP3   OH225077   1.105   1.394   4.227 -0.2426 -0.0893 -0.1454
 1173TIP3    H125078   1.080   1.434   4.310 -0.7788 -1.2009  0.2493
 1173TIP3    H225079   1.055   1.443   4.161  1.3689  1.8239 -0.0052
 1174TIP3   OH225080   6.438   6.355   2.399 -0.2596 -0.2081  0.8308
 1174TIP3    H125081   6.533   6.362   2.410 -0.1620  0.1665 -0.1476
 1174TIP3    H225082   6.404   6.436   2.437  0.1227  1.3750 -1.9324
 1175TIP3   OH225083   5.874   3.457   1.318  0.4155 -0.1899 -0.0094
 1175TIP3    H125084   5.945   3.435   1.258  0.4724 -1.4600  0.4820
 1175TIP3    H225085   5.898   3.542   1.355  2.0645 -0.9186  0.6894
 1176TIP3   OH225086   2.717   1.702   1.773 -0.7647  0.1022  0.3640
 1176TIP3    H125087   2.783   1.755   1.729 -0.1341 -1.3309 -0.4822
 1176TIP3    H225088   2.647   1.692   1.709 -1.4642  0.9565  0.9772
 1177TIP3   OH225089   4.557   6.744   3.495  0.3032 -0.3017 -0.3979
 1177TIP3    H125090   4.542   6.650   3.503 -0.5374 -0.1182  0.3216
 1177TIP3    H225091   4.570   6.758   3.401 -1.8072 -0.8415 -0.8242
 1178TIP3   OH225092   4.469   1.071   1.353  0.0521  0.1921 -0.3144
 1178TIP3    H125093   4.388   1.020   1.344  1.0879 -1.2821 -1.9423
 1178TIP3    H225094   4.533   1.009   1.386  0.7285  1.1545  0.2395
 1179TIP3   OH225095   5.660   1.483   0.840  0.6012  0.4791 -0.1800
 1179TIP3    H125096   5.627   1.564   0.802  1.1250  0.2348 -1.2057
 1179TIP3    H225097   5.693   1.508   0.926  1.0475  1.4200 -0.6118
 1180TIP3   OH225098   1.124   4.016   2.925 -0.3078  0.0106  0.0501
 1180TIP3    H125099   1.159   4.056   3.004  0.8035  0.8093 -0.8028
 1180TIP3    H225100   1.197   3.964   2.890 -0.5766  0.1817 -0.7808
 1181TIP3   OH225101   4.795   0.853   1.140  0.8378 -0.4705 -0.0168
 1181TIP3    H125102   4.816   0.947   1.141  0.3917 -0.3697  0.4467
 1181TIP3    H225103   4.832   0.820   1.222 -0.5201 -0.3473  0.6709
 1182TIP3   OH225104   2.378   3.119   0.213  0.3253  0.3203 -0.0495
 1182TIP3    H125105   2.301   3.128   0.156 -0.3949 -1.5508  0.5264
 1182TIP3    H225106   2.349   3.150   0.299  0.9071  1.6153 -0.2991
 1183TIP3   OH225107   6.855   5.828   8.325 -0.2232 -0.0627  0.1283
 1183TIP3    H125108   6.769   5.786   8.325 -0.3040  0.1039 -0.5577
 1183TIP3    H225109   6.839   5.917   8.294  0.3172 -0.2732 -0.7922
 1184TIP3   OH225110   1.564   1.907   3.434  0.1202  0.0294  0.3460
 1184TIP3    H125111   1.559   1.854   3.514  1.5633 -0.3647  0.2169
 1184TIP3    H225112   1.658   1.927   3.426 -0.2158  1.3671 -0.4134
 1185TIP3   OH225113   2.281   1.050   1.512 -0.4126  0.1619 -0.2246
 1185TIP3    H125114   2.271   1.064   1.418 -1.4538  0.7567 -0.0412
 1185TIP3    H225115   2.376   1.054   1.527  0.0372 -2.7192 -1.6345
 1186TIP3   OH225116   5.307   1.732   2.366  0.0504  0.0902 -0.3184
 1186TIP3    H125117   5.368   1.722   2.439 -0.4029 -1.8084 -0.1278
 1186TIP3    H225118   5.347   1.682   2.295 -0.2900  0.5628 -0.8484
 1187TIP3   OH225119   0.683   1.343   0.501  0.3423  0.2151 -0.3542
 1187TIP3    H125120   0.594   1.360   0.469  0.3813 -0.9060 -1.1352
 1187TIP3    H225121   0.672   1.334   0.596 -0.4390 -0.1987 -0.4697
 1188TIP3   OH225122   2.962   2.173   1.598 -0.8100  0.1681 -0.2965
 1188TIP3    H125123   2.989   2.166   1.689 -0.6155 -0.2814 -0.3870
 1188TIP3    H225124   3.043   2.165   1.548 -1.1628 -2.0010 -0.6026
 1189TIP3   OH225125   6.588   1.758   3.035  0.1928  0.0639 -0.1657
 1189TIP3    H125126   6.656   1.808   2.989  0.7878  0.9528  1.6059
 1189TIP3    H225127   6.630   1.725   3.114 -1.3430  0.4141  0.8484
 1190TIP3   OH225128   6.828   4.635   4.244 -0.6583 -0.0825 -0.2937
 1190TIP3    H125129   6.734   4.631   4.261 -0.5674 -0.1797  0.2034
 1190TIP3    H225130   6.855   4.722   4.275 -0.6421  0.0827 -0.7556
 1191TIP3   OH225131   1.230   2.990   4.003  0.0040 -0.3142 -0.0161
 1191TIP3    H125132   1.278   3.068   3.975 -0.1160  0.3354  1.5080
 1191TIP3    H225133   1.294   2.938   4.050 -0.1654 -0.6575 -0.1615
 1192TIP3   OH225134   3.563   3.068   0.007 -0.1234 -0.9448 -0.1423
 1192TIP3    H125135   3.596   2.978   0.000 -0.4326 -1.0553 -0.1622
 1192TIP3    H225136   3.552   3.097  -0.084  0.3015 -0.7651 -0.1414
 1193TIP3   OH225137   0.728   4.611   2.001 -0.4259  0.5352 -0.2122
 1193TIP3    H125138   0.716   4.654   2.086  1.1645  3.0206 -1.1258
 1193TIP3    H225139   0.674   4.662   1.940 -0.9444 -0.7326 -0.8549
 1194TIP3   OH225140   1.231   5.086   0.639  0.2652  0.0555 -0.0205
 1194TIP3    H125141   1.209   5.171   0.601 -0.7259  0.2615  0.9625
 1194TIP3    H225142   1.259   5.106   0.729  1.1537 -0.5588 -0.1384
 1195TIP3   OH225143   4.169   4.520   3.444  0.0283  0.2765 -0.4661
 1195TIP3    H125144   4.128   4.561   3.368 -0.7957 -0.0757 -0.2300
 1195TIP3    H225145   4.124   4.436   3.452  2.0489 -0.9565 -1.2779
 1196TIP3   OH225146   5.342   5.877   1.479  0.3406 -0.1637 -0.0069
 1196TIP3    H125147   5.288   5.846   1.552 -0.3726  4.3011  1.6392
 1196TIP3    H225148   5.281   5.927   1.424  1.8911  0.8500 -0.8535
 1197TIP3   OH225149   1.358   6.840   1.608  0.5964  0.1197 -0.1042
 1197TIP3    H125150   1.330   6.906   1.546  0.7363 -1.0067 -1.4236
 1197TIP3    H225151   1.277   6.808   1.648  0.5598  1.3331  0.8415
 1198TIP3   OH225152   0.302   5.974   2.645  0.2233 -0.3035 -0.2385
 1198TIP3    H125153   0.208   5.965   2.658  0.2110 -3.2152 -1.6159
 1198TIP3    H225154   0.342   5.931   2.721  0.3781 -1.2735 -0.8550
 1199TIP3   OH225155   2.615   0.013   3.962  0.0594 -0.0915  0.2339
 1199TIP3    H125156   2.528   0.015   3.922 -0.0015 -0.3006  0.3539
 1199TIP3    H225157   2.629  -0.079   3.984  0.4809 -0.1228 -0.1514
 1200TIP3   OH225158   6.637   0.569   1.717  0.6861  0.4681 -0.0843
 1200TIP3    H125159   6.676   0.604   1.636  1.4650 -0.6186 -0.1999
 1200TIP3    H225160   6.686   0.489   1.734  0.1574  0.3964  1.1763
 1201TIP3   OH225161   6.498   6.734   1.500 -0.0543 -0.6886 -0.5496
 1201TIP3    H125162   6.557   6.710   1.428 -0.8699  0.4703 -1.6384
 1201TIP3    H225163   6.472   6.824   1.482 -0.8022 -0.5836  0.8626
 1202TIP3   OH225164   3.977   4.243   8.196 -0.0306 -0.0663  0.2338
 1202TIP3    H125165   4.026   4.323   8.179  1.2645 -0.8494  0.2027
 1202TIP3    H225166   3.885   4.267   8.180  0.3550  1.3464  0.0495
 1203TIP3   OH225167   0.364   3.304   2.564 -0.0649  0.2576  0.6689
 1203TIP3    H125168   0.420   3.354   2.504 -3.1724 -0.2060 -3.0135
 1203TIP3    H225169   0.302   3.368   2.597 -0.3507 -0.0953  0.8146
 1204TIP3   OH225170   0.328   3.645   4.408  0.1603 -0.0814  0.5729
 1204TIP3    H125171   0.271   3.633   4.331 -1.3076 -0.1673  1.6237
 1204TIP3    H225172   0.267   3.646   4.482  1.7873 -4.5123  2.2728
 1205TIP3   OH225173   3.452   3.572   3.154  0.4274 -0.2696 -0.2645
 1205TIP3    H125174   3.370   3.526   3.136  0.3035 -0.2711  0.2907
 1205TIP3    H225175   3.425   3.654   3.196  0.7075 -0.3024 -0.0143
 1206TIP3   OH225176   2.709   1.923   3.215 -0.4908 -0.1975  0.6404
 1206TIP3    H125177   2.728   1.880   3.132 -1.0095 -0.4335  0.6417
 1206TIP3    H225178   2.665   1.856   3.267  1.3439 -0.6163  1.7649
 1207TIP3   OH225179   5.717   0.877   1.234 -0.0953 -0.3080 -0.2982
 1207TIP3    H125180   5.767   0.796   1.230  1.1396  0.4434 -0.3783
 1207TIP3    H225181   5.626   0.848   1.239  0.3572 -1.7037  0.3629
 1208TIP3   OH225182   6.181   6.034   4.210 -0.1601  0.3346  0.8816
 1208TIP3    H125183   6.112   6.081   4.162 -0.6730 -1.0685  0.2017
 1208TIP3    H225184   6.134   5.986   4.278  0.0356 -1.1797 -0.0189
 1209TIP3   OH225185   5.295   1.399   0.778  0.5711 -0.4804 -0.1953
 1209TIP3    H125186   5.221   1.399   0.840  0.6222  0.8390 -0.1016
 1209TIP3    H225187   5.263   1.449   0.703  1.6753  0.9290  0.2415
 1210TIP3   OH225188   0.865   4.472   8.345 -0.3959  0.5431  0.3545
 1210TIP3    H125189   0.831   4.388   8.314 -0.2480  0.3761  0.6401
 1210TIP3    H225190   0.933   4.496   8.282 -0.3523  0.3883  0.3439
 1211TIP3   OH225191   1.827   5.372   3.558  0.1119  0.1878 -0.0455
 1211TIP3    H125192   1.847   5.447   3.615  0.5101 -0.6819  0.9823
 1211TIP3    H225193   1.743   5.395   3.518  1.1686  2.0784 -1.3281
 1212TIP3   OH225194   3.042   5.894   1.256  0.1785 -0.3699 -0.2734
 1212TIP3    H125195   3.106   5.860   1.319  0.2451 -1.2058 -0.7728
 1212TIP3    H225196   3.095   5.946   1.194  0.6929 -2.4709 -1.6995
 1213TIP3   OH225197   1.903   2.081   8.447  0.3495 -0.1286  0.0150
 1213TIP3    H125198   1.963   2.009   8.431  2.0652  0.5011  2.9936
 1213TIP3    H225199   1.959   2.159   8.448 -0.5934  0.5794  2.0306
 1214TIP3   OH225200   4.690   4.386   2.846  0.3084  0.1802  0.5549
 1214TIP3    H125201   4.606   4.424   2.820  0.1011 -0.3035  0.4940
 1214TIP3    H225202   4.756   4.447   2.814 -0.0655  1.4787  2.1467
 1215TIP3   OH225203   5.997   5.042   2.830  0.1282 -0.6109  0.1830
 1215TIP3    H125204   5.911   5.070   2.860 -0.1502 -0.3832 -0.7775
 1215TIP3    H225205   5.980   4.958   2.786  0.2780 -0.2288 -0.6153
 1216TIP3   OH225206   6.590   6.658   3.098 -0.3101 -0.0921 -0.0223
 1216TIP3    H125207   6.538   6.636   3.020 -0.1316 -0.1186 -0.1352
 1216TIP3    H225208   6.567   6.591   3.162 -2.7374  1.5762  1.0196
 1217TIP3   OH225209   3.227   1.065   2.374 -0.5208  0.0984  0.2409
 1217TIP3    H125210   3.318   1.064   2.403  0.1507  1.1118 -1.6669
 1217TIP3    H225211   3.196   0.975   2.390  0.8085 -0.2754  0.8903
 1218TIP3   OH225212   3.789   6.219   1.618  0.0357  0.0690  0.0824
 1218TIP3    H125213   3.811   6.172   1.699  1.7626 -2.2395 -1.5674
 1218TIP3    H225214   3.751   6.151   1.561  1.1895  0.9920 -1.8867
 1219TIP3   OH225215   0.931   5.986   1.754 -0.0395  0.0222  0.4127
 1219TIP3    H125216   0.933   5.921   1.824 -0.7412 -1.1473 -0.6133
 1219TIP3    H225217   0.922   5.935   1.674 -0.5334  1.3888 -0.4416
 1220TIP3   OH225218   1.233   1.679   2.807 -0.3525 -0.3113  0.0348
 1220TIP3    H125219   1.311   1.660   2.755  0.8877  0.1805  1.6120
 1220TIP3    H225220   1.168   1.618   2.775  1.5328 -2.7380  0.5345
 1221TIP3   OH225221   2.715   0.171   8.340  0.4101  0.2100  0.0369
 1221TIP3    H125222   2.800   0.193   8.378  0.5715 -0.8355  0.2949
 1221TIP3    H225223   2.723   0.198   8.248  0.5941  1.1993  0.3277
 1222TIP3   OH225224   6.859   0.901   1.318  0.5607  0.0836 -0.5261
 1222TIP3    H125225   6.919   0.826   1.325 -0.7660 -1.0194 -0.6360
 1222TIP3    H225226   6.901   0.969   1.371  1.6665 -0.8152 -0.1922
 1223TIP3   OH225227   1.755   6.671   3.037  0.1780  0.4790 -0.2715
 1223TIP3    H125228   1.697   6.693   2.964 -2.6362 -0.3797  1.5357
 1223TIP3    H225229   1.817   6.607   3.001 -2.2355 -1.2817 -1.5718
 1224TIP3   OH225230   1.299   3.455   2.552  0.4939 -0.1203  0.2407
 1224TIP3    H125231   1.248   3.420   2.478  0.0580  1.2840 -0.1626
 1224TIP3    H225232   1.246   3.435   2.629  0.2081 -0.2494  0.0136
 1225TIP3   OH225233   2.836   5.940   2.509 -0.0159  0.3262 -0.1362
 1225TIP3    H125234   2.826   5.964   2.417  0.1733  0.2158 -0.1861
 1225TIP3    H225235   2.862   5.848   2.507 -1.9394 -0.2669  0.0863
 1226TIP3   OH225236   5.174   3.241   4.266  0.1842 -0.3910  0.4110
 1226TIP3    H125237   5.166   3.166   4.206  2.9035 -0.8347  0.4827
 1226TIP3    H225238   5.098   3.234   4.323 -1.2551 -1.3093 -1.5116
 1227TIP3   OH225239   1.621   0.660   1.215 -1.0064  0.2698 -0.7532
 1227TIP3    H125240   1.638   0.752   1.236 -1.3487 -0.3295  2.9820
 1227TIP3    H225241   1.686   0.612   1.265 -2.9644 -1.5500  0.2117
 1228TIP3   OH225242   6.344   1.465   2.981 -0.1974 -0.4689 -0.4036
 1228TIP3    H125243   6.369   1.439   3.070 -0.0694 -0.4216 -0.4258
 1228TIP3    H225244   6.253   1.438   2.973 -0.0223 -1.0497 -0.4797
 1229TIP3   OH225245   3.294   3.724   2.469 -0.1292 -0.6610 -0.5574
 1229TIP3    H125246   3.387   3.747   2.475 -0.5241  0.8773  0.1650
 1229TIP3    H225247   3.292   3.649   2.409  1.4334  0.1329 -1.6833
 1230TIP3   OH225248   4.944   2.804   2.091  0.1272  0.2468 -0.0719
 1230TIP3    H125249   4.919   2.862   2.019 -0.2987 -1.2654 -1.1861
 1230TIP3    H225250   4.900   2.840   2.168 -2.3763 -0.1220 -1.2601
 1231TIP3   OH225251   6.844   3.923   2.834  0.0661  0.4905  0.2355
 1231TIP3    H125252   6.795   3.954   2.911  2.4893  0.0110  2.0706
 1231TIP3    H225253   6.815   3.981   2.763 -0.7267  2.3328  1.9675
 1232TIP3   OH225254   4.648   0.524   2.986  0.3996  0.1447 -0.5544
 1232TIP3    H125255   4.652   0.511   2.891 -1.0667  0.2921 -0.6535
 1232TIP3    H225256   4.570   0.477   3.014 -0.6756  2.2437  0.1987
 1233TIP3   OH225257   4.158   0.033   0.990  0.1040  0.2279  0.4988
 1233TIP3    H125258   4.238   0.004   1.035  1.0631 -0.1734 -1.3540
 1233TIP3    H225259   4.088  -0.017   1.031  1.0660 -0.8496  0.8948
 1234TIP3   OH225260   6.302   5.237   0.304  0.3090  0.0322  0.1581
 1234TIP3    H125261   6.338   5.234   0.215 -2.1793 -2.5569 -0.9073
 1234TIP3    H225262   6.251   5.318   0.307 -0.9247 -0.6253 -1.4319
 1235TIP3   OH225263   1.635   1.744   3.631 -0.5760  0.3848 -0.9811
 1235TIP3    H125264   1.644   1.772   3.722 -1.7229 -1.4561 -0.2352
 1235TIP3    H225265   1.725   1.735   3.599 -0.1644  1.2415 -0.0973
 1236TIP3   OH225266   1.175   2.448   1.969 -0.1594  0.3557 -0.1160
 1236TIP3    H125267   1.146   2.394   1.895  1.1830 -1.7108  0.7653
 1236TIP3    H225268   1.134   2.533   1.954 -0.0206  0.0017 -3.1658
 1237TIP3   OH225269   6.425   0.106   1.324  0.5089 -0.3134  0.0556
 1237TIP3    H125270   6.438   0.170   1.393 -1.5236  1.1617 -0.8087
 1237TIP3    H225271   6.329   0.097   1.318  0.7029 -2.0251 -1.1175
 1238TIP3   OH225272   0.595   1.287   4.390 -0.3455  0.3216 -0.7504
 1238TIP3    H125273   0.625   1.251   4.473 -0.5394 -0.4263 -0.9928
 1238TIP3    H225274   0.501   1.267   4.387 -0.0114 -1.3070 -1.9353
 1239TIP3   OH225275   1.778   4.014   0.083  0.9266 -0.4412  0.5709
 1239TIP3    H125276   1.824   4.080   0.135  2.4495 -1.0582  0.0864
 1239TIP3    H225277   1.813   4.026  -0.006 -1.2116  0.2366 -0.2346
 1240TIP3   OH225278   6.763   5.785   3.946  0.3212 -0.0700  0.3179
 1240TIP3    H125279   6.697   5.851   3.928  0.8054  0.0963 -0.9528
 1240TIP3    H225280   6.758   5.771   4.041 -0.0105  1.5419  0.5650
 1241TIP3   OH225281   1.534   4.113   0.183 -0.2819  0.3843  0.6892
 1241TIP3    H125282   1.566   4.127   0.094 -2.2926 -0.3211 -0.1965
 1241TIP3    H225283   1.522   4.201   0.218 -0.0238  0.6840  0.0458
 1242TIP3   OH225284   1.236   1.657   1.445 -0.1734  0.2416  0.3401
 1242TIP3    H125285   1.209   1.681   1.534 -1.5544  0.1192 -0.0249
 1242TIP3    H225286   1.298   1.585   1.457 -0.0019  0.5228  1.2106
 1243TIP3   OH225287   0.456   3.015   1.212 -0.1869 -0.2028 -0.5414
 1243TIP3    H125288   0.515   2.959   1.262  1.8718  0.5971 -1.9870
 1243TIP3    H225289   0.422   2.958   1.143 -0.2494 -0.3570 -0.3866
 1244TIP3   OH225290   5.640   0.649   2.984 -0.0197  0.0286 -0.8005
 1244TIP3    H125291   5.575   0.700   3.033  0.4674  0.4335 -0.5697
 1244TIP3    H225292   5.665   0.707   2.911  2.3658  1.1893  0.8247
 1245TIP3   OH225293   2.584   6.344   2.831  0.7100  0.3498  0.2063
 1245TIP3    H125294   2.621   6.283   2.767 -0.3099 -0.7773  0.6505
 1245TIP3    H225295   2.492   6.318   2.838  0.5973  1.0256  1.4718
 1246TIP3   OH225296   5.741   0.788   1.580 -0.0728 -0.1895 -0.0099
 1246TIP3    H125297   5.836   0.796   1.582 -0.0459 -0.5401  0.4504
 1246TIP3    H225298   5.711   0.859   1.523  0.4287  0.2142  0.2315
 1247TIP3   OH225299   4.237   4.512   4.776  0.3940  0.1624 -0.0064
 1247TIP3    H125300   4.152   4.554   4.794 -1.3473 -2.2400 -1.9079
 1247TIP3    H225301   4.229   4.425   4.817  1.6193 -0.3822 -0.8613
 1248TIP3   OH225302   2.799   3.900   4.762 -0.0683  0.5566  0.5064
 1248TIP3    H125303   2.870   3.922   4.823 -0.2296 -0.5941  1.1468
 1248TIP3    H225304   2.844   3.863   4.686  0.1456  2.1808 -0.1883
 1249TIP3   OH225305   4.149   1.430   2.991 -0.6806  0.0268 -0.3267
 1249TIP3    H125306   4.117   1.418   2.901  0.2320 -1.1336 -0.5248
 1249TIP3    H225307   4.131   1.346   3.034 -0.7942  0.4569  0.4867
 1250TIP3   OH225308   6.785   0.942   2.371  0.2481  0.8645  0.9618
 1250TIP3    H125309   6.772   0.847   2.362  4.4023  0.2087 -0.1036
 1250TIP3    H225310   6.753   0.978   2.288  0.3643  0.1515  0.5995
 1251TIP3   OH225311   3.344   4.425   4.048  0.8317 -0.0879  0.4811
 1251TIP3    H125312   3.395   4.492   4.094  0.5629  0.1889  0.3783
 1251TIP3    H225313   3.253   4.449   4.063  0.6439  2.0166 -2.9857
 1252TIP3   OH225314   2.210   3.174   1.290  1.5170 -0.0983 -0.2811
 1252TIP3    H125315   2.211   3.215   1.376  1.6266  0.3288 -0.4799
 1252TIP3    H225316   2.132   3.118   1.290  1.3696  0.1082 -0.0017
 1253TIP3   OH225317   0.381   1.958   1.090  0.2077  0.2596 -0.0870
 1253TIP3    H125318   0.296   1.927   1.119 -0.1718 -0.0309 -1.4591
 1253TIP3    H225319   0.443   1.918   1.151 -0.3753 -2.0735 -0.9183
 1254TIP3   OH225320   3.280   3.870   1.695  0.2385 -0.1831 -0.6904
 1254TIP3    H125321   3.297   3.803   1.629  1.9807  0.3539 -0.8441
 1254TIP3    H225322   3.352   3.933   1.685 -0.2834  0.7022  0.7215
 1255TIP3   OH225323   4.799   3.500   0.545 -0.4630  0.3124  0.0153
 1255TIP3    H125324   4.720   3.483   0.494 -1.3778 -1.3497  1.8232
 1255TIP3    H225325   4.844   3.415   0.548  0.6341  0.8738  0.2748
 1256TIP3   OH225326   0.816   2.791   2.337 -0.7588 -0.7953 -0.3764
 1256TIP3    H125327   0.821   2.731   2.263  2.8791  0.3768 -1.3008
 1256TIP3    H225328   0.796   2.876   2.297  2.2039  0.0444 -0.3412
 1257TIP3   OH225329   6.721   6.772   2.245  0.6027  0.3243  0.0439
 1257TIP3    H125330   6.730   6.699   2.306 -1.1742  1.2831  1.5309
 1257TIP3    H225331   6.786   6.754   2.177 -0.1062 -2.9257  0.0520
 1258TIP3   OH225332   6.498   4.028   0.324  0.0809  0.3369  0.4455
 1258TIP3    H125333   6.494   3.967   0.398 -1.1965 -0.8656 -0.5709
 1258TIP3    H225334   6.409   4.063   0.317 -0.2301 -0.6785 -1.3896
 1259TIP3   OH225335   3.005   0.694   3.386 -0.2293  0.4734 -0.8536
 1259TIP3    H125336   2.939   0.751   3.425 -0.6076  0.0049 -0.8004
 1259TIP3    H225337   3.074   0.754   3.357  0.4795  0.7648  1.2888
 1260TIP3   OH225338   0.446   4.137   1.359  0.8965 -0.1342  0.7085
 1260TIP3    H125339   0.516   4.193   1.324  0.9395  0.2956  1.4604
 1260TIP3    H225340   0.368   4.193   1.358  0.3175 -0.9054 -1.0228
 1261TIP3   OH225341   0.534   4.390   3.156 -0.0287 -0.2339  0.1591
 1261TIP3    H125342   0.515   4.483   3.162  1.7160  0.0836  1.4506
 1261TIP3    H225343   0.475   4.357   3.089 -1.3062  1.6205  0.3316
 1262TIP3   OH225344   1.051   3.768   1.328 -0.5507 -0.1730 -0.0376
 1262TIP3    H125345   1.101   3.691   1.302  0.8455  0.4959  0.5587
 1262TIP3    H225346   1.114   3.840   1.326 -1.0912  0.4450  2.2021
 1263TIP3   OH225347   6.153   1.829   1.553  0.2418  0.0695 -0.2482
 1263TIP3    H125348   6.139   1.792   1.466 -0.1887 -2.7955  0.9303
 1263TIP3    H225349   6.075   1.881   1.570  0.0200  0.0928 -1.2594
 1264TIP3   OH225350   5.957   1.082   8.400 -0.2276  1.0952  0.3929
 1264TIP3    H125351   5.970   0.987   8.397 -3.0723  0.6532 -1.0410
 1264TIP3    H225352   5.968   1.111   8.310 -0.7306  1.9011  0.5763
 1265TIP3   OH225353   0.743   4.892   2.586  0.0690  0.1944 -0.7410
 1265TIP3    H125354   0.834   4.921   2.577 -0.0503  0.1632 -2.1277
 1265TIP3    H225355   0.747   4.797   2.574  0.0468 -0.0410  0.8264
 1266TIP3   OH225356   4.013   4.492   1.684 -0.1080  0.1680  0.5364
 1266TIP3    H125357   3.925   4.520   1.710 -0.5568  0.9240 -1.6182
 1266TIP3    H225358   4.058   4.573   1.659  0.8889 -0.3283  0.6592
 1267TIP3   OH225359   6.639   1.899   0.944  0.7401 -0.4863 -0.2804
 1267TIP3    H125360   6.615   1.844   1.019 -1.0254  0.3323 -0.1866
 1267TIP3    H225361   6.690   1.841   0.887 -0.0447 -1.8730  0.3684
 1268TIP3   OH225362   3.997   6.015   2.472 -0.2972  0.8751  0.0180
 1268TIP3    H125363   3.985   5.927   2.509  1.1943  0.5089 -0.3154
 1268TIP3    H225364   3.912   6.036   2.433  0.0345 -1.5821 -2.3148
 1269TIP3   OH225365   3.221   3.571   3.751 -0.3967  0.0665 -0.1549
 1269TIP3    H125366   3.226   3.500   3.687 -1.4162 -0.2316  0.0825
 1269TIP3    H225367   3.137   3.558   3.795 -0.0470  0.7139  0.7263
 1270TIP3   OH225368   0.293   5.928   3.847  0.1726 -0.1869 -0.1516
 1270TIP3    H125369   0.211   5.885   3.870 -0.0162 -1.3170 -2.6470
 1270TIP3    H225370   0.306   5.993   3.916 -2.6785 -0.1331  0.4598
 1271TIP3   OH225371   0.607   2.304   3.649 -0.0931  0.3736 -0.4742
 1271TIP3    H125372   0.588   2.231   3.590  2.9147 -2.5697  1.7535
 1271TIP3    H225373   0.537   2.301   3.714 -0.0412 -0.5401 -0.4466
 1272TIP3   OH225374   0.760   6.490   2.814 -0.4095  0.6487 -0.7212
 1272TIP3    H125375   0.770   6.566   2.872  0.8349 -1.3992  1.9887
 1272TIP3    H225376   0.669   6.462   2.826 -0.4140  0.7773 -0.4468
 1273TIP3   OH225377   5.430   5.764   3.606 -0.0776  0.4834 -0.0433
 1273TIP3    H125378   5.455   5.760   3.698 -0.5492  0.2814  0.0800
 1273TIP3    H225379   5.440   5.675   3.574  1.3596  0.7969 -0.5436
 1274TIP3   OH225380   6.659   2.108   3.021  0.0736  0.4982 -0.5811
 1274TIP3    H125381   6.569   2.114   3.055 -0.0377 -1.0391 -0.5452
 1274TIP3    H225382   6.655   2.037   2.957  1.7696 -1.3195  1.1965
 1275TIP3   OH225383   6.156   2.164   3.873 -0.3508 -0.4921 -0.1225
 1275TIP3    H125384   6.215   2.091   3.888 -0.4762 -0.8286 -1.1607
 1275TIP3    H225385   6.075   2.124   3.841 -0.3137  0.0976 -1.0027
 1276TIP3   OH225386   0.273   1.255   0.693 -0.0432  0.1614 -0.5840
 1276TIP3    H125387   0.342   1.303   0.738 -0.9831  0.3216  0.7476
 1276TIP3    H225388   0.205   1.320   0.678 -0.3275 -0.2189 -0.9716
 1277TIP3   OH225389   4.540   3.448   1.054 -0.5239 -0.1587  0.6372
 1277TIP3    H125390   4.613   3.448   1.116 -0.3450 -0.4099  0.4294
 1277TIP3    H225391   4.468   3.489   1.101 -0.2357  0.1314  0.8295
 1278TIP3   OH225392   3.801   6.152   3.716 -0.1822 -0.3379  0.3876
 1278TIP3    H125393   3.708   6.141   3.736 -0.0173 -2.2040  0.3135
 1278TIP3    H225394   3.803   6.164   3.621 -0.3359 -0.3922  0.3771
 1279TIP3   OH225395   3.801   6.717   3.418  0.2035 -0.4714  0.2928
 1279TIP3    H125396   3.856   6.640   3.434  0.5129  0.1646  2.6660
 1279TIP3    H225397   3.712   6.682   3.416  0.5311 -1.4517 -3.1603
 1280TIP3   OH225398   5.851   3.976   4.139 -0.0604 -0.5870  1.1888
 1280TIP3    H125399   5.922   3.973   4.203  0.9303 -1.0328  0.0972
 1280TIP3    H225400   5.847   4.068   4.112  0.0624 -0.5527  1.2871
 1281TIP3   OH225401   0.230   1.838   1.872  0.3091  0.5344 -0.4185
 1281TIP3    H125402   0.265   1.880   1.793 -1.2755  2.2111 -0.3178
 1281TIP3    H225403   0.252   1.746   1.862 -0.6344  0.5205 -3.3075
 1282TIP3   OH225404   2.540   1.002   1.606  0.3926 -0.7537 -0.1184
 1282TIP3    H125405   2.593   1.031   1.532 -0.4235 -1.6769 -1.0835
 1282TIP3    H225406   2.549   0.907   1.606 -0.0841 -0.8078  0.6237
 1283TIP3   OH225407   2.121   0.280   2.956 -0.0688  0.0596  0.3053
 1283TIP3    H125408   2.177   0.357   2.971 -1.2066  0.6913  1.5182
 1283TIP3    H225409   2.061   0.279   3.031 -1.6356 -0.6288 -0.9004
 1284TIP3   OH225410   2.643   1.417   0.400  0.0334  0.0264  0.7441
 1284TIP3    H125411   2.565   1.411   0.455 -0.4177  0.5922  0.1724
 1284TIP3    H225412   2.714   1.387   0.457 -0.8450 -2.3054  0.6848
 1285TIP3   OH225413   3.557   5.587   2.233 -0.3401  0.1648 -0.0534
 1285TIP3    H125414   3.581   5.679   2.245 -0.3683  0.3054 -0.9878
 1285TIP3    H225415   3.641   5.540   2.239 -0.3509  0.2150  0.6373
 1286TIP3   OH225416   4.064   6.661   1.765 -0.3751  0.9079  0.2125
 1286TIP3    H125417   4.072   6.753   1.792  1.0282  0.5744  1.0453
 1286TIP3    H225418   4.097   6.612   1.839  0.7867 -0.1949 -0.9967
 1287TIP3   OH225419   6.933   2.760   4.596 -0.6712 -0.2797 -0.6253
 1287TIP3    H125420   6.936   2.773   4.691  1.5782 -1.5002 -0.4763
 1287TIP3    H225421   6.887   2.837   4.564 -0.8224  0.5502  1.3894
 1288TIP3   OH225422   3.626   3.710   1.153  0.3329  0.4612 -0.6291
 1288TIP3    H125423   3.698   3.662   1.112  0.4191  0.0450 -0.0043
 1288TIP3    H225424   3.592   3.650   1.220 -1.0287  0.3855 -1.3542
 1289TIP3   OH225425   2.858   2.171   0.639 -0.1012  0.1368  0.3339
 1289TIP3    H125426   2.866   2.267   0.642  1.1642  0.0984 -0.7234
 1289TIP3    H225427   2.947   2.140   0.654 -0.4565 -0.8634  0.3973
 1290TIP3   OH225428   5.942   5.909   1.894 -0.5010  0.2008 -0.1976
 1290TIP3    H125429   5.886   5.971   1.941  0.6542  1.2298 -0.0937
 1290TIP3    H225430   5.982   5.857   1.964 -2.1458 -1.3113 -0.3336
 1291TIP3   OH225431   3.305   1.085   3.573  0.2859  0.7829  0.1820
 1291TIP3    H125432   3.360   1.151   3.616 -0.4823  2.6653 -1.5906
 1291TIP3    H225433   3.236   1.066   3.637  1.5994  0.1509  1.4893
 1292TIP3   OH225434   5.238   0.489   3.224 -0.0923 -0.0479  0.0611
 1292TIP3    H125435   5.314   0.541   3.199 -0.2651 -0.3336 -1.1140
 1292TIP3    H225436   5.276   0.413   3.269  0.1329  1.2832  2.2811
 1293TIP3   OH225437   0.894   0.106   3.342 -0.4537 -0.3027 -0.4552
 1293TIP3    H125438   0.918   0.169   3.410  0.4838 -0.4199 -0.6688
 1293TIP3    H225439   0.905   0.021   3.383  1.2319 -0.4171 -1.0717
 1294TIP3   OH225440   3.757   5.267   3.276  0.4843  0.1961  0.1578
 1294TIP3    H125441   3.824   5.229   3.219 -0.0238 -0.2638 -0.1355
 1294TIP3    H225442   3.675   5.227   3.248 -0.0300  1.2965  0.0284
 1295TIP3   OH225443   1.382   2.899   1.576  0.3059 -0.1188 -1.1688
 1295TIP3    H125444   1.461   2.850   1.601 -0.8848 -1.2436  0.6324
 1295TIP3    H225445   1.310   2.841   1.601 -1.1109  1.3283 -1.7908
 1296TIP3   OH225446   2.733   5.488   2.882 -0.3524 -0.1625 -0.1927
 1296TIP3    H125447   2.646   5.495   2.843 -1.3298 -1.0953  1.6820
 1296TIP3    H225448   2.729   5.544   2.960 -0.5759 -3.0263  1.9893
 1297TIP3   OH225449   0.394   0.991   0.688 -0.4341  0.7697 -0.0562
 1297TIP3    H125450   0.352   0.949   0.613  0.4227  1.1213 -0.7491
 1297TIP3    H225451   0.346   1.073   0.699  0.1913  1.2820 -0.9939
 1298TIP3   OH225452   3.441   5.297   2.376 -0.3915 -0.0728 -0.0077
 1298TIP3    H125453   3.528   5.257   2.383 -0.5312 -0.4386 -0.3204
 1298TIP3    H225454   3.430   5.346   2.457  0.4097  0.5767 -0.2753
 1299TIP3   OH225455   1.979   1.801   1.720  0.2106  0.6571  0.1006
 1299TIP3    H125456   1.928   1.878   1.748  2.5360  1.1894  3.5128
 1299TIP3    H225457   1.964   1.737   1.789  1.7100 -0.3117 -0.4358
 1300TIP3   OH225458   5.844   3.460   2.345 -0.1325 -0.2371 -0.0796
 1300TIP3    H125459   5.858   3.365   2.350 -0.7784 -0.3944 -1.0912
 1300TIP3    H225460   5.749   3.471   2.345 -0.1935  0.6649  3.7110
 1301TIP3   OH225461   1.723   0.639   0.035 -0.1410 -0.7119  0.4876
 1301TIP3    H125462   1.645   0.635  -0.020  0.8664 -2.0858 -0.9283
 1301TIP3    H225463   1.792   0.670  -0.024  1.0760 -2.6872  0.7912
 1302TIP3   OH225464   6.074   0.799   0.991  0.0733 -0.0409  0.4626
 1302TIP3    H125465   6.048   0.765   1.076  0.2153 -0.5667  0.3020
 1302TIP3    H225466   6.151   0.853   1.009  0.5608 -0.7653  0.5748
 1303TIP3   OH225467   0.045   0.447   2.494  0.0698  0.5620 -0.3722
 1303TIP3    H125468   0.058   0.492   2.411 -0.1157  0.2809 -0.5591
 1303TIP3    H225469  -0.015   0.375   2.472  1.2181 -0.4543 -0.3208
 1304TIP3   OH225470   1.662   6.088   2.468  0.2920 -1.1935 -0.2571
 1304TIP3    H125471   1.585   6.143   2.454 -0.0892 -1.6325  0.0879
 1304TIP3    H225472   1.647   6.045   2.551  1.0642 -1.0518 -0.0310
 1305TIP3   OH225473   5.865   4.550   0.135  0.0862  0.1461 -0.3443
 1305TIP3    H125474   5.907   4.619   0.186 -0.7408  0.1557  0.3522
 1305TIP3    H225475   5.804   4.595   0.078 -0.6858 -0.0022  0.3345
 1306TIP3   OH225476   0.566   2.805   1.655  0.1526  0.0026 -0.6741
 1306TIP3    H125477   0.519   2.747   1.595  0.0905 -0.5012 -0.1467
 1306TIP3    H225478   0.499   2.839   1.713 -0.2902  2.7172 -2.5743
 1307TIP3   OH225479   6.922   5.720   1.210 -0.1572 -0.3686  0.2444
 1307TIP3    H125480   7.006   5.764   1.206  0.5207 -1.6511 -0.0721
 1307TIP3    H225481   6.932   5.654   1.278  0.2443 -2.7561 -1.9841
 1308TIP3   OH225482   4.048   6.222   0.025 -0.4894 -0.1236 -0.4413
 1308TIP3    H125483   3.959   6.188   0.035 -0.3692  0.0298  1.3921
 1308TIP3    H225484   4.054   6.292   0.090  1.1533 -0.5122 -0.1397
 1309TIP3   OH225485   1.438   5.183   2.920  0.2392  0.3252  0.6506
 1309TIP3    H125486   1.522   5.204   2.962 -0.3881  3.2636  0.7139
 1309TIP3    H225487   1.442   5.089   2.903  2.5709 -0.0702  2.7573
 1310TIP3   OH225488   5.720   3.901   1.561  0.2795  0.3609 -0.0876
 1310TIP3    H125489   5.667   3.836   1.515  0.8133 -0.0686 -0.1070
 1310TIP3    H225490   5.778   3.938   1.494  1.1315 -0.3405  0.2401
 1311TIP3   OH225491   2.150   2.122   3.327 -0.2362 -0.0189 -0.0847
 1311TIP3    H125492   2.199   2.197   3.294  1.1150 -1.0001 -0.4233
 1311TIP3    H225493   2.203   2.046   3.301 -0.7334 -1.0077  1.6530
 1312TIP3   OH225494   6.708   3.132   4.074  0.1197 -0.2964 -0.3789
 1312TIP3    H125495   6.775   3.067   4.052  1.5146  0.6592  0.8428
 1312TIP3    H225496   6.693   3.180   3.993  0.5991 -0.7885 -0.7654
 1313TIP3   OH225497   4.001   4.465   3.672 -0.5730  0.3674  0.3712
 1313TIP3    H125498   4.065   4.516   3.621 -1.1256  0.5937 -0.1080
 1313TIP3    H225499   3.982   4.520   3.748  0.8332 -0.3033  1.2571
 1314TIP3   OH225500   0.104   6.273   2.472  0.2632  0.3169  0.5441
 1314TIP3    H125501   0.119   6.185   2.438 -0.5803  1.0599 -1.9776
 1314TIP3    H225502   0.190   6.315   2.467  0.4451 -0.0332  0.7120
 1315TIP3   OH225503   0.999   3.792   3.538 -0.4487 -1.0125 -0.7571
 1315TIP3    H125504   1.066   3.803   3.471  1.5654 -1.1029  1.1111
 1315TIP3    H225505   1.022   3.709   3.581 -1.2329 -0.6251  0.4746
 1316TIP3   OH225506   3.621   4.720   3.333  0.0972  0.2434 -0.1536
 1316TIP3    H125507   3.560   4.770   3.387  1.6440  2.0422  0.0318
 1316TIP3    H225508   3.702   4.718   3.384  0.6337 -0.8467 -1.0071
 1317TIP3   OH225509   2.816   6.392   4.598  0.0078 -0.0129 -0.2449
 1317TIP3    H125510   2.903   6.352   4.606  0.0979  0.1225 -0.5296
 1317TIP3    H225511   2.755   6.317   4.600  0.1311 -0.1079 -0.0477
 1318TIP3   OH225512   1.120   2.200   3.032 -0.6804 -0.3827  0.2096
 1318TIP3    H125513   1.205   2.238   3.054 -1.2434  0.0377  1.7946
 1318TIP3    H225514   1.076   2.268   2.980 -0.3136 -0.3262 -0.0293
 1319TIP3   OH225515   0.879   2.520   1.102  0.2371  0.1026  0.0152
 1319TIP3    H125516   0.877   2.601   1.153 -0.7384  0.5165 -0.6718
 1319TIP3    H225517   0.795   2.478   1.120  1.0959 -1.2521  1.1141
 1320TIP3   OH225518   5.000   6.471   1.906 -0.2012  0.0105  0.3749
 1320TIP3    H125519   5.088   6.432   1.906 -0.2839 -0.2193 -0.7347
 1320TIP3    H225520   4.943   6.401   1.876 -0.6905  0.3193  0.5784
 1321TIP3   OH225521   4.604   0.577   3.246 -0.4652 -0.2113  0.2184
 1321TIP3    H125522   4.631   0.580   3.154 -1.9298 -1.5496 -0.2933
 1321TIP3    H225523   4.649   0.652   3.286  1.6234 -0.6267 -1.1719
 1322TIP3   OH225524   3.447   4.334   0.443 -0.1094 -0.0924  0.2776
 1322TIP3    H125525   3.501   4.372   0.373  0.8773  0.7992  1.4863
 1322TIP3    H225526   3.444   4.402   0.510  1.0051 -1.7977  2.1685
 1323TIP3   OH225527   6.378   0.487   0.944 -0.1311  0.2560 -0.0115
 1323TIP3    H125528   6.432   0.566   0.950  0.9586 -0.5040  0.3994
 1323TIP3    H225529   6.423   0.432   0.880 -0.3735 -0.4331  0.4025
 1324TIP3   OH225530   4.618   4.849   3.646  0.4138  0.3589 -0.4127
 1324TIP3    H125531   4.628   4.944   3.647 -0.5842  0.4704  0.1795
 1324TIP3    H225532   4.606   4.825   3.738 -0.5791 -0.1857 -0.6702
 1325TIP3   OH225533   1.376   2.183   0.327 -0.4313 -0.3947 -0.7258
 1325TIP3    H125534   1.280   2.181   0.324 -0.5623  2.2850 -0.3743
 1325TIP3    H225535   1.400   2.259   0.274  1.3628  0.3650  1.0753
 1326TIP3   OH225536   1.626   4.189   0.677  0.4598 -0.2027 -0.6470
 1326TIP3    H125537   1.708   4.235   0.695  0.5676 -0.6817  0.1502
 1326TIP3    H225538   1.558   4.247   0.711  0.7317 -1.7477  2.9783
 1327TIP3   OH225539   4.246   4.442   1.099  0.3436 -0.4207  0.2571
 1327TIP3    H125540   4.197   4.362   1.114  0.6031 -0.6590 -0.1418
 1327TIP3    H225541   4.179   4.510   1.086  0.1240 -0.6643  0.1203
 1328TIP3   OH225542   1.885   1.471   3.755  0.3734  0.0805 -0.5905
 1328TIP3    H125543   1.876   1.410   3.828  0.0098  0.0899 -0.6247
 1328TIP3    H225544   1.880   1.558   3.795  1.8683  0.1087 -0.4180
 1329TIP3   OH225545   0.973   3.085   1.597 -0.4603  0.4422  0.6520
 1329TIP3    H125546   1.000   3.056   1.510 -3.1521  1.2439 -0.5679
 1329TIP3    H225547   0.970   3.005   1.650 -0.2923 -0.3049 -0.4399
 1330TIP3   OH225548   6.183   4.026   2.215 -0.1204  0.4252  0.2874
 1330TIP3    H125549   6.132   3.963   2.265  0.7371 -0.8241 -0.3778
 1330TIP3    H225550   6.237   4.070   2.281  1.7085 -1.8629  0.4463
 1331TIP3   OH225551   6.475   6.341   3.863 -0.4650  0.5357  0.2218
 1331TIP3    H125552   6.486   6.354   3.957 -0.1623 -2.7296  0.7743
 1331TIP3    H225553   6.413   6.268   3.857  0.9132 -0.5481 -2.0253
 1332TIP3   OH225554   3.755   1.215   0.030  0.0195  0.4022  0.7013
 1332TIP3    H125555   3.787   1.246   0.114  1.9100  4.5855 -1.2604
 1332TIP3    H225556   3.660   1.220   0.036  0.0858  0.0749  2.6639
 1333TIP3   OH225557   3.354   0.695   1.127 -0.7600  0.0266  0.2777
 1333TIP3    H125558   3.290   0.678   1.057 -0.8445 -0.8326  0.5493
 1333TIP3    H225559   3.353   0.615   1.180  1.3517 -0.4669 -0.3298
 1334TIP3   OH225560   5.819   0.729   0.897 -0.0918 -0.2858  0.1676
 1334TIP3    H125561   5.839   0.647   0.941 -0.4253  0.3486  1.5777
 1334TIP3    H225562   5.897   0.784   0.912 -0.4144  0.1103  0.4140
 1335TIP3   OH225563   1.027   5.145   1.961 -0.6357  0.7859  0.2437
 1335TIP3    H125564   1.037   5.232   1.923 -1.7259  0.7088 -0.2528
 1335TIP3    H225565   0.932   5.134   1.972 -0.4068  0.4886  2.2403
 1336TIP3   OH225566   2.888   0.993   0.686  0.3538  0.2045  0.0669
 1336TIP3    H125567   2.933   1.075   0.704 -0.5930  0.7030  0.2729
 1336TIP3    H225568   2.807   0.999   0.738 -1.7090  0.9675 -2.9180
 1337TIP3   OH225569   4.611   1.454   3.463 -0.5411  0.0916 -0.2376
 1337TIP3    H125570   4.655   1.370   3.476  0.8781  0.9728  1.0874
 1337TIP3    H225571   4.671   1.503   3.406 -0.5487  0.7658  0.3207
 1338TIP3   OH225572   2.249   2.017   1.232  0.0419  1.1508  0.3652
 1338TIP3    H125573   2.319   2.029   1.168 -0.5138  1.6698 -0.1497
 1338TIP3    H225574   2.214   1.930   1.213 -1.3357  2.0059 -1.2669
 1339TIP3   OH225575   5.365   6.156   0.366 -0.5026  0.3500 -0.0339
 1339TIP3    H125576   5.366   6.115   0.452 -0.7252  2.8843  1.2870
 1339TIP3    H225577   5.396   6.088   0.306  0.7824 -1.1534  2.1985
 1340TIP3   OH225578   1.408   1.600   2.609 -0.8070 -0.4383  0.5621
 1340TIP3    H125579   1.411   1.505   2.619 -2.2832 -0.7727 -1.5241
 1340TIP3    H225580   1.427   1.615   2.516  0.2352  1.4030  1.0171
 1341TIP3   OH225581   5.393   6.219   1.499  0.3409 -0.3975 -0.2574
 1341TIP3    H125582   5.400   6.300   1.448  2.5154  0.1650  0.8053
 1341TIP3    H225583   5.315   6.232   1.553 -0.8986 -0.2076 -2.0081
 1342TIP3   OH225584   2.280   6.532   8.121  0.5436 -0.1852 -0.5448
 1342TIP3    H125585   2.300   6.617   8.160  2.3822 -1.1227  0.7247
 1342TIP3    H225586   2.202   6.501   8.169  0.3521  0.4193 -0.4601
 1343TIP3   OH225587   4.153   5.745   2.401 -0.4659 -0.7392  0.2347
 1343TIP3    H125588   4.159   5.821   2.460 -0.9790 -1.0075  0.6445
 1343TIP3    H225589   4.065   5.710   2.416  0.3917 -2.5247  1.4398
 1344TIP3   OH225590   3.008   6.322   1.179 -0.4102  0.2141 -0.0629
 1344TIP3    H125591   2.935   6.290   1.124  0.2657  0.0759 -0.8933
 1344TIP3    H225592   3.010   6.416   1.164 -0.6687  0.2764  0.2766
 1345TIP3   OH225593   1.444   3.657   3.997  0.3570  0.1025  0.2773
 1345TIP3    H125594   1.408   3.678   3.911  1.3547  1.0131  0.0472
 1345TIP3    H225595   1.499   3.580   3.983 -1.6350 -1.4614  0.6863
 1346TIP3   OH225596   0.302   0.719   3.742  0.4364 -0.3807  0.4977
 1346TIP3    H125597   0.324   0.783   3.674  2.3411 -0.6564  0.8105
 1346TIP3    H225598   0.359   0.742   3.816 -0.1083 -1.3728  1.2424
 1347TIP3   OH225599   4.887   6.550   1.196 -0.2315 -0.3235 -0.2376
 1347TIP3    H125600   4.948   6.566   1.125 -2.5153  0.9925 -2.0318
 1347TIP3    H225601   4.942   6.525   1.270  2.3462 -0.2490 -2.0141
 1348TIP3   OH225602   5.501   0.785   1.710 -0.3929  0.2907  0.1240
 1348TIP3    H125603   5.583   0.786   1.660 -0.4966  0.4294 -0.0408
 1348TIP3    H225604   5.464   0.699   1.692 -1.2668  0.9554 -1.3860
 1349TIP3   OH225605   1.357   5.141   3.266  0.3341  0.1778 -0.1296
 1349TIP3    H125606   1.424   5.162   3.201  1.2005  0.4128  0.8182
 1349TIP3    H225607   1.310   5.223   3.280 -0.8874 -0.2339 -1.5823
 1350TIP3   OH225608   2.382   0.846   2.448 -0.3918 -0.0503 -0.8403
 1350TIP3    H125609   2.379   0.780   2.379  0.8610 -2.0283  0.8595
 1350TIP3    H225610   2.401   0.796   2.528  2.1196  2.4875  0.3410
 1351TIP3   OH225611   1.436   5.741   1.541  0.6124  0.2781 -0.5293
 1351TIP3    H125612   1.400   5.807   1.601 -0.6528  0.2152 -1.1943
 1351TIP3    H225613   1.442   5.662   1.594  0.8517  0.5828 -0.0969
 1352TIP3   OH225614   0.562   0.401   8.444 -0.0637 -0.3851  0.3324
 1352TIP3    H125615   0.653   0.381   8.426  0.3207  0.7447  0.9234
 1352TIP3    H225616   0.519   0.395   8.359  0.6042 -0.6589  0.0089
 1353TIP3   OH225617   4.252   0.162   3.553  0.5820  0.3028 -0.7262
 1353TIP3    H125618   4.307   0.176   3.630  1.3545  0.9185 -1.3721
 1353TIP3    H225619   4.175   0.118   3.586  2.3799 -2.5942 -0.0842
 1354TIP3   OH225620   3.158   2.843   2.688  0.1135  0.2544 -0.1745
 1354TIP3    H125621   3.135   2.779   2.621  0.2334 -0.4624  0.4532
 1354TIP3    H225622   3.088   2.835   2.754 -0.8973  2.0857 -0.9438
 1355TIP3   OH225623   6.231   3.170   4.450 -0.1221  0.5646 -0.0460
 1355TIP3    H125624   6.284   3.250   4.456 -0.3850  0.6523  1.6057
 1355TIP3    H225625   6.292   3.099   4.468 -0.4864  0.6656  1.8565
 1356TIP3   OH225626   2.209   4.007   0.546  0.3859 -0.4752 -0.1389
 1356TIP3    H125627   2.243   4.040   0.629 -0.9727  0.0619  0.2385
 1356TIP3    H225628   2.284   4.007   0.487  1.2530 -0.3576  0.9405
 1357TIP3   OH225629   5.160   3.836   3.189 -0.1286  0.0480 -0.1709
 1357TIP3    H125630   5.228   3.902   3.181  0.0633 -0.2931 -1.7268
 1357TIP3    H225631   5.200   3.765   3.240  1.0705 -0.5715 -1.8593
 1358TIP3   OH225632   2.583   3.034   0.939  0.2791 -0.6480  0.0161
 1358TIP3    H125633   2.667   3.035   0.986 -0.2078 -0.7540  0.9236
 1358TIP3    H225634   2.551   2.944   0.951 -0.0054 -0.5807 -0.2420
 1359TIP3   OH225635   4.996   2.213   2.821 -0.0274 -0.0372 -0.0649
 1359TIP3    H125636   4.905   2.188   2.833 -0.7195  1.8237 -1.1292
 1359TIP3    H225637   5.035   2.202   2.908 -1.3730 -0.4316  0.5181
 1360TIP3   OH225638   5.220   2.204   3.006 -0.5647 -0.4938  0.2095
 1360TIP3    H125639   5.227   2.114   3.040 -0.0129  0.0164  1.4889
 1360TIP3    H225640   5.219   2.259   3.084 -1.5934  0.5890 -0.5376
 1361TIP3   OH225641   5.861   0.531   1.108 -0.3586  0.0847 -0.1416
 1361TIP3    H125642   5.944   0.510   1.152 -0.6189  1.1942  0.9270
 1361TIP3    H225643   5.798   0.540   1.178 -1.8034 -2.2303 -1.0250
 1362TIP3   OH225644   6.575   3.531   4.020  1.1729 -0.7885  0.2632
 1362TIP3    H125645   6.496   3.520   3.967  0.3145 -0.0798  1.3327
 1362TIP3    H225646   6.558   3.611   4.071  1.8103 -1.6119  1.8298
 1363TIP3   OH225647   2.027   0.219   2.393 -0.1519  0.2338 -0.5191
 1363TIP3    H125648   2.042   0.128   2.368  0.1820 -0.1099  0.8472
 1363TIP3    H225649   2.109   0.246   2.434 -0.3574  1.0578 -0.6442
 1364TIP3   OH225650   6.463   1.331   3.652  0.3591 -0.1069 -0.2356
 1364TIP3    H125651   6.441   1.279   3.730 -1.0767 -1.8233 -1.6841
 1364TIP3    H225652   6.436   1.420   3.675  1.0088 -0.3326  1.6092
 1365TIP3   OH225653   1.536   3.049   2.662  0.4798 -0.0232  0.2251
 1365TIP3    H125654   1.597   3.086   2.598  0.4094 -0.3377 -0.0263
 1365TIP3    H225655   1.521   2.960   2.632  0.1513 -0.0532  0.4721
 1366TIP3   OH225656   2.000   6.889   0.418 -0.2741  0.1970 -0.0723
 1366TIP3    H125657   1.991   6.798   0.447  0.4932 -0.4653 -1.7466
 1366TIP3    H225658   2.002   6.883   0.322  2.3531  1.6971 -0.1975
 1367TIP3   OH225659   3.137   5.782   0.050 -0.2155 -0.5174 -0.4325
 1367TIP3    H125660   3.070   5.750   0.110 -0.1989  0.0449 -0.1050
 1367TIP3    H225661   3.215   5.731   0.073  0.0573  0.3530  0.7083
 1368TIP3   OH225662   1.843   0.821   2.798 -0.0221  0.3798 -0.7854
 1368TIP3    H125663   1.751   0.804   2.779  0.1063 -1.9739  0.3698
 1368TIP3    H225664   1.884   0.735   2.798  1.5008  0.9871  2.1350
 1369TIP3   OH225665   4.545   6.600   0.407  0.0940 -0.1137 -0.0730
 1369TIP3    H125666   4.503   6.539   0.468  0.3262 -0.1407  0.0630
 1369TIP3    H225667   4.639   6.587   0.422  0.1450  1.3150  1.0107
 1370TIP3   OH225668   5.172   1.536   1.606  0.3945  0.6928 -0.5128
 1370TIP3    H125669   5.099   1.476   1.589  0.1758  0.4930  0.9543
 1370TIP3    H225670   5.213   1.549   1.521  0.3920 -1.4818 -0.9114
 1371TIP3   OH225671   3.743   5.950   2.641 -0.2710  0.1777 -0.1424
 1371TIP3    H125672   3.683   5.879   2.662 -1.0806  0.5001 -1.2951
 1371TIP3    H225673   3.830   5.913   2.655 -0.7168 -0.2330  1.7308
 1372TIP3   OH225674   4.311   6.355   2.241 -0.1286  0.5096  1.3425
 1372TIP3    H125675   4.324   6.416   2.314  0.2472  0.1930  1.5399
 1372TIP3    H225676   4.375   6.383   2.176  0.7376 -0.3011  1.8361
 1373TIP3   OH225677   0.493   0.936   1.576 -0.2212  0.7796  0.1945
 1373TIP3    H125678   0.425   0.978   1.629 -2.0455 -1.1103 -0.5065
 1373TIP3    H225679   0.508   0.852   1.620  0.7366  0.6220 -0.4063
 1374TIP3   OH225680   5.460   2.909   2.341  0.2252 -0.2576 -0.3294
 1374TIP3    H125681   5.538   2.922   2.287  0.4520 -1.4356 -0.3083
 1374TIP3    H225682   5.438   2.817   2.329 -0.9349 -0.0317 -0.0172
 1375TIP3   OH225683   0.884   5.219   2.849 -0.0134 -0.1629  0.5992
 1375TIP3    H125684   0.920   5.262   2.772  0.6000  2.3074  2.1406
 1375TIP3    H225685   0.954   5.162   2.880 -0.2123 -1.0560 -0.5502
 1376TIP3   OH225686   2.259   3.520   4.066 -0.4686 -0.2210 -0.3817
 1376TIP3    H125687   2.180   3.511   4.119 -0.8574 -0.6138 -1.0159
 1376TIP3    H225688   2.331   3.510   4.128 -0.8592  2.7504  0.6722
 1377TIP3   OH225689   0.715   5.429   8.152  0.0759  0.0365  0.0556
 1377TIP3    H125690   0.800   5.427   8.108 -0.2040  0.4427 -0.5225
 1377TIP3    H225691   0.713   5.351   8.207 -0.5224 -1.8099 -2.4420
 1378TIP3   OH225692   5.639   4.121   0.309 -0.3044 -0.2472  0.2747
 1378TIP3    H125693   5.545   4.124   0.292 -0.2326 -2.4960 -0.9765
 1378TIP3    H225694   5.677   4.180   0.243 -0.7388 -0.9017 -0.5891
 1379TIP3   OH225695   3.220   0.171   1.485 -0.2034  0.1614 -0.0841
 1379TIP3    H125696   3.220   0.204   1.575  0.8430 -0.7052  0.2479
 1379TIP3    H225697   3.307   0.192   1.451 -0.7946  1.0587 -1.1409
 1380TIP3   OH225698   3.910   6.657   0.852  0.0974  0.2567 -0.1557
 1380TIP3    H125699   3.822   6.625   0.871 -0.0838 -0.5397 -2.1464
 1380TIP3    H225700   3.907   6.751   0.874 -0.6594 -0.1372  1.5451
 1381TIP3   OH225701   2.178   4.970   3.282  0.6148 -0.0471 -0.1353
 1381TIP3    H125702   2.096   5.001   3.319  0.5621  0.2881 -0.5216
 1381TIP3    H225703   2.169   4.875   3.278  0.7301 -0.1206  0.9531
 1382TIP3   OH225704   2.499   1.951   1.487  0.1964 -0.2271 -0.0328
 1382TIP3    H125705   2.485   1.966   1.580 -0.5311  2.3594 -0.4637
 1382TIP3    H225706   2.593   1.965   1.474 -0.1907  3.1861 -0.1317
 1383TIP3   OH225707   6.237   1.461   0.282 -0.1531  0.8217  0.7780
 1383TIP3    H125708   6.254   1.511   0.203  0.8558  0.1957  0.5770
 1383TIP3    H225709   6.145   1.434   0.274  0.7171 -2.0525 -1.8929
 1384TIP3   OH225710   6.569   1.940   3.915  0.4539 -0.6105  0.5286
 1384TIP3    H125711   6.570   2.024   3.868 -1.4594 -0.8850 -0.1159
 1384TIP3    H225712   6.660   1.923   3.936  0.8692  1.8575  1.0776
 1385TIP3   OH225713   1.682   0.761   1.971 -0.1186  0.1923 -0.3934
 1385TIP3    H125714   1.704   0.763   1.878  2.4929  0.9392  0.1519
 1385TIP3    H225715   1.730   0.687   2.006  0.2392  0.8757  0.6250
 1386TIP3   OH225716   3.544   3.034   1.608  0.5270 -0.3444  0.3070
 1386TIP3    H125717   3.472   2.977   1.635  1.2125 -1.7940 -0.7839
 1386TIP3    H225718   3.618   3.007   1.663  0.4116  0.7761  1.0528
 1387TIP3   OH225719   6.250   4.167   0.305  0.0759  0.2063  0.1795
 1387TIP3    H125720   6.255   4.210   0.390  1.4991 -0.6775  0.5751
 1387TIP3    H225721   6.230   4.237   0.243  0.4961  1.1174  1.0548
 1388TIP3   OH225722   0.058   1.465   0.676 -0.3973  0.3040  0.0812
 1388TIP3    H125723   0.077   1.542   0.728  0.4613  2.8603 -3.5847
 1388TIP3    H225724  -0.029   1.481   0.639  0.8731  1.0563 -2.8767
 1389TIP3   OH225725   1.533   4.132   1.144  0.2065  0.1784  0.2960
 1389TIP3    H125726   1.592   4.147   1.218  1.7153 -0.7587 -0.6432
 1389TIP3    H225727   1.445   4.144   1.179  0.8832 -0.1743  2.2078
 1390TIP3   OH225728   2.012   3.489   8.324 -0.0024  0.5891 -0.2953
 1390TIP3    H125729   1.959   3.485   8.404  1.6449  1.3986  0.9046
 1390TIP3    H225730   2.093   3.444   8.348  0.4131  0.5985 -1.6261
 1391TIP3   OH225731   6.197   0.460   8.360  0.3796 -0.2338 -0.1830
 1391TIP3    H125732   6.248   0.541   8.354 -0.0884  0.0953  0.2038
 1391TIP3    H225733   6.124   0.482   8.417  1.8335 -1.7534  2.4701
 1392TIP3   OH225734   1.474   5.284   2.358 -0.1498 -0.8063  0.0069
 1392TIP3    H125735   1.507   5.371   2.337  0.8349 -1.1285  0.1387
 1392TIP3    H225736   1.446   5.290   2.449 -0.2656 -0.5807 -0.0426
 1393TIP3   OH225737   6.068   2.874   2.664 -0.0237  0.1222 -0.3811
 1393TIP3    H125738   6.118   2.923   2.599  1.5434 -2.4642 -1.2995
 1393TIP3    H225739   6.024   2.806   2.614 -2.0122  0.4341  0.8469
 1394TIP3   OH225740   2.636   2.991   3.225  0.1332 -0.0098  0.5628
 1394TIP3    H125741   2.557   3.046   3.223 -0.0808 -0.2768  1.2722
 1394TIP3    H225742   2.641   2.960   3.315  1.6717  0.9039  0.8360
 1395TIP3   OH225743   0.901   0.008   0.055 -0.2933  0.2738  0.7086
 1395TIP3    H125744   0.993   0.001   0.081 -0.0323  0.2341 -0.2092
 1395TIP3    H225745   0.900  -0.013  -0.038 -1.3758 -0.7675  0.9212
 1396TIP3   OH225746   6.315   5.996   2.539  0.3582 -0.8640 -1.2477
 1396TIP3    H125747   6.390   6.030   2.588 -0.3693 -1.2916  0.2269
 1396TIP3    H225748   6.289   6.068   2.483  0.9843 -0.2048 -0.7243
 1397TIP3   OH225749   2.570   3.506   1.084 -0.1839  0.3218  0.3327
 1397TIP3    H125750   2.614   3.426   1.114 -0.2446 -0.6465 -1.9273
 1397TIP3    H225751   2.498   3.519   1.146  1.1141 -0.0955  2.0060
 1398TIP3   OH225752   3.932   6.770   1.351  0.0120 -0.2571  0.2984
 1398TIP3    H125753   3.982   6.761   1.432  1.6972 -1.4172 -0.8302
 1398TIP3    H225754   3.870   6.697   1.352  0.7716 -0.9090  0.0412
 1399TIP3   OH225755   6.824   5.656   3.155 -0.1377  0.4548 -0.1647
 1399TIP3    H125756   6.879   5.656   3.233  0.1692 -0.7152 -0.3560
 1399TIP3    H225757   6.846   5.574   3.110 -1.4252  0.3680 -0.6872
 1400TIP3   OH225758   1.611   6.842   1.985 -0.0373  0.0251 -0.4849
 1400TIP3    H125759   1.644   6.911   2.043 -0.6299  0.4012 -0.5845
 1400TIP3    H225760   1.539   6.802   2.035 -0.2328  0.0306 -0.7598
 1401TIP3   OH225761   5.508   0.939   0.594  0.4535  0.2192  0.2164
 1401TIP3    H125762   5.586   0.894   0.626  1.4295 -0.7367 -3.1444
 1401TIP3    H225763   5.540   0.992   0.521 -1.7981  1.1704 -0.1386
 1402TIP3   OH225764   3.004   6.631   4.010 -0.4040  0.3246 -0.5081
 1402TIP3    H125765   2.968   6.608   4.096 -0.2686 -0.3253 -0.6216
 1402TIP3    H225766   3.080   6.574   3.999 -1.4189 -0.8480 -1.7888
 1403TIP3   OH225767   3.611   3.425   3.411  0.7274 -0.3534  0.0628
 1403TIP3    H125768   3.653   3.448   3.494 -0.4274  3.2329 -0.1647
 1403TIP3    H225769   3.654   3.482   3.346 -2.7805  1.9132 -0.5465
 1404TIP3   OH225770   2.774   0.534   0.195  0.5741 -0.2783  0.0335
 1404TIP3    H125771   2.821   0.582   0.128 -0.3281  0.3874 -0.1387
 1404TIP3    H225772   2.841   0.481   0.239  1.2349 -0.4265 -1.1219
 1405TIP3   OH225773   2.765   6.082   2.747 -0.4183  0.8139  0.3227
 1405TIP3    H125774   2.824   6.108   2.818  1.9914  1.4373 -1.7471
 1405TIP3    H225775   2.810   6.009   2.704 -2.6645 -0.7437  0.4243
 1406TIP3   OH225776   1.543   1.197   1.469 -0.2820 -0.2265  0.1950
 1406TIP3    H125777   1.624   1.146   1.469 -0.1797 -0.2085 -2.5021
 1406TIP3    H225778   1.568   1.282   1.505  1.2170  0.1278 -1.5504
 1407TIP3   OH225779   2.289   2.991   3.273  0.7154 -0.0593 -0.2585
 1407TIP3    H125780   2.333   3.017   3.192  0.1972  0.0130 -0.5185
 1407TIP3    H225781   2.318   3.057   3.337  0.2320  0.5578 -0.6619
 1408TIP3   OH225782   5.564   3.185   3.210 -0.0718  0.2947  0.1064
 1408TIP3    H125783   5.637   3.243   3.191  0.9328 -0.2512  2.0802
 1408TIP3    H225784   5.599   3.122   3.273 -1.6749 -1.2508 -0.4574
 1409TIP3   OH225785   1.744   5.700   0.748  0.0945 -0.1570  0.0048
 1409TIP3    H125786   1.672   5.752   0.784  1.0129  1.3680 -0.2447
 1409TIP3    H225787   1.732   5.705   0.653  0.5536  0.1859 -0.0436
 1410TIP3   OH225788   5.533   3.972   4.221 -0.2442 -0.4152  0.1797
 1410TIP3    H125789   5.516   4.053   4.173  3.2297 -0.1083 -0.7534
 1410TIP3    H225790   5.513   3.994   4.312  0.6208  1.5418 -0.0475
 1411TIP3   OH225791   2.539   6.510   2.186 -1.0366 -0.2881 -0.4751
 1411TIP3    H125792   2.546   6.565   2.264 -0.7858 -0.3423 -0.4570
 1411TIP3    H225793   2.591   6.557   2.120 -2.4932  0.5595 -1.0753
 1412TIP3   OH225794   6.362   5.175   1.445  0.1959  0.2564 -0.0355
 1412TIP3    H125795   6.373   5.232   1.369 -0.9119  1.0034  0.3344
 1412TIP3    H225796   6.348   5.088   1.407  1.5048  0.2743 -0.6184
 1413TIP3   OH225797   1.907   2.328   2.648 -0.5062  0.2178 -0.0156
 1413TIP3    H125798   1.930   2.249   2.696  0.0798  0.3616 -0.0598
 1413TIP3    H225799   1.847   2.297   2.579  0.1841 -0.2760 -0.4044
 1414TIP3   OH225800   5.479   3.905   2.966 -0.2376  0.2089 -0.1944
 1414TIP3    H125801   5.487   3.998   2.946  0.3450  0.2881  0.3683
 1414TIP3    H225802   5.445   3.866   2.886  2.1590  0.5017 -1.4540
 1415TIP3   OH225803   4.460   2.334   2.837  0.2732  0.2834  0.4984
 1415TIP3    H125804   4.409   2.265   2.796 -0.4788  0.9405  0.2955
 1415TIP3    H225805   4.396   2.403   2.856  1.1232  1.2402 -0.0018
 1416TIP3   OH225806   3.489   5.723   1.943 -0.2187  0.0745 -0.1378
 1416TIP3    H125807   3.424   5.654   1.935  0.8875 -1.2324  1.4998
 1416TIP3    H225808   3.485   5.750   2.035  2.2867 -0.9016  0.3405
 1417TIP3   OH225809   3.642   6.721   1.166 -0.5950 -0.5464 -0.2401
 1417TIP3    H125810   3.674   6.802   1.206  1.5784 -0.7837 -1.4107
 1417TIP3    H225811   3.546   6.729   1.172 -0.4487  1.9399 -0.0082
 1418TIP3   OH225812   2.617   2.430   1.141 -0.4816  0.2556 -0.2644
 1418TIP3    H125813   2.613   2.514   1.187 -0.5179  0.4092 -0.5393
 1418TIP3    H225814   2.568   2.369   1.196 -0.9772  0.5632 -0.3619
 1419TIP3   OH225815   6.242   1.072   3.549  0.4195 -0.2471  0.2786
 1419TIP3    H125816   6.291   1.108   3.476 -3.2633  2.3348 -1.2035
 1419TIP3    H225817   6.252   1.137   3.619  3.2585 -2.3163  2.0155
 1420TIP3   OH225818   1.457   3.021   1.059  0.0302  0.4290 -0.1228
 1420TIP3    H125819   1.378   3.047   1.012 -0.6482 -1.0381  0.1587
 1420TIP3    H225820   1.487   2.942   1.013 -0.3136 -0.6827  1.4880
 1421TIP3   OH225821   0.462   4.520   1.477 -0.5022 -0.4461 -0.3478
 1421TIP3    H125822   0.383   4.479   1.443  0.0567  0.0979 -2.5084
 1421TIP3    H225823   0.530   4.454   1.465 -0.0586  0.1932 -1.5811
 1422TIP3   OH225824   4.206   4.271   1.435 -0.2500 -0.5562 -0.9708
 1422TIP3    H125825   4.175   4.248   1.348 -1.3588 -0.1729 -0.6959
 1422TIP3    H225826   4.143   4.336   1.467  0.9954  0.4557 -0.4776
 1423TIP3   OH225827   5.281   0.332   2.553 -0.0281 -0.3821  0.1309
 1423TIP3    H125828   5.225   0.345   2.629  0.4549  0.7700  0.3036
 1423TIP3    H225829   5.259   0.244   2.522 -2.0997  0.1080  0.0525
 1424TIP3   OH225830   3.910   0.745   3.654  0.2755  0.5374 -0.2527
 1424TIP3    H125831   3.992   0.738   3.703  1.4688  1.9421 -1.9354
 1424TIP3    H225832   3.857   0.807   3.705 -0.2366 -1.1537  1.3871
 1425TIP3   OH225833   3.737   6.866   4.048  0.3829 -0.0787  0.0313
 1425TIP3    H125834   3.659   6.901   4.093 -0.0420 -1.1657  0.1614
 1425TIP3    H225835   3.808   6.925   4.074 -0.1605  0.2062  0.9040
 1426TIP3   OH225836   3.423   0.443   2.434 -0.8082  0.3387 -0.1707
 1426TIP3    H125837   3.511   0.406   2.433 -0.2352  1.5896 -2.4352
 1426TIP3    H225838   3.394   0.440   2.343 -2.7238  0.8468  0.3732
 1427TIP3   OH225839   0.357   3.355   2.068  0.0335  0.0359  0.2695
 1427TIP3    H125840   0.273   3.333   2.109 -0.2124  1.3996  0.5603
 1427TIP3    H225841   0.334   3.419   2.001  0.7631 -0.1453 -0.1617
 1428TIP3   OH225842   4.629   5.457   1.663  0.8741 -0.0523  0.6083
 1428TIP3    H125843   4.709   5.509   1.653  0.7919  0.2490  1.4943
 1428TIP3    H225844   4.580   5.474   1.582  1.7478 -0.3386  0.0006
 1429TIP3   OH225845   2.595   0.495   2.362 -0.4086  0.4786  0.0213
 1429TIP3    H125846   2.679   0.499   2.408 -0.5115  1.4984  0.1457
 1429TIP3    H225847   2.537   0.448   2.421 -0.2979  1.0024  0.5551
 1430TIP3   OH225848   0.233   5.912   1.673  0.3925  0.2164  0.2302
 1430TIP3    H125849   0.139   5.924   1.669  0.5053  0.8693 -2.0301
 1430TIP3    H225850   0.246   5.834   1.727 -1.5009 -0.5670 -0.4025
 1431TIP3   OH225851   0.954   1.152   1.008  1.3775 -0.4506 -0.1529
 1431TIP3    H125852   0.877   1.126   1.059  0.5441 -1.2395 -1.7291
 1431TIP3    H225853   0.993   1.224   1.058 -1.1505  0.8857  0.0539
 1432TIP3   OH225854   1.812   1.416   8.407  0.9894  0.0978  0.1573
 1432TIP3    H125855   1.757   1.340   8.393 -0.0370  0.8056  0.2529
 1432TIP3    H225856   1.760   1.474   8.463  1.0919  1.5425 -1.1593
 1433TIP3   OH225857   1.014   6.230   2.293  0.2422  0.0235 -0.1027
 1433TIP3    H125858   0.941   6.211   2.234  0.7521  1.9368 -1.4449
 1433TIP3    H225859   0.994   6.317   2.328  0.6783 -0.4790  1.4726
 1434TIP3   OH225860   2.327   0.906   0.757 -0.1088  0.0264 -0.4261
 1434TIP3    H125861   2.353   0.977   0.699  1.0572  0.4238  0.5543
 1434TIP3    H225862   2.409   0.872   0.792 -0.7971  0.3573  1.6487
 1435TIP3   OH225863   1.723   3.170   3.127 -0.3341 -0.2484 -0.5716
 1435TIP3    H125864   1.668   3.140   3.055 -1.9624  0.5925  0.2609
 1435TIP3    H225865   1.805   3.122   3.117 -1.4529 -2.0587 -1.4766
 1436TIP3   OH225866   2.728   0.530   1.051  0.2652  0.2799 -0.2641
 1436TIP3    H125867   2.637   0.509   1.071 -0.2431  2.8527  0.3774
 1436TIP3    H225868   2.733   0.528   0.955 -0.6462  0.8447 -0.3288
 1437TIP3   OH225869   0.239   1.424   3.102  0.0960 -0.5951  0.1039
 1437TIP3    H125870   0.212   1.483   3.031 -0.0574 -0.5361  0.2101
 1437TIP3    H225871   0.209   1.468   3.181  2.2383  0.4642  0.4000
 1438TIP3   OH225872   2.231   2.752   0.525 -0.5959 -0.1480 -0.4761
 1438TIP3    H125873   2.236   2.778   0.433 -0.0206  2.9915  0.3438
 1438TIP3    H225874   2.139   2.729   0.539 -0.8842  0.2681 -1.6227
 1439TIP3   OH225875   0.704   5.282   1.616  0.3445  0.2258 -0.5204
 1439TIP3    H125876   0.645   5.216   1.578 -0.5212  0.4585  0.3626
 1439TIP3    H225877   0.708   5.350   1.549 -0.3301  0.1639 -0.6394
 1440TIP3   OH225878   3.489   5.056   1.346  1.0951  0.6682  0.4555
 1440TIP3    H125879   3.451   5.143   1.355  1.2139  0.8397 -0.6480
 1440TIP3    H225880   3.579   5.072   1.319  0.5499  0.1994 -1.8129
 1441TIP3   OH225881   4.260   0.147   1.626  0.0844  0.4429  0.3113
 1441TIP3    H125882   4.216   0.110   1.549  2.1466  0.7707 -1.0946
 1441TIP3    H225883   4.253   0.242   1.615 -1.4152  0.5340  1.6642
 1442TIP3   OH225884   3.685   4.762   7.882 -0.4239  0.7287  0.0303
 1442TIP3    H125885   3.716   4.847   7.851 -0.0186  0.3197 -0.7112
 1442TIP3    H225886   3.628   4.783   7.956 -2.2588  1.8289 -1.5923
 1443TIP3   OH225887   4.874   3.533   3.116 -0.0326 -0.2076 -0.6760
 1443TIP3    H125888   4.842   3.469   3.179  2.2027  0.0473  0.8450
 1443TIP3    H225889   4.796   3.575   3.082 -1.3674 -0.8606  1.3947
 1444TIP3   OH225890   2.381   1.950   3.497 -0.3026 -0.3821  0.1205
 1444TIP3    H125891   2.383   1.894   3.575 -0.8188  0.9892  1.1602
 1444TIP3    H225892   2.452   2.012   3.512 -1.1605  0.6323  0.0959
 1445TIP3   OH225893   4.024   1.637   3.084  0.1526  0.0489 -0.2358
 1445TIP3    H125894   4.084   1.711   3.078 -0.3867  0.4765 -0.4359
 1445TIP3    H225895   4.073   1.564   3.047  1.1012  0.0387  0.9720
 1446TIP3   OH225896   4.080   5.370   2.838 -0.3171  0.3626  0.3019
 1446TIP3    H125897   4.108   5.439   2.897 -2.5122  0.7163  1.0508
 1446TIP3    H225898   4.113   5.396   2.752 -3.2900  3.9777 -0.0360
 1447TIP3   OH225899   2.773   3.047   1.123 -0.1087 -0.1991 -0.3461
 1447TIP3    H125900   2.764   3.123   1.181 -0.1094 -0.4546 -0.0073
 1447TIP3    H225901   2.829   2.987   1.171 -0.3964 -0.5603 -0.4647
 1448TIP3   OH225902   2.379   1.209   2.899  0.2762  0.0837 -0.0287
 1448TIP3    H125903   2.372   1.156   2.820  2.2422  1.4448 -1.2207
 1448TIP3    H225904   2.297   1.259   2.902 -1.0397 -1.9605  0.4216
 1449TIP3   OH225905   1.364   4.723   1.531  0.0891 -0.2138  0.7112
 1449TIP3    H125906   1.337   4.766   1.612 -1.2290  2.2989 -0.9517
 1449TIP3    H225907   1.460   4.728   1.531  0.0712  0.2965  1.8241
 1450TIP3   OH225908   4.239   5.660   2.840  0.0386  0.6453  0.3259
 1450TIP3    H125909   4.208   5.655   2.931  2.5557  2.1338  1.3588
 1450TIP3    H225910   4.327   5.623   2.843  0.1267  0.6346 -1.5511
 1451TIP3   OH225911   0.234   4.852   4.049  0.5770  0.3397 -0.0315
 1451TIP3    H125912   0.139   4.858   4.041  0.6218  1.7264  0.3074
 1451TIP3    H225913   0.268   4.905   3.977  1.0853  0.5581  0.3611
 1452TIP3   OH225914   3.058   0.152   8.157  0.2880  0.4976  0.2722
 1452TIP3    H125915   3.144   0.109   8.162  0.3030  0.6060  1.0907
 1452TIP3    H225916   2.995   0.081   8.166  0.3041  0.5456  0.7724
 1453TIP3   OH225917   2.881   4.874   2.742 -0.4143 -0.3022 -0.2191
 1453TIP3    H125918   2.849   4.804   2.798  0.7554 -0.7306 -0.0603
 1453TIP3    H225919   2.901   4.946   2.802  1.5541 -1.0211  0.0591
 1454TIP3   OH225920   0.982   4.639   3.030  0.3706  0.5622 -0.3568
 1454TIP3    H125921   0.939   4.569   3.078 -1.2377  0.4314 -1.9071
 1454TIP3    H225922   0.954   4.720   3.074  0.4344  0.3676  0.0470
 1455TIP3   OH225923   6.258   0.982   1.246  0.1639  0.0918 -0.1899
 1455TIP3    H125924   6.254   1.063   1.298  0.5747  1.2599 -1.9044
 1455TIP3    H225925   6.285   1.010   1.159 -1.1962 -1.7117 -1.2768
 1456TIP3   OH225926   3.472   5.754   3.175  0.0339  0.3200 -0.0826
 1456TIP3    H125927   3.396   5.701   3.201  0.2494 -0.2104 -0.5116
 1456TIP3    H225928   3.544   5.691   3.170  0.6769  0.9269  1.0068
 1457TIP3   OH225929   3.423   0.262   2.191  0.2357 -0.4645  0.6448
 1457TIP3    H125930   3.336   0.265   2.151  0.3678  1.5413  0.4124
 1457TIP3    H225931   3.448   0.169   2.186  0.0433 -0.4806 -3.4800
 1458TIP3   OH225932   5.100   5.356   3.055  0.1451  0.2101  0.2237
 1458TIP3    H125933   5.194   5.339   3.055 -0.3293 -2.9141  0.1770
 1458TIP3    H225934   5.079   5.374   2.963  0.6438  0.7602  0.2112
 1459TIP3   OH225935   1.691   2.279   1.329 -0.2815 -0.2761 -0.2562
 1459TIP3    H125936   1.747   2.204   1.350 -0.5881 -0.8212 -1.3217
 1459TIP3    H225937   1.735   2.353   1.370  1.3121 -0.6725 -1.1355
 1460TIP3   OH225938   0.087   1.083   1.424 -0.1513 -0.1010 -0.2364
 1460TIP3    H125939   0.081   1.124   1.338 -0.1547 -0.2895 -0.3266
 1460TIP3    H225940   0.172   1.038   1.424 -0.3073 -0.4006 -0.2764
 1461TIP3   OH225941   1.844   6.538   0.407  0.1139 -0.1163  0.3075
 1461TIP3    H125942   1.814   6.466   0.351 -1.5181 -1.1935  2.3811
 1461TIP3    H225943   1.932   6.558   0.377  0.7369 -3.1870 -0.2204
 1462TIP3   OH225944   2.319   4.584   1.262 -0.1175  0.4221 -0.1025
 1462TIP3    H125945   2.396   4.578   1.318 -0.0584 -0.2328 -0.2493
 1462TIP3    H225946   2.262   4.513   1.292 -0.0807  0.0618 -0.8751
 1463TIP3   OH225947   0.516   3.402   3.898  0.7137 -0.3875 -0.4410
 1463TIP3    H125948   0.501   3.484   3.851 -0.4005 -0.0823  0.4032
 1463TIP3    H225949   0.472   3.414   3.982  1.5708 -1.4059  0.1710
 1464TIP3   OH225950   1.010   4.108   3.354  0.0172  0.1235  0.0973
 1464TIP3    H125951   0.969   4.081   3.273  0.0391  0.0991  0.0942
 1464TIP3    H225952   1.075   4.040   3.372  2.1942  1.6600 -1.4904
 1465TIP3   OH225953   0.077   1.849   1.010 -0.0383 -0.4792  0.9121
 1465TIP3    H125954   0.138   1.803   0.953 -0.3934  0.2595 -0.1009
 1465TIP3    H225955  -0.010   1.817   0.983 -0.5055  2.3267 -1.4301
 1466TIP3   OH225956   1.745   5.222   0.049 -0.5025 -0.3678  0.0976
 1466TIP3    H125957   1.746   5.129   0.071 -0.7644 -0.7545 -1.3941
 1466TIP3    H225958   1.652   5.246   0.046 -0.4312 -0.0183  0.6392
 1467TIP3   OH225959   4.557   1.706   2.058  0.5779  0.0707 -0.4015
 1467TIP3    H125960   4.599   1.621   2.052 -1.1762 -1.0116  1.2765
 1467TIP3    H225961   4.464   1.688   2.043  0.2158  1.7673 -0.4608
 1468TIP3   OH225962   1.081   4.085   1.679  0.0312  0.0129 -0.0909
 1468TIP3    H125963   1.012   4.131   1.631 -1.3359 -0.3229  1.4585
 1468TIP3    H225964   1.074   4.119   1.768  0.5333 -1.5045  0.5511
 1469TIP3   OH225965   1.320   2.721   2.989 -0.0404  0.1352  0.0623
 1469TIP3    H125966   1.384   2.654   3.011 -0.9359  0.0354  2.7005
 1469TIP3    H225967   1.237   2.674   2.984 -0.2869  0.6371 -0.9105
 1470TIP3   OH225968   6.015   2.980   2.293 -0.2385 -0.0727 -0.0744
 1470TIP3    H125969   6.066   3.027   2.359 -0.1642 -1.1748  0.6817
 1470TIP3    H225970   6.004   2.892   2.329 -3.6665  0.3844  0.3494
 1471TIP3   OH225971   3.280   6.553   3.434  0.0863  0.4397  0.2573
 1471TIP3    H125972   3.295   6.515   3.347  2.1159  1.0997  0.2846
 1471TIP3    H225973   3.184   6.558   3.441 -0.2265 -2.4979 -0.6464
 1472TIP3   OH225974   0.815   6.169   0.751 -0.2188  0.2207  0.3435
 1472TIP3    H125975   0.880   6.149   0.819 -1.8910 -2.5590  1.2797
 1472TIP3    H225976   0.745   6.216   0.798 -1.7622 -2.4177  0.8867
 1473TIP3   OH225977   0.019   6.090   0.053  0.4914 -0.0996 -0.4119
 1473TIP3    H125978  -0.039   6.077  -0.022  0.3650 -1.3073 -0.1266
 1473TIP3    H225979  -0.034   6.138   0.117  0.2854  0.0796 -0.7167
 1474TIP3   OH225980   6.942   6.001   1.735 -0.6848 -0.4537 -0.0727
 1474TIP3    H125981   6.915   6.092   1.718 -1.4250 -0.8790 -1.3676
 1474TIP3    H225982   6.977   6.002   1.824 -0.7428  1.0864 -0.0422
 1475TIP3   OH225983   0.265   6.494   1.225  0.5585  0.0884  0.1834
 1475TIP3    H125984   0.322   6.432   1.271  1.2105  0.3307 -0.2923
 1475TIP3    H225985   0.289   6.580   1.260  1.7670  0.3919 -1.3040
 1476TIP3   OH225986   0.513   1.663   3.870  0.3696  0.3645  0.3893
 1476TIP3    H125987   0.607   1.683   3.867  0.2018  1.1222 -0.1460
 1476TIP3    H225988   0.480   1.691   3.784 -0.0984 -1.1586  0.0516
 1477TIP3   OH225989   6.760   4.391   1.652  0.3683 -0.0488 -0.1524
 1477TIP3    H125990   6.849   4.361   1.631 -0.1168 -1.8043  0.1900
 1477TIP3    H225991   6.737   4.344   1.732 -1.6762 -1.3623 -1.4242
 1478TIP3   OH225992   6.710   3.289   2.075 -0.1715  0.0327 -0.5187
 1478TIP3    H125993   6.629   3.335   2.052 -0.7106  1.2189  3.0770
 1478TIP3    H225994   6.777   3.357   2.072  0.0761 -0.2101 -0.4547
 1479TIP3   OH225995   0.108   0.224   2.833  0.4416 -0.1188  0.5390
 1479TIP3    H125996   0.111   0.318   2.815  1.8316 -0.5569 -2.0422
 1479TIP3    H225997   0.023   0.196   2.800  0.2439  0.1609  0.8105
 1480TIP3   OH225998   0.993   0.146   0.434 -0.2357 -0.7021 -0.1504
 1480TIP3    H125999   0.988   0.220   0.374  2.0263  0.5262  1.0335
 1480TIP3    H226000   1.039   0.180   0.510 -0.3293 -2.9978  1.0200
 1481TIP3   OH226001   2.543   5.991   2.607 -0.6268  0.3869  0.4725
 1481TIP3    H126002   2.609   6.039   2.657 -1.5446  1.4464  0.6829
 1481TIP3    H226003   2.482   5.959   2.673 -0.9457  0.3805  0.1761
 1482TIP3   OH226004   3.645   6.553   0.867 -0.3289 -0.8531  0.2962
 1482TIP3    H126005   3.593   6.499   0.807 -0.8169  0.1788 -0.2503
 1482TIP3    H226006   3.596   6.552   0.949 -1.2482  0.1064 -0.2149
 1483TIP3   OH226007   0.653   6.552   3.911  0.2491 -0.0702  0.0045
 1483TIP3    H126008   0.589   6.553   3.982  0.2862 -0.7697  0.0478
 1483TIP3    H226009   0.738   6.550   3.954  0.4733  3.4626  0.0268
 1484TIP3   OH226010   3.541   1.439   1.104 -0.3759 -0.4377  0.0467
 1484TIP3    H126011   3.467   1.437   1.164 -0.0727  1.8448  0.5968
 1484TIP3    H226012   3.600   1.371   1.135 -2.0203 -2.0153 -0.1554
 1485TIP3   OH226013   2.363   6.422   0.479 -0.0194 -0.0961 -0.1609
 1485TIP3    H126014   2.385   6.359   0.547  0.2623  0.6675  0.4704
 1485TIP3    H226015   2.342   6.368   0.403 -2.2108 -1.0747  1.0297
 1486TIP3   OH226016   6.036   1.918   1.850  0.2064 -0.5288  0.2651
 1486TIP3    H126017   5.975   1.987   1.875 -0.3101 -0.4929 -1.0216
 1486TIP3    H226018   6.111   1.930   1.909 -1.8871 -2.0225  3.4956
 1487TIP3   OH226019   6.755   3.839   3.427 -0.0369 -0.0082 -0.1080
 1487TIP3    H126020   6.823   3.830   3.360 -0.1041  1.1896 -0.3471
 1487TIP3    H226021   6.715   3.924   3.410  0.0346  0.3850  1.5377
 1488TIP3   OH226022   3.479   6.316   1.420  0.2168  0.2511  0.3747
 1488TIP3    H126023   3.418   6.243   1.412 -1.5677  1.6001  1.0258
 1488TIP3    H226024   3.483   6.333   1.514 -0.4000  1.7564  0.1514
 1489TIP3   OH226025   4.028   6.850   0.548 -0.1689  0.8134 -0.0990
 1489TIP3    H126026   3.957   6.786   0.544  0.5259 -0.0801  1.1073
 1489TIP3    H226027   4.055   6.862   0.457  0.7658 -1.8830 -0.2687
 1490TIP3   OH226028   1.715   6.348   3.048 -0.4874  0.3440 -0.5121
 1490TIP3    H126029   1.798   6.334   3.095  0.0793  1.1795 -1.2494
 1490TIP3    H226030   1.662   6.400   3.109 -0.4821 -0.2018 -0.0332
 1491TIP3   OH226031   0.555   0.452   1.093 -0.2112  0.4283  0.4658
 1491TIP3    H126032   0.531   0.526   1.149  0.1118  0.0157  1.1667
 1491TIP3    H226033   0.552   0.487   1.004  0.8445  1.5437  0.8423
 1492TIP3   OH226034   5.799   6.727   1.380  0.1629  0.1097  0.5311
 1492TIP3    H126035   5.891   6.746   1.398 -0.0626  1.1621  0.6731
 1492TIP3    H226036   5.799   6.685   1.294  0.6372  1.7840 -0.3271
 1493TIP3   OH226037   6.251   5.426   0.935  0.0126  0.3871 -0.1676
 1493TIP3    H126038   6.322   5.361   0.932 -0.8833 -0.6671  0.7276
 1493TIP3    H226039   6.257   5.464   1.022 -0.0089  0.9085 -0.3889
 1494TIP3   OH226040   3.714   4.037   0.466 -0.6496 -0.6763 -0.0241
 1494TIP3    H126041   3.697   4.039   0.372  1.0515 -1.4636 -0.3922
 1494TIP3    H226042   3.793   4.091   0.477 -1.0471 -0.2779  1.0126
 1495TIP3   OH226043   4.462   1.845   1.626 -0.0680 -0.0122  0.5214
 1495TIP3    H126044   4.410   1.878   1.552  0.1849 -0.0291  0.3338
 1495TIP3    H226045   4.548   1.825   1.587 -0.1974 -0.8330  0.6487
 1496TIP3   OH226046   1.760   6.886   4.448  0.7921 -0.7257  0.7765
 1496TIP3    H126047   1.722   6.798   4.439 -0.0090 -0.3306  0.0658
 1496TIP3    H226048   1.851   6.876   4.422  0.0199 -0.8327 -2.3047
 1497TIP3   OH226049   6.273   2.507   1.611  0.7516  0.1104 -0.3433
 1497TIP3    H126050   6.342   2.473   1.668  0.8850  0.4793 -0.2821
 1497TIP3    H226051   6.230   2.575   1.663  1.3150  0.9271 -0.9260
 1498TIP3   OH226052   3.964   5.999   0.738 -0.0990  0.0928 -0.3362
 1498TIP3    H126053   3.916   5.929   0.781  0.4288 -0.5263 -0.7379
 1498TIP3    H226054   3.904   6.074   0.739 -0.0626  0.1491  1.5739
 1499TIP3   OH226055   4.030   0.324   3.138 -0.6554 -0.0076 -0.4955
 1499TIP3    H126056   4.014   0.270   3.216  2.0250  1.0307  0.8753
 1499TIP3    H226057   4.057   0.261   3.071  3.4544 -0.5272  1.3592
 1500TIP3   OH226058   3.581   0.171   0.700  0.2581 -0.5101  0.1641
 1500TIP3    H126059   3.590   0.084   0.662 -1.0868 -0.7411  0.3232
 1500TIP3    H226060   3.641   0.226   0.649  2.4643 -1.8253  1.1796
 1501TIP3   OH226061   4.864   5.235   0.311  0.1011 -0.2657 -0.1936
 1501TIP3    H126062   4.786   5.247   0.364 -0.9789  0.1057 -1.8034
 1501TIP3    H226063   4.846   5.156   0.260 -0.4702  1.3398 -2.6100
 1502TIP3   OH226064   4.685   3.213   1.854 -0.2383 -0.4866  0.0240
 1502TIP3    H126065   4.629   3.136   1.860 -0.2739 -0.3587  1.9880
 1502TIP3    H226066   4.624   3.286   1.841 -0.2865 -0.6570 -0.7420
 1503TIP3   OH226067   2.467   0.537   1.773  0.0184  0.0523 -0.1123
 1503TIP3    H126068   2.504   0.450   1.757 -0.2992 -0.4893  1.8485
 1503TIP3    H226069   2.522   0.574   1.842  0.7209  1.8194 -1.5680
 1504TIP3   OH226070   1.378   6.417   2.910 -0.2747  0.1454 -0.2191
 1504TIP3    H126071   1.364   6.462   2.826 -1.1371 -0.4427 -0.4115
 1504TIP3    H226072   1.374   6.487   2.975  2.1044  0.8633 -0.7577
 1505TIP3   OH226073   2.251   1.138   0.915 -0.2626  0.2158  0.6057
 1505TIP3    H126074   2.294   1.066   0.869 -1.4006 -0.3815  0.4244
 1505TIP3    H226075   2.281   1.217   0.871 -0.6075 -0.2878 -0.5733
 1506TIP3   OH226076   0.115   2.677   2.932  0.1546  0.6534  0.3666
 1506TIP3    H126077   0.023   2.648   2.931  0.1981  0.5007 -1.5558
 1506TIP3    H226078   0.110   2.770   2.911  0.5039  0.3920 -0.9132
 1507TIP3   OH226079   0.056   4.559   1.759  0.0256 -0.8740 -0.4021
 1507TIP3    H126080   0.060   4.634   1.700 -1.9717 -0.6658 -0.3436
 1507TIP3    H226081   0.012   4.592   1.837  1.3849 -1.5004  0.6743
 1508TIP3   OH226082   2.656   4.222   3.492 -0.1751  0.3706 -0.4277
 1508TIP3    H126083   2.736   4.207   3.442  0.1016  0.8458 -0.1304
 1508TIP3    H226084   2.593   4.253   3.428 -0.5068 -1.1728 -0.9067
 1509TIP3   OH226085   4.409   2.000   3.042 -0.5477  0.5575  0.3359
 1509TIP3    H126086   4.470   1.933   3.074 -0.2585  0.0944 -1.1341
 1509TIP3    H226087   4.326   1.979   3.085 -0.0644  0.2640  1.1616
 1510TIP3   OH226088   0.805   2.306   3.102 -0.2280  0.0605  0.1871
 1510TIP3    H126089   0.810   2.302   3.007  0.1180 -0.6664  0.2350
 1510TIP3    H226090   0.808   2.400   3.122  1.1445  0.1791 -0.4477
 1511TIP3   OH226091   4.661   1.429   0.656 -0.2565  0.4288  0.2416
 1511TIP3    H126092   4.599   1.388   0.716 -0.8066 -2.0887 -1.8678
 1511TIP3    H226093   4.615   1.434   0.573  0.8699  2.7129 -0.3192
 1512TIP3   OH226094   6.620   6.931   2.809 -0.3306 -1.0084 -0.1909
 1512TIP3    H126095   6.703   6.977   2.804 -0.5180 -0.0836  3.2278
 1512TIP3    H226096   6.585   6.935   2.719  0.4794  4.0065 -0.5320
 1513TIP3   OH226097   1.963   4.127   3.240  0.0779 -0.3793 -0.1017
 1513TIP3    H126098   1.972   4.033   3.260  0.9420 -0.1761  0.5259
 1513TIP3    H226099   1.926   4.164   3.320 -0.3715 -0.2013 -0.3934
 1514TIP3   OH226100   5.169   5.428   3.488 -0.1025  0.1088 -0.2434
 1514TIP3    H126101   5.123   5.405   3.568  0.2432 -0.7861 -0.2884
 1514TIP3    H226102   5.130   5.511   3.460 -1.2743 -0.3321  0.0275
 1515TIP3   OH226103   0.746   6.712   4.214 -0.3349 -0.3127 -0.2729
 1515TIP3    H126104   0.795   6.645   4.166  1.3461 -0.6543  1.7722
 1515TIP3    H226105   0.654   6.686   4.204 -0.0228 -0.6875 -2.7064
 1516TIP3   OH226106   5.267   1.772   2.762  1.0583  0.4727  0.3753
 1516TIP3    H126107   5.248   1.865   2.747  0.5314  0.0376 -1.9314
 1516TIP3    H226108   5.362   1.770   2.777  1.2019  1.3150 -0.3339
 1517TIP3   OH226109   0.734   1.209   0.761  0.3182  0.9358 -0.0976
 1517TIP3    H126110   0.749   1.120   0.728 -2.0196 -0.3827  1.9914
 1517TIP3    H226111   0.806   1.226   0.821  0.7206  0.4257 -0.4287
 1518TIP3   OH226112   0.144   2.919   0.820 -0.0425  0.2789  0.0236
 1518TIP3    H126113   0.215   2.925   0.885 -1.2396  0.6312  1.3428
 1518TIP3    H226114   0.148   2.828   0.790  1.3792  0.4598 -0.4394
 1519TIP3   OH226115   0.800   5.994   4.138 -0.1500  0.3788 -0.2281
 1519TIP3    H126116   0.863   6.029   4.075 -1.2569  2.4489 -0.2883
 1519TIP3    H226117   0.851   5.936   4.194  1.9041  2.1814 -0.0822
 1520TIP3   OH226118   2.714   4.478   4.201  0.8158  0.2075  0.0585
 1520TIP3    H126119   2.732   4.467   4.294  0.1151 -1.4371  0.0239
 1520TIP3    H226120   2.711   4.389   4.166 -1.5523  0.6432 -1.0348
 1521TIP3   OH226121   4.588   1.760   2.962 -0.3391 -0.1043 -0.4056
 1521TIP3    H126122   4.577   1.842   2.913  0.3003  0.1095 -0.1991
 1521TIP3    H226123   4.669   1.722   2.927  0.5626  0.4288  0.9935
 1522TIP3   OH226124   2.305   1.572   2.035 -0.5415 -0.0997  0.3160
 1522TIP3    H126125   2.327   1.586   1.943 -1.6850 -2.7004 -0.4559
 1522TIP3    H226126   2.306   1.659   2.074  1.8601  0.8773 -1.6983
 1523TIP3   OH226127   5.118   6.816   0.871  0.2633 -0.5738 -0.1918
 1523TIP3    H126128   5.095   6.858   0.788 -0.6235 -0.5906  0.0327
 1523TIP3    H226129   5.199   6.860   0.899 -0.1684  0.3863 -0.4014
 1524TIP3   OH226130   4.078   5.716   0.771  0.1674  0.4314 -0.1189
 1524TIP3    H126131   4.016   5.767   0.823  0.2531 -0.8625  1.3450
 1524TIP3    H226132   4.052   5.732   0.680 -0.6204  1.9966  0.3462
 1525TIP3   OH226133   3.001   3.322   1.151  0.2835 -0.4758 -0.1557
 1525TIP3    H126134   2.959   3.242   1.121 -0.9503  0.2331 -0.3663
 1525TIP3    H226135   2.976   3.389   1.087  0.5090  0.2914  0.5301
 1526TIP3   OH226136   1.174   3.684   2.196 -0.5672 -0.0416  0.2759
 1526TIP3    H126137   1.145   3.694   2.105  1.6723 -0.3784 -0.5456
 1526TIP3    H226138   1.108   3.731   2.248 -2.5171 -0.7906 -1.3829
 1527TIP3   OH226139   5.945   6.842   2.490 -0.0381  0.1530  0.3450
 1527TIP3    H126140   6.014   6.843   2.556 -0.0656  2.2150  0.3986
 1527TIP3    H226141   5.972   6.906   2.425 -0.0339 -1.7938 -1.7201
 1528TIP3   OH226142   4.317   1.407   2.609  0.0011 -0.1124 -0.6393
 1528TIP3    H126143   4.381   1.413   2.680 -0.4802 -1.0684 -0.1199
 1528TIP3    H226144   4.364   1.364   2.538 -0.7891 -3.5570  0.7064
 1529TIP3   OH226145   2.816   3.764   2.127 -0.1192  0.3257 -0.0575
 1529TIP3    H126146   2.856   3.774   2.213 -2.6435  2.0026  1.0392
 1529TIP3    H226147   2.733   3.810   2.133 -0.6870 -0.0081 -3.2455
 1530TIP3   OH226148   6.033   0.808   2.654  0.3572  0.1018  0.2771
 1530TIP3    H126149   6.100   0.877   2.655  0.2373  0.2191  0.7516
 1530TIP3    H226150   5.951   0.853   2.672  0.3694 -0.2477  1.2772
 1531TIP3   OH226151   6.355   0.059   1.912 -0.3475  0.0967 -0.1302
 1531TIP3    H126152   6.410   0.092   1.983  0.6918  0.3621 -1.0334
 1531TIP3    H226153   6.306  -0.013   1.951 -0.0149  0.4229  0.9247
 1532TIP3   OH226154   0.341   2.537   2.916  0.2713 -0.1206 -0.2309
 1532TIP3    H126155   0.258   2.586   2.915 -0.2398 -0.9062  0.9471
 1532TIP3    H226156   0.335   2.482   2.994  1.0971 -1.6035 -1.1718
 1533TIP3   OH226157   3.330   2.487   3.649  0.4070 -0.1469 -0.0078
 1533TIP3    H126158   3.315   2.427   3.722 -1.1630  1.0007  0.6782
 1533TIP3    H226159   3.251   2.541   3.645  0.4760 -0.1101 -2.5412
 1534TIP3   OH226160   5.765   1.135   3.895 -0.3734 -0.4432 -0.4611
 1534TIP3    H126161   5.752   1.162   3.986 -0.0676 -3.9989  0.8047
 1534TIP3    H226162   5.677   1.128   3.859 -0.4992  0.9353 -0.4634
 1535TIP3   OH226163   4.418   0.003   1.781 -0.3454 -0.0262  0.1560
 1535TIP3    H126164   4.350  -0.051   1.822  0.0613 -2.2451 -1.8624
 1535TIP3    H226165   4.373   0.047   1.709 -0.2497  0.8828  0.6358
 1536TIP3   OH226166   4.676   4.308   3.108 -0.4263 -0.0846  0.0421
 1536TIP3    H126167   4.652   4.334   3.019  0.1176 -0.4086 -0.2045
 1536TIP3    H226168   4.683   4.391   3.156 -1.2952  0.0590 -0.0627
 1537TIP3   OH226169   3.120   3.288   2.111  0.1910  0.2929  0.2859
 1537TIP3    H126170   3.083   3.334   2.037  1.6413  3.6019  1.4346
 1537TIP3    H226171   3.049   3.282   2.175 -0.0702  0.7259  0.0314
 1538TIP3   OH226172   4.989   1.716   0.904 -0.0535  1.1186  0.5882
 1538TIP3    H126173   4.966   1.800   0.864 -1.9134 -0.8145 -2.8713
 1538TIP3    H226174   5.080   1.702   0.880  0.0363  1.7763  0.5166
 1539TIP3   OH226175   3.634   3.731   1.853 -0.1065  0.5070  0.3117
 1539TIP3    H126176   3.593   3.709   1.937 -0.7061  2.8172  0.6889
 1539TIP3    H226177   3.628   3.826   1.848  3.1115  0.7556 -0.7296
 1540TIP3   OH226178   5.243   3.227   3.616 -0.0972  0.2053  0.1032
 1540TIP3    H126179   5.277   3.233   3.705 -1.1135 -0.5316  0.5698
 1540TIP3    H226180   5.174   3.160   3.622  1.0370 -1.1899 -1.6318
 1541TIP3   OH226181   2.266   3.445   0.230  0.3823  0.2714  0.6840
 1541TIP3    H126182   2.311   3.440   0.145  1.1989 -0.1085  1.1360
 1541TIP3    H226183   2.319   3.392   0.289  0.4256  1.3994  1.7008
 1542TIP3   OH226184   6.009   3.384   1.647 -0.0637 -0.0347 -0.2257
 1542TIP3    H126185   6.056   3.437   1.711  0.0219 -0.5868  0.1793
 1542TIP3    H226186   6.014   3.434   1.566 -1.4092  1.3788  0.5099
 1543TIP3   OH226187   2.730   0.682   3.550 -0.4181 -0.4577  0.0347
 1543TIP3    H126188   2.757   0.774   3.555  0.8047 -0.8450  0.9895
 1543TIP3    H226189   2.689   0.665   3.635  0.8983 -1.2356  0.5452
 1544TIP3   OH226190   3.478   4.449   1.911  0.4875 -0.7297  0.5876
 1544TIP3    H126191   3.534   4.378   1.879  0.6369 -0.6247  0.6174
 1544TIP3    H226192   3.480   4.439   2.006 -0.6067 -1.5446  0.5380
 1545TIP3   OH226193   4.934   1.408   2.709  0.1871 -0.3311 -0.1677
 1545TIP3    H126194   4.969   1.319   2.715 -3.0043 -1.6913  0.2473
 1545TIP3    H226195   4.981   1.447   2.635  0.1062 -3.1792 -1.8804
 1546TIP3   OH226196   5.081   5.214   3.341 -0.3298 -0.5665 -0.5695
 1546TIP3    H126197   5.046   5.275   3.275  2.6606  0.5949 -1.2540
 1546TIP3    H226198   5.117   5.271   3.409 -1.7208 -1.7380  1.2106
 1547TIP3   OH226199   6.881   2.806   1.316  0.6852 -0.0501 -0.1530
 1547TIP3    H126200   6.893   2.711   1.305  1.1305  0.1226 -1.2691
 1547TIP3    H226201   6.795   2.823   1.277  1.7309  0.3704 -2.4931
 1548TIP3   OH226202   5.374   6.676   1.870 -0.1123  0.5361  0.3509
 1548TIP3    H126203   5.464   6.696   1.847  0.3682 -2.0397 -0.3329
 1548TIP3    H226204   5.330   6.661   1.787 -0.9887  0.9653  0.7149
 1549TIP3   OH226205   5.199   6.599   3.797  0.0643  0.3500 -0.2240
 1549TIP3    H126206   5.126   6.598   3.857 -1.8388 -0.5228 -2.3857
 1549TIP3    H226207   5.212   6.691   3.774 -0.5486  0.4757 -0.0607
 1550TIP3   OH226208   6.517   0.148   2.107 -0.4207 -0.7712 -0.5618
 1550TIP3    H126209   6.557   0.083   2.166  0.6849  0.5080  0.1428
 1550TIP3    H226210   6.582   0.217   2.099 -2.0127  0.8359 -0.3547
 1551TIP3   OH226211   1.632   3.367   3.284 -0.5800  0.3475 -0.0481
 1551TIP3    H126212   1.675   3.291   3.246 -0.4318  1.5438 -2.4677
 1551TIP3    H226213   1.542   3.362   3.254 -0.6377  0.9834  0.0047
 1552TIP3   OH226214   5.487   6.716   7.969  0.1628 -0.0715 -0.5624
 1552TIP3    H126215   5.464   6.630   8.006  1.2999 -0.3809 -0.5246
 1552TIP3    H226216   5.562   6.745   8.021 -0.7772  1.3698  0.0047
 1553TIP3   OH226217   5.094   3.147   1.126  0.2805  0.1972 -0.6599
 1553TIP3    H126218   5.148   3.210   1.078 -0.1749  1.3993  0.3559
 1553TIP3    H226219   5.150   3.117   1.198  0.2302  0.0300 -0.6909
 1554TIP3   OH226220   2.543   1.514   3.099  0.4488  0.0097 -0.1344
 1554TIP3    H126221   2.616   1.558   3.143  0.8839 -0.2405 -0.6051
 1554TIP3    H226222   2.551   1.539   3.007  0.2586 -0.4507 -0.2818
 1555TIP3   OH226223   3.056   3.591   3.425 -0.2042  0.1519 -0.6606
 1555TIP3    H126224   3.136   3.619   3.470 -0.8316  1.4542 -0.3070
 1555TIP3    H226225   3.075   3.607   3.332  0.4526 -0.9056 -0.7272
 1556TIP3   OH226226   2.309   1.203   0.470  0.1457 -0.1631  0.2206
 1556TIP3    H126227   2.313   1.235   0.380 -0.0696 -0.6644  0.0263
 1556TIP3    H226228   2.235   1.142   0.470 -1.4952  1.7100  1.3513
 1557TIP3   OH226229   5.527   1.625   2.574 -0.1559  0.2127  0.2611
 1557TIP3    H126230   5.580   1.619   2.494 -0.5446 -0.2050  0.0307
 1557TIP3    H226231   5.576   1.684   2.631 -0.3666  1.3255 -0.6740
 1558TIP3   OH226232   1.482   0.560   8.330 -0.4177  0.1088  0.4553
 1558TIP3    H126233   1.399   0.519   8.354 -0.2599 -0.2893  0.3218
 1558TIP3    H226234   1.483   0.560   8.235 -0.0630 -0.2944  0.4580
 1559TIP3   OH226235   2.091   5.671   0.466  0.6218 -0.1215  0.2376
 1559TIP3    H126236   2.170   5.699   0.512 -0.2567 -0.9446  2.3798
 1559TIP3    H226237   2.094   5.576   0.469 -1.4315 -0.2270  2.3458
 1560TIP3   OH226238   0.952   1.921   2.123  0.6293 -0.4667  0.1597
 1560TIP3    H126239   0.907   1.877   2.051  1.6503 -0.4747 -0.4829
 1560TIP3    H226240   1.027   1.865   2.143 -0.6513 -1.4752  2.5116
 1561TIP3   OH226241   4.868   1.217   3.004  0.1869 -0.3742 -0.3937
 1561TIP3    H126242   4.935   1.212   2.935 -0.5900  0.1142 -1.2009
 1561TIP3    H226243   4.840   1.126   3.016  0.3156 -0.4604 -0.7271
 1562TIP3   OH226244   6.368   3.077   1.018 -0.0036 -0.4493  0.5035
 1562TIP3    H126245   6.342   3.145   1.080  0.6355 -0.0432  0.3373
 1562TIP3    H226246   6.287   3.053   0.974 -0.0562  1.1506 -0.3516
 1563TIP3   OH226247   6.650   1.401   1.024  0.4270  0.0823  0.5311
 1563TIP3    H126248   6.699   1.320   1.009  0.0293 -0.3556  1.5382
 1563TIP3    H226249   6.691   1.439   1.101 -0.4916 -0.0408  1.0902
 1564TIP3   OH226250   0.681   5.965   1.351 -0.0882 -0.2071 -0.0554
 1564TIP3    H126251   0.765   5.925   1.375  0.0363 -0.2362 -0.5380
 1564TIP3    H226252   0.627   5.954   1.429  1.0900  1.8696  1.1437
 1565TIP3   OH226253   1.409   5.698   4.188 -0.0671  0.2168  0.6580
 1565TIP3    H126254   1.326   5.687   4.141  0.9893 -1.8855 -0.9071
 1565TIP3    H226255   1.418   5.793   4.199 -0.5391  0.9248 -3.3004
 1566TIP3   OH226256   4.710   6.443   1.736  0.9049 -0.5410  0.2603
 1566TIP3    H126257   4.783   6.503   1.716  1.4076 -1.4185 -0.5961
 1566TIP3    H226258   4.639   6.473   1.679  0.4840  0.4935  1.2992
 1567TIP3   OH226259   0.295   2.184   2.508 -0.2852  0.6571 -0.0299
 1567TIP3    H126260   0.332   2.122   2.571  0.2155  0.2026 -0.7451
 1567TIP3    H226261   0.230   2.234   2.558 -3.3194 -2.7582 -0.1637
 1568TIP3   OH226262   1.742   2.557   3.956 -0.4605  0.7515  0.4132
 1568TIP3    H126263   1.696   2.484   3.916 -1.8923  1.1798  1.1995
 1568TIP3    H226264   1.788   2.600   3.884  1.9078 -1.9093  0.1764
 1569TIP3   OH226265   3.010   5.868   8.180 -0.6013 -0.2152  0.3909
 1569TIP3    H126266   3.079   5.914   8.131 -1.9839  2.1820  0.5776
 1569TIP3    H226267   2.935   5.867   8.120 -1.5596  0.5811  1.5448
 1570TIP3   OH226268   1.549   2.472   0.647  0.5363 -0.2103 -0.4734
 1570TIP3    H126269   1.617   2.442   0.708  0.4682  0.1123 -0.2415
 1570TIP3    H226270   1.597   2.492   0.567  1.0412  2.0847  0.3459
 1571TIP3   OH226271   0.117   3.618   3.142  0.1893  0.3063 -0.3957
 1571TIP3    H126272   0.149   3.657   3.223  1.4492  0.0167 -0.7300
 1571TIP3    H226273   0.148   3.527   3.146 -0.0008  0.2067 -1.0602
 1572TIP3   OH226274   0.637   2.906   1.372 -0.7352 -0.3776  0.2215
 1572TIP3    H126275   0.625   2.999   1.391  1.7430 -0.0765  0.6118
 1572TIP3    H226276   0.636   2.864   1.458  0.4776 -0.3713  0.2522
 1573TIP3   OH226277   1.152   6.080   8.398 -0.2297 -0.3396 -0.3833
 1573TIP3    H126278   1.183   6.059   8.486  0.2957 -0.2398 -0.5398
 1573TIP3    H226279   1.140   6.175   8.400 -0.6285 -0.3920 -0.2914
 1574TIP3   OH226280   1.133   6.746   1.743  0.3842 -0.5664 -0.7996
 1574TIP3    H126281   1.105   6.806   1.813  0.9378  0.9238 -1.7927
 1574TIP3    H226282   1.069   6.758   1.674  0.8759 -0.6180 -1.2731
 1575TIP3   OH226283   1.776   2.070   0.941 -0.0989  0.2306  0.4212
 1575TIP3    H126284   1.848   2.108   0.991 -0.6046  2.6447 -0.5460
 1575TIP3    H226285   1.808   2.071   0.850 -0.4598 -0.9381  0.2679
 1576TIP3   OH226286   4.132   1.810   1.591  0.5070  0.5227 -0.4829
 1576TIP3    H126287   4.124   1.774   1.679  0.6982 -0.6420 -0.9306
 1576TIP3    H226288   4.151   1.735   1.535 -0.1201  1.1569 -1.6002
 1577TIP3   OH226289   2.154   4.998   1.101  0.0261  0.4187 -0.2744
 1577TIP3    H126290   2.210   4.930   1.137  1.3334  1.8050  0.4419
 1577TIP3    H226291   2.078   5.001   1.160 -1.0102 -1.6583 -1.4105
 1578TIP3   OH226292   5.910   2.557   1.772  0.1145  0.3124 -0.4101
 1578TIP3    H126293   5.834   2.576   1.827  0.1387 -2.2873  0.6682
 1578TIP3    H226294   5.978   2.615   1.805 -0.3934  0.0900  1.1159
 1579TIP3   OH226295   5.667   3.034   3.419  0.1976  0.0025  0.1251
 1579TIP3    H126296   5.685   3.113   3.469  1.5504 -1.2285  1.7054
 1579TIP3    H226297   5.731   2.970   3.452  0.5897 -1.1471 -2.5733
 1580TIP3   OH226298   0.513   3.792   2.864  0.0902 -0.3743  0.3486
 1580TIP3    H126299   0.578   3.779   2.796 -0.8541 -0.3332 -0.5986
 1580TIP3    H226300   0.555   3.763   2.945  0.8903 -1.3589 -0.4026
 1581TIP3   OH226301   1.346   4.574   2.172  0.2645  0.2157  0.1669
 1581TIP3    H126302   1.273   4.631   2.197 -1.0631 -0.9501 -0.8644
 1581TIP3    H226303   1.398   4.566   2.252 -1.8270 -0.4749  1.5451
 1582TIP3   OH226304   4.013   2.518   2.635  0.2287  0.2058 -0.0370
 1582TIP3    H126305   3.947   2.576   2.597 -0.5747 -0.7028 -0.0620
 1582TIP3    H226306   4.037   2.459   2.563  0.7169  0.2259  0.1078
 1583TIP3   OH226307   4.438   0.161   3.044 -0.1021 -0.2927  0.1200
 1583TIP3    H126308   4.456   0.254   3.035  0.0717 -0.4047 -0.8586
 1583TIP3    H226309   4.376   0.154   3.117 -0.0963  0.5823  0.2089
 1584TIP3   OH226310   5.487   6.309   1.775 -0.2087 -0.6812 -0.0799
 1584TIP3    H126311   5.521   6.351   1.854 -0.6505 -0.4468 -0.0110
 1584TIP3    H226312   5.511   6.369   1.704 -0.2648 -0.6362 -0.0609
 1585TIP3   OH226313   1.266   1.987   3.687 -0.2300  0.0836 -0.2111
 1585TIP3    H126314   1.255   1.899   3.723  0.6669  0.1645  0.2918
 1585TIP3    H226315   1.184   2.032   3.707 -0.4688 -0.4633  0.0459
 1586TIP3   OH226316   6.306   2.370   1.945 -0.1498 -0.1400  0.6105
 1586TIP3    H126317   6.226   2.351   1.994  1.0616 -0.8329  2.3712
 1586TIP3    H226318   6.361   2.292   1.956  2.0559  1.5224  2.0939
 1587TIP3   OH226319   6.266   0.202   2.208 -0.3883 -0.6954  0.3182
 1587TIP3    H126320   6.343   0.198   2.151 -0.0606  0.1132  0.6861
 1587TIP3    H226321   6.301   0.224   2.295 -0.9460 -1.2224  0.6845
 1588TIP3   OH226322   3.038   1.389   0.190 -0.4652  0.0307 -0.3101
 1588TIP3    H126323   3.131   1.389   0.167 -0.7842 -1.7423 -1.8353
 1588TIP3    H226324   3.002   1.463   0.141  0.3348  1.6683  1.4477
 1589TIP3   OH226325   4.349   4.092   2.962 -0.1910  0.2204 -0.2873
 1589TIP3    H126326   4.356   4.152   3.036  1.2120 -1.2870  0.8898
 1589TIP3    H226327   4.438   4.057   2.951 -1.4310 -4.1568  1.3561
 1590TIP3   OH226328   1.888   6.012   4.029  0.2914 -0.1704  0.9718
 1590TIP3    H126329   1.792   6.010   4.037 -0.0092 -1.4339 -1.7795
 1590TIP3    H226330   1.917   5.932   4.071 -0.1574 -1.0282 -0.2680
 1591TIP3   OH226331   0.599   2.794   2.009 -0.2842  0.3358 -0.2121
 1591TIP3    H126332   0.624   2.885   2.000 -1.7310  0.7699 -0.1137
 1591TIP3    H226333   0.534   2.780   1.941 -0.5621 -0.4308  0.1954
 1592TIP3   OH226334   0.772   2.942   0.896  0.1954 -0.5706  0.1682
 1592TIP3    H126335   0.712   2.917   0.826 -0.9511 -0.3384  1.0540
 1592TIP3    H226336   0.859   2.934   0.856 -0.4661  0.7305 -1.6494
 1593TIP3   OH226337   1.113   2.802   3.465  1.1203 -0.2110  0.4369
 1593TIP3    H126338   1.158   2.727   3.503  0.3018 -0.5136  0.8476
 1593TIP3    H226339   1.138   2.876   3.519  0.6081 -0.4965  1.0847
 1594TIP3   OH226340   0.761   1.427   1.061 -0.3897  0.2925  0.2663
 1594TIP3    H126341   0.821   1.458   0.993  0.0970 -2.0547 -0.4709
 1594TIP3    H226342   0.725   1.507   1.099  0.7045  1.7230 -1.5069
 1595TIP3   OH226343   1.846   1.089   4.396  0.1385 -0.0146  0.6412
 1595TIP3    H126344   1.857   1.087   4.491 -1.2850  0.3138  0.8299
 1595TIP3    H226345   1.752   1.084   4.382  0.3816 -1.0418 -0.8019
 1596TIP3   OH226346   6.390   1.999   3.400 -0.0626 -0.1161 -0.5154
 1596TIP3    H126347   6.396   2.078   3.454 -0.1551 -0.7501  0.4556
 1596TIP3    H226348   6.379   2.031   3.311  0.5583  0.9699 -0.2202
 1597TIP3   OH226349   3.675   2.503   1.218  0.6232 -0.1377  0.6576
 1597TIP3    H126350   3.617   2.449   1.272 -0.0498  1.5460  1.6897
 1597TIP3    H226351   3.763   2.480   1.248  0.4421 -1.5198  0.2188
 1598TIP3   OH226352   6.626   0.369   0.246 -0.0495  0.0448 -0.5173
 1598TIP3    H126353   6.615   0.462   0.230 -0.3070  0.0727 -0.1930
 1598TIP3    H226354   6.640   0.331   0.160 -3.3366 -0.0753 -1.1359
 1599TIP3   OH226355   6.542   5.090   1.951  0.2454  0.0991 -0.4665
 1599TIP3    H126356   6.509   5.065   2.037 -0.9766 -2.1724 -1.5247
 1599TIP3    H226357   6.467   5.127   1.906  0.2600 -0.9033 -1.3402
 1600TIP3   OH226358   4.439   3.893   0.450 -0.4023  0.4084 -0.3873
 1600TIP3    H126359   4.474   3.829   0.511  0.6488  0.4527 -0.9231
 1600TIP3    H226360   4.422   3.844   0.369 -1.1427  0.4845 -0.2875
 1601TIP3   OH226361   2.507   2.774   3.556 -0.1284 -0.0476 -0.2198
 1601TIP3    H126362   2.589   2.820   3.537  0.1574 -0.5141 -0.1362
 1601TIP3    H226363   2.535   2.694   3.601 -0.5373 -0.8585 -1.3675
 1602TIP3   OH226364   2.658   6.337   0.812 -0.8548 -0.4898  0.0519
 1602TIP3    H126365   2.658   6.269   0.745 -1.1943 -0.3016 -0.1429
 1602TIP3    H226366   2.716   6.304   0.881 -0.6779 -0.7789 -0.2372
 1603TIP3   OH226367   3.469   6.084   2.475 -0.1306  0.2505 -0.0368
 1603TIP3    H126368   3.380   6.117   2.490  0.0026  1.6432 -1.9650
 1603TIP3    H226369   3.518   6.112   2.553 -1.6717 -2.0009  1.8831
 1604TIP3   OH226370   1.401   0.376   1.651 -0.3168 -0.3348 -0.0177
 1604TIP3    H126371   1.371   0.361   1.740 -0.2654 -0.3772 -0.0074
 1604TIP3    H226372   1.321   0.383   1.599 -0.3431 -0.6129 -0.0176
 1605TIP3   OH226373   3.029   1.370   3.262  0.1030  0.3629  0.1917
 1605TIP3    H126374   2.954   1.310   3.257  1.0069 -0.9106  1.1376
 1605TIP3    H226375   3.050   1.390   3.171 -1.6526  1.1215 -0.0766
 1606TIP3   OH226376   1.905   2.701   0.066  0.1251  0.4551 -0.3544
 1606TIP3    H126377   1.942   2.636   0.007  0.8686 -1.0323  1.6430
 1606TIP3    H226378   1.915   2.784   0.020  2.8468 -0.3188 -1.3665
 1607TIP3   OH226379   6.207   3.401   2.835 -0.1305  0.1422  0.2140
 1607TIP3    H126380   6.279   3.440   2.785 -0.0156 -3.5395 -3.0228
 1607TIP3    H226381   6.135   3.394   2.772 -1.7072 -0.4460  1.9961
 1608TIP3   OH226382   2.351   0.793   0.407 -0.8911 -0.7636  0.5998
 1608TIP3    H126383   2.413   0.866   0.401 -1.7230 -0.0688  0.3094
 1608TIP3    H226384   2.265   0.834   0.402 -1.4210 -1.5875  2.2568
 1609TIP3   OH226385   5.719   1.794   4.259  0.3829  0.2640 -0.2110
 1609TIP3    H126386   5.752   1.876   4.221  1.2067  0.2461  0.4257
 1609TIP3    H226387   5.798   1.745   4.282 -0.0938 -0.0102  0.8900
 1610TIP3   OH226388   0.530   3.444   4.395  0.1730 -0.2089  0.1181
 1610TIP3    H126389   0.500   3.421   4.307  0.5526  0.4463 -0.1934
 1610TIP3    H226390   0.475   3.518   4.420 -1.6867 -1.9796  1.4935
 1611TIP3   OH226391   5.776   4.422   2.733 -0.3158 -0.5497 -0.3293
 1611TIP3    H126392   5.711   4.358   2.703 -1.7195  0.1905  1.0280
 1611TIP3    H226393   5.805   4.466   2.653  0.9083 -3.0111 -1.3474
 1612TIP3   OH226394   4.190   0.508   4.069  0.2800  0.3763 -0.0538
 1612TIP3    H126395   4.120   0.442   4.073  0.1619  0.5318  0.8438
 1612TIP3    H226396   4.246   0.487   4.144  1.4206  0.0327 -0.9666
 1613TIP3   OH226397   6.418   3.842   1.394 -0.4988  0.7733  0.1266
 1613TIP3    H126398   6.430   3.933   1.367 -1.7841  0.7740 -0.5134
 1613TIP3    H226399   6.507   3.808   1.405  0.0854  2.9193  3.3834
 1614TIP3   OH226400   2.554   0.264   1.736 -0.7219  0.7440  0.0447
 1614TIP3    H126401   2.560   0.254   1.641  1.6370 -0.5244  0.2442
 1614TIP3    H226402   2.527   0.177   1.767 -0.0435  0.7185  0.5954
 1615TIP3   OH226403   0.461   1.610   2.967  0.0861 -0.0090  0.5633
 1615TIP3    H126404   0.540   1.561   2.948 -1.1320 -1.4523 -1.0821
 1615TIP3    H226405   0.491   1.686   3.017  2.8836  1.0732 -2.4632
 1616TIP3   OH226406   1.553   6.145   0.340 -0.0300 -0.6249  0.2569
 1616TIP3    H126407   1.486   6.117   0.402 -2.0456  0.7292 -1.1919
 1616TIP3    H226408   1.563   6.239   0.355 -0.7003 -0.2280 -1.5475
 1617TIP3   OH226409   2.792   0.894   3.250 -0.3705  0.5791  0.2473
 1617TIP3    H126410   2.802   0.917   3.343 -0.3311  0.8546  0.1769
 1617TIP3    H226411   2.710   0.845   3.246 -1.2040  1.9226  0.1886
 1618TIP3   OH226412   0.137   6.835   3.097 -0.1378 -0.0092 -0.0989
 1618TIP3    H126413   0.044   6.818   3.084  0.1929 -0.3566 -2.5251
 1618TIP3    H226414   0.171   6.854   3.010  1.9656  0.7303  0.7986
 1619TIP3   OH226415   5.260   3.891   3.538 -0.4237 -0.2345 -0.3832
 1619TIP3    H126416   5.166   3.909   3.536 -0.5902 -0.9068  0.6856
 1619TIP3    H226417   5.266   3.799   3.563  0.5479  0.2352  1.2349
 1620TIP3   OH226418   1.147   6.254   2.687  0.4743  0.0013  0.1050
 1620TIP3    H126419   1.098   6.210   2.757  0.5548 -0.8203 -0.3461
 1620TIP3    H226420   1.112   6.344   2.687  1.5038  0.4655  2.1674
 1621TIP3   OH226421   4.336   0.610   2.420 -0.0376 -0.2156 -0.0517
 1621TIP3    H126422   4.359   0.540   2.481  0.4204 -0.5883 -0.6384
 1621TIP3    H226423   4.264   0.657   2.463  2.4755  1.7104  2.3970
 1622TIP3   OH226424   0.919   1.940   4.280  0.5068 -0.1879 -0.0272
 1622TIP3    H126425   0.867   1.989   4.343  0.0193 -1.5416  0.6668
 1622TIP3    H226426   1.009   1.970   4.294  0.3112  0.0035  0.8576
 1623TIP3   OH226427   2.764   3.546   3.484 -0.4448  0.4450  0.3568
 1623TIP3    H126428   2.753   3.499   3.402  2.0070 -1.5040  1.0211
 1623TIP3    H226429   2.844   3.598   3.472  0.2428 -0.2656  1.6335
 1624TIP3   OH226430   2.580   2.098   2.773 -0.4086 -0.0663  0.1756
 1624TIP3    H126431   2.572   2.140   2.859 -1.6503  1.7311 -0.7674
 1624TIP3    H226432   2.651   2.145   2.730 -2.1181  1.5102 -1.0662
 1625TIP3   OH226433   1.527   1.818   1.541  0.5335 -0.2476 -0.2469
 1625TIP3    H126434   1.548   1.910   1.552 -0.3822 -0.2296  1.7386
 1625TIP3    H226435   1.431   1.815   1.540  0.5580 -1.1429 -0.5354
 1626TIP3   OH226436   0.651   3.611   1.319  0.2842  0.2254  0.6147
 1626TIP3    H126437   0.648   3.703   1.344 -0.1421  0.6238 -0.8231
 1626TIP3    H226438   0.717   3.607   1.250 -3.4096  0.5786 -3.3602
 1627TIP3   OH226439   3.047   3.876   0.890 -0.1766  0.3608  0.1507
 1627TIP3    H126440   2.956   3.845   0.882  0.3456 -1.1154 -0.5020
 1627TIP3    H226441   3.095   3.801   0.924  0.9307  0.8971 -0.1754
 1628TIP3   OH226442   2.900   2.109   3.013  0.2707 -0.3610 -0.6903
 1628TIP3    H126443   2.926   2.082   3.100 -2.1072 -1.5960 -0.2749
 1628TIP3    H226444   2.819   2.062   2.996  0.9551 -0.6394 -3.8427
 1629TIP3   OH226445   4.430   4.419   2.842  0.2763  0.0379  0.0389
 1629TIP3    H126446   4.357   4.358   2.849  0.0395  0.2407 -0.5737
 1629TIP3    H226447   4.392   4.504   2.865  0.2581  0.1828 -0.5210
 1630TIP3   OH226448   4.610   0.775   0.537 -0.4227  0.0009  0.2911
 1630TIP3    H126449   4.605   0.724   0.456  0.3796  0.4980 -0.0890
 1630TIP3    H226450   4.536   0.745   0.589 -2.8170  1.8155 -1.8545
 1631TIP3   OH226451   5.424   2.981   2.614  0.3881 -0.6008 -0.0738
 1631TIP3    H126452   5.426   2.972   2.519 -3.2551  0.5847 -0.4039
 1631TIP3    H226453   5.417   3.075   2.628 -2.7995 -0.8902  1.0666
 1632TIP3   OH226454   5.621   2.869   2.127  0.3838  0.0927 -0.5646
 1632TIP3    H126455   5.578   2.791   2.091  0.4614 -0.4653  0.5280
 1632TIP3    H226456   5.685   2.835   2.190  1.7808  0.9472 -1.4416
 1633TIP3   OH226457   4.852   2.486   3.606 -0.4890 -0.5535  0.6501
 1633TIP3    H126458   4.941   2.452   3.613  0.0554  0.6478 -0.0978
 1633TIP3    H226459   4.807   2.423   3.549  0.2409 -0.5203  0.0217
 1634TIP3   OH226460   0.376   6.088   3.620  0.2648  0.1061  0.0432
 1634TIP3    H126461   0.345   6.041   3.697  0.7422 -2.0087 -0.9728
 1634TIP3    H226462   0.462   6.121   3.645  0.0346  0.2183  0.7005
 1635TIP3   OH226463   6.851   5.936   0.368  0.0339  0.0752 -0.2450
 1635TIP3    H126464   6.786   5.928   0.437  0.9319 -0.8321  0.5431
 1635TIP3    H226465   6.802   5.920   0.287 -0.7538 -0.3862  0.3063
 1636TIP3   OH226466   5.563   1.092   1.722  0.1593 -0.1541  0.2411
 1636TIP3    H126467   5.524   1.092   1.635  0.9200 -1.8607 -0.1587
 1636TIP3    H226468   5.498   1.048   1.777  0.1893 -0.1829  0.2540
 1637TIP3   OH226469   1.067   4.830   1.500  0.8640  0.1042 -0.5996
 1637TIP3    H126470   1.145   4.855   1.549  1.5097 -0.4787 -1.2985
 1637TIP3    H226471   1.086   4.742   1.467 -0.1039 -0.0597 -0.7629
 1638TIP3   OH226472   5.478   3.958   2.507  0.3431 -0.2508  0.3338
 1638TIP3    H126473   5.426   3.955   2.588 -0.7672  0.1519 -0.3345
 1638TIP3    H226474   5.460   4.044   2.470  0.6085 -0.5326 -0.4878
 1639TIP3   OH226475   2.637   4.219   1.932  0.8263 -0.1551  0.3401
 1639TIP3    H126476   2.681   4.209   1.848 -0.2756 -1.8489 -0.0973
 1639TIP3    H226477   2.578   4.294   1.920  0.2589 -0.7393 -0.6091
 1640TIP3   OH226478   2.005   6.226   0.325  0.0622  0.1146 -0.0882
 1640TIP3    H126479   2.006   6.194   0.235  1.2569 -0.2855  0.0413
 1640TIP3    H226480   2.063   6.166   0.372 -0.3597  0.4598  0.9019
 1641TIP3   OH226481   6.122   4.365   0.172  0.2042  0.7030 -0.8695
 1641TIP3    H126482   6.032   4.395   0.157  0.1450  0.7551 -0.4353
 1641TIP3    H226483   6.172   4.445   0.183 -0.4376  0.7803  3.1830
 1642TIP3   OH226484   0.153   1.575   3.309  0.1063 -0.3823  0.5896
 1642TIP3    H126485   0.192   1.542   3.390  4.2119  3.1725  0.4277
 1642TIP3    H226486   0.101   1.651   3.336 -0.0836 -0.3209  0.0673
 1643TIP3   OH226487   3.273   1.858   2.622 -0.5610  0.3344 -0.2488
 1643TIP3    H126488   3.288   1.871   2.716 -0.6175 -0.9499 -0.0504
 1643TIP3    H226489   3.178   1.862   2.612 -0.6495 -0.8672 -0.0235
 1644TIP3   OH226490   2.006   0.116   2.771 -0.4647 -0.1026 -0.1055
 1644TIP3    H126491   2.049   0.162   2.842  0.1258 -1.0276  0.1472
 1644TIP3    H226492   2.077   0.081   2.718 -0.8893 -1.6163  0.2932
 1645TIP3   OH226493   0.505   6.721   0.199  0.3828 -0.0061 -1.0306
 1645TIP3    H126494   0.519   6.751   0.289  1.0458 -0.0608 -1.1076
 1645TIP3    H226495   0.423   6.763   0.172 -0.0142 -0.2702 -0.2827
 1646TIP3   OH226496   4.497   0.376   1.518  0.1727 -0.3467  0.3681
 1646TIP3    H126497   4.543   0.451   1.482 -1.9597  0.4070 -1.0092
 1646TIP3    H226498   4.540   0.358   1.601  2.9262  0.2074 -0.8409
 1647TIP3   OH226499   1.640   6.739   3.667 -0.8971  0.1824 -0.0114
 1647TIP3    H126500   1.659   6.654   3.708  0.0474 -0.3492 -1.4794
 1647TIP3    H226501   1.565   6.773   3.716  0.2808 -0.3271  2.2511
 1648TIP3   OH226502   3.320   4.643   3.856 -0.0344  0.0130 -0.5423
 1648TIP3    H126503   3.349   4.671   3.943 -0.5805 -0.1167 -0.3138
 1648TIP3    H226504   3.224   4.645   3.861 -0.0733  0.6724 -1.3613
 1649TIP3   OH226505   1.317   1.895   0.322 -0.2369  0.4641  0.3998
 1649TIP3    H126506   1.285   1.982   0.299 -3.0679 -0.2645  1.1979
 1649TIP3    H226507   1.352   1.860   0.240 -0.4768  1.7698 -0.2873
 1650TIP3   OH226508   1.810   4.004   1.924 -0.4732 -0.2197  0.2234
 1650TIP3    H126509   1.719   3.982   1.903 -0.8340  1.5281 -0.2418
 1650TIP3    H226510   1.858   3.987   1.843 -0.9330  1.5526 -0.4699
 1651TIP3   OH226511   0.544   0.323   3.831 -0.0827  0.3001  0.2824
 1651TIP3    H126512   0.580   0.328   3.920  1.3009  0.4676 -0.2663
 1651TIP3    H226513   0.580   0.399   3.786  0.2216 -0.4529 -0.7745
 1652TIP3   OH226514   1.207   2.172   2.438 -0.6789  0.0960 -0.8412
 1652TIP3    H126515   1.175   2.098   2.489 -0.3640 -0.4996 -1.4827
 1652TIP3    H226516   1.255   2.132   2.365 -0.2405  0.9338 -1.0325
 1653TIP3   OH226517   4.924   5.321   2.041  0.1317 -0.0921 -0.0526
 1653TIP3    H126518   4.896   5.268   1.966 -1.9051 -1.1263  1.3311
 1653TIP3    H226519   4.843   5.361   2.072  0.9726  0.4592  1.4780
 1654TIP3   OH226520   0.484   6.500   2.882  0.3585  0.1759  0.7241
 1654TIP3    H126521   0.449   6.567   2.941 -0.6773  2.8004 -2.5245
 1654TIP3    H226522   0.406   6.457   2.846  0.8897 -0.4219  0.2765
 1655TIP3   OH226523   6.619   2.157   3.687 -0.0193 -0.0620 -0.1298
 1655TIP3    H126524   6.689   2.145   3.622  0.4765  0.1916  0.3564
 1655TIP3    H226525   6.627   2.248   3.715 -1.7378  0.5632 -1.4307
 1656TIP3   OH226526   4.680   1.935   3.644  0.6028 -0.6231  0.4710
 1656TIP3    H126527   4.599   1.952   3.692  0.3516 -0.1192 -0.1212
 1656TIP3    H226528   4.694   1.840   3.654 -0.1656 -0.7501  0.4044
 1657TIP3   OH226529   3.709   2.994   1.811 -0.1140 -0.1382  0.1379
 1657TIP3    H126530   3.681   3.072   1.859  0.2953  1.4134 -1.9852
 1657TIP3    H226531   3.724   2.929   1.878 -0.9616  1.4586  1.9749
 1658TIP3   OH226532   5.217   1.427   1.859 -0.7030  0.5530 -0.3230
 1658TIP3    H126533   5.210   1.468   1.772 -0.3171 -0.4855 -0.8572
 1658TIP3    H226534   5.131   1.439   1.898 -0.8892  1.0192 -0.8506
 1659TIP3   OH226535   0.625   6.753   1.512  0.6484  0.8453  0.7049
 1659TIP3    H126536   0.667   6.667   1.523  2.1354  1.6839  2.0776
 1659TIP3    H226537   0.532   6.736   1.526  1.0120 -0.4139  1.8579
 1660TIP3   OH226538   6.501   1.739   1.404 -0.0161  0.2375 -0.2750
 1660TIP3    H126539   6.586   1.740   1.450 -0.1669 -1.3237  0.0929
 1660TIP3    H226540   6.453   1.813   1.442 -0.0943 -0.9406  2.0801
 1661TIP3   OH226541   0.918   4.108   0.187  0.0205  0.2224 -0.1243
 1661TIP3    H126542   0.961   4.026   0.214  0.9386  0.8875  0.5034
 1661TIP3    H226543   0.825   4.094   0.205 -0.0536 -1.2114 -1.3831
 1662TIP3   OH226544   3.134   3.369   0.830 -0.5225  0.1219 -0.4359
 1662TIP3    H126545   3.062   3.422   0.864 -0.5283  1.2739 -2.1496
 1662TIP3    H226546   3.207   3.430   0.821  0.2882 -0.7485  0.0081
 1663TIP3   OH226547   5.823   0.734   2.105 -0.1765  0.4512  0.6017
 1663TIP3    H126548   5.740   0.763   2.069  0.0760 -0.2018 -0.5768
 1663TIP3    H226549   5.867   0.690   2.032  1.0956  0.5632  1.2613
 1664TIP3   OH226550   5.535   6.584   2.796 -0.2277  0.4065  0.1506
 1664TIP3    H126551   5.535   6.655   2.860  0.2617  1.2788 -0.7788
 1664TIP3    H226552   5.529   6.504   2.849 -3.4516  1.1496  1.1380
 1665TIP3   OH226553   2.213   1.163   3.275  0.4358  0.5503 -0.0942
 1665TIP3    H126554   2.164   1.126   3.202 -0.9947  1.2487  0.4755
 1665TIP3    H226555   2.214   1.257   3.260 -1.3891  0.9056  1.6052
 1666TIP3   OH226556   5.222   1.973   0.331 -0.0753 -0.4782 -0.2836
 1666TIP3    H126557   5.250   2.014   0.249  2.4205  0.2375  0.8375
 1666TIP3    H226558   5.244   1.881   0.320 -0.0840 -0.4519 -0.5383
 1667TIP3   OH226559   6.536   1.229   1.455  0.2622 -0.2374 -0.1458
 1667TIP3    H126560   6.581   1.149   1.480  0.5967  0.0914  0.2999
 1667TIP3    H226561   6.605   1.289   1.429 -0.0534 -0.4755 -1.6213
 1668TIP3   OH226562   1.436   0.344   2.175  0.3568  0.1183  0.0823
 1668TIP3    H126563   1.474   0.391   2.249 -0.3322  0.2654  0.3571
 1668TIP3    H226564   1.378   0.279   2.215 -1.0273  1.0682 -0.3239
 1669TIP3   OH226565   0.605   3.869   1.443 -0.0720  0.4944 -0.3537
 1669TIP3    H126566   0.517   3.886   1.477 -0.2419 -0.0069 -0.5253
 1669TIP3    H226567   0.664   3.898   1.513 -0.4017 -0.1630  0.2088
 1670TIP3   OH226568   4.108   1.882   2.123  0.3286  0.6302  0.1446
 1670TIP3    H126569   4.180   1.871   2.186 -0.6173  0.8378  1.2960
 1670TIP3    H226570   4.030   1.853   2.170 -0.7036  2.6096 -0.2356
 1671TIP3   OH226571   5.979   4.310   0.679 -0.1491  0.0018 -0.1122
 1671TIP3    H126572   5.913   4.295   0.611 -0.6339  0.3034  0.2777
 1671TIP3    H226573   5.938   4.278   0.759  0.7465 -1.1376 -0.0829
 1672TIP3   OH226574   0.027   1.841   2.301  0.2277  0.3495 -0.0765
 1672TIP3    H126575   0.049   1.871   2.213 -0.2832 -0.3863 -0.4681
 1672TIP3    H226576   0.006   1.921   2.349  1.4545  0.8541 -0.3320
 1673TIP3   OH226577   3.342   2.218   0.307 -0.4646  0.0865 -0.4059
 1673TIP3    H126578   3.261   2.167   0.306 -1.1178  1.0896 -0.7622
 1673TIP3    H226579   3.393   2.184   0.233  0.2126 -1.6986  0.8264
 1674TIP3   OH226580   4.060   4.512   0.870 -0.2919  0.2674  0.5181
 1674TIP3    H126581   4.067   4.583   0.806  0.0603  0.2586  0.5481
 1674TIP3    H226582   3.990   4.541   0.930 -1.9377 -0.5543 -0.9260
 1675TIP3   OH226583   0.329   6.746   1.629 -0.2970 -0.2428  0.2055
 1675TIP3    H126584   0.363   6.791   1.707 -0.6327  0.5756 -0.1013
 1675TIP3    H226585   0.280   6.672   1.664 -1.4305  0.7728  0.8576
 1676TIP3   OH226586   3.045   3.353   0.372 -0.1879 -0.2898  0.3689
 1676TIP3    H126587   3.135   3.384   0.358 -0.3454 -0.5382 -1.4603
 1676TIP3    H226588   3.049   3.259   0.356 -0.9050 -0.1790 -0.5868
 1677TIP3   OH226589   3.948   2.302   0.454  0.4759 -0.2111  0.2457
 1677TIP3    H126590   3.965   2.229   0.394 -0.3701  0.4623 -0.8795
 1677TIP3    H226591   4.018   2.365   0.437  0.4273 -0.1668  0.2075
 1678TIP3   OH226592   4.293   4.545   0.422 -0.0903  0.0617  0.1126
 1678TIP3    H126593   4.360   4.539   0.354 -1.3160  0.5491 -1.1949
 1678TIP3    H226594   4.342   4.563   0.502  1.3238  0.7177 -0.8498
 1679TIP3   OH226595   6.575   5.323   4.023 -0.1899  0.5836 -0.6748
 1679TIP3    H126596   6.537   5.389   3.965  1.4266  0.5818 -1.7878
 1679TIP3    H226597   6.644   5.369   4.071 -1.1495  0.4508  0.9018
 1680TIP3   OH226598   6.341   6.501   1.557 -0.9900  0.0900  0.1922
 1680TIP3    H126599   6.370   6.461   1.474  0.1105  1.1853  0.0131
 1680TIP3    H226600   6.373   6.591   1.552  0.3633 -0.1951  2.4221
 1681TIP3   OH226601   0.150   1.606   1.177  0.0252 -0.7034  0.5752
 1681TIP3    H126602   0.109   1.556   1.106  0.7996 -1.8919  0.9373
 1681TIP3    H226603   0.244   1.594   1.165  0.1726 -0.9533  1.8131
 1682TIP3   OH226604   3.386   2.634   2.262 -0.1344  0.1213  0.4915
 1682TIP3    H126605   3.320   2.640   2.192 -0.5082  3.3128  0.9713
 1682TIP3    H226606   3.378   2.716   2.310  3.6046  0.2709  1.1612
 1683TIP3   OH226607   0.328   2.360   3.135  0.0675  0.5745 -0.1761
 1683TIP3    H126608   0.249   2.328   3.179  0.2556  1.8318  1.1673
 1683TIP3    H226609   0.386   2.284   3.132 -1.2817 -0.4647 -1.4843
 1684TIP3   OH226610   6.000   4.946   2.208  0.0812  0.1159  0.3704
 1684TIP3    H126611   5.988   4.934   2.113  1.3350  0.1443  0.1809
 1684TIP3    H226612   5.927   4.900   2.248  0.1092 -0.8065 -0.5875
 1685TIP3   OH226613   6.308   1.817   3.125 -0.5983 -0.1710  0.6247
 1685TIP3    H126614   6.262   1.900   3.111 -1.0580 -0.7124 -1.2422
 1685TIP3    H226615   6.384   1.821   3.067 -1.5798 -1.7499 -0.8668
 1686TIP3   OH226616   0.488   3.424   1.483 -0.4228 -0.1920  0.1767
 1686TIP3    H126617   0.454   3.366   1.415  1.2912 -1.1501  0.1013
 1686TIP3    H226618   0.546   3.484   1.437  0.6991 -0.8042  0.7714
 1687TIP3   OH226619   1.525   6.054   1.455 -0.0036 -0.2275  0.0087
 1687TIP3    H126620   1.549   6.124   1.516  1.1350 -0.2033 -0.4356
 1687TIP3    H226621   1.573   5.977   1.486 -0.4390 -0.5520 -0.1072
 1688TIP3   OH226622   6.167   6.794   0.270  0.3505  0.3048  0.0929
 1688TIP3    H126623   6.130   6.712   0.238 -2.1170  1.4381 -0.1186
 1688TIP3    H226624   6.261   6.785   0.252  0.0659 -2.1299 -0.6269
 1689TIP3   OH226625   5.110   0.091   1.438  0.1274 -0.4493  0.1999
 1689TIP3    H126626   5.078   0.065   1.351  2.4456 -1.3150 -0.4588
 1689TIP3    H226627   5.170   0.163   1.420  0.2206 -0.2725  1.1761
 1690TIP3   OH226628   2.715   0.006   0.454 -0.0724  0.2131 -0.2071
 1690TIP3    H126629   2.664   0.051   0.522  0.9342 -1.1317  1.5155
 1690TIP3    H226630   2.805   0.035   0.469  0.6309 -2.3483  1.0222
 1691TIP3   OH226631   0.334   3.826   1.440  0.4237  0.2340 -0.3720
 1691TIP3    H126632   0.333   3.899   1.379 -0.1311  0.3275 -0.2487
 1691TIP3    H226633   0.345   3.748   1.385 -0.8927  0.2438 -0.6644
 1692TIP3   OH226634   6.037   2.518   0.556  0.0035  0.4428 -0.7059
 1692TIP3    H126635   6.105   2.572   0.598 -1.4342  1.7128  0.0664
 1692TIP3    H226636   6.024   2.446   0.617  0.0975  0.6246 -0.4661
 1693TIP3   OH226637   5.012   3.952   8.345 -0.0064  0.3445  0.4851
 1693TIP3    H126638   5.078   3.883   8.339 -0.7874 -0.3520 -0.3732
 1693TIP3    H226639   5.052   4.027   8.301 -0.3612 -0.5668 -1.4965
 1694TIP3   OH226640   1.318   4.491   3.106  0.3460 -0.7592  0.3055
 1694TIP3    H126641   1.254   4.435   3.150 -0.7994 -0.2214 -0.6387
 1694TIP3    H226642   1.267   4.563   3.069  1.6902  0.5725  0.8917
 1695TIP3   OH226643   0.186   1.519   2.705  0.8153  0.1730 -0.1546
 1695TIP3    H126644   0.106   1.510   2.756  2.0339 -0.8025  1.7200
 1695TIP3    H226645   0.193   1.613   2.688 -0.9772  0.2186 -0.8642
 1696TIP3   OH226646   0.600   6.481   2.534  0.5305 -0.4146  0.2694
 1696TIP3    H126647   0.508   6.502   2.552  0.8971 -0.6885  2.7428
 1696TIP3    H226648   0.647   6.563   2.549  0.5820  0.2597 -2.8458
 1697TIP3   OH226649   2.384   0.084   3.176  0.1833  0.4513 -0.3193
 1697TIP3    H126650   2.385   0.146   3.102 -0.2171  0.2759 -0.4738
 1697TIP3    H226651   2.447   0.017   3.151  2.2437  1.8616  0.7897
 1698TIP3   OH226652   2.657   4.643   1.666 -0.3371 -0.1208 -0.1385
 1698TIP3    H126653   2.669   4.733   1.636 -2.1258  0.4071  0.6262
 1698TIP3    H226654   2.742   4.620   1.703  0.7054  0.5881 -1.9424
 1699TIP3   OH226655   1.313   6.699   2.498 -0.6259  0.3555  0.1681
 1699TIP3    H126656   1.317   6.622   2.554  0.6423  0.1340 -0.2023
 1699TIP3    H226657   1.280   6.768   2.555 -2.2531 -0.5493  0.3764
 1700TIP3   OH226658   6.068   6.068   2.628 -0.2173  0.2069 -0.2509
 1700TIP3    H126659   6.153   6.025   2.621  0.3674  1.2327  0.2451
 1700TIP3    H226660   6.086   6.160   2.609 -1.2330  0.4281 -0.2051
 1701TIP3   OH226661   0.922   0.257   2.338 -0.9938 -0.5791  0.4007
 1701TIP3    H126662   0.991   0.311   2.300 -1.4778 -0.7945 -0.8213
 1701TIP3    H226663   0.851   0.319   2.356 -0.7649 -0.4773  0.9832
 1702TIP3   OH226664   2.617   6.733   4.229  0.9050 -0.4444 -0.0997
 1702TIP3    H126665   2.538   6.729   4.176  0.3506 -0.0951  0.6813
 1702TIP3    H226666   2.689   6.719   4.167  0.1838 -1.7787 -0.6652
 1703TIP3   OH226667   3.587   4.455   0.235 -0.1289  0.4396 -0.2465
 1703TIP3    H126668   3.660   4.412   0.191  0.7297 -1.7000  2.9299
 1703TIP3    H226669   3.623   4.539   0.264  0.7965 -0.1413  0.3478
 1704TIP3   OH226670   2.232   3.355   3.509  0.3972  0.0443  0.1380
 1704TIP3    H126671   2.188   3.278   3.546 -2.1639  2.6506  3.0953
 1704TIP3    H226672   2.164   3.400   3.459  1.8331  0.4708 -1.5199
 1705TIP3   OH226673   2.247   2.553   1.095  0.2095  0.3754  0.1705
 1705TIP3    H126674   2.268   2.502   1.017  1.7550  0.7441  0.3053
 1705TIP3    H226675   2.249   2.490   1.166  1.1265  0.4294  0.2054
 1706TIP3   OH226676   3.305   1.308   4.698  0.1518 -0.0119 -0.1324
 1706TIP3    H126677   3.397   1.309   4.671  0.1830 -1.1240 -0.1117
 1706TIP3    H226678   3.261   1.255   4.632  0.3494 -3.4483  2.2082
 1707TIP3   OH226679   1.178   1.930   2.575  0.0931 -0.3595  0.4512
 1707TIP3    H126680   1.237   1.888   2.513  2.5975  1.1003  1.6902
 1707TIP3    H226681   1.219   1.917   2.660 -0.3981  2.2578  1.1684
 1708TIP3   OH226682   5.429   6.790   2.535 -0.0738 -0.5987  0.0799
 1708TIP3    H126683   5.397   6.716   2.588 -0.4345  0.5912  1.5940
 1708TIP3    H226684   5.385   6.780   2.451 -1.5266 -1.1041  0.8718
 1709TIP3   OH226685   2.704   4.977   3.976  0.0697 -0.1084 -0.4338
 1709TIP3    H126686   2.755   4.999   3.899  0.5000 -0.8290 -0.3633
 1709TIP3    H226687   2.753   4.907   4.019 -0.4643 -0.1267  0.1745
 1710TIP3   OH226688   1.824   1.508   0.752 -0.6863 -0.0619  0.3804
 1710TIP3    H126689   1.854   1.466   0.832  1.7594 -2.4575 -1.6094
 1710TIP3    H226690   1.775   1.439   0.706 -0.6764  0.7350 -0.8709
 1711TIP3   OH226691   3.281   0.492   1.274 -0.3927 -0.4774  0.1424
 1711TIP3    H126692   3.339   0.420   1.299  1.5639  0.6553 -0.9026
 1711TIP3    H226693   3.207   0.449   1.231 -0.8981 -2.0318  2.3876
 1712TIP3   OH226694   1.010   5.651   8.417  0.0715 -0.1693  0.5116
 1712TIP3    H126695   1.043   5.738   8.394 -1.7809  0.7220  1.0195
 1712TIP3    H226696   1.041   5.594   8.346 -0.3942  1.3095 -0.9414
 1713TIP3   OH226697   2.837   0.877   1.729 -0.4284  0.1131  0.1278
 1713TIP3    H126698   2.898   0.811   1.762 -0.1162  0.7344  0.8546
 1713TIP3    H226699   2.788   0.834   1.660 -0.5930 -1.0338  0.9368
 1714TIP3   OH226700   6.418   4.145   3.155 -0.6175  0.4930 -0.2748
 1714TIP3    H126701   6.447   4.202   3.083  2.9457 -0.4080  0.2925
 1714TIP3    H226702   6.377   4.205   3.217  0.4031  2.0190 -1.0053
 1715TIP3   OH226703   5.932   2.449   0.233  0.1118 -0.0963  0.0951
 1715TIP3    H126704   6.013   2.463   0.183  0.4545  1.0791  0.9268
 1715TIP3    H226705   5.862   2.472   0.172  0.3602 -1.3395 -0.7087
 1716TIP3   OH226706   5.325   2.460   4.394 -0.0945 -0.3326 -0.8842
 1716TIP3    H126707   5.419   2.457   4.411  1.0414  3.6317 -4.7490
 1716TIP3    H226708   5.287   2.489   4.477  2.3002 -0.1576  0.2441
 1717TIP3   OH226709   3.616   2.424   3.029 -0.6735 -0.4554  0.2446
 1717TIP3    H126710   3.543   2.477   3.062  0.2060  0.3200  1.0232
 1717TIP3    H226711   3.629   2.455   2.939  0.0821  0.9874  0.8125
 1718TIP3   OH226712   4.276   0.803   0.823  0.6522  0.6905  0.3263
 1718TIP3    H126713   4.300   0.770   0.736 -1.0720 -1.1006  0.4603
 1718TIP3    H226714   4.358   0.806   0.872  1.5498  1.1504 -1.1533
 1719TIP3   OH226715   4.933   4.408   1.506 -0.1299  0.2374  0.3786
 1719TIP3    H126716   4.956   4.467   1.578  0.6898 -0.2146  0.4947
 1719TIP3    H226717   4.926   4.465   1.430  0.6079  0.4999  0.5001
 1720TIP3   OH226718   5.313   4.552   2.258  0.6631  0.0707 -0.0762
 1720TIP3    H126719   5.285   4.485   2.195 -0.4070  0.9527 -0.5690
 1720TIP3    H226720   5.231   4.593   2.287  1.1511 -0.1429  1.7153
 1721TIP3   OH226721   6.793   3.845   1.280  0.1466 -0.2061 -0.4690
 1721TIP3    H126722   6.885   3.859   1.257  0.0578  0.9824 -0.1776
 1721TIP3    H226723   6.780   3.898   1.360 -0.9947  0.3363 -0.9801
 1722TIP3   OH226724   2.111   6.718   3.385  0.4408  0.7934  0.0856
 1722TIP3    H126725   2.155   6.755   3.309 -0.4226 -0.0409 -0.8442
 1722TIP3    H226726   2.021   6.703   3.356  0.5166 -1.1198  0.6976
 1723TIP3   OH226727   6.347   0.914   1.527 -0.3155  0.2649 -0.3268
 1723TIP3    H126728   6.438   0.936   1.545  0.1918 -1.2017 -0.9424
 1723TIP3    H226729   6.324   0.968   1.452  0.6202 -0.5820 -1.2604
 1724TIP3   OH226730   3.437   1.292   1.893  0.7805  0.2325  0.2410
 1724TIP3    H126731   3.441   1.340   1.810  3.1085  0.0587  0.1703
 1724TIP3    H226732   3.481   1.209   1.875  1.6151  0.3175  1.6962
 1725TIP3   OH226733   1.128   0.161   3.698 -0.2844  0.6886  0.5517
 1725TIP3    H126734   1.182   0.087   3.723  0.3280  1.1030  0.4815
 1725TIP3    H226735   1.188   0.236   3.698 -0.8689  1.1658  0.5253
 1726TIP3   OH226736   6.912   1.501   2.850 -0.5494  0.7635 -0.8885
 1726TIP3    H126737   6.859   1.422   2.858  0.9910 -0.2471 -0.1824
 1726TIP3    H226738   6.902   1.545   2.934  0.1776  0.2444 -0.5123
 1727TIP3   OH226739   5.105   3.419   2.580 -0.4946 -0.2928  0.3451
 1727TIP3    H126740   5.055   3.432   2.661 -0.5948 -1.7089  0.5425
 1727TIP3    H226741   5.048   3.455   2.512 -0.5568  0.6131  0.8550
 1728TIP3   OH226742   2.366   2.547   3.710 -0.2503 -0.4269  0.0524
 1728TIP3    H126743   2.347   2.507   3.795 -0.0629 -0.8833 -0.1153
 1728TIP3    H226744   2.457   2.526   3.693  0.0788  0.7213  0.2934
 1729TIP3   OH226745   2.135   5.633   2.583  0.9198 -0.0495 -0.3865
 1729TIP3    H126746   2.067   5.603   2.522 -0.2960 -0.1545  0.9617
 1729TIP3    H226747   2.103   5.606   2.669  2.3269  0.5708  0.3560
 1730TIP3   OH226748   1.946   3.887   3.387  0.1222  0.0684 -0.2484
 1730TIP3    H126749   1.893   3.808   3.378  0.3725 -0.2831  1.1159
 1730TIP3    H226750   1.973   3.887   3.479  2.6851  0.1404 -0.9375
 1731TIP3   OH226751   6.900   1.368   4.530  0.1443 -0.3737 -0.2584
 1731TIP3    H126752   6.920   1.335   4.617 -3.2188 -0.0165  0.7604
 1731TIP3    H226753   6.930   1.298   4.471 -0.1487 -1.9449  1.3578
 1732TIP3   OH226754   3.991   4.841   0.836  0.5760  0.2146  0.2882
 1732TIP3    H126755   4.054   4.907   0.866  1.1616 -0.6359  0.9641
 1732TIP3    H226756   4.038   4.791   0.770  0.1619  0.4060 -0.1573
 1733TIP3   OH226757   5.454   5.237   3.814 -0.1708  0.1979  0.1057
 1733TIP3    H126758   5.365   5.215   3.785 -0.3401  2.1381 -1.0695
 1733TIP3    H226759   5.485   5.159   3.859 -2.0571 -0.9361 -0.4461
 1734TIP3   OH226760   3.475   6.013   0.303  0.2393  0.1755  0.0715
 1734TIP3    H126761   3.484   6.106   0.325  0.1891  0.2056 -0.0332
 1734TIP3    H226762   3.479   6.011   0.207 -2.8777  0.4092 -0.1506
 1735TIP3   OH226763   0.168   4.115   2.715 -0.2625  0.1974  0.1838
 1735TIP3    H126764   0.175   4.038   2.772 -0.9486 -0.4238 -0.5488
 1735TIP3    H226765   0.223   4.181   2.757 -1.5406  0.1163  2.1513
 1736TIP3   OH226766   5.683   5.921   2.746 -0.4933 -0.2950 -0.3609
 1736TIP3    H126767   5.713   5.830   2.750 -0.4268 -0.2375  0.5615
 1736TIP3    H226768   5.632   5.933   2.826 -0.2138  0.5850 -0.3068
 1737TIP3   OH226769   1.409   1.286   2.923  0.7270  0.6332 -0.5229
 1737TIP3    H126770   1.364   1.356   2.971 -0.2659 -0.8368  0.8015
 1737TIP3    H226771   1.500   1.315   2.918  0.6174  1.4155  1.2136
 1738TIP3   OH226772   5.139   3.323   3.299  0.5929 -0.4879 -0.0968
 1738TIP3    H126773   5.060   3.307   3.351 -0.3580 -1.6742 -1.7747
 1738TIP3    H226774   5.199   3.254   3.326  0.3647 -0.6878 -0.0928
 1739TIP3   OH226775   6.052   2.739   3.676 -0.0571  0.2950 -0.1492
 1739TIP3    H126776   6.141   2.741   3.713 -0.3297  0.0595  0.5298
 1739TIP3    H226777   6.006   2.674   3.729  0.0587 -1.4525 -2.0992
 1740TIP3   OH226778   1.687   0.514   1.000 -0.3278 -0.2769  0.7509
 1740TIP3    H126779   1.716   0.596   0.960 -0.0437 -0.2067  1.1034
 1740TIP3    H226780   1.660   0.538   1.089  3.9868 -1.2320  2.5518
 1741TIP3   OH226781   0.254   0.193   3.167 -0.1478 -0.0704 -0.2127
 1741TIP3    H126782   0.288   0.110   3.135  1.7930  0.9674 -1.0462
 1741TIP3    H226783   0.170   0.204   3.123 -0.7878 -1.8758  0.4552
 1742TIP3   OH226784   6.304   2.467   1.359 -0.3381  0.0182  0.5260
 1742TIP3    H126785   6.228   2.416   1.330  0.0844  1.1848 -2.9966
 1742TIP3    H226786   6.283   2.490   1.450 -3.4937 -0.9706  0.1702
 1743TIP3   OH226787   2.441   0.436   0.921  0.1458  0.6880  0.3419
 1743TIP3    H126788   2.485   0.382   0.856 -1.7209  1.2934 -1.5218
 1743TIP3    H226789   2.464   0.526   0.897  0.3495  0.8796  1.2225
 1744TIP3   OH226790   1.999   1.366   1.006  0.2788  0.0087  0.1900
 1744TIP3    H126791   2.016   1.455   1.038 -1.7851  0.6308 -0.3142
 1744TIP3    H226792   2.053   1.358   0.927 -0.1635  1.1613 -0.2493
 1745TIP3   OH226793   0.856   5.569   0.642 -0.0115  0.0693 -1.0967
 1745TIP3    H126794   0.895   5.503   0.700 -1.9102 -0.4526 -0.3494
 1745TIP3    H226795   0.855   5.528   0.556 -1.2129 -0.9259 -0.6301
 1746TIP3   OH226796   6.349   0.817   2.585 -0.0856  0.5350 -0.0515
 1746TIP3    H126797   6.296   0.790   2.510  1.6894  1.3455 -1.6870
 1746TIP3    H226798   6.313   0.901   2.611  1.4059  1.9974 -2.3505
 1747TIP3   OH226799   6.708   2.359   3.187 -0.3166 -0.7466  0.7147
 1747TIP3    H126800   6.617   2.355   3.216  0.2163 -1.8185  2.3695
 1747TIP3    H226801   6.721   2.278   3.137 -0.2905 -0.5542  0.4083
 1748TIP3   OH226802   1.287   0.697   0.641 -0.1835  0.2436 -0.5332
 1748TIP3    H126803   1.309   0.630   0.576 -2.0789  1.9170 -3.0926
 1748TIP3    H226804   1.330   0.776   0.609 -1.7545  1.2707 -0.2271
 1749TIP3   OH226805   4.116   3.470   2.769 -0.2247 -0.3745 -0.7346
 1749TIP3    H126806   4.061   3.476   2.691  0.9322 -0.6207 -1.5951
 1749TIP3    H226807   4.106   3.379   2.798  0.3738 -0.6498 -1.3800
 1750TIP3   OH226808   5.743   2.446   3.154 -0.3510 -0.4196 -0.0043
 1750TIP3    H126809   5.803   2.400   3.213 -0.0592  0.4539  0.4023
 1750TIP3    H226810   5.657   2.408   3.172 -0.1439 -0.6669  0.4673
 1751TIP3   OH226811   1.425   5.016   1.439 -0.6486  0.4412 -0.3737
 1751TIP3    H126812   1.424   4.969   1.523  0.1511  0.6615 -0.2302
 1751TIP3    H226813   1.373   4.961   1.380  1.0687 -1.1639 -0.4828
 1752TIP3   OH226814   0.337   0.503   3.330 -0.3487 -0.4647  0.7671
 1752TIP3    H126815   0.350   0.506   3.425  0.5876  0.0016  0.6346
 1752TIP3    H226816   0.250   0.465   3.319 -1.1963  1.0611  1.8572
 1753TIP3   OH226817   6.425   6.472   8.191  0.3040 -0.3763  0.0428
 1753TIP3    H126818   6.438   6.532   8.117  1.1002 -1.5576 -0.8157
 1753TIP3    H226819   6.411   6.529   8.266  2.0799  0.9139 -0.5425
 1754TIP3   OH226820   5.185   4.577   1.954  0.5591 -0.0534 -0.1381
 1754TIP3    H126821   5.116   4.536   2.006 -0.5700  1.3456 -0.4782
 1754TIP3    H226822   5.249   4.507   1.940 -0.1331 -1.0324  1.3087
 1755TIP3   OH226823   4.150   6.361   1.588  0.3511  0.0645  0.6226
 1755TIP3    H126824   4.063   6.374   1.626  0.0698  1.6709 -0.4746
 1755TIP3    H226825   4.153   6.421   1.513  1.2980 -2.1064 -1.2024
 1756TIP3   OH226826   5.691   1.134   1.073 -0.2086 -0.2340 -0.0843
 1756TIP3    H126827   5.629   1.125   1.001  1.8769 -1.2746 -1.8618
 1756TIP3    H226828   5.697   1.046   1.111  0.6389 -0.3164 -0.3751
 1757TIP3   OH226829   6.933   5.459   1.093 -0.4279 -0.0438  0.2335
 1757TIP3    H126830   6.950   5.552   1.087 -0.3206 -0.1051 -0.4783
 1757TIP3    H226831   6.876   5.450   1.169  0.6718  0.4365  1.1382
 1758TIP3   OH226832   0.542   6.644   4.450  0.3648  0.4997 -0.3735
 1758TIP3    H126833   0.603   6.573   4.471  0.1164  0.4880  0.3278
 1758TIP3    H226834   0.464   6.600   4.416 -0.1707  0.3623  0.9832
 1759TIP3   OH226835   5.217   2.768   2.069 -0.7403  0.0331 -0.4768
 1759TIP3    H126836   5.213   2.712   2.147  0.4624 -1.0008 -1.1021
 1759TIP3    H226837   5.126   2.784   2.046 -1.1278 -1.2208  0.0709
 1760TIP3   OH226838   5.736   2.808   2.356 -0.2068 -0.5550  0.1463
 1760TIP3    H126839   5.659   2.834   2.406  0.2100  2.5984 -0.6192
 1760TIP3    H226840   5.793   2.765   2.420 -1.6192 -0.8696  1.2399
 1761TIP3   OH226841   4.810   0.910   1.784 -0.2672 -0.3296 -0.1725
 1761TIP3    H126842   4.790   0.959   1.704 -1.4874 -1.2570 -0.4658
 1761TIP3    H226843   4.863   0.836   1.753 -1.1555 -0.9649 -0.2266
 1762TIP3   OH226844   4.313   3.821   1.635 -0.0977 -0.1451 -0.1542
 1762TIP3    H126845   4.358   3.880   1.696  0.8164 -1.0606  0.0881
 1762TIP3    H226846   4.280   3.878   1.567  0.1251  0.7341  0.4562
 1763TIP3   OH226847   0.192   6.686   0.298 -0.8277  0.3189 -0.0458
 1763TIP3    H126848   0.270   6.634   0.317 -0.1138  1.6905  0.9664
 1763TIP3    H226849   0.212   6.729   0.214 -1.2390 -0.6805 -0.6647
 1764TIP3   OH226850   0.669   1.978   0.756  0.0351  0.3181  0.4084
 1764TIP3    H126851   0.602   1.921   0.716  1.2752 -2.1021  1.5464
 1764TIP3    H226852   0.714   2.017   0.681 -1.5990  0.7792 -0.3975
 1765TIP3   OH226853   5.470   4.128   2.758  0.4696  0.5851 -0.0454
 1765TIP3    H126854   5.480   4.192   2.828 -0.1851  0.0905  0.5119
 1765TIP3    H226855   5.377   4.131   2.735  0.9122  1.7209 -1.8501
 1766TIP3   OH226856   4.921   0.113   2.444  0.3051  0.0782 -0.5025
 1766TIP3    H126857   4.925   0.167   2.523 -1.7785  1.1261 -1.0110
 1766TIP3    H226858   4.997   0.056   2.449  1.0532  1.1531  1.4924
 1767TIP3   OH226859   4.442   3.419   1.706  0.0097  0.2546 -0.0472
 1767TIP3    H126860   4.420   3.326   1.715  0.5528  0.0781 -0.4654
 1767TIP3    H226861   4.459   3.448   1.796  2.1652 -0.6602 -0.0740
 1768TIP3   OH226862   5.036   6.757   3.936 -0.4755 -0.4919  0.3263
 1768TIP3    H126863   4.989   6.821   3.988 -1.0389 -0.3884 -0.3018
 1768TIP3    H226864   5.084   6.809   3.871  2.0761 -0.4292  2.1240
 1769TIP3   OH226865   4.173   6.205   0.783  0.1662  0.3420 -0.4800
 1769TIP3    H126866   4.145   6.294   0.802  0.3375  0.5069 -0.9654
 1769TIP3    H226867   4.096   6.164   0.743  0.8620  1.1143 -2.7971
 1770TIP3   OH226868   6.134   6.871   2.681 -0.2275 -0.7638  0.0612
 1770TIP3    H126869   6.083   6.946   2.713 -0.3510 -0.7954 -0.0622
 1770TIP3    H226870   6.209   6.910   2.636  0.3890 -0.7139  1.0801
 1771TIP3   OH226871   3.160   5.366   2.278  0.3324  0.2837 -0.5443
 1771TIP3    H126872   3.233   5.340   2.335  0.0415  0.3194 -0.1468
 1771TIP3    H226873   3.200   5.421   2.211  0.7537 -0.1376 -0.6405
 1772TIP3   OH226874   3.464   5.153   3.234 -0.6226  0.9483  0.8721
 1772TIP3    H126875   3.437   5.238   3.200  2.6436  1.6256 -0.3666
 1772TIP3    H226876   3.432   5.090   3.169 -0.3749  1.5601  0.1414
 1773TIP3   OH226877   3.763   5.734   1.850  0.4097  0.4988  0.6055
 1773TIP3    H126878   3.784   5.641   1.864  0.0702  0.0878 -1.2832
 1773TIP3    H226879   3.684   5.749   1.902 -0.8855 -0.9398 -0.8396
 1774TIP3   OH226880   6.437   5.435   2.590  0.8399  0.2302  0.2471
 1774TIP3    H126881   6.435   5.470   2.501 -1.7656  0.5670  0.3591
 1774TIP3    H226882   6.437   5.513   2.646  1.4450  0.0123  0.5617
 1775TIP3   OH226883   6.344   4.090   3.785 -0.1690 -0.6544 -0.7987
 1775TIP3    H126884   6.375   4.177   3.810  1.1648 -1.2765 -0.2108
 1775TIP3    H226885   6.390   4.070   3.704 -0.7269 -0.7004 -1.1151
 1776TIP3   OH226886   6.773   0.707   0.720  0.5767  0.3412 -0.3841
 1776TIP3    H126887   6.860   0.745   0.733  0.1672  1.5857 -1.1222
 1776TIP3    H226888   6.790   0.619   0.688  1.5605 -0.0238  1.0412
 1777TIP3   OH226889   6.513   5.628   0.611 -0.6699  0.1882  0.3815
 1777TIP3    H126890   6.470   5.548   0.581  2.7557 -1.1970 -1.3952
 1777TIP3    H226891   6.549   5.606   0.696 -0.0481 -0.0511  0.0600
 1778TIP3   OH226892   5.436   5.102   2.835 -0.8087 -0.0898 -0.9362
 1778TIP3    H126893   5.383   5.160   2.889 -1.4608 -0.2337 -1.4065
 1778TIP3    H226894   5.506   5.157   2.802  0.7206 -0.4051  1.5271
 1779TIP3   OH226895   5.714   5.756   2.048  0.1983 -0.0615  0.7151
 1779TIP3    H126896   5.711   5.818   1.975 -1.9392 -1.3341 -0.3875
 1779TIP3    H226897   5.640   5.781   2.103  0.7573 -0.1725  1.5192
 1780TIP3   OH226898   1.301   1.508   3.061 -0.3958 -0.4734 -0.2171
 1780TIP3    H126899   1.379   1.510   3.117  1.1098 -2.2396 -2.1270
 1780TIP3    H226900   1.267   1.598   3.065  1.1602  0.0995  1.4196
 1781TIP3   OH226901   2.394   1.541   8.147 -0.2687 -0.0149  0.1839
 1781TIP3    H126902   2.453   1.490   8.092  0.0904 -3.6521  3.4557
 1781TIP3    H226903   2.309   1.496   8.137 -1.2085  1.7948 -0.3669
 1782TIP3   OH226904   5.596   4.469   2.290  0.7487  0.5276 -0.4140
 1782TIP3    H126905   5.643   4.481   2.208  0.0617  1.1927 -0.7194
 1782TIP3    H226906   5.503   4.473   2.266  0.5357  0.4766  0.3581
 1783TIP3   OH226907   2.601   5.713   2.546 -0.8029  0.1490 -0.3753
 1783TIP3    H126908   2.658   5.790   2.546 -0.8942  0.2272  0.1602
 1783TIP3    H226909   2.657   5.641   2.520  0.1772 -0.2018  2.3643
 1784TIP3   OH226910   5.095   4.054   3.790 -0.0470 -0.7068 -0.5292
 1784TIP3    H126911   5.138   4.116   3.850 -2.1982  0.3417  0.0508
 1784TIP3    H226912   5.103   4.094   3.704  0.9071 -0.9923 -0.5864
 1785TIP3   OH226913   5.960   4.831   0.166 -0.1687  0.1918  0.0233
 1785TIP3    H126914   6.021   4.880   0.221  0.0290  1.3315 -1.1682
 1785TIP3    H226915   6.004   4.824   0.081 -1.3162  0.2576 -0.5966
 1786TIP3   OH226916   4.986   1.311   3.535  0.3858 -0.3119 -0.0860
 1786TIP3    H126917   4.898   1.283   3.509  0.5584 -1.9919  0.9765
 1786TIP3    H226918   4.971   1.371   3.608  0.1236 -1.0054  0.4362
 1787TIP3   OH226919   5.182   4.702   1.418 -0.2193 -0.1113  0.7452
 1787TIP3    H126920   5.223   4.712   1.504  2.6564  0.0377 -0.5389
 1787TIP3    H226921   5.147   4.613   1.418 -0.0687 -0.1894  1.9577
 1788TIP3   OH226922   2.198   3.441   0.529 -0.3107  0.7386  0.3838
 1788TIP3    H126923   2.258   3.486   0.589  2.2785  0.2086 -1.6161
 1788TIP3    H226924   2.111   3.469   0.557  0.9529  3.9743  1.5972
 1789TIP3   OH226925   0.134   2.274   1.742 -0.7409 -0.2144  0.0081
 1789TIP3    H126926   0.129   2.241   1.832 -1.2136  0.5291  0.2615
 1789TIP3    H226927   0.057   2.235   1.699 -0.5829 -0.4715 -0.0437
 1790TIP3   OH226928   3.140   4.660   4.095 -0.7503 -0.3661 -0.2711
 1790TIP3    H126929   3.085   4.720   4.046 -1.5896 -0.7229  0.2102
 1790TIP3    H226930   3.117   4.676   4.187  0.0080 -0.4664 -0.0527
 1791TIP3   OH226931   6.153   2.035   3.010  0.4027  0.1446  0.5030
 1791TIP3    H126932   6.173   1.988   2.929  0.1784  1.0169 -0.0694
 1791TIP3    H226933   6.089   2.102   2.984 -0.3424 -0.1336  1.5747
 1792TIP3   OH226934   4.221   4.361   3.820  0.2337 -0.2305 -0.1745
 1792TIP3    H126935   4.160   4.393   3.753 -1.2059  1.2196  1.7240
 1792TIP3    H226936   4.174   4.287   3.860  0.6453 -0.4372 -0.0719
 1793TIP3   OH226937   3.501   0.226   1.011 -0.5401  0.0222 -0.6006
 1793TIP3    H126938   3.523   0.245   0.920 -1.3439 -2.0903 -1.3056
 1793TIP3    H226939   3.415   0.264   1.024  0.7337  2.8452  0.2340
 1794TIP3   OH226940   4.382   3.439   1.980  0.4808 -0.0007  0.0422
 1794TIP3    H126941   4.334   3.364   2.016  0.3331  0.7590  1.4993
 1794TIP3    H226942   4.381   3.504   2.051  0.2452  1.5471 -1.3319
 1795TIP3   OH226943   4.836   3.995   0.775 -0.0161 -0.1792 -0.6663
 1795TIP3    H126944   4.806   3.968   0.689 -2.3344  0.6817 -0.2117
 1795TIP3    H226945   4.756   4.021   0.821  1.0968 -1.0072  1.8996
 1796TIP3   OH226946   5.357   3.696   1.473 -0.3291 -0.3787 -0.4535
 1796TIP3    H126947   5.370   3.685   1.567  0.2483  0.2152 -0.4568
 1796TIP3    H226948   5.297   3.625   1.449 -1.4546  0.1754  0.5797
 1797TIP3   OH226949   4.665   4.321   1.042 -0.0587  0.5447 -0.1958
 1797TIP3    H126950   4.681   4.401   1.092  1.6581 -0.2238  0.5495
 1797TIP3    H226951   4.752   4.292   1.014 -0.6305 -1.0942 -0.4040
 1798TIP3   OH226952   3.302   2.774   1.291 -0.5584  0.2345  0.8870
 1798TIP3    H126953   3.253   2.847   1.254  3.3977  1.8431 -1.9703
 1798TIP3    H226954   3.348   2.811   1.366 -0.3687  0.0288  0.8739
 1799TIP3   OH226955   6.060   2.060   1.332 -0.5970 -0.8695  0.1123
 1799TIP3    H126956   6.008   1.985   1.306 -1.2183 -0.8554  1.2411
 1799TIP3    H226957   6.040   2.073   1.425 -1.5071  1.4699 -0.3315
 1800TIP3   OH226958   4.663   3.742   1.400 -0.0131 -0.1758  0.4886
 1800TIP3    H126959   4.608   3.672   1.436  0.5231 -1.3971 -0.9457
 1800TIP3    H226960   4.642   3.743   1.307 -1.8046  3.2909  0.7916
 1801TIP3   OH226961   5.929   4.930   1.925  0.2479  0.0830 -0.0691
 1801TIP3    H126962   6.009   4.979   1.907 -0.2101  0.2888 -1.7037
 1801TIP3    H226963   5.859   4.991   1.902 -0.3763 -0.4385  0.4087
 1802TIP3   OH226964   1.037   6.608   2.937 -0.0198  1.1822 -0.9123
 1802TIP3    H126965   0.971   6.577   3.000  1.2354  0.8463  0.2796
 1802TIP3    H226966   1.023   6.554   2.860 -0.1570  0.0365 -0.1158
 1803TIP3   OH226967   1.946   0.685   2.130 -0.1476  0.0409 -0.1243
 1803TIP3    H126968   1.897   0.611   2.095  0.1249 -0.6109  0.8380
 1803TIP3    H226969   2.038   0.660   2.121 -0.0544  0.2557  0.1985
 1804TIP3   OH226970   5.643   5.507   0.592  0.4874 -0.1000  0.0637
 1804TIP3    H126971   5.705   5.575   0.616 -0.5672  0.7555  0.4546
 1804TIP3    H226972   5.673   5.475   0.507  0.9132  0.9643 -0.1959
 1805TIP3   OH226973   6.825   4.971   0.339  0.1056 -0.3557  0.6092
 1805TIP3    H126974   6.745   4.919   0.333  0.6878 -1.2743  0.6800
 1805TIP3    H226975   6.833   5.014   0.254  0.2714 -1.3615  0.1007
 1806TIP3   OH226976   5.324   0.622   2.921  0.1644 -0.0845 -0.6418
 1806TIP3    H126977   5.316   0.616   2.826  2.7902 -0.9340 -0.9008
 1806TIP3    H226978   5.354   0.535   2.947 -0.4242  0.1721  0.9830
 1807TIP3   OH226979   5.385   3.698   1.746  0.0187  0.0325 -0.3313
 1807TIP3    H126980   5.462   3.750   1.772 -0.8996  0.9584  0.6353
 1807TIP3    H226981   5.384   3.624   1.807 -0.2195  0.3726  0.0808
 1808TIP3   OH226982   1.048   5.202   1.564  0.3804  0.3286  0.0505
 1808TIP3    H126983   1.088   5.284   1.596 -1.3581  0.7178  1.3695
 1808TIP3    H226984   1.084   5.134   1.621 -0.5355  0.6412  1.0469
 1809TIP3   OH226985   5.955   4.824   3.882  0.1250 -0.2434 -0.3496
 1809TIP3    H126986   5.954   4.910   3.841  0.5386 -1.0509 -2.2075
 1809TIP3    H226987   5.863   4.804   3.899  0.0954  0.9044  0.9126
 1810TIP3   OH226988   4.820   6.133   2.312  0.1796 -0.3289  0.4945
 1810TIP3    H126989   4.870   6.172   2.385 -0.4466  0.7322  0.3888
 1810TIP3    H226990   4.733   6.175   2.318 -0.1235 -0.8039 -0.3950
 1811TIP3   OH226991   4.758   2.752   1.891 -0.0848  0.3831 -0.0964
 1811TIP3    H126992   4.769   2.818   1.823  0.8734  1.4355  1.0415
 1811TIP3    H226993   4.809   2.677   1.859 -0.9234  0.2735 -1.2420
 1812TIP3   OH226994   2.817   4.340   0.827 -0.5829  0.4821  0.1575
 1812TIP3    H126995   2.825   4.247   0.850  0.9761  0.6551  0.4718
 1812TIP3    H226996   2.896   4.380   0.865  0.7369  1.2654 -3.0630
 1813TIP3   OH226997   0.846   3.254   3.217 -0.4332  0.5106 -0.3804
 1813TIP3    H126998   0.928   3.265   3.264 -1.0712  0.2126  0.8775
 1813TIP3    H226999   0.848   3.164   3.185 -0.7404  0.1136  0.6642
 1814TIP3   OH227000   4.108   6.414   0.214  0.5508 -0.1468  0.2136
 1814TIP3    H127001   4.123   6.440   0.305 -0.4437  0.9467  0.0918
 1814TIP3    H227002   4.098   6.496   0.166 -0.9482 -0.7153 -0.5161
 1815TIP3   OH227003   5.344   5.715   2.258 -0.0459  0.1376  0.0055
 1815TIP3    H127004   5.255   5.709   2.294  0.5279 -1.8264  1.2745
 1815TIP3    H227005   5.354   5.635   2.207  1.7063 -0.8412  1.7455
 1816TIP3   OH227006   2.364   0.505   3.954 -0.0802 -0.1593  0.7762
 1816TIP3    H127007   2.460   0.501   3.952 -0.1036 -0.3005 -1.1912
 1816TIP3    H227008   2.341   0.463   4.037  1.5436 -0.1669  1.2685
 1817TIP3   OH227009   6.517   4.954   4.303 -0.4019  0.1434 -0.3541
 1817TIP3    H127010   6.469   4.990   4.229 -1.7213 -0.1699  0.3128
 1817TIP3    H227011   6.587   5.017   4.320 -0.6166  0.6555 -1.3149
 1818TIP3   OH227012   5.290   3.258   1.770  0.0876  0.0809 -0.0996
 1818TIP3    H127013   5.198   3.282   1.759  0.0658  0.5800  1.1050
 1818TIP3    H227014   5.288   3.163   1.782 -0.1699 -0.0392 -0.9730
 1819TIP3   OH227015   5.691   3.752   3.073 -0.3322  0.4505  0.1797
 1819TIP3    H127016   5.709   3.802   3.153 -1.2127 -0.2652  0.8523
 1819TIP3    H227017   5.616   3.797   3.034 -0.6300  0.1163  0.3685
 1820TIP3   OH227018   2.943   2.111   1.955 -0.4203 -0.6884 -0.0883
 1820TIP3    H127019   2.960   2.173   2.026  1.3154 -1.1587 -0.0509
 1820TIP3    H227020   3.030   2.087   1.923 -1.1506 -0.5281 -2.3665
 1821TIP3   OH227021   4.964   1.426   1.209  0.4429  0.3658  0.1683
 1821TIP3    H127022   4.967   1.519   1.232 -0.8026  0.1275  1.3995
 1821TIP3    H227023   4.871   1.403   1.215  0.4164 -0.4568 -2.2697
 1822TIP3   OH227024   6.687   6.364   3.241  0.1011 -0.6684 -0.2353
 1822TIP3    H127025   6.635   6.313   3.303  0.2367 -1.3380 -0.6632
 1822TIP3    H227026   6.759   6.399   3.294 -1.6974  1.7766  0.7681
 1823TIP3   OH227027   3.199   4.276   3.628  0.0183 -0.2257  0.0166
 1823TIP3    H127028   3.263   4.205   3.636  0.2324  0.0644  1.1047
 1823TIP3    H227029   3.165   4.287   3.717  0.2618  1.3025 -0.0547
 1824TIP3   OH227030   0.471   6.609   3.684 -0.3524 -0.3722  0.8761
 1824TIP3    H127031   0.412   6.534   3.672  1.1266 -1.3926 -0.3656
 1824TIP3    H227032   0.533   6.581   3.751  0.7600 -0.6557 -0.2340
 1825TIP3   OH227033   0.759   0.745   2.875 -0.3236  0.2943 -0.3441
 1825TIP3    H127034   0.684   0.690   2.854  0.9410 -1.3372 -0.7444
 1825TIP3    H227035   0.805   0.699   2.945  0.2508  1.3465  0.0064
 1826TIP3   OH227036   2.745   0.508   1.669  0.3963 -0.3174  0.0006
 1826TIP3    H127037   2.770   0.474   1.755  0.3545 -2.2603 -0.6931
 1826TIP3    H227038   2.712   0.431   1.623  0.8148  0.6005 -1.9064
 1827TIP3   OH227039   1.215   3.909   3.339  0.6175 -0.3155 -0.1288
 1827TIP3    H127040   1.252   3.850   3.274  0.7670 -0.9864  0.5512
 1827TIP3    H227041   1.279   3.979   3.348  1.4839 -1.1735  0.6254
 1828TIP3   OH227042   3.154   1.887   0.714  0.0677 -0.4223  0.0345
 1828TIP3    H127043   3.114   1.968   0.746  0.9841 -0.7934  2.3305
 1828TIP3    H227044   3.170   1.903   0.621 -3.3254  0.5354 -0.5277
 1829TIP3   OH227045   2.709   6.717   3.941 -0.1756 -0.1690 -0.1578
 1829TIP3    H127046   2.724   6.626   3.964 -1.7761 -1.1766 -2.7097
 1829TIP3    H227047   2.713   6.719   3.846 -3.7068  1.6479 -0.4308
 1830TIP3   OH227048   4.017   3.419   2.197 -0.0472  0.6780 -0.1369
 1830TIP3    H127049   3.962   3.471   2.139 -1.4811  2.2174  2.4079
 1830TIP3    H227050   4.100   3.466   2.201 -0.7181  1.8205  0.7454
 1831TIP3   OH227051   4.974   5.604   3.101 -0.3084  0.4934  0.0166
 1831TIP3    H127052   4.933   5.584   3.017 -0.3656 -2.1454  0.6001
 1831TIP3    H227053   4.946   5.534   3.159  3.3872 -0.3687  1.0036
 1832TIP3   OH227054   2.790   1.155   2.464  0.0135  0.1711 -0.1268
 1832TIP3    H127055   2.714   1.103   2.488 -0.1468  0.2096 -0.5543
 1832TIP3    H227056   2.769   1.244   2.491 -0.6823  0.4535 -1.5046
 1833TIP3   OH227057   0.636   3.122   1.042 -0.4399  0.4479  0.3117
 1833TIP3    H127058   0.678   3.037   1.029 -2.2980 -0.2308 -1.9115
 1833TIP3    H227059   0.561   3.105   1.099 -0.1843  0.8337  0.7765
 1834TIP3   OH227060   0.250   4.948   1.355 -0.6596  0.4905  0.2672
 1834TIP3    H127061   0.218   5.033   1.385 -1.1559  0.7310 -0.8883
 1834TIP3    H227062   0.227   4.945   1.262  0.3641 -0.4306  0.0175
 1835TIP3   OH227063   1.801   6.409   0.077 -0.1655 -0.0274  0.2188
 1835TIP3    H127064   1.825   6.342   0.013  2.3634  0.4625  0.5178
 1835TIP3    H227065   1.798   6.490   0.026 -0.1134  0.0685  0.3664
 1836TIP3   OH227066   5.275   2.463   0.209  0.2271 -0.9563  0.1947
 1836TIP3    H127067   5.292   2.514   0.130 -0.4305  1.0718  1.2913
 1836TIP3    H227068   5.358   2.420   0.228  0.9562  0.0864 -0.5286
 1837TIP3   OH227069   6.041   0.593   2.512  0.3336  0.2426  0.3986
 1837TIP3    H127070   6.044   0.678   2.555 -0.6874  0.6827 -0.3677
 1837TIP3    H227071   5.953   0.560   2.530 -0.3744  0.7309 -1.8736
 1838TIP3   OH227072   1.755   2.497   0.438 -0.0228 -0.1702  0.7005
 1838TIP3    H127073   1.734   2.490   0.345 -0.1662  0.3354  0.6899
 1838TIP3    H227074   1.843   2.461   0.445  0.1603  0.1884  0.2952
 1839TIP3   OH227075   4.522   6.216   1.610  0.1464  0.5602 -0.3850
 1839TIP3    H127076   4.613   6.196   1.586  0.2167  1.1205 -0.6020
 1839TIP3    H227077   4.485   6.132   1.637 -0.1171 -0.2287 -2.9753
 1840TIP3   OH227078   6.749   0.088   4.543 -0.5415  0.5773  0.2775
 1840TIP3    H127079   6.743   0.027   4.617 -1.6883 -0.2558 -0.4650
 1840TIP3    H227080   6.660   0.123   4.534  0.0413  2.1918  0.5297
 1841TIP3   OH227081   2.303   2.169   0.787  0.2067  0.2380 -0.5899
 1841TIP3    H127082   2.382   2.170   0.733  1.2661 -3.0987  0.6848
 1841TIP3    H227083   2.237   2.126   0.733  0.3700 -0.3636 -0.3097
 1842TIP3   OH227084   1.222   4.357   1.119 -0.1201  0.1160  0.5574
 1842TIP3    H127085   1.168   4.419   1.071 -1.7803  0.3272  2.5848
 1842TIP3    H227086   1.289   4.411   1.161  0.4839  0.0928 -0.3458
 1843TIP3   OH227087   6.032   3.132   4.236  0.0842 -0.0160 -0.4108
 1843TIP3    H127088   6.092   3.123   4.311  2.6761 -1.2302 -2.4514
 1843TIP3    H227089   6.019   3.226   4.228  0.4637  0.1917  1.0323
 1844TIP3   OH227090   0.610   3.935   1.146  0.2680  0.6504  0.1538
 1844TIP3    H127091   0.575   3.915   1.233  0.1519 -0.2343 -0.0875
 1844TIP3    H227092   0.705   3.924   1.155  0.1176 -1.5077 -0.3178
 1845TIP3   OH227093   1.975   5.370   3.299  0.3358  0.0006 -0.5233
 1845TIP3    H127094   1.949   5.289   3.256  0.3036 -0.3499  0.1484
 1845TIP3    H227095   1.953   5.357   3.391  1.6817  0.1922 -0.1465
 1846TIP3   OH227096   6.018   5.274   0.215  1.0511  0.0381  0.5022
 1846TIP3    H127097   6.060   5.353   0.181  1.6001 -0.6545 -0.4916
 1846TIP3    H227098   6.039   5.206   0.150 -1.0751 -0.4811  0.2689
 1847TIP3   OH227099   1.154   6.410   3.976 -0.0816  0.3278  0.1625
 1847TIP3    H127100   1.169   6.497   3.939  0.6094 -0.1409 -0.6808
 1847TIP3    H227101   1.182   6.349   3.908 -4.3906 -0.6960 -1.0254
 1848TIP3   OH227102   3.556   6.705   2.625  0.2919 -0.0757 -0.3298
 1848TIP3    H127103   3.545   6.641   2.696 -0.9623  2.0089  1.4406
 1848TIP3    H227104   3.594   6.782   2.667  0.5468  0.8590 -2.1593
 1849TIP3   OH227105   3.712   1.784   2.400  0.1594 -0.3333 -0.6326
 1849TIP3    H127106   3.723   1.725   2.325  0.1296 -0.9959 -0.1305
 1849TIP3    H227107   3.624   1.766   2.433 -0.4104  1.0440 -1.3380
 1850TIP3   OH227108   0.692   0.085   1.624 -0.1177  0.0578  0.4151
 1850TIP3    H127109   0.718  -0.006   1.640  0.5327  0.2237  0.3579
 1850TIP3    H227110   0.634   0.081   1.548 -1.3702 -0.4788  1.3757
 1851TIP3   OH227111   1.816   1.220   0.808 -0.2052  0.2803 -0.0510
 1851TIP3    H127112   1.787   1.132   0.833 -0.0745  0.0091 -0.8088
 1851TIP3    H227113   1.756   1.279   0.852  0.1205 -0.1604  1.0277
 1852TIP3   OH227114   2.154   2.489   2.609 -0.1512 -0.6512  0.5060
 1852TIP3    H127115   2.066   2.456   2.588  0.1898 -2.1294  1.2456
 1852TIP3    H227116   2.213   2.438   2.553  0.3288 -0.5903  0.9482
 1853TIP3   OH227117   6.383   4.679   2.895 -0.4815  0.2145  1.0830
 1853TIP3    H127118   6.446   4.666   2.965 -0.0861 -1.7564  0.4090
 1853TIP3    H227119   6.304   4.633   2.924 -0.5374 -0.0540  0.5279
 1854TIP3   OH227120   0.961   4.432   2.042 -0.3038 -0.0760  0.7451
 1854TIP3    H127121   0.879   4.474   2.014 -0.7669 -1.4697 -0.0611
 1854TIP3    H227122   0.980   4.472   2.127 -1.3630  0.8770  0.5653
 1855TIP3   OH227123   0.444   2.270   4.447 -0.1475 -0.0571 -0.0703
 1855TIP3    H127124   0.460   2.359   4.415 -1.9489  1.5849  3.0313
 1855TIP3    H227125   0.372   2.238   4.393  0.0250  0.6948 -0.7682
 1856TIP3   OH227126   1.389   2.068   3.265  0.2213 -0.2078 -0.0089
 1856TIP3    H127127   1.435   2.001   3.317  1.0260  0.9482  0.8224
 1856TIP3    H227128   1.452   2.139   3.256 -0.1268 -0.0995 -2.0820
 1857TIP3   OH227129   5.452   4.824   0.646  0.3999  0.1320  0.5283
 1857TIP3    H127130   5.489   4.886   0.583  1.1365  0.0112  0.8297
 1857TIP3    H227131   5.464   4.738   0.605 -0.6223  0.1735  0.1093
 1858TIP3   OH227132   1.230   0.551   1.434 -0.0300  0.6265  0.0137
 1858TIP3    H127133   1.292   0.534   1.362 -0.6320  0.7407 -0.5425
 1858TIP3    H227134   1.281   0.603   1.497  0.8825 -0.5437  0.2749
 1859TIP3   OH227135   4.565   4.109   1.646  0.3530 -0.1983  0.0428
 1859TIP3    H127136   4.621   4.187   1.649 -0.4749  0.3930  0.9633
 1859TIP3    H227137   4.488   4.133   1.698 -0.3248 -1.3259 -0.4020
 1860TIP3   OH227138   5.724   3.869   0.229  0.1029  0.0234  0.3599
 1860TIP3    H127139   5.718   3.955   0.270  1.1104  0.6304 -0.7249
 1860TIP3    H227140   5.815   3.842   0.243  0.6123  0.4430 -1.7644
 1861TIP3   OH227141   4.173   0.471   0.675 -0.1465  0.2420 -0.3539
 1861TIP3    H127142   4.203   0.391   0.717 -1.7825  0.8161  2.0988
 1861TIP3    H227143   4.080   0.457   0.659  0.0887  0.6921 -2.3817
 1862TIP3   OH227144   5.813   6.096   2.549 -0.1958  0.2888 -0.0029
 1862TIP3    H127145   5.906   6.090   2.569  0.3693 -2.1672 -2.7259
 1862TIP3    H227146   5.770   6.041   2.616  0.6701 -0.8665 -0.3636
 1863TIP3   OH227147   4.658   4.614   1.661  0.6111 -0.1227 -0.0210
 1863TIP3    H127148   4.659   4.705   1.692 -1.7671 -0.1265  0.2882
 1863TIP3    H227149   4.605   4.617   1.581  0.1367 -1.2796  0.2289
 1864TIP3   OH227150   5.706   1.871   2.420 -0.6026  0.2290  0.8814
 1864TIP3    H127151   5.640   1.868   2.350 -0.5794  2.7990  0.6315
 1864TIP3    H227152   5.779   1.919   2.381 -0.0131  0.4431  2.2207
 1865TIP3   OH227153   4.443   1.984   2.140 -0.6844 -0.3632  0.4375
 1865TIP3    H127154   4.370   2.033   2.103 -0.7989 -0.4606  0.5335
 1865TIP3    H227155   4.409   1.950   2.223 -0.5743 -0.5262  0.4151
 1866TIP3   OH227156   1.080   3.213   3.046  0.4817 -0.0164 -0.2045
 1866TIP3    H127157   1.022   3.282   3.078  0.8881  0.4209 -0.3979
 1866TIP3    H227158   1.066   3.140   3.106  0.0095  0.2170 -0.0285
 1867TIP3   OH227159   0.762   1.776   3.870 -0.0074  0.0939  0.0453
 1867TIP3    H127160   0.752   1.843   3.938 -0.5082 -0.1090  0.1760
 1867TIP3    H227161   0.837   1.724   3.899 -0.6469 -0.4164  0.8117
 1868TIP3   OH227162   0.156   0.319   3.609  0.2135 -0.8346 -0.3853
 1868TIP3    H127163   0.102   0.397   3.619 -1.2091 -1.5036 -2.1970
 1868TIP3    H227164   0.244   0.352   3.590  0.0337  0.2841  0.6580
 1869TIP3   OH227165   5.821   0.297   0.958 -0.2759 -0.2228  0.2661
 1869TIP3    H127166   5.860   0.360   1.018 -1.4023  0.1388  0.6502
 1869TIP3    H227167   5.893   0.271   0.900  0.4889  0.4988  0.8642
 1870TIP3   OH227168   4.311   2.279   3.975 -0.6732 -0.1585 -0.0768
 1870TIP3    H127169   4.349   2.192   3.983  1.3221  0.8027  1.9751
 1870TIP3    H227170   4.308   2.296   3.881  0.7742 -1.6525 -0.4310
 1871TIP3   OH227171   2.817   3.999   8.411 -0.1006 -0.0248 -0.4066
 1871TIP3    H127172   2.743   4.050   8.377 -0.2457 -0.5980 -0.9626
 1871TIP3    H227173   2.858   4.057   8.476 -0.9730  0.3374 -0.1595
 1872TIP3   OH227174   6.882   5.227   1.201 -0.1022 -0.0629 -0.0828
 1872TIP3    H127175   6.834   5.152   1.166 -2.0291  1.0310  0.0969
 1872TIP3    H227176   6.905   5.278   1.124 -0.8310  0.3140 -0.0612
 1873TIP3   OH227177   4.545   1.795   2.676  0.2498  0.7354 -0.2727
 1873TIP3    H127178   4.630   1.838   2.666  0.1517  0.9020 -0.3937
 1873TIP3    H227179   4.539   1.735   2.602  0.4480  0.4060 -0.0261
 1874TIP3   OH227180   0.648   2.870   0.161  0.7229 -0.5809 -0.3031
 1874TIP3    H127181   0.675   2.887   0.071  1.6126 -0.6444 -0.0640
 1874TIP3    H227182   0.681   2.946   0.210  0.9221 -0.9138  0.0840
 1875TIP3   OH227183   5.801   5.619   3.430  0.3512  0.1214  0.3266
 1875TIP3    H127184   5.738   5.601   3.360  1.0991  1.7914 -0.8349
 1875TIP3    H227185   5.810   5.714   3.430  3.3875 -0.0686 -0.0469
 1876TIP3   OH227186   1.619   5.114   0.703 -0.0460 -0.0083 -0.0292
 1876TIP3    H127187   1.688   5.175   0.675  0.8502 -0.6668  0.6711
 1876TIP3    H227188   1.537   5.161   0.687  0.4560  0.0922 -2.6355
 1877TIP3   OH227189   3.607   4.149   2.565 -0.4423 -0.6771  0.2556
 1877TIP3    H127190   3.678   4.133   2.628 -0.6328  1.9700  1.2781
 1877TIP3    H227191   3.528   4.147   2.618 -0.7536  0.0380 -0.1661
 1878TIP3   OH227192   4.201   5.076   2.287  0.6424  0.1899  0.4159
 1878TIP3    H127193   4.166   5.158   2.322 -0.3915 -0.4408  0.8803
 1878TIP3    H227194   4.132   5.012   2.300  0.8889 -0.4697 -1.2147
 1879TIP3   OH227195   5.420   0.589   3.606  0.7797 -0.7700  0.0317
 1879TIP3    H127196   5.437   0.671   3.651 -0.4362 -1.2441  1.4388
 1879TIP3    H227197   5.352   0.546   3.659  0.1835 -1.9244 -1.5770
 1880TIP3   OH227198   2.783   6.852   4.407 -0.4232 -0.2456 -0.6601
 1880TIP3    H127199   2.744   6.817   4.327  0.1235 -0.6515 -0.7519
 1880TIP3    H227200   2.776   6.781   4.471  1.4772 -0.8802 -1.0973
 1881TIP3   OH227201   1.507   4.408   2.911  0.3646  0.7884  0.1665
 1881TIP3    H127202   1.440   4.432   2.975 -0.2709  0.6747 -0.4476
 1881TIP3    H227203   1.583   4.384   2.964 -0.8475 -1.5145  1.0018
 1882TIP3   OH227204   2.409   3.870   4.235  0.1536 -0.0647 -0.0289
 1882TIP3    H127205   2.326   3.844   4.276  1.1701 -1.1897  1.4348
 1882TIP3    H227206   2.425   3.958   4.269 -0.5963  0.2995 -0.5933
 1883TIP3   OH227207   4.968   3.706   0.632  0.0609  0.3422  0.0144
 1883TIP3    H127208   4.967   3.763   0.555 -0.1176 -0.0081 -0.2465
 1883TIP3    H227209   4.928   3.624   0.601 -1.2143  0.6383  0.8141
 1884TIP3   OH227210   2.415   5.432   0.954  0.0837  0.1223  0.4483
 1884TIP3    H127211   2.505   5.432   0.986 -0.4201  0.6036  1.9330
 1884TIP3    H227212   2.375   5.356   0.996  0.0974 -0.8051 -1.1553
 1885TIP3   OH227213   1.575   6.201   1.693  0.2890  0.2093 -0.0746
 1885TIP3    H127214   1.505   6.235   1.748 -0.1134  0.9084 -0.9796
 1885TIP3    H227215   1.591   6.271   1.629  0.6979 -0.5956 -0.8797
 1886TIP3   OH227216   5.449   1.669   3.068  0.2473 -0.0128  0.0820
 1886TIP3    H127217   5.451   1.737   3.135 -1.2628 -0.3310  0.4771
 1886TIP3    H227218   5.414   1.713   2.991 -1.5808 -0.5088  0.5874
 1887TIP3   OH227219   1.309   0.838   3.177  0.1826  0.5993  0.4163
 1887TIP3    H127220   1.234   0.851   3.119  1.9714  0.7560 -2.0103
 1887TIP3    H227221   1.366   0.913   3.160  1.3305  0.0209  1.5176
 1888TIP3   OH227222   5.897   2.290   3.316  0.0571  0.4425  0.3606
 1888TIP3    H127223   5.984   2.250   3.320  0.0097  0.0335 -1.6179
 1888TIP3    H227224   5.836   2.218   3.330 -0.0371 -0.4546 -3.4514
 1889TIP3   OH227225   2.465   3.262   1.545  0.0900 -0.7694 -0.2306
 1889TIP3    H127226   2.437   3.249   1.636 -0.4473  2.6866  0.2168
 1889TIP3    H227227   2.560   3.262   1.549  0.0701 -0.6002  0.3533
 1890TIP3   OH227228   0.734   0.175   7.958  0.1224  0.0776  0.3917
 1890TIP3    H127229   0.654   0.182   8.009 -0.4176 -0.2523 -0.3965
 1890TIP3    H227230   0.779   0.099   7.994 -0.4698 -0.4223  0.0965
 1891TIP3   OH227231   6.598   3.015   1.882 -0.4821 -0.0631 -0.9723
 1891TIP3    H127232   6.651   3.042   1.807  0.1888  0.4571 -0.3207
 1891TIP3    H227233   6.622   2.924   1.897  1.1627  0.5094  0.0719
 1892TIP3   OH227234   2.966   2.371   2.986 -0.7530  0.1004  0.1397
 1892TIP3    H127235   2.942   2.279   2.973 -0.0180 -0.1442  0.4141
 1892TIP3    H227236   3.019   2.370   3.066  1.2256  0.3806 -1.0899
 1893TIP3   OH227237   2.506   3.926   0.762 -0.2164  0.2917 -0.3761
 1893TIP3    H127238   2.441   3.995   0.743  0.6919  1.0350 -0.8689
 1893TIP3    H227239   2.486   3.857   0.699 -2.5270 -0.9229  1.5018
 1894TIP3   OH227240   2.750   4.911   1.664 -0.1967  0.2622  0.0780
 1894TIP3    H127241   2.756   4.966   1.586  0.7711 -0.2149 -0.1885
 1894TIP3    H227242   2.806   4.954   1.729  0.7496 -0.5053 -0.2032
 1895TIP3   OH227243   3.299   3.770   3.938 -0.0841 -0.4461 -0.3803
 1895TIP3    H127244   3.390   3.801   3.944 -0.0759 -0.0059 -2.0456
 1895TIP3    H227245   3.298   3.714   3.860 -0.3222 -4.0790  2.0047
 1896TIP3   OH227246   1.072   2.373   2.564  0.5002  0.0495  0.0063
 1896TIP3    H127247   1.114   2.294   2.530 -0.5796 -0.6475  0.2623
 1896TIP3    H227248   1.038   2.417   2.487  0.5571 -0.0509 -0.0771
 1897TIP3   OH227249   6.818   1.907   2.650 -0.0570 -0.5986 -0.1292
 1897TIP3    H127250   6.761   1.829   2.651 -1.0941  0.1373  1.1088
 1897TIP3    H227251   6.778   1.964   2.585 -0.8085 -0.0550  0.7858
 1898TIP3   OH227252   1.016   5.805   1.937  0.5779  0.3516 -0.7317
 1898TIP3    H127253   1.104   5.773   1.959  1.3542  2.6342 -0.2428
 1898TIP3    H227254   0.973   5.817   2.022 -0.1221 -0.4022 -0.9580
 1899TIP3   OH227255   1.281   5.777   0.105  0.0702 -0.1604  0.2654
 1899TIP3    H127256   1.270   5.756   0.013  1.5876 -0.3436  0.0913
 1899TIP3    H227257   1.212   5.840   0.124 -1.2000 -1.2475 -0.5871
 1900TIP3   OH227258   2.891   3.134   2.779 -0.0400 -0.0292  0.5967
 1900TIP3    H127259   2.805   3.148   2.820  0.1187 -0.6463  1.1556
 1900TIP3    H227260   2.951   3.190   2.828 -0.0009 -0.1197  0.6521
 1901TIP3   OH227261   0.366   3.648   1.249  0.6587 -0.0768 -0.4101
 1901TIP3    H127262   0.453   3.647   1.289  0.4665  0.4520  0.0373
 1901TIP3    H227263   0.368   3.577   1.185  0.9192 -1.0784  0.6821
 1902TIP3   OH227264   3.707   4.692   2.029  0.2283  0.1402 -0.2573
 1902TIP3    H127265   3.745   4.699   2.116 -0.8317 -3.3705  0.6504
 1902TIP3    H227266   3.612   4.690   2.044  0.0473 -1.1948 -1.3662
 1903TIP3   OH227267   4.684   4.343   1.652  0.1412 -0.0357 -0.7022
 1903TIP3    H127268   4.657   4.418   1.705  1.4999 -0.0152  0.0046
 1903TIP3    H227269   4.748   4.379   1.590  0.3390 -0.5005 -0.7729
 1904TIP3   OH227270   4.184   5.698   3.934  0.7176 -0.4174  0.7895
 1904TIP3    H127271   4.108   5.664   3.887  1.5915 -0.6376 -0.5119
 1904TIP3    H227272   4.212   5.773   3.882  0.7579  0.3355  1.8586
 1905TIP3   OH227273   6.878   5.428   0.829  0.3853 -0.2680  0.5229
 1905TIP3    H127274   6.846   5.339   0.814 -0.7670  0.1239  0.5822
 1905TIP3    H227275   6.927   5.423   0.910 -0.3758 -0.6874  0.9654
 1906TIP3   OH227276   3.316   3.677   3.516 -0.3161  0.2447  1.0656
 1906TIP3    H127277   3.355   3.589   3.516  2.1902  1.2146 -1.0791
 1906TIP3    H227278   3.357   3.722   3.590 -0.6669  0.0123  1.4087
 1907TIP3   OH227279   3.281   5.575   2.135 -0.1462  0.4848  0.2107
 1907TIP3    H127280   3.252   5.652   2.184 -0.4308  0.7316 -0.3364
 1907TIP3    H227281   3.369   5.557   2.169 -0.9247 -0.2990  1.9206
 1908TIP3   OH227282   1.086   0.197   8.380  0.0097 -0.3635 -0.6108
 1908TIP3    H127283   1.048   0.123   8.333  1.9502 -1.4441 -0.6013
 1908TIP3    H227284   1.071   0.177   8.473 -1.2304  0.2955 -0.6511
 1909TIP3   OH227285   4.894   5.015   0.947 -0.0111 -0.2481 -0.2046
 1909TIP3    H127286   4.926   5.050   0.864 -2.9218  1.7451 -0.6378
 1909TIP3    H227287   4.833   4.947   0.922  1.0356 -1.4721  0.4584
 1910TIP3   OH227288   6.845   6.500   2.422  0.4247  0.4729 -0.4484
 1910TIP3    H127289   6.829   6.414   2.462 -1.5446  0.9375 -0.1291
 1910TIP3    H227290   6.940   6.504   2.410  0.5545 -1.7751 -0.5418
 1911TIP3   OH227291   1.993   5.855   1.601  0.1937  0.0772 -0.2050
 1911TIP3    H127292   2.036   5.769   1.603 -0.5681 -0.2972  0.8300
 1911TIP3    H227293   1.923   5.845   1.537  1.2338  0.5118 -1.4607
 1912TIP3   OH227294   5.283   3.740   2.019  0.3922 -0.1173 -0.1691
 1912TIP3    H127295   5.204   3.725   2.070 -0.6672  1.3379 -1.3043
 1912TIP3    H227296   5.259   3.718   1.929 -0.4252  4.7690 -1.4741
 1913TIP3   OH227297   3.913   3.128   3.898  0.2836  0.3713 -0.2964
 1913TIP3    H127298   3.919   3.046   3.945  1.2186 -0.0869 -1.1842
 1913TIP3    H227299   3.934   3.195   3.963  2.2287 -0.2924 -0.1889
 1914TIP3   OH227300   6.578   0.212   0.468  0.1215  0.1399 -0.0085
 1914TIP3    H127301   6.537   0.167   0.393  0.3126 -0.2446  0.1148
 1914TIP3    H227302   6.597   0.300   0.435  0.1423 -0.0044 -0.3909
 1915TIP3   OH227303   0.568   2.607   0.735  0.6611 -0.3071 -0.0121
 1915TIP3    H127304   0.601   2.543   0.671  1.7351 -0.9385  1.1224
 1915TIP3    H227305   0.630   2.680   0.729 -0.6609  0.7701 -1.4293
 1916TIP3   OH227306   1.377   1.711   1.145 -0.2231  0.4996 -0.1146
 1916TIP3    H127307   1.407   1.646   1.081 -0.3877  0.1755  0.1366
 1916TIP3    H227308   1.455   1.728   1.199 -0.2407  0.3376 -0.0364
 1917TIP3   OH227309   1.722   5.162   1.475 -0.1828  0.3345  0.0841
 1917TIP3    H127310   1.642   5.119   1.445 -0.3909  1.0747 -0.4481
 1917TIP3    H227311   1.692   5.218   1.547 -0.0441  0.2026  0.2461
 1918TIP3   OH227312   5.033   6.409   1.377  0.0021  0.5129  0.0867
 1918TIP3    H127313   5.123   6.420   1.346  0.0111  0.2102  0.0055
 1918TIP3    H227314   5.042   6.387   1.470  0.0189  0.3231  0.0405
 1919TIP3   OH227315   6.929   5.203   2.875  0.0270 -0.0132 -0.4292
 1919TIP3    H127316   6.890   5.129   2.922 -0.6382  0.7663  0.3020
 1919TIP3    H227317   7.014   5.215   2.916  0.3287 -0.6459 -0.8566
 1920TIP3   OH227318   6.212   4.856   3.693  0.1998 -0.1622 -0.3080
 1920TIP3    H127319   6.159   4.901   3.628 -0.3625 -1.2544 -0.6356
 1920TIP3    H227320   6.148   4.821   3.755  0.3991 -2.3208 -1.2293
 1921TIP3   OH227321   1.499   1.447   0.349 -0.1069 -0.2600  0.1644
 1921TIP3    H127322   1.472   1.432   0.259 -0.1521  0.5094  0.0498
 1921TIP3    H227323   1.506   1.359   0.386  0.8648 -0.6389 -0.8615
 1922TIP3   OH227324   2.225   2.308   3.143 -0.3697  0.2265  0.3367
 1922TIP3    H127325   2.200   2.398   3.163 -0.9462  0.4174 -1.1342
 1922TIP3    H227326   2.178   2.288   3.062 -1.9702 -2.1271  1.7259
 1923TIP3   OH227327   3.693   5.853   4.098  0.4332 -0.5318 -0.0623
 1923TIP3    H127328   3.613   5.906   4.097  0.0437 -1.1066 -0.5467
 1923TIP3    H227329   3.662   5.763   4.110  0.9059 -0.8992 -1.4217
 1924TIP3   OH227330   4.266   1.413   1.706 -0.2542  0.1476 -0.3561
 1924TIP3    H127331   4.271   1.354   1.781  1.5959 -1.1998 -1.4376
 1924TIP3    H227332   4.317   1.368   1.638 -0.1672  2.2658 -1.7620
 1925TIP3   OH227333   0.431   3.966   3.353  0.5461  0.2947 -0.2459
 1925TIP3    H127334   0.501   4.003   3.299  0.2568  1.1490 -0.0484
 1925TIP3    H227335   0.382   4.042   3.385  0.8570 -0.1717  1.4259
 1926TIP3   OH227336   0.327   3.621   1.940 -0.2211  0.1245 -0.3442
 1926TIP3    H127337   0.367   3.708   1.944  0.4101 -0.0818 -1.6241
 1926TIP3    H227338   0.290   3.616   1.852  0.8192 -1.3394 -0.7423
 1927TIP3   OH227339   0.326   4.001   2.287  0.4639 -0.2599 -0.1210
 1927TIP3    H127340   0.287   3.937   2.227 -2.4737 -1.9623  3.1760
 1927TIP3    H227341   0.251   4.042   2.330  2.3689  1.9187  1.3724
 1928TIP3   OH227342   2.382   3.266   0.742  0.1140 -0.5003  0.5379
 1928TIP3    H127343   2.305   3.211   0.755 -0.1667 -0.4283 -0.6682
 1928TIP3    H227344   2.352   3.355   0.758 -0.8485 -0.1415 -2.6102
 1929TIP3   OH227345   3.319   5.860   2.969 -0.6323  0.1709  0.1808
 1929TIP3    H127346   3.367   5.810   3.035 -0.5512 -0.6119 -0.4622
 1929TIP3    H227347   3.268   5.923   3.020  2.0617  1.9788  0.8446
 1930TIP3   OH227348   5.477   4.843   2.739 -0.2288 -0.4358 -0.9632
 1930TIP3    H127349   5.459   4.937   2.739 -1.1118 -0.5800 -2.3366
 1930TIP3    H227350   5.550   4.832   2.678  2.0516 -0.3380  1.5431
 1931TIP3   OH227351   6.211   4.556   2.607  0.1522 -0.4855  0.6696
 1931TIP3    H127352   6.280   4.591   2.551 -0.3558 -0.4904  0.0328
 1931TIP3    H227353   6.247   4.474   2.641 -0.9366 -2.5773 -2.7596
 1932TIP3   OH227354   5.727   4.062   2.772  0.0880 -0.0293  0.3780
 1932TIP3    H127355   5.632   4.073   2.763 -0.0500 -0.2084  1.5030
 1932TIP3    H227356   5.756   4.035   2.685 -0.8271  0.4656 -0.0976
 1933TIP3   OH227357   4.079   5.087   1.471 -0.0293 -0.1129  0.1986
 1933TIP3    H127358   4.165   5.113   1.503  0.0848 -0.8742  0.5302
 1933TIP3    H227359   4.020   5.153   1.507  0.4779  0.7213 -0.4794
 1934TIP3   OH227360   3.981   1.030   1.995  0.2055 -0.0043  0.1892
 1934TIP3    H127361   3.891   0.998   1.995  0.6863 -1.4662  1.7058
 1934TIP3    H227362   4.006   1.032   2.087  1.6978  0.5177 -0.1975
 1935TIP3   OH227363   5.833   4.541   3.331  0.0972  0.0720 -0.4306
 1935TIP3    H127364   5.904   4.530   3.268  0.1264 -0.2856 -0.3377
 1935TIP3    H227365   5.878   4.568   3.412  0.0771  0.3499 -0.5129
 1936TIP3   OH227366   1.205   4.803   3.039  0.1273  0.2402 -0.3604
 1936TIP3    H127367   1.133   4.740   3.030  0.3771 -0.0766 -0.1546
 1936TIP3    H227368   1.175   4.880   2.991 -0.3610  0.1196 -0.2572
 1937TIP3   OH227369   1.918   1.605   4.208 -0.7282  0.0367  0.1734
 1937TIP3    H127370   1.967   1.670   4.158  1.9734 -0.4162  2.0036
 1937TIP3    H227371   1.852   1.657   4.255 -0.1267  1.1366 -0.1501
 1938TIP3   OH227372   2.900   3.941   0.213 -0.3297 -0.4678  0.3795
 1938TIP3    H127373   2.932   3.874   0.152  1.8261  0.3680  0.5139
 1938TIP3    H227374   2.926   4.024   0.173  0.2493  0.1321  1.9293
 1939TIP3   OH227375   4.082   1.392   2.087 -0.0446  0.5420  0.5683
 1939TIP3    H127376   4.137   1.326   2.045 -0.3063  0.3559  0.5148
 1939TIP3    H227377   3.998   1.385   2.043  0.4393  2.1551 -0.6942
 1940TIP3   OH227378   4.737   6.875   0.511 -0.3746 -0.2204 -0.3265
 1940TIP3    H127379   4.743   6.786   0.477  0.4265 -0.6897  0.9862
 1940TIP3    H227380   4.744   6.931   0.434  0.7786 -1.2584 -1.0092
 1941TIP3   OH227381   2.403   2.318   3.917  0.1894  0.1233 -0.2599
 1941TIP3    H127382   2.338   2.288   3.980  0.3214  1.6692  0.6377
 1941TIP3    H227383   2.439   2.237   3.880 -0.0830 -0.8128  1.4413
 1942TIP3   OH227384   0.951   5.402   1.715  0.3951 -0.3733 -0.4463
 1942TIP3    H127385   0.890   5.337   1.678 -0.8211  0.3442  0.2388
 1942TIP3    H227386   0.948   5.475   1.654 -0.4297  0.1814  0.2379
 1943TIP3   OH227387   1.743   1.794   0.404 -0.6892 -0.5051 -0.1592
 1943TIP3    H127388   1.653   1.762   0.398 -1.0513  0.3764  0.3188
 1943TIP3    H227389   1.795   1.731   0.355 -1.5722 -1.0204 -0.4453
 1944TIP3   OH227390   0.135   0.605   3.021 -0.0141 -0.1204 -0.4215
 1944TIP3    H127391   0.049   0.625   3.058  0.2465 -1.6214  1.1854
 1944TIP3    H227392   0.116   0.545   2.948 -0.3984  0.7900 -1.0851
 1945TIP3   OH227393   0.227   6.199   0.770  0.6692  0.6075  0.4321
 1945TIP3    H127394   0.316   6.192   0.735  0.9342  0.0527  1.1944
 1945TIP3    H227395   0.232   6.271   0.832  1.0376 -0.5277  1.7625
 1946TIP3   OH227396   0.246   5.767   2.227 -0.2836  1.0155  0.3643
 1946TIP3    H127397   0.235   5.681   2.186 -0.6698  1.0746  0.3356
 1946TIP3    H227398   0.199   5.760   2.310  0.9076  0.7400  1.0316
 1947TIP3   OH227399   1.682   1.120   3.783  0.9657  0.4666 -0.7229
 1947TIP3    H127400   1.624   1.148   3.712 -0.6527  0.3347  0.4959
 1947TIP3    H227401   1.656   1.030   3.800  0.4701  0.8808  0.8424
 1948TIP3   OH227402   1.950   5.867   1.903  0.5827  0.1189 -0.4862
 1948TIP3    H127403   1.858   5.890   1.902  0.2373 -1.1035 -2.4957
 1948TIP3    H227404   1.974   5.856   1.811  1.5739 -3.7706  0.0172
 1949TIP3   OH227405   3.368   5.169   0.567 -0.2230 -0.3810  0.0122
 1949TIP3    H127406   3.323   5.127   0.494 -1.1761  1.5128 -0.5647
 1949TIP3    H227407   3.343   5.117   0.644  0.1476 -1.9209 -0.8806
 1950TIP3   OH227408   1.335   3.777   1.113  0.0606  0.1507 -0.2284
 1950TIP3    H127409   1.423   3.756   1.143  0.5707  1.6279 -0.5953
 1950TIP3    H227410   1.280   3.708   1.150  1.5673 -1.7669 -1.3691
 1951TIP3   OH227411   2.305   4.504   0.638 -0.7530 -0.2105  0.1461
 1951TIP3    H127412   2.369   4.567   0.605 -0.8899 -0.1212  0.0546
 1951TIP3    H227413   2.352   4.458   0.708  0.1717 -1.6566 -1.3463
 1952TIP3   OH227414   4.118   2.709   4.162 -0.3393 -0.5819 -0.0533
 1952TIP3    H127415   4.140   2.734   4.072 -0.7787  0.7289  0.1834
 1952TIP3    H227416   4.152   2.780   4.216 -0.5895 -1.0704  0.7697
 1953TIP3   OH227417   1.069   2.325   3.667  0.0368 -0.3408 -0.1852
 1953TIP3    H127418   1.078   2.251   3.727 -1.6343 -1.3188 -1.0484
 1953TIP3    H227419   1.152   2.328   3.619  0.7381 -0.6085  0.9823
 1954TIP3   OH227420   1.281   6.509   7.820  0.0077 -0.3922 -0.2097
 1954TIP3    H127421   1.220   6.580   7.797  2.0411  0.9599 -1.7188
 1954TIP3    H227422   1.263   6.492   7.912 -1.8084  0.7995 -0.2796
 1955TIP3   OH227423   2.987   2.922   0.839  0.1451  0.4493  0.2365
 1955TIP3    H127424   2.957   2.931   0.749 -0.3146 -3.6949 -0.2245
 1955TIP3    H227425   3.081   2.943   0.835  0.0205  0.8455 -1.0533
 1956TIP3   OH227426   2.864   0.037   2.899 -0.2481  0.1675  0.9316
 1956TIP3    H127427   2.860   0.055   2.806 -0.2445  0.7337  1.0384
 1956TIP3    H227428   2.957   0.047   2.922  0.0251 -1.4883  0.7093
 1957TIP3   OH227429   1.978   4.788   2.756 -0.3103  0.1920 -0.2171
 1957TIP3    H127430   1.941   4.755   2.674  1.9673  0.2290 -1.3229
 1957TIP3    H227431   2.022   4.870   2.731  2.8463 -1.1865  0.3696
 1958TIP3   OH227432   3.272   3.484   8.138  0.6339 -0.4267 -0.0270
 1958TIP3    H127433   3.321   3.559   8.107 -0.7372  0.4651 -0.1401
 1958TIP3    H227434   3.337   3.428   8.181  1.7069  0.7181 -0.1181
 1959TIP3   OH227435   5.815   0.465   2.570 -0.0387  0.8936  0.1907
 1959TIP3    H127436   5.750   0.430   2.509  1.5311  0.3549 -1.2875
 1959TIP3    H227437   5.798   0.420   2.653 -0.2602 -0.8181 -0.7340
 1960TIP3   OH227438   5.508   6.856   1.667 -0.8031 -0.2586 -0.1834
 1960TIP3    H127439   5.464   6.913   1.730 -0.8054 -0.4132 -0.0437
 1960TIP3    H227440   5.489   6.895   1.582 -0.1113  0.4126 -0.0345
 1961TIP3   OH227441   5.702   1.021   3.062 -0.1158  0.4513 -0.2263
 1961TIP3    H127442   5.761   0.960   3.106 -1.8473  0.8918  3.0013
 1961TIP3    H227443   5.692   0.986   2.974  0.6141 -2.7146  0.8274
 1962TIP3   OH227444   4.619   3.224   0.632 -0.3722 -0.2120 -0.3836
 1962TIP3    H127445   4.696   3.247   0.580 -0.7693  1.5729 -0.2563
 1962TIP3    H227446   4.654   3.189   0.714  0.3286  0.9048 -0.1863
 1963TIP3   OH227447   4.197   2.443   0.596  0.8288 -0.3625 -0.0324
 1963TIP3    H127448   4.191   2.438   0.500 -1.1986  1.4299 -0.0818
 1963TIP3    H227449   4.286   2.472   0.613  1.1993 -0.6342 -1.3833
 1964TIP3   OH227450   4.113   1.631   1.809  0.4017  0.3688  0.5999
 1964TIP3    H127451   4.110   1.537   1.789 -1.7209  0.1824  1.5648
 1964TIP3    H227452   4.172   1.638   1.884  0.4024 -0.2131  0.6553
 1965TIP3   OH227453   2.613   1.491   3.688  0.3351 -0.0709 -0.7417
 1965TIP3    H127454   2.633   1.556   3.621  0.9457 -2.5127 -3.0952
 1965TIP3    H227455   2.580   1.542   3.762  1.4911  2.9292 -2.1356
 1966TIP3   OH227456   6.208   5.406   3.347  0.7607 -0.0893 -0.0955
 1966TIP3    H127457   6.268   5.341   3.382 -1.3737 -2.6575 -0.8762
 1966TIP3    H227458   6.262   5.460   3.289  2.1696 -3.2294 -1.9987
 1967TIP3   OH227459   1.662   0.013   1.677  0.0507  0.0131  0.1961
 1967TIP3    H127460   1.712  -0.051   1.626 -0.0948 -0.1823  0.2975
 1967TIP3    H227461   1.628   0.074   1.612  0.3950  0.1293  0.1236
 1968TIP3   OH227462   2.023   1.424   1.566 -0.0032 -0.5023  0.0175
 1968TIP3    H127463   1.984   1.364   1.502 -1.6806  1.0878 -0.5509
 1968TIP3    H227464   1.981   1.401   1.649 -2.7117  1.4602 -0.6592
 1969TIP3   OH227465   0.181   6.934   0.781 -0.3861 -0.0203 -0.2734
 1969TIP3    H127466   0.254   6.971   0.732 -0.3438  0.7169  0.3257
 1969TIP3    H227467   0.149   6.863   0.726 -0.2433  0.6768 -1.2884
 1970TIP3   OH227468   6.243   1.696   1.294 -0.1338 -0.2076 -0.4148
 1970TIP3    H127469   6.317   1.668   1.349 -0.8702 -1.9146 -0.2176
 1970TIP3    H227470   6.261   1.658   1.208 -0.6106 -0.3630 -0.4510
 1971TIP3   OH227471   4.520   5.307   3.232  0.2946  0.0064  0.0318
 1971TIP3    H127472   4.478   5.367   3.292  2.2817  0.8249  0.6599
 1971TIP3    H227473   4.465   5.310   3.153 -0.2359  1.8080  0.4308
 1972TIP3   OH227474   3.141   4.551   1.881 -0.3229 -0.6548 -0.3134
 1972TIP3    H127475   3.218   4.560   1.825 -0.5251  1.9290 -0.3212
 1972TIP3    H227476   3.110   4.641   1.894 -2.3950 -1.4696  1.0223
 1973TIP3   OH227477   0.157   3.531   2.422 -0.0984 -0.4154 -0.0805
 1973TIP3    H127478   0.146   3.562   2.332 -0.8944  0.0671  0.1688
 1973TIP3    H227479   0.173   3.610   2.473 -1.3414 -0.4748  0.4444
 1974TIP3   OH227480   2.222   2.773   2.995  0.4622 -0.2241 -0.3245
 1974TIP3    H127481   2.133   2.779   2.960  1.0942 -0.7677 -2.0833
 1974TIP3    H227482   2.222   2.690   3.044 -0.4171  0.5344  1.0301
 1975TIP3   OH227483   2.662   1.964   2.352  0.3704  0.1964 -0.2546
 1975TIP3    H127484   2.689   1.876   2.380  1.4381  1.3839  2.8572
 1975TIP3    H227485   2.727   2.022   2.391  0.2365  2.3793 -2.9938
 1976TIP3   OH227486   0.838   2.787   1.209 -0.5192 -0.0882 -0.0949
 1976TIP3    H127487   0.824   2.810   1.117 -1.5285 -0.6674 -0.0960
 1976TIP3    H227488   0.765   2.829   1.255 -0.7342 -0.8534  0.2730
 1977TIP3   OH227489   3.694   2.902   1.004 -0.2441  0.1240 -0.4928
 1977TIP3    H127490   3.666   2.812   1.018 -1.6589  0.4790 -0.8812
 1977TIP3    H227491   3.629   2.955   1.050  0.4012  0.9601 -0.5200
 1978TIP3   OH227492   6.782   5.604   2.439  0.5522  0.8352  0.2114
 1978TIP3    H127493   6.844   5.537   2.410  2.8627  3.2482 -0.7764
 1978TIP3    H227494   6.735   5.629   2.360 -0.3698  0.3669  0.5952
 1979TIP3   OH227495   1.344   4.178   0.869 -0.0232 -0.3286  0.4970
 1979TIP3    H127496   1.251   4.195   0.880  0.6980  3.5391  2.2304
 1979TIP3    H227497   1.373   4.147   0.954  0.5276  0.1618  0.4969
 1980TIP3   OH227498   0.629   2.359   3.331  0.2082  0.5010 -0.1943
 1980TIP3    H127499   0.660   2.298   3.399  0.4843 -0.2140 -0.9438
 1980TIP3    H227500   0.669   2.327   3.250 -0.4483  1.0932 -0.7659
 1981TIP3   OH227501   3.476   3.750   0.807  0.4465 -0.2454 -0.1705
 1981TIP3    H127502   3.490   3.837   0.769 -0.0005 -0.1498 -0.1237
 1981TIP3    H227503   3.562   3.723   0.838  0.6311  0.0850 -0.3913
 1982TIP3   OH227504   1.256   6.645   1.298 -0.2912  0.0607  0.3809
 1982TIP3    H127505   1.243   6.720   1.241  2.2205 -0.2516 -0.7457
 1982TIP3    H227506   1.346   6.652   1.328 -0.9642 -0.8076  2.8876
 1983TIP3   OH227507   2.472   4.130   3.229  0.4284  0.2092 -0.6350
 1983TIP3    H127508   2.563   4.104   3.222  0.5218  0.3390 -0.0309
 1983TIP3    H227509   2.462   4.201   3.166  0.6671  0.0049 -0.9069
 1984TIP3   OH227510   5.456   6.299   0.739 -0.3841 -0.3445 -0.0378
 1984TIP3    H127511   5.543   6.260   0.736 -0.3853 -0.3057 -1.1149
 1984TIP3    H227512   5.447   6.332   0.828  0.4744 -0.8607  0.2526
 1985TIP3   OH227513   1.718   5.393   1.932 -0.3533  0.5253 -0.6907
 1985TIP3    H127514   1.643   5.353   1.977 -0.4559 -1.2299 -2.2954
 1985TIP3    H227515   1.785   5.403   2.000 -1.1217 -0.3239  0.2224
 1986TIP3   OH227516   3.834   5.788   3.459 -0.0572 -0.1467 -0.0071
 1986TIP3    H127517   3.841   5.728   3.384 -0.2023  0.7609 -0.7623
 1986TIP3    H227518   3.741   5.791   3.479 -0.2458  1.0226 -0.9815
 1987TIP3   OH227519   3.468   5.044   3.465  0.2933  0.1944  0.4114
 1987TIP3    H127520   3.466   5.120   3.407 -1.3142  0.7881  1.1934
 1987TIP3    H227521   3.438   4.972   3.410 -1.7903  0.8598  0.5837
 1988TIP3   OH227522   4.401   2.696   3.042 -0.0857  0.6047  0.2272
 1988TIP3    H127523   4.347   2.617   3.043 -1.0102  1.2239  1.2232
 1988TIP3    H227524   4.456   2.688   3.120  0.0524  0.7931  0.1496
 1989TIP3   OH227525   2.786   0.356   1.901  0.7600  0.5049  0.3412
 1989TIP3    H127526   2.712   0.323   1.852  1.0763  0.7668 -0.3248
 1989TIP3    H227527   2.833   0.278   1.930 -0.1993  0.3158  1.4585
 1990TIP3   OH227528   5.136   2.613   2.269  0.3121  0.1389 -0.2935
 1990TIP3    H127529   5.043   2.632   2.279 -0.0081 -1.2931 -0.2787
 1990TIP3    H227530   5.175   2.641   2.351 -0.0213  1.1567 -0.4679
 1991TIP3   OH227531   0.330   2.882   2.176 -0.2993  0.0087 -0.6667
 1991TIP3    H127532   0.425   2.880   2.191 -0.4437  0.0301  0.2830
 1991TIP3    H227533   0.293   2.828   2.245 -1.1250  1.6449  0.2419
 1992TIP3   OH227534   4.852   1.503   2.446 -0.3300  0.1647  0.0561
 1992TIP3    H127535   4.885   1.428   2.397  0.5765 -0.6590  1.8335
 1992TIP3    H227536   4.757   1.487   2.454 -0.3921  0.0199 -0.8918
 1993TIP3   OH227537   5.812   1.233   4.130  0.2347  0.5102 -0.2815
 1993TIP3    H127538   5.826   1.286   4.209  1.8295 -0.1434 -0.0951
 1993TIP3    H227539   5.900   1.215   4.098 -0.3562 -0.4231 -1.4307
 1994TIP3   OH227540   4.344   0.515   3.342 -0.3934 -0.2755 -0.3301
 1994TIP3    H127541   4.304   0.576   3.280 -0.5101  0.8705  0.8290
 1994TIP3    H227542   4.438   0.524   3.326 -0.4399 -0.3479 -0.6613
 1995TIP3   OH227543   5.192   0.910   3.625  0.2796  0.6930 -0.0378
 1995TIP3    H127544   5.282   0.902   3.657 -0.5848  0.7242  2.6276
 1995TIP3    H227545   5.142   0.846   3.675 -1.4815  1.8748 -0.1690
 1996TIP3   OH227546   6.068   0.253   1.503  0.2210  0.4354  0.0532
 1996TIP3    H127547   6.111   0.246   1.418 -0.5452 -0.8740 -0.2469
 1996TIP3    H227548   6.066   0.347   1.521  0.0556  0.7736 -1.5607
 1997TIP3   OH227549   2.787   4.833   4.364 -0.5540  0.0042 -0.3461
 1997TIP3    H127550   2.810   4.791   4.446 -3.5215 -0.7805  0.2045
 1997TIP3    H227551   2.842   4.911   4.360  1.6872 -1.3931  0.9277
 1998TIP3   OH227552   6.950   6.648   1.687  0.1885  0.4041 -0.0518
 1998TIP3    H127553   6.977   6.727   1.734  3.2625 -0.6985  0.2717
 1998TIP3    H227554   6.932   6.679   1.598  1.1036  1.5460  0.1310
 1999TIP3   OH227555   3.612   3.609   2.149 -0.5332  0.3606 -0.3537
 1999TIP3    H127556   3.652   3.638   2.231  0.7474  1.0210 -1.1886
 1999TIP3    H227557   3.534   3.664   2.140 -2.6532 -1.9927  2.0702
 2000TIP3   OH227558   0.106   2.303   1.469  0.7243  0.2133 -0.1561
 2000TIP3    H127559   0.159   2.326   1.392  1.4781  0.6047  0.4589
 2000TIP3    H227560   0.171   2.284   1.537  0.0800 -1.1974  0.0884
 2001TIP3   OH227561   4.912   3.220   3.460 -0.5193 -0.6309  0.2220
 2001TIP3    H127562   4.887   3.279   3.530 -0.0675 -0.2744  0.0890
 2001TIP3    H227563   4.953   3.146   3.505  0.2141 -0.1782  0.3165
 2002TIP3   OH227564   4.680   6.242   3.095  0.2801  0.2538 -0.0446
 2002TIP3    H127565   4.616   6.219   3.028  1.8270  2.2305 -2.3426
 2002TIP3    H227566   4.737   6.165   3.101  0.5253  0.3074 -1.5264
 2003TIP3   OH227567   4.624   5.041   7.981  0.4567 -0.3119 -0.2575
 2003TIP3    H127568   4.642   4.980   8.053 -0.0676 -0.7264 -0.4740
 2003TIP3    H227569   4.534   5.022   7.955  0.7000 -0.2861 -1.1495
 2004TIP3   OH227570   5.877   2.560   2.946  0.3180 -0.2716 -0.2049
 2004TIP3    H127571   5.967   2.544   2.974  0.5793 -0.5580 -1.1792
 2004TIP3    H227572   5.824   2.526   3.018  0.9471 -2.2437 -0.6161
 2005TIP3   OH227573   6.149   5.856   3.743 -0.1891 -0.0028 -0.3635
 2005TIP3    H127574   6.151   5.780   3.685  1.2818 -0.6618  0.4809
 2005TIP3    H227575   6.240   5.866   3.772 -0.5654  1.3796  0.4560
 2006TIP3   OH227576   3.220   3.412   3.124  0.0414  0.0861  0.2328
 2006TIP3    H127577   3.264   3.328   3.134  0.2674  0.3444  1.6028
 2006TIP3    H227578   3.179   3.407   3.038  0.4060 -1.2551  0.1103
 2007TIP3   OH227579   4.417   4.783   1.888  0.0372 -0.0980 -0.0834
 2007TIP3    H127580   4.424   4.838   1.967 -0.5913 -0.1604  0.0147
 2007TIP3    H227581   4.465   4.703   1.911 -0.9887 -0.5360  0.6128
 2008TIP3   OH227582   4.096   3.739   0.635  0.1258  0.2077 -0.4852
 2008TIP3    H127583   4.080   3.678   0.707  0.4456  2.0938  1.2716
 2008TIP3    H227584   4.111   3.824   0.678 -1.4726  1.8123 -2.8537
 2009TIP3   OH227585   6.224   3.564   3.323  0.9615  0.1846  0.1089
 2009TIP3    H127586   6.315   3.574   3.351  0.7981 -0.7340  1.0173
 2009TIP3    H227587   6.222   3.480   3.277  0.7950  0.7438 -0.9543
 2010TIP3   OH227588   1.645   5.964   4.559  0.0500  0.1333 -0.3864
 2010TIP3    H127589   1.567   5.909   4.565  0.4501 -0.3735  0.4039
 2010TIP3    H227590   1.638   6.007   4.474 -1.8391  1.2340  0.2666
 2011TIP3   OH227591   1.372   5.307   0.538  0.2997  0.4363  0.1831
 2011TIP3    H127592   1.325   5.373   0.487 -0.1608 -0.1538 -0.1682
 2011TIP3    H227593   1.445   5.280   0.482 -0.4650 -0.5400 -0.3843
 2012TIP3   OH227594   4.636   6.276   1.940  0.0552 -0.0145  0.4570
 2012TIP3    H127595   4.717   6.235   1.971 -0.5247 -1.9149 -0.3689
 2012TIP3    H227596   4.652   6.295   1.848 -1.2410 -2.9236 -0.4949
 2013TIP3   OH227597   1.392   0.197   0.991  0.1977  0.2711  0.6017
 2013TIP3    H127598   1.415   0.275   0.940 -0.6688  2.0198  2.7264
 2013TIP3    H227599   1.453   0.130   0.960  1.9100  2.1520 -0.3791
 2014TIP3   OH227600   5.883   1.686   2.977 -0.5840  0.0652 -0.1207
 2014TIP3    H127601   5.968   1.695   3.021  0.1544 -0.9799 -1.2670
 2014TIP3    H227602   5.826   1.749   3.022  1.2193  1.9921 -0.3748
 2015TIP3   OH227603   0.473   5.889   2.897  0.8138 -0.1717 -0.4493
 2015TIP3    H127604   0.466   5.947   2.973 -1.3347  1.4003 -1.7274
 2015TIP3    H227605   0.484   5.801   2.934 -3.1713  0.0942  1.8720
 2016TIP3   OH227606   2.011   2.434   0.341 -0.3492 -0.6531  0.4681
 2016TIP3    H127607   2.082   2.426   0.404 -0.1639  0.6779  0.4569
 2016TIP3    H227608   2.044   2.495   0.275 -0.2452 -2.5779 -1.3602
 2017TIP3   OH227609   0.797   1.784   3.322  0.2139  0.5455  0.1192
 2017TIP3    H127610   0.838   1.863   3.287 -1.6792  1.6758  0.2879
 2017TIP3    H227611   0.801   1.795   3.417 -0.9492  0.9806  0.1400
 2018TIP3   OH227612   4.169   2.938   4.004  0.1608  0.2120 -0.1794
 2018TIP3    H127613   4.218   2.934   4.086  1.1454  0.7858 -0.7228
 2018TIP3    H227614   4.196   2.861   3.956  1.2120  0.9663 -0.8358
 2019TIP3   OH227615   5.270   0.747   3.420  0.2057 -0.0816  0.1439
 2019TIP3    H127616   5.332   0.688   3.463  0.3144  0.2768  0.4850
 2019TIP3    H227617   5.269   0.825   3.475 -0.4374 -0.0234  0.0577
 2020TIP3   OH227618   2.149   4.170   3.573 -0.1117  0.6201  0.3407
 2020TIP3    H127619   2.162   4.082   3.537  0.1087  0.9567 -0.4307
 2020TIP3    H227620   2.077   4.160   3.635  0.0752 -0.1529  0.4418
 2021TIP3   OH227621   6.415   5.380   0.519  0.4540 -0.0281 -0.5556
 2021TIP3    H127622   6.387   5.321   0.449 -1.3969  0.5735 -0.3735
 2021TIP3    H227623   6.474   5.328   0.573 -1.5044 -1.8719 -0.1258
 2022TIP3   OH227624   5.112   2.097   3.521 -0.2427 -0.5139 -0.1159
 2022TIP3    H127625   5.178   2.028   3.531 -0.4299 -0.6270  0.4193
 2022TIP3    H227626   5.091   2.097   3.428  0.9875 -0.0278 -0.4147
 2023TIP3   OH227627   5.747   1.792   8.329 -0.1001 -0.1497 -0.6070
 2023TIP3    H127628   5.675   1.744   8.368  1.0731 -0.0298  1.8950
 2023TIP3    H227629   5.709   1.876   8.303 -1.2302 -0.7869 -1.0943
 2024TIP3   OH227630   5.142   5.786   1.647 -0.2372  0.3454 -0.0912
 2024TIP3    H127631   5.060   5.784   1.696 -0.3823 -0.2056 -0.3467
 2024TIP3    H227632   5.170   5.694   1.643 -0.1735  0.3869 -0.9316
 2025TIP3   OH227633   0.403   5.564   3.748  0.5100  0.1231  0.1464
 2025TIP3    H127634   0.345   5.622   3.699 -0.4992 -0.3643  0.7461
 2025TIP3    H227635   0.412   5.487   3.692 -3.6264 -2.1004  2.1143
 2026TIP3   OH227636   4.830   1.936   2.925 -0.2588  0.1318  0.2131
 2026TIP3    H127637   4.838   1.951   2.831  1.3159 -0.1324  0.2743
 2026TIP3    H227638   4.894   1.867   2.944 -0.5471  0.1814  1.4670
 2027TIP3   OH227639   4.050   0.718   3.894 -0.4905  0.4259  0.5275
 2027TIP3    H127640   4.048   0.728   3.989 -0.9964  0.3813  0.5285
 2027TIP3    H227641   4.053   0.623   3.880 -2.2332  0.3300  0.5089
 2028TIP3   OH227642   3.420   5.949   0.903  0.2945 -0.3611  0.5289
 2028TIP3    H127643   3.382   5.906   0.980 -1.3689  1.1505  0.5945
 2028TIP3    H227644   3.465   6.026   0.938 -1.9232  1.3101 -0.0734
 2029TIP3   OH227645   2.085   4.687   8.420  0.1665  0.3064  0.1880
 2029TIP3    H127646   1.991   4.669   8.425  0.0970  0.4994 -0.3471
 2029TIP3    H227647   2.118   4.669   8.508 -0.7524  2.2877  1.0161
 2030TIP3   OH227648   1.123   0.697   1.831  0.0281  0.0771  0.8937
 2030TIP3    H127649   1.207   0.669   1.795 -0.9058 -0.9450 -0.6063
 2030TIP3    H227650   1.075   0.731   1.756 -1.4626 -0.7708  1.4176
 2031TIP3   OH227651   5.507   1.861   2.822  0.0567  0.1537 -0.2494
 2031TIP3    H127652   5.593   1.819   2.829  0.4235  0.8102 -0.6735
 2031TIP3    H227653   5.513   1.938   2.879 -1.2001 -1.2491  1.9040
 2032TIP3   OH227654   6.456   1.268   2.399 -0.1150 -0.1848 -0.2386
 2032TIP3    H127655   6.498   1.342   2.355  0.4077  0.4997  1.3737
 2032TIP3    H227656   6.395   1.309   2.460  0.5510 -1.0678  1.0398
 2033TIP3   OH227657   5.754   5.800   4.288  0.5786 -0.0844 -0.1622
 2033TIP3    H127658   5.675   5.855   4.283  0.5953 -0.1421 -1.0602
 2033TIP3    H227659   5.738   5.728   4.227  1.3062 -0.1307 -0.3082
 2034TIP3   OH227660   3.817   1.380   4.110 -0.2172  0.9386  0.1082
 2034TIP3    H127661   3.750   1.448   4.105  1.6570  3.1127  2.0182
 2034TIP3    H227662   3.790   1.327   4.186 -1.7100 -0.6107 -1.4157
 2035TIP3   OH227663   1.316   6.667   3.043  0.9343 -0.3635  0.0947
 2035TIP3    H127664   1.240   6.674   3.102  0.3007  0.0335 -0.7493
 2035TIP3    H227665   1.344   6.757   3.029 -0.7554 -0.1406 -2.5126
 2036TIP3   OH227666   3.339   4.823   3.354  0.0044  0.1875  0.0556
 2036TIP3    H127667   3.249   4.850   3.374 -0.5526 -0.9597 -0.7892
 2036TIP3    H227668   3.350   4.741   3.402  0.7587  0.5299  0.4798
 2037TIP3   OH227669   3.309   5.087   0.837 -0.4403  0.1725 -0.6526
 2037TIP3    H127670   3.319   5.082   0.932 -0.2810  2.1812 -0.5184
 2037TIP3    H227671   3.288   4.997   0.810 -0.0830 -0.5188  1.2129
 2038TIP3   OH227672   4.517   3.190   3.378 -0.3364 -0.3652 -0.4778
 2038TIP3    H127673   4.479   3.181   3.291 -0.6294 -1.8962 -0.2145
 2038TIP3    H227674   4.441   3.191   3.437 -0.0797 -0.9735 -0.1322
 2039TIP3   OH227675   3.586   3.203   8.243 -0.4284 -0.0397 -0.0312
 2039TIP3    H127676   3.624   3.199   8.156 -0.9841 -1.0534 -0.2545
 2039TIP3    H227677   3.631   3.275   8.287 -0.4593  0.7727 -1.2960
 2040TIP3   OH227678   3.585   2.583   1.738 -0.1769  0.4451 -0.3536
 2040TIP3    H127679   3.514   2.549   1.792  0.1269  0.0617 -0.1909
 2040TIP3    H227680   3.649   2.615   1.800 -0.0912  0.5497 -0.4967
 2041TIP3   OH227681   3.786   5.350   2.932 -0.2690  0.2499  0.2221
 2041TIP3    H127682   3.853   5.363   2.866 -0.7002 -1.1770 -0.5427
 2041TIP3    H227683   3.733   5.278   2.899 -0.4488 -0.5861  2.1690
 2042TIP3   OH227684   1.528   1.285   2.147  0.1372  0.0983 -0.1305
 2042TIP3    H127685   1.438   1.315   2.159  0.0531 -0.6385  1.3428
 2042TIP3    H227686   1.560   1.269   2.236  1.0546 -1.5303 -0.7058
 2043TIP3   OH227687   1.914   0.038   3.784 -0.4456 -0.1973 -0.6482
 2043TIP3    H127688   1.822   0.061   3.775 -0.5092 -0.0320  0.2967
 2043TIP3    H227689   1.921   0.001   3.872  0.6416  1.0726 -0.1670
 2044TIP3   OH227690   2.090   3.390   3.042 -0.7465  0.1769 -0.6149
 2044TIP3    H127691   2.011   3.428   3.079 -0.2874  1.0080 -0.4708
 2044TIP3    H227692   2.087   3.413   2.949 -1.6021 -1.4049 -1.0132
 2045TIP3   OH227693   3.793   6.668   0.541 -0.0551 -0.6397 -0.3539
 2045TIP3    H127694   3.794   6.643   0.449  3.6887 -1.4367 -0.2382
 2045TIP3    H227695   3.830   6.593   0.587 -0.4338  0.3304  1.6463
 2046TIP3   OH227696   5.283   4.718   8.081  0.6238 -0.3318  0.2296
 2046TIP3    H127697   5.370   4.696   8.114  1.0689 -0.5144 -1.0241
 2046TIP3    H227698   5.275   4.813   8.096  0.6984 -0.4533  1.0836
 2047TIP3   OH227699   1.390   0.315   3.485  0.1013  0.0213  0.2925
 2047TIP3    H127700   1.434   0.392   3.521  0.2251  0.6487 -1.1363
 2047TIP3    H227701   1.458   0.248   3.483  0.4792  0.4108 -0.1175
 2048TIP3   OH227702   5.732   6.517   0.883  0.1928  0.0079  0.7396
 2048TIP3    H127703   5.654   6.538   0.934 -0.8522 -0.9318 -0.3758
 2048TIP3    H227704   5.777   6.449   0.934 -0.5452 -0.5331  0.6964
 2049TIP3   OH227705   3.856   1.113   0.648 -0.3725  0.3454 -0.2944
 2049TIP3    H127706   3.815   1.199   0.655  0.9495  1.0934 -1.2217
 2049TIP3    H227707   3.802   1.066   0.585  0.2126  1.3505 -1.5819
 2050TIP3   OH227708   5.733   0.434   1.926  0.3193  0.4204 -0.0619
 2050TIP3    H127709   5.685   0.396   2.000 -0.2434  0.4279 -0.4184
 2050TIP3    H227710   5.665   0.473   1.871  0.4655 -1.6513 -1.8269
 2051TIP3   OH227711   1.567   4.743   0.497 -0.2282  0.6742 -0.0743
 2051TIP3    H127712   1.554   4.680   0.426  1.5938  0.9952 -0.7658
 2051TIP3    H227713   1.480   4.776   0.517 -0.9219 -0.2948 -1.3556
 2052TIP3   OH227714   5.081   6.054   1.929 -0.0414  0.1135  0.7656
 2052TIP3    H127715   5.115   5.965   1.921 -0.5122 -0.0267  0.2224
 2052TIP3    H227716   5.118   6.087   2.010 -1.0497 -1.1164  1.7816
 2053TIP3   OH227717   0.211   2.655   0.744 -0.5815  0.0780  0.3578
 2053TIP3    H127718   0.118   2.631   0.749 -0.3261 -0.7068  2.0991
 2053TIP3    H227719   0.223   2.687   0.654 -2.8282  1.4844  0.4814
 2054TIP3   OH227720   4.762   6.088   1.548  0.4523 -0.1218  0.2736
 2054TIP3    H127721   4.709   6.037   1.610 -0.2171 -0.3887 -0.4977
 2054TIP3    H227722   4.834   6.029   1.525 -0.4799 -0.8678 -0.8394
 2055TIP3   OH227723   6.746   2.427   4.275 -0.1238  0.2881 -0.3963
 2055TIP3    H127724   6.748   2.385   4.189  1.3559  0.5979 -0.5439
 2055TIP3    H227725   6.821   2.390   4.322  0.3308  1.6313 -0.0033
 2056TIP3   OH227726   2.791   6.119   7.889  0.2606  0.3012 -0.4277
 2056TIP3    H127727   2.872   6.159   7.858  1.1439  2.3869  3.7826
 2056TIP3    H227728   2.722   6.179   7.861  1.0620  2.3374  1.6069
 2057TIP3   OH227729   1.307   1.253   1.889 -0.0624  0.8096 -0.0213
 2057TIP3    H127730   1.306   1.234   1.795  0.2344  0.9211 -0.0492
 2057TIP3    H227731   1.340   1.343   1.895  2.3357 -0.0151  0.2973
 2058TIP3   OH227732   1.340   0.329   1.917 -0.0056 -0.1019  0.1374
 2058TIP3    H127733   1.383   0.321   2.002 -0.0173  0.2792  0.1790
 2058TIP3    H227734   1.260   0.378   1.935  0.5670  1.0285 -0.2771
 2059TIP3   OH227735   1.767   0.920   3.511  0.0806 -0.2163 -0.2497
 2059TIP3    H127736   1.694   0.953   3.458 -0.0882 -0.1738  0.0068
 2059TIP3    H227737   1.844   0.967   3.478 -0.4617  2.1843  1.5811
 2060TIP3   OH227738   1.060   1.438   2.952 -0.2210  0.6019 -0.5234
 2060TIP3    H127739   1.111   1.489   3.015  1.0619  0.7033 -1.6089
 2060TIP3    H227740   1.058   1.350   2.989  1.0997  0.4984 -0.6411
 2061TIP3   OH227741   4.136   5.308   3.957  0.2365 -0.1600 -0.4223
 2061TIP3    H127742   4.171   5.245   3.895  1.2392  0.8029 -0.8704
 2061TIP3    H227743   4.191   5.386   3.946 -0.7728  0.6903  0.3161
 2062TIP3   OH227744   1.678   1.732   0.761  0.4282 -0.4526 -0.3282
 2062TIP3    H127745   1.744   1.669   0.730  2.1366  1.7168 -1.3751
 2062TIP3    H227746   1.703   1.749   0.852 -0.7096 -2.0463  0.3171
 2063TIP3   OH227747   5.583   4.009   1.247  0.3865 -0.4931 -0.2022
 2063TIP3    H127748   5.573   3.931   1.193 -1.6529  0.8730 -1.9843
 2063TIP3    H227749   5.513   4.001   1.313  2.2308 -1.6621  1.7333
 2064TIP3   OH227750   4.063   4.249   1.183  0.5654  0.0561  0.1534
 2064TIP3    H127751   3.992   4.186   1.192 -0.1162  0.6578 -0.9079
 2064TIP3    H227752   4.021   4.334   1.193  0.9094  0.4714 -1.6699
 2065TIP3   OH227753   3.945   5.423   1.349  0.3087 -0.1167 -0.7546
 2065TIP3    H127754   3.942   5.347   1.407 -0.7802 -0.2174 -0.9345
 2065TIP3    H227755   4.005   5.397   1.279  1.8692  0.1078  0.4315
 2066TIP3   OH227756   2.066   0.292   8.053 -0.0574  0.5010  0.2397
 2066TIP3    H127757   2.159   0.309   8.044 -0.4957  3.4378  0.2554
 2066TIP3    H227758   2.060   0.198   8.070  2.7398 -0.1254 -1.5718
 2067TIP3   OH227759   3.603   1.732   2.866  0.0801  0.1072 -0.1051
 2067TIP3    H127760   3.599   1.772   2.779 -1.1076 -0.0942 -0.1675
 2067TIP3    H227761   3.588   1.805   2.926 -2.3841 -0.1990 -0.2296
 2068TIP3   OH227762   2.982   6.646   1.162  0.2059  0.3067 -0.4073
 2068TIP3    H127763   2.890   6.672   1.171 -0.3562 -1.7239  0.2156
 2068TIP3    H227764   3.026   6.690   1.235 -0.2147  1.4215 -0.7985
 2069TIP3   OH227765   0.179   0.238   0.611 -0.5132  0.0181  0.2101
 2069TIP3    H127766   0.184   0.328   0.580 -0.8964 -0.7978 -2.4218
 2069TIP3    H227767   0.265   0.201   0.592 -0.8483 -0.5934 -0.1286
 2070TIP3   OH227768   0.425   6.093   0.577  0.3552 -0.3099 -0.3815
 2070TIP3    H127769   0.512   6.129   0.560 -0.1523  1.1709 -0.0546
 2070TIP3    H227770   0.389   6.075   0.491 -0.1105  1.9120 -0.7178
 2071TIP3   OH227771   6.099   3.972   3.998 -0.4941 -0.1658  0.1355
 2071TIP3    H127772   6.015   3.968   4.042 -0.2605  1.4373  0.7906
 2071TIP3    H227773   6.100   4.057   3.954  0.6523 -0.2698 -0.0873
 2072TIP3   OH227774   1.457   3.318   4.107  0.2507  0.6059  0.2525
 2072TIP3    H127775   1.420   3.254   4.167 -0.4966  0.9920  0.2173
 2072TIP3    H227776   1.520   3.368   4.160  0.9290 -0.2183  0.2475
 2073TIP3   OH227777   0.247   6.589   2.016 -0.0951 -0.4998  0.6974
 2073TIP3    H127778   0.272   6.677   2.047 -1.1723 -0.5694  1.8344
 2073TIP3    H227779   0.299   6.529   2.069  1.9737 -0.5863 -1.2761
 2074TIP3   OH227780   1.745   0.980   2.571 -0.1046 -0.0144  0.1458
 2074TIP3    H127781   1.680   0.988   2.501 -0.1768  2.1779  0.4000
 2074TIP3    H227782   1.699   0.934   2.641 -1.8839  2.4868  0.7690
 2075TIP3   OH227783   1.463   0.616   2.953 -0.0394  0.7063  0.1453
 2075TIP3    H127784   1.538   0.647   3.003 -2.2064  1.9467  2.9066
 2075TIP3    H227785   1.421   0.551   3.010 -2.0277  1.3805 -0.4613
 2076TIP3   OH227786   4.401   5.489   3.386  0.3142  0.2481 -0.2027
 2076TIP3    H127787   4.354   5.522   3.463 -1.2437  0.5485 -1.2565
 2076TIP3    H227788   4.400   5.561   3.324  1.3727 -0.0664 -0.6067
 2077TIP3   OH227789   3.731   0.999   1.316 -0.0549  0.0065  0.0985
 2077TIP3    H127790   3.647   0.986   1.271 -0.2238  0.4974  0.2600
 2077TIP3    H227791   3.760   0.911   1.340 -1.1508 -0.0844  1.1758
 2078TIP3   OH227792   2.977   0.116   2.213  0.1164 -0.2874  0.7143
 2078TIP3    H127793   3.035   0.177   2.166 -0.8787  0.7369  0.7795
 2078TIP3    H227794   2.961   0.159   2.297 -3.4577  1.1885 -0.5381
 2079TIP3   OH227795   2.270   4.592   0.950 -0.3531 -0.3435  0.2161
 2079TIP3    H127796   2.259   4.581   1.044 -1.3024 -0.3329  0.1171
 2079TIP3    H227797   2.188   4.631   0.920 -0.0849 -0.3902 -0.6271
 2080TIP3   OH227798   4.935   5.087   0.641  0.1351 -0.7570  0.4491
 2080TIP3    H127799   4.940   5.177   0.672 -2.3405 -0.2440 -0.4595
 2080TIP3    H227800   5.019   5.048   0.668 -0.0963  0.7810  3.9245
 2081TIP3   OH227801   5.883   3.898   1.324  0.2679  0.3706 -0.3395
 2081TIP3    H127802   5.834   3.931   1.248 -0.4552 -2.0422 -0.9963
 2081TIP3    H227803   5.974   3.892   1.293 -0.0800 -0.9410 -1.1839
 2082TIP3   OH227804   0.724   1.173   4.171 -0.2539 -0.1688 -0.7606
 2082TIP3    H127805   0.799   1.220   4.135 -1.6732 -0.4881 -4.5371
 2082TIP3    H227806   0.686   1.235   4.234  2.5228  0.3662  0.5301
 2083TIP3   OH227807   6.324   2.297   0.945 -0.1614  0.2195 -0.1731
 2083TIP3    H127808   6.334   2.202   0.932 -0.1292  0.1794  0.1365
 2083TIP3    H227809   6.413   2.331   0.943 -0.1389  0.1845  0.1473
 2084TIP3   OH227810   3.723   1.878   2.669 -0.6564  0.2119  0.4697
 2084TIP3    H127811   3.662   1.900   2.598 -2.0046  0.7953  1.7628
 2084TIP3    H227812   3.749   1.963   2.705  1.1789 -0.0068 -0.2201
 2085TIP3   OH227813   6.372   2.948   2.835  0.6121  0.5114  0.0639
 2085TIP3    H127814   6.300   3.000   2.871 -1.7167 -1.1089 -1.9705
 2085TIP3    H227815   6.352   2.858   2.862  0.9727 -0.1766 -1.8435
 2086TIP3   OH227816   0.368   0.852   0.956 -0.3936  0.1739 -0.1464
 2086TIP3    H127817   0.377   0.947   0.971 -0.2144  0.3061 -1.0355
 2086TIP3    H227818   0.378   0.842   0.862 -0.3288 -0.7507 -0.0460
 2087TIP3   OH227819   0.879   0.182   4.134 -0.5642 -0.0277 -0.2024
 2087TIP3    H127820   0.946   0.239   4.172 -1.0646 -0.4645  1.4351
 2087TIP3    H227821   0.857   0.121   4.205 -2.7205  0.1301 -0.6580
 2088TIP3   OH227822   0.259   0.695   2.509 -0.0479  0.1528  0.0256
 2088TIP3    H127823   0.266   0.774   2.456  0.5867  1.1327  1.5122
 2088TIP3    H227824   0.168   0.667   2.500  0.1138  0.1207 -1.7748
 2089TIP3   OH227825   2.909   5.990   0.934  0.0383  0.0724  0.2492
 2089TIP3    H127826   2.999   5.988   0.965  0.1889 -1.6566 -0.1976
 2089TIP3    H227827   2.915   6.023   0.844  0.1416  0.4925  0.4052
 2090TIP3   OH227828   4.821   2.656   3.802 -0.2421 -0.0654  0.2414
 2090TIP3    H127829   4.912   2.662   3.834 -0.0181  2.0827 -0.6913
 2090TIP3    H227830   4.821   2.577   3.748  1.1560  0.0452  0.0246
 2091TIP3   OH227831   6.370   4.112   2.419 -0.7418  0.3833  0.6417
 2091TIP3    H127832   6.424   4.176   2.372 -1.2095  0.3888  0.1058
 2091TIP3    H227833   6.337   4.161   2.495  0.8007  0.0930  1.5309
 2092TIP3   OH227834   1.993   5.121   3.705 -0.6550 -0.2835 -0.0780
 2092TIP3    H127835   2.028   5.074   3.781  0.2658  2.0727  1.0549
 2092TIP3    H227836   1.898   5.116   3.716 -0.5338  0.4392  1.5369
 2093TIP3   OH227837   4.557   3.455   0.384 -0.6168 -0.2905  0.5975
 2093TIP3    H127838   4.471   3.493   0.405 -0.4582  0.0660  0.6194
 2093TIP3    H227839   4.609   3.530   0.356 -0.4179 -0.5623  0.2388
 2094TIP3   OH227840   6.386   2.138   3.148 -0.6066 -0.3448  0.0364
 2094TIP3    H127841   6.293   2.140   3.126 -0.3733 -2.0374 -1.3742
 2094TIP3    H227842   6.406   2.226   3.178 -2.8768 -0.2352  1.3987
 2095TIP3   OH227843   4.778   4.960   1.497  0.0655 -0.6466 -0.0565
 2095TIP3    H127844   4.727   5.039   1.480  0.3645 -0.2260  0.9558
 2095TIP3    H227845   4.757   4.937   1.587  2.8110  0.4361  0.9545
 2096TIP3   OH227846   5.464   1.563   1.930  0.2075  0.8137  0.6451
 2096TIP3    H127847   5.383   1.533   1.889  1.3020 -2.4771  0.6060
 2096TIP3    H227848   5.520   1.587   1.856  1.2382 -2.5670  0.1876
 2097TIP3   OH227849   0.756   2.149   1.961 -0.6760 -0.2106 -0.6943
 2097TIP3    H127850   0.848   2.145   1.934 -0.4196  0.3924  0.0536
 2097TIP3    H227851   0.732   2.057   1.975 -0.4401 -0.4343 -1.6839
 2098TIP3   OH227852   5.281   3.211   2.593 -0.2618 -0.3882 -0.8281
 2098TIP3    H127853   5.261   3.182   2.504 -0.8902  0.4827 -0.9829
 2098TIP3    H227854   5.214   3.277   2.613 -0.2944 -0.7497  0.3899
 2099TIP3   OH227855   2.306   2.954   4.155  0.5858  0.0114 -0.1762
 2099TIP3    H127856   2.217   2.931   4.183  1.4162 -0.8278  2.0037
 2099TIP3    H227857   2.331   2.884   4.095  0.4469 -0.8236  0.7121
 2100TIP3   OH227858   4.624   4.898   2.874 -0.3171  0.0259  0.1101
 2100TIP3    H127859   4.529   4.892   2.880 -0.1715 -1.0764  1.6047
 2100TIP3    H227860   4.646   4.979   2.920 -0.3952 -0.8192  1.6974
 2101TIP3   OH227861   2.982   2.672   1.663 -0.0822  0.0524 -0.0877
 2101TIP3    H127862   2.926   2.613   1.613 -1.1816 -0.8007  2.0023
 2101TIP3    H227863   2.939   2.678   1.749  1.1057  2.2973  0.4195
 2102TIP3   OH227864   3.383   2.498   4.110 -0.2110  0.1078 -0.0746
 2102TIP3    H127865   3.344   2.564   4.167  0.2972  1.5136 -1.3001
 2102TIP3    H227866   3.477   2.503   4.128  0.2571  2.1998 -2.5609
 2103TIP3   OH227867   3.161   3.630   0.967  0.0005 -0.2018 -0.3927
 2103TIP3    H127868   3.219   3.621   0.892  0.4556  2.0223 -0.3777
 2103TIP3    H227869   3.221   3.639   1.042 -0.3535  0.9348 -0.2286
 2104TIP3   OH227870   0.450   0.699   1.172 -0.6489 -0.2432 -0.4860
 2104TIP3    H127871   0.394   0.720   1.098 -0.5891  0.4089 -0.3538
 2104TIP3    H227872   0.499   0.780   1.189 -1.2541 -0.1090  0.7710
 2105TIP3   OH227873   0.646   6.212   2.565 -0.7158  0.2229 -0.0589
 2105TIP3    H127874   0.647   6.307   2.549 -1.1452  0.3094  0.3968
 2105TIP3    H227875   0.733   6.192   2.598 -0.1286  0.2047 -1.5323
 2106TIP3   OH227876   1.100   1.669   1.205 -0.3630  0.7449 -0.7826
 2106TIP3    H127877   1.145   1.696   1.284  0.9777  0.5792 -1.4649
 2106TIP3    H227878   1.166   1.677   1.135 -0.8574 -1.1651 -1.5380
 2107TIP3   OH227879   3.696   6.603   4.154 -0.2039 -0.0359 -0.9280
 2107TIP3    H127880   3.711   6.691   4.119  2.2539  0.0290  0.1018
 2107TIP3    H227881   3.600   6.594   4.154 -0.5104  2.3190 -1.7520
 2108TIP3   OH227882   2.984   1.987   3.459  0.4781 -0.6463  0.3410
 2108TIP3    H127883   3.024   2.026   3.537 -0.7017  0.5250  0.4132
 2108TIP3    H227884   2.948   2.062   3.411  0.0166 -1.4702 -0.6420
 2109TIP3   OH227885   0.641   3.055   2.807  0.2990 -0.2463  0.0538
 2109TIP3    H127886   0.551   3.087   2.820 -0.3309 -1.3052 -1.4404
 2109TIP3    H227887   0.662   3.080   2.717  1.0960 -0.9649  0.0371
 2110TIP3   OH227888   4.397   3.166   1.749 -0.0467  0.4882  0.1670
 2110TIP3    H127889   4.366   3.133   1.665  0.8192  0.6709 -0.2471
 2110TIP3    H227890   4.386   3.093   1.810  0.5428 -0.1026 -0.4124
 2111TIP3   OH227891   0.024   4.069   2.053  0.3144  0.3870  0.2457
 2111TIP3    H127892   0.054   4.148   2.098 -1.5304  1.0655  0.3680
 2111TIP3    H227893  -0.071   4.079   2.047  0.3757  0.1463 -3.4694
 2112TIP3   OH227894   1.694   3.391   2.087  0.1459 -0.1770  0.1487
 2112TIP3    H127895   1.717   3.313   2.137  1.6997  0.3977  0.4113
 2112TIP3    H227896   1.610   3.419   2.123  0.2134 -0.9790  0.9707
 2113TIP3   OH227897   2.855   0.058   3.833  0.1848 -0.3520 -0.0166
 2113TIP3    H127898   2.773   0.041   3.879  0.7272 -1.2186  0.6800
 2113TIP3    H227899   2.895  -0.029   3.824  1.8362  0.2300  1.2353
 2114TIP3   OH227900   4.221   0.540   1.818  0.5688 -0.2317 -0.8590
 2114TIP3    H127901   4.255   0.477   1.754  3.5569 -0.4524  0.7537
 2114TIP3    H227902   4.298   0.589   1.846 -1.0315  1.4512  0.8686
 2115TIP3   OH227903   1.530   2.711   0.951 -0.4700 -0.0116 -0.1004
 2115TIP3    H127904   1.620   2.710   0.919 -0.5592  0.5853 -0.3856
 2115TIP3    H227905   1.491   2.631   0.915 -0.8728  1.1281 -2.4499
 2116TIP3   OH227906   3.899   0.213   1.816 -0.0101  0.0730 -0.3505
 2116TIP3    H127907   3.860   0.141   1.767  2.0635 -0.4476 -1.3605
 2116TIP3    H227908   3.945   0.171   1.888 -2.2786  0.7733  1.6497
 2117TIP3   OH227909   4.266   4.899   8.210 -0.1690 -0.2148 -0.5639
 2117TIP3    H127910   4.209   4.823   8.225  1.1237 -1.1420 -0.1891
 2117TIP3    H227911   4.333   4.892   8.278  0.4679  0.7893 -1.0654
 2118TIP3   OH227912   2.060   0.413   1.921 -0.1093 -0.0634 -0.0260
 2118TIP3    H127913   2.054   0.477   1.850  2.2743 -1.5522 -1.7394
 2118TIP3    H227914   2.049   0.328   1.877 -0.5099 -0.9452  1.7170
 2119TIP3   OH227915   2.581   3.439   3.993 -0.4749  0.1520  0.1728
 2119TIP3    H127916   2.586   3.514   4.052  0.0012  0.6288 -0.4514
 2119TIP3    H227917   2.519   3.379   4.034  0.0990  0.3158  1.3192
 2120TIP3   OH227918   6.607   5.228   0.639 -0.3242 -0.0385 -0.0490
 2120TIP3    H127919   6.679   5.289   0.626 -0.9915  0.6649 -0.4878
 2120TIP3    H227920   6.638   5.169   0.708  0.5595  0.4196 -0.0428
 2121TIP3   OH227921   2.005   1.017   0.900  0.3868 -0.2995  0.8949
 2121TIP3    H127922   2.073   1.082   0.887 -0.6052  0.7381  0.7278
 2121TIP3    H227923   2.003   0.968   0.817  1.0841 -0.5153  0.9974
 2122TIP3   OH227924   1.793   6.538   3.775 -0.6591  0.0130  0.1107
 2122TIP3    H127925   1.865   6.594   3.747 -0.7868  0.5229  0.7907
 2122TIP3    H227926   1.836   6.462   3.815 -0.4750 -0.6816 -1.3487
 2123TIP3   OH227927   2.127   4.601   0.217 -0.0827 -0.0705 -0.2680
 2123TIP3    H127928   2.186   4.629   0.287  0.0760  0.8790 -0.7640
 2123TIP3    H227929   2.161   4.516   0.190  0.4432  0.0055  0.1397
 2124TIP3   OH227930   1.413   6.807   3.301 -0.3220 -0.3337 -0.8098
 2124TIP3    H127931   1.325   6.831   3.272 -1.0097 -2.0599 -0.3034
 2124TIP3    H227932   1.422   6.847   3.387  0.3094  1.7360 -1.7741
 2125TIP3   OH227933   6.225   4.460   2.232 -0.3366  0.2335  0.1912
 2125TIP3    H127934   6.200   4.425   2.318  0.7832  0.2017  0.5216
 2125TIP3    H227935   6.190   4.549   2.231  0.9292  0.7831  1.3173
 2126TIP3   OH227936   6.045   4.318   2.500  0.1786 -0.1826  0.0087
 2126TIP3    H127937   6.007   4.400   2.532  0.0919 -0.6117  1.0453
 2126TIP3    H227938   6.133   4.316   2.539  0.1463 -0.6155  0.0627
 2127TIP3   OH227939   3.163   1.544   3.410  0.3109 -0.5708 -0.2574
 2127TIP3    H127940   3.121   1.477   3.357  1.2861 -1.5024  0.1113
 2127TIP3    H227941   3.167   1.506   3.498 -0.0362  0.3853  0.1784
 2128TIP3   OH227942   2.344   4.641   2.004 -0.1425 -0.0107 -0.8163
 2128TIP3    H127943   2.255   4.631   2.037 -0.0180 -1.9665 -0.9367
 2128TIP3    H227944   2.389   4.693   2.070 -1.2682  0.6972 -0.5852
 2129TIP3   OH227945   6.405   2.955   0.447  0.0808 -0.4313 -0.7904
 2129TIP3    H127946   6.456   3.031   0.475  1.9767 -1.9341  0.1009
 2129TIP3    H227947   6.341   2.990   0.386  1.3175  1.7772 -0.9268
 2130TIP3   OH227948   0.410   2.919   2.537  0.1787 -0.3481 -0.4802
 2130TIP3    H127949   0.462   2.872   2.472  1.6646  0.4474  0.0745
 2130TIP3    H227950   0.475   2.963   2.593 -0.9929  4.0247 -2.1277
 2131TIP3   OH227951   4.347   2.005   3.951  0.0302  0.1505 -0.2707
 2131TIP3    H127952   4.381   1.950   4.022 -0.6434  1.0049  0.7316
 2131TIP3    H227953   4.286   1.948   3.905  2.0692 -1.1296 -1.5650
 2132TIP3   OH227954   5.257   5.665   4.047 -0.4268 -0.4327 -0.0909
 2132TIP3    H127955   5.311   5.742   4.033  0.1744 -0.6552  0.8600
 2132TIP3    H227956   5.289   5.601   3.983 -0.1139 -0.2903 -0.0801
 2133TIP3   OH227957   2.951   3.852   1.205  0.9361 -0.1803 -0.0706
 2133TIP3    H127958   3.030   3.864   1.153  0.4354 -1.1602 -1.1025
 2133TIP3    H227959   2.889   3.916   1.169  0.3558 -1.3394 -1.2197
 2134TIP3   OH227960   6.547   2.764   0.564  0.1951  0.6825  0.1053
 2134TIP3    H127961   6.626   2.781   0.512  0.5277 -1.7283 -0.3007
 2134TIP3    H227962   6.480   2.821   0.526  1.5620  2.3755  0.0913
 2135TIP3   OH227963   1.284   6.448   0.659 -0.6149 -0.7926 -0.2792
 2135TIP3    H127964   1.327   6.531   0.644  0.2563 -1.3400 -0.9115
 2135TIP3    H227965   1.339   6.402   0.723  0.4942 -1.9900 -1.9993
 2136TIP3   OH227966   1.821   6.757   0.109 -0.5277 -0.1685  0.2027
 2136TIP3    H127967   1.876   6.709   0.047 -0.1249  0.5749 -0.0352
 2136TIP3    H227968   1.766   6.813   0.053 -0.0993  0.5745  0.5079
 2137TIP3   OH227969   3.860   4.638   1.000  0.0364 -1.2448  0.1061
 2137TIP3    H127970   3.816   4.617   0.918 -1.3628 -0.0031  0.5023
 2137TIP3    H227971   3.854   4.733   1.008 -1.1181 -1.4404  2.3150
 2138TIP3   OH227972   2.266   0.887   3.047  0.4289  0.4810 -0.2044
 2138TIP3    H127973   2.207   0.963   3.052 -0.9904 -0.6146  0.9622
 2138TIP3    H227974   2.261   0.848   3.135  2.4256 -0.0399 -0.2743
 2139TIP3   OH227975   4.043   5.099   2.666 -0.2893 -0.4961  0.0270
 2139TIP3    H127976   3.981   5.172   2.664  0.3455  0.0625 -2.4137
 2139TIP3    H227977   4.017   5.042   2.594  0.8376 -1.2758  0.2044
 2140TIP3   OH227978   3.331   2.412   2.038 -0.6660  0.3555  0.3895
 2140TIP3    H127979   3.263   2.437   2.101 -1.8624  0.0807 -0.7451
 2140TIP3    H227980   3.299   2.445   1.954  0.4470 -0.0942 -0.2294
 2141TIP3   OH227981   0.762   6.415   2.182  0.1587 -0.1442 -0.0321
 2141TIP3    H127982   0.771   6.320   2.192  0.1969 -0.4727 -2.5091
 2141TIP3    H227983   0.803   6.434   2.097 -0.8148  1.9345 -0.1030
 2142TIP3   OH227984   3.311   4.632   4.877  0.7887 -0.0192 -0.8017
 2142TIP3    H127985   3.335   4.565   4.813  2.5021 -0.1445 -0.0826
 2142TIP3    H227986   3.322   4.715   4.830  2.6499 -0.0770 -0.5470
 2143TIP3   OH227987   5.831   1.397   2.039 -0.5898  0.0902 -0.3999
 2143TIP3    H127988   5.759   1.366   1.985 -1.3235  0.6190  0.2604
 2143TIP3    H227989   5.855   1.482   2.001 -0.8044  0.2535 -0.1699
 2144TIP3   OH227990   0.534   2.310   2.164 -0.7121 -0.3439 -0.1682
 2144TIP3    H127991   0.444   2.340   2.174 -0.3691  0.9120 -0.6046
 2144TIP3    H227992   0.580   2.386   2.128  1.0489 -0.1140  2.3463
 2145TIP3   OH227993   1.025   6.227   4.125 -0.1904  0.2503  0.6393
 2145TIP3    H127994   1.085   6.301   4.111 -0.1266  0.5359  2.2552
 2145TIP3    H227995   0.999   6.235   4.217 -0.5837 -1.4569  0.6949
 2146TIP3   OH227996   5.123   4.674   2.871  0.1526 -0.0141  0.1927
 2146TIP3    H127997   5.033   4.706   2.866  0.2490  0.0493 -1.4793
 2146TIP3    H227998   5.162   4.698   2.787  0.9836 -2.2710 -0.1292
 2147TIP3   OH227999   1.546   0.797   3.313  0.0930 -0.1757  0.2099
 2147TIP3    H128000   1.464   0.781   3.266 -0.4099 -1.5321  1.4750
 2147TIP3    H228001   1.614   0.764   3.254 -0.5051 -1.6249  0.2961
 2148TIP3   OH228002   4.668   0.543   1.414  0.1996  0.4923  0.0604
 2148TIP3    H128003   4.732   0.473   1.426  0.2251  0.3933 -0.6360
 2148TIP3    H228004   4.721   0.622   1.398  0.1569  0.4797 -0.1483
 2149TIP3   OH228005   0.450   2.421   2.429  0.5258 -0.6668 -0.2561
 2149TIP3    H128006   0.406   2.337   2.417 -1.7803  0.2912  0.9553
 2149TIP3    H228007   0.384   2.486   2.407  0.0040  0.9412  4.7772
 2150TIP3   OH228008   3.734   6.943   3.251 -0.1830 -0.0237  0.0523
 2150TIP3    H128009   3.752   6.925   3.159 -0.5166  0.6574 -0.1603
 2150TIP3    H228010   3.757   6.863   3.297 -1.0649 -0.7724 -0.7629
 2151TIP3   OH228011   4.701   5.998   1.814  0.1667 -0.0345 -0.3066
 2151TIP3    H128012   4.707   6.057   1.889 -0.6751  0.8619 -0.9236
 2151TIP3    H228013   4.758   5.925   1.836 -1.3965 -0.6624  2.0155
 2152TIP3   OH228014   5.492   2.028   2.611  0.3875 -0.3901  0.2066
 2152TIP3    H128015   5.572   1.993   2.573 -0.0324 -0.5583 -0.5507
 2152TIP3    H228016   5.486   1.988   2.697  0.4995 -1.3161 -0.2058
 2153TIP3   OH228017   3.362   6.010   3.341  0.0343  0.0879  0.1864
 2153TIP3    H128018   3.292   5.960   3.383  0.6796 -0.3964  0.7115
 2153TIP3    H228019   3.334   6.020   3.251 -0.9597  0.3659  0.5207
 2154TIP3   OH228020   2.759   4.443   4.483  0.1948  0.9568  0.7524
 2154TIP3    H128021   2.671   4.478   4.498 -0.6507 -0.2559 -0.9426
 2154TIP3    H228022   2.800   4.442   4.569 -1.7240  0.9021  1.7118
 2155TIP3   OH228023   5.591   4.440   1.780  0.1988  0.0750 -0.2630
 2155TIP3    H128024   5.500   4.427   1.755  0.1154 -1.0803  0.5805
 2155TIP3    H228025   5.642   4.408   1.706 -0.0738 -0.8491 -0.0620
 2156TIP3   OH228026   5.991   0.116   2.788 -0.4084  0.2281 -0.1853
 2156TIP3    H128027   5.912   0.160   2.820 -0.6329 -0.4152  0.1525
 2156TIP3    H228028   6.026   0.071   2.865 -1.1438 -1.6196 -0.8908
 2157TIP3   OH228029   2.690   6.838   8.444 -0.3176 -0.4394  0.4760
 2157TIP3    H128030   2.611   6.887   8.424 -0.8977 -0.9211  1.5244
 2157TIP3    H228031   2.759   6.882   8.394 -1.2530 -0.0836 -0.5384
 2158TIP3   OH228032   5.469   6.513   0.513  0.4334  0.0012 -0.1115
 2158TIP3    H128033   5.470   6.443   0.579 -1.3545 -0.1092 -0.1344
 2158TIP3    H228034   5.430   6.472   0.436 -0.0644  0.8535 -0.3224
 2159TIP3   OH228035   3.251   4.732   0.669 -0.3164  0.3377  0.1400
 2159TIP3    H128036   3.208   4.647   0.680 -0.1619  0.0201 -1.4878
 2159TIP3    H228037   3.260   4.766   0.758  0.4974 -1.7906  0.9334
 2160TIP3   OH228038   4.416   6.817   0.278  0.6649  0.3840  0.2574
 2160TIP3    H128039   4.372   6.881   0.333  0.3112 -0.1571  0.6131
 2160TIP3    H228040   4.442   6.747   0.338 -1.2051 -1.0301 -0.4620
 2161TIP3   OH228041   2.683   5.218   3.739  0.6705  0.5765  0.4490
 2161TIP3    H128042   2.749   5.149   3.744  0.4371  0.3572  0.5083
 2161TIP3    H228043   2.707   5.268   3.661  1.0023  0.5961  0.5633
 2162TIP3   OH228044   0.922   1.097   3.533 -0.1682 -0.0006 -0.7483
 2162TIP3    H128045   0.952   1.185   3.511 -0.3715  0.8809  2.0809
 2162TIP3    H228046   0.983   1.038   3.487  0.7107  1.6161 -1.7359
 2163TIP3   OH228047   6.798   6.189   0.564 -0.0311  0.1537  0.1249
 2163TIP3    H128048   6.718   6.200   0.614  0.7369 -0.4254  1.5304
 2163TIP3    H228049   6.806   6.094   0.551 -0.3242  0.3045 -1.3015
 2164TIP3   OH228050   4.454   6.084   2.988 -0.6952 -0.0424 -0.2281
 2164TIP3    H128051   4.371   6.071   2.942 -0.6589 -0.4253 -0.1859
 2164TIP3    H228052   4.434   6.066   3.080 -0.3547 -1.0790 -0.3427
 2165TIP3   OH228053   3.800   5.592   1.077 -0.5121 -0.4379  0.2148
 2165TIP3    H128054   3.813   5.527   1.009  0.0319 -0.6510  0.5201
 2165TIP3    H228055   3.763   5.544   1.151 -0.6516 -0.2960  0.2388
 2166TIP3   OH228056   3.043   3.957   4.826 -0.4242 -0.0254 -0.1909
 2166TIP3    H128057   3.100   4.026   4.792  0.4307 -0.6092  0.0110
 2166TIP3    H228058   3.079   3.876   4.789 -2.2824 -0.2604 -1.6161
 2167TIP3   OH228059   6.319   3.165   2.325  0.1063  0.0914  0.6315
 2167TIP3    H128060   6.385   3.219   2.368  1.0203 -0.2397 -0.2987
 2167TIP3    H228061   6.316   3.085   2.377  1.6129 -0.5427 -0.1774
 2168TIP3   OH228062   5.702   3.314   3.516 -0.2926 -0.2685 -0.1098
 2168TIP3    H128063   5.700   3.393   3.571 -0.1907 -0.4846  0.2082
 2168TIP3    H228064   5.764   3.336   3.446 -1.2476  0.4046 -0.7571
 2169TIP3   OH228065   3.390   3.148   1.403 -0.2202 -0.3990 -0.5623
 2169TIP3    H128066   3.476   3.185   1.424 -0.2776  0.1005 -1.2044
 2169TIP3    H228067   3.378   3.079   1.469  0.2343  0.1848  0.1568
 2170TIP3   OH228068   3.622   1.345   3.861 -0.2822  0.0011  0.4467
 2170TIP3    H128069   3.712   1.346   3.893  0.0926  0.4505 -0.5523
 2170TIP3    H228070   3.569   1.326   3.938  0.7048 -0.8226  0.9523
 2171TIP3   OH228071   6.506   5.236   3.678  0.0093 -0.0203 -0.1330
 2171TIP3    H128072   6.415   5.216   3.658 -0.6615 -0.3591  2.7946
 2171TIP3    H228073   6.503   5.322   3.721  1.0884  0.0664 -0.1959
 2172TIP3   OH228074   4.777   1.290   7.851 -0.7049  0.2890  0.1905
 2172TIP3    H128075   4.758   1.237   7.774 -1.0685  0.9999 -0.2272
 2172TIP3    H228076   4.692   1.304   7.892 -0.6723  0.8300  0.0918
 2173TIP3   OH228077   4.795   4.218   2.492 -0.0459 -1.6207  0.1102
 2173TIP3    H128078   4.841   4.293   2.529 -3.5863  0.8201  0.0323
 2173TIP3    H228079   4.852   4.186   2.423  2.4102 -0.1776  1.3522
 2174TIP3   OH228080   4.284   0.671   3.106 -0.3519 -0.6850  0.3939
 2174TIP3    H128081   4.191   0.667   3.083 -0.5154 -0.0994  0.9301
 2174TIP3    H228082   4.308   0.763   3.092  0.2239 -0.8976 -0.0330
 2175TIP3   OH228083   3.802   5.055   3.064  0.1234  0.2632 -0.2276
 2175TIP3    H128084   3.883   5.106   3.062 -0.5114  1.4483  1.3182
 2175TIP3    H228085   3.764   5.067   2.977  0.8884  0.9275 -0.4854
 2176TIP3   OH228086   1.463   5.964   3.711 -0.8143 -0.0662  0.5371
 2176TIP3    H128087   1.492   5.873   3.718 -2.3866 -0.5437  1.3211
 2176TIP3    H228088   1.400   5.974   3.782  0.1525  1.9867  1.1731
 2177TIP3   OH228089   4.929   4.376   3.623 -0.2863 -0.4372 -0.5110
 2177TIP3    H128090   5.000   4.352   3.564  1.0327  1.2307  0.3122
 2177TIP3    H228091   4.973   4.417   3.698 -2.1345  1.2460 -0.2781
 2178TIP3   OH228092   2.379   3.392   2.999  0.6367 -0.2348  0.6096
 2178TIP3    H128093   2.290   3.360   3.017  0.5169 -0.9641 -1.0728
 2178TIP3    H228094   2.380   3.481   3.033 -1.7628  0.9359 -1.9787
 2179TIP3   OH228095   6.733   5.552   3.461 -0.2380 -0.2972  0.4017
 2179TIP3    H128096   6.703   5.496   3.532 -1.1353 -0.9977 -0.5009
 2179TIP3    H228097   6.666   5.621   3.455 -0.1490 -0.2246  0.2446
 2180TIP3   OH228098   0.989   6.156   0.969 -0.4797  0.0904  0.0651
 2180TIP3    H128099   1.024   6.238   1.003 -2.6540  0.5691  1.3802
 2180TIP3    H228100   1.060   6.119   0.918  0.7025  2.6192 -0.2912
 2181TIP3   OH228101   2.739   2.770   7.928 -0.2593 -0.0521 -0.0110
 2181TIP3    H128102   2.768   2.852   7.888  0.4128 -0.9275 -1.3954
 2181TIP3    H228103   2.649   2.788   7.956 -0.5559  0.8146 -1.3859
 2182TIP3   OH228104   6.007   2.011   3.595  0.2806 -0.2564 -0.5363
 2182TIP3    H128105   6.075   1.944   3.591  0.9962  0.4583 -0.4358
 2182TIP3    H228106   5.976   2.008   3.686  2.6000  1.7609  0.4038
 2183TIP3   OH228107   1.192   6.796   2.777  0.2598 -0.6165  0.4242
 2183TIP3    H128108   1.269   6.775   2.830 -0.2586  0.4741  1.6406
 2183TIP3    H228109   1.126   6.732   2.804  0.2981 -0.6645  0.4037
 2184TIP3   OH228110   4.729   0.800   3.976  0.3410  0.0540 -0.1457
 2184TIP3    H128111   4.681   0.882   3.969 -0.7334 -0.5727 -0.4568
 2184TIP3    H228112   4.759   0.797   4.067  0.4300  0.8003 -0.1452
 2185TIP3   OH228113   5.881   4.250   4.121 -0.0615 -0.1093 -0.3870
 2185TIP3    H128114   5.870   4.342   4.097  0.2205  0.0218 -0.0192
 2185TIP3    H228115   5.974   4.240   4.138  0.1238 -0.7658 -1.6420
 2186TIP3   OH228116   0.185   0.926   0.019  0.3675 -0.3908 -0.1706
 2186TIP3    H128117   0.104   0.976   0.031  1.0899  0.6556  0.5059
 2186TIP3    H228118   0.156   0.838  -0.004 -0.9549  0.0878 -0.3857
 2187TIP3   OH228119   1.038   1.609   3.313  0.2972 -0.3677  0.4798
 2187TIP3    H128120   1.098   1.641   3.245  0.1080 -0.2299  0.3768
 2187TIP3    H228121   0.963   1.668   3.309  0.6575  0.1680  1.4026
 2188TIP3   OH228122   0.377   4.069   3.043  0.1028  0.2378  0.2971
 2188TIP3    H128123   0.351   4.131   2.975 -0.3859  0.6639  0.8606
 2188TIP3    H228124   0.331   3.988   3.021 -1.0782  0.7427  0.8219
 2189TIP3   OH228125   3.047   2.991   3.695 -0.0297  0.1416 -0.4710
 2189TIP3    H128126   3.065   2.903   3.728  0.4200  0.9011  1.4779
 2189TIP3    H228127   3.084   2.992   3.607  0.7763 -1.3511 -0.1881
 2190TIP3   OH228128   2.940   3.751   8.448  0.3988 -0.0720  0.2099
 2190TIP3    H128129   2.865   3.692   8.462 -0.2524  0.5346 -0.6509
 2190TIP3    H228130   2.901   3.831   8.411  1.3980  0.5070  0.3777
 2191TIP3   OH228131   2.549   4.325   3.046  0.3430  0.6368 -0.4330
 2191TIP3    H128132   2.592   4.340   2.962  0.3096  3.8084 -0.0268
 2191TIP3    H228133   2.582   4.395   3.102  1.3818 -2.1407  2.6969
 2192TIP3   OH228134   2.956   0.327   2.380 -0.6851 -0.2956 -0.6051
 2192TIP3    H128135   3.032   0.385   2.374  1.3506 -2.4717  1.6978
 2192TIP3    H228136   2.889   0.379   2.424  1.1262  0.3765  1.5463
 2193TIP3   OH228137   0.203   5.225   2.260  0.3669 -0.1600  0.2409
 2193TIP3    H128138   0.282   5.189   2.300  0.2143 -0.3990  0.3273
 2193TIP3    H228139   0.210   5.203   2.167  0.3703 -0.2405  0.2602
 2194TIP3   OH228140   2.857   1.713   1.188 -0.1642  0.3209  0.3402
 2194TIP3    H128141   2.851   1.628   1.231 -2.6827 -0.5313 -1.4949
 2194TIP3    H228142   2.891   1.694   1.101 -1.5617  1.0372 -0.3967
 2195TIP3   OH228143   1.455   3.346   1.068 -0.2278  0.0713  0.2542
 2195TIP3    H128144   1.473   3.320   1.158  0.9220 -0.6830 -0.1638
 2195TIP3    H228145   1.380   3.293   1.042 -0.5545  0.2814  0.7560
 2196TIP3   OH228146   6.329   5.102   2.997  0.6319 -0.8222  0.3025
 2196TIP3    H128147   6.362   5.190   3.014 -0.4120 -0.3673  0.0220
 2196TIP3    H228148   6.326   5.061   3.083  1.4821 -0.7260  0.3905
 2197TIP3   OH228149   4.716   2.394   2.038  0.5275  0.7980  0.3783
 2197TIP3    H128150   4.685   2.472   2.085 -0.2799  0.6567  0.0914
 2197TIP3    H228151   4.648   2.377   1.973 -0.3307 -1.2971  1.7086
 2198TIP3   OH228152   1.284   0.368   3.811 -0.1337  0.0236 -0.3603
 2198TIP3    H128153   1.347   0.308   3.850  2.0370  2.2220 -0.2569
 2198TIP3    H228154   1.230   0.396   3.885  0.4736  0.0868  0.0682
 2199TIP3   OH228155   1.088   4.211   1.305 -0.2874  0.0508  0.5821
 2199TIP3    H128156   1.142   4.211   1.384  0.2332 -2.8709  0.3455
 2199TIP3    H228157   1.141   4.258   1.240  1.7763 -2.0919  0.5677
 2200TIP3   OH228158   4.629   6.106   2.683 -0.1014 -0.6085 -0.4270
 2200TIP3    H128159   4.602   6.186   2.638  2.1274  0.4079 -0.1256
 2200TIP3    H228160   4.585   6.036   2.636 -1.4501  0.7166 -1.2524
 2201TIP3   OH228161   6.770   6.235   1.927 -0.1696  0.2877  0.2563
 2201TIP3    H128162   6.859   6.210   1.953  0.8078  0.4252 -2.6013
 2201TIP3    H228163   6.783   6.315   1.875 -1.9425  0.1895 -0.3876
 2202TIP3   OH228164   4.992   4.440   2.071  0.0514  0.2191 -0.1127
 2202TIP3    H128165   4.930   4.484   2.013  0.2049  0.6990  0.0764
 2202TIP3    H228166   4.969   4.472   2.159 -0.5084 -0.8864  0.1571
 2203TIP3   OH228167   3.060   1.940   4.108 -0.9445  0.1677  0.2001
 2203TIP3    H128168   3.104   1.861   4.140 -0.9822 -0.8544 -2.0776
 2203TIP3    H228169   2.976   1.941   4.152 -0.7165 -0.7653  0.6686
 2204TIP3   OH228170   2.137   0.745   0.933  0.5252 -0.3634 -0.1356
 2204TIP3    H128171   2.177   0.797   0.863 -0.7013  2.1555  0.9141
 2204TIP3    H228172   2.082   0.682   0.888 -0.6978  1.5860 -1.5016
 2205TIP3   OH228173   6.861   0.743   1.982 -0.2487 -0.3622 -0.1336
 2205TIP3    H128174   6.822   0.658   1.966 -0.8240 -0.0922 -0.1691
 2205TIP3    H228175   6.814   0.778   2.058  0.1754 -0.1938  0.0601
 2206TIP3   OH228176   4.345   4.304   2.565  0.3439 -0.5270 -0.0288
 2206TIP3    H128177   4.387   4.311   2.651 -1.9710 -1.3879  1.2988
 2206TIP3    H228178   4.322   4.395   2.542  0.6949 -0.3189  0.4290
 2207TIP3   OH228179   5.437   4.277   0.498  0.6574 -0.7165 -0.7943
 2207TIP3    H128180   5.429   4.360   0.544 -0.5013 -1.9983  1.5430
 2207TIP3    H228181   5.357   4.271   0.446  0.7107 -0.3871 -0.9122
 2208TIP3   OH228182   2.275   4.935   2.830  0.3068 -0.0563  0.3082
 2208TIP3    H128183   2.330   4.866   2.867 -2.7586 -3.2566 -0.5416
 2208TIP3    H228184   2.317   4.958   2.747  1.7662 -0.3489  0.9396
 2209TIP3   OH228185   0.167   1.385   1.478  0.0765 -0.6488 -0.5315
 2209TIP3    H128186   0.176   1.427   1.392  0.8168 -1.9630 -1.1320
 2209TIP3    H228187   0.257   1.365   1.504 -0.2883 -4.2536 -1.5491
 2210TIP3   OH228188   2.477   4.131   2.193 -0.1288  0.5099  0.1862
 2210TIP3    H128189   2.484   4.184   2.272  0.1852  0.6688  0.0489
 2210TIP3    H228190   2.482   4.194   2.121 -1.6192  0.5133  0.0486
 2211TIP3   OH228191   0.360   0.738   3.044  0.4901 -0.2597  0.2747
 2211TIP3    H128192   0.418   0.687   2.987  0.8273  0.8636 -0.4290
 2211TIP3    H228193   0.280   0.686   3.049  0.4097 -0.3422 -1.3311
 2212TIP3   OH228194   0.590   1.792   2.305  0.2791 -0.1620 -0.4483
 2212TIP3    H128195   0.592   1.888   2.300 -2.9879  0.0056 -1.0609
 2212TIP3    H228196   0.568   1.773   2.396  0.9645 -0.3713 -0.3175
 2213TIP3   OH228197   2.267   6.428   4.144  0.3018  0.0153 -0.4597
 2213TIP3    H128198   2.219   6.354   4.109 -0.4606  0.7470 -1.0120
 2213TIP3    H228199   2.316   6.463   4.070  3.0114 -1.6403  0.4054
 2214TIP3   OH228200   1.257   0.608   2.076  0.4891 -0.8434  0.3206
 2214TIP3    H128201   1.324   0.661   2.118  0.4292  0.5664 -1.2810
 2214TIP3    H228202   1.257   0.636   1.984 -1.2118 -1.9020 -0.0548
 2215TIP3   OH228203   5.944   5.496   2.964  1.1918 -0.2018  0.1002
 2215TIP3    H128204   6.008   5.433   2.931  1.4165 -0.5890  1.2154
 2215TIP3    H228205   5.991   5.546   3.031 -0.0083 -1.5402  2.0727
 2216TIP3   OH228206   0.303   4.734   0.834  0.7548 -0.2360  0.5801
 2216TIP3    H128207   0.379   4.700   0.881  1.2771 -1.1108 -0.8007
 2216TIP3    H228208   0.339   4.803   0.778  1.0146 -2.0118 -1.6095
 2217TIP3   OH228209   2.034   1.911   1.037 -0.1417 -0.6404  0.3901
 2217TIP3    H128210   2.098   1.883   0.971 -0.0592  0.7686 -0.1659
 2217TIP3    H228211   1.951   1.916   0.988 -0.4786 -1.4141  0.8579
 2218TIP3   OH228212   6.038   4.168   3.801  0.5318  0.2743  0.0082
 2218TIP3    H128213   6.080   4.249   3.831  2.5059 -0.6961  0.0301
 2218TIP3    H228214   6.054   4.166   3.707 -0.2393  0.2956 -0.1289
 2219TIP3   OH228215   4.462   1.207   2.490  0.2028 -0.7041 -0.1658
 2219TIP3    H128216   4.463   1.212   2.395 -2.8820  0.0971 -0.2567
 2219TIP3    H228217   4.545   1.244   2.517 -0.3530  2.6549 -2.4918
 2220TIP3   OH228218   0.279   5.998   4.099 -0.0734 -0.0487 -0.1419
 2220TIP3    H128219   0.278   5.975   4.192  2.0485  1.1330  0.2336
 2220TIP3    H228220   0.196   6.045   4.086  0.1709  0.9155  1.4935
 2221TIP3   OH228221   4.182   2.287   8.406  0.4303  0.1695 -0.0968
 2221TIP3    H128222   4.117   2.354   8.383 -0.5898 -0.5885  0.5200
 2221TIP3    H228223   4.258   2.308   8.351 -1.1844 -0.3677 -2.7407
 2222TIP3   OH228224   2.076   3.486   3.323  0.5258  0.1917  0.2812
 2222TIP3    H128225   2.024   3.543   3.267 -1.2056 -1.6847 -0.1495
 2222TIP3    H228226   2.160   3.478   3.278  0.5103  1.6862 -0.0670
 2223TIP3   OH228227   0.677   5.684   2.531 -0.2059 -0.2191  1.0894
 2223TIP3    H128228   0.642   5.652   2.615 -1.4605 -0.9545  0.3150
 2223TIP3    H228229   0.633   5.767   2.517 -0.8860 -0.6546  0.6075
 2224TIP3   OH228230   2.212   2.679   2.177  0.3399  0.4161  0.1397
 2224TIP3    H128231   2.126   2.653   2.210  0.8653 -2.1796 -0.3274
 2224TIP3    H228232   2.195   2.713   2.089 -0.0329 -2.4263 -0.9688
 2225TIP3   OH228233   0.982   0.382   2.798  0.1675 -0.7006  0.0266
 2225TIP3    H128234   0.987   0.324   2.722  2.6955 -0.6264  0.0295
 2225TIP3    H228235   0.959   0.325   2.871 -1.1648 -0.9782 -0.5895
 2226TIP3   OH228236   4.367   2.500   2.505 -0.2168 -0.8476 -0.3541
 2226TIP3    H128237   4.288   2.541   2.472 -0.8229 -0.7980  1.0882
 2226TIP3    H228238   4.412   2.468   2.427 -1.3971 -0.4279 -1.2320
 2227TIP3   OH228239   3.015   5.100   0.906 -0.2025 -0.0864  0.5007
 2227TIP3    H128240   3.058   5.058   0.981  0.9441 -1.1189 -0.6919
 2227TIP3    H228241   3.030   5.040   0.833  0.6337  1.9053 -1.0552
 2228TIP3   OH228242   1.518   2.818   2.517  0.0047  0.7102  0.3511
 2228TIP3    H128243   1.432   2.777   2.519 -0.1039  0.9422  0.4627
 2228TIP3    H228244   1.524   2.855   2.429  1.0402 -1.5203 -0.5933
 2229TIP3   OH228245   2.791   0.183   4.403 -0.2134  0.3621 -0.4226
 2229TIP3    H128246   2.761   0.198   4.314 -0.9420  1.5050 -0.0080
 2229TIP3    H228247   2.794   0.088   4.412  1.4226  0.1793 -2.1556
 2230TIP3   OH228248   3.361   5.619   0.057 -0.0702  0.0906 -0.0431
 2230TIP3    H128249   3.430   5.592  -0.003  2.3734 -0.1228  2.6787
 2230TIP3    H228250   3.305   5.542   0.065  1.3118 -0.9293  0.2159
 2231TIP3   OH228251   4.845   2.178   0.091 -0.2638 -0.5726  0.4446
 2231TIP3    H128252   4.842   2.112   0.160  0.5155 -1.3137 -0.2118
 2231TIP3    H228253   4.935   2.210   0.092  0.1232 -1.4863 -1.0145
 2232TIP3   OH228254   1.363   5.558   1.210 -0.1957 -0.6055 -0.5148
 2232TIP3    H128255   1.319   5.476   1.188 -0.3909 -0.7354  0.3170
 2232TIP3    H228256   1.292   5.620   1.226 -0.0502 -0.0864 -1.7524
 2233TIP3   OH228257   3.232   4.063   0.133  0.3137 -0.3501 -0.1347
 2233TIP3    H128258   3.308   4.094   0.182  1.8516 -1.9385 -1.4089
 2233TIP3    H228259   3.186   4.143   0.106  1.8474  0.6647  0.1583
 2234TIP3   OH228260   3.838   1.820   0.756  0.0172 -0.2960  0.0937
 2234TIP3    H128261   3.868   1.821   0.847  1.5638  0.1567 -0.3836
 2234TIP3    H228262   3.900   1.876   0.710 -1.6269  0.7193 -0.9945
 2235TIP3   OH228263   6.249   5.998   0.470  0.1488 -0.1412  0.2468
 2235TIP3    H128264   6.179   5.959   0.417  0.9611 -0.2401 -0.7826
 2235TIP3    H228265   6.205   6.066   0.520 -0.4332  1.0180 -1.7089
 2236TIP3   OH228266   3.125   0.985   1.455  0.5113 -0.0973  0.2199
 2236TIP3    H128267   3.149   0.928   1.529  0.9621 -3.1296 -2.0627
 2236TIP3    H228268   3.206   1.032   1.435  1.5831 -2.1675 -0.6510
 2237TIP3   OH228269   0.377   1.345   3.351  0.5471 -0.3285  0.0417
 2237TIP3    H128270   0.330   1.337   3.268 -1.2500  0.7743  0.9020
 2237TIP3    H228271   0.358   1.265   3.398  0.8640 -0.5770 -0.2441
 2238TIP3   OH228272   3.137   3.619   2.675 -0.0883 -0.1525  0.2248
 2238TIP3    H128273   3.161   3.648   2.587 -0.2157  1.0102  0.5635
 2238TIP3    H228274   3.211   3.643   2.730  0.1194 -1.1479  0.3998
 2239TIP3   OH228275   4.533   1.194   2.198 -0.1408  1.0660  0.7333
 2239TIP3    H128276   4.612   1.201   2.144  0.8090  1.2444  2.0917
 2239TIP3    H228277   4.481   1.126   2.155  2.6010 -2.1132  1.9642
 2240TIP3   OH228278   2.248   4.865   2.220  0.3590 -0.1437  0.1920
 2240TIP3    H128279   2.338   4.831   2.215  0.8498  1.2767 -3.1011
 2240TIP3    H228280   2.200   4.815   2.153 -0.4606  1.3065 -0.3409
 2241TIP3   OH228281   2.095   0.830   3.546 -0.4998  0.4070 -0.0927
 2241TIP3    H128282   2.020   0.772   3.562 -0.3345 -0.3887 -1.9999
 2241TIP3    H228283   2.058   0.905   3.500 -0.0781 -0.3049 -1.6623
 2242TIP3   OH228284   2.448   3.944   2.499 -0.4168  0.4670  0.1876
 2242TIP3    H128285   2.476   3.978   2.584  0.3801  0.2202  0.0324
 2242TIP3    H228286   2.422   4.023   2.450 -2.1811  0.4946  1.0952
 2243TIP3   OH228287   0.295   3.663   3.942 -0.2433  0.1782  0.0458
 2243TIP3    H128288   0.240   3.640   4.017  0.1276 -0.9002  0.0122
 2243TIP3    H228289   0.384   3.664   3.978 -0.2277  1.5170  0.0141
 2244TIP3   OH228290   2.172   2.554   3.250  0.7355  0.1780 -0.3185
 2244TIP3    H128291   2.232   2.612   3.297  2.4346 -1.7921  0.0458
 2244TIP3    H228292   2.088   2.566   3.295  1.5068  0.8929  1.0157
 2245TIP3   OH228293   1.976   3.894   2.128  0.0786 -0.3919 -0.1616
 2245TIP3    H128294   1.911   3.939   2.074 -1.0478 -0.8060  0.8105
 2245TIP3    H228295   2.052   3.952   2.127 -1.0541  1.1642  0.4193
 2246TIP3   OH228296   4.256   6.504   1.368  0.3030  0.0214 -0.3372
 2246TIP3    H128297   4.217   6.507   1.281  1.0871 -1.8890 -0.8053
 2246TIP3    H228298   4.308   6.424   1.368 -0.5086 -0.5906  2.2406
 2247TIP3   OH228299   4.354   5.214   3.801  0.0492 -0.2175  0.1593
 2247TIP3    H128300   4.407   5.214   3.722 -1.1284 -1.6777 -0.6841
 2247TIP3    H228301   4.412   5.183   3.870  0.9413  0.5800 -0.2076
 2248TIP3   OH228302   1.208   1.667   1.703  0.0957  0.4543  0.6136
 2248TIP3    H128303   1.239   1.753   1.732 -1.2076  0.7778  1.1127
 2248TIP3    H228304   1.141   1.643   1.767 -0.3872 -0.3970 -0.1952
 2249TIP3   OH228305   4.613   3.960   2.845 -0.6429  0.1284  0.0690
 2249TIP3    H128306   4.706   3.943   2.834 -0.4010 -0.5724  2.6003
 2249TIP3    H228307   4.592   4.024   2.777  1.7989  0.7720 -0.1778
 2250TIP3   OH228308   2.112   2.316   2.909  0.0398 -0.1122  0.3557
 2250TIP3    H128309   2.063   2.397   2.918  0.2163 -0.0399  0.7071
 2250TIP3    H228310   2.057   2.259   2.855 -0.6432 -0.2049  1.1367
 2251TIP3   OH228311   3.815   5.404   2.573 -0.3242  0.1834 -0.6358
 2251TIP3    H128312   3.752   5.453   2.626 -1.1214  0.2216 -1.5837
 2251TIP3    H228313   3.878   5.469   2.543 -0.0689  0.2208 -0.0253
 2252TIP3   OH228314   5.985   1.454   3.495 -0.3323  0.0907  0.0960
 2252TIP3    H128315   6.072   1.493   3.490 -0.7975  1.2181  0.4961
 2252TIP3    H228316   5.932   1.519   3.541 -1.6685 -0.0790 -1.1341
 2253TIP3   OH228317   0.298   4.081   0.259  0.0321  0.1415 -0.6059
 2253TIP3    H128318   0.314   4.022   0.186 -0.1460 -0.1540 -0.4048
 2253TIP3    H228319   0.327   4.167   0.226  0.4868 -0.0877 -0.8223
 2254TIP3   OH228320   4.793   6.333   3.786  0.0260  0.1609  0.2365
 2254TIP3    H128321   4.734   6.407   3.776  0.0153  0.2508  0.9304
 2254TIP3    H228322   4.820   6.335   3.877 -0.4805 -1.0678  0.4391
 2255TIP3   OH228323   4.793   2.731   4.252  0.4785 -0.5619 -0.5404
 2255TIP3    H128324   4.868   2.789   4.242 -1.7424  2.6630 -0.2361
 2255TIP3    H228325   4.816   2.673   4.324  2.5797  0.4297 -0.3532
 2256TIP3   OH228326   4.862   5.518   2.420  0.5871  0.2218  0.0456
 2256TIP3    H128327   4.902   5.466   2.489 -1.0377 -0.0774  0.8074
 2256TIP3    H228328   4.870   5.609   2.450  1.4092  0.2369 -0.2053
 2257TIP3   OH228329   5.504   6.222   2.085 -0.1152  0.0265 -0.4131
 2257TIP3    H128330   5.543   6.215   2.172 -0.8730 -0.1600 -0.0822
 2257TIP3    H228331   5.560   6.285   2.039 -0.5723  1.3123  0.7028
 2258TIP3   OH228332   4.923   2.571   1.757 -0.1592 -0.1027  0.1208
 2258TIP3    H128333   4.899   2.635   1.690  0.0187  0.5524  0.6723
 2258TIP3    H228334   4.987   2.514   1.713 -1.7928 -1.1617 -0.9919
 2259TIP3   OH228335   0.201   2.573   2.353 -0.3476 -0.1684 -0.6697
 2259TIP3    H128336   0.110   2.591   2.330 -0.5363 -0.7083 -0.3410
 2259TIP3    H228337   0.207   2.595   2.446 -0.0701  0.1247 -0.7531
 2260TIP3   OH228338   5.994   0.079   2.231  0.4744  0.2062  0.6375
 2260TIP3    H128339   5.990   0.154   2.291  0.2908  0.0296  0.8504
 2260TIP3    H228340   6.071   0.095   2.177  1.5931 -0.4061  1.9674
 2261TIP3   OH228341   1.272   5.549   0.411  0.2672 -0.2296 -0.7140
 2261TIP3    H128342   1.359   5.586   0.397 -0.9540  2.9215 -0.7595
 2261TIP3    H228343   1.229   5.557   0.325 -0.2480 -1.3679 -0.5873
 2262TIP3   OH228344   0.447   4.071   0.982 -0.7033 -0.4994 -0.5555
 2262TIP3    H128345   0.448   4.161   1.014  0.4830 -0.5250 -0.4878
 2262TIP3    H228346   0.511   4.025   1.036 -0.7300 -1.1979 -1.1007
 2263TIP3   OH228347   2.270   3.935   3.196 -0.3835  0.1599 -0.3509
 2263TIP3    H128348   2.324   3.991   3.250 -1.0063 -0.9261  1.5205
 2263TIP3    H228349   2.267   3.978   3.110  1.6862  1.2917  0.0857
 2264TIP3   OH228350   1.276   0.784   4.121 -0.5139 -0.3990 -0.0086
 2264TIP3    H128351   1.221   0.720   4.165  0.5588 -0.1121  1.8468
 2264TIP3    H228352   1.277   0.860   4.180  2.8029 -0.8553  0.7178
 2265TIP3   OH228353   6.371   3.445   1.264  0.1836 -0.7582 -0.8363
 2265TIP3    H128354   6.393   3.447   1.358  1.7636  0.9023 -1.1875
 2265TIP3    H228355   6.330   3.360   1.252  0.4257 -1.2506  1.2696
 2266TIP3   OH228356   6.815   6.089   8.282  0.1856  0.1907 -0.5006
 2266TIP3    H128357   6.732   6.128   8.252 -0.0037 -0.4314 -0.8055
 2266TIP3    H228358   6.874   6.096   8.207  0.7435  1.5498  0.0411
 2267TIP3   OH228359   6.422   0.482   4.092 -0.7341 -0.2379 -0.0170
 2267TIP3    H128360   6.380   0.450   4.012 -3.5656 -0.3578  1.3814
 2267TIP3    H228361   6.437   0.404   4.144  0.3943 -0.0885 -0.1055
 2268TIP3   OH228362   5.467   4.699   1.827 -0.0159  0.1305 -0.3851
 2268TIP3    H128363   5.402   4.739   1.770  1.5509  1.4184 -1.3424
 2268TIP3    H228364   5.497   4.621   1.779 -0.7967 -0.4544  0.0496
 2269TIP3   OH228365   1.884   5.423   2.202  0.3051 -0.4352 -0.5690
 2269TIP3    H128366   1.858   5.434   2.294  0.0334  0.8950 -0.7782
 2269TIP3    H228367   1.968   5.470   2.195 -1.3067  2.6088 -1.7080
 2270TIP3   OH228368   4.241   0.370   8.322  0.1443  0.3257 -0.2990
 2270TIP3    H128369   4.198   0.454   8.311 -0.5414 -0.1881 -1.7080
 2270TIP3    H228370   4.192   0.326   8.391  0.1902  0.8619  0.0806
 2271TIP3   OH228371   4.234   6.557   3.302 -0.0699 -0.2139 -0.0369
 2271TIP3    H128372   4.214   6.465   3.284 -0.6585 -0.1453  0.2319
 2271TIP3    H228373   4.324   6.569   3.272 -0.1089 -0.7897 -0.3917
 2272TIP3   OH228374   3.782   0.347   3.482  0.0135 -0.4362  0.3985
 2272TIP3    H128375   3.707   0.289   3.500 -0.5534  0.3515  0.6411
 2272TIP3    H228376   3.838   0.297   3.423 -1.1867 -0.6805 -0.5802
 2273TIP3   OH228377   6.874   4.868   1.705 -0.2994  0.1132  0.0151
 2273TIP3    H128378   6.802   4.829   1.755 -0.2828 -0.9148 -0.7202
 2273TIP3    H228379   6.873   4.820   1.622 -0.1738  1.6129 -0.8803
 2274TIP3   OH228380   0.683   3.498   3.413 -0.3547  0.0490  0.4295
 2274TIP3    H128381   0.774   3.489   3.387 -0.6175 -0.0734 -0.4926
 2274TIP3    H228382   0.647   3.562   3.352 -1.1321 -0.6503  0.1469
 2275TIP3   OH228383   0.015   2.318   3.047  0.2359 -0.0483  0.1064
 2275TIP3    H128384  -0.014   2.405   3.018 -0.1905 -0.5977 -1.2375
 2275TIP3    H228385   0.022   2.325   3.142  1.3906  1.8038 -0.0551
 2276TIP3   OH228386   0.488   5.688   1.441 -0.5507 -0.2162  0.1110
 2276TIP3    H128387   0.520   5.770   1.478 -0.4169 -0.7338  1.2046
 2276TIP3    H228388   0.427   5.655   1.506 -0.4331 -1.0920 -0.2053
 2277TIP3   OH228389   4.141   2.615   1.103  0.2719 -0.3889  0.2607
 2277TIP3    H128390   4.129   2.700   1.144  1.1112 -0.0998 -0.0670
 2277TIP3    H228391   4.085   2.618   1.025  1.0573  0.2627 -0.3003
 2278TIP3   OH228392   6.877   6.452   1.852 -0.1889  0.2045  0.2535
 2278TIP3    H128393   6.899   6.526   1.796 -0.2712 -0.3009 -0.4687
 2278TIP3    H228394   6.869   6.489   1.939  0.6036  0.9042  0.0456
 2279TIP3   OH228395   0.485   2.102   1.944  0.7289  0.1919  0.5391
 2279TIP3    H128396   0.565   2.149   1.970 -0.3657  1.1107  2.5089
 2279TIP3    H228397   0.427   2.170   1.911  0.1373 -0.1960  0.7590
 2280TIP3   OH228398   3.808   6.331   0.330 -0.6024  0.3316 -0.3594
 2280TIP3    H128399   3.785   6.284   0.250  1.5711  1.2397 -1.6109
 2280TIP3    H228400   3.769   6.417   0.320  0.3588  0.7268 -0.8858
 2281TIP3   OH228401   3.015   6.119   0.172 -0.0524  0.0996 -0.3910
 2281TIP3    H128402   2.961   6.043   0.194  0.3114 -0.5332 -1.5679
 2281TIP3    H228403   2.992   6.140   0.081 -0.2208  1.4817 -0.0482
 2282TIP3   OH228404   5.589   3.028   3.769  0.2064 -0.0052  0.0778
 2282TIP3    H128405   5.521   2.961   3.758 -0.0679  0.4368 -1.0281
 2282TIP3    H228406   5.669   2.978   3.785 -0.2994 -0.5409  1.0255
 2283TIP3   OH228407   6.272   0.490   3.108  0.4730 -0.4697 -0.1211
 2283TIP3    H128408   6.247   0.415   3.054 -0.4250 -0.3035  0.0500
 2283TIP3    H228409   6.199   0.501   3.169  1.5670 -0.8197  1.3119
 2284TIP3   OH228410   1.662   6.219   4.685  0.0264  0.0828  0.5140
 2284TIP3    H128411   1.647   6.132   4.645 -0.2815  0.4269 -0.1423
 2284TIP3    H228412   1.748   6.213   4.725  0.3635 -0.2702 -0.2481
 2285TIP3   OH228413   6.887   3.771   2.022 -0.0895 -0.4354  0.0008
 2285TIP3    H128414   6.819   3.755   1.956  1.9485 -1.3463 -2.0105
 2285TIP3    H228415   6.896   3.866   2.024 -2.2283 -0.1831  1.2632
 2286TIP3   OH228416   5.967   5.292   2.290  0.0690 -0.9258 -0.3653
 2286TIP3    H128417   5.922   5.362   2.244  0.7289 -0.8421 -0.9057
 2286TIP3    H228418   6.034   5.262   2.228  0.8023 -0.9872  0.4459
 2287TIP3   OH228419   1.292   3.110   2.423 -0.7265 -0.5125 -0.2775
 2287TIP3    H128420   1.251   3.100   2.509 -0.6561  0.5724 -0.1050
 2287TIP3    H228421   1.370   3.163   2.439 -1.0091  0.1788 -1.0786
 2288TIP3   OH228422   0.414   1.598   1.080 -0.5377 -0.4614  0.5573
 2288TIP3    H128423   0.437   1.668   1.018 -0.0296 -1.4633 -0.4323
 2288TIP3    H228424   0.490   1.590   1.137 -0.6451 -0.1316  0.7484
 2289TIP3   OH228425   0.415   6.858   1.849 -1.1307  0.3474 -0.6125
 2289TIP3    H128426   0.472   6.851   1.926 -0.5185 -1.5051 -1.1936
 2289TIP3    H228427   0.352   6.926   1.873 -1.0940 -0.3247  1.6168
 2290TIP3   OH228428   2.825   4.197   1.692  0.3555 -0.1858 -0.7029
 2290TIP3    H128429   2.851   4.278   1.649  1.4760 -0.8324 -1.2583
 2290TIP3    H228430   2.904   4.168   1.738 -0.3204 -0.4452  0.3238
 2291TIP3   OH228431   3.649   4.688   2.807 -0.3703  0.5197  0.0433
 2291TIP3    H128432   3.648   4.645   2.893 -2.0907 -1.0002 -0.6539
 2291TIP3    H228433   3.569   4.741   2.806 -1.5118 -1.1269 -1.3320
 2292TIP3   OH228434   5.742   4.669   1.573  0.2299 -0.3085 -0.5660
 2292TIP3    H128435   5.746   4.626   1.488 -1.5501 -2.7438  0.4416
 2292TIP3    H228436   5.658   4.716   1.572 -0.1354 -0.9283  0.0567
 2293TIP3   OH228437   2.487   2.077   3.849  0.6844 -0.3507  0.6087
 2293TIP3    H128438   2.571   2.095   3.807  1.5796 -1.4044  1.8657
 2293TIP3    H228439   2.488   1.982   3.864 -1.5914 -0.7378 -1.0949
 2294TIP3   OH228440   5.525   1.317   3.818 -0.3859  0.2349 -0.4508
 2294TIP3    H128441   5.452   1.298   3.877  1.0113 -0.8904  0.9974
 2294TIP3    H228442   5.534   1.238   3.765  1.2264 -0.6401  1.0180
 2295TIP3   OH228443   1.960   6.166   3.123 -0.2345 -0.3795  0.2811
 2295TIP3    H128444   1.990   6.131   3.039  0.1828  1.0804 -0.2021
 2295TIP3    H228445   1.945   6.088   3.177  0.9213 -1.2965 -0.6564
 2296TIP3   OH228446   4.431   2.939   1.289 -0.0228 -0.5465 -0.4688
 2296TIP3    H128447   4.464   2.907   1.374 -0.9776  0.5079  0.3374
 2296TIP3    H228448   4.509   2.974   1.245  0.2669  0.2427  0.6223
 2297TIP3   OH228449   5.775   2.237   8.267 -0.0948 -0.2998  0.3366
 2297TIP3    H128450   5.841   2.185   8.220  1.4861  0.6851  1.3913
 2297TIP3    H228451   5.746   2.302   8.203  0.6654 -0.1466  0.1334
 2298TIP3   OH228452   1.485   6.896   1.199 -0.4058  0.1160 -0.0017
 2298TIP3    H128453   1.572   6.906   1.161 -1.3485 -0.0520 -2.4192
 2298TIP3    H228454   1.447   6.984   1.197 -0.8876 -0.0949 -0.6112
 2299TIP3   OH228455   0.125   5.207   1.408  0.1125  0.2966  0.0184
 2299TIP3    H128456   0.076   5.233   1.486  0.9338  0.6605  0.4249
 2299TIP3    H228457   0.057   5.184   1.344 -0.5679 -0.5983  1.0282
 2300TIP3   OH228458   5.303   2.408   2.806 -0.0015 -0.2092 -0.3463
 2300TIP3    H128459   5.273   2.390   2.717  2.7512 -0.5725 -1.3040
 2300TIP3    H228460   5.246   2.355   2.862 -2.1879  0.4871 -1.7789
 2301TIP3   OH228461   3.791   3.715   2.332 -0.2264  0.8644  0.0132
 2301TIP3    H128462   3.857   3.757   2.277  0.9604  0.0081  0.7328
 2301TIP3    H228463   3.840   3.679   2.406 -1.1167 -1.8127 -0.5554
 2302TIP3   OH228464   1.878   0.326   0.800  0.3948  0.5152 -0.0717
 2302TIP3    H128465   1.968   0.360   0.798  1.0624 -0.8305  2.5541
 2302TIP3    H228466   1.833   0.383   0.862 -0.0244  0.0133  0.0896
 2303TIP3   OH228467   5.986   4.120   0.343 -0.3143 -0.1626  0.1199
 2303TIP3    H128468   5.949   4.103   0.257 -1.2339 -0.9888  0.6536
 2303TIP3    H228469   6.079   4.100   0.333 -0.5747 -1.1833 -0.4538
 2304TIP3   OH228470   5.163   3.482   1.457 -0.2824  0.7965 -0.5025
 2304TIP3    H128471   5.138   3.391   1.441  1.2568  0.3445 -0.4981
 2304TIP3    H228472   5.088   3.520   1.504 -0.4903 -0.7776  0.5028
 2305TIP3   OH228473   5.529   5.222   1.771 -0.2359 -0.2746  0.0389
 2305TIP3    H128474   5.494   5.170   1.699 -0.8538  1.4057 -0.9281
 2305TIP3    H228475   5.509   5.312   1.747 -0.0550  0.3635  2.1110
 2306TIP3   OH228476   3.310   1.805   3.739 -0.1697  0.1402 -0.0755
 2306TIP3    H128477   3.403   1.802   3.717 -0.0979 -0.3612  0.2846
 2306TIP3    H228478   3.271   1.860   3.671  0.1514 -0.8014 -1.0522
 2307TIP3   OH228479   0.266   0.900   2.317  0.3170 -0.1833  0.0930
 2307TIP3    H128480   0.228   0.926   2.233  0.7821  1.1846  0.2647
 2307TIP3    H228481   0.339   0.961   2.330 -1.6979  1.9370  2.9874
 2308TIP3   OH228482   5.186   6.092   1.324 -0.1242 -0.0494  0.7120
 2308TIP3    H128483   5.101   6.055   1.345 -0.7958  0.1384 -1.4503
 2308TIP3    H228484   5.183   6.182   1.357 -0.9269  0.0726  0.3293
 2309TIP3   OH228485   2.288   5.806   4.014 -0.0588  0.2321  0.1563
 2309TIP3    H128486   2.338   5.887   3.999 -0.3894  0.2642 -0.8329
 2309TIP3    H228487   2.218   5.832   4.074  2.0104 -0.1647  3.0020
 2310TIP3   OH228488   4.602   2.638   2.096  0.5698  0.6889  0.6634
 2310TIP3    H128489   4.560   2.723   2.115 -1.1271  0.1635 -0.4974
 2310TIP3    H228490   4.678   2.661   2.042 -0.3888  1.4600 -0.4356
 2311TIP3   OH228491   6.639   0.729   3.279  0.2716 -0.1756  0.4911
 2311TIP3    H128492   6.701   0.722   3.351 -0.0564  0.2681  0.8194
 2311TIP3    H228493   6.692   0.711   3.201  0.9871  0.9146  0.6966
 2312TIP3   OH228494   1.534   0.891   1.399  0.3210  0.1526  0.1933
 2312TIP3    H128495   1.443   0.880   1.374 -0.1085 -0.0296  1.7358
 2312TIP3    H228496   1.542   0.983   1.423  0.8059  0.4020 -0.8775
 2313TIP3   OH228497   6.808   4.027   3.092 -0.0511  0.3150  0.2597
 2313TIP3    H128498   6.731   4.036   3.149 -1.0741  0.8627 -1.1482
 2313TIP3    H228499   6.841   3.939   3.112  0.0376  0.7304  2.1509
 2314TIP3   OH228500   3.122   2.103   1.167  0.3741 -0.2012  0.4892
 2314TIP3    H128501   3.185   2.042   1.129  0.6834  0.2241  0.3107
 2314TIP3    H228502   3.109   2.169   1.099  2.5489  1.7754  1.8149
 2315TIP3   OH228503   2.384   4.170   1.642  0.1272 -0.0296 -0.1106
 2315TIP3    H128504   2.360   4.257   1.673 -0.9516 -0.1032 -0.6889
 2315TIP3    H228505   2.302   4.132   1.609  1.1197  0.0532 -3.0067
 2316TIP3   OH228506   4.992   3.934   3.419 -0.5925 -0.4096 -0.5367
 2316TIP3    H128507   4.901   3.905   3.419 -0.1116 -2.0001  0.3572
 2316TIP3    H228508   5.035   3.880   3.352 -0.0448 -0.5656 -0.0650
 2317TIP3   OH228509   0.983   2.862   3.178 -0.6076 -0.3130 -0.1944
 2317TIP3    H128510   1.033   2.783   3.155 -0.6721 -0.5726  0.5241
 2317TIP3    H228511   0.958   2.900   3.094  0.9378 -0.0894 -0.5816
 2318TIP3   OH228512   3.376   5.136   2.891  0.5343  0.8663 -0.2194
 2318TIP3    H128513   3.291   5.138   2.847  0.4101  4.9561 -0.1909
 2318TIP3    H228514   3.370   5.204   2.958  3.1359 -0.2337  1.2970
 2319TIP3   OH228515   2.335   1.668   1.733 -0.0592  0.0606  0.2401
 2319TIP3    H128516   2.412   1.648   1.680  0.6834 -0.7350  1.5675
 2319TIP3    H228517   2.266   1.613   1.696 -0.3295  1.5555 -1.6449
 2320TIP3   OH228518   1.673   0.122   2.165  0.0076 -0.1081 -0.0793
 2320TIP3    H128519   1.595   0.178   2.164 -0.6816 -1.0364 -0.4680
 2320TIP3    H228520   1.744   0.178   2.134 -0.6907  0.5018 -0.6112
 2321TIP3   OH228521   5.313   2.790   0.281 -0.4873 -0.5363  0.4718
 2321TIP3    H128522   5.408   2.796   0.293 -0.2218  3.5679 -1.9504
 2321TIP3    H228523   5.302   2.757   0.192 -1.2285  0.6695  0.0958
 2322TIP3   OH228524   6.030   0.480   3.273  0.8776 -0.1306  0.1755
 2322TIP3    H128525   6.018   0.503   3.365  0.2487  0.2710 -0.0056
 2322TIP3    H228526   5.943   0.452   3.244  1.1444 -0.5765 -0.2141
 2323TIP3   OH228527   2.405   4.545   1.570  0.1194 -0.3214 -0.0615
 2323TIP3    H128528   2.411   4.460   1.527 -0.3641 -0.3142 -0.1459
 2323TIP3    H228529   2.493   4.560   1.605  0.2370 -0.8027 -0.1400
 2324TIP3   OH228530   5.302   6.344   3.790 -0.4225  0.4032 -0.2118
 2324TIP3    H128531   5.396   6.342   3.771 -0.4793  0.7122 -0.5349
 2324TIP3    H228532   5.279   6.436   3.787 -0.1011  0.7158  3.1227
 2325TIP3   OH228533   5.328   2.210   1.182 -0.2207 -0.5558 -0.5175
 2325TIP3    H128534   5.387   2.218   1.257  0.7021  1.5521 -1.3939
 2325TIP3    H228535   5.309   2.300   1.156 -0.8456 -1.2217 -2.5573
 2326TIP3   OH228536   0.043   0.858   0.770  0.2301  0.4899  0.7915
 2326TIP3    H128537  -0.000   0.943   0.764 -0.4649  0.1083  0.2752
 2326TIP3    H228538   0.105   0.857   0.697 -0.4843  0.1578  0.1817
 2327TIP3   OH228539   4.673   4.707   2.132  0.1385 -0.2152  0.3262
 2327TIP3    H128540   4.724   4.661   2.199 -0.1451 -1.3192 -0.1895
 2327TIP3    H228541   4.590   4.726   2.174  1.0564  1.9740  1.3148
 2328TIP3   OH228542   2.212   5.542   0.764 -0.2893  0.4517  0.1531
 2328TIP3    H128543   2.183   5.457   0.731  1.4209 -0.3205  0.4869
 2328TIP3    H228544   2.261   5.521   0.844  2.1006  1.4674 -0.9557
 2329TIP3   OH228545   1.385   6.573   3.664 -0.0004 -0.1921 -0.3327
 2329TIP3    H128546   1.413   6.482   3.654  0.3106 -0.4633  2.2447
 2329TIP3    H228547   1.337   6.574   3.747 -1.4210  1.6942 -1.1205
 2330TIP3   OH228548   3.923   6.375   2.490 -0.2138 -0.5347 -0.9969
 2330TIP3    H128549   3.836   6.409   2.467  0.4070 -0.0853 -2.8848
 2330TIP3    H228550   3.958   6.342   2.407  1.9279  0.4667 -0.5668
 2331TIP3   OH228551   3.513   3.311   0.426 -0.2838  0.2811 -0.5223
 2331TIP3    H128552   3.577   3.274   0.365 -1.2428 -1.5232 -0.5278
 2331TIP3    H228553   3.429   3.299   0.382 -0.6934  2.4287 -0.4284
 2332TIP3   OH228554   4.741   6.562   2.678 -0.4679  0.0959 -0.0270
 2332TIP3    H128555   4.732   6.482   2.730  0.4367  0.6723  1.0491
 2332TIP3    H228556   4.668   6.617   2.706  0.6290  0.8415  1.4769
 2333TIP3   OH228557   4.419   6.530   1.618  0.7681  0.3730 -0.0434
 2333TIP3    H128558   4.338   6.487   1.590 -0.0830  1.4037  0.7230
 2333TIP3    H228559   4.482   6.513   1.548 -0.5987  0.9401 -1.4666
 2334TIP3   OH228560   6.323   4.868   3.230 -0.3345  0.2104  0.5089
 2334TIP3    H128561   6.324   4.810   3.154  0.1808  0.6603  0.1583
 2334TIP3    H228562   6.268   4.824   3.294 -0.7512 -0.1934 -0.1168
 2335TIP3   OH228563   0.770   5.865   2.809 -0.2627  0.1693 -0.0187
 2335TIP3    H128564   0.751   5.950   2.769  1.9438  1.1480  0.8319
 2335TIP3    H228565   0.703   5.855   2.877 -0.3374  1.4357  0.1213
 2336TIP3   OH228566   3.976   0.985   2.277 -0.1224 -0.2186  0.0807
 2336TIP3    H128567   3.916   0.911   2.285 -1.4567  0.8800  0.4455
 2336TIP3    H228568   3.967   1.033   2.359  1.8258 -0.4234  0.4711
 2337TIP3   OH228569   4.161   4.947   3.907  0.2707  0.2257  0.0447
 2337TIP3    H128570   4.213   4.867   3.905 -0.4725 -0.2708  0.3016
 2337TIP3    H228571   4.071   4.918   3.897 -0.0993  0.9459  1.0793
 2338TIP3   OH228572   1.268   1.437   1.016  0.2200 -0.2273  0.7164
 2338TIP3    H128573   1.306   1.353   1.041 -0.4328 -0.8297 -0.2503
 2338TIP3    H228574   1.338   1.482   0.970 -0.3446 -1.6152 -1.6700
 2339TIP3   OH228575   5.457   1.570   2.223  0.2257  0.2444  0.2060
 2339TIP3    H128576   5.478   1.575   2.129 -1.4772 -0.9263 -0.2794
 2339TIP3    H228577   5.541   1.549   2.265  0.9782  0.5998 -1.0553
 2340TIP3   OH228578   2.493   0.108   2.475  0.8543 -0.3973  0.1078
 2340TIP3    H128579   2.464   0.026   2.515  1.4186 -0.5311  0.2505
 2340TIP3    H228580   2.467   0.176   2.536 -0.8166 -0.3308 -0.6289
 2341TIP3   OH228581   4.800   5.724   1.070 -0.1219 -0.0520 -0.2439
 2341TIP3    H128582   4.738   5.790   1.099 -0.0404 -0.3747  0.7113
 2341TIP3    H228583   4.749   5.643   1.064  0.1157 -0.2339  0.1497
 2342TIP3   OH228584   6.526   4.896   0.915  0.2075 -0.1310 -0.3181
 2342TIP3    H128585   6.440   4.937   0.915 -0.7182 -1.9430  1.2338
 2342TIP3    H228586   6.546   4.881   1.008  2.2401  0.2704 -0.6274
 2343TIP3   OH228587   0.499   0.791   2.109 -0.0511 -0.3769  0.1652
 2343TIP3    H128588   0.521   0.828   2.195  0.0418  0.2635 -0.1214
 2343TIP3    H228589   0.563   0.722   2.096  2.5633  2.0794 -1.0761
 2344TIP3   OH228590   3.305   1.949   2.892 -0.0337 -0.5669  0.3870
 2344TIP3    H128591   3.239   1.889   2.925  0.3813 -0.0696  2.2400
 2344TIP3    H228592   3.297   2.027   2.948  0.4724  0.4782 -0.9516
 2345TIP3   OH228593   1.420   2.209   1.304 -0.0142  0.6718 -0.1237
 2345TIP3    H128594   1.407   2.115   1.292  1.8741  0.1851  1.1641
 2345TIP3    H228595   1.515   2.220   1.305 -0.1975  2.6421 -0.4934
 2346TIP3   OH228596   4.149   5.968   0.978  0.2965  0.2512 -0.0268
 2346TIP3    H128597   4.060   5.933   0.974  0.5769 -0.5543  0.5584
 2346TIP3    H228598   4.142   6.054   0.937 -0.3485 -0.5807 -1.7751
 2347TIP3   OH228599   0.642   1.250   3.375  0.2783 -0.4496  0.1957
 2347TIP3    H128600   0.655   1.158   3.354 -1.8827 -0.9938  0.8859
 2347TIP3    H228601   0.622   1.250   3.469  2.5322  1.0366  0.7569
 2348TIP3   OH228602   1.244   1.329   3.574 -0.1461 -0.2928 -0.0829
 2348TIP3    H128603   1.218   1.239   3.556 -1.6617  0.3486 -1.3945
 2348TIP3    H228604   1.162   1.372   3.601  0.6484  0.5790  1.0160
 2349TIP3   OH228605   4.306   2.512   4.109  0.3561 -0.0210 -0.5827
 2349TIP3    H128606   4.282   2.430   4.066  0.4937 -0.6366  0.4682
 2349TIP3    H228607   4.227   2.567   4.103 -0.9458 -1.4755  1.5543
 2350TIP3   OH228608   3.185   3.161   3.894  0.1310 -0.0581 -0.8044
 2350TIP3    H128609   3.126   3.119   3.832 -1.3596  1.1282 -0.2475
 2350TIP3    H228610   3.183   3.104   3.971 -0.9064  0.3408 -0.5141
 2351TIP3   OH228611   4.254   1.597   1.470 -0.2017  0.1763  0.0778
 2351TIP3    H128612   4.347   1.615   1.463 -0.0744 -0.8089 -0.9776
 2351TIP3    H228613   4.245   1.551   1.554  0.2469  0.3540  0.2241
 2352TIP3   OH228614   2.259   1.669   3.067  0.1610  0.3902  0.0842
 2352TIP3    H128615   2.327   1.629   3.012  0.0552 -0.0950  0.3003
 2352TIP3    H228616   2.180   1.667   3.013  0.2154  0.5410 -0.0007
 2353TIP3   OH228617   0.636   0.143   2.902 -0.2688  0.3574 -0.2278
 2353TIP3    H128618   0.579   0.196   2.846  0.5371  2.2662  0.6441
 2353TIP3    H228619   0.582   0.069   2.928 -1.6774  1.0544 -1.0277
 2354TIP3   OH228620   1.363   5.467   3.990 -0.2886  0.3019  0.7567
 2354TIP3    H128621   1.318   5.394   3.949 -0.9278  0.8282  0.5044
 2354TIP3    H228622   1.293   5.529   4.013 -0.0659 -0.2820  3.3065
 2355TIP3   OH228623   0.844   3.059   4.585  0.2296  0.2884  0.9775
 2355TIP3    H128624   0.801   3.015   4.658 -0.3903  0.2439  0.5879
 2355TIP3    H228625   0.774   3.076   4.522  0.6312  0.9587  0.7000
 2356TIP3   OH228626   6.149   3.593   1.160  0.2719  0.4958  0.7185
 2356TIP3    H128627   6.204   3.556   1.229 -1.0643 -0.7915  1.1385
 2356TIP3    H228628   6.127   3.681   1.193  1.1224  0.5986  1.0571
 2357TIP3   OH228629   6.771   4.387   3.740 -0.2745  0.0182 -0.2585
 2357TIP3    H128630   6.794   4.435   3.819 -0.7838 -0.1320 -0.0167
 2357TIP3    H228631   6.724   4.310   3.771 -2.5111  1.0875 -0.7970
 2358TIP3   OH228632   2.113   4.358   0.447 -0.0809  0.1153  0.0737
 2358TIP3    H128633   2.176   4.371   0.517  0.2486 -1.6636  0.1572
 2358TIP3    H228634   2.165   4.347   0.368 -0.2361 -1.4442  0.1551
 2359TIP3   OH228635   4.487   1.980   0.768  0.1668  0.1324 -0.0087
 2359TIP3    H128636   4.396   1.954   0.785  1.0872 -2.4522  1.5122
 2359TIP3    H228637   4.494   2.068   0.806 -1.7916  0.6145 -0.6308
 2360TIP3   OH228638   0.622   5.380   1.860  0.4374 -0.4408 -0.1097
 2360TIP3    H128639   0.530   5.355   1.867  0.6531 -1.3109 -0.2505
 2360TIP3    H228640   0.651   5.342   1.777  0.4507  1.4187 -0.9975
 2361TIP3   OH228641   0.701   1.349   1.771 -0.1062  0.2185 -0.3562
 2361TIP3    H128642   0.756   1.324   1.845 -0.4405  0.1624 -0.1247
 2361TIP3    H228643   0.714   1.444   1.762 -0.2117  0.2579 -0.1026
 2362TIP3   OH228644   3.564   5.727   1.618  0.2760 -0.0164  0.1482
 2362TIP3    H128645   3.589   5.699   1.706  0.1065  0.2735  0.2933
 2362TIP3    H228646   3.645   5.724   1.568  0.3298 -0.4010  0.2553
 2363TIP3   OH228647   5.239   0.006   2.184  0.2994 -0.0672 -0.0684
 2363TIP3    H128648   5.333   0.021   2.186  0.4415 -0.9142  0.0293
 2363TIP3    H228649   5.214   0.001   2.277  0.8531 -3.7371  0.0410
 2364TIP3   OH228650   2.043   1.318   4.203 -0.3223 -0.3899 -0.1410
 2364TIP3    H128651   2.009   1.407   4.197  0.3814  0.0452  1.6069
 2364TIP3    H228652   2.026   1.292   4.294 -1.5343 -2.4894 -0.8900
 2365TIP3   OH228653   5.657   5.339   3.487  0.1231  0.2433  0.1937
 2365TIP3    H128654   5.695   5.257   3.518 -0.2282 -0.1507 -0.4082
 2365TIP3    H228655   5.669   5.400   3.560  1.9829  0.1647  0.0119
 2366TIP3   OH228656   1.160   0.436   2.447 -0.6515  0.1078  0.2038
 2366TIP3    H128657   1.239   0.387   2.472 -1.1151 -1.4241 -1.1909
 2366TIP3    H228658   1.140   0.489   2.525  0.6969 -0.8339  1.2508
 2367TIP3   OH228659   6.478   0.598   8.149 -0.4668 -0.0958  0.0933
 2367TIP3    H128660   6.424   0.657   8.202  0.2685 -0.0074  0.7502
 2367TIP3    H228661   6.424   0.520   8.138 -2.1352  1.2464 -2.1450
 2368TIP3   OH228662   2.049   3.505   4.294 -0.4747  0.2932  0.4502
 2368TIP3    H128663   1.977   3.562   4.266  0.1443  1.4664  1.1503
 2368TIP3    H228664   2.009   3.419   4.306 -1.1521  0.1536 -2.0998
 2369TIP3   OH228665   2.266   1.423   1.286  0.0099  0.0611 -0.4667
 2369TIP3    H128666   2.354   1.388   1.301 -0.0890 -0.2850 -0.7018
 2369TIP3    H228667   2.276   1.518   1.299  0.3936  0.0098 -0.3799
 2370TIP3   OH228668   4.323   2.425   4.641 -0.2744  0.1544 -0.6404
 2370TIP3    H128669   4.407   2.466   4.660 -0.6296  0.4939  0.2628
 2370TIP3    H228670   4.330   2.337   4.678 -0.4833  0.3553 -0.1040
 2371TIP3   OH228671   6.137   5.774   0.896 -0.2202 -0.5505 -0.7551
 2371TIP3    H128672   6.065   5.718   0.868 -1.3354  0.7156 -0.5442
 2371TIP3    H228673   6.171   5.813   0.815  0.2002 -1.1087 -0.8500
 2372TIP3   OH228674   6.498   0.375   0.719  0.2536  0.5085  0.4614
 2372TIP3    H128675   6.557   0.299   0.715 -0.3523  0.0640 -1.0362
 2372TIP3    H228676   6.532   0.434   0.652  0.0663  1.0685  0.8558
 2373TIP3   OH228677   5.078   0.800   2.732 -0.1259  0.0091  0.1803
 2373TIP3    H128678   5.049   0.804   2.823  1.0582 -1.7577  0.6631
 2373TIP3    H228679   5.169   0.828   2.734 -0.4219  1.1424 -0.6770
 2374TIP3   OH228680   6.371   6.576   3.320  0.8404 -0.0274  0.0941
 2374TIP3    H128681   6.353   6.554   3.411 -1.2163  0.4082 -0.1571
 2374TIP3    H228682   6.351   6.497   3.271 -0.8367  0.5541 -0.2235
 2375TIP3   OH228683   1.386   2.778   4.162 -0.2206 -0.3133  0.1442
 2375TIP3    H128684   1.473   2.767   4.124 -0.6728  2.4715 -2.0207
 2375TIP3    H228685   1.337   2.702   4.131  0.2509  0.3872 -2.6239
 2376TIP3   OH228686   4.177   0.982   1.764 -0.7694  0.7178  0.2185
 2376TIP3    H128687   4.142   0.978   1.675 -0.6038  0.3645  0.1675
 2376TIP3    H228688   4.267   0.950   1.756 -0.8025  0.5406  0.5364
 2377TIP3   OH228689   5.610   4.399   3.329  0.2893 -0.5130 -0.1050
 2377TIP3    H128690   5.545   4.462   3.297 -0.5448  0.4679  3.1517
 2377TIP3    H228691   5.693   4.447   3.328  0.6576 -1.0908 -2.3021
 2378TIP3   OH228692   2.999   0.084   0.877  0.1281 -0.1100  0.1771
 2378TIP3    H128693   2.975   0.042   0.960 -0.0349 -2.0410 -0.7995
 2378TIP3    H228694   3.064   0.026   0.839 -0.3189  0.3745 -1.3833
 2379TIP3   OH228695   3.177   2.851   0.413  0.2020  0.0684  0.1799
 2379TIP3    H128696   3.218   2.929   0.450 -1.4884  1.0366  0.1369
 2379TIP3    H228697   3.197   2.857   0.319 -0.8476  1.1076 -0.0106
 2380TIP3   OH228698   3.202   4.556   2.861 -0.0104  0.1413  0.3561
 2380TIP3    H128699   3.124   4.608   2.881  1.2813  2.5474 -0.4525
 2380TIP3    H228700   3.202   4.548   2.766 -0.2968 -1.6241  0.4740
 2381TIP3   OH228701   6.744   0.120   3.257 -0.3140 -0.0334 -0.0190
 2381TIP3    H128702   6.688   0.103   3.182  1.8715  0.9289 -1.9742
 2381TIP3    H228703   6.772   0.033   3.286  1.5244 -0.4056 -2.5713
 2382TIP3   OH228704   2.712   6.647   3.382  1.0255  0.1540 -0.1430
 2382TIP3    H128705   2.700   6.639   3.288  0.6246 -1.1247 -0.0069
 2382TIP3    H228706   2.788   6.704   3.392  2.3944 -1.3501 -1.3123
 2383TIP3   OH228707   0.306   0.240   0.272 -0.1193 -0.0947 -0.2598
 2383TIP3    H128708   0.315   0.305   0.202 -1.2009  0.8990  0.4816
 2383TIP3    H228709   0.221   0.259   0.311 -0.1757 -1.5867  0.3822
 2384TIP3   OH228710   1.482   0.317   0.175  0.0088  0.5356 -0.2493
 2384TIP3    H128711   1.400   0.367   0.172  1.2277  2.6874  0.1023
 2384TIP3    H228712   1.488   0.274   0.089 -0.5999  1.8765 -0.9877
 2385TIP3   OH228713   2.082   5.893   0.281 -0.4905  0.1763 -0.6361
 2385TIP3    H128714   1.994   5.925   0.260  0.0850  1.0273 -1.9286
 2385TIP3    H228715   2.077   5.866   0.373 -2.6974 -1.9534 -1.2745
 2386TIP3   OH228716   1.896   1.978   3.378 -0.1123  0.3991  0.4503
 2386TIP3    H128717   1.955   2.050   3.353  1.1654 -0.8703 -0.3949
 2386TIP3    H228718   1.884   1.929   3.297  0.3066 -1.1941  1.3126
 2387TIP3   OH228719   6.247   4.747   1.465  0.5080  0.5187  0.0927
 2387TIP3    H128720   6.232   4.684   1.535  0.0113  1.3616  0.7595
 2387TIP3    H228721   6.196   4.824   1.490  3.0021  2.1440  0.5647
 2388TIP3   OH228722   0.340   1.201   1.274  0.1335 -0.3833  0.0837
 2388TIP3    H128723   0.389   1.204   1.192 -0.3056 -1.9232 -0.2812
 2388TIP3    H228724   0.248   1.203   1.248 -0.0228 -1.5264  0.4542
 2389TIP3   OH228725   2.601   6.263   0.121  0.4040  0.2568  0.3617
 2389TIP3    H128726   2.658   6.233   0.050  1.2635 -1.6165  1.7730
 2389TIP3    H228727   2.558   6.184   0.153 -0.6849  1.1993  1.3413
 2390TIP3   OH228728   2.603   6.490   0.330 -0.4013  0.1345 -0.1758
 2390TIP3    H128729   2.669   6.525   0.390 -0.1417 -1.2760  0.4069
 2390TIP3    H228730   2.530   6.463   0.387 -0.5035 -0.4474 -0.5706
 2391TIP3   OH228731   6.921   2.974   3.769  0.2642 -0.9204  0.2340
 2391TIP3    H128732   6.901   3.019   3.851  0.8279 -0.1234 -0.0507
 2391TIP3    H228733   7.015   2.985   3.758  0.1832 -0.9704 -0.5565
 2392TIP3   OH228734   2.197   6.026   1.741  0.2225  0.3028 -0.2441
 2392TIP3    H128735   2.278   5.976   1.728  0.3148 -0.0553  1.4326
 2392TIP3    H228736   2.140   6.000   1.669  1.1795 -0.3465 -0.7811
 2393TIP3   OH228737   3.127   4.979   1.145 -0.1873  0.3169 -0.8059
 2393TIP3    H128738   3.118   5.044   1.215  0.4666  0.6520 -1.0260
 2393TIP3    H228739   3.076   4.904   1.175  0.3449  0.3334  0.1722
 2394TIP3   OH228740   3.640   6.317   1.200  0.0597 -0.8899  0.2811
 2394TIP3    H128741   3.599   6.322   1.286 -3.4740 -2.5624 -1.1172
 2394TIP3    H228742   3.584   6.369   1.143  1.1293 -1.4920 -1.3983
 2395TIP3   OH228743   4.214   3.404   0.385  0.7039 -0.5926 -0.2072
 2395TIP3    H128744   4.258   3.338   0.332  1.4080  0.1701 -0.5960
 2395TIP3    H228745   4.266   3.484   0.373  0.6809 -0.3129  1.3481
 2396TIP3   OH228746   5.692   0.035   0.331 -0.4482 -0.2194 -0.4578
 2396TIP3    H128747   5.787   0.049   0.333 -0.5979  0.7478  0.2404
 2396TIP3    H228748   5.662   0.087   0.257 -0.2526 -1.9234 -1.8188
 2397TIP3   OH228749   3.402   2.966   2.299 -0.1564 -0.1031  0.1236
 2397TIP3    H128750   3.369   3.054   2.318  2.4607  0.4936  2.5571
 2397TIP3    H228751   3.393   2.918   2.382  0.4929 -1.4239 -0.5371
 2398TIP3   OH228752   1.079   2.385   2.832 -0.0893  0.0857 -0.6467
 2398TIP3    H128753   1.014   2.453   2.847 -0.6958 -0.2547 -1.6484
 2398TIP3    H228754   1.076   2.369   2.737  0.9784 -0.3989 -0.6130
 2399TIP3   OH228755   0.163   3.785   4.618  0.2980  0.1279 -0.0755
 2399TIP3    H128756   0.237   3.845   4.632  1.2030 -1.0953  0.6399
 2399TIP3    H228757   0.142   3.753   4.706 -0.9068  0.2398 -0.3161
 2400TIP3   OH228758   2.428   6.013   1.055 -0.1527  0.1295  0.2999
 2400TIP3    H128759   2.379   6.095   1.047  0.6100  0.5524 -0.0970
 2400TIP3    H228760   2.469   6.001   0.970  0.6496 -0.0782  0.7143
 2401TIP3   OH228761   0.007   2.353   8.362  0.2279 -0.1914 -0.5988
 2401TIP3    H128762  -0.065   2.399   8.404  1.5562  2.0447 -0.6089
 2401TIP3    H228763  -0.000   2.263   8.394 -0.6522  0.6975  1.9695
 2402TIP3   OH228764   3.635   5.498   3.100 -0.3745  0.7815  0.1379
 2402TIP3    H128765   3.707   5.470   3.044  0.7826  0.5570  1.6903
 2402TIP3    H228766   3.643   5.444   3.179 -2.8276  0.0532 -0.0046
 2403TIP3   OH228767   6.206   2.434   3.835  0.4630 -0.3328  0.0346
 2403TIP3    H128768   6.114   2.459   3.848  0.1046 -1.3805 -0.4126
 2403TIP3    H228769   6.203   2.343   3.808  1.6305 -0.2991 -0.2751
 2404TIP3   OH228770   4.259   4.471   1.840  0.2097 -0.4152 -0.0397
 2404TIP3    H128771   4.288   4.403   1.779  1.4814  2.4056 -2.8682
 2404TIP3    H228772   4.199   4.525   1.789 -0.1210  1.0866  1.8194
 2405TIP3   OH228773   0.295   6.212   1.511  0.0144  0.5528  0.3372
 2405TIP3    H128774   0.257   6.162   1.583  1.3051  0.7986  1.2234
 2405TIP3    H228775   0.351   6.277   1.553  2.1609 -0.3858 -0.8950
 2406TIP3   OH228776   4.158   1.183   0.255 -0.1128  0.4063 -0.1906
 2406TIP3    H128777   4.207   1.197   0.336 -0.1178 -2.3538  0.4111
 2406TIP3    H228778   4.217   1.132   0.200 -1.0397  0.0052 -0.8373
 2407TIP3   OH228779   0.109   3.925   8.436 -0.0206 -0.0726 -0.0869
 2407TIP3    H128780   0.187   3.979   8.421 -0.4270  1.0349  1.5025
 2407TIP3    H228781   0.038   3.973   8.393 -0.0197 -0.5130 -0.5876
 2408TIP3   OH228782   5.932   6.434   2.426 -0.1842 -0.2395 -0.3783
 2408TIP3    H128783   5.972   6.499   2.483 -0.4843 -1.0653  0.8197
 2408TIP3    H228784   5.909   6.362   2.485 -0.1826 -1.2798 -1.6035
 2409TIP3   OH228785   4.402   3.985   0.755  0.3288 -0.1179 -0.2161
 2409TIP3    H128786   4.396   3.926   0.680 -2.7953  1.5425 -1.4727
 2409TIP3    H228787   4.358   3.937   0.826 -1.9606  0.4342 -1.1539
 2410TIP3   OH228788   0.865   2.546   1.774 -0.3413 -0.3330  0.3587
 2410TIP3    H128789   0.858   2.475   1.839 -2.0164  0.0233  0.6102
 2410TIP3    H228790   0.940   2.598   1.804  0.2492 -1.3749  0.7780
 2411TIP3   OH228791   6.488   1.633   0.279  0.4471 -0.0700 -0.3596
 2411TIP3    H128792   6.562   1.626   0.219 -0.1972  0.8367 -1.2877
 2411TIP3    H228793   6.420   1.579   0.239  0.7117 -1.2337  0.7022
 2412TIP3   OH228794   3.935   5.861   1.658 -0.1387 -0.0096 -0.3407
 2412TIP3    H128795   3.884   5.889   1.581 -1.4996 -0.5825  0.3207
 2412TIP3    H228796   3.881   5.795   1.700  1.2118 -0.7073  0.3692
 2413TIP3   OH228797   3.185   3.291   1.539  0.0479  0.1865 -0.1162
 2413TIP3    H128798   3.171   3.373   1.492 -2.3036 -0.1952 -0.2171
 2413TIP3    H228799   3.237   3.237   1.480 -0.2000  0.8472 -0.9487
 2414TIP3   OH228800   6.931   0.337   1.523 -0.6717  0.2250  0.4863
 2414TIP3    H128801   6.872   0.358   1.451 -1.1816  0.4965  0.9801
 2414TIP3    H228802   6.955   0.245   1.509  0.6302  0.7393 -1.0195
 2415TIP3   OH228803   2.023   3.846   2.603  0.1999 -0.0109 -0.4184
 2415TIP3    H128804   1.951   3.852   2.667 -0.0929 -3.3508 -0.2685
 2415TIP3    H228805   1.983   3.809   2.525  1.2980  0.4988 -1.2472
 2416TIP3   OH228806   0.507   4.058   1.617 -0.4148  0.0695  0.4982
 2416TIP3    H128807   0.556   4.130   1.656  0.5050 -0.1585 -0.1968
 2416TIP3    H228808   0.498   4.082   1.525  0.1011 -0.8080  0.2100
 2417TIP3   OH228809   6.099   3.997   0.885  0.0620  0.4227 -0.3382
 2417TIP3    H128810   6.152   3.982   0.963  1.4736 -1.0741 -1.5242
 2417TIP3    H228811   6.054   4.080   0.902  0.5352  0.2650  1.9309
 2418TIP3   OH228812   5.706   6.606   2.570  0.1576  0.1335  0.3647
 2418TIP3    H128813   5.665   6.609   2.657  1.2634  0.2104  0.8920
 2418TIP3    H228814   5.746   6.519   2.566  0.1637  0.1558 -0.0425
 2419TIP3   OH228815   2.594   4.696   3.871 -0.7364  0.2787  0.0441
 2419TIP3    H128816   2.503   4.666   3.861 -0.2066 -1.0584 -1.0306
 2419TIP3    H228817   2.621   4.721   3.783  0.0771  0.2806  0.2912
 2420TIP3   OH228818   2.157   5.688   1.800 -0.6709  0.1198  0.3492
 2420TIP3    H128819   2.103   5.733   1.866 -1.3235  1.2902 -0.9354
 2420TIP3    H228820   2.237   5.740   1.796 -1.6339  1.5883 -1.5098
 2421TIP3   OH228821   0.335   2.864   1.432  0.4578 -0.0165 -0.2372
 2421TIP3    H128822   0.332   2.909   1.348  2.9289  0.4717 -0.1345
 2421TIP3    H228823   0.349   2.933   1.496 -0.5591 -0.4774  0.5126
 2422TIP3   OH228824   6.467   0.637   0.560  0.0755  0.1803 -0.9239
 2422TIP3    H128825   6.548   0.687   0.569 -0.8312  1.4700  0.4940
 2422TIP3    H228826   6.398   0.696   0.592 -1.0570 -1.8882  0.7317
 2423TIP3   OH228827   3.506   5.614   8.208  0.3693 -0.3686 -0.1048
 2423TIP3    H128828   3.574   5.660   8.157  0.4787  1.4079  1.5124
 2423TIP3    H228829   3.514   5.523   8.182  3.7240 -0.3188  0.3500
 2424TIP3   OH228830   3.764   4.666   0.248  0.3142  0.3733 -0.7495
 2424TIP3    H128831   3.777   4.705   0.335  0.6549 -3.8953  1.3662
 2424TIP3    H228832   3.852   4.651   0.215  0.1961  1.1045 -1.4055
 2425TIP3   OH228833   3.886   5.017   0.677 -0.0010 -0.2097  0.5827
 2425TIP3    H128834   3.915   4.942   0.729  0.0523 -0.6630 -0.0787
 2425TIP3    H228835   3.853   5.080   0.741  0.5128 -0.5514  1.1926
 2426TIP3   OH228836   2.530   5.048   0.787  0.1418  0.1633 -0.3950
 2426TIP3    H128837   2.581   5.089   0.857 -1.2590 -1.0621  1.4345
 2426TIP3    H228838   2.594   4.999   0.735  1.1049  0.4564  0.4901
 2427TIP3   OH228839   0.432   4.237   2.218 -0.1057 -0.0899 -0.2118
 2427TIP3    H128840   0.389   4.151   2.223 -1.0794  0.4105  0.5315
 2427TIP3    H228841   0.367   4.294   2.176  0.6634  0.2106 -1.0129
 2428TIP3   OH228842   6.271   5.491   1.292 -0.2133  0.2937 -0.6591
 2428TIP3    H128843   6.367   5.498   1.292 -0.1465 -0.4305  0.4934
 2428TIP3    H228844   6.242   5.564   1.237  0.8967  2.4414  1.4365
 2429TIP3   OH228845   6.748   4.895   2.515  0.3151  0.1474  0.4205
 2429TIP3    H128846   6.665   4.925   2.552  0.5266  0.7343  0.4296
 2429TIP3    H228847   6.797   4.861   2.590  0.0234 -0.3492  0.3902
 2430TIP3   OH228848   6.470   6.906   1.009 -0.6724  0.5500  0.4500
 2430TIP3    H128849   6.546   6.964   1.007 -1.4266  1.5386 -1.4105
 2430TIP3    H228850   6.498   6.828   0.962  0.0005 -0.2289  2.0557
 2431TIP3   OH228851   3.694   2.922   3.327  0.2967 -0.8524  0.0991
 2431TIP3    H128852   3.638   2.872   3.267  0.4319 -0.7924 -0.0795
 2431TIP3    H228853   3.691   2.873   3.409 -1.2928 -0.0035  0.5870
 2432TIP3   OH228854   0.537   3.222   1.811 -0.0850 -0.0534 -0.5849
 2432TIP3    H128855   0.544   3.317   1.822 -1.3110  0.1953 -1.6613
 2432TIP3    H228856   0.448   3.201   1.837  0.0110 -0.8348 -0.8570
 2433TIP3   OH228857   2.125   3.509   2.060 -0.0053 -0.1261  0.2156
 2433TIP3    H128858   2.172   3.565   1.998  0.4957  1.2446  1.7646
 2433TIP3    H228859   2.054   3.471   2.008 -0.7148  2.4009 -0.8453
 2434TIP3   OH228860   5.930   5.842   1.436  0.4046 -0.1688  0.0967
 2434TIP3    H128861   5.946   5.764   1.382  1.2840  0.2114 -0.1997
 2434TIP3    H228862   5.928   5.808   1.525 -3.0011 -1.1306 -0.1969
 2435TIP3   OH228863   1.441   1.405   0.086  0.2622  0.3786  0.1537
 2435TIP3    H128864   1.493   1.353   0.024  0.0833 -0.3220  0.5762
 2435TIP3    H228865   1.356   1.362   0.088  0.7036 -0.5063  1.9611
 2436TIP3   OH228866   5.041   5.001   2.973 -0.6253 -0.6080  0.1774
 2436TIP3    H128867   5.023   4.955   3.055  1.5473  0.4797  1.3527
 2436TIP3    H228868   5.126   4.968   2.945  0.7030  2.0887  0.7179
 2437TIP3   OH228869   2.397   5.873   2.391  0.0062  0.4644 -0.1699
 2437TIP3    H128870   2.481   5.865   2.437 -0.4226 -0.4006  0.4828
 2437TIP3    H228871   2.334   5.894   2.459 -0.3705  0.8379 -0.6215
 2438TIP3   OH228872   1.137   5.488   1.512 -0.8863 -0.3760  0.2528
 2438TIP3    H128873   1.079   5.550   1.468  1.5375  0.4942 -1.9892
 2438TIP3    H228874   1.152   5.419   1.448  1.2609 -0.0436  0.3064
 2439TIP3   OH228875   1.472   1.182   0.891 -0.8633  0.0324 -0.0826
 2439TIP3    H128876   1.500   1.206   0.980 -1.2120  1.7944 -0.4213
 2439TIP3    H228877   1.447   1.090   0.899  1.4293 -0.5708  1.0667
 2440TIP3   OH228878   1.402   4.640   2.773  0.0928  0.0342  0.8902
 2440TIP3    H128879   1.418   4.588   2.851  1.1139 -0.3934  0.4133
 2440TIP3    H228880   1.307   4.647   2.768 -0.0698 -1.6500  1.0531
 2441TIP3   OH228881   4.062   3.488   1.444  0.0152 -0.1523 -0.4730
 2441TIP3    H128882   3.990   3.440   1.405 -1.3000  1.2646  0.0672
 2441TIP3    H228883   4.129   3.422   1.463 -1.6833 -1.7476  0.2338
 2442TIP3   OH228884   6.277   3.351   8.311  0.4952 -0.3503 -0.2646
 2442TIP3    H128885   6.319   3.377   8.393  0.0452  0.0484 -0.1567
 2442TIP3    H228886   6.276   3.255   8.314  2.5119 -0.4365 -0.8365
 2443TIP3   OH228887   2.784   0.842   2.925  0.5077  0.0886 -0.0589
 2443TIP3    H128888   2.858   0.810   2.977  0.0758  0.8748  1.0656
 2443TIP3    H228889   2.802   0.809   2.837  1.4188 -1.0198  0.4990
 2444TIP3   OH228890   4.944   3.688   1.357  0.4203  0.5161  0.3014
 2444TIP3    H128891   5.029   3.710   1.320  1.1145 -1.0525  0.8670
 2444TIP3    H228892   4.882   3.745   1.311  1.7015  1.3696 -0.4399
 2445TIP3   OH228893   2.888   5.014   3.746  0.5309  1.0209  0.9105
 2445TIP3    H128894   2.977   5.008   3.780  0.6092  2.5462  1.0287
 2445TIP3    H228895   2.896   4.989   3.653  0.7631 -0.5215  1.3131
 2446TIP3   OH228896   4.384   3.708   2.130  0.3465  0.2901  0.5050
 2446TIP3    H128897   4.464   3.692   2.081 -0.4627  0.4983 -0.9237
 2446TIP3    H228898   4.346   3.787   2.090 -0.0520  0.8092  1.8410
 2447TIP3   OH228899   4.660   3.967   2.217  0.9808 -0.6468  0.0600
 2447TIP3    H128900   4.688   3.877   2.203  0.0496 -1.1994  1.5499
 2447TIP3    H228901   4.617   3.966   2.302 -0.7796  0.7882 -0.7505
 2448TIP3   OH228902   6.112   1.419   1.299 -0.2563 -0.0359  0.4456
 2448TIP3    H128903   6.099   1.389   1.209 -1.9634 -0.7360  0.8837
 2448TIP3    H228904   6.051   1.492   1.309 -0.5380 -0.3628  1.1983
 2449TIP3   OH228905   4.007   0.413   0.399 -0.0192 -0.1421 -0.3952
 2449TIP3    H128906   4.079   0.464   0.362 -1.1246  0.5145 -1.7592
 2449TIP3    H228907   3.935   0.476   0.407 -0.6624 -0.9369  0.2497
 2450TIP3   OH228908   6.711   4.866   3.198 -0.0868 -0.0176  0.2152
 2450TIP3    H128909   6.689   4.831   3.284  2.1688  1.5866  1.5609
 2450TIP3    H228910   6.800   4.901   3.208  0.2783  0.2341 -2.7888
 2451TIP3   OH228911   0.003   3.773   0.500  0.5914  0.4286  0.2738
 2451TIP3    H128912   0.010   3.734   0.413  1.3534  1.5401 -0.1866
 2451TIP3    H228913  -0.033   3.703   0.555 -0.6629 -0.0478 -1.0834
 2452TIP3   OH228914   6.651   0.968   2.810  0.3780 -0.4843  0.3312
 2452TIP3    H128915   6.668   0.888   2.761  1.9852  0.7843 -1.3388
 2452TIP3    H228916   6.562   0.993   2.786 -0.3738 -2.0405  1.3486
 2453TIP3   OH228917   6.659   4.331   2.488  0.3622  0.5200  0.4850
 2453TIP3    H128918   6.588   4.322   2.424  0.0095  2.0176  0.6282
 2453TIP3    H228919   6.617   4.365   2.566  1.1249  0.7388  0.8094
 2454TIP3   OH228920   2.350   5.559   2.421 -0.4576 -0.2183 -0.1331
 2454TIP3    H128921   2.414   5.626   2.447 -1.0967  0.2928  0.1607
 2454TIP3    H228922   2.273   5.579   2.474 -1.3118 -0.0323 -1.3972
 2455TIP3   OH228923   1.563   2.747   1.256 -0.5474  0.1537 -0.1417
 2455TIP3    H128924   1.551   2.699   1.174 -0.4432  1.2179 -0.8036
 2455TIP3    H228925   1.522   2.692   1.322 -2.0665  0.0218 -1.1497
 2456TIP3   OH228926   4.840   2.900   3.155 -0.0727 -0.4705 -0.4451
 2456TIP3    H128927   4.913   2.937   3.105  0.9489  0.4771  1.6052
 2456TIP3    H228928   4.804   2.974   3.203 -2.6803 -0.8529 -1.6445
 2457TIP3   OH228929   2.924   1.846   1.439  0.2591  0.1175 -0.1024
 2457TIP3    H128930   2.898   1.834   1.347  1.5377  1.0469 -0.6334
 2457TIP3    H228931   2.984   1.774   1.456  2.0085  1.2949 -0.8655
 2458TIP3   OH228932   5.277   1.799   3.779  0.2112 -0.2611 -0.0662
 2458TIP3    H128933   5.247   1.824   3.692 -0.8392 -0.1948  0.2923
 2458TIP3    H228934   5.206   1.828   3.837  1.9412  1.9231  1.1113
 2459TIP3   OH228935   3.807   0.313   8.429  0.2875  0.0379  0.0353
 2459TIP3    H128936   3.809   0.366   8.349 -0.9357 -0.4464 -0.3465
 2459TIP3    H228937   3.716   0.283   8.435  0.5334 -0.5257  1.2257
 2460TIP3   OH228938   6.573   4.355   2.026  0.5675  0.0501 -0.3069
 2460TIP3    H128939   6.510   4.294   1.986  1.4885  0.1526 -1.9915
 2460TIP3    H228940   6.547   4.441   1.993 -1.4831  0.8628  3.0248
 2461TIP3   OH228941   3.914   0.365   4.253 -0.1912 -0.8190 -0.2168
 2461TIP3    H128942   4.008   0.353   4.242  0.1197  0.9504  0.2420
 2461TIP3    H228943   3.905   0.417   4.332 -1.6083 -1.4608  0.0827
 2462TIP3   OH228944   1.136   1.004   1.816  0.6079 -0.2258  0.0615
 2462TIP3    H128945   1.209   1.059   1.788  0.9114 -0.4830  0.3369
 2462TIP3    H228946   1.169   0.957   1.893 -0.0166  0.0271  0.4904
 2463TIP3   OH228947   6.506   2.317   1.479 -0.1764 -0.1192 -0.0886
 2463TIP3    H128948   6.445   2.283   1.544  1.0857  0.5516  1.5052
 2463TIP3    H228949   6.452   2.330   1.401 -2.1285  0.6242  1.3027
 2464TIP3   OH228950   0.967   2.520   2.309 -0.0333  0.0559  0.2354
 2464TIP3    H128951   1.053   2.518   2.267 -0.0498  1.6972  0.0488
 2464TIP3    H228952   0.906   2.542   2.239 -0.5920 -0.8232  0.4235
 2465TIP3   OH228953   2.810   0.655   0.469 -0.4928 -0.1596 -0.5111
 2465TIP3    H128954   2.813   0.750   0.477  0.1351 -0.2906  1.1972
 2465TIP3    H228955   2.731   0.638   0.418 -2.0526  1.1921  1.2984
 2466TIP3   OH228956   6.578   4.472   2.705  0.1061 -0.1646  0.3710
 2466TIP3    H128957   6.521   4.547   2.725 -0.0665  0.0483 -0.8698
 2466TIP3    H228958   6.664   4.511   2.692 -0.2699  0.0741 -1.8306
 2467TIP3   OH228959   1.664   0.005   3.154 -0.3422 -0.2069 -0.4910
 2467TIP3    H128960   1.603  -0.040   3.212 -0.3047 -1.0679 -1.1117
 2467TIP3    H228961   1.717  -0.064   3.115  3.1898  0.6594  2.3354
 2468TIP3   OH228962   1.655   2.704   3.308 -0.5393 -0.0211 -0.4441
 2468TIP3    H128963   1.637   2.681   3.217  1.0247  2.0987 -1.3738
 2468TIP3    H228964   1.646   2.799   3.311  2.3563  0.3304  0.8564
 2469TIP3   OH228965   3.973   1.321   3.457  0.1381 -0.1439  0.3969
 2469TIP3    H128966   3.993   1.411   3.432  3.0714  0.2266  3.4174
 2469TIP3    H228967   4.031   1.268   3.403 -2.0349 -0.4092 -1.8391
 2470TIP3   OH228968   6.215   5.064   2.316 -0.5703 -0.4870 -0.1558
 2470TIP3    H128969   6.152   5.024   2.256  2.1120 -1.9460 -2.2636
 2470TIP3    H228970   6.300   5.037   2.282  1.2319  1.1996  2.6182
 2471TIP3   OH228971   4.121   5.464   1.780  0.1156 -0.1621 -0.3843
 2471TIP3    H128972   4.117   5.542   1.726  0.6266  0.1898  0.0780
 2471TIP3    H228973   4.109   5.495   1.870  0.4919 -0.5862 -0.1785
 2472TIP3   OH228974   6.246   2.064   1.145 -0.3329  0.3436 -0.2802
 2472TIP3    H128975   6.333   2.093   1.174  0.2620 -0.1754 -1.4535
 2472TIP3    H228976   6.191   2.072   1.222  0.3988  2.1174  0.1105
 2473TIP3   OH228977   5.664   0.188   2.894 -0.2242  0.2039  0.3290
 2473TIP3    H128978   5.701   0.273   2.871 -1.0740  0.2625 -0.9688
 2473TIP3    H228979   5.581   0.208   2.937  0.1448  0.0347  1.1436
 2474TIP3   OH228980   2.067   0.045   1.914 -0.1297  0.0438  0.3914
 2474TIP3    H128981   2.007   0.092   1.856  0.0913  0.2491  0.3257
 2474TIP3    H228982   2.095   0.112   1.977  0.9252  0.2534 -0.2664
 2475TIP3   OH228983   0.858   1.167   1.624 -0.1906 -0.0015 -0.7164
 2475TIP3    H128984   0.808   1.231   1.674 -2.9956 -0.8911 -2.1613
 2475TIP3    H228985   0.836   1.083   1.664  1.3423 -0.3506 -0.5175
 2476TIP3   OH228986   2.843   0.274   0.763 -0.0107  0.4667 -0.2035
 2476TIP3    H128987   2.884   0.212   0.823 -0.8408  1.7625  1.7891
 2476TIP3    H228988   2.760   0.234   0.740  0.7988 -0.5635 -1.4713
 2477TIP3   OH228989   4.518   2.795   3.584 -0.3504  0.2325  0.5711
 2477TIP3    H128990   4.539   2.702   3.590  0.7469  0.4160 -0.0259
 2477TIP3    H228991   4.455   2.801   3.512  0.3407  0.0494 -0.0627
 2478TIP3   OH228992   5.350   0.854   2.058 -0.5322  0.0872 -0.7354
 2478TIP3    H128993   5.281   0.839   2.123 -0.3556  0.1828 -0.5225
 2478TIP3    H228994   5.348   0.949   2.043 -2.2713 -0.2059 -2.7687
 2479TIP3   OH228995   4.619   5.197   1.382 -0.1090  0.2476  0.0944
 2479TIP3    H128996   4.545   5.213   1.324  0.3015  1.4428 -0.1263
 2479TIP3    H228997   4.695   5.196   1.324 -0.0256 -2.0892  0.1647
 2480TIP3   OH228998   0.818   3.528   1.545 -0.5092 -0.5419 -0.4370
 2480TIP3    H128999   0.780   3.572   1.468  0.8369 -0.2371 -0.9591
 2480TIP3    H229000   0.867   3.455   1.508  0.6609 -0.0251  0.0730
 2481TIP3   OH229001   6.544   6.357   0.383  0.4726 -0.0295  0.3715
 2481TIP3    H129002   6.603   6.375   0.310  0.1175 -0.2386  0.0298
 2481TIP3    H229003   6.531   6.262   0.381 -0.3226  0.0762  0.0847
 2482TIP3   OH229004   0.334   2.494   1.711  0.1496  0.2573 -0.0638
 2482TIP3    H129005   0.257   2.449   1.746 -0.0855  1.8151  1.5885
 2482TIP3    H229006   0.302   2.539   1.633 -0.7294  1.0702  0.7312
 2483TIP3   OH229007   6.846   6.760   0.661 -0.3101  0.0362 -0.1776
 2483TIP3    H129008   6.820   6.763   0.753  0.4422  0.9052  0.0195
 2483TIP3    H229009   6.783   6.701   0.621 -0.8460 -0.1093  0.8293
 2484TIP3   OH229010   4.601   6.175   1.152 -0.2160  0.0329  0.3575
 2484TIP3    H129011   4.655   6.217   1.219  0.3968 -1.0851  0.5923
 2484TIP3    H229012   4.596   6.240   1.082 -0.4271  1.0171  1.2510
 2485TIP3   OH229013   1.239   5.250   2.140 -0.3687  0.3204  0.5121
 2485TIP3    H129014   1.146   5.267   2.127 -0.7476 -0.9517  1.3541
 2485TIP3    H229015   1.262   5.301   2.218 -0.7930 -0.6805  1.3118
 2486TIP3   OH229016   6.708   3.482   3.230  0.0408 -0.7223 -0.3800
 2486TIP3    H129017   6.731   3.390   3.218 -0.9926 -1.1849  0.9526
 2486TIP3    H229018   6.705   3.517   3.141  2.0899 -1.5223 -0.8369
 2487TIP3   OH229019   3.455   6.395   3.257 -0.0271 -0.1132  0.2271
 2487TIP3    H129020   3.546   6.365   3.261  0.7105  1.4603 -2.0217
 2487TIP3    H229021   3.450   6.442   3.173 -2.7411  0.4566  0.6222
 2488TIP3   OH229022   4.766   2.293   1.408 -0.2162  0.5391  0.5068
 2488TIP3    H129023   4.773   2.210   1.361  1.0511  0.6796  0.4084
 2488TIP3    H229024   4.732   2.355   1.343  2.2847  0.9280 -0.5499
 2489TIP3   OH229025   3.525   4.769   8.121 -0.2258 -0.4225  0.3962
 2489TIP3    H129026   3.447   4.818   8.146 -0.5579 -0.8865  0.2684
 2489TIP3    H229027   3.572   4.756   8.204 -0.2386 -0.0667  0.4605
 2490TIP3   OH229028   5.174   1.625   0.295 -0.3189 -0.4548  0.0778
 2490TIP3    H129029   5.118   1.675   0.236  0.2893 -1.0897 -1.0840
 2490TIP3    H229030   5.263   1.648   0.269 -0.0357 -1.5240  0.0410
 2491TIP3   OH229031   4.427   2.043   4.380  0.1223  0.5846  0.1091
 2491TIP3    H129032   4.431   1.949   4.396 -0.9803  0.7613  1.5971
 2491TIP3    H229033   4.504   2.061   4.325 -0.1400 -1.3010 -0.9833
 2492TIP3   OH229034   3.019   2.194   2.258  0.2990  0.0526 -0.3485
 2492TIP3    H129035   3.072   2.271   2.236  0.2400 -0.0147 -0.7351
 2492TIP3    H229036   3.078   2.120   2.246  0.7046  0.0934  1.1276
 2493TIP3   OH229037   0.757   5.431   3.085  0.0656 -0.1887 -0.0304
 2493TIP3    H129038   0.847   5.399   3.082 -0.2837 -1.2840  0.8136
 2493TIP3    H229039   0.712   5.381   3.017 -0.3513 -1.0804  0.8983
 2494TIP3   OH229040   5.752   0.433   3.191 -0.0257 -0.3685 -0.2667
 2494TIP3    H129041   5.691   0.374   3.234  1.4256 -1.3258  0.5604
 2494TIP3    H229042   5.712   0.451   3.105 -1.8865 -0.1935  0.5827
 2495TIP3   OH229043   3.884   6.867   3.057  0.7726 -0.7165  0.4469
 2495TIP3    H129044   3.955   6.813   3.094  1.5643 -1.1852 -1.6055
 2495TIP3    H229045   3.928   6.946   3.026  0.2968 -0.7499 -0.3204
 2496TIP3   OH229046   2.807   6.926   1.661  0.0497  0.1122  0.4689
 2496TIP3    H129047   2.721   6.894   1.688 -0.3215  0.3318 -0.4124
 2496TIP3    H229048   2.853   6.944   1.743 -1.2556  1.3405  0.9803
 2497TIP3   OH229049   2.954   2.607   2.264  0.7510 -0.2333 -0.0341
 2497TIP3    H129050   2.966   2.649   2.349 -0.3214 -0.1142  0.0748
 2497TIP3    H229051   2.872   2.644   2.231  0.2829 -1.5304 -0.3637
 2498TIP3   OH229052   4.893   4.539   2.727 -0.1530 -0.1261 -0.2619
 2498TIP3    H129053   4.971   4.512   2.678  0.4753 -0.6000  0.9539
 2498TIP3    H229054   4.912   4.628   2.756 -0.7712  0.3721 -1.3577
 2499TIP3   OH229055   0.349   6.754   2.347  0.3670  0.0488  0.2761
 2499TIP3    H129056   0.386   6.842   2.360  0.1711  0.1079  0.4308
 2499TIP3    H229057   0.424   6.701   2.320  0.7485 -0.0355  1.4519
 2500TIP3   OH229058   4.916   5.203   2.860 -0.3440  0.4267  0.4186
 2500TIP3    H129059   4.926   5.160   2.775  1.5406  0.7613  0.4369
 2500TIP3    H229060   4.951   5.140   2.923 -1.1852  0.4197  0.8910
 2501TIP3   OH229061   1.178   6.157   1.604  0.0924 -0.2455  0.3594
 2501TIP3    H129062   1.192   6.077   1.554 -0.1737 -1.4188  2.0899
 2501TIP3    H229063   1.087   6.154   1.630  0.6823 -0.6519  2.5268
 2502TIP3   OH229064   1.939   2.171   1.441  0.2461  0.3313 -0.2157
 2502TIP3    H129065   1.928   2.219   1.523 -1.3863  0.8212 -0.6643
 2502TIP3    H229066   1.999   2.100   1.462 -0.4329  0.2179  1.5085
 2503TIP3   OH229067   0.658   1.663   1.803  0.3221  0.0270 -0.7589
 2503TIP3    H129068   0.652   1.758   1.802 -3.5222 -0.0598  0.3884
 2503TIP3    H229069   0.602   1.635   1.731 -0.2182 -1.3684  0.1736
 2504TIP3   OH229070   4.409   3.497   8.403 -0.7126 -0.2674  0.0369
 2504TIP3    H129071   4.367   3.411   8.394  2.4438 -2.1207  1.4801
 2504TIP3    H229072   4.493   3.479   8.445  1.1899  3.2800 -1.7955
 2505TIP3   OH229073   5.401   4.430   2.703 -0.1511  0.0275 -0.0362
 2505TIP3    H129074   5.392   4.390   2.789  1.8724 -2.1243 -0.7285
 2505TIP3    H229075   5.362   4.367   2.642  1.0320  0.1195 -0.9427
 2506TIP3   OH229076   6.259   6.183   1.452 -0.5740 -0.2661  0.1641
 2506TIP3    H129077   6.344   6.201   1.412 -0.1636 -0.4772  0.9363
 2506TIP3    H229078   6.278   6.131   1.529 -1.2925  0.6908  1.0217
 2507TIP3   OH229079   2.499   4.408   2.475  0.1884 -0.2587 -0.3283
 2507TIP3    H129080   2.487   4.489   2.525  0.7683  0.2446 -0.9854
 2507TIP3    H229081   2.551   4.434   2.399  0.6587 -1.3128 -0.3882
 2508TIP3   OH229082   1.257   0.957   2.480 -0.3430 -0.4514 -0.2082
 2508TIP3    H129083   1.251   0.863   2.496 -0.6079 -0.3637  0.2218
 2508TIP3    H229084   1.168   0.990   2.495  0.1458  0.1663  1.6318
 2509TIP3   OH229085   5.937   3.731   1.725  0.1681 -0.1969 -0.2265
 2509TIP3    H129086   5.856   3.699   1.766  1.0977 -0.7008  1.2873
 2509TIP3    H229087   5.937   3.690   1.638  1.4848 -4.9206  1.6814
 2510TIP3   OH229088   6.474   4.063   2.736  0.2888  0.4644  0.0271
 2510TIP3    H129089   6.544   4.116   2.696  1.3213 -0.8133  0.0753
 2510TIP3    H229090   6.470   3.984   2.683 -0.6367  0.2034  0.4646
 2511TIP3   OH229091   6.117   4.568   0.413  0.2910 -0.4675 -0.2470
 2511TIP3    H129092   6.202   4.568   0.459  0.5006  1.6989 -0.5292
 2511TIP3    H229093   6.139   4.586   0.322 -0.4964  0.8951 -0.1948
 2512TIP3   OH229094   4.091   5.594   2.033 -0.0984  0.0108 -0.5805
 2512TIP3    H129095   4.154   5.558   2.096  0.2657 -0.8415 -1.4034
 2512TIP3    H229096   4.077   5.683   2.063  0.6746 -0.1204  0.2544
 2513TIP3   OH229097   4.810   6.482   3.002 -0.0748 -0.3930  0.2578
 2513TIP3    H129098   4.844   6.422   2.935 -1.6387  0.7069 -1.6139
 2513TIP3    H229099   4.756   6.427   3.058  0.1889 -1.1010 -0.1704
 2514TIP3   OH229100   4.306   6.865   3.267 -0.7896 -0.1375  0.3951
 2514TIP3    H129101   4.318   6.951   3.308 -1.0408  0.5840 -0.9817
 2514TIP3    H229102   4.216   6.841   3.288 -0.5361 -0.3587  1.2857
 2515TIP3   OH229103   4.773   1.467   3.213  0.5638 -0.0570  0.0680
 2515TIP3    H129104   4.861   1.499   3.192 -0.1771  0.5570 -2.4817
 2515TIP3    H229105   4.714   1.532   3.175 -1.0103 -0.8767  1.0066
 2516TIP3   OH229106   4.572   5.740   3.964 -0.4507  0.0351 -0.2764
 2516TIP3    H129107   4.533   5.656   3.987 -1.7814  0.7349  0.1366
 2516TIP3    H229108   4.546   5.755   3.873  1.7592 -1.0437 -1.1613
 2517TIP3   OH229109   4.901   6.008   1.089 -0.3983 -0.1877  0.8138
 2517TIP3    H129110   4.914   5.932   1.033  1.6936  0.2510  0.6098
 2517TIP3    H229111   4.806   6.019   1.095 -0.7199 -0.4461 -2.3890
 2518TIP3   OH229112   1.963   3.194   8.312  0.2139 -1.1883  0.0255
 2518TIP3    H129113   1.995   3.262   8.253 -0.3746 -1.3546 -0.4978
 2518TIP3    H229114   1.913   3.240   8.379  0.8295 -1.0037  0.3644
 2519TIP3   OH229115   3.907   0.068   2.661 -0.2164  0.4311  0.5986
 2519TIP3    H129116   4.000   0.088   2.669 -0.2475  0.4885  0.8504
 2519TIP3    H229117   3.863   0.143   2.703 -0.3866  0.5706  0.1758
 2520TIP3   OH229118   2.996   4.851   2.174 -0.0192 -0.1193  0.3563
 2520TIP3    H129119   3.056   4.837   2.101 -1.8812  0.7499 -1.4681
 2520TIP3    H229120   3.051   4.848   2.252  2.2890  0.2298 -1.1617
 2521TIP3   OH229121   0.801   5.167   2.335  0.3710 -0.4243  0.1624
 2521TIP3    H129122   0.871   5.112   2.371 -0.6911 -1.6876  0.3485
 2521TIP3    H229123   0.835   5.256   2.342  0.6609 -0.6788  3.2735
 2522TIP3   OH229124   0.614   0.917   3.467 -0.3056  0.0679 -0.1163
 2522TIP3    H129125   0.584   0.827   3.471 -2.2837  0.7075  0.5174
 2522TIP3    H229126   0.607   0.942   3.375  1.9427 -0.9178 -0.6074
 2523TIP3   OH229127   1.078   6.418   0.890  0.0298  0.0741 -1.0923
 2523TIP3    H129128   1.059   6.408   0.797  1.0904 -0.9490 -1.2196
 2523TIP3    H229129   1.171   6.439   0.893  0.3315 -1.2881 -0.2058
 2524TIP3   OH229130   6.538   5.923   3.907 -0.3777  0.3212 -0.0901
 2524TIP3    H129131   6.475   5.854   3.887 -0.5519  0.1567  0.9890
 2524TIP3    H229132   6.502   5.967   3.984  0.3302  0.8568 -0.0554
 2525TIP3   OH229133   0.928   0.442   1.930 -0.7831 -0.3780  0.5017
 2525TIP3    H129134   0.936   0.537   1.922  0.9835 -0.5251  0.0429
 2525TIP3    H229135   0.985   0.419   2.004 -1.1070 -1.0961  0.5415
 2526TIP3   OH229136   4.392   2.878   2.837 -0.0130  0.2566  0.2858
 2526TIP3    H129137   4.343   2.805   2.799 -1.9089  1.9942 -0.8226
 2526TIP3    H229138   4.390   2.861   2.931 -1.4224 -0.5444  0.1447
 2527TIP3   OH229139   1.748   3.636   1.802  0.5176  0.1413  0.4485
 2527TIP3    H129140   1.681   3.702   1.786  0.8768  0.7928  1.5107
 2527TIP3    H229141   1.782   3.657   1.889  0.3993 -1.6635  0.9589
 2528TIP3   OH229142   3.505   4.505   0.656 -0.6876  0.2758  0.0737
 2528TIP3    H129143   3.427   4.464   0.694 -0.7414  0.0080 -0.3169
 2528TIP3    H229144   3.487   4.599   0.659  0.6967  0.6100  3.8564
 2529TIP3   OH229145   2.024   5.723   0.830 -0.5022  0.5901  0.7183
 2529TIP3    H129146   2.080   5.648   0.808 -0.1864  0.1994  2.6512
 2529TIP3    H229147   1.941   5.705   0.785  0.0214 -0.2359  0.0607
 2530TIP3   OH229148   1.308   4.847   3.600  0.2986 -0.4188 -0.1456
 2530TIP3    H129149   1.306   4.779   3.533 -0.1958 -0.0197 -0.5413
 2530TIP3    H229150   1.217   4.876   3.607  0.3452 -0.4377  0.6858
 2531TIP3   OH229151   6.394   0.268   2.476  0.3894  0.0306  0.1810
 2531TIP3    H129152   6.314   0.228   2.509  0.4057  1.4743  2.1647
 2531TIP3    H229153   6.378   0.363   2.481  2.2697  0.3664  0.8633
 2532TIP3   OH229154   2.417   3.952   1.050 -0.6138 -0.3724 -0.1064
 2532TIP3    H129155   2.438   3.924   0.961 -0.9718  0.4844 -0.4668
 2532TIP3    H229156   2.363   3.880   1.086  0.6479 -1.3496 -0.0876
 2533TIP3   OH229157   3.294   3.420   1.203 -0.7066  0.1369 -0.3780
 2533TIP3    H129158   3.346   3.349   1.166  0.4071  0.1161  1.1155
 2533TIP3    H229159   3.208   3.382   1.217 -0.3641 -0.6567 -0.3983
 2534TIP3   OH229160   1.672   0.322   3.286 -0.1206  0.5062  0.1263
 2534TIP3    H129161   1.666   0.251   3.349  0.7264  1.0592  0.8736
 2534TIP3    H229162   1.653   0.401   3.337 -2.4627  0.7352 -0.9875
 2535TIP3   OH229163   0.519   5.614   1.973  0.2937  0.3883  0.2369
 2535TIP3    H129164   0.563   5.565   1.904  1.9452  0.1781  1.3886
 2535TIP3    H229165   0.440   5.649   1.931 -0.2515 -2.1041 -0.9756
 2536TIP3   OH229166   0.229   6.055   0.388  0.6095 -0.0419 -0.4263
 2536TIP3    H129167   0.170   6.126   0.413  0.8533  0.0611 -0.1323
 2536TIP3    H229168   0.183   5.975   0.414  0.9111  0.0678  0.4899
 2537TIP3   OH229169   0.715   0.327   3.088 -0.0312 -0.0341 -0.2757
 2537TIP3    H129170   0.624   0.352   3.102  0.0280 -0.2896  0.6775
 2537TIP3    H229171   0.712   0.261   3.019 -0.5439  0.1054 -0.3884
 2538TIP3   OH229172   5.749   2.845   3.881  0.3299  0.4312 -0.5082
 2538TIP3    H129173   5.828   2.790   3.887 -1.4321 -2.3942 -1.2820
 2538TIP3    H229174   5.680   2.785   3.854 -2.2997  2.6216  0.8625
 2539TIP3   OH229175   3.360   1.506   1.648 -0.6117 -0.5894  0.6768
 2539TIP3    H129176   3.402   1.542   1.571  0.2030 -1.4985  0.6860
 2539TIP3    H229177   3.343   1.582   1.704 -1.9363  0.1874 -0.7128
 2540TIP3   OH229178   6.726   2.168   0.960 -0.8698  0.6111  0.5714
 2540TIP3    H129179   6.814   2.146   0.990 -0.0967  1.3049 -1.0688
 2540TIP3    H229180   6.686   2.084   0.938  0.5808  0.4522 -1.7540
 2541TIP3   OH229181   3.774   4.303   3.609  0.8118 -0.3652 -0.7862
 2541TIP3    H129182   3.812   4.239   3.670  1.7169  0.1928 -0.7560
 2541TIP3    H229183   3.843   4.367   3.596 -0.4486  1.2332  0.0665
 2542TIP3   OH229184   1.436   3.219   2.144 -0.1460  0.1322 -0.0745
 2542TIP3    H129185   1.405   3.168   2.219  0.0688 -0.2165 -0.2197
 2542TIP3    H229186   1.528   3.239   2.165 -0.4833  1.2731  0.4170
 2543TIP3   OH229187   1.285   5.403   0.067 -0.0119 -0.0719 -0.0138
 2543TIP3    H129188   1.272   5.442  -0.019  0.6074 -0.4731 -0.2901
 2543TIP3    H229189   1.361   5.346   0.057  0.2460  0.0988  0.8689
 2544TIP3   OH229190   6.296   4.190   0.820  0.1752 -0.3201  0.1955
 2544TIP3    H129191   6.212   4.168   0.779  0.0647  1.4040 -0.5689
 2544TIP3    H229192   6.317   4.277   0.787  2.1289 -0.5865  0.6286
 2545TIP3   OH229193   0.483   0.788   4.676  0.7193  0.1893  0.5609
 2545TIP3    H129194   0.453   0.729   4.607 -1.0386 -0.4945  1.8469
 2545TIP3    H229195   0.526   0.859   4.629  0.0392 -0.5173 -1.2167
 2546TIP3   OH229196   1.172   6.154   3.088 -0.2842 -0.1083 -0.2416
 2546TIP3    H129197   1.256   6.191   3.061 -0.5979  1.4324  0.7363
 2546TIP3    H229198   1.114   6.172   3.014  0.3434 -1.7433 -1.1908
 2547TIP3   OH229199   0.778   2.799   0.632  0.2342  0.8053  0.1497
 2547TIP3    H129200   0.869   2.793   0.663  0.6403 -0.2212 -1.1464
 2547TIP3    H229201   0.784   2.836   0.544 -0.2122 -2.2320 -1.2956
 2548TIP3   OH229202   6.778   5.461   0.577  0.3447  0.0341  0.1077
 2548TIP3    H129203   6.831   5.460   0.657 -0.7637  1.4246  0.9089
 2548TIP3    H229204   6.735   5.547   0.578 -1.2523 -0.7167 -0.9598
 2549TIP3   OH229205   3.055   1.581   1.771 -0.2549  0.2622  0.1055
 2549TIP3    H129206   3.083   1.563   1.682  0.2844  1.8265 -0.0683
 2549TIP3    H229207   3.121   1.539   1.826  0.3412  0.7361 -0.2510
 2550TIP3   OH229208   0.736   4.156   3.420  0.4389  0.0981  0.0165
 2550TIP3    H129209   0.696   4.119   3.341  1.3066  0.0680 -0.4218
 2550TIP3    H229210   0.830   4.154   3.402  0.5681  1.7507  0.3027
 2551TIP3   OH229211   2.723   5.919   1.864  0.0709  0.5668  0.3468
 2551TIP3    H129212   2.707   5.993   1.805 -0.3597  0.5141  0.3924
 2551TIP3    H229213   2.811   5.933   1.897  0.8782 -0.1276 -1.3661
 2552TIP3   OH229214   2.762   2.978   1.433 -0.5776 -0.2902  0.6914
 2552TIP3    H129215   2.810   2.945   1.357 -3.2401  1.1518 -1.8531
 2552TIP3    H229216   2.772   3.073   1.428 -0.2572 -0.1876  2.6216
 2553TIP3   OH229217   0.778   3.759   3.321  0.0475  0.0645  0.2657
 2553TIP3    H129218   0.803   3.751   3.413  0.5324 -0.2435  0.1124
 2553TIP3    H229219   0.834   3.830   3.288  0.4329 -0.3444  0.0242
 2554TIP3   OH229220   4.192   6.453   0.480  0.9030 -0.3794  0.0802
 2554TIP3    H129221   4.248   6.376   0.490 -0.4825 -1.2765  1.3369
 2554TIP3    H229222   4.224   6.515   0.545  0.7291 -0.7105  0.4833
 2555TIP3   OH229223   2.091   6.368   1.100 -0.6845  0.1766 -0.0922
 2555TIP3    H129224   2.136   6.435   1.151  0.0023  0.1475 -0.6461
 2555TIP3    H229225   2.024   6.334   1.158  0.3508 -0.1499  0.9462
 2556TIP3   OH229226   2.332   0.502   2.935  0.4845  0.0827  0.7414
 2556TIP3    H129227   2.296   0.527   2.850  1.4140 -2.4169 -0.4745
 2556TIP3    H229228   2.368   0.584   2.971 -1.4616  1.5467 -0.4271
 2557TIP3   OH229229   4.158   2.045   3.695 -0.1556 -0.1965  0.2949
 2557TIP3    H129230   4.098   1.974   3.674 -0.6630 -0.6662  3.0036
 2557TIP3    H229231   4.243   2.002   3.706 -0.0083 -0.0409 -0.2192
 2558TIP3   OH229232   4.185   2.973   2.217 -0.9101 -0.5770 -0.1135
 2558TIP3    H129233   4.126   2.971   2.292 -1.3366  0.5185 -0.3968
 2558TIP3    H229234   4.146   3.038   2.158 -0.0326 -0.6789 -0.8253
 2559TIP3   OH229235   5.953   4.257   2.132 -0.0410  0.7173  0.6495
 2559TIP3    H129236   5.984   4.224   2.217 -0.2562  0.8943  0.7999
 2559TIP3    H229237   5.984   4.194   2.068 -0.1884  0.3898  0.9010
 2560TIP3   OH229238   5.872   4.124   2.457 -0.2201 -0.2571  0.0544
 2560TIP3    H129239   5.788   4.168   2.469 -0.4806 -0.6921 -0.1103
 2560TIP3    H229240   5.938   4.187   2.485 -0.6952 -0.6019  2.1216
 2561TIP3   OH229241   3.866   0.808   2.849 -0.2179  0.5090  0.5640
 2561TIP3    H129242   3.803   0.871   2.884 -1.3097 -1.1818  1.8005
 2561TIP3    H229243   3.951   0.851   2.858 -1.0297  2.3017  0.1289
 2562TIP3   OH229244   0.740   0.460   2.419 -0.0798 -0.0936 -0.0719
 2562TIP3    H129245   0.744   0.518   2.494  0.1507  0.3731 -0.4411
 2562TIP3    H229246   0.646   0.448   2.403 -0.1342  0.7204 -0.4043
 2563TIP3   OH229247   5.091   4.805   3.150 -0.4130 -0.3548  0.1825
 2563TIP3    H129248   5.120   4.782   3.062  0.6995 -2.6672  1.0750
 2563TIP3    H229249   5.019   4.744   3.169 -0.5213 -0.0054  0.9455
 2564TIP3   OH229250   4.009   0.317   3.953 -0.6807 -0.3632 -0.3415
 2564TIP3    H129251   4.013   0.224   3.931 -1.3303 -0.2891 -0.8287
 2564TIP3    H229252   4.042   0.361   3.875 -1.1090 -0.1668 -0.4181
 2565TIP3   OH229253   6.842   6.762   3.029 -0.0172 -0.4905  0.1957
 2565TIP3    H129254   6.750   6.761   3.054 -0.9457  0.3383 -2.7856
 2565TIP3    H229255   6.857   6.679   2.984  0.9790 -0.9812  1.3523
 2566TIP3   OH229256   4.524   1.236   7.987 -0.0671  0.2491 -0.1563
 2566TIP3    H129257   4.494   1.146   7.990  0.9188 -0.0954 -0.3118
 2566TIP3    H229258   4.517   1.268   8.077 -1.2168  0.2973 -0.2516
 2567TIP3   OH229259   0.175   3.781   2.545 -0.6651  0.3501 -0.0546
 2567TIP3    H129260   0.115   3.752   2.613  0.8214  0.8377  1.5270
 2567TIP3    H229261   0.242   3.832   2.591  0.1337  1.1265 -1.9410
 2568TIP3   OH229262   0.168   4.311   2.070  0.1811 -0.3474  0.0660
 2568TIP3    H129263   0.205   4.281   1.987 -0.2678 -0.9179  0.0651
 2568TIP3    H229264   0.148   4.403   2.056  0.1690 -0.4218 -0.4394
 2569TIP3   OH229265   1.000   2.642   0.500  0.4012  0.0126  0.2168
 2569TIP3    H129266   1.029   2.700   0.570 -0.4647 -0.3639  0.9007
 2569TIP3    H229267   1.081   2.611   0.460  0.8879  1.1980  0.2357
 2570TIP3   OH229268   2.208   1.835   0.838  0.3899  0.5749  0.0976
 2570TIP3    H129269   2.256   1.810   0.917  0.2137  0.4096  0.1547
 2570TIP3    H229270   2.197   1.753   0.790 -0.9419  0.3690  0.6984
 2571TIP3   OH229271   5.402   3.179   0.681 -0.3897 -0.7074  0.6607
 2571TIP3    H129272   5.331   3.235   0.714  2.4116  3.2740  0.5707
 2571TIP3    H229273   5.385   3.174   0.587  0.5278  2.2043  0.2487
 2572TIP3   OH229274   1.689   6.417   0.891  0.0294  0.8356 -0.3703
 2572TIP3    H129275   1.785   6.421   0.895  0.0014  0.7708  0.8365
 2572TIP3    H229276   1.669   6.412   0.798  1.1785  1.4178 -0.6685
 2573TIP3   OH229277   2.847   6.834   2.342  0.0774 -0.1610 -0.0619
 2573TIP3    H129278   2.908   6.862   2.275  0.9388  1.9662  1.4923
 2573TIP3    H229279   2.896   6.840   2.424 -1.4290 -0.9937  0.9673
 2574TIP3   OH229280   0.316   5.130   1.116 -0.3984 -0.0840  0.4278
 2574TIP3    H129281   0.220   5.132   1.109 -0.3188 -1.1000 -1.6561
 2574TIP3    H229282   0.342   5.222   1.122 -1.3904  0.3991 -1.7030
 2575TIP3   OH229283   2.625   6.484   1.720 -0.1789  0.1153  0.7570
 2575TIP3    H129284   2.622   6.430   1.642 -2.6302  0.2261  0.6993
 2575TIP3    H229285   2.554   6.547   1.708 -0.2107  0.5273  2.7826
 2576TIP3   OH229286   6.756   2.832   2.888  1.1364  0.0587 -0.2306
 2576TIP3    H129287   6.795   2.817   2.803  0.3522 -1.8705 -0.2970
 2576TIP3    H229288   6.728   2.924   2.886  1.1615  0.0581 -2.0217
 2577TIP3   OH229289   6.201   0.384   1.773  0.4613 -0.2033  0.2104
 2577TIP3    H129290   6.201   0.419   1.862 -0.2146  0.6709 -0.1158
 2577TIP3    H229291   6.108   0.370   1.753  0.6477 -1.0725 -0.1109
 2578TIP3   OH229292   1.612   5.527   2.978  0.0257 -0.2671 -0.2418
 2578TIP3    H129293   1.588   5.577   3.056  2.0923  1.0589 -0.3736
 2578TIP3    H229294   1.652   5.447   3.011 -2.1933 -1.3561 -0.0209
 2579TIP3   OH229295   3.535   1.504   3.662 -0.0882 -0.5117 -0.4098
 2579TIP3    H129296   3.578   1.449   3.727 -4.2725 -3.5208  0.2020
 2579TIP3    H229297   3.508   1.582   3.711  1.4113 -0.2322  0.0254
 2580TIP3   OH229298   6.013   5.355   1.258  0.3413 -0.5448  0.2682
 2580TIP3    H129299   6.009   5.450   1.264 -0.1648 -0.5353 -0.2020
 2580TIP3    H229300   6.100   5.337   1.222 -0.3551 -0.1431 -1.7363
 2581TIP3   OH229301   1.462   4.912   2.861 -0.2350 -0.2985 -0.5940
 2581TIP3    H129302   1.557   4.903   2.867 -0.2733 -0.6952 -0.5509
 2581TIP3    H229303   1.429   4.822   2.869 -0.7319  0.0152  1.8577
 2582TIP3   OH229304   3.938   2.087   0.249 -0.4015 -0.2563  0.3622
 2582TIP3    H129305   3.918   2.008   0.299 -1.3579  0.1451  0.6401
 2582TIP3    H229306   3.852   2.123   0.225  0.0028  0.8598  0.5071
 2583TIP3   OH229307   2.198   0.630   1.767 -0.6711 -1.0642 -0.0926
 2583TIP3    H129308   2.192   0.690   1.842 -0.1256 -0.4399 -0.5332
 2583TIP3    H229309   2.288   0.597   1.770  0.2162  0.9584 -1.9256
 2584TIP3   OH229310   1.139   5.422   1.897  0.2867  1.0243  0.3117
 2584TIP3    H129311   1.230   5.407   1.873  0.7441  2.5291  1.0030
 2584TIP3    H229312   1.092   5.424   1.814  0.5361 -1.5197  0.0127
 2585TIP3   OH229313   3.134   0.534   2.561  0.0571  0.0364  0.0391
 2585TIP3    H129314   3.111   0.618   2.522  1.9114  0.5890  0.0490
 2585TIP3    H229315   3.228   0.525   2.546  0.4260 -0.7872  2.3454
 2586TIP3   OH229316   2.184   5.609   3.496 -0.1848  0.0421 -0.3676
 2586TIP3    H129317   2.190   5.529   3.549  1.0717 -1.2652 -2.3516
 2586TIP3    H229318   2.273   5.644   3.494 -0.4405  0.7015 -0.6901
 2587TIP3   OH229319   2.706   0.745   1.552  0.2272 -0.2655 -0.4594
 2587TIP3    H129320   2.704   0.654   1.581  0.4417 -0.7134 -1.7615
 2587TIP3    H229321   2.650   0.747   1.474  2.0572  0.1554 -1.8480
 2588TIP3   OH229322   1.763   4.494   2.709 -0.2352  0.0213  0.0363
 2588TIP3    H129323   1.779   4.488   2.804 -3.7055 -0.6884  0.7376
 2588TIP3    H229324   1.668   4.504   2.702  0.0136  1.2223 -3.3877
 2589TIP3   OH229325   6.513   3.251   0.026 -0.2526  0.1675 -0.0287
 2589TIP3    H129326   6.470   3.174  -0.012  0.3848 -1.2333  1.8920
 2589TIP3    H229327   6.444   3.293   0.078 -0.5173  0.7085 -0.8145
 2590TIP3   OH229328   0.634   0.906   1.200  0.0594 -0.3046  0.2645
 2590TIP3    H129329   0.679   0.862   1.128  0.6215 -1.2085  1.1351
 2590TIP3    H229330   0.662   0.997   1.195  0.0897 -0.3590 -0.6460
 2591TIP3   OH229331   4.366   4.006   3.843 -0.7553  0.4301  0.1058
 2591TIP3    H129332   4.387   3.920   3.879  2.3791  1.2700  0.6283
 2591TIP3    H229333   4.361   3.993   3.749  1.5599 -0.0934  0.0007
 2592TIP3   OH229334   0.080   3.089   0.607  0.0424  0.6548 -0.3744
 2592TIP3    H129335   0.062   3.005   0.649 -0.5402  0.8052 -0.3155
 2592TIP3    H229336  -0.006   3.130   0.596  0.2137  0.7605 -1.4152
 2593TIP3   OH229337   5.676   4.009   0.815 -0.1528  0.0707  0.0675
 2593TIP3    H129338   5.674   4.039   0.725  0.5797  0.1616  0.0750
 2593TIP3    H229339   5.593   3.961   0.827  1.3225 -3.2940 -1.7877
 2594TIP3   OH229340   6.422   1.295   0.397  0.0597 -0.1433 -0.0613
 2594TIP3    H129341   6.373   1.358   0.343 -0.3754 -1.0650 -0.7920
 2594TIP3    H229342   6.508   1.290   0.355 -0.1630 -0.5981 -0.4810
 2595TIP3   OH229343   5.118   0.364   3.003  0.2373 -0.3858  0.3665
 2595TIP3    H129344   5.164   0.421   3.064  0.1585 -0.3420  0.3843
 2595TIP3    H229345   5.051   0.321   3.056  0.9449 -1.2531  0.5834
 2596TIP3   OH229346   5.960   3.672   1.463  0.3503  0.1202 -0.0113
 2596TIP3    H129347   6.051   3.698   1.470  0.1487  0.6927  0.5794
 2596TIP3    H229348   5.917   3.746   1.420  0.5261 -1.0101 -2.2920
 2597TIP3   OH229349   4.669   6.099   0.772 -0.4830 -0.1616 -0.5251
 2597TIP3    H129350   4.577   6.073   0.762 -0.1568 -1.0349 -1.5528
 2597TIP3    H229351   4.673   6.186   0.734 -0.6802 -0.5984 -1.5988
 2598TIP3   OH229352   5.921   2.289   1.717  0.3999 -0.0222  0.3186
 2598TIP3    H129353   5.899   2.247   1.800  0.0394  0.4652  0.4769
 2598TIP3    H229354   5.925   2.383   1.737  1.7908 -0.0038  0.1077
 2599TIP3   OH229355   4.176   0.717   2.791 -0.1395  0.6994  0.2328
 2599TIP3    H129356   4.222   0.790   2.832  3.2426 -0.2847 -1.4670
 2599TIP3    H229357   4.188   0.730   2.697  0.2098 -1.7246 -0.1379
 2600TIP3   OH229358   2.873   3.093   3.134 -0.3730 -0.2614 -0.0374
 2600TIP3    H129359   2.883   3.176   3.181 -0.2284 -1.1479  1.5637
 2600TIP3    H229360   2.778   3.078   3.132 -0.3268 -0.7988  1.0706
 2601TIP3   OH229361   1.463   1.793   3.945 -0.7418 -0.7315  0.1444
 2601TIP3    H129362   1.553   1.823   3.930 -0.4911 -0.7881  1.4604
 2601TIP3    H229363   1.465   1.699   3.924 -1.1830 -0.2505 -2.5229
 2602TIP3   OH229364   4.485   0.798   1.489 -0.1596  0.1747 -0.0273
 2602TIP3    H129365   4.458   0.763   1.404  0.6649  1.2014 -0.7447
 2602TIP3    H229366   4.527   0.725   1.533 -0.6746 -0.3979 -0.4720
 2603TIP3   OH229367   2.964   0.712   0.826  0.5084 -0.0647  0.7133
 2603TIP3    H129368   2.884   0.689   0.779  1.4650 -1.1341 -0.4776
 2603TIP3    H229369   2.950   0.802   0.855 -0.5360  0.2713 -0.7402
 2604TIP3   OH229370   4.933   6.933   0.170  0.4641  0.6207  0.5221
 2604TIP3    H129371   4.857   6.928   0.228  0.6938  0.7053  0.8312
 2604TIP3    H229372   4.932   7.022   0.137  0.5017  0.6576  0.6218
 2605TIP3   OH229373   1.495   1.508   4.346  0.2405  0.3202  0.5823
 2605TIP3    H129374   1.410   1.549   4.359 -0.4075 -0.6218 -0.4588
 2605TIP3    H229375   1.516   1.468   4.430  1.1017  3.0583  1.7599
 2606TIP3   OH229376   4.522   4.761   1.080  0.4514 -0.1409 -0.4850
 2606TIP3    H129377   4.604   4.713   1.093  0.0358 -0.4390  1.3333
 2606TIP3    H229378   4.549   4.850   1.060  1.2299 -0.2944 -0.1517
 2607TIP3   OH229379   2.509   5.442   4.550  0.1547 -0.4927 -0.3473
 2607TIP3    H129380   2.530   5.522   4.502 -1.3090 -0.8270 -1.6276
 2607TIP3    H229381   2.572   5.440   4.622  0.8365  1.3046 -0.8371
 2608TIP3   OH229382   1.309   5.273   1.323  0.2171 -0.1368  0.3425
 2608TIP3    H129383   1.306   5.199   1.385  1.9600  0.1601  0.8374
 2608TIP3    H229384   1.226   5.268   1.276  0.3475 -2.5341  0.2344
 2609TIP3   OH229385   0.338   5.607   2.477 -0.3594  0.3239  0.1705
 2609TIP3    H129386   0.417   5.605   2.532  0.1362  1.7181 -0.4394
 2609TIP3    H229387   0.372   5.619   2.388 -1.2254 -0.1410 -0.2299
 2610TIP3   OH229388   0.795   0.440   3.323 -0.0338  0.1037 -0.1356
 2610TIP3    H129389   0.799   0.366   3.384 -0.9206  1.3205  1.4679
 2610TIP3    H229390   0.727   0.414   3.260 -0.7758 -0.2281  0.7663
 2611TIP3   OH229391   2.871   0.066   1.949 -0.0085  0.0008 -0.1258
 2611TIP3    H129392   2.901   0.038   2.036  1.4157 -1.9852 -1.1858
 2611TIP3    H229393   2.951   0.076   1.898 -0.9090 -1.6042 -1.9624
 2612TIP3   OH229394   0.949   5.123   3.280  0.0897  0.5396  0.2819
 2612TIP3    H129395   0.946   5.195   3.218  0.5521  0.3829  0.0752
 2612TIP3    H229396   0.908   5.158   3.359 -0.4299  0.7643 -0.0772
 2613TIP3   OH229397   1.181   6.328   2.075 -0.4445 -0.2165 -0.0306
 2613TIP3    H129398   1.275   6.320   2.065 -0.6054 -2.4666 -0.3265
 2613TIP3    H229399   1.164   6.302   2.166 -0.9198 -1.7058 -0.5230
 2614TIP3   OH229400   5.545   0.331   2.123  0.7122 -0.4181  0.3726
 2614TIP3    H129401   5.460   0.354   2.160  0.2549 -1.0579 -0.2691
 2614TIP3    H229402   5.590   0.286   2.195  0.5840  0.0680  0.7670
 2615TIP3   OH229403   6.751   4.106   2.602 -0.6155 -0.4205  0.0828
 2615TIP3    H129404   6.737   4.198   2.581  0.9059 -0.1144  0.2842
 2615TIP3    H229405   6.756   4.062   2.517  0.6796  0.0328 -0.1017
 2616TIP3   OH229406   5.325   3.388   3.070  0.0317  0.1330  0.1550
 2616TIP3    H129407   5.378   3.447   3.124  2.2291 -2.0257  0.5014
 2616TIP3    H229408   5.288   3.325   3.132 -2.3549  1.0562 -0.2022
 2617TIP3   OH229409   0.884   0.979   0.676 -0.4055 -0.0715  0.3014
 2617TIP3    H129410   0.927   0.974   0.590 -0.2414  0.1772  0.3669
 2617TIP3    H229411   0.809   0.921   0.669  1.3548 -2.5750  1.0026
 2618TIP3   OH229412   0.361   6.605   2.596  0.2639  0.3152 -0.3956
 2618TIP3    H129413   0.276   6.595   2.638  0.7018 -0.4877  0.3269
 2618TIP3    H229414   0.353   6.686   2.546 -0.2577  1.4265  1.3617
 2619TIP3   OH229415   1.296   0.616   0.324 -0.3925 -0.4658 -0.3628
 2619TIP3    H129416   1.251   0.558   0.262 -0.9302  0.6586 -1.0659
 2619TIP3    H229417   1.234   0.688   0.338  0.7301  0.5509 -0.4803
 2620TIP3   OH229418   3.214   6.628   2.793 -0.1597 -0.3953 -0.4610
 2620TIP3    H129419   3.294   6.635   2.846 -0.0324 -1.9921 -0.4005
 2620TIP3    H229420   3.198   6.717   2.764 -0.8742  0.8539  3.1739
 2621TIP3   OH229421   3.051   4.222   3.931  0.5585 -0.1542 -0.0677
 2621TIP3    H129422   3.009   4.306   3.948 -0.3172 -0.2751 -1.5142
 2621TIP3    H229423   2.979   4.160   3.924  1.2093 -1.1622  1.4414
 2622TIP3   OH229424   1.277   2.528   3.841 -0.3530  0.1202  0.7512
 2622TIP3    H129425   1.325   2.449   3.865  2.7935  1.9659  1.0366
 2622TIP3    H229426   1.273   2.579   3.922  0.9768  1.8281 -0.2088
 2623TIP3   OH229427   6.935   0.244   3.138 -0.1671 -0.3521  0.1334
 2623TIP3    H129428   6.887   0.194   3.204  1.0825 -1.0349  0.5488
 2623TIP3    H229429   6.882   0.235   3.059 -2.0103  0.9939  1.1527
 2624TIP3   OH229430   6.875   6.254   0.239 -0.0395  0.3216 -0.0808
 2624TIP3    H129431   6.868   6.264   0.334 -1.1457 -1.9214  0.1426
 2624TIP3    H229432   6.807   6.312   0.203 -0.5800  0.1213  0.5957
 2625TIP3   OH229433   2.502   4.925   1.478  0.1556  0.1513  0.1219
 2625TIP3    H129434   2.422   4.880   1.506  0.7971 -1.1220 -0.0625
 2625TIP3    H229435   2.502   5.006   1.530  0.0865 -1.0429  2.0858
 2626TIP3   OH229436   5.661   1.720   1.081 -0.1743  0.2559  0.6001
 2626TIP3    H129437   5.582   1.691   1.034 -0.3828  2.5774 -0.6243
 2626TIP3    H229438   5.639   1.807   1.113  1.4922  0.4389  1.3304
 2627TIP3   OH229439   3.643   2.759   4.018  0.1878 -0.0635  0.0362
 2627TIP3    H129440   3.704   2.828   4.043 -0.5886  1.0529 -1.0825
 2627TIP3    H229441   3.656   2.691   4.085  1.5245  0.8050  0.7045
 2628TIP3   OH229442   2.058   0.029   8.168 -0.1540 -0.6283  0.5081
 2628TIP3    H129443   2.107  -0.020   8.234  0.4293 -2.3138 -1.0774
 2628TIP3    H229444   1.970  -0.009   8.170 -0.0394 -0.9301  0.1222
 2629TIP3   OH229445   1.511   5.680   2.574  0.0302  0.2161  0.1908
 2629TIP3    H129446   1.513   5.641   2.486 -1.4123 -0.2946  0.3553
 2629TIP3    H229447   1.514   5.774   2.558  0.7361  0.1102 -0.3551
 2630TIP3   OH229448   2.735   1.900   3.583  0.2624 -0.1435  0.2052
 2630TIP3    H129449   2.800   1.921   3.516 -0.3731 -0.1997 -0.4259
 2630TIP3    H229450   2.720   1.984   3.628 -2.0409  0.8035 -2.1109
 2631TIP3   OH229451   5.260   1.700   1.159 -0.2987 -0.0299  0.3271
 2631TIP3    H129452   5.259   1.611   1.193 -1.6406  0.6526  2.2357
 2631TIP3    H229453   5.289   1.691   1.068 -1.1008 -2.4662  0.2562
 2632TIP3   OH229454   5.227   3.916   8.090 -0.3385  0.0799 -0.0143
 2632TIP3    H129455   5.304   3.912   8.033 -0.8958  1.4847 -0.9418
 2632TIP3    H229456   5.235   4.000   8.134 -0.8777 -0.1691  0.5697
 2633TIP3   OH229457   0.857   3.997   3.161 -0.3135  0.0803  0.6101
 2633TIP3    H129458   0.902   3.940   3.098 -1.0646  0.8450 -0.6783
 2633TIP3    H229459   0.764   3.985   3.142 -0.5381  0.6701  1.2814
 2634TIP3   OH229460   3.152   1.752   2.190  0.0194 -0.0159 -0.3720
 2634TIP3    H129461   3.209   1.696   2.137  1.2161  1.6939 -0.9877
 2634TIP3    H229462   3.147   1.708   2.275 -0.7002 -2.0358 -1.3802
 2635TIP3   OH229463   4.811   5.086   2.632 -0.3978  0.4836 -0.0743
 2635TIP3    H129464   4.731   5.138   2.633 -0.2680  0.6748  1.0889
 2635TIP3    H229465   4.790   5.012   2.574 -1.1599  0.9116 -0.3620
 2636TIP3   OH229466   4.251   3.923   2.045 -0.3125 -0.1827  0.2821
 2636TIP3    H129467   4.255   4.005   2.095  1.5655  0.9489 -1.5287
 2636TIP3    H229468   4.167   3.884   2.069 -0.5678  1.4851  2.4015
 2637TIP3   OH229469   6.143   2.989   1.338 -0.7862 -0.4899  0.3631
 2637TIP3    H129470   6.118   2.941   1.416  0.2717 -0.8745  0.4894
 2637TIP3    H229471   6.151   2.923   1.270 -2.5998 -0.0481 -0.3431
 2638TIP3   OH229472   5.982   1.046   2.195  0.0806  0.1889 -0.3659
 2638TIP3    H129473   5.975   1.007   2.282  0.9064  0.5270 -0.1406
 2638TIP3    H229474   5.969   1.140   2.209 -1.8506  0.0519 -0.8993
 2639TIP3   OH229475   5.672   1.280   2.474  0.0447 -0.2783  0.3366
 2639TIP3    H129476   5.604   1.248   2.534 -0.8670  1.0543  0.0569
 2639TIP3    H229477   5.624   1.333   2.410  1.1516 -0.6988 -0.8889
 2640TIP3   OH229478   4.448   3.592   1.496 -0.2135  0.1995  0.0300
 2640TIP3    H129479   4.419   3.675   1.532  0.2359  1.0424 -1.4702
 2640TIP3    H229480   4.437   3.529   1.568  1.4381  1.9252  1.9337
 2641TIP3   OH229481   1.722   2.273   0.041  0.2542 -0.6179 -0.4077
 2641TIP3    H129482   1.790   2.218   0.002  0.8583 -1.7830  2.0493
 2641TIP3    H229483   1.646   2.215   0.047  0.1835 -0.4745  0.1386
 2642TIP3   OH229484   5.334   3.266   2.254  0.1097  0.1045  0.0510
 2642TIP3    H129485   5.272   3.197   2.275 -0.2062  1.0082  2.3123
 2642TIP3    H229486   5.288   3.323   2.192 -0.6194 -0.2242  0.2938
 2643TIP3   OH229487   3.052   6.906   0.396  0.4291 -0.4626 -0.3831
 2643TIP3    H129488   3.038   6.977   0.459 -0.9366  0.4392 -1.6471
 2643TIP3    H229489   3.137   6.925   0.356 -1.0839  2.1771 -2.7192
 2644TIP3   OH229490   4.558   5.019   2.416 -0.1691 -0.3755  0.7081
 2644TIP3    H129491   4.495   4.946   2.409 -2.3502  1.5455 -1.8779
 2644TIP3    H229492   4.643   4.978   2.404 -1.2711 -2.6000 -0.1271
 2645TIP3   OH229493   5.128   3.876   0.889 -0.5875 -0.1527  0.3693
 2645TIP3    H129494   5.037   3.852   0.872 -0.3039  1.0941 -3.9617
 2645TIP3    H229495   5.136   3.966   0.857  2.3780 -0.6002 -0.4636
 2646TIP3   OH229496   6.113   4.738   7.957  0.0380 -0.3554  0.1613
 2646TIP3    H129497   6.040   4.770   8.010  0.1705  1.4749 -0.6772
 2646TIP3    H229498   6.079   4.659   7.915 -2.0667  1.2459 -1.3758
 2647TIP3   OH229499   1.393   2.623   1.448  0.3886  0.3408  0.0020
 2647TIP3    H129500   1.463   2.638   1.511  0.1765  0.1012  0.2915
 2647TIP3    H229501   1.312   2.628   1.499  0.2828 -1.5577  0.0783
 2648TIP3   OH229502   1.951   0.433   3.131  0.7327 -0.5878 -0.1803
 2648TIP3    H129503   1.984   0.428   3.221  1.7571  0.0067 -0.5012
 2648TIP3    H229504   1.869   0.384   3.133 -0.0095  0.6220  1.3974
 2649TIP3   OH229505   1.230   2.595   0.711  0.5250  0.2202 -0.2422
 2649TIP3    H129506   1.253   2.553   0.628 -0.7228 -1.3615  0.1684
 2649TIP3    H229507   1.170   2.534   0.753  0.2005  1.5412  1.3076
 2650TIP3   OH229508   2.725   2.524   0.274  0.4148 -0.7280  0.0921
 2650TIP3    H129509   2.653   2.553   0.218  0.1034 -2.0765 -0.2359
 2650TIP3    H229510   2.801   2.570   0.239 -0.8091  4.5568  3.3593
 2651TIP3   OH229511   1.884   1.858   1.260  0.1732 -0.0534 -0.0765
 2651TIP3    H129512   1.948   1.901   1.204  0.0187  2.8511  1.8015
 2651TIP3    H229513   1.937   1.804   1.319  0.4830 -1.3379 -1.4745
 2652TIP3   OH229514   4.342   3.271   1.249 -0.2075 -0.3308 -0.2283
 2652TIP3    H129515   4.377   3.182   1.246 -0.1209 -0.3673  1.1405
 2652TIP3    H229516   4.313   3.282   1.340 -0.6313  0.8822 -0.4949
 2653TIP3   OH229517   3.427   1.707   2.457 -0.5578 -0.6674  0.1303
 2653TIP3    H129518   3.469   1.645   2.516  0.7099  0.8724  0.9068
 2653TIP3    H229519   3.366   1.756   2.513 -0.0465  0.1623 -0.0242
 2654TIP3   OH229520   5.922   6.513   2.165  0.5479 -1.1910 -0.4824
 2654TIP3    H129521   5.907   6.480   2.254 -0.9055 -0.1917 -0.3151
 2654TIP3    H229522   5.928   6.435   2.111 -2.3780 -1.8062 -0.0502
 2655TIP3   OH229523   3.498   4.888   1.821  0.0504  0.3184  0.3193
 2655TIP3    H129524   3.573   4.864   1.767 -0.6093 -0.1842 -0.3932
 2655TIP3    H229525   3.492   4.983   1.813  0.3065  0.3070 -0.0252
 2656TIP3   OH229526   1.813   1.716   1.015  0.1447 -0.6643 -0.1689
 2656TIP3    H129527   1.748   1.712   1.086  0.4108 -4.2022  0.0898
 2656TIP3    H229528   1.893   1.746   1.058 -0.2231 -0.7167  0.5703
 2657TIP3   OH229529   5.685   4.335   0.130  0.1347 -0.2971 -0.0300
 2657TIP3    H129530   5.744   4.409   0.114 -0.1333 -0.0461  0.1191
 2657TIP3    H229531   5.629   4.331   0.052 -0.4032  0.1928  0.3163
 2658TIP3   OH229532   0.661   3.303   4.131 -0.5079 -0.2765 -0.0356
 2658TIP3    H129533   0.746   3.319   4.092 -0.4743  1.1009  0.5420
 2658TIP3    H229534   0.599   3.309   4.058 -0.0619 -2.3050 -0.6414
 2659TIP3   OH229535   1.696   5.846   1.534  0.2237 -0.2336 -0.5008
 2659TIP3    H129536   1.761   5.794   1.487  1.6074  0.5972  0.4061
 2659TIP3    H229537   1.619   5.789   1.539  1.6994 -2.2787  0.5635
 2660TIP3   OH229538   2.169   6.028   1.415  0.7118 -0.0566 -0.0342
 2660TIP3    H129539   2.181   6.114   1.456 -1.1917  0.7842 -1.1158
 2660TIP3    H229540   2.094   5.990   1.461  0.4933 -0.4089 -0.6663
 2661TIP3   OH229541   6.706   5.858   2.598 -0.1097 -0.2049 -0.4116
 2661TIP3    H129542   6.738   5.912   2.527  1.1550  0.2868  0.4908
 2661TIP3    H229543   6.737   5.770   2.577  1.2514  0.1301  0.0584
 2662TIP3   OH229544   1.784   3.937   1.281 -0.2673 -0.0507  0.6980
 2662TIP3    H129545   1.746   3.906   1.199  1.3156  1.4339 -0.6762
 2662TIP3    H229546   1.727   4.009   1.309 -0.9226 -0.6887  1.0437
 2663TIP3   OH229547   2.281   5.135   2.285  0.0466  0.1720  0.2380
 2663TIP3    H129548   2.269   5.041   2.274 -1.8946  0.4359 -0.4217
 2663TIP3    H229549   2.197   5.173   2.259  1.3316  2.2195 -1.2708
 2664TIP3   OH229550   5.510   4.784   1.526  0.3128 -0.2505  0.0549
 2664TIP3    H129551   5.458   4.821   1.455  0.2216  1.1785  0.8289
 2664TIP3    H229552   5.458   4.711   1.559 -0.1686 -0.2077 -0.5887
 2665TIP3   OH229553   3.864   5.237   1.541  0.2333  1.0698 -0.8027
 2665TIP3    H129554   3.891   5.210   1.628  0.9989 -0.4459 -1.4846
 2665TIP3    H229555   3.771   5.260   1.551 -0.0425 -0.3573  0.1484
 2666TIP3   OH229556   4.755   4.966   2.049 -0.3875  0.5183  0.5825
 2666TIP3    H129557   4.847   4.968   2.077 -0.1406  0.3887 -0.1637
 2666TIP3    H229558   4.720   4.885   2.087  0.1263 -0.0027 -0.0113
 2667TIP3   OH229559   0.877   0.578   3.080  0.3929 -0.2939 -0.0928
 2667TIP3    H129560   0.954   0.601   3.132  1.2612 -3.0119 -0.0310
 2667TIP3    H229561   0.856   0.489   3.106 -0.9812 -0.6874 -2.2810
 2668TIP3   OH229562   6.499   2.770   1.059 -0.2031  0.3568  0.1003
 2668TIP3    H129563   6.440   2.843   1.041 -1.6762 -0.9283 -0.5833
 2668TIP3    H229564   6.543   2.754   0.975 -1.3129 -0.7126 -0.3129
 2669TIP3   OH229565   3.634   4.399   2.392 -0.4780 -0.0531  0.4743
 2669TIP3    H129566   3.592   4.348   2.461 -1.8715  0.4769  0.0470
 2669TIP3    H229567   3.690   4.462   2.438 -0.9110 -0.1165  1.0908
 2670TIP3   OH229568   4.221   1.814   0.408 -0.9180 -0.3194 -0.2615
 2670TIP3    H129569   4.287   1.814   0.339  0.0410  0.2117  0.6212
 2670TIP3    H229570   4.152   1.755   0.376  0.8088 -2.3397 -0.4078
 2671TIP3   OH229571   5.781   5.111   0.115  0.2099 -0.1705  0.4665
 2671TIP3    H129572   5.867   5.141   0.083  0.1986  0.1180  0.7051
 2671TIP3    H229573   5.719   5.176   0.082  0.0701 -0.4346  0.2098
 2672TIP3   OH229574   1.978   3.190   3.323  0.1809  0.4453  0.2493
 2672TIP3    H129575   2.024   3.239   3.255  0.8974  1.1001  1.1697
 2672TIP3    H229576   1.930   3.257   3.372 -0.7072 -0.0742  0.1137
 2673TIP3   OH229577   0.230   6.915   2.115 -0.0372 -0.5456 -0.5909
 2673TIP3    H129578   0.229   7.010   2.108 -0.8117 -0.1769  2.7185
 2673TIP3    H229579   0.322   6.893   2.130 -0.0924 -0.0371  0.6354
 2674TIP3   OH229580   2.870   6.858   1.405 -0.2711  0.0974  0.5595
 2674TIP3    H129581   2.860   6.763   1.416 -0.4902 -0.0631 -0.8814
 2674TIP3    H229582   2.860   6.893   1.494  2.5135 -1.4191  1.6173
 2675TIP3   OH229583   6.186   2.667   0.389  0.5118 -0.0795  0.4265
 2675TIP3    H129584   6.219   2.641   0.303  0.5847 -0.4039  0.5481
 2675TIP3    H229585   6.135   2.592   0.419 -2.6615  1.3997 -0.9008
 2676TIP3   OH229586   5.680   0.745   2.731 -0.2011 -0.1481 -0.3195
 2676TIP3    H129587   5.720   0.832   2.728 -0.3573 -0.1056 -1.4890
 2676TIP3    H229588   5.735   0.691   2.674  0.2550 -0.9883  0.8704
 2677TIP3   OH229589   2.293   6.894   1.729 -0.1217  0.3308  0.0257
 2677TIP3    H129590   2.215   6.913   1.781  0.0330  0.6593  0.1390
 2677TIP3    H229591   2.299   6.966   1.667  1.6074  1.7879  1.7705
 2678TIP3   OH229592   3.236   6.502   1.639  0.2195 -0.3478 -0.4364
 2678TIP3    H129593   3.292   6.550   1.701 -0.1727  0.0185 -0.3626
 2678TIP3    H229594   3.274   6.414   1.636  2.0001  0.4120 -1.8898
 2679TIP3   OH229595   3.254   3.499   2.321 -1.3393 -0.4571 -1.0370
 2679TIP3    H129596   3.269   3.432   2.387 -2.3494 -0.2103 -0.5331
 2679TIP3    H229597   3.243   3.451   2.239 -1.3161 -0.8506 -0.8067
 2680TIP3   OH229598   0.004   0.990   3.173 -0.0313 -0.2291  0.7864
 2680TIP3    H129599   0.081   0.939   3.200  1.3402  0.8248 -0.8395
 2680TIP3    H229600  -0.009   0.965   3.081 -2.2978 -1.1169  1.3048
 2681TIP3   OH229601   3.195   0.834   3.282 -0.2114 -0.1363 -0.5782
 2681TIP3    H129602   3.143   0.899   3.235  1.0819 -0.1880 -2.1886
 2681TIP3    H229603   3.286   0.854   3.258  0.2518 -2.2891 -0.8617
 2682TIP3   OH229604   3.119   1.288   2.502  0.0432 -0.3074 -0.5408
 2682TIP3    H129605   3.033   1.307   2.464 -0.3385 -2.1009 -0.6187
 2682TIP3    H229606   3.138   1.198   2.477  2.2629  0.2467 -1.0679
 2683TIP3   OH229607   6.139   5.664   1.145 -0.2572  0.2508 -0.3812
 2683TIP3    H129608   6.145   5.703   1.058  0.6345 -0.4631 -0.6604
 2683TIP3    H229609   6.076   5.718   1.192  0.2177  1.4229 -1.0607
 2684TIP3   OH229610   0.960   4.023   0.531 -0.1037  0.0908  0.1977
 2684TIP3    H129611   0.961   4.007   0.437 -1.2828  2.4796 -0.3004
 2684TIP3    H229612   0.867   4.038   0.552 -0.0673 -1.7945  2.0508
 2685TIP3   OH229613   0.752   2.513   4.587  0.2597  0.2435 -0.0524
 2685TIP3    H129614   0.762   2.608   4.590  0.2132  0.2408  0.2366
 2685TIP3    H229615   0.841   2.479   4.578  0.4063  0.2711  1.0752
 2686TIP3   OH229616   4.109   1.771   4.149  0.1756 -0.4587  0.0894
 2686TIP3    H129617   4.070   1.717   4.081 -0.4833  1.2801 -0.9932
 2686TIP3    H229618   4.037   1.790   4.210  0.1409  0.0227 -0.0957
 2687TIP3   OH229619   2.072   3.157   2.179  0.1311  0.4408  0.2616
 2687TIP3    H129620   2.046   3.065   2.170 -1.3609  0.8636  0.0470
 2687TIP3    H229621   2.147   3.154   2.238  0.2768 -0.9386  0.0552
 2688TIP3   OH229622   4.377   3.340   0.665 -0.0973 -1.0344  0.0764
 2688TIP3    H129623   4.446   3.276   0.651 -0.0662 -0.9690 -0.0742
 2688TIP3    H229624   4.423   3.417   0.700  0.3293 -0.0384 -2.4225
 2689TIP3   OH229625   3.073   4.948   0.652 -0.6840  0.5274  0.4606
 2689TIP3    H129626   3.017   4.953   0.574 -0.1626 -0.4828 -0.0059
 2689TIP3    H229627   3.135   4.878   0.632  0.6135  1.4632  1.0497
 2690TIP3   OH229628   1.218   3.423   0.825 -0.0397 -0.0534 -0.3066
 2690TIP3    H129629   1.159   3.448   0.753 -0.5083 -0.7353 -0.1612
 2690TIP3    H229630   1.284   3.493   0.826  0.2029 -0.2214 -1.6517
 2691TIP3   OH229631   3.089   4.873   2.554 -0.1715  0.0735  0.3220
 2691TIP3    H129632   3.017   4.882   2.616  0.4199 -0.8768  1.1845
 2691TIP3    H229633   3.118   4.963   2.537 -0.0323  0.3471  1.8362
 2692TIP3   OH229634   5.152   1.314   3.239  0.6025  0.3820 -0.2394
 2692TIP3    H129635   5.085   1.379   3.218  0.2312 -0.1839 -0.8638
 2692TIP3    H229636   5.102   1.239   3.274  0.8012 -0.4275 -1.6257
 2693TIP3   OH229637   0.582   2.467   1.138  0.3158 -0.6284 -0.5398
 2693TIP3    H129638   0.577   2.372   1.148  0.2592 -0.5444  0.2562
 2693TIP3    H229639   0.495   2.492   1.108  0.3357 -0.8300 -0.7704
 2694TIP3   OH229640   6.734   0.327   1.312 -0.0540  0.3347 -0.1337
 2694TIP3    H129641   6.651   0.360   1.346  0.3239  1.9222 -0.6631
 2694TIP3    H229642   6.752   0.382   1.236  1.8864  0.5762  0.4400
 2695TIP3   OH229643   0.222   3.189   3.346  0.2201  0.4375 -1.0399
 2695TIP3    H129644   0.155   3.253   3.371 -0.3205 -1.0997  1.8447
 2695TIP3    H229645   0.293   3.242   3.310 -1.7065  2.2811 -2.3797
 2696TIP3   OH229646   4.850   6.171   2.029 -0.4337 -0.5450 -0.6884
 2696TIP3    H129647   4.846   6.153   2.123 -0.4234  1.3869 -0.2822
 2696TIP3    H229648   4.932   6.131   2.001  0.1937 -0.0750  0.4052
 2697TIP3   OH229649   1.572   0.529   2.363  0.3098 -0.1654  0.3801
 2697TIP3    H129650   1.618   0.612   2.348 -0.2449  0.3691  1.5308
 2697TIP3    H229651   1.641   0.467   2.386  0.7124 -0.0014 -0.3399
 2698TIP3   OH229652   2.792   3.671   3.989 -0.6158 -0.6053 -0.6447
 2698TIP3    H129653   2.721   3.675   4.053 -0.5874 -0.3474 -0.6277
 2698TIP3    H229654   2.858   3.731   4.023 -0.2675 -1.0584 -0.5134
 2699TIP3   OH229655   6.717   2.878   1.571 -0.2717 -0.0765 -0.3624
 2699TIP3    H129656   6.629   2.896   1.604 -0.1799 -0.0091 -0.1522
 2699TIP3    H229657   6.707   2.879   1.476 -0.0607  2.2383 -0.4104
 2700TIP3   OH229658   6.807   1.986   1.802  0.4090 -0.2453  0.3340
 2700TIP3    H129659   6.742   1.916   1.806 -1.2970  1.3191  2.7684
 2700TIP3    H229660   6.797   2.022   1.713 -0.4069 -1.4835 -0.1094
 2701TIP3   OH229661   2.073   2.588   0.857 -0.3700 -0.3978 -0.2234
 2701TIP3    H129662   2.059   2.494   0.868  1.6888 -0.7690 -0.3725
 2701TIP3    H229663   2.168   2.597   0.847 -0.6917  1.4466 -2.5476
 2702TIP3   OH229664   1.397   0.223   3.197  0.6018 -0.0441 -0.8569
 2702TIP3    H129665   1.483   0.185   3.217  0.1689 -1.1722 -1.0266
 2702TIP3    H229666   1.367   0.262   3.279 -0.3762 -3.0362  0.3426
 2703TIP3   OH229667   4.317   1.900   1.037 -0.2581  0.3207 -0.6069
 2703TIP3    H129668   4.267   1.927   0.960  0.2687  1.5428 -0.5417
 2703TIP3    H229669   4.350   1.981   1.075  0.3110 -0.3290  0.3595
 2704TIP3   OH229670   6.691   2.520   1.519  0.5944 -0.5540 -0.0818
 2704TIP3    H129671   6.644   2.438   1.537  0.9715 -0.6727  0.4005
 2704TIP3    H229672   6.635   2.567   1.457  0.4889 -1.2837 -0.5566
 2705TIP3   OH229673   6.091   5.484   1.884 -0.3650 -0.5690 -0.1049
 2705TIP3    H129674   6.015   5.471   1.827 -0.4888 -0.3693  0.0124
 2705TIP3    H229675   6.053   5.496   1.972 -0.1335 -1.9100  0.2111
 2706TIP3   OH229676   0.694   0.742   0.059  0.2960 -0.4950  0.2712
 2706TIP3    H129677   0.700   0.693  -0.023  0.8532  0.6686 -0.4159
 2706TIP3    H229678   0.760   0.811   0.050 -1.1958  1.0776  0.6999
 2707TIP3   OH229679   0.091   3.020   1.284  0.4408  0.2147 -0.0004
 2707TIP3    H129680   0.033   2.946   1.263  0.2749  0.5892 -0.8839
 2707TIP3    H229681   0.082   3.079   1.210  1.7578  0.4105 -0.0149
 2708TIP3   OH229682   5.482   1.115   2.218 -0.1530 -0.4213  0.2260
 2708TIP3    H129683   5.435   1.177   2.162 -0.0385 -0.0615  0.5174
 2708TIP3    H229684   5.563   1.096   2.171  0.7413  1.2098  1.0201
 2709TIP3   OH229685   5.876   6.783   2.118 -0.0317 -0.0917 -0.0928
 2709TIP3    H129686   5.922   6.851   2.168  0.1594 -0.4105  0.1719
 2709TIP3    H229687   5.919   6.701   2.144 -1.8239 -0.5985  1.4132
 2710TIP3   OH229688   5.294   1.338   2.669  0.3182 -0.1290  0.1110
 2710TIP3    H129689   5.374   1.369   2.709 -0.7356 -1.0747  3.1962
 2710TIP3    H229690   5.303   1.243   2.666  0.6011 -0.1023 -2.6625
 2711TIP3   OH229691   6.854   1.034   4.416  0.0772 -0.4610 -0.3520
 2711TIP3    H129692   6.788   1.088   4.373 -0.2675  1.1491  2.0032
 2711TIP3    H229693   6.938   1.070   4.387 -0.1500  0.7551  0.4553
 2712TIP3   OH229694   4.950   2.634   2.999 -0.1780  0.1407 -0.3329
 2712TIP3    H129695   4.895   2.706   3.031  1.0761  0.1932  1.8997
 2712TIP3    H229696   4.966   2.580   3.076  0.1801 -1.7162 -1.6488
 2713TIP3   OH229697   5.813   0.290   0.129  0.0744  0.2510 -0.5515
 2713TIP3    H129698   5.720   0.281   0.153  0.5400  0.4754  1.4986
 2713TIP3    H229699   5.833   0.208   0.083 -0.6780 -0.6396  0.6590
 2714TIP3   OH229700   1.248   2.564   4.598 -0.1716  0.1873  0.1781
 2714TIP3    H129701   1.202   2.484   4.574  0.3702 -0.7702  2.1683
 2714TIP3    H229702   1.340   2.545   4.578  0.0478  0.0320  1.2629
 2715TIP3   OH229703   6.791   5.129   3.630 -0.1852  0.0524  0.4136
 2715TIP3    H129704   6.840   5.176   3.697 -0.5843 -1.4852  1.8657
 2715TIP3    H229705   6.702   5.161   3.639  0.1232  1.3610 -0.8449
 2716TIP3   OH229706   2.695   6.936   3.460 -0.2375  0.1723 -0.0971
 2716TIP3    H129707   2.766   6.964   3.516  0.3931 -0.2759 -0.6566
 2716TIP3    H229708   2.731   6.940   3.371  0.3532 -3.5966 -0.1695
 2717TIP3   OH229709   2.831   5.674   1.312 -0.0556  0.7362 -0.0832
 2717TIP3    H129710   2.747   5.701   1.350  0.0335  2.4591 -1.0263
 2717TIP3    H229711   2.860   5.750   1.261  3.0679  1.0051  1.8273
 2718TIP3   OH229712   5.810   1.366   4.562 -0.3010  0.3253  0.0169
 2718TIP3    H129713   5.739   1.338   4.620  0.4878  0.4834  1.1013
 2718TIP3    H229714   5.824   1.458   4.585  1.1114 -0.0449  0.7725
 2719TIP3   OH229715   0.810   4.594   3.426 -0.3124 -0.4185  0.3681
 2719TIP3    H129716   0.835   4.542   3.350 -1.9066 -0.4776 -0.1518
 2719TIP3    H229717   0.785   4.530   3.492  0.1808 -0.3516  0.6212
 2720TIP3   OH229718   6.902   2.518   1.300  0.4900  0.3573  0.2708
 2720TIP3    H129719   6.847   2.483   1.230  1.3899  0.1132 -0.3480
 2720TIP3    H229720   6.855   2.499   1.381 -0.1060 -0.2560 -0.2114
 2721TIP3   OH229721   0.073   2.054   3.036  0.0988  0.5167 -0.1389
 2721TIP3    H129722   0.043   2.145   3.033 -0.4696  0.3247 -0.2719
 2721TIP3    H229723   0.121   2.048   3.119 -3.4291 -0.1643  2.0228
 2722TIP3   OH229724   5.566   1.269   0.677  0.6376  0.0636 -0.2757
 2722TIP3    H129725   5.503   1.306   0.615 -1.1638 -2.0812  0.1714
 2722TIP3    H229726   5.583   1.341   0.739 -1.6947  0.6193 -0.1942
 2723TIP3   OH229727   1.681   3.986   3.727  0.3917 -0.0734 -0.2092
 2723TIP3    H129728   1.663   4.080   3.727  2.1484  0.3002 -0.9756
 2723TIP3    H229729   1.776   3.980   3.716  0.4544 -1.9291  0.9636
 2724TIP3   OH229730   4.870   6.508   0.787  0.0025 -0.7843 -0.0271
 2724TIP3    H129731   4.938   6.479   0.847 -0.3063 -2.0894 -0.2687
 2724TIP3    H229732   4.916   6.535   0.709  0.5353  2.3658  1.2467
 2725TIP3   OH229733   4.198   1.262   8.346  0.1920  0.0829  0.1363
 2725TIP3    H129734   4.172   1.352   8.363  1.4480  0.3281  0.8223
 2725TIP3    H229735   4.115   1.216   8.332 -0.6575  0.8389  2.2306
 2726TIP3   OH229736   0.429   1.932   2.940 -0.1153  0.0152  0.5293
 2726TIP3    H129737   0.439   2.028   2.945 -0.4509  0.0486  0.5706
 2726TIP3    H229738   0.387   1.917   2.856 -0.9918 -0.0176  0.9592
 2727TIP3   OH229739   4.599   5.248   2.580  0.1417  0.4574 -0.2317
 2727TIP3    H129740   4.583   5.182   2.512  1.0543 -1.4388  1.2735
 2727TIP3    H229741   4.552   5.326   2.550 -1.2225 -0.9471 -1.9887
 2728TIP3   OH229742   3.345   2.155   2.466 -0.3610 -0.2841 -0.1876
 2728TIP3    H129743   3.429   2.116   2.443 -0.1000 -1.1343  1.9555
 2728TIP3    H229744   3.280   2.102   2.419  0.2605  1.4348 -3.2535
 2729TIP3   OH229745   0.599   5.857   3.276  0.3282  0.1841  0.7702
 2729TIP3    H129746   0.694   5.855   3.266  0.1672 -0.5381 -0.9380
 2729TIP3    H229747   0.576   5.950   3.278  0.9718  0.3677 -0.0618
 2730TIP3   OH229748   2.128   6.173   4.020  0.1671  0.2277 -0.2656
 2730TIP3    H129749   2.069   6.140   4.088  0.5106 -0.7137 -0.4084
 2730TIP3    H229750   2.073   6.183   3.943  0.0733 -0.1450 -0.2525
 2731TIP3   OH229751   4.927   0.587   1.067  0.4005  0.0909  0.1905
 2731TIP3    H129752   4.926   0.585   0.971  1.0014 -1.7190  0.1884
 2731TIP3    H229753   4.867   0.658   1.090 -0.8374 -0.3378 -1.5041
 2732TIP3   OH229754   0.310   1.909   3.843 -0.1821 -0.3975 -0.0425
 2732TIP3    H129755   0.405   1.909   3.855  0.1602  1.3959 -2.2349
 2732TIP3    H229756   0.279   1.979   3.901  0.0848  0.2884 -0.7098
 2733TIP3   OH229757   2.732   0.958   0.437  0.4530 -0.2903 -0.2953
 2733TIP3    H129758   2.794   0.937   0.367 -0.0321  1.4649 -1.3001
 2733TIP3    H229759   2.786   0.995   0.507  0.8050 -0.9830 -0.1945
 2734TIP3   OH229760   3.244   1.275   1.515  0.7701 -0.2234 -0.2411
 2734TIP3    H129761   3.305   1.202   1.523  1.6869  0.5809  0.2479
 2734TIP3    H229762   3.293   1.351   1.545 -0.4373  0.4645  0.0642
 2735TIP3   OH229763   5.489   2.345   4.112  0.2237  0.2842 -0.0483
 2735TIP3    H129764   5.503   2.305   4.026  0.0284 -0.7720  0.3914
 2735TIP3    H229765   5.434   2.421   4.094  2.2221  1.5491 -1.1569
 2736TIP3   OH229766   5.600   5.804   1.335  0.5627 -0.0504 -0.1135
 2736TIP3    H129767   5.690   5.793   1.368  0.3201 -0.5170  0.4160
 2736TIP3    H229768   5.571   5.715   1.317  0.9684  0.2309 -2.4110
 2737TIP3   OH229769   4.488   4.024   1.377  0.3901 -0.3357 -0.4056
 2737TIP3    H129770   4.489   4.045   1.471  0.2201  0.9908 -0.6892
 2737TIP3    H229771   4.580   4.013   1.355  0.6603  1.8427 -0.5875
 2738TIP3   OH229772   1.659   1.114   2.826 -0.6277  0.7518  0.1207
 2738TIP3    H129773   1.588   1.090   2.768  0.9345  0.1702 -1.6462
 2738TIP3    H229774   1.686   1.201   2.798  1.6873 -0.4423 -1.7902
 2739TIP3   OH229775   6.508   2.082   1.230  0.0406  0.0627  0.2195
 2739TIP3    H129776   6.595   2.121   1.226 -0.3000  0.7074 -1.3830
 2739TIP3    H229777   6.520   2.004   1.284  0.8910  1.8896  2.8732
 2740TIP3   OH229778   3.563   5.802   1.178  0.3589  0.6886 -0.3211
 2740TIP3    H129779   3.473   5.787   1.150  0.4371  0.9105 -0.7005
 2740TIP3    H229780   3.610   5.723   1.153  0.3997  0.8305 -0.7025
 2741TIP3   OH229781   6.150   0.103   3.833  0.1787 -0.2199 -0.1272
 2741TIP3    H129782   6.145   0.031   3.769  0.1551 -0.3470  0.0173
 2741TIP3    H229783   6.214   0.163   3.795  1.5526 -1.1643  0.5943
 2742TIP3   OH229784   3.760   4.767   3.078 -0.2781 -0.1085 -0.2202
 2742TIP3    H129785   3.722   4.751   3.165 -0.1943  2.1698  0.3071
 2742TIP3    H229786   3.734   4.857   3.058  0.5180 -0.2818 -2.1548
 2743TIP3   OH229787   2.310   3.544   1.593 -0.3559  0.1136 -0.6311
 2743TIP3    H129788   2.396   3.582   1.613 -0.9293  0.3454  1.7324
 2743TIP3    H229789   2.254   3.620   1.573 -0.0854 -0.0224 -1.9789
 2744TIP3   OH229790   5.662   2.782   4.393 -0.8551 -0.1094  0.2408
 2744TIP3    H129791   5.730   2.848   4.407 -0.7492 -0.0602 -0.4668
 2744TIP3    H229792   5.708   2.698   4.405 -1.0016 -0.0641  1.1932
 2745TIP3   OH229793   5.512   1.456   2.788 -0.0240 -0.3860 -0.3828
 2745TIP3    H129794   5.514   1.533   2.731  1.0304  1.5338  2.0758
 2745TIP3    H229795   5.588   1.405   2.760  0.8973  0.8730 -0.2755
 2746TIP3   OH229796   1.285   1.194   0.553  0.1948  0.6329 -0.1045
 2746TIP3    H129797   1.324   1.112   0.585  1.9149  1.5071  0.1858
 2746TIP3    H229798   1.237   1.169   0.475 -0.3525 -0.8428  0.6584
 2747TIP3   OH229799   3.533   6.060   1.274  0.8957  0.9208  0.0061
 2747TIP3    H129800   3.562   5.969   1.266  0.5199  0.8131 -0.1317
 2747TIP3    H229801   3.601   6.110   1.228 -0.7766  0.4006 -3.3763
 2748TIP3   OH229802   6.653   2.733   3.606  0.4844  0.2616 -0.1705
 2748TIP3    H129803   6.677   2.698   3.692  2.5893 -0.3170 -0.9157
 2748TIP3    H229804   6.574   2.784   3.621  0.8615  0.2651  2.1219
 2749TIP3   OH229805   3.864   2.695   3.121  0.1605 -0.7823  0.6253
 2749TIP3    H129806   3.774   2.729   3.111  0.2473 -1.2162 -4.6888
 2749TIP3    H229807   3.853   2.608   3.159 -1.8015 -1.0490 -0.4174
 2750TIP3   OH229808   1.500   1.214   3.588 -0.2783 -0.5539  0.1940
 2750TIP3    H129809   1.492   1.225   3.494 -0.5771 -0.1869  0.2609
 2750TIP3    H229810   1.426   1.263   3.625  1.8265  2.4623  0.7971
 2751TIP3   OH229811   1.980   3.123   3.036  0.5779  0.4579 -0.0267
 2751TIP3    H129812   1.993   3.071   2.956 -2.0324  0.9282 -0.8674
 2751TIP3    H229813   2.016   3.209   3.014 -2.0854  1.2862 -1.6859
 2752TIP3   OH229814   5.534   1.980   8.286  0.0544 -0.2162 -0.0897
 2752TIP3    H129815   5.523   1.941   8.372 -1.0341  0.1820 -0.0280
 2752TIP3    H229816   5.516   2.073   8.300  1.5136  0.1329 -0.4390
 2753TIP3   OH229817   4.079   6.083   3.865 -0.2276  0.3470  0.2610
 2753TIP3    H129818   4.175   6.083   3.858 -0.2141 -0.6857  0.3601
 2753TIP3    H229819   4.062   6.063   3.957 -0.5409  1.7050  0.5218
 2754TIP3   OH229820   4.798   6.058   3.749 -0.0676 -0.8205 -0.1821
 2754TIP3    H129821   4.790   6.024   3.837  1.1151 -0.4036  0.1036
 2754TIP3    H229822   4.816   6.152   3.760 -0.0621 -0.7287 -0.8710
 2755TIP3   OH229823   2.905   3.092   0.282 -0.1906  0.1097 -0.2885
 2755TIP3    H129824   2.820   3.137   0.285  0.4857  1.4800 -0.9632
 2755TIP3    H229825   2.946   3.123   0.202  0.3742 -1.6686 -0.7423
 2756TIP3   OH229826   0.991   0.344   4.545  0.0805 -0.6328  0.1990
 2756TIP3    H129827   1.025   0.350   4.456  0.4280 -0.6414  0.3262
 2756TIP3    H229828   1.065   0.370   4.600  1.0929 -4.0924  0.6961
 2757TIP3   OH229829   5.817   5.361   3.225 -0.8246 -0.1366  0.3046
 2757TIP3    H129830   5.737   5.363   3.277 -1.6607  0.5493 -0.9572
 2757TIP3    H229831   5.787   5.357   3.135  0.5669 -0.0187 -0.1850
 2758TIP3   OH229832   1.969   6.632   4.086 -0.2837  0.6041 -0.2620
 2758TIP3    H129833   1.994   6.540   4.074 -1.9636  0.0105  0.4691
 2758TIP3    H229834   2.042   6.682   4.049  1.1139 -1.0082  0.1952
 2759TIP3   OH229835   0.950   1.322   0.151  0.4174 -0.1315  0.7058
 2759TIP3    H129836   0.924   1.413   0.156 -1.0104 -0.5818  2.2769
 2759TIP3    H229837   1.023   1.314   0.212  1.5519  0.2344 -0.5507
 2760TIP3   OH229838   3.846   5.404   3.500 -0.4372 -0.1555 -0.0039
 2760TIP3    H129839   3.785   5.430   3.569 -0.9013 -1.2833  0.0233
 2760TIP3    H229840   3.791   5.365   3.432 -0.0395  1.3727 -1.2484
 2761TIP3   OH229841   2.999   3.331   2.947  0.5243 -0.0031 -0.2675
 2761TIP3    H129842   2.978   3.396   2.880  0.1430 -1.0229 -1.1696
 2761TIP3    H229843   2.917   3.318   2.995 -0.1444 -1.6412 -1.7339
 2762TIP3   OH229844   4.158   0.021   1.388  0.2970  0.0297 -0.0005
 2762TIP3    H129845   4.163  -0.064   1.433  0.8669  0.5224  0.8836
 2762TIP3    H229846   4.222   0.014   1.317 -0.0041 -0.4469 -0.2348
 2763TIP3   OH229847   4.744   4.592   1.078 -0.4575 -0.1880  0.2518
 2763TIP3    H129848   4.772   4.609   0.989 -2.0832 -0.8345 -0.4303
 2763TIP3    H229849   4.800   4.647   1.132 -0.4800  1.4246 -1.2791
 2764TIP3   OH229850   1.279   1.302   1.344 -0.3070 -0.6023  0.0502
 2764TIP3    H129851   1.241   1.215   1.340 -0.8723 -0.3066 -1.4579
 2764TIP3    H229852   1.217   1.359   1.299  0.8754  0.2699 -0.5532
 2765TIP3   OH229853   1.761   6.581   2.378 -0.5625  0.0050 -0.2319
 2765TIP3    H129854   1.781   6.488   2.371 -0.5696 -0.0392  0.2853
 2765TIP3    H229855   1.811   6.622   2.307  1.6042 -0.0689  1.1528
 2766TIP3   OH229856   4.614   5.020   8.343 -0.2932  0.8587 -0.1063
 2766TIP3    H129857   4.677   4.966   8.295  0.8500  1.4153  0.7313
 2766TIP3    H229858   4.540   4.962   8.358  0.1420  0.0888 -0.8304
 2767TIP3   OH229859   5.293   6.605   4.181  0.0785  0.5098  0.3077
 2767TIP3    H129860   5.334   6.680   4.226 -0.5981  0.5981  0.7972
 2767TIP3    H229861   5.356   6.581   4.113  1.5579 -0.1792  1.8362
 2768TIP3   OH229862   3.010   0.962   3.091  0.0979 -0.5526  0.0382
 2768TIP3    H129863   3.037   1.053   3.101  0.3388 -0.6648  0.4721
 2768TIP3    H229864   2.943   0.950   3.159  0.5176 -0.8653  0.4073
 2769TIP3   OH229865   0.464   0.483   2.384 -0.1426  0.2029  0.0495
 2769TIP3    H129866   0.412   0.535   2.446 -2.6789 -1.9738 -0.0861
 2769TIP3    H229867   0.405   0.468   2.310  2.0551  0.8057 -1.9551
 2770TIP3   OH229868   1.793   1.516   1.316 -0.4998 -0.3463  0.2075
 2770TIP3    H129869   1.830   1.429   1.329  0.9206 -0.3340 -2.9011
 2770TIP3    H229870   1.855   1.560   1.258 -2.7998  1.5966 -0.9447
 2771TIP3   OH229871   3.957   2.739   2.459  0.1231  0.4732  0.7974
 2771TIP3    H129872   4.046   2.775   2.460  0.6710 -0.8024  0.1539
 2771TIP3    H229873   3.909   2.794   2.397  1.1847 -0.3911 -0.8570
 2772TIP3   OH229874   1.895   4.121   8.307  0.1602 -0.4210 -0.3639
 2772TIP3    H129875   1.924   4.114   8.216 -0.4520  1.3625 -0.7288
 2772TIP3    H229876   1.913   4.212   8.330 -1.9514 -0.1853  0.4979
 2773TIP3   OH229877   1.165   5.349   3.344 -0.2219 -0.0580  0.4832
 2773TIP3    H129878   1.125   5.427   3.382  0.2172 -1.0752  3.2454
 2773TIP3    H229879   1.155   5.282   3.411  1.4633 -1.7743 -0.8737
 2774TIP3   OH229880   3.343   1.051   3.036  0.3095  0.0335  0.1198
 2774TIP3    H129881   3.327   1.131   3.086  0.5642 -0.5466  1.1465
 2774TIP3    H229882   3.256   1.022   3.009  0.2884  1.2861 -1.3036
 2775TIP3   OH229883   2.697   0.590   8.221 -0.2194  0.0364 -0.0653
 2775TIP3    H129884   2.625   0.573   8.282 -0.7897 -1.2861 -1.0392
 2775TIP3    H229885   2.745   0.507   8.218  1.4611  0.9354  0.6579
 2776TIP3   OH229886   1.548   4.401   0.917  0.0916 -0.4140  0.0825
 2776TIP3    H129887   1.616   4.453   0.962 -1.2879  0.4748  1.2489
 2776TIP3    H229888   1.510   4.347   0.986 -1.0232 -0.1842 -0.3277
 2777TIP3   OH229889   1.949   2.607   1.743 -0.6946  0.2291  0.1956
 2777TIP3    H129890   1.926   2.594   1.650  0.1842  3.1271 -0.5217
 2777TIP3    H229891   1.866   2.628   1.785 -1.2007 -1.6949  0.2603
 2778TIP3   OH229892   5.021   2.002   8.390  0.5204  0.0880  0.0082
 2778TIP3    H129893   4.949   1.976   8.332  0.4292  0.8549 -0.2365
 2778TIP3    H229894   5.085   1.932   8.382  0.6857  0.3607 -1.3303
 2779TIP3   OH229895   0.620   2.096   2.571  0.1480  0.3677 -0.5662
 2779TIP3    H129896   0.658   2.182   2.557  2.2308 -0.8070 -2.7203
 2779TIP3    H229897   0.594   2.066   2.484 -3.4697 -0.0097  0.4800
 2780TIP3   OH229898   0.897   6.124   2.612 -0.0300 -0.1633  0.2619
 2780TIP3    H129899   0.892   6.041   2.565  1.1021 -1.2823  2.0273
 2780TIP3    H229900   0.991   6.146   2.612 -0.0638  0.0631  1.5162
 2781TIP3   OH229901   0.897   1.874   0.443 -0.5262  0.2667 -0.1605
 2781TIP3    H129902   0.908   1.848   0.352 -0.2165 -1.7046  0.4055
 2781TIP3    H229903   0.937   1.803   0.494 -0.8697  1.2218  1.5236
 2782TIP3   OH229904   6.637   1.820   0.610 -0.2460 -0.1234  0.3567
 2782TIP3    H129905   6.551   1.788   0.636 -0.0590 -1.5439 -0.6765
 2782TIP3    H229906   6.619   1.887   0.544 -0.5527 -1.1181 -0.5880
 2783TIP3   OH229907   3.841   1.622   1.943  0.1974 -0.2146 -0.5686
 2783TIP3    H129908   3.908   1.616   1.875 -0.6972 -1.5162 -1.3746
 2783TIP3    H229909   3.832   1.715   1.960 -0.4858  0.2723 -3.2014
 2784TIP3   OH229910   3.261   6.872   4.204 -0.1107 -0.0263 -0.2641
 2784TIP3    H129911   3.333   6.908   4.152  0.0377  0.0062 -0.0345
 2784TIP3    H229912   3.184   6.919   4.173  0.2782  1.5416  1.0539
 2785TIP3   OH229913   4.609   4.664   3.023 -0.0446 -0.5326 -0.1825
 2785TIP3    H129914   4.616   4.745   2.972 -2.9570  0.2160  0.3972
 2785TIP3    H229915   4.695   4.653   3.063  0.4954  2.2401 -0.3806
 2786TIP3   OH229916   2.731   6.470   4.018  0.4459  0.3088 -0.5863
 2786TIP3    H129917   2.802   6.476   4.082 -0.1044 -0.4593  0.1197
 2786TIP3    H229918   2.669   6.408   4.057 -0.8672  1.3539 -0.9400
 2787TIP3   OH229919   0.946   4.823   1.167 -0.1576  0.2928  0.4248
 2787TIP3    H129920   0.907   4.827   1.079 -1.5646  2.6251  1.0523
 2787TIP3    H229921   0.875   4.790   1.222  0.1056  0.6473  0.9754
 2788TIP3   OH229922   0.777   2.116   3.839  0.0076  0.2050  0.6038
 2788TIP3    H129923   0.729   2.149   3.762 -1.7210 -2.5843  0.3136
 2788TIP3    H229924   0.725   2.144   3.914  0.3496  0.8665  0.5973
 2789TIP3   OH229925   1.921   2.875   0.975  0.4063  0.4700 -0.0583
 2789TIP3    H129926   1.969   2.878   0.892  0.0829  2.1530 -0.2075
 2789TIP3    H229927   1.853   2.941   0.966 -1.1537 -0.9720  0.6627
 2790TIP3   OH229928   1.983   0.867   8.447 -0.1130  0.9717  0.2169
 2790TIP3    H129929   2.046   0.929   8.484  0.8528 -0.2544  0.7118
 2790TIP3    H229930   2.018   0.781   8.470 -0.5740  0.1888 -1.7795
 2791TIP3   OH229931   1.863   5.793   8.325 -0.0513 -0.2828 -0.5760
 2791TIP3    H129932   1.949   5.832   8.307  0.3122 -0.4109  0.7606
 2791TIP3    H229933   1.858   5.790   8.420 -1.2514 -0.9487 -0.6429
 2792TIP3   OH229934   1.856   4.517   1.105  0.0946 -0.1544  0.2820
 2792TIP3    H129935   1.793   4.580   1.139  0.1653  0.1498 -0.1464
 2792TIP3    H229936   1.884   4.554   1.022  1.2590 -0.0031  0.7202
 2793TIP3   OH229937   5.460   0.795   1.334 -0.3996  0.2666 -0.4532
 2793TIP3    H129938   5.434   0.750   1.414  3.3104 -0.9301  0.2592
 2793TIP3    H229939   5.426   0.739   1.264 -0.2100 -0.9277  0.3709
 2794TIP3   OH229940   4.681   1.060   0.555 -0.1958 -0.3041 -0.1376
 2794TIP3    H129941   4.617   1.120   0.516 -0.3577 -0.4330 -0.0732
 2794TIP3    H229942   4.637   0.975   0.555  0.1740 -0.5063 -0.5856
 2795TIP3   OH229943   0.564   2.070   1.623  0.1199  0.1016 -0.3238
 2795TIP3    H129944   0.558   2.166   1.628  0.8014  0.1116  0.4608
 2795TIP3    H229945   0.655   2.050   1.642  0.2645 -0.6520 -1.6786
 2796TIP3   OH229946   4.615   5.305   0.419  0.6767 -0.0321  0.3472
 2796TIP3    H129947   4.564   5.352   0.485  0.7793  0.2272  0.2402
 2796TIP3    H229948   4.591   5.345   0.336  1.9291  0.8925  0.4073
 2797TIP3   OH229949   1.084   6.842   3.105 -0.0157  0.1485 -0.2812
 2797TIP3    H129950   1.059   6.788   3.030 -0.1241  0.2088 -0.2888
 2797TIP3    H229951   1.018   6.823   3.171 -1.1720  1.6674 -0.9265
 2798TIP3   OH229952   4.399   6.498   0.700 -0.0998  0.2883  0.4480
 2798TIP3    H129953   4.316   6.541   0.721 -0.0565  0.7131 -0.2148
 2798TIP3    H229954   4.466   6.552   0.742 -0.1060  0.3889  0.3297
 2799TIP3   OH229955   0.114   1.408   0.388  0.5499 -0.1688 -0.2657
 2799TIP3    H129956   0.047   1.430   0.453 -0.6349  1.9238 -2.0669
 2799TIP3    H229957   0.114   1.312   0.386 -2.5248 -0.2686 -0.2694
 2800TIP3   OH229958   6.742   6.089   3.827  0.2454 -0.0142  0.2310
 2800TIP3    H129959   6.728   6.147   3.903  0.9311  0.3856  0.0627
 2800TIP3    H229960   6.666   6.032   3.827 -0.4150  0.8373  0.4517
 2801TIP3   OH229961   1.378   5.290   0.965  0.3611  0.2497 -0.3710
 2801TIP3    H129962   1.380   5.197   0.943 -0.4055  0.0748  0.2502
 2801TIP3    H229963   1.443   5.300   1.035  2.1202  0.6347 -1.9685
 2802TIP3   OH229964   3.347   3.708   1.160 -0.4486  0.1416  0.5209
 2802TIP3    H129965   3.331   3.626   1.207 -1.7065  0.1815  0.1990
 2802TIP3    H229966   3.441   3.708   1.143 -0.1920 -0.5478  1.7776
 2803TIP3   OH229967   3.068   5.267   8.235 -1.0610 -0.0698 -0.1880
 2803TIP3    H129968   2.975   5.288   8.248 -0.9490  1.0154 -1.0308
 2803TIP3    H229969   3.106   5.347   8.198 -0.0032 -0.8382 -0.8148
 2804TIP3   OH229970   6.305   2.661   2.420  0.2740 -0.3856 -0.2891
 2804TIP3    H129971   6.213   2.675   2.443  0.2909 -2.1495  1.0595
 2804TIP3    H229972   6.302   2.614   2.337 -0.0646 -0.9717  0.0530
 2805TIP3   OH229973   0.785   1.996   3.111 -0.3906  0.1013 -0.4413
 2805TIP3    H129974   0.809   2.083   3.142  0.2847  0.0042 -0.6627
 2805TIP3    H229975   0.810   1.996   3.018 -0.4886 -0.2866 -0.4714
 2806TIP3   OH229976   3.216   4.624   2.140  0.5738  0.0180 -0.1503
 2806TIP3    H129977   3.185   4.557   2.079  0.0705  0.0465  0.0667
 2806TIP3    H229978   3.260   4.688   2.084 -0.0240  0.1246 -0.5120
 2807TIP3   OH229979   0.497   6.341   1.985  0.4173 -0.3548 -0.3102
 2807TIP3    H129980   0.562   6.273   1.965 -0.8175 -1.3885 -1.0177
 2807TIP3    H229981   0.535   6.422   1.951  1.0922 -1.0356 -1.2210
 2808TIP3   OH229982   5.696   1.451   3.060 -0.3503 -0.0476  0.1564
 2808TIP3    H129983   5.745   1.486   2.986  1.9724 -3.7011 -0.3022
 2808TIP3    H229984   5.740   1.486   3.137  1.5491 -1.3192 -0.2787
 2809TIP3   OH229985   1.253   2.929   8.275  0.5084  0.3421 -0.1287
 2809TIP3    H129986   1.317   2.898   8.338  1.4830 -0.6347 -1.5284
 2809TIP3    H229987   1.217   2.849   8.237 -1.8330  0.8488  0.8539
 2810TIP3   OH229988   4.143   1.800   2.825  0.6833  0.0905 -0.0436
 2810TIP3    H129989   4.181   1.880   2.790 -0.4096 -0.2378 -2.1930
 2810TIP3    H229990   4.113   1.823   2.912 -0.5502  2.3501 -0.9887
 2811TIP3   OH229991   4.321   3.107   3.184  0.1252 -0.4885 -0.1185
 2811TIP3    H129992   4.287   3.194   3.162 -0.7432 -0.6393  0.5998
 2811TIP3    H229993   4.245   3.050   3.181  0.0806 -0.6804  2.3529
 2812TIP3   OH229994   0.003   0.033   2.649  0.0434  0.0113 -0.3714
 2812TIP3    H129995   0.072   0.013   2.586 -1.7951 -1.5062 -2.0062
 2812TIP3    H229996  -0.077   0.000   2.609 -1.8832  2.7849  0.8965
 2813TIP3   OH229997   3.462   2.071   0.569 -0.3849  0.2758  0.4513
 2813TIP3    H129998   3.490   2.043   0.656  0.1793 -1.3147 -0.1936
 2813TIP3    H229999   3.394   2.008   0.545  0.2168  0.0237 -0.6634
 2814TIP3   OH230000   5.825   2.868   3.574 -0.4070  0.5300  0.0106
 2814TIP3    H130001   5.756   2.803   3.563 -1.2762  1.5413 -0.7953
 2814TIP3    H230002   5.900   2.819   3.607 -0.8107 -1.0116 -1.2311
 2815TIP3   OH230003   4.726   3.457   1.596 -0.5571 -0.2434  0.2865
 2815TIP3    H130004   4.633   3.478   1.588 -0.4832 -0.3980 -1.2590
 2815TIP3    H230005   4.731   3.362   1.587 -0.1548 -0.1238 -0.9691
 2816TIP3   OH230006   0.904   1.872   2.547 -0.1834 -0.3378  0.9254
 2816TIP3    H130007   0.984   1.924   2.542  0.3537 -1.1167  1.3341
 2816TIP3    H230008   0.920   1.797   2.489 -0.6930 -0.3980  0.8558
 2817TIP3   OH230009   3.643   2.668   2.360 -0.0182 -0.3144  0.5498
 2817TIP3    H130010   3.564   2.641   2.315 -0.2240 -0.8114  1.1930
 2817TIP3    H230011   3.674   2.589   2.404 -0.2713  0.3137  1.9109
 2818TIP3   OH230012   2.110   5.051   3.018  0.6136 -0.3069  0.1670
 2818TIP3    H130013   2.127   5.038   3.112  0.4681 -1.2922  0.0685
 2818TIP3    H230014   2.176   4.998   2.974 -0.0915 -0.8427 -0.2657
 2819TIP3   OH230015   4.602   0.542   2.435 -0.1547 -0.2553 -0.4404
 2819TIP3    H130016   4.515   0.581   2.422 -0.0602 -0.4011 -1.6306
 2819TIP3    H230017   4.661   0.599   2.387  0.1645 -1.1105 -1.0902
 2820TIP3   OH230018   2.230   5.357   2.890  0.2458  0.1908 -0.4707
 2820TIP3    H130019   2.157   5.416   2.869  0.5910  0.2325 -1.6307
 2820TIP3    H230020   2.189   5.284   2.937 -0.4392  0.5598 -0.4849
 2821TIP3   OH230021   0.999   3.556   2.577  0.3213  0.5269  0.0877
 2821TIP3    H130022   0.913   3.515   2.584  1.3695 -1.6609  0.8289
 2821TIP3    H230023   0.989   3.621   2.508 -2.3569  1.5329  1.2914
 2822TIP3   OH230024   4.797   5.409   3.259 -0.2828 -0.4761  0.0358
 2822TIP3    H130025   4.708   5.392   3.228  0.5358 -1.8305 -1.7882
 2822TIP3    H230026   4.814   5.340   3.323 -1.2943  1.1717  2.2031
 2823TIP3   OH230027   1.972   4.276   1.041  0.1531  0.3229 -0.5538
 2823TIP3    H130028   1.925   4.194   1.052  2.1374 -0.8362 -0.1899
 2823TIP3    H230029   1.919   4.341   1.088 -0.6641 -1.0460  0.4716
 2824TIP3   OH230030   5.725   3.604   1.093 -0.5755 -0.6410  0.5116
 2824TIP3    H130031   5.773   3.679   1.058 -0.0068 -1.2323  0.0140
 2824TIP3    H230032   5.763   3.588   1.179 -0.8598 -0.2154  0.7200
 2825TIP3   OH230033   3.367   4.244   0.943 -0.1985  0.0637  0.5413
 2825TIP3    H130034   3.454   4.219   0.911  0.1397  0.9700  0.7152
 2825TIP3    H230035   3.321   4.275   0.866 -0.7582 -1.3905  0.2502
 2826TIP3   OH230036   4.846   2.907   2.339 -0.7763  0.1605 -0.1155
 2826TIP3    H130037   4.794   2.842   2.387 -1.6168  0.9194  0.0414
 2826TIP3    H230038   4.883   2.962   2.407  1.8587 -1.4774 -0.0996
 2827TIP3   OH230039   4.664   5.152   3.723  0.4575  0.2954  0.6537
 2827TIP3    H130040   4.626   5.229   3.679 -1.0163  0.3416  1.9191
 2827TIP3    H230041   4.707   5.188   3.800  1.0613 -0.0175  0.4696
 2828TIP3   OH230042   0.103   3.244   1.571 -0.3580  0.6606  0.7017
 2828TIP3    H130043   0.188   3.268   1.606  2.2374 -1.7511 -3.1510
 2828TIP3    H230044   0.091   3.153   1.599  0.6140 -0.4804 -2.1721
 2829TIP3   OH230045   4.917   4.579   3.122 -0.5292  0.3000 -0.1093
 2829TIP3    H130046   4.943   4.491   3.095  2.0239  0.8796  0.1867
 2829TIP3    H230047   4.844   4.565   3.182  1.7551 -1.9417  2.4225
 2830TIP3   OH230048   3.665   2.363   0.018  0.5089 -0.0176 -0.4739
 2830TIP3    H130049   3.636   2.410  -0.061 -0.5839 -0.5773 -0.4300
 2830TIP3    H230050   3.733   2.418   0.056  2.1011 -0.4195 -2.5785
 2831TIP3   OH230051   6.483   6.091   3.163 -0.5749  0.0391  0.6561
 2831TIP3    H130052   6.496   6.151   3.236  0.8852 -1.3075  1.5738
 2831TIP3    H230053   6.458   6.008   3.205 -1.8567 -0.2130 -0.5278
 2832TIP3   OH230054   0.283   1.701   1.383  0.4878  0.2429 -0.1675
 2832TIP3    H130055   0.304   1.791   1.358 -0.2223  0.7026  0.7892
 2832TIP3    H230056   0.191   1.691   1.358  0.7331 -0.4342 -0.8250
 2833TIP3   OH230057   1.853   0.672   3.545  0.1691  0.3687  0.3015
 2833TIP3    H130058   1.856   0.653   3.639  1.1620 -0.7366  0.0621
 2833TIP3    H230059   1.805   0.755   3.539 -1.0023 -0.1767  1.6701
 2834TIP3   OH230060   0.141   0.076   1.521 -0.2942  0.2065 -0.6218
 2834TIP3    H130061   0.054   0.066   1.481 -0.6363  2.2478 -0.5036
 2834TIP3    H230062   0.202   0.061   1.449 -0.8151  0.6952 -1.1829
 2835TIP3   OH230063   1.206   1.874   4.009  0.0360 -0.2485  0.1813
 2835TIP3    H130064   1.295   1.874   3.972 -0.2294  0.8538 -0.4827
 2835TIP3    H230065   1.193   1.962   4.042 -1.4809  0.1717 -1.4046
 2836TIP3   OH230066   2.882   1.273   1.055  0.5250 -0.2843  0.3171
 2836TIP3    H130067   2.926   1.235   1.132  0.3481  0.2870  0.7103
 2836TIP3    H230068   2.887   1.368   1.070  0.0653 -0.1847 -0.1446
 2837TIP3   OH230069   1.155   1.072   1.276 -0.0457  0.2122 -0.3852
 2837TIP3    H130070   1.068   1.068   1.235 -0.2305 -0.2524  0.0382
 2837TIP3    H230071   1.178   0.980   1.294  1.0683  0.2354 -1.5852
 2838TIP3   OH230072   3.742   0.269   2.775 -0.7804  0.2294  0.2543
 2838TIP3    H130073   3.778   0.356   2.757  2.2034 -0.3472  2.5076
 2838TIP3    H230074   3.723   0.270   2.868 -0.1747 -1.6455  0.4465
 2839TIP3   OH230075   1.233   0.131   1.233  0.0875 -0.0748 -0.4807
 2839TIP3    H130076   1.156   0.182   1.207 -2.0278 -2.5705  0.3636
 2839TIP3    H230077   1.303   0.161   1.176 -0.9122  3.7345  0.0140
 2840TIP3   OH230078   1.866   3.496   3.139 -0.0069 -0.1331  0.5371
 2840TIP3    H130079   1.805   3.422   3.136 -1.8685  1.3619 -0.2629
 2840TIP3    H230080   1.825   3.559   3.198  1.1336  0.6350  0.5412
 2841TIP3   OH230081   4.116   3.919   3.043 -0.1656 -0.3567 -0.0481
 2841TIP3    H130082   4.176   3.963   2.983 -1.0642 -0.5399 -1.1246
 2841TIP3    H230083   4.160   3.838   3.067  0.2916 -0.1940 -0.3259
 2842TIP3   OH230084   6.750   3.135   0.072  0.7833  0.5719 -0.3019
 2842TIP3    H130085   6.668   3.177   0.047  0.6121  0.4399  0.0390
 2842TIP3    H230086   6.725   3.067   0.134  0.8525 -1.2292 -2.1428
 2843TIP3   OH230087   0.006   0.303   8.260 -0.2226 -0.1523 -0.1736
 2843TIP3    H130088   0.049   0.350   8.331 -1.5867 -0.6871  1.0566
 2843TIP3    H230089  -0.015   0.371   8.196 -2.0413  0.9972  1.5133
 2844TIP3   OH230090   1.206   5.257   3.597 -0.2025  0.1463  0.8392
 2844TIP3    H130091   1.208   5.318   3.670  0.6288  0.1514  0.8319
 2844TIP3    H230092   1.272   5.190   3.620  2.5226  1.8605 -1.2927
 2845TIP3   OH230093   0.750   0.565   0.868 -0.2643 -0.2548 -0.8788
 2845TIP3    H130094   0.661   0.565   0.834 -0.6616 -1.3539  0.0959
 2845TIP3    H230095   0.800   0.511   0.806 -0.1267  0.8060 -1.7250
 2846TIP3   OH230096   3.217   4.534   3.499 -0.0251 -0.1227  0.4174
 2846TIP3    H130097   3.242   4.462   3.557 -0.3421  0.8930  1.8500
 2846TIP3    H230098   3.183   4.602   3.557 -1.5504  0.4522 -1.0477
 2847TIP3   OH230099   1.664   0.204   3.812 -0.4822 -0.1031 -0.6093
 2847TIP3    H130100   1.717   0.247   3.879 -0.0455 -0.8139 -0.4881
 2847TIP3    H230101   1.578   0.192   3.853 -0.8133  1.2443 -0.8814
 2848TIP3   OH230102   1.628   0.927   0.103  0.3235 -0.9593 -0.2809
 2848TIP3    H130103   1.682   0.849   0.115 -0.6271 -1.9158 -1.8845
 2848TIP3    H230104   1.649   0.958   0.016 -1.3203 -1.0816 -0.7627
 2849TIP3   OH230105   6.561   5.108   0.176 -0.3762  0.0569 -0.3069
 2849TIP3    H130106   6.505   5.170   0.129 -2.0901 -1.1295  0.0836
 2849TIP3    H230107   6.514   5.090   0.257  1.2530  0.0375  0.6689
 2850TIP3   OH230108   2.783   6.814   0.959  0.2146  0.1140 -0.3101
 2850TIP3    H130109   2.824   6.877   1.020 -0.8130  0.7483 -0.2605
 2850TIP3    H230110   2.731   6.757   1.015 -0.0878  0.1904 -0.5112
 2851TIP3   OH230111   6.859   0.054   2.252 -0.6493 -0.2133 -0.2317
 2851TIP3    H130112   6.807  -0.025   2.261 -0.3018 -0.5608 -1.1957
 2851TIP3    H230113   6.905   0.044   2.169  1.1574 -0.0433  0.7008
 2852TIP3   OH230114   3.149   6.100   1.105 -0.0847 -0.1545  0.0527
 2852TIP3    H130115   3.125   6.181   1.150  1.6665 -0.2865  1.3578
 2852TIP3    H230116   3.192   6.128   1.025  0.7809  0.2571  0.6401
 2853TIP3   OH230117   3.444   6.933   2.144 -0.3672  0.1520  0.5791
 2853TIP3    H130118   3.507   6.882   2.093 -1.0333  0.2477 -0.3771
 2853TIP3    H230119   3.375   6.871   2.166 -0.0165  0.0832  1.4897
 2854TIP3   OH230120   3.558   4.363   3.834 -0.5129 -0.2757  0.9261
 2854TIP3    H130121   3.497   4.437   3.843  0.4777  0.3086  3.5234
 2854TIP3    H230122   3.616   4.389   3.762 -2.2695 -0.1438 -0.5315
 2855TIP3   OH230123   2.443   4.824   1.798  0.2461 -0.0751  0.0584
 2855TIP3    H130124   2.506   4.789   1.735 -0.7996 -1.6552 -0.1579
 2855TIP3    H230125   2.497   4.864   1.866  1.5593 -2.0297  0.2486
 2856TIP3   OH230126   1.096   2.690   1.868 -0.0332 -0.3097  0.0026
 2856TIP3    H130127   1.059   2.778   1.879 -0.2718 -0.6005  1.6729
 2856TIP3    H230128   1.189   2.702   1.884 -0.0044 -0.2929 -0.1760
 2857TIP3   OH230129   5.046   6.181   2.831  0.2762 -0.5100 -0.2431
 2857TIP3    H130130   5.096   6.160   2.910  0.7681 -1.8037 -0.8745
 2857TIP3    H230131   5.004   6.099   2.806 -1.1034  0.2414 -0.4968
 2858TIP3   OH230132   0.468   4.662   3.487  0.2891  0.2871 -0.2664
 2858TIP3    H130133   0.452   4.734   3.547 -1.1365 -0.6744  0.5539
 2858TIP3    H230134   0.544   4.690   3.436  1.2489  1.3449  1.6432
 2859TIP3   OH230135   6.513   5.721   3.562 -0.4065 -0.4434 -0.0919
 2859TIP3    H130136   6.442   5.730   3.625 -1.6407  0.5425 -1.5383
 2859TIP3    H230137   6.576   5.789   3.585 -1.2545  0.4623 -0.4053
 2860TIP3   OH230138   5.128   3.903   2.730  0.0364  0.1024 -0.0563
 2860TIP3    H130139   5.077   3.842   2.784 -0.7128 -2.0712 -2.9655
 2860TIP3    H230140   5.129   3.863   2.643  3.0825  2.2688 -1.1796
 2861TIP3   OH230141   1.841   2.329   1.936 -0.6102  0.7467  0.0625
 2861TIP3    H130142   1.924   2.308   1.980 -1.0168 -2.0703 -0.3323
 2861TIP3    H230143   1.785   2.362   2.006 -0.0156 -0.0049  0.9287
 2862TIP3   OH230144   2.844   3.141   3.526 -0.0971 -0.0984  0.2497
 2862TIP3    H130145   2.905   3.143   3.599  0.6704  0.6938 -0.3897
 2862TIP3    H230146   2.882   3.201   3.461 -0.2466 -1.5076 -1.2026
 2863TIP3   OH230147   3.295   0.258   1.770 -0.4799  0.9131  0.4523
 2863TIP3    H130148   3.381   0.286   1.739  0.1347 -0.3642  0.9521
 2863TIP3    H230149   3.244   0.340   1.776  0.9674  1.8111  1.0396
 2864TIP3   OH230150   0.231   0.824   0.547  0.1652  0.2515  0.1927
 2864TIP3    H130151   0.284   0.745   0.539  0.1087  0.1099  1.0876
 2864TIP3    H230152   0.165   0.816   0.478 -0.5916 -1.0930  1.0119
 2865TIP3   OH230153   1.492   4.533   0.685  0.1633  0.1875  0.1529
 2865TIP3    H130154   1.470   4.626   0.679  1.7141  0.6181  0.7153
 2865TIP3    H230155   1.472   4.510   0.776 -1.9733 -0.5471 -0.4422
 2866TIP3   OH230156   4.847   6.632   3.722 -0.4404 -0.1713  0.1817
 2866TIP3    H130157   4.932   6.668   3.748 -0.9573 -0.2367  2.1637
 2866TIP3    H230158   4.866   6.575   3.648  0.9887  1.0376 -0.4515
 2867TIP3   OH230159   6.259   2.315   4.665  0.0564  0.1982 -0.1768
 2867TIP3    H130160   6.241   2.352   4.751  1.3598  1.4424 -0.3873
 2867TIP3    H230161   6.206   2.366   4.604  1.6032  1.6140 -0.4298
 2868TIP3   OH230162   5.117   4.931   1.127 -0.6914  0.3865  0.3612
 2868TIP3    H130163   5.145   4.845   1.095  2.2952  1.0900  0.8027
 2868TIP3    H230164   5.055   4.962   1.061  0.8876 -0.6429 -1.7384
 2869TIP3   OH230165   2.314   3.518   4.329  0.1657 -0.9305  0.1129
 2869TIP3    H130166   2.337   3.565   4.410  0.5150  1.8061 -1.4271
 2869TIP3    H230167   2.219   3.529   4.322  0.3966  0.9256 -0.9210
 2870TIP3   OH230168   6.880   6.523   2.129  0.1925  0.2103  0.0698
 2870TIP3    H130169   6.833   6.506   2.210  0.8671 -1.4024  0.1588
 2870TIP3    H230170   6.972   6.504   2.150  0.4246  0.1302 -0.9575
 2871TIP3   OH230171   2.432   0.982   4.073 -0.3454  0.6345 -0.0812
 2871TIP3    H130172   2.391   1.067   4.087  1.3824  1.4792  0.1350
 2871TIP3    H230173   2.524   0.996   4.096  0.1791 -1.0325 -0.9927
 2872TIP3   OH230174   1.677   3.246   1.775  0.1557 -0.3354 -0.2115
 2872TIP3    H130175   1.620   3.181   1.816  0.4635 -1.6960 -1.8326
 2872TIP3    H230176   1.763   3.231   1.814 -0.0146 -0.1035  0.2619
 2873TIP3   OH230177   4.276   0.397   2.232 -0.2437 -0.1347  0.0759
 2873TIP3    H130178   4.185   0.418   2.250 -0.0855  1.2415 -0.5624
 2873TIP3    H230179   4.325   0.471   2.270  0.4863 -0.1301 -0.8453
 2874TIP3   OH230180   1.915   0.480   8.161  0.1628  0.4285 -0.6494
 2874TIP3    H130181   1.850   0.485   8.091 -1.0477  0.7784  0.4482
 2874TIP3    H230182   1.971   0.406   8.138 -1.0298 -0.2967 -1.3077
 2875TIP3   OH230183   1.635   3.222   2.852  0.1633  0.2678  0.7951
 2875TIP3    H130184   1.701   3.251   2.789 -0.8804  1.5300  0.2447
 2875TIP3    H230185   1.597   3.144   2.812  0.7664 -0.0094  0.7470
 2876TIP3   OH230186   2.637   5.704   0.939 -0.4990  0.1011  0.1248
 2876TIP3    H130187   2.642   5.622   0.987  0.9209 -0.0440 -0.2366
 2876TIP3    H230188   2.702   5.696   0.870 -1.2070  1.0460 -0.6815
 2877TIP3   OH230189   1.237   4.927   1.268  0.3379  0.2511 -0.2448
 2877TIP3    H130190   1.205   4.927   1.177  2.2132 -1.7273 -0.9876
 2877TIP3    H230191   1.165   4.890   1.318 -0.6383  1.1339 -0.9467
 2878TIP3   OH230192   0.670   5.474   1.379 -0.1892  0.7935 -0.1181
 2878TIP3    H130193   0.597   5.534   1.363  0.1954  1.1215 -0.6597
 2878TIP3    H230194   0.632   5.386   1.369 -0.3957  0.9671 -0.9329
 2879TIP3   OH230195   2.571   6.231   2.446 -1.0869  0.1610  0.0718
 2879TIP3    H130196   2.551   6.154   2.499 -0.1080 -0.3355 -0.2509
 2879TIP3    H230197   2.640   6.276   2.494  0.2714 -0.6300 -1.0148
 2880TIP3   OH230198   3.217   2.030   2.169 -0.1074 -0.1605 -0.1898
 2880TIP3    H130199   3.291   2.054   2.113  0.6626 -0.9263  0.4676
 2880TIP3    H230200   3.210   1.935   2.159  0.2705 -0.3602  1.2720
 2881TIP3   OH230201   5.251   2.087   3.767  0.4137  0.4681  0.1388
 2881TIP3    H130202   5.223   2.149   3.699  1.0452  0.5666 -0.0437
 2881TIP3    H230203   5.275   2.008   3.719  0.0096  0.2251  0.3334
 2882TIP3   OH230204   2.138   1.994   1.527 -0.1253 -0.5658 -0.2442
 2882TIP3    H130205   2.204   1.960   1.467  0.3780 -0.5701  0.3075
 2882TIP3    H230206   2.116   1.919   1.583 -0.3542 -0.4732 -0.2103
 2883TIP3   OH230207   3.982   3.969   8.239 -0.2019 -0.0975  0.2108
 2883TIP3    H130208   3.955   4.054   8.205 -0.2181 -0.0302  0.3875
 2883TIP3    H230209   3.923   3.954   8.313  0.6093  0.3045  0.9549
 2884TIP3   OH230210   3.969   6.595   8.272 -0.0944 -0.2591 -0.5775
 2884TIP3    H130211   3.902   6.544   8.317 -1.2959  0.3153 -1.6268
 2884TIP3    H230212   4.004   6.535   8.206  0.9497 -0.7826  0.4326
 2885TIP3   OH230213   1.681   2.557   2.475 -0.2838  0.3386 -0.2831
 2885TIP3    H130214   1.618   2.629   2.475 -0.1419  0.4828 -1.6160
 2885TIP3    H230215   1.642   2.490   2.420  0.1917 -0.0641 -0.1463
 2886TIP3   OH230216   1.050   2.323   1.217  0.5763  0.1406 -0.0629
 2886TIP3    H130217   1.005   2.387   1.161 -0.8299 -1.4400 -0.8547
 2886TIP3    H230218   1.143   2.345   1.210  0.0585  3.4432  1.4957
 2887TIP3   OH230219   3.971   2.679   2.877  0.7480 -0.2888  0.4328
 2887TIP3    H130220   3.929   2.615   2.819  0.8518 -1.7219  1.8762
 2887TIP3    H230221   3.918   2.677   2.957  0.9011  1.2810  0.6136
 2888TIP3   OH230222   3.107   6.627   1.418 -0.2427  0.2397 -0.3393
 2888TIP3    H130223   3.150   6.589   1.494 -1.4372  0.2238  0.3479
 2888TIP3    H230224   3.134   6.719   1.418  2.2479 -0.3959 -1.7177
 2889TIP3   OH230225   1.699   4.171   2.892 -0.3129  0.0557  0.8492
 2889TIP3    H130226   1.665   4.090   2.930  0.2139  0.0972  1.4395
 2889TIP3    H230227   1.707   4.230   2.967 -3.1743  1.5954  0.1037
 2890TIP3   OH230228   0.697   2.808   3.816  0.3431 -0.1410 -0.3677
 2890TIP3    H130229   0.654   2.732   3.778  0.5712 -0.5551  0.1948
 2890TIP3    H230230   0.746   2.846   3.743  1.8255 -1.6787 -0.2323
 2891TIP3   OH230231   4.286   0.062   2.816  0.3945 -0.2432 -0.1429
 2891TIP3    H130232   4.351   0.101   2.874 -0.7473  1.2962  0.1861
 2891TIP3    H230233   4.297  -0.032   2.827  2.9899 -0.0553 -0.6327
 2892TIP3   OH230234   2.381   0.648   3.583  0.3159 -0.3847  0.2774
 2892TIP3    H130235   2.393   0.619   3.492 -1.6963 -1.4906  0.2923
 2892TIP3    H230236   2.428   0.584   3.635  0.6127 -0.3432  0.0652
 2893TIP3   OH230237   3.414   2.159   2.011 -0.3067  0.1382  0.1346
 2893TIP3    H130238   3.419   2.134   1.919 -1.2805  1.3472 -0.2666
 2893TIP3    H230239   3.362   2.239   2.012 -1.8307 -0.7724  1.8865
 2894TIP3   OH230240   1.141   0.358   3.371  0.0192  0.3783 -0.1368
 2894TIP3    H130241   1.145   0.442   3.325 -1.3572  0.9901  0.7569
 2894TIP3    H230242   1.221   0.355   3.424 -0.4965  1.7446  0.7730
 2895TIP3   OH230243   0.823   2.264   8.302 -0.2308 -0.2597 -0.5256
 2895TIP3    H130244   0.782   2.198   8.247  1.0430 -1.6994  0.1644
 2895TIP3    H230245   0.751   2.307   8.347 -1.1394 -0.5472 -1.6817
 2896TIP3   OH230246   6.741   1.397   2.551  0.1995 -0.4347 -0.1195
 2896TIP3    H130247   6.754   1.339   2.626  0.1410 -0.5372 -0.1879
 2896TIP3    H230248   6.774   1.347   2.476  0.1266 -0.3889 -0.1823
 2897TIP3   OH230249   2.149   2.594   0.163 -0.0378 -0.1346 -0.3864
 2897TIP3    H130250   2.189   2.603   0.077 -1.9787 -0.3825 -1.3799
 2897TIP3    H230251   2.150   2.683   0.199  0.5853  0.0206 -0.7774
 2898TIP3   OH230252   2.755   1.498   1.382 -0.2135 -0.0791 -0.3245
 2898TIP3    H130253   2.701   1.422   1.363  0.5958 -0.4967 -1.0317
 2898TIP3    H230254   2.809   1.472   1.457  0.4578 -0.4191 -0.9137
 2899TIP3   OH230255   2.030   6.167   3.730 -0.5953 -0.0395  0.3207
 2899TIP3    H130256   2.114   6.170   3.686 -0.3246  0.9999  0.8555
 2899TIP3    H230257   2.013   6.074   3.744  0.6064 -0.2547  0.4722
 2900TIP3   OH230258   1.688   2.475   2.800 -0.4435 -0.7300 -0.2808
 2900TIP3    H130259   1.702   2.430   2.716 -0.0386 -0.2554 -0.4722
 2900TIP3    H230260   1.694   2.568   2.778  2.4329 -0.5764  0.7079
 2901TIP3   OH230261   1.937   6.318   0.611  1.0607 -0.3789  0.4942
 2901TIP3    H130262   1.938   6.316   0.515 -0.8826 -1.4619  0.4517
 2901TIP3    H230263   2.004   6.382   0.634  1.4871 -0.0075 -1.5908
 2902TIP3   OH230264   6.437   5.023   3.437  0.4828  0.3600  0.1558
 2902TIP3    H130265   6.378   5.096   3.454 -2.0777 -1.7983  1.1626
 2902TIP3    H230266   6.420   4.999   3.346  0.1081  0.0184  0.3127
 2903TIP3   OH230267   0.405   5.271   3.112 -0.0078 -0.2791 -0.0838
 2903TIP3    H130268   0.442   5.328   3.179 -0.7128  1.0088 -0.7551
 2903TIP3    H230269   0.466   5.276   3.039 -1.2419  1.6177 -1.0801
 2904TIP3   OH230270   1.643   6.934   4.223  0.6104  0.8399  0.1794
 2904TIP3    H130271   1.684   6.908   4.305  0.3830 -0.0449  0.0256
 2904TIP3    H230272   1.554   6.958   4.247  0.0824 -0.7907  0.0358
 2905TIP3   OH230273   2.947   3.312   1.623 -0.1364 -0.1310  0.4499
 2905TIP3    H130274   3.033   3.320   1.580 -1.3016 -1.4839 -2.3956
 2905TIP3    H230275   2.888   3.361   1.566 -1.7724 -1.8331  0.5940
 2906TIP3   OH230276   1.000   2.425   0.113  0.5745  0.5563 -0.0020
 2906TIP3    H130277   0.925   2.485   0.117  0.5840  0.5118  1.0509
 2906TIP3    H230278   1.064   2.470   0.057  0.3611  1.2732  0.3236
 2907TIP3   OH230279   1.185   0.423   0.143 -0.0433  0.0677  0.3108
 2907TIP3    H130280   1.137   0.436   0.061  0.8329  0.3508 -0.1714
 2907TIP3    H230281   1.119   0.387   0.204 -0.7887  0.1857 -0.4034
 2908TIP3   OH230282   1.362   3.376   0.544 -0.5508  0.4203 -0.5323
 2908TIP3    H130283   1.417   3.373   0.465  0.2620  0.0346  0.0354
 2908TIP3    H230284   1.402   3.443   0.598 -2.3429  2.2081 -1.3044
 2909TIP3   OH230285   2.163   4.936   0.087 -0.4966  0.5455 -0.1547
 2909TIP3    H130286   2.113   4.855   0.076  0.1187  0.2512 -0.9180
 2909TIP3    H230287   2.100   4.999   0.122 -0.4004 -0.9022  2.8680
 2910TIP3   OH230288   2.081   3.142   3.572  0.0696  0.4512 -0.0043
 2910TIP3    H130289   2.058   3.141   3.479 -0.1627  0.5067  0.0525
 2910TIP3    H230290   2.091   3.050   3.596 -0.2256  0.4209  0.0035
 2911TIP3   OH230291   3.568   0.242   2.573 -0.2891 -0.6709  0.3110
 2911TIP3    H130292   3.492   0.185   2.558  0.4714 -2.0047  1.3834
 2911TIP3    H230293   3.583   0.238   2.667  0.1199  0.9085  0.3365
 2912TIP3   OH230294   5.402   2.660   3.346 -0.1910  0.4441 -0.0084
 2912TIP3    H130295   5.325   2.714   3.324  0.6942  1.8171  0.1034
 2912TIP3    H230296   5.475   2.704   3.302  0.3080 -1.8574 -1.6358
 2913TIP3   OH230297   2.747   2.909   3.481  0.1977 -0.0064  0.3743
 2913TIP3    H130298   2.834   2.878   3.454 -0.2463 -0.3152 -0.7544
 2913TIP3    H230299   2.761   2.999   3.510  1.2824 -0.7706  2.4019
 2914TIP3   OH230300   5.526   2.306   3.213  0.0194 -0.9425 -0.5258
 2914TIP3    H130301   5.540   2.241   3.281 -1.0521  0.0673  0.7201
 2914TIP3    H230302   5.455   2.361   3.247  0.9821  0.9734 -1.4543
 2915TIP3   OH230303   0.790   5.430   2.600 -0.4198  0.2930  0.0846
 2915TIP3    H130304   0.820   5.502   2.544 -1.2494  0.8726  0.3767
 2915TIP3    H230305   0.712   5.464   2.644 -0.4878 -0.5861  0.6656
 2916TIP3   OH230306   4.987   4.779   0.363 -0.1764 -0.5394  0.3986
 2916TIP3    H130307   4.945   4.785   0.277 -1.3112  0.3055  0.9842
 2916TIP3    H230308   5.038   4.860   0.370  1.6491 -1.5638 -0.3136
 2917TIP3   OH230309   1.292   0.191   0.362 -0.5058 -0.1402 -0.2802
 2917TIP3    H130310   1.299   0.183   0.457  0.0464 -1.2634 -0.3898
 2917TIP3    H230311   1.379   0.219   0.334 -0.6549  0.1484 -0.4541
 2918TIP3   OH230312   1.653   3.284   0.568 -0.0562  0.3458 -0.5980
 2918TIP3    H130313   1.646   3.286   0.473 -0.5905 -0.3444 -0.5828
 2918TIP3    H230314   1.645   3.375   0.595  0.8532  0.6404 -1.2515
 2919TIP3   OH230315   6.736   5.067   1.489 -0.0048  0.3367  0.2557
 2919TIP3    H130316   6.806   5.021   1.443 -0.2752 -1.7024  1.7140
 2919TIP3    H230317   6.665   5.002   1.495 -1.0368  1.4893  1.0434
 2920TIP3   OH230318   6.709   6.221   4.057  0.3741 -0.1060  0.4789
 2920TIP3    H130319   6.626   6.255   4.090  0.2293  0.8092 -0.7273
 2920TIP3    H230320   6.769   6.297   4.059  0.5060 -0.1477 -0.7775
 2921TIP3   OH230321   5.636   2.555   2.814  0.3934 -0.0890 -0.7191
 2921TIP3    H130322   5.701   2.581   2.880 -0.1450 -0.3331 -0.0746
 2921TIP3    H230323   5.687   2.521   2.741  1.0577  1.2665 -0.9187
 2922TIP3   OH230324   1.500   1.351   4.605 -0.0604 -0.4962 -0.1249
 2922TIP3    H130325   1.545   1.267   4.600 -0.5855 -0.7535 -0.6729
 2922TIP3    H230326   1.414   1.330   4.640  0.4428  0.0836  1.5370
 2923TIP3   OH230327   1.372   5.712   3.784  0.3452  0.1010  0.0752
 2923TIP3    H130328   1.361   5.699   3.878  3.7766 -1.1002  0.4785
 2923TIP3    H230329   1.370   5.624   3.747 -0.1330  0.4973 -0.8867
 2924TIP3   OH230330   0.846   4.191   1.569 -0.5314  0.2447 -0.3476
 2924TIP3    H130331   0.771   4.217   1.622  1.6340  2.7407  1.7372
 2924TIP3    H230332   0.854   4.260   1.503  0.6958  0.7030  0.2737
 2925TIP3   OH230333   2.433   1.480   8.426  0.5515  0.9630 -0.3983
 2925TIP3    H130334   2.435   1.501   8.332 -2.1303  0.9947 -0.5126
 2925TIP3    H230335   2.341   1.464   8.445  0.9990  1.2022  2.3204
 2926TIP3   OH230336   4.531   2.697   3.937  0.1690  0.1930  0.2432
 2926TIP3    H130337   4.569   2.700   3.849 -2.6171  1.4947 -1.0820
 2926TIP3    H230338   4.562   2.777   3.979  0.8896 -0.0339  0.1514
 2927TIP3   OH230339   3.209   1.050   1.923  0.0207 -0.2043 -1.0075
 2927TIP3    H130340   3.287   1.030   1.976 -0.8875 -1.1265  0.0541
 2927TIP3    H230341   3.200   0.974   1.866  0.5966  0.4771 -2.0387
 2928TIP3   OH230342   5.314   6.439   1.323  0.4311 -0.2622  0.2748
 2928TIP3    H130343   5.363   6.520   1.338 -0.7917  0.2344  1.8201
 2928TIP3    H230344   5.339   6.412   1.234  1.0199  1.6988 -0.2012
 2929TIP3   OH230345   0.928   5.653   3.121 -0.3462 -0.3244  0.0953
 2929TIP3    H130346   0.897   5.565   3.142 -1.6763  0.2976  0.8752
 2929TIP3    H230347   0.973   5.683   3.200 -0.7416  0.0507  0.1824
 2930TIP3   OH230348   1.376   1.036   4.032 -0.5150  0.3122  0.4319
 2930TIP3    H130349   1.307   1.001   4.089 -0.1186  0.1431  0.8106
 2930TIP3    H230350   1.405   0.961   3.981  0.9192 -0.1327  1.8355
 2931TIP3   OH230351   2.731   4.484   1.155  0.0674 -0.3374  0.2982
 2931TIP3    H130352   2.758   4.521   1.071 -1.1576 -0.1826 -0.0456
 2931TIP3    H230353   2.734   4.558   1.216  2.4033 -0.7463  0.7891
 2932TIP3   OH230354   2.712   3.788   0.354  0.2439 -0.1783  0.0665
 2932TIP3    H130355   2.754   3.866   0.317  0.8158  0.9364  2.8463
 2932TIP3    H230356   2.767   3.715   0.326  0.3735  0.5056 -1.5965
 2933TIP3   OH230357   6.802   3.790   3.709 -0.4070 -0.4810 -0.1308
 2933TIP3    H130358   6.788   3.783   3.614 -2.1039 -0.2630  0.0697
 2933TIP3    H230359   6.877   3.849   3.718  0.0903 -0.8925 -1.3343
 2934TIP3   OH230360   4.330   2.867   3.390 -0.3414 -0.3606 -0.0601
 2934TIP3    H130361   4.304   2.957   3.409 -1.1354 -1.1170  3.0029
 2934TIP3    H230362   4.253   2.827   3.350  0.0963  0.3027 -1.6685
 2935TIP3   OH230363   0.752   1.062   0.267  0.3582 -0.4939 -0.5620
 2935TIP3    H130364   0.767   1.156   0.277 -0.2319 -0.5291  1.0322
 2935TIP3    H230365   0.820   1.021   0.320 -1.2208 -0.8168  1.3768
 2936TIP3   OH230366   1.892   3.767   2.354  0.5028  0.0828  0.0937
 2936TIP3    H130367   1.886   3.677   2.322 -1.5622  0.1394  0.1872
 2936TIP3    H230368   1.930   3.815   2.281  0.0705 -0.5826 -0.5903
 2937TIP3   OH230369   1.866   4.523   2.123  0.5723 -0.3837 -0.3650
 2937TIP3    H130370   1.887   4.492   2.211 -0.5943 -1.1977 -0.3514
 2937TIP3    H230371   1.877   4.446   2.067  0.3039 -0.1301 -0.7757
 2938TIP3   OH230372   3.787   1.572   2.667  0.7187  0.0729 -0.3860
 2938TIP3    H130373   3.803   1.665   2.679  1.2605  0.2351 -2.0806
 2938TIP3    H230374   3.699   1.558   2.703  1.0025  1.0287  0.7319
 2939TIP3   OH230375   3.155   5.232   1.266 -0.2956  0.2768 -0.2470
 2939TIP3    H130376   3.230   5.283   1.237 -0.1442 -0.1892 -0.6872
 2939TIP3    H230377   3.173   5.212   1.358  0.3257 -0.1938 -0.4635
 2940TIP3   OH230378   1.680   5.173   4.122 -0.0601 -0.3343  0.5577
 2940TIP3    H130379   1.623   5.124   4.063 -0.4103  0.6914  0.0260
 2940TIP3    H230380   1.764   5.178   4.077 -0.0868 -0.2674  0.5147
 2941TIP3   OH230381   3.028   5.137   2.423 -0.0453 -0.3439 -0.2662
 2941TIP3    H130382   2.936   5.129   2.446 -0.3593 -0.8098 -1.5848
 2941TIP3    H230383   3.034   5.216   2.369  0.4693  0.1057  0.4263
 2942TIP3   OH230384   2.103   4.301   0.788 -0.2202 -0.7269  0.5353
 2942TIP3    H130385   2.051   4.268   0.862 -0.7101 -3.0995 -0.7711
 2942TIP3    H230386   2.037   4.326   0.723  0.2103  1.3087  0.8146
 2943TIP3   OH230387   3.936   6.168   2.730 -0.6148  0.3650  0.0627
 2943TIP3    H130388   3.952   6.225   2.654  1.8797 -0.1680  0.1203
 2943TIP3    H230389   3.881   6.098   2.695  0.7671 -0.0508 -1.3933
 2944TIP3   OH230390   0.636   2.192   1.125 -0.3304  0.0789 -0.2395
 2944TIP3    H130391   0.584   2.113   1.107 -1.4832  0.4533  1.2482
 2944TIP3    H230392   0.701   2.163   1.190 -1.7513  0.6269  1.5265
 2945TIP3   OH230393   1.375   2.702   2.184  0.1861  0.4042  0.1130
 2945TIP3    H130394   1.282   2.717   2.168  0.2019  1.0367  0.5648
 2945TIP3    H230395   1.378   2.619   2.231 -0.0920  0.0303 -0.5223
 2946TIP3   OH230396   5.132   5.968   3.315 -0.1148 -0.2969  0.0752
 2946TIP3    H130397   5.048   6.002   3.345  0.6370  1.0515  0.7356
 2946TIP3    H230398   5.176   5.938   3.394 -0.3130 -1.8601 -0.3699
 2947TIP3   OH230399   2.402   4.006   0.351  0.0305  0.0515  0.0712
 2947TIP3    H130400   2.384   3.922   0.308 -0.2102  0.4280 -0.5753
 2947TIP3    H230401   2.405   4.069   0.280  2.2123  0.3076  0.3139
 2948TIP3   OH230402   3.703   2.876   0.324  0.3606 -0.4582  0.3262
 2948TIP3    H130403   3.768   2.860   0.392  1.8459  0.6160 -0.7937
 2948TIP3    H230404   3.713   2.968   0.302 -1.0380 -0.4536 -0.4122
 2949TIP3   OH230405   6.181   0.165   2.572  0.0960  0.2279 -0.3855
 2949TIP3    H130406   6.167   0.179   2.666  0.2161 -2.1585  0.0534
 2949TIP3    H230407   6.112   0.216   2.529  1.7205  3.7366  0.7643
 2950TIP3   OH230408   2.885   5.054   3.215 -0.6363  0.1439 -0.1555
 2950TIP3    H130409   2.953   5.108   3.256  0.6876 -1.2796 -0.3946
 2950TIP3    H230410   2.843   5.111   3.151 -0.0164  1.2015  0.3654
 2951TIP3   OH230411   6.017   5.597   2.392  0.2398 -0.0595 -0.4393
 2951TIP3    H130412   6.084   5.665   2.400  0.7530 -0.3239 -2.0707
 2951TIP3    H230413   6.013   5.556   2.478  1.0770  0.9834  0.1073
 2952TIP3   OH230414   6.761   1.523   3.530 -0.2091  0.3207  0.5972
 2952TIP3    H130415   6.837   1.580   3.524  0.1876 -0.0015  2.0573
 2952TIP3    H230416   6.754   1.502   3.624  0.7543 -3.4222  0.0228
 2953TIP3   OH230417   0.797   4.297   2.382 -0.2488  0.1834  0.6583
 2953TIP3    H130418   0.727   4.240   2.413  0.5513 -1.1322  0.1451
 2953TIP3    H230419   0.801   4.281   2.287  1.2930 -0.4701  0.7912
 2954TIP3   OH230420   5.002   4.666   1.192  0.2640  0.1255 -0.1251
 2954TIP3    H130421   5.024   4.755   1.164 -0.7364  0.4050 -0.0525
 2954TIP3    H230422   4.972   4.676   1.282 -1.1900 -0.0706 -0.5614
 2955TIP3   OH230423   0.271   3.401   3.529  0.2927  0.0056 -0.2307
 2955TIP3    H130424   0.306   3.317   3.561  1.3046  0.9619  1.2660
 2955TIP3    H230425   0.341   3.464   3.547 -0.5367  1.2255 -1.1555
 2956TIP3   OH230426   4.660   2.471   1.654 -0.5460 -0.2715  0.5369
 2956TIP3    H130427   4.662   2.480   1.559  0.5030  0.3090  0.6046
 2956TIP3    H230428   4.738   2.517   1.685  0.1341 -1.9820  1.5573
 2957TIP3   OH230429   6.579   4.817   1.812  0.0429 -0.0537  0.3726
 2957TIP3    H130430   6.554   4.888   1.871 -1.2279  0.4103 -0.6563
 2957TIP3    H230431   6.529   4.835   1.732 -1.3700 -2.8143  0.5095
 2958TIP3   OH230432   3.715   6.092   1.875 -0.2925  0.6968  0.0103
 2958TIP3    H130433   3.661   6.121   1.949 -0.4960  2.3562 -0.7316
 2958TIP3    H230434   3.804   6.093   1.909 -0.1016  3.7463 -0.3275
 2959TIP3   OH230435   1.421   0.869   3.561  0.0186  0.9955 -0.2580
 2959TIP3    H130436   1.353   0.817   3.519  0.9451  0.9356 -1.7502
 2959TIP3    H230437   1.480   0.894   3.490  0.9014  2.0688  0.8053
 2960TIP3   OH230438   3.310   3.494   1.748 -0.2913 -0.0527  1.0860
 2960TIP3    H130439   3.262   3.446   1.680 -0.0243  0.3454  0.6143
 2960TIP3    H230440   3.269   3.466   1.830 -0.0796 -1.1602  0.8258
 2961TIP3   OH230441   1.023   3.409   3.411 -0.2727 -0.5254  0.3371
 2961TIP3    H130442   1.061   3.496   3.403  0.3705 -0.9188 -1.2696
 2961TIP3    H230443   1.060   3.374   3.492  2.5748 -0.7398 -0.9539
 2962TIP3   OH230444   2.952   5.386   3.544  0.2976  0.1433  0.2819
 2962TIP3    H130445   2.897   5.453   3.583 -0.8284 -1.7289  2.1239
 2962TIP3    H230446   3.020   5.370   3.608 -0.7716 -2.0102  0.9794
 2963TIP3   OH230447   6.753   4.266   0.720 -0.2260  0.5540 -0.5185
 2963TIP3    H130448   6.817   4.317   0.671  0.6479  0.2874  0.3155
 2963TIP3    H230449   6.692   4.235   0.654 -0.2354  1.8710 -1.1671
 2964TIP3   OH230450   3.546   3.995   0.683 -0.2314 -0.0196 -0.4124
 2964TIP3    H130451   3.608   4.013   0.613 -0.3517  1.3122 -0.2178
 2964TIP3    H230452   3.567   4.060   0.750 -0.0819 -1.2984  0.8211
 2965TIP3   OH230453   1.193   0.733   3.824  0.0899 -0.0878 -0.2684
 2965TIP3    H130454   1.169   0.825   3.810 -0.8722 -0.3220 -0.1909
 2965TIP3    H230455   1.250   0.734   3.901 -0.9239  0.3111  0.4965
 2966TIP3   OH230456   1.185   0.041   3.389 -0.7780 -0.1578  0.2832
 2966TIP3    H130457   1.164   0.134   3.395  0.7451  0.1645  1.1130
 2966TIP3    H230458   1.235   0.022   3.468  0.4679 -1.2645 -0.7218
 2967TIP3   OH230459   6.164   0.451   2.758 -0.4652  0.0555  0.1495
 2967TIP3    H130460   6.114   0.498   2.825 -0.8735  1.8650 -1.3426
 2967TIP3    H230461   6.134   0.489   2.675  1.7236 -0.4216 -0.9224
 2968TIP3   OH230462   0.802   4.320   0.927 -0.5111 -0.6193  0.3495
 2968TIP3    H130463   0.766   4.279   0.849 -1.5447  1.4433 -0.3327
 2968TIP3    H230464   0.826   4.247   0.984  0.9307 -2.2354 -2.1245
 2969TIP3   OH230465   2.459   4.647   2.661  0.3342  0.4105  0.0452
 2969TIP3    H130466   2.526   4.709   2.633  2.7741 -1.7573  0.7593
 2969TIP3    H230467   2.470   4.641   2.756 -1.1696  0.2713  0.2394
 2970TIP3   OH230468   3.839   2.543   0.951 -0.6650 -0.0947 -0.2179
 2970TIP3    H130469   3.772   2.572   0.890 -0.4493  1.8783  0.3997
 2970TIP3    H230470   3.791   2.516   1.029 -0.7860  0.6790 -0.0190
 2971TIP3   OH230471   4.418   3.706   0.663 -0.3935  0.6498  0.1713
 2971TIP3    H130472   4.342   3.729   0.717 -1.5916 -3.2926  0.4305
 2971TIP3    H230473   4.461   3.635   0.711  0.8866 -0.2206 -2.1348
 2972TIP3   OH230474   1.170   3.573   4.076 -0.1500 -0.1372  0.1961
 2972TIP3    H130475   1.214   3.531   4.002 -1.4492 -2.2948  0.5456
 2972TIP3    H230476   1.237   3.629   4.115  1.1075 -0.3770 -1.4967
 2973TIP3   OH230477   2.830   5.625   0.748 -0.1621  0.6258  0.8389
 2973TIP3    H130478   2.891   5.552   0.735 -1.4838 -0.2630 -0.8723
 2973TIP3    H230479   2.787   5.635   0.662  0.2553  3.7047  0.8865
 2974TIP3   OH230480   4.937   4.779   1.727  0.0977 -0.4820 -0.4965
 2974TIP3    H130481   4.927   4.707   1.789  0.4447 -0.8006 -0.7998
 2974TIP3    H230482   4.933   4.737   1.641  0.3930 -0.1509 -0.6761
 2975TIP3   OH230483   2.480   5.328   2.300 -0.0216  0.1885  0.0115
 2975TIP3    H130484   2.442   5.396   2.355 -2.0794 -1.4266  0.7028
 2975TIP3    H230485   2.409   5.266   2.285  0.9175 -0.3313 -3.0998
 2976TIP3   OH230486   4.463   5.880   0.551 -0.3131  0.6461  0.5579
 2976TIP3    H130487   4.431   5.954   0.602  0.7406 -0.3717  2.8593
 2976TIP3    H230488   4.545   5.911   0.513  0.2607  0.6188  1.7314
 2977TIP3   OH230489   2.645   1.542   0.138 -0.1141 -0.5709  0.2318
 2977TIP3    H130490   2.621   1.477   0.204 -2.5720 -1.6112 -1.5294
 2977TIP3    H230491   2.575   1.538   0.074  1.7756  0.9006 -2.0996
 2978TIP3   OH230492   3.660   4.984   8.389 -0.1002  0.0670 -0.0968
 2978TIP3    H130493   3.664   4.891   8.368  0.9295 -0.4065  1.9731
 2978TIP3    H230494   3.686   4.990   8.481 -1.7393  2.2356  0.3273
 2979TIP3   OH230495   2.949   2.900   1.242  0.2147  0.2411 -0.2729
 2979TIP3    H130496   2.939   2.806   1.254 -0.2520  0.4331  0.9762
 2979TIP3    H230497   3.027   2.910   1.187  0.8896 -0.8291  0.4638
 2980TIP3   OH230498   0.068   5.736   0.274 -0.4687 -0.1379  0.1518
 2980TIP3    H130499   0.004   5.807   0.280 -0.9065 -0.2710 -2.0471
 2980TIP3    H230500   0.126   5.763   0.203 -1.0893 -2.2875 -1.2377
 2981TIP3   OH230501   5.405   2.506   1.050  0.0561 -0.1138 -0.2196
 2981TIP3    H130502   5.420   2.497   0.956 -0.3279 -0.8974 -0.2155
 2981TIP3    H230503   5.490   2.483   1.090  0.5361  1.2718 -0.4012
 2982TIP3   OH230504   2.699   3.020   2.280  0.3842 -0.0471 -0.5796
 2982TIP3    H130505   2.693   3.062   2.365  1.3637 -0.7810 -0.1269
 2982TIP3    H230506   2.737   2.934   2.298  0.8584 -0.1166 -1.7833
 2983TIP3   OH230507   4.573   0.788   3.615  0.0810  0.6222  0.8723
 2983TIP3    H130508   4.503   0.829   3.564 -2.3995 -1.6740  2.1527
 2983TIP3    H230509   4.653   0.807   3.566 -1.6875  1.5075 -1.9088
 2984TIP3   OH230510   2.779   5.112   8.436 -0.4019 -0.3772  0.3205
 2984TIP3    H130511   2.812   5.045   8.497 -1.8640 -0.9689  0.4825
 2984TIP3    H230512   2.827   5.192   8.461 -0.6212 -0.7137  1.9409
 2985TIP3   OH230513   5.798   1.082   1.454 -0.0696 -0.0340  0.2289
 2985TIP3    H130514   5.807   1.030   1.374  0.8138 -2.3257  1.7255
 2985TIP3    H230515   5.878   1.134   1.457 -0.3629  0.5000 -0.6212
 2986TIP3   OH230516   0.761   0.865   2.445  0.0576 -0.0387  0.0654
 2986TIP3    H130517   0.838   0.811   2.463 -0.1996 -0.7341 -0.8204
 2986TIP3    H230518   0.733   0.896   2.531  1.4218  0.3805  0.3859
 2987TIP3   OH230519   5.477   6.738   2.138 -0.5650 -0.5605  0.5071
 2987TIP3    H130520   5.483   6.822   2.094 -0.3514 -0.5347  0.5844
 2987TIP3    H230521   5.470   6.674   2.067  0.2897 -0.5629  0.4199
 2988TIP3   OH230522   0.548   1.690   4.225 -0.4931  0.7625 -0.1855
 2988TIP3    H130523   0.612   1.749   4.187  0.7830 -1.8646 -2.4987
 2988TIP3    H230524   0.464   1.735   4.215  0.4337  2.2992 -1.4859
 2989TIP3   OH230525   3.719   0.489   3.953  0.0038  0.0628 -0.1540
 2989TIP3    H130526   3.788   0.424   3.945  1.2733  1.2319  0.8636
 2989TIP3    H230527   3.747   0.546   4.024 -1.4024  1.3262 -0.5437
 2990TIP3   OH230528   3.205   2.218   1.454 -0.3020 -0.0906 -0.0054
 2990TIP3    H130529   3.233   2.202   1.364 -0.1145 -1.2558  0.2453
 2990TIP3    H230530   3.161   2.303   1.451 -0.6234 -0.2827 -1.2653
 2991TIP3   OH230531   4.090   5.609   1.468  0.6971  0.0962 -0.5226
 2991TIP3    H130532   4.079   5.694   1.425 -0.5779 -0.2932 -0.9993
 2991TIP3    H230533   4.021   5.554   1.432  0.7835 -0.8170  0.6255
 2992TIP3   OH230534   1.655   4.180   1.393  0.0794  0.5173 -0.1827
 2992TIP3    H130535   1.707   4.163   1.472  0.6812 -1.6063 -0.9481
 2992TIP3    H230536   1.633   4.272   1.398  0.0772  0.4501  2.4757
 2993TIP3   OH230537   4.696   1.801   1.249  0.2712  0.1051  0.1466
 2993TIP3    H130538   4.745   1.869   1.204 -1.1906  2.0639  1.3661
 2993TIP3    H230539   4.678   1.837   1.336 -0.1778 -2.0283  1.0138
 2994TIP3   OH230540   1.668   4.985   1.862  0.3713 -0.7635  0.4439
 2994TIP3    H130541   1.675   4.915   1.797  0.8741 -1.2107  0.9730
 2994TIP3    H230542   1.752   5.030   1.859  0.0362 -0.1400  0.0732
 2995TIP3   OH230543   5.051   3.524   1.073 -0.4247  0.0094 -0.2993
 2995TIP3    H130544   5.074   3.611   1.105  0.4525  0.1713 -1.3092
 2995TIP3    H230545   5.001   3.540   0.993 -0.2362 -0.4135 -0.5063
 2996TIP3   OH230546   4.571   0.221   0.986  0.0305  0.1035 -0.7986
 2996TIP3    H130547   4.590   0.130   0.963 -0.3247 -0.0690 -0.4186
 2996TIP3    H230548   4.612   0.233   1.071  0.4853  0.4424 -1.0645
 2997TIP3   OH230549   2.997   4.431   4.154 -0.0958 -0.2809  0.2208
 2997TIP3    H130550   3.062   4.499   4.171 -0.1308 -0.6177  1.8810
 2997TIP3    H230551   2.913   4.477   4.152  0.0587 -0.0317 -0.5185
 2998TIP3   OH230552   0.949   0.643   3.400 -0.1371  0.2245  0.7995
 2998TIP3    H130553   0.902   0.565   3.371  1.6453 -0.3542 -0.6902
 2998TIP3    H230554   0.963   0.629   3.494 -0.8182 -0.6987  0.7760
 2999TIP3   OH230555   1.039   2.761   4.152  0.3300 -0.5956 -0.3017
 2999TIP3    H130556   1.033   2.853   4.124  0.8318 -0.5558 -0.2989
 2999TIP3    H230557   1.093   2.764   4.231 -1.6808 -0.6179  1.1512
 3000TIP3   OH230558   4.035   1.389   2.722  0.0150  0.3165 -0.0398
 3000TIP3    H130559   3.979   1.466   2.712  0.9532  0.8194 -1.9178
 3000TIP3    H230560   4.098   1.396   2.650  1.6663 -0.9178  1.2081
 3001TIP3   OH230561   0.598   4.097   3.185  0.1966 -0.4382 -0.0589
 3001TIP3    H130562   0.524   4.076   3.129 -1.0600  0.2604  1.2828
 3001TIP3    H230563   0.608   4.192   3.178 -0.4745 -0.2334  1.4560
 3002TIP3   OH230564   2.202   1.479   2.726 -0.0716 -0.2260 -0.2222
 3002TIP3    H130565   2.217   1.558   2.674  0.1489  0.5993  1.0426
 3002TIP3    H230566   2.108   1.480   2.745 -0.9569 -2.4846 -3.5653
 3003TIP3   OH230567   3.512   0.423   3.247  0.7364  0.0077 -0.1264
 3003TIP3    H130568   3.511   0.329   3.261 -0.7159 -0.1637 -1.1686
 3003TIP3    H230569   3.433   0.455   3.290 -0.2207  0.3430 -2.0105
 3004TIP3   OH230570   4.695   2.343   2.980 -0.7117 -0.2065 -0.0235
 3004TIP3    H130571   4.602   2.349   2.956 -0.7423 -0.2204  0.0915
 3004TIP3    H230572   4.741   2.387   2.908 -0.7293 -1.0439 -0.5557
 3005TIP3   OH230573   3.019   2.956   1.596  0.5164  0.3243 -0.3035
 3005TIP3    H130574   2.963   2.880   1.612 -0.1965  0.9943  0.4792
 3005TIP3    H230575   2.965   3.016   1.543 -0.3781  1.9011  2.2094
 3006TIP3   OH230576   2.024   1.973   0.709  0.2408  0.2271  0.2458
 3006TIP3    H130577   2.078   1.918   0.765 -0.0504 -0.1268  0.1781
 3006TIP3    H230578   1.965   1.913   0.665 -0.1954  0.6096  0.2989
 3007TIP3   OH230579   6.309   0.407   3.839  0.3693  0.1689  0.2790
 3007TIP3    H130580   6.280   0.498   3.835 -0.8701 -0.2170 -0.1157
 3007TIP3    H230581   6.281   0.370   3.755  1.8296 -0.3104 -0.0162
 3008TIP3   OH230582   5.807   1.615   1.422  0.9846 -0.2069 -0.4439
 3008TIP3    H130583   5.810   1.578   1.510  1.3840  0.0523 -0.3428
 3008TIP3    H230584   5.785   1.541   1.365  0.4462 -0.3167 -0.0957
 3009TIP3   OH230585   1.243   6.513   1.699 -0.3917  0.0661 -0.1348
 3009TIP3    H130586   1.202   6.498   1.614  0.7389  0.9006 -0.8479
 3009TIP3    H230587   1.190   6.582   1.739 -1.2241 -0.6728  0.0670
 3010TIP3   OH230588   5.406   0.328   3.816  0.2516 -0.4539  0.6886
 3010TIP3    H130589   5.319   0.368   3.812  0.8396  1.0662  2.0042
 3010TIP3    H230590   5.396   0.256   3.878 -0.6466 -2.0145 -1.1627
 3011TIP3   OH230591   3.759   0.538   0.265 -0.0661 -0.0474 -0.2110
 3011TIP3    H130592   3.783   0.529   0.172 -1.9414 -0.6327 -0.6865
 3011TIP3    H230593   3.678   0.588   0.264 -0.9769 -1.4124  0.9712
 3012TIP3   OH230594   6.402   3.793   2.165  0.1399  0.2675  0.2282
 3012TIP3    H130595   6.337   3.763   2.228  0.2025 -0.7994 -0.1878
 3012TIP3    H230596   6.484   3.753   2.195 -0.3408 -2.9335 -2.1951
 3013TIP3   OH230597   6.730   4.783   2.232  0.3239 -0.1297  0.0138
 3013TIP3    H130598   6.646   4.802   2.189  0.5901  0.6411 -0.1836
 3013TIP3    H230599   6.720   4.818   2.320  0.4042 -0.1293  0.0225
 3014TIP3   OH230600   0.339   1.654   2.213 -0.9387 -0.2702 -0.0389
 3014TIP3    H130601   0.326   1.745   2.184  0.2753 -0.2543 -0.6034
 3014TIP3    H230602   0.400   1.661   2.286 -0.0898 -0.6868 -0.6864
 3015TIP3   OH230603   2.497   4.625   0.500 -0.4322 -0.6177 -0.2868
 3015TIP3    H130604   2.550   4.679   0.559 -1.2854 -1.1983  1.0690
 3015TIP3    H230605   2.520   4.655   0.412 -0.9577  2.0298  0.4118
 3016TIP3   OH230606   1.224   1.707   3.675  0.0084 -0.9283 -0.4951
 3016TIP3    H130607   1.252   1.725   3.585 -1.2738  0.6154 -0.6210
 3016TIP3    H230608   1.153   1.644   3.667 -0.8537  0.0380 -0.6830
 3017TIP3   OH230609   4.348   4.174   1.095  0.4595 -0.4254 -0.1654
 3017TIP3    H130610   4.362   4.269   1.096 -1.1773 -0.1548  0.4331
 3017TIP3    H230611   4.432   4.137   1.122  1.3423  0.8116 -1.1176
 3018TIP3   OH230612   2.615   2.082   1.818  0.2214  0.1774  0.0725
 3018TIP3    H130613   2.530   2.039   1.807  0.4033  0.2173 -1.8476
 3018TIP3    H230614   2.594   2.174   1.832 -0.0544  0.1050  0.1475
 3019TIP3   OH230615   2.153   5.039   8.295 -1.0325 -0.1555 -0.0546
 3019TIP3    H130616   2.160   4.995   8.380  0.3770  1.3034  0.6448
 3019TIP3    H230617   2.149   4.968   8.232 -1.5173 -1.2769  1.1859
 3020TIP3   OH230618   0.998   2.528   4.406 -0.0543  0.3777  0.6524
 3020TIP3    H130619   1.070   2.590   4.393 -0.9023  1.5537  1.3225
 3020TIP3    H230620   1.036   2.442   4.388  0.9456  1.1386 -1.1809
 3021TIP3   OH230621   4.007   4.222   2.631  0.1636  0.1095  0.1205
 3021TIP3    H130622   3.949   4.223   2.707 -0.0405 -1.6646  0.0221
 3021TIP3    H230623   4.095   4.233   2.668  0.1205 -1.3627  0.7000
 3022TIP3   OH230624   4.526   1.215   0.406 -0.2565  0.4347 -0.3172
 3022TIP3    H130625   4.460   1.252   0.464 -1.4064  1.6319 -2.2602
 3022TIP3    H230626   4.495   1.236   0.318  0.9685 -1.9878 -1.4422
 3023TIP3   OH230627   5.168   2.781   2.485  0.2424 -0.4255  0.1953
 3023TIP3    H130628   5.153   2.856   2.426  1.7943 -0.0705  0.1925
 3023TIP3    H230629   5.163   2.819   2.573  2.1097 -0.0298  0.1815
 3024TIP3   OH230630   0.269   0.199   8.423 -0.7997  0.0315 -0.0558
 3024TIP3    H130631   0.236   0.282   8.389  0.4459  0.9512  0.8364
 3024TIP3    H230632   0.191   0.151   8.450 -1.5325  1.1110 -0.1840
 3025TIP3   OH230633   6.144   0.131   0.321 -0.6160  0.2732  0.4646
 3025TIP3    H130634   6.228   0.125   0.276 -1.6282  1.5081 -1.7684
 3025TIP3    H230635   6.079   0.107   0.254 -2.1251  0.6516  1.7237
 3026TIP3   OH230636   5.504   1.206   3.060 -0.3961 -0.4102  1.0443
 3026TIP3    H130637   5.591   1.166   3.049  0.3932  1.3934  0.4048
 3026TIP3    H230638   5.460   1.150   3.123  1.1254 -1.5419  1.1580
 3027TIP3   OH230639   5.775   4.919   0.691 -0.5562 -0.1689  0.3795
 3027TIP3    H130640   5.715   4.978   0.646 -1.2144 -1.1033  0.0010
 3027TIP3    H230641   5.793   4.850   0.627  0.0314 -0.4860  0.8815
 3028TIP3   OH230642   1.708   1.646   0.083  0.5461  0.6593 -0.2428
 3028TIP3    H130643   1.794   1.674   0.115  1.2025 -0.6409 -0.8031
 3028TIP3    H230644   1.695   1.696   0.002  1.2577  0.0912 -0.7152
 3029TIP3   OH230645   6.385   1.583   3.744  0.1325  0.1764 -0.2431
 3029TIP3    H130646   6.344   1.599   3.659 -1.0971 -2.6741 -0.3013
 3029TIP3    H230647   6.313   1.585   3.807  0.4413 -1.1364  0.1984
 3030TIP3   OH230648   5.090   6.797   3.505  0.4330  0.0250  0.2252
 3030TIP3    H130649   5.137   6.721   3.470 -1.1053 -1.3738  1.0732
 3030TIP3    H230650   5.129   6.813   3.591  0.6506  0.1121  0.1119
 3031TIP3   OH230651   2.975   6.038   3.267  0.2128 -0.3917 -0.8391
 3031TIP3    H130652   2.893   6.029   3.317  0.2691  1.5311 -0.3251
 3031TIP3    H230653   3.043   6.048   3.334  0.2521  2.5019 -1.1732
 3032TIP3   OH230654   1.076   0.441   2.176 -0.3695 -0.0577  0.6092
 3032TIP3    H130655   1.152   0.477   2.129 -1.3770 -0.1766 -1.1968
 3032TIP3    H230656   1.102   0.445   2.268  2.4826 -1.5657  0.0070
 3033TIP3   OH230657   6.241   5.589   3.139  0.3143 -0.1833 -0.8470
 3033TIP3    H130658   6.164   5.615   3.190 -0.3225  0.0845 -1.9110
 3033TIP3    H230659   6.228   5.630   3.054  1.4337 -0.4906 -1.1840
 3034TIP3   OH230660   6.225   0.289   0.623  0.3095 -0.1407  0.8205
 3034TIP3    H130661   6.300   0.345   0.645  0.9927 -1.1419  1.0821
 3034TIP3    H230662   6.205   0.311   0.533  0.8178  0.2584  0.7978
 3035TIP3   OH230663   4.882   2.287   2.399  0.3620 -0.2103 -0.5676
 3035TIP3    H130664   4.801   2.296   2.448  0.3509 -1.6905 -0.2589
 3035TIP3    H230665   4.922   2.374   2.402 -0.7837  0.3138  0.0183
 3036TIP3   OH230666   2.818   2.424   2.438  0.1785 -0.0385  0.2813
 3036TIP3    H130667   2.736   2.419   2.388 -0.1056  0.2308  0.7119
 3036TIP3    H230668   2.875   2.481   2.386 -0.0169  0.0247  0.1345
 3037TIP3   OH230669   2.284   0.758   4.132  0.1255  0.2536  0.3075
 3037TIP3    H130670   2.358   0.811   4.102 -0.0025 -0.5039 -1.4979
 3037TIP3    H230671   2.281   0.684   4.071 -0.8988 -0.7981  1.5683
 3038TIP3   OH230672   6.671   1.249   3.472 -0.2942  0.5057  0.5980
 3038TIP3    H130673   6.588   1.252   3.520 -1.0047 -0.0625 -0.5651
 3038TIP3    H230674   6.714   1.332   3.495 -0.4983  0.1627  2.3740
 3039TIP3   OH230675   1.277   1.229   3.264  0.5097 -0.4081 -0.3338
 3039TIP3    H130676   1.203   1.285   3.286  1.2608 -0.6323  3.4514
 3039TIP3    H230677   1.239   1.158   3.212 -1.7942 -0.0388  0.7307
 3040TIP3   OH230678   1.813   3.521   1.026 -0.0947 -0.0005 -0.0743
 3040TIP3    H130679   1.818   3.427   1.040  0.2588  0.0677  0.2763
 3040TIP3    H230680   1.870   3.558   1.093 -1.2023  0.5247  0.6128
 3041TIP3   OH230681   5.563   4.173   2.284  0.1484 -0.0216  0.5696
 3041TIP3    H130682   5.492   4.180   2.219  2.9050 -0.9857 -2.8319
 3041TIP3    H230683   5.587   4.264   2.302  0.3395  0.2986 -1.0815
 3042TIP3   OH230684   0.876   1.542   3.553  0.5038 -0.2231  0.4832
 3042TIP3    H130685   0.939   1.506   3.615 -1.1771 -0.9670  1.8186
 3042TIP3    H230686   0.931   1.580   3.484  2.4532  1.2050  2.6824
 3043TIP3   OH230687   1.936   6.720   2.570  0.0127 -0.6151 -0.1031
 3043TIP3    H130688   1.888   6.647   2.530 -0.6001 -1.5665  2.1842
 3043TIP3    H230689   2.025   6.687   2.582  0.5123  0.0811 -1.6155
 3044TIP3   OH230690   0.718   6.307   3.417 -0.4674 -0.2134 -0.4301
 3044TIP3    H130691   0.787   6.293   3.482  0.1200  0.6960 -0.8486
 3044TIP3    H230692   0.748   6.259   3.340 -0.0537  0.5815 -0.7737
 3045TIP3   OH230693   3.109   2.173   0.802 -0.1946 -0.6130  0.4875
 3045TIP3    H130694   3.188   2.138   0.844  1.2686  1.0228 -0.7368
 3045TIP3    H230695   3.082   2.244   0.859  0.2461 -0.0771  0.0386
 3046TIP3   OH230696   2.761   4.126   3.248  0.3805 -0.5467  1.4228
 3046TIP3    H130697   2.806   4.209   3.232  0.2780 -0.4113  1.8332
 3046TIP3    H230698   2.808   4.063   3.193 -1.7487  0.3884 -1.7541
 3047TIP3   OH230699   5.577   5.277   2.440 -0.1484  0.0463 -0.4839
 3047TIP3    H130700   5.556   5.300   2.531 -0.5253  1.8419 -0.9828
 3047TIP3    H230701   5.615   5.357   2.404 -0.0189 -0.6430 -1.9241
 3048TIP3   OH230702   4.426   6.296   1.354  0.1618 -0.2808  0.3238
 3048TIP3    H130703   4.467   6.283   1.439 -0.2821 -2.6819  0.2328
 3048TIP3    H230704   4.470   6.234   1.296 -1.1179 -0.3283 -0.6437
 3049TIP3   OH230705   4.729   3.119   0.855  0.0076  0.4601 -0.1791
 3049TIP3    H130706   4.769   3.166   0.928  1.4481  0.1164 -0.7259
 3049TIP3    H230707   4.704   3.034   0.892  0.2523  0.4840  0.0440
 3050TIP3   OH230708   4.362   2.178   0.322 -0.1535  0.3164 -0.0932
 3050TIP3    H130709   4.447   2.217   0.302 -0.5097  1.7785  1.1169
 3050TIP3    H230710   4.302   2.252   0.330 -0.8151 -0.3868  2.3978
 3051TIP3   OH230711   2.943   6.892   8.329 -0.0653 -0.3392 -0.2627
 3051TIP3    H130712   3.032   6.875   8.359 -0.2714 -1.6233 -0.3157
 3051TIP3    H230713   2.913   6.809   8.293 -1.4017 -0.0277  0.0515
 3052TIP3   OH230714   6.653   3.913   3.902  0.1132  0.5409  0.3979
 3052TIP3    H130715   6.727   3.875   3.855  1.1736  1.4780  1.2614
 3052TIP3    H230716   6.686   3.929   3.991 -0.4341  2.9005  0.2559
 3053TIP3   OH230717   3.837   3.384   1.344  0.3489  0.2002 -0.3687
 3053TIP3    H130718   3.838   3.352   1.254  0.9571 -0.9942  0.0364
 3053TIP3    H230719   3.745   3.386   1.368  0.2152  0.0567 -0.8662
 3054TIP3   OH230720   6.917   6.010   2.926 -0.3994  0.3009  0.1613
 3054TIP3    H130721   6.980   6.018   2.997  1.4039  0.0040 -1.3374
 3054TIP3    H230722   6.841   5.968   2.966  0.8092 -0.4580  1.7628
 3055TIP3   OH230723   2.784   2.291   2.099  0.1067 -0.4205  0.1849
 3055TIP3    H130724   2.705   2.309   2.149 -1.4137 -1.2773 -1.7846
 3055TIP3    H230725   2.840   2.241   2.159 -1.0108 -0.2035  1.4610
 3056TIP3   OH230726   1.498   4.356   2.578 -0.4500  0.7250  0.0027
 3056TIP3    H130727   1.547   4.274   2.585  0.0691  1.0319  0.0078
 3056TIP3    H230728   1.444   4.357   2.657 -0.8083  0.1666 -0.2276
 3057TIP3   OH230729   4.703   2.989   3.393 -0.3623  0.2982  0.6574
 3057TIP3    H130730   4.659   3.073   3.400 -2.4221 -0.7936  1.7301
 3057TIP3    H230731   4.723   2.965   3.483  2.4005  0.6699  0.2213
 3058TIP3   OH230732   2.747   3.947   4.180  0.5124 -0.0010  0.4711
 3058TIP3    H130733   2.760   3.859   4.215  1.3646  0.0603  0.3461
 3058TIP3    H230734   2.691   3.991   4.244  1.4991 -0.0919  1.4325
 3059TIP3   OH230735   4.194   2.849   1.196 -0.6711  0.2100 -0.0320
 3059TIP3    H130736   4.225   2.789   1.264  0.0420 -0.3073 -0.7933
 3059TIP3    H230737   4.244   2.930   1.211  0.5877 -0.3949 -0.8341
 3060TIP3   OH230738   5.930   2.211   0.607 -0.4180 -0.0680 -0.7131
 3060TIP3    H130739   5.918   2.134   0.552 -2.2978 -0.5885  0.3250
 3060TIP3    H230740   5.900   2.184   0.694 -0.8429  1.7273 -0.2438
 3061TIP3   OH230741   5.527   1.469   0.464  0.0458  0.3181 -1.0432
 3061TIP3    H130742   5.622   1.471   0.476 -0.1420 -1.3577  1.3478
 3061TIP3    H230743   5.512   1.399   0.401  0.3890  0.7772 -1.6454
 3062TIP3   OH230744   3.556   0.234   0.005 -0.0815 -0.5409  0.4540
 3062TIP3    H130745   3.554   0.138   0.009 -1.1273 -0.6579 -1.5090
 3062TIP3    H230746   3.466   0.259  -0.017  0.3910  0.8173 -0.0416
 3063TIP3   OH230747   1.371   5.493   1.710  0.3176  0.3633 -0.0266
 3063TIP3    H130748   1.310   5.488   1.636  1.9406  1.4411 -1.5113
 3063TIP3    H230749   1.381   5.402   1.739 -0.5447 -0.0400 -0.9318
 3064TIP3   OH230750   2.137   5.585   2.237 -0.0265  0.2253 -0.4842
 3064TIP3    H130751   2.224   5.594   2.276 -0.4457  1.8116  0.1551
 3064TIP3    H230752   2.099   5.673   2.242 -1.6350 -0.4153 -0.8465
 3065TIP3   OH230753   3.546   2.635   3.716  0.4884  0.0490  0.3482
 3065TIP3    H130754   3.584   2.574   3.779 -1.8496  0.3359  2.1868
 3065TIP3    H230755   3.470   2.588   3.681 -1.0776  1.6317  1.4415
 3066TIP3   OH230756   4.890   2.758   1.297 -0.7896  0.4077 -0.1326
 3066TIP3    H130757   4.927   2.669   1.295 -2.5371 -0.3811  0.4390
 3066TIP3    H230758   4.862   2.773   1.207 -1.0646  0.1130 -0.0997
 3067TIP3   OH230759   0.344   3.423   4.139 -0.1652  0.1585 -0.2250
 3067TIP3    H130760   0.283   3.494   4.162  1.0649  1.4327 -0.7130
 3067TIP3    H230761   0.289   3.345   4.132 -1.6732  1.1814 -0.2684
 3068TIP3   OH230762   6.012   1.552   2.318 -0.3103 -0.2792 -0.2661
 3068TIP3    H130763   6.027   1.539   2.411  1.4810  2.5061 -0.0607
 3068TIP3    H230764   6.048   1.474   2.276 -1.0741 -1.5333  1.3001
 3069TIP3   OH230765   4.473   2.224   0.982 -0.1783  0.9641  0.5015
 3069TIP3    H130766   4.387   2.252   1.012 -0.5735  0.6538 -0.3037
 3069TIP3    H230767   4.497   2.288   0.915 -1.4662 -0.9489 -1.9807
 3070TIP3   OH230768   4.446   3.407   3.718 -0.1284  0.0849 -0.3635
 3070TIP3    H130769   4.492   3.466   3.658  0.0039  0.3332 -0.0200
 3070TIP3    H230770   4.354   3.435   3.714 -0.3126 -0.5747 -1.2450
 3071TIP3   OH230771   5.374   5.492   3.873 -0.2553  0.1769 -0.4553
 3071TIP3    H130772   5.441   5.543   3.827  2.9629 -1.2855  2.1424
 3071TIP3    H230773   5.383   5.404   3.838 -1.1367  0.0328 -0.3380
 3072TIP3   OH230774   3.225   6.331   1.951 -0.7230 -0.3880 -0.0333
 3072TIP3    H130775   3.229   6.427   1.945 -0.4246 -0.4201 -0.3662
 3072TIP3    H230776   3.141   6.308   1.912 -0.5936 -0.2963 -0.3624
 3073TIP3   OH230777   3.904   4.493   1.266  0.1658  1.0014  0.7180
 3073TIP3    H130778   3.838   4.482   1.335 -1.5093  0.1105 -0.9537
 3073TIP3    H230779   3.861   4.546   1.199  2.3429  3.3412  1.0043
 3074TIP3   OH230780   5.053   4.529   1.707 -0.3043 -0.4433  0.2660
 3074TIP3    H130781   5.083   4.584   1.780 -2.0102  0.3233  0.4470
 3074TIP3    H230782   5.070   4.439   1.736  1.8181 -0.0769  0.2928
 3075TIP3   OH230783   4.723   1.584   0.343  0.4121 -0.1489 -0.4977
 3075TIP3    H130784   4.699   1.676   0.329  3.2956  0.6379 -0.9135
 3075TIP3    H230785   4.779   1.562   0.269 -0.2712 -2.3226 -0.4458
 3076TIP3   OH230786   1.703   1.021   0.624 -0.1735  0.4120 -0.4727
 3076TIP3    H130787   1.733   1.111   0.618 -0.1004  0.5535  1.3089
 3076TIP3    H230788   1.616   1.028   0.664  0.4779 -0.3353  1.1999
 3077TIP3   OH230789   2.798   2.796   4.208 -0.0193 -0.2326 -0.4208
 3077TIP3    H130790   2.735   2.849   4.159  0.2185 -0.4221 -0.9387
 3077TIP3    H230791   2.880   2.803   4.158  0.1971 -0.5089 -0.1092
 3078TIP3   OH230792   4.416   5.460   2.502  0.1461  0.0122 -0.0681
 3078TIP3    H130793   4.429   5.548   2.537 -0.1324  0.2442 -0.5443
 3078TIP3    H230794   4.407   5.472   2.407  1.4161 -0.6605 -0.3073
 3079TIP3   OH230795   1.115   4.308   2.783  0.0656  0.3101  0.3617
 3079TIP3    H130796   1.059   4.270   2.716 -0.2766 -0.4654  1.0634
 3079TIP3    H230797   1.198   4.260   2.776  0.0596  0.2894  0.4284
 3080TIP3   OH230798   0.752   4.612   0.732 -0.3467 -0.1291 -0.0881
 3080TIP3    H130799   0.686   4.661   0.682  0.6795  2.5416  0.9945
 3080TIP3    H230800   0.716   4.609   0.821 -0.6383 -1.9409 -0.2257
 3081TIP3   OH230801   6.867   3.496   2.026 -0.1177 -0.7122 -0.6445
 3081TIP3    H130802   6.949   3.452   2.003  0.7335  0.7281 -0.5218
 3081TIP3    H230803   6.893   3.586   2.046 -1.7976 -0.1024 -1.0204
 3082TIP3   OH230804   1.064   0.979   3.801  0.6442 -0.4178 -0.4657
 3082TIP3    H130805   1.069   1.055   3.859  1.7055 -0.4924 -0.4453
 3082TIP3    H230806   0.970   0.968   3.785  0.3425 -0.2416  1.0242
 3083TIP3   OH230807   2.168   6.717   0.956  0.7200  0.2605 -0.3285
 3083TIP3    H130808   2.086   6.768   0.951 -2.7632 -4.5479  0.3697
 3083TIP3    H230809   2.160   6.668   1.038  3.6784 -1.4719 -0.9594
 3084TIP3   OH230810   4.278   0.105   0.395  0.2459  0.1155 -0.1292
 3084TIP3    H130811   4.186   0.120   0.372 -0.2463 -0.8806  1.0583
 3084TIP3    H230812   4.317   0.192   0.396 -0.9802  0.6824  0.4562
 3085TIP3   OH230813   2.493   6.855   1.435 -0.6360  0.3122  0.1902
 3085TIP3    H130814   2.574   6.842   1.485 -0.9123  0.2307  0.6260
 3085TIP3    H230815   2.519   6.845   1.344 -0.3824 -0.9536  0.3866
 3086TIP3   OH230816   2.202   0.403   3.751  0.1069 -0.3568  0.2944
 3086TIP3    H130817   2.211   0.425   3.658 -1.5700 -1.5565 -0.1955
 3086TIP3    H230818   2.281   0.439   3.791 -0.2679  2.3788 -1.1604
 3087TIP3   OH230819   1.632   6.054   3.362  0.0297 -0.2098 -0.8152
 3087TIP3    H130820   1.621   6.149   3.371  1.2481  0.1707 -2.6458
 3087TIP3    H230821   1.676   6.027   3.442 -0.8879  0.6439  0.0100
 3088TIP3   OH230822   2.327   5.564   4.104  0.5201 -0.1194  0.2049
 3088TIP3    H130823   2.332   5.650   4.063  1.2563 -0.0681  0.3778
 3088TIP3    H230824   2.242   5.562   4.147  0.6577  0.6743  0.5257
 3089TIP3   OH230825   2.394   6.083   4.026 -0.8602 -0.4990  0.3193
 3089TIP3    H130826   2.436   6.089   4.112 -0.4012  0.6472  0.0319
 3089TIP3    H230827   2.319   6.142   4.031 -0.4129  0.1413 -0.2836
 3090TIP3   OH230828   6.430   2.101   4.557  0.0703 -0.0434 -0.4619
 3090TIP3    H130829   6.482   2.181   4.557  0.5416 -0.3485 -0.8678
 3090TIP3    H230830   6.404   2.090   4.649 -1.5628  1.5690 -0.6713
 3091TIP3   OH230831   4.999   3.341   0.823 -0.1794  0.0419 -0.4644
 3091TIP3    H130832   4.935   3.411   0.836  0.8728  0.4675  4.8167
 3091TIP3    H230833   4.960   3.264   0.863  0.3969 -1.3151 -2.3813
 3092TIP3   OH230834   2.712   5.649   2.227  0.1265 -0.0686  0.6014
 3092TIP3    H130835   2.663   5.731   2.223  1.2620  0.5952 -0.5051
 3092TIP3    H230836   2.735   5.630   2.136  0.3387 -1.3501  0.8988
 3093TIP3   OH230837   6.675   0.672   2.806  0.3714  0.1684 -0.0627
 3093TIP3    H130838   6.714   0.653   2.721  0.2227  0.5841 -0.2276
 3093TIP3    H230839   6.592   0.626   2.806  0.2619  0.3623 -0.2417
 3094TIP3   OH230840   2.988   5.373   0.667  0.2810 -0.6582 -0.4734
 3094TIP3    H130841   2.930   5.298   0.683  0.3839 -0.4037  1.2935
 3094TIP3    H230842   3.033   5.351   0.585 -0.8446 -1.7713 -0.8399
 3095TIP3   OH230843   3.529   3.631   8.105  0.1819  0.2987  0.5836
 3095TIP3    H130844   3.536   3.726   8.091  0.5438  0.4549  1.7453
 3095TIP3    H230845   3.563   3.593   8.024 -0.1803  1.1598  0.0124
 3096TIP3   OH230846   1.336   6.258   1.818 -0.0520  0.0859  0.0104
 3096TIP3    H130847   1.268   6.210   1.772  0.5271 -0.2249 -0.5500
 3096TIP3    H230848   1.310   6.350   1.809 -0.6117 -0.0539  0.1702
 3097TIP3   OH230849   5.728   0.796   0.637  0.0584 -0.4146  0.0834
 3097TIP3    H130850   5.738   0.762   0.726 -0.0933 -0.8413 -0.0595
 3097TIP3    H230851   5.809   0.843   0.620 -0.4946  0.9655  0.9958
 3098TIP3   OH230852   3.599   4.987   3.712  0.0332 -0.0479  0.8128
 3098TIP3    H130853   3.570   4.962   3.624  0.7068 -1.5053  0.9593
 3098TIP3    H230854   3.686   5.026   3.698 -0.3206  0.7292  0.7410
 3099TIP3   OH230855   3.856   4.511   2.492 -0.2811 -0.1221  0.1089
 3099TIP3    H130856   3.886   4.421   2.502 -2.5222 -0.9731 -0.2708
 3099TIP3    H230857   3.900   4.542   2.413  1.5478 -0.3769  0.9661
 3100TIP3   OH230858   5.394   2.581   4.002 -0.1129 -0.0637 -0.4147
 3100TIP3    H130859   5.337   2.650   4.034  1.4612  0.8735  0.4323
 3100TIP3    H230860   5.464   2.626   3.955 -0.1397 -1.2066 -1.6517
 3101TIP3   OH230861   0.055   5.872   2.701  0.2086  0.6816 -0.2094
 3101TIP3    H130862   0.032   5.925   2.778 -2.3982 -1.6354  0.8143
 3101TIP3    H230863  -0.026   5.825   2.679  1.9914 -2.0494 -1.6563
 3102TIP3   OH230864   0.912   4.436   1.427  0.3108  0.4566  0.3342
 3102TIP3    H130865   0.944   4.525   1.413  0.0092  0.4198 -0.6750
 3102TIP3    H230866   0.986   4.380   1.404 -0.3297  0.3792 -1.7649
 3103TIP3   OH230867   3.802   5.236   4.393 -0.1291  0.5197 -0.3138
 3103TIP3    H130868   3.776   5.188   4.472  1.0978  2.4264  1.3525
 3103TIP3    H230869   3.780   5.327   4.412  2.6633  1.4456 -0.9883
 3104TIP3   OH230870   2.134   5.366   0.549 -0.4808 -0.2439 -0.3059
 3104TIP3    H130871   2.058   5.313   0.572  0.6164 -1.3713  0.9009
 3104TIP3    H230872   2.207   5.303   0.547  0.9495  1.2443  1.5967
 3105TIP3   OH230873   3.934   1.616   3.931 -1.2258 -0.0114  0.1599
 3105TIP3    H130874   3.843   1.636   3.951 -1.5402 -0.4405 -0.7603
 3105TIP3    H230875   3.942   1.522   3.951 -0.8603  0.1269  0.6703
 3106TIP3   OH230876   2.874   0.144   0.208 -0.0347 -0.5564 -0.2905
 3106TIP3    H130877   2.887   0.215   0.271  0.3853 -2.0302  1.3473
 3106TIP3    H230878   2.880   0.187   0.123 -3.4456  2.0496  0.5673
 3107TIP3   OH230879   3.569   1.952   0.797 -0.0637  0.5940  0.0745
 3107TIP3    H130880   3.577   1.951   0.892  0.1612  3.1864  0.1523
 3107TIP3    H230881   3.649   1.909   0.767  1.6422  2.8377  1.1008
 3108TIP3   OH230882   2.989   6.204   0.752 -0.0672  0.1933  0.4910
 3108TIP3    H130883   2.985   6.218   0.658 -0.1035 -0.3434  0.4126
 3108TIP3    H230884   2.947   6.282   0.790  0.3857  0.6373  0.0854
 3109TIP3   OH230885   2.344   6.323   0.223 -0.1513 -0.1282 -0.4753
 3109TIP3    H130886   2.428   6.351   0.188  0.5374  0.2280  1.3714
 3109TIP3    H230887   2.342   6.229   0.208  0.0314  0.0326 -1.5993
 3110TIP3   OH230888   3.423   5.332   1.252 -0.3666 -0.4040  0.4658
 3110TIP3    H130889   3.462   5.384   1.181 -0.4050  0.2260  0.8897
 3110TIP3    H230890   3.442   5.383   1.331 -0.9236 -0.7479  0.8268
 3111TIP3   OH230891   0.447   1.425   0.415  0.4976  0.5837  0.0073
 3111TIP3    H130892   0.356   1.404   0.435  0.5976 -0.4007 -0.5335
 3111TIP3    H230893   0.449   1.521   0.417 -0.2354  0.6060  1.3284
 3112TIP3   OH230894   4.607   4.141   0.577  0.8001  0.0073 -0.3011
 3112TIP3    H130895   4.526   4.101   0.611  1.9206 -1.5424  0.6656
 3112TIP3    H230896   4.614   4.224   0.622 -0.6227  0.5119 -0.9467
 3113TIP3   OH230897   1.120   3.076   3.261  0.2093  0.2973 -0.6476
 3113TIP3    H130898   1.069   2.996   3.252 -0.7653  0.9189 -0.7710
 3113TIP3    H230899   1.170   3.064   3.342  2.1249 -1.5315 -1.9877
 3114TIP3   OH230900   5.064   3.024   3.102 -0.2209  0.5832 -0.2331
 3114TIP3    H130901   5.149   3.058   3.129  0.0763 -0.4476  0.1790
 3114TIP3    H230902   5.027   3.093   3.047  0.6989  1.2197 -0.0754
 3115TIP3   OH230903   4.834   0.236   0.851 -0.0483  0.1436 -0.2153
 3115TIP3    H130904   4.739   0.232   0.854 -0.0919 -0.8032 -1.8141
 3115TIP3    H230905   4.863   0.195   0.932 -0.9785  1.3795  0.7882
 3116TIP3   OH230906   5.276   4.249   1.077  0.2243  0.5548  0.5289
 3116TIP3    H130907   5.234   4.327   1.041  0.0518  0.0162 -0.4692
 3116TIP3    H230908   5.338   4.222   1.010 -0.2609 -0.5989  0.5105
 3117TIP3   OH230909   1.571   3.345   0.322 -0.4954 -0.1984  0.2363
 3117TIP3    H130910   1.594   3.404   0.250 -1.7485 -0.3854 -0.3284
 3117TIP3    H230911   1.541   3.265   0.279 -2.7635  0.2408  0.9130
 3118TIP3   OH230912   6.185   3.141   2.937 -0.5616  0.7291 -0.5060
 3118TIP3    H130913   6.095   3.171   2.934 -0.8096  0.2372  1.0248
 3118TIP3    H230914   6.238   3.218   2.918 -1.2678  1.4054  0.2197
 3119TIP3   OH230915   5.884   1.216   0.829  0.2819  0.3014 -0.3840
 3119TIP3    H130916   5.838   1.185   0.751  0.1134  1.8194 -0.9328
 3119TIP3    H230917   5.827   1.193   0.902 -0.6806  0.8837 -0.9317
 3120TIP3   OH230918   3.519   3.993   2.359  1.0007 -0.1525 -0.2325
 3120TIP3    H130919   3.542   4.060   2.423 -1.1013 -1.3216  1.8772
 3120TIP3    H230920   3.518   3.911   2.408  0.1791 -1.2335 -1.9626
 3121TIP3   OH230921   1.311   6.706   0.109  0.1325  0.2667 -0.3471
 3121TIP3    H130922   1.244   6.739   0.169  0.0555 -0.0695 -0.2511
 3121TIP3    H230923   1.346   6.785   0.068 -1.9594  0.3243 -2.1592
 3122TIP3   OH230924   6.414   5.120   4.125  0.3795 -0.6007 -0.1634
 3122TIP3    H130925   6.460   5.184   4.072 -0.9188  0.0881 -0.5080
 3122TIP3    H230926   6.326   5.116   4.087 -0.3019 -0.7698  1.3508
 3123TIP3   OH230927   5.736   6.465   1.656 -0.6845 -0.2201  0.5557
 3123TIP3    H130928   5.824   6.502   1.663 -0.3512 -0.6085 -1.1206
 3123TIP3    H230929   5.737   6.391   1.716  0.1883 -0.3171  0.4418
 3124TIP3   OH230930   4.465   5.349   8.152 -0.2483 -0.4036 -0.1794
 3124TIP3    H130931   4.558   5.330   8.134 -0.0650  0.1215  0.1728
 3124TIP3    H230932   4.417   5.284   8.101  0.2859  0.0822 -1.3319
 3125TIP3   OH230933   2.036   1.020   3.106  0.1051 -0.1655  0.4830
 3125TIP3    H130934   1.959   0.975   3.070  0.2666 -0.0327 -0.0303
 3125TIP3    H230935   2.000   1.100   3.144  0.1667  0.6503 -1.1043
 3126TIP3   OH230936   1.160   4.754   0.968 -0.1351  0.0274  0.1611
 3126TIP3    H130937   1.117   4.703   0.899  0.8260 -0.4323 -0.1105
 3126TIP3    H230938   1.114   4.729   1.048  0.9394 -2.0532  0.1909
 3127TIP3   OH230939   1.379   3.798   2.006  0.0556 -0.8834  0.4764
 3127TIP3    H130940   1.345   3.816   2.094  0.0250  0.1075  0.2736
 3127TIP3    H230941   1.305   3.758   1.960 -0.9724  1.3869 -0.0047
 3128TIP3   OH230942   1.058   1.579   2.478  0.1720 -0.3664 -0.0285
 3128TIP3    H130943   1.078   1.502   2.531  0.2920  0.7778  1.6777
 3128TIP3    H230944   0.966   1.568   2.453  0.2835 -1.2119 -0.0926
 3129TIP3   OH230945   5.226   2.383   3.250  0.5325 -0.0134  0.3028
 3129TIP3    H130946   5.209   2.351   3.339 -0.4718  1.7608  0.7914
 3129TIP3    H230947   5.139   2.389   3.211  0.7540  1.3007 -0.0332
 3130TIP3   OH230948   5.804   3.174   2.370 -0.2078  0.1208 -0.6121
 3130TIP3    H130949   5.891   3.163   2.331  0.5680 -0.7575  1.2438
 3130TIP3    H230950   5.757   3.094   2.347  1.0463 -1.5295  2.0348
 3131TIP3   OH230951   3.042   2.319   1.021 -0.2418 -0.1644  0.3265
 3131TIP3    H130952   2.983   2.388   0.992 -0.3751 -0.1787  0.5584
 3131TIP3    H230953   3.118   2.366   1.055 -0.5135 -0.1151  0.8753
 3132TIP3   OH230954   6.256   3.615   1.482  0.4313  0.3402 -0.0913
 3132TIP3    H130955   6.273   3.601   1.575 -0.6926 -0.7259 -0.0262
 3132TIP3    H230956   6.325   3.675   1.454  0.8082  0.6521  1.4137
 3133TIP3   OH230957   2.714   5.195   0.279 -0.1872  0.0079 -0.1032
 3133TIP3    H130958   2.791   5.243   0.310 -0.1052  0.3882 -0.8781
 3133TIP3    H230959   2.748   5.131   0.217 -0.3055 -1.0478  0.8830
 3134TIP3   OH230960   1.465   6.221   3.053 -0.0198  0.0312  0.8475
 3134TIP3    H130961   1.421   6.266   2.981 -1.1065  1.8117  2.5112
 3134TIP3    H230962   1.555   6.254   3.052 -0.1142  0.2768  0.4864
 3135TIP3   OH230963   4.224   6.830   2.278 -0.2305  0.2591 -0.2785
 3135TIP3    H130964   4.251   6.746   2.316 -0.8430 -0.0492 -0.5171
 3135TIP3    H230965   4.306   6.879   2.268  0.0843 -0.1345  0.2716
 3136TIP3   OH230966   1.612   1.801   1.836  0.3510 -0.0595 -0.1277
 3136TIP3    H130967   1.699   1.841   1.833  0.6148 -0.6824 -2.3795
 3136TIP3    H230968   1.593   1.777   1.745 -1.2455 -1.9382  0.6198
 3137TIP3   OH230969   4.170   2.010   3.342  0.5035  0.0741  0.2768
 3137TIP3    H130970   4.212   2.083   3.388  0.5233 -0.3829  1.0027
 3137TIP3    H230971   4.175   1.937   3.404 -1.5251  0.0434  0.4485
 3138TIP3   OH230972   5.899   1.574   1.089  0.6977 -0.5532  0.4526
 3138TIP3    H130973   5.954   1.616   1.023  0.2644 -0.1939  0.3132
 3138TIP3    H230974   5.820   1.629   1.093  0.8444 -0.3930  1.4751
 3139TIP3   OH230975   6.360   2.176   3.597  0.3932  0.1796  0.0230
 3139TIP3    H130976   6.311   2.209   3.673 -1.3885  0.1002 -1.0360
 3139TIP3    H230977   6.439   2.138   3.635 -0.1188  0.7413  1.7816
 3140TIP3   OH230978   2.714   1.632   2.100  0.3887 -0.1827  0.4833
 3140TIP3    H130979   2.712   1.632   2.004  0.4219 -0.2342  0.4829
 3140TIP3    H230980   2.782   1.569   2.123 -0.6416 -1.2952  0.5708
 3141TIP3   OH230981   4.249   6.770   3.577 -0.2237  0.5034 -0.0059
 3141TIP3    H130982   4.323   6.759   3.518  0.0660  1.8097  0.0906
 3141TIP3    H230983   4.288   6.786   3.663 -0.6316  0.6463  0.1554
 3142TIP3   OH230984   6.625   5.889   1.928 -0.1053 -0.2622 -0.4147
 3142TIP3    H130985   6.605   5.940   1.849 -1.2959 -1.4272 -0.9045
 3142TIP3    H230986   6.556   5.822   1.931 -0.8616  0.5086  2.3128
 3143TIP3   OH230987   0.453   3.507   2.841 -0.4928  0.4096 -0.2632
 3143TIP3    H130988   0.495   3.586   2.876  0.7474 -0.5009  0.3886
 3143TIP3    H230989   0.523   3.461   2.794 -1.2968 -0.1180 -0.9780
 3144TIP3   OH230990   2.225   6.187   0.911  0.5034  0.4169 -0.6891
 3144TIP3    H130991   2.180   6.244   0.972  1.3475  2.3470 -1.7840
 3144TIP3    H230992   2.156   6.133   0.872 -0.2928  0.5735  0.4790
 3145TIP3   OH230993   4.586   0.604   0.324  0.1742  0.2202 -0.1828
 3145TIP3    H130994   4.497   0.569   0.318  0.0875  0.3752  0.2361
 3145TIP3    H230995   4.637   0.547   0.266 -0.5381  1.2585 -1.9186
 3146TIP3   OH230996   4.567   3.605   2.439  0.2022  0.1262 -0.2276
 3146TIP3    H130997   4.555   3.530   2.380 -2.0115  1.5815 -1.7515
 3146TIP3    H230998   4.507   3.588   2.512  1.1023 -0.4575  0.3999
 3147TIP3   OH230999   3.999   0.422   1.990 -0.3723  0.1532  0.1329
 3147TIP3    H131000   3.962   0.344   1.948  0.7920 -0.2714 -0.1290
 3147TIP3    H231001   4.045   0.467   1.919 -1.0827  1.1266  0.2705
 3148TIP3   OH231002   5.979   0.582   0.606 -0.7253 -0.6155  0.0893
 3148TIP3    H131003   6.049   0.589   0.671 -0.9995  0.1873  0.3030
 3148TIP3    H231004   6.021   0.601   0.522 -0.8501  0.7202  0.3126
 3149TIP3   OH231005   4.135   4.232   0.863  0.4328 -0.0714  0.4691
 3149TIP3    H131006   4.116   4.313   0.910  0.5413 -0.8407  1.8883
 3149TIP3    H231007   4.225   4.210   0.888  1.1733  0.4382 -1.5589
 3150TIP3   OH231008   0.621   5.237   2.920 -0.4250  0.4145 -0.0985
 3150TIP3    H131009   0.713   5.220   2.897 -0.7550  0.2545 -1.3741
 3150TIP3    H231010   0.571   5.193   2.851 -1.4921 -0.1851  1.0168
 3151TIP3   OH231011   6.550   6.934   3.100 -0.7359  0.0363  0.4248
 3151TIP3    H131012   6.567   6.944   3.007  0.4024  2.1067  0.8099
 3151TIP3    H231013   6.572   6.843   3.119  1.0568  0.1396 -0.9293
 3152TIP3   OH231014   3.775   3.106   0.243 -0.7702  0.2186  0.3145
 3152TIP3    H131015   3.832   3.159   0.299 -1.2618  1.9713 -0.7844
 3152TIP3    H231016   3.797   3.133   0.154 -1.2596 -1.2394 -0.2819
 3153TIP3   OH231017   3.985   1.762   2.386  0.0292  0.0355  0.1654
 3153TIP3    H131018   3.890   1.760   2.396 -0.0257 -0.3565 -0.3956
 3153TIP3    H231019   4.018   1.707   2.457 -0.0755  1.2931  1.2353
 3154TIP3   OH231020   6.486   6.069   0.344  0.6672  0.2394 -0.0921
 3154TIP3    H131021   6.400   6.050   0.381  1.5188  0.0665  1.9547
 3154TIP3    H231022   6.490   6.019   0.263 -1.1473  0.2452 -0.2063
 3155TIP3   OH231023   2.778   4.476   2.068  0.3219 -0.3920  0.1179
 3155TIP3    H131024   2.716   4.442   2.003 -1.6690  1.3224  0.9839
 3155TIP3    H231025   2.854   4.503   2.017 -1.1924  0.9432 -1.5831
 3156TIP3   OH231026   4.581   2.532   4.696  0.1159 -0.5540 -0.1409
 3156TIP3    H131027   4.665   2.486   4.701 -1.5763 -4.0212  0.1001
 3156TIP3    H231028   4.577   2.583   4.777  1.1280 -2.0888  0.9536
 3157TIP3   OH231029   3.606   4.714   8.368  0.3455 -0.2242 -0.6924
 3157TIP3    H131030   3.523   4.725   8.413  0.7351  2.7717 -0.5152
 3157TIP3    H231031   3.640   4.630   8.400 -2.0103 -0.9223  0.1417
 3158TIP3   OH231032   3.794   3.213   3.667 -0.0080  0.5075 -0.2221
 3158TIP3    H131033   3.775   3.307   3.665  0.7220  0.6436 -1.5391
 3158TIP3    H231034   3.833   3.199   3.754  0.1699  1.4736 -0.1288
 3159TIP3   OH231035   4.632   5.013   3.317 -0.3280  0.6006  0.5258
 3159TIP3    H131036   4.646   5.050   3.230 -0.1286  0.0028  0.2959
 3159TIP3    H231037   4.707   5.042   3.368 -0.2335  0.6132  0.3815
 3160TIP3   OH231038   6.158   0.688   1.738 -0.4170  0.2466 -0.0341
 3160TIP3    H131039   6.219   0.632   1.689 -0.4703  1.1350 -1.1373
 3160TIP3    H231040   6.207   0.768   1.754 -1.1793  0.8433 -0.6452
 3161TIP3   OH231041   3.660   4.216   1.924 -0.0722  0.2504 -0.1544
 3161TIP3    H131042   3.636   4.125   1.942  1.1058  0.1280  0.9196
 3161TIP3    H231043   3.695   4.248   2.007  3.0362  0.5138 -1.4198
 3162TIP3   OH231044   0.939   3.129   1.072 -0.1703 -0.3836 -0.1528
 3162TIP3    H131045   0.974   3.045   1.043 -0.8327 -0.1813 -1.6481
 3162TIP3    H231046   0.866   3.146   1.013 -0.0961  1.2200  0.1631
 3163TIP3   OH231047   1.892   1.783   3.569 -0.2650  0.2231 -0.4025
 3163TIP3    H131048   1.900   1.817   3.480  0.9140 -1.8767 -1.1908
 3163TIP3    H231049   1.895   1.860   3.626  0.0204  1.5289 -2.1266
 3164TIP3   OH231050   4.311   1.039   2.135  0.4385  0.3627 -0.8379
 3164TIP3    H131051   4.251   0.990   2.078 -0.2820 -0.1975  0.3706
 3164TIP3    H231052   4.310   0.991   2.218  0.8222  1.6319 -0.0705
 3165TIP3   OH231053   0.453   0.522   1.389  0.0690 -0.3256 -0.6349
 3165TIP3    H131054   0.433   0.599   1.337  1.0104 -0.7183 -1.6372
 3165TIP3    H231055   0.379   0.463   1.375  0.3907 -0.4933 -1.6984
 3166TIP3   OH231056   6.792   3.549   3.500 -0.5044 -0.1343  0.3539
 3166TIP3    H131057   6.756   3.535   3.413  1.1262 -0.6255 -0.2773
 3166TIP3    H231058   6.854   3.622   3.489 -0.5071  0.0093  1.1743
 3167TIP3   OH231059   6.837   6.767   0.956  0.3889 -0.1577  0.1269
 3167TIP3    H131060   6.779   6.844   0.954 -0.0179 -0.4707 -0.3244
 3167TIP3    H231061   6.787   6.701   1.004  1.2823  0.2674  1.7458
 3168TIP3   OH231062   2.351   6.420   7.869  0.2720 -0.2200 -0.2289
 3168TIP3    H131063   2.270   6.392   7.828  0.4980 -1.2917  0.0369
 3168TIP3    H231064   2.328   6.439   7.960  0.0031  1.0485 -0.5471
 3169TIP3   OH231065   1.430   0.150   3.954 -0.1166  0.1081  0.0899
 3169TIP3    H131066   1.368   0.083   3.926 -0.6160  0.1199  1.1134
 3169TIP3    H231067   1.430   0.144   4.049  2.1714 -0.5199  0.0981
 3170TIP3   OH231068   2.453   5.571   1.340  0.5183  0.1505 -0.1144
 3170TIP3    H131069   2.364   5.591   1.310  0.7933 -0.2688 -1.2586
 3170TIP3    H231070   2.464   5.478   1.322  1.4599  0.3702 -0.7399
 3171TIP3   OH231071   6.615   2.134   2.608 -0.0536  0.1682  0.5675
 3171TIP3    H131072   6.527   2.111   2.638 -0.4415 -1.9683 -1.8706
 3171TIP3    H231073   6.600   2.180   2.525  1.0878 -1.6933 -0.7516
 3172TIP3   OH231074   1.493   3.086   3.364 -0.1668  0.0408  0.0279
 3172TIP3    H131075   1.473   3.001   3.326  2.1182 -0.1343 -0.9509
 3172TIP3    H231076   1.570   3.071   3.418 -0.9115  1.1340  1.4640
 3173TIP3   OH231077   3.189   0.494   1.746 -0.2062 -0.3896  0.1918
 3173TIP3    H131078   3.101   0.515   1.716 -0.6600 -0.1185  1.6551
 3173TIP3    H231079   3.245   0.511   1.670 -1.4238 -0.8067 -0.8370
 3174TIP3   OH231080   0.182   2.633   1.492 -0.1570  0.4729  0.5893
 3174TIP3    H131081   0.230   2.716   1.496 -1.0665  1.0595 -0.1894
 3174TIP3    H231082   0.094   2.655   1.524 -0.3921 -0.1909  0.4154
 3175TIP3   OH231083   1.440   4.906   1.724 -0.0363  0.1530  0.2199
 3175TIP3    H131084   1.471   4.828   1.770  1.1536  0.3579 -0.2031
 3175TIP3    H231085   1.484   4.979   1.767 -1.7201  0.7071  1.1174
 3176TIP3   OH231086   5.563   2.668   3.782 -0.6500  0.3881 -0.2020
 3176TIP3    H131087   5.605   2.634   3.704 -0.6467  1.1066 -0.5279
 3176TIP3    H231088   5.484   2.712   3.749 -1.3910 -0.5076  0.3439
 3177TIP3   OH231089   1.258   1.399   3.930 -0.2229 -0.0826  0.0230
 3177TIP3    H131090   1.234   1.453   4.006  1.3052  0.6460  0.0337
 3177TIP3    H231091   1.276   1.313   3.967  0.3544  0.2242  0.4900
 3178TIP3   OH231092   1.680   5.864   1.814 -0.2613  0.2853  0.6982
 3178TIP3    H131093   1.623   5.794   1.846  1.7307 -1.7237  0.0924
 3178TIP3    H231094   1.688   5.848   1.720 -0.5836  1.9963  0.3388
 3179TIP3   OH231095   0.527   1.915   1.313 -0.6157 -0.5174 -0.3198
 3179TIP3    H131096   0.609   1.956   1.339 -1.2593  1.6557 -1.4906
 3179TIP3    H231097   0.480   1.898   1.395  0.2508 -0.1685  0.2564
 3180TIP3   OH231098   6.682   3.432   4.261  0.3838 -0.3907  0.0766
 3180TIP3    H131099   6.757   3.489   4.279  0.5624 -0.3812 -0.6765
 3180TIP3    H231100   6.654   3.457   4.173 -1.2826  0.4708  0.8174
 3181TIP3   OH231101   3.356   1.750   1.198  0.0596  0.1928  0.0493
 3181TIP3    H131102   3.342   1.836   1.159 -1.1611  0.2004  0.4731
 3181TIP3    H231103   3.343   1.688   1.126  1.0979  0.3470 -0.2935
 3182TIP3   OH231104   5.220   6.682   2.892 -0.3764 -1.1164  0.0454
 3182TIP3    H131105   5.238   6.762   2.940  1.5194 -0.4129 -1.7025
 3182TIP3    H231106   5.224   6.613   2.958 -2.2847  0.1684  1.6215
 3183TIP3   OH231107   3.784   6.633   1.739  0.5217 -0.1820  0.3539
 3183TIP3    H131108   3.816   6.580   1.667 -0.0493 -1.7494  1.1994
 3183TIP3    H231109   3.863   6.662   1.785  0.9060  1.2169 -1.1200
 3184TIP3   OH231110   6.806   6.760   8.278  0.3110  0.3954 -0.8476
 3184TIP3    H131111   6.882   6.769   8.335 -0.4826  1.3252  0.1198
 3184TIP3    H231112   6.733   6.747   8.338 -0.5812  1.5750 -1.6313
 3185TIP3   OH231113   1.224   6.033   0.200  0.1421 -0.7561 -0.9521
 3185TIP3    H131114   1.210   6.125   0.225 -1.5023 -1.1199 -0.4386
 3185TIP3    H231115   1.291   6.002   0.261  0.0093 -0.1521 -0.4892
 3186TIP3   OH231116   5.235   3.598   3.315  0.2833 -0.0579  0.4619
 3186TIP3    H131117   5.171   3.532   3.289  0.6933 -0.3098  0.0816
 3186TIP3    H231118   5.294   3.552   3.375 -0.1340  0.2850  1.1467
 3187TIP3   OH231119   1.244   0.722   3.436  0.3214  0.1273  0.2106
 3187TIP3    H131120   1.258   0.761   3.350  0.0130  0.0498  0.1212
 3187TIP3    H231121   1.149   0.712   3.442  0.2508  1.1252  1.0008
 3188TIP3   OH231122   6.316   4.296   1.101  0.4967  0.3291  0.1095
 3188TIP3    H131123   6.269   4.247   1.033  0.5183  0.7336 -0.2070
 3188TIP3    H231124   6.341   4.378   1.057 -0.2735  0.9852  0.8670
 3189TIP3   OH231125   0.976   6.258   2.907 -0.2376 -0.1742  0.2962
 3189TIP3    H131126   0.920   6.333   2.888 -1.1687 -1.1566 -1.0267
 3189TIP3    H231127   0.917   6.183   2.900  1.4399 -1.3805 -2.4953
 3190TIP3   OH231128   2.175   0.124   0.501 -0.2875  0.0824 -0.2758
 3190TIP3    H131129   2.107   0.071   0.458 -0.4578  1.2260 -1.4775
 3190TIP3    H231130   2.252   0.067   0.502 -1.2791 -1.3320  1.3435
 3191TIP3   OH231131   3.924   4.830   3.765  0.8003  0.2440 -0.3334
 3191TIP3    H131132   3.957   4.816   3.676  0.8626 -1.5250 -0.0655
 3191TIP3    H231133   3.844   4.778   3.769  0.9504  0.0848  0.7384
 3192TIP3   OH231134   3.071   5.471   1.760 -0.4441 -0.0823 -0.0666
 3192TIP3    H131135   3.159   5.461   1.796 -0.5177  1.5599  0.6744
 3192TIP3    H231136   3.071   5.557   1.717 -1.8574  0.2646  0.5440
 3193TIP3   OH231137   0.337   0.226   2.484 -0.4318 -0.0810  0.0945
 3193TIP3    H131138   0.250   0.195   2.507  0.1570 -1.1887  0.9101
 3193TIP3    H231139   0.330   0.322   2.489 -1.7986 -0.1146 -0.6766
 3194TIP3   OH231140   5.371   3.999   3.206  0.7372  0.1689 -1.0705
 3194TIP3    H131141   5.394   3.930   3.143  1.4028 -1.2080  0.5959
 3194TIP3    H231142   5.434   3.988   3.278 -0.3477  1.3110  0.1041
 3195TIP3   OH231143   3.096   0.422   0.726  0.3386  0.1992  0.9021
 3195TIP3    H131144   3.114   0.429   0.820 -0.6980  0.7775  1.0719
 3195TIP3    H231145   3.018   0.365   0.721  0.0574  0.6192  0.4326
 3196TIP3   OH231146   5.732   1.045   2.083  0.1677 -0.7346 -0.3337
 3196TIP3    H131147   5.707   0.973   2.025 -0.0086  0.5189 -1.8521
 3196TIP3    H231148   5.826   1.034   2.097  0.1727 -1.1466 -0.6884
 3197TIP3   OH231149   3.739   6.099   2.395 -0.5010  0.0423  0.3111
 3197TIP3    H131150   3.676   6.164   2.364 -2.0432 -2.0777 -1.2839
 3197TIP3    H231151   3.685   6.026   2.426  1.1549 -1.1159  0.5911
 3198TIP3   OH231152   6.222   3.004   3.395 -0.2143  0.1762 -0.1454
 3198TIP3    H131153   6.161   3.054   3.449 -1.3720 -1.3181 -0.0349
 3198TIP3    H231154   6.167   2.955   3.334  0.9897  0.4979 -1.5736
 3199TIP3   OH231155   0.286   0.498   3.949 -0.6786 -0.1155 -0.0011
 3199TIP3    H131156   0.362   0.523   4.001 -0.9243 -0.3734  0.4845
 3199TIP3    H231157   0.211   0.524   4.002 -0.9423  0.5241 -0.6600
 3200TIP3   OH231158   3.108   6.437   2.622  0.1578 -0.0147  0.4321
 3200TIP3    H131159   3.169   6.509   2.639 -0.6026  0.4485  1.3286
 3200TIP3    H231160   3.110   6.386   2.703 -1.3795  0.5822  0.8922
 3201TIP3   OH231161   4.424   6.044   8.010  0.1651 -0.0595  0.3580
 3201TIP3    H131162   4.442   5.969   7.953 -0.4469 -0.5949  0.8437
 3201TIP3    H231163   4.361   6.010   8.074 -1.4555  1.3505 -0.4423
 3202TIP3   OH231164   6.496   6.693   2.782 -1.0135  0.9408 -0.0513
 3202TIP3    H131165   6.404   6.695   2.808 -0.9268 -0.6473  0.4533
 3202TIP3    H231166   6.525   6.784   2.792 -3.1082  2.0472 -2.5440
 3203TIP3   OH231167   2.817   0.538   2.130 -0.5509 -0.2211  0.2666
 3203TIP3    H131168   2.729   0.501   2.143  0.1338 -0.9864  3.9634
 3203TIP3    H231169   2.847   0.500   2.048 -2.8535 -1.6592 -0.0228
 3204TIP3   OH231170   6.076   4.313   3.420 -0.1718 -0.1867  0.3439
 3204TIP3    H131171   6.061   4.324   3.326  1.5825  0.8560  0.1456
 3204TIP3    H231172   6.120   4.229   3.427 -0.6686 -0.4531  0.2748
 3205TIP3   OH231173   2.148   4.576   2.750 -0.1535 -0.5861 -0.2802
 3205TIP3    H131174   2.216   4.563   2.684  1.3474  1.7595  0.6741
 3205TIP3    H231175   2.085   4.635   2.709  0.2608  0.0747  0.0191
 3206TIP3   OH231176   6.241   1.832   3.577  0.6739  0.4969  0.4656
 3206TIP3    H131177   6.191   1.795   3.504 -3.8845  4.9925  0.6907
 3206TIP3    H231178   6.292   1.903   3.537  0.8530  0.7915  1.2018
 3207TIP3   OH231179   4.996   2.717   8.322  0.1401  0.7880  0.3772
 3207TIP3    H131180   5.054   2.662   8.270 -0.0815  1.5173 -0.6907
 3207TIP3    H231181   4.909   2.699   8.288 -0.1250  0.6481  1.1008
 3208TIP3   OH231182   1.365   3.890   2.870  0.3368  0.4529  0.1132
 3208TIP3    H131183   1.362   3.805   2.826 -1.7099  0.9353 -0.8505
 3208TIP3    H231184   1.439   3.935   2.831 -0.7603  0.4440 -2.1537
 3209TIP3   OH231185   1.564   5.223   2.108  0.3284  0.2272  0.1939
 3209TIP3    H131186   1.543   5.130   2.102  0.3812  0.2893 -1.5535
 3209TIP3    H231187   1.537   5.248   2.196  0.1958 -1.4038  0.6523
 3210TIP3   OH231188   6.231   2.755   4.157 -0.2054  0.1831 -0.6897
 3210TIP3    H131189   6.271   2.831   4.200 -2.4414  0.3357  1.3366
 3210TIP3    H231190   6.211   2.695   4.229 -3.2232 -0.0073 -1.5574
 3211TIP3   OH231191   5.572   6.337   3.744 -0.3510  0.1792 -0.3414
 3211TIP3    H131192   5.660   6.374   3.749  1.0846 -3.0654  1.5830
 3211TIP3    H231193   5.566   6.301   3.655  0.5656 -0.1939 -0.2653
 3212TIP3   OH231194   5.540   5.547   8.170  0.5537 -0.3684 -0.7522
 3212TIP3    H131195   5.592   5.482   8.217 -1.3547 -0.4610  1.4662
 3212TIP3    H231196   5.450   5.528   8.197 -0.6077  0.2057 -3.8325
 3213TIP3   OH231197   0.378   4.464   1.762 -0.2346 -0.3304  0.0520
 3213TIP3    H131198   0.381   4.401   1.690 -0.1453  0.5502 -0.7368
 3213TIP3    H231199   0.380   4.549   1.719  0.4761  0.2139  1.1315
 3214TIP3   OH231200   3.446   6.480   1.045 -0.2740  0.7002 -0.0273
 3214TIP3    H131201   3.372   6.519   0.999  0.8981  3.1912  0.0686
 3214TIP3    H231202   3.418   6.477   1.137 -0.7445  0.3367 -0.1761
 3215TIP3   OH231203   3.007   4.737   1.147  0.5872 -0.1137  0.5585
 3215TIP3    H131204   3.091   4.693   1.159  0.4059 -0.0771  2.2002
 3215TIP3    H231205   2.960   4.681   1.085  1.3074 -0.8641  0.6661
 3216TIP3   OH231206   1.807   6.099   1.584  0.0541 -0.7861  0.2292
 3216TIP3    H131207   1.774   6.013   1.558 -1.3967  0.3974 -2.2599
 3216TIP3    H231208   1.740   6.133   1.644 -0.1268 -0.8010  0.0360
 3217TIP3   OH231209   2.553   4.085   2.710  0.0203 -0.0746  0.0666
 3217TIP3    H131210   2.575   4.013   2.769  0.9185 -0.2307 -0.4568
 3217TIP3    H231211   2.616   4.154   2.732  0.0861  0.0226 -0.4314
 3218TIP3   OH231212   1.875   0.605   3.800  0.0990  0.2680  0.0128
 3218TIP3    H131213   1.783   0.628   3.802  0.0930  0.2449  2.3595
 3218TIP3    H231214   1.876   0.511   3.780 -0.4277  0.1326  0.5932
 3219TIP3   OH231215   6.016   6.049   1.678 -0.4715  0.5272  0.3244
 3219TIP3    H131216   6.037   6.143   1.682 -1.0980  0.6350  1.4676
 3219TIP3    H231217   5.998   6.025   1.769 -1.0453 -0.5399 -0.0604
 3220TIP3   OH231218   2.752   2.382   1.831  0.3889  0.1038  0.0686
 3220TIP3    H131219   2.757   2.343   1.918  0.6960  0.5252  0.2431
 3220TIP3    H231220   2.660   2.376   1.807  0.2184  0.4592  0.6415
 3221TIP3   OH231221   0.285   0.991   4.013  0.2851  0.0454 -0.0777
 3221TIP3    H131222   0.332   1.074   4.025  0.6201  0.0283 -1.1615
 3221TIP3    H231223   0.196   1.010   4.043  0.4643  0.6817  0.0651
 3222TIP3   OH231224   4.620   4.905   1.716 -0.0937 -0.1179 -0.0217
 3222TIP3    H131225   4.620   4.997   1.693 -0.1363 -0.0276  0.3317
 3222TIP3    H231226   4.544   4.895   1.774  1.7175  0.2836  2.5607
 3223TIP3   OH231227   1.471   5.465   3.229  0.3464  0.1596 -0.0762
 3223TIP3    H131228   1.498   5.557   3.229 -1.4646  0.7425 -0.5951
 3223TIP3    H231229   1.511   5.429   3.308  1.9459  1.0955 -0.4089
 3224TIP3   OH231230   2.943   2.560   4.111 -0.1216 -0.2566  0.1148
 3224TIP3    H131231   3.031   2.588   4.138 -0.4857  1.4913 -0.4055
 3224TIP3    H231232   2.911   2.508   4.185  0.4763  1.0131  1.3230
 3225TIP3   OH231233   6.663   0.481   3.774  0.4279  0.6808 -0.6527
 3225TIP3    H131234   6.676   0.387   3.760 -2.8094 -0.2360  1.2053
 3225TIP3    H231235   6.715   0.501   3.852  0.5784  0.2544 -0.6410
 3226TIP3   OH231236   0.525   3.928   0.740  0.4427 -0.3208  0.2841
 3226TIP3    H131237   0.561   3.979   0.668  0.9446  0.0077  0.7625
 3226TIP3    H231238   0.487   3.993   0.799 -1.8048 -0.6862 -0.6358
 3227TIP3   OH231239   5.782   1.370   1.235  0.3318  0.1372 -0.4723
 3227TIP3    H131240   5.778   1.291   1.180 -1.5753  1.1894 -1.9638
 3227TIP3    H231241   5.818   1.437   1.178 -1.0050  1.0735 -0.2575
 3228TIP3   OH231242   4.020   4.000   1.482 -0.0976  0.1416  0.2695
 3228TIP3    H131243   4.090   3.978   1.420  1.0117 -0.9180  1.8158
 3228TIP3    H231244   4.053   4.078   1.528  0.2040 -0.5091  1.1755
 3229TIP3   OH231245   4.065   5.941   0.475  0.0116 -0.0322 -0.3036
 3229TIP3    H131246   4.015   5.993   0.538 -1.0799 -1.4797  0.0789
 3229TIP3    H231247   4.116   6.006   0.426 -0.5492  1.2951  0.7990
 3230TIP3   OH231248   6.110   2.891   3.940 -0.2384  0.6828 -0.3339
 3230TIP3    H131249   6.137   2.905   4.030  0.9350  0.0981 -0.5837
 3230TIP3    H231250   6.072   2.803   3.939  0.0058  0.5769 -0.4603
 3231TIP3   OH231251   3.262   2.514   1.790  0.5613 -0.2375  0.2477
 3231TIP3    H131252   3.278   2.522   1.696 -0.1078  0.1948  0.1658
 3231TIP3    H231253   3.170   2.490   1.797  0.5899 -0.2031  0.7980
 3232TIP3   OH231254   0.999   6.792   3.437  0.3651 -0.0632  0.5443
 3232TIP3    H131255   1.052   6.712   3.443 -1.2719 -1.5627 -2.5351
 3232TIP3    H231256   1.061   6.860   3.414  1.5269 -0.8810  1.1440
 3233TIP3   OH231257   4.039   5.230   3.072  0.6545  0.2045  0.3387
 3233TIP3    H131258   4.101   5.295   3.107 -0.3269  1.5640 -0.3413
 3233TIP3    H231259   4.004   5.271   2.993 -0.8533 -0.6720  0.5167
 3234TIP3   OH231260   6.835   1.988   4.051  0.4235  0.1460  0.5558
 3234TIP3    H131261   6.899   2.024   4.113 -1.0286  1.1268  1.5515
 3234TIP3    H231262   6.819   1.899   4.083  2.0655 -0.5410 -0.3710
 3235TIP3   OH231263   0.098   1.308   2.055 -0.4515 -0.0430 -0.7138
 3235TIP3    H131264   0.117   1.359   2.133  0.4040  1.2815 -1.7483
 3235TIP3    H231265   0.182   1.270   2.030 -1.0183 -1.8385 -0.1113
 3236TIP3   OH231266   6.484   0.605   0.132 -0.0383 -0.0525  0.3877
 3236TIP3    H131267   6.567   0.609   0.084 -0.4472  1.0650 -0.2925
 3236TIP3    H231268   6.419   0.585   0.064 -0.1836 -2.4036  1.1440
 3237TIP3   OH231269   4.999   6.906   2.670  0.1293  0.1889 -0.4504
 3237TIP3    H131270   4.951   6.842   2.618 -1.1337 -0.2631  1.2027
 3237TIP3    H231271   4.956   6.906   2.755  0.8300  2.4133 -0.0253
 3238TIP3   OH231272   3.002   4.699   2.987  0.1608  0.1978  0.0637
 3238TIP3    H131273   3.044   4.688   3.073 -0.4035 -0.9569  0.2128
 3238TIP3    H231274   3.017   4.791   2.964  0.8815  0.3542  1.0990
 3239TIP3   OH231275   2.790   5.231   3.029  0.9159  0.8903  0.4241
 3239TIP3    H131276   2.763   5.191   2.947 -2.5045  2.1008  0.7925
 3239TIP3    H231277   2.781   5.325   3.014  1.0963  1.1704  1.8850
 3240TIP3   OH231278   1.541   4.791   1.241  0.3606  0.1699  0.2570
 3240TIP3    H131279   1.554   4.885   1.252 -1.2075  0.2782  1.5841
 3240TIP3    H231280   1.487   4.783   1.162  1.2804  0.3018 -0.3944
 3241TIP3   OH231281   6.027   3.386   1.084 -0.0108 -0.3714  0.0152
 3241TIP3    H131282   6.071   3.471   1.090  0.4834 -0.7202  2.3503
 3241TIP3    H231283   6.002   3.378   0.992 -0.4803  2.4859 -0.1964
 3242TIP3   OH231284   0.907   5.815   0.761  0.5840  0.2747  0.6296
 3242TIP3    H131285   0.842   5.818   0.831  1.0386  1.8875  1.0253
 3242TIP3    H231286   0.889   5.733   0.715 -2.3231  1.0470  0.1747
 3243TIP3   OH231287   2.774   5.195   2.478  0.4057  0.1512 -0.1673
 3243TIP3    H131288   2.762   5.282   2.441  2.4441  0.2271 -0.7479
 3243TIP3    H231289   2.688   5.172   2.514  0.1788  3.0598  1.4558
 3244TIP3   OH231290   1.817   4.315   0.323  0.2962 -0.6894 -0.5177
 3244TIP3    H131291   1.891   4.291   0.267  0.4538  0.7542 -0.9629
 3244TIP3    H231292   1.791   4.402   0.293 -0.9442 -0.7480  0.3040
 3245TIP3   OH231293   3.089   5.085   3.975 -0.0092 -0.4318  0.4035
 3245TIP3    H131294   3.179   5.057   3.989  0.4236  0.0089 -1.2420
 3245TIP3    H231295   3.036   5.017   4.017  1.0713 -1.7554 -0.2891
 3246TIP3   OH231296   5.385   0.591   1.552  0.4149 -0.3930  0.1221
 3246TIP3    H131297   5.325   0.556   1.618  0.6628  1.6358  1.5036
 3246TIP3    H231298   5.451   0.522   1.541 -0.7752 -1.6270  0.4120
 3247TIP3   OH231299   2.966   2.423   0.571 -0.3654  0.2159  0.2356
 3247TIP3    H131300   2.904   2.493   0.590 -0.3787  0.3199 -0.1897
 3247TIP3    H231301   3.024   2.459   0.505 -0.6779 -0.3389 -0.3546
 3248TIP3   OH231302   5.552   0.404   2.485  0.0384  0.1534 -0.1625
 3248TIP3    H131303   5.543   0.496   2.460  0.9398  0.8146  1.7536
 3248TIP3    H231304   5.466   0.381   2.522 -0.3440  0.0681 -1.0915
 3249TIP3   OH231305   3.541   5.806   2.777 -0.1111 -0.4336  0.1361
 3249TIP3    H131306   3.466   5.761   2.738 -1.2846  1.2233  0.3861
 3249TIP3    H231307   3.505   5.888   2.810  1.6194 -0.0813  1.2531
 3250TIP3   OH231308   1.727   2.927   2.110 -0.3974  0.1541  0.1976
 3250TIP3    H131309   1.702   2.837   2.133  1.3246 -0.2569  0.6041
 3250TIP3    H231310   1.822   2.924   2.104 -0.4471  1.2925 -2.6303
 3251TIP3   OH231311   4.056   6.643   3.728  0.0943 -0.1216 -0.0518
 3251TIP3    H131312   4.131   6.650   3.668 -1.4759  3.7368 -1.9107
 3251TIP3    H231313   4.010   6.563   3.700  0.3302  0.6495 -3.0103
 3252TIP3   OH231314   4.113   0.478   3.752  0.1586  0.0495  0.1886
 3252TIP3    H131315   4.193   0.520   3.722  0.1759 -0.5904 -0.6781
 3252TIP3    H231316   4.051   0.487   3.679 -0.0994 -0.6983  0.3061
 3253TIP3   OH231317   5.414   4.175   0.782  0.1728 -0.2243  0.1689
 3253TIP3    H131318   5.443   4.086   0.759  0.4194  0.0391 -0.5707
 3253TIP3    H231319   5.423   4.225   0.701 -1.2540  0.1608  0.2313
 3254TIP3   OH231320   5.863   4.095   0.079 -0.3299 -0.5678  0.0954
 3254TIP3    H131321   5.796   4.027   0.079 -0.1939 -0.7261  1.1922
 3254TIP3    H231322   5.813   4.177   0.078 -0.7123 -0.6221  3.5088
 3255TIP3   OH231323   6.353   3.953   1.023 -0.6314 -0.0692 -0.3051
 3255TIP3    H131324   6.385   4.024   0.968 -3.3742 -1.2102 -3.8378
 3255TIP3    H231325   6.432   3.910   1.055  1.1158  3.2297  0.2759
 3256TIP3   OH231326   5.865   5.822   2.323 -0.0241  0.1133  0.0868
 3256TIP3    H131327   5.825   5.880   2.388  0.6971 -0.2899  0.9204
 3256TIP3    H231328   5.865   5.736   2.365 -0.9287 -0.4801 -1.0646
 3257TIP3   OH231329   0.390   2.104   4.038  0.1999 -0.4748 -0.4422
 3257TIP3    H131330   0.346   2.102   4.123  1.2960 -2.9540  0.1585
 3257TIP3    H231331   0.477   2.136   4.058 -0.2171  1.0974 -1.0496
 3258TIP3   OH231332   6.387   2.887   3.627  0.3832  0.2553 -0.5054
 3258TIP3    H131333   6.340   2.807   3.652  0.8705  0.3058  0.6036
 3258TIP3    H231334   6.356   2.905   3.538 -0.7273 -0.4281 -0.2838
 3259TIP3   OH231335   3.786   3.286   1.100  0.2761  0.2448 -0.1506
 3259TIP3    H131336   3.716   3.350   1.083  0.2770  0.3840  0.3425
 3259TIP3    H231337   3.806   3.249   1.014 -0.5042  0.1011 -0.2778
 3260TIP3   OH231338   1.278   5.768   8.113  0.4008  0.2936  0.6231
 3260TIP3    H131339   1.306   5.833   8.048  2.0982  0.6965  1.6874
 3260TIP3    H231340   1.202   5.807   8.156 -1.0214 -0.1582 -1.3337
 3261TIP3   OH231341   0.091   4.449   4.193 -0.0684  0.1648  0.0910
 3261TIP3    H131342   0.015   4.506   4.208 -1.4172 -1.5036 -0.1945
 3261TIP3    H231343   0.167   4.506   4.210 -1.1863  3.0572 -3.2788
 3262TIP3   OH231344   2.931   0.188   0.524 -0.0410 -0.4472  0.3125
 3262TIP3    H131345   2.914   0.222   0.612 -0.6083 -0.2228  0.1218
 3262TIP3    H231346   2.939   0.266   0.470 -1.2516 -0.6079 -0.1127
 3263TIP3   OH231347   1.179   1.363   0.292 -0.5842  0.4109 -0.4449
 3263TIP3    H131348   1.130   1.356   0.374  1.1197  0.7825  0.6417
 3263TIP3    H231349   1.260   1.407   0.316  1.7080 -2.8396 -1.5646
 3264TIP3   OH231350   0.258   2.614   2.615  1.0534 -0.7776 -0.0939
 3264TIP3    H131351   0.311   2.693   2.623 -0.3747  0.1956  0.2292
 3264TIP3    H231352   0.275   2.566   2.696  1.0839 -0.2289  0.2356
 3265TIP3   OH231353   3.542   0.770   3.675  0.1533  0.0489  0.1119
 3265TIP3    H131354   3.478   0.754   3.605  0.4464  1.0273 -0.3969
 3265TIP3    H231355   3.598   0.693   3.674 -0.6046 -0.5104  0.1094
 3266TIP3   OH231356   2.375   5.521   7.397  0.1026 -0.5425 -0.7906
 3266TIP3    H131357   2.463   5.487   7.412  1.5556  2.3722 -1.8875
 3266TIP3    H231358   2.318   5.463   7.447  2.8778 -1.0193  2.1243
 3267TIP3   OH231359   2.908   1.451   2.454 -0.1264  0.3485  0.7685
 3267TIP3    H131360   2.931   1.524   2.511 -4.2600  4.0280 -1.6080
 3267TIP3    H231361   2.829   1.413   2.494 -0.5283  0.1094 -0.2119
 3268TIP3   OH231362   2.847   4.375   3.218 -0.5761 -0.2640 -0.2670
 3268TIP3    H131363   2.930   4.411   3.188 -0.6280  0.8084  0.7985
 3268TIP3    H231364   2.787   4.450   3.218 -1.3256 -0.8454 -0.2268
 3269TIP3   OH231365   4.561   2.912   1.540 -0.1569  0.3233  0.4417
 3269TIP3    H131366   4.520   2.858   1.607  0.5576  0.8414  1.3105
 3269TIP3    H231367   4.652   2.882   1.537  0.4098  1.8444  1.3673
 3270TIP3   OH231368   1.288   0.048   2.998  0.5765  0.4366  0.2771
 3270TIP3    H131369   1.337   0.110   3.052 -1.4407  0.8898  1.7202
 3270TIP3    H231370   1.210   0.028   3.050 -0.7596 -0.2543 -1.8697
 3271TIP3   OH231371   0.128   5.031   1.796 -0.2669 -0.4663 -0.4521
 3271TIP3    H131372   0.059   5.095   1.818 -0.2382 -0.5747 -0.0388
 3271TIP3    H231373   0.081   4.949   1.783 -0.3313 -0.3228 -1.2142
 3272TIP3   OH231374   0.732   1.065   1.995 -0.3440  0.2228 -0.6268
 3272TIP3    H131375   0.645   1.027   1.982  0.0215 -1.3409  0.9482
 3272TIP3    H231376   0.791   1.006   1.949  0.1522 -0.7060  1.0977
 3273TIP3   OH231377   0.117   6.891   1.071  0.0129  0.3674 -0.1863
 3273TIP3    H131378   0.152   6.882   0.983 -0.9896 -2.4590 -0.3760
 3273TIP3    H231379   0.032   6.847   1.068 -0.7172  1.4807  1.8565
 3274TIP3   OH231380   2.550   5.230   2.795 -0.7347  0.0672 -0.1357
 3274TIP3    H131381   2.496   5.302   2.829 -0.5548 -0.7457  2.0143
 3274TIP3    H231382   2.568   5.255   2.704 -0.4856  2.8314  0.5846
 3275TIP3   OH231383   2.740   0.230   1.529  0.1819 -0.2817 -0.0799
 3275TIP3    H131384   2.768   0.139   1.538  2.5240  0.4771  0.7669
 3275TIP3    H231385   2.771   0.256   1.442  0.5965  0.0657  0.1713
 3276TIP3   OH231386   1.034   4.126   2.367  0.3133  0.0887 -0.0093
 3276TIP3    H131387   0.984   4.207   2.382 -0.7979 -0.6047  0.1231
 3276TIP3    H231388   1.098   4.125   2.438  1.9250  1.9904 -1.2904
 3277TIP3   OH231389   5.406   2.455   1.404 -0.7700  0.2118 -0.1452
 3277TIP3    H131390   5.400   2.361   1.420 -1.0747  0.1787 -0.4458
 3277TIP3    H231391   5.498   2.470   1.384 -0.7684 -0.0608 -0.3480
 3278TIP3   OH231392   1.506   3.135   1.297 -0.0712 -0.1652  0.0235
 3278TIP3    H131393   1.599   3.122   1.318 -0.2021 -0.7706  0.2487
 3278TIP3    H231394   1.495   3.094   1.211  0.0405  0.6143 -0.3705
 3279TIP3   OH231395   1.715   1.393   0.996 -0.1844 -0.2208  0.3757
 3279TIP3    H131396   1.804   1.390   1.031 -0.3583  1.4525  1.0613
 3279TIP3    H231397   1.659   1.401   1.074 -0.7906  0.6108 -0.1296
 3280TIP3   OH231398   4.124   4.787   2.050 -0.5365  0.1541  0.0570
 3280TIP3    H131399   4.191   4.760   1.987 -1.1047 -0.8026 -0.1658
 3280TIP3    H231400   4.051   4.816   1.995 -0.8864 -0.3071  0.2779
 3281TIP3   OH231401   0.761   6.903   2.647 -0.2853  0.2163 -0.6541
 3281TIP3    H131402   0.686   6.854   2.681 -0.6218  0.4563 -1.0415
 3281TIP3    H231403   0.820   6.911   2.722 -0.7667  0.2599 -0.2710
 3282TIP3   OH231404   5.026   3.014   3.626 -0.5128  0.0282  0.2767
 3282TIP3    H131405   5.076   2.943   3.586 -0.7054 -0.2853  0.5867
 3282TIP3    H231406   4.935   2.990   3.613 -0.5784 -0.0655  0.8706
 3283TIP3   OH231407   3.256   6.276   0.745 -0.5386  0.0915  0.5283
 3283TIP3    H131408   3.173   6.246   0.783 -1.0393  0.4863 -0.2042
 3283TIP3    H231409   3.270   6.217   0.671  0.4675 -0.7292  1.3495
 3284TIP3   OH231410   4.863   0.694   2.401  0.5782  1.1066 -0.5352
 3284TIP3    H131411   4.929   0.659   2.461  0.0232  0.7259 -0.1385
 3284TIP3    H231412   4.912   0.718   2.323  0.8208 -2.1961 -1.5623
 3285TIP3   OH231413   3.923   6.863   2.036 -1.0306 -0.0685  0.1721
 3285TIP3    H131414   3.907   6.782   2.085  1.6479 -1.8528 -1.5663
 3285TIP3    H231415   4.006   6.895   2.070 -2.1997  2.2205  1.0302
 3286TIP3   OH231416   4.239   5.938   1.223  0.1058 -0.4257 -0.4635
 3286TIP3    H131417   4.229   6.012   1.283 -2.4121 -2.2169  1.5764
 3286TIP3    H231418   4.206   5.970   1.139  1.6083  1.4909 -0.3956
 3287TIP3   OH231419   0.533   5.911   0.738 -0.6293 -0.1346 -0.1783
 3287TIP3    H131420   0.473   5.940   0.806  1.9364  0.7468  1.8544
 3287TIP3    H231421   0.514   5.969   0.664 -2.3508 -0.0049  0.3079
 3288TIP3   OH231422   0.191   3.884   2.996  1.1122  0.4260  0.0671
 3288TIP3    H131423   0.159   3.918   3.079  0.5309 -0.9757  0.4528
 3288TIP3    H231424   0.156   3.795   2.992  0.3373  0.7708 -2.1194
 3289TIP3   OH231425   1.287   5.472   0.766 -0.4322 -0.0035 -0.1477
 3289TIP3    H131426   1.319   5.419   0.693  0.4332  0.0399  0.1869
 3289TIP3    H231427   1.299   5.417   0.843 -1.8000 -0.2372 -0.0848
 3290TIP3   OH231428   3.929   3.870   3.291 -0.0083 -0.0424  0.4588
 3290TIP3    H131429   3.988   3.929   3.243  0.4821 -0.0596  1.0200
 3290TIP3    H231430   3.849   3.868   3.238  1.1385 -1.4855 -1.3333
 3291TIP3   OH231431   2.957   3.506   3.848 -0.0310 -0.1276 -0.6587
 3291TIP3    H131432   2.896   3.433   3.851  0.6006 -0.6931 -1.2157
 3291TIP3    H231433   2.911   3.578   3.893 -1.0146 -0.5897 -0.8996
 3292TIP3   OH231434   2.511   0.809   2.920 -0.2923  0.4235 -0.4894
 3292TIP3    H131435   2.600   0.830   2.948 -0.8797 -1.1239  3.1508
 3292TIP3    H231436   2.455   0.853   2.985 -1.8600 -3.2461  0.9078
 3293TIP3   OH231437   1.849   5.813   2.902 -0.5674  0.3214  0.0570
 3293TIP3    H131438   1.783   5.780   2.841  0.3988  0.2745 -1.0023
 3293TIP3    H231439   1.799   5.849   2.975 -1.7629  0.3226 -0.7381
 3294TIP3   OH231440   2.792   3.774   0.926  0.4100 -0.7386 -0.2330
 3294TIP3    H131441   2.736   3.759   1.003  1.7412 -0.8167  0.7467
 3294TIP3    H231442   2.733   3.760   0.851 -0.5369 -2.2389  0.7370
 3295TIP3   OH231443   0.859   1.677   1.982 -0.1369 -0.4866 -0.3670
 3295TIP3    H131444   0.834   1.604   2.039 -0.3318 -0.1361  0.0062
 3295TIP3    H231445   0.795   1.676   1.911  1.5824 -2.5023 -2.0171
 3296TIP3   OH231446   0.459   1.213   4.047  0.2858  0.0666 -0.0743
 3296TIP3    H131447   0.415   1.269   4.111  0.7760 -0.1937  0.5010
 3296TIP3    H231448   0.537   1.264   4.022  1.5893 -0.9802  1.6303
 3297TIP3   OH231449   3.617   4.226   1.608 -0.5522 -0.5074  0.0857
 3297TIP3    H131450   3.620   4.199   1.700 -1.7451  1.0012  0.6101
 3297TIP3    H231451   3.528   4.205   1.580 -1.0511  1.4298  0.0903
 3298TIP3   OH231452   5.087   4.461   1.031  0.5558  0.2649  0.0483
 3298TIP3    H131453   5.106   4.515   1.107  1.0340  1.6317 -1.0029
 3298TIP3    H231454   5.024   4.512   0.979  0.1812 -0.6684 -0.4496
 3299TIP3   OH231455   4.201   0.686   8.427 -0.3806  0.2659  0.3707
 3299TIP3    H131456   4.226   0.704   8.518  2.6324 -0.6981 -0.1332
 3299TIP3    H231457   4.274   0.721   8.376  0.3752 -3.3594 -1.3258
 3300TIP3   OH231458   0.133   0.556   1.536  0.1141 -0.1563  0.4224
 3300TIP3    H131459   0.059   0.495   1.537 -0.7782  0.8206 -1.2130
 3300TIP3    H231460   0.105   0.628   1.593  0.7792 -0.8030  1.6047
 3301TIP3   OH231461   3.872   2.170   3.004 -0.2372  0.2266  0.6496
 3301TIP3    H131462   3.885   2.078   2.982  2.0336  0.2273  1.7332
 3301TIP3    H231463   3.872   2.216   2.920 -3.3042 -0.8703 -0.0759
 3302TIP3   OH231464   5.460   2.838   2.866 -0.3116 -0.2404  0.0567
 3302TIP3    H131465   5.506   2.908   2.912 -2.3788  0.4556  1.2135
 3302TIP3    H231466   5.421   2.881   2.790 -0.3051 -0.4740 -0.0784
 3303TIP3   OH231467   2.553   3.907   2.931  0.5891  0.0348 -0.5707
 3303TIP3    H131468   2.463   3.940   2.940  0.4147 -0.8048  1.0825
 3303TIP3    H231469   2.564   3.847   3.004  2.0219 -1.0305 -1.6000
 3304TIP3   OH231470   0.461   6.195   3.952 -0.0947 -0.2970  0.0466
 3304TIP3    H131471   0.401   6.255   3.998  2.7159  1.7177  1.3909
 3304TIP3    H231472   0.453   6.112   3.999 -0.8988  0.3130  1.0361
 3305TIP3   OH231473   2.998   0.595   1.524 -0.0070 -0.3129  0.0078
 3305TIP3    H131474   2.987   0.597   1.429  1.1991  0.1407 -0.1360
 3305TIP3    H231475   2.909   0.592   1.558 -0.4526 -1.5838 -1.1509
 3306TIP3   OH231476   6.376   4.547   0.488  0.0098 -0.5625  0.1718
 3306TIP3    H131477   6.453   4.532   0.433  0.0231 -0.3795  0.1390
 3306TIP3    H231478   6.412   4.580   0.570  0.0184 -1.2627  0.4512
 3307TIP3   OH231479   3.500   6.406   0.490 -0.5370  0.4625 -0.4924
 3307TIP3    H131480   3.465   6.462   0.421  1.8408  1.6360 -0.8269
 3307TIP3    H231481   3.586   6.380   0.459 -0.1372 -0.4661  1.2548
 3308TIP3   OH231482   2.282   5.924   0.610  0.0930  0.9125  0.0205
 3308TIP3    H131483   2.330   5.845   0.632 -0.7751  0.2099 -0.5524
 3308TIP3    H231484   2.194   5.894   0.588  0.0708  1.8759 -1.3928
 3309TIP3   OH231485   5.397   3.749   2.760 -0.0261  0.7392  0.2503
 3309TIP3    H131486   5.423   3.742   2.669  0.4460 -0.3424  0.4565
 3309TIP3    H231487   5.352   3.666   2.779  0.1331  0.8313  1.0774
 3310TIP3   OH231488   1.584   0.070   0.835  0.1760 -0.2549 -0.4197
 3310TIP3    H131489   1.637   0.128   0.781  1.7913 -0.5228  0.8072
 3310TIP3    H231490   1.594  -0.016   0.795 -0.1417 -0.1247 -0.7735
 3311TIP3   OH231491   3.587   0.614   0.809  0.3508  0.5093  0.0069
 3311TIP3    H131492   3.597   0.657   0.894  0.6819 -0.7787  0.6457
 3311TIP3    H231493   3.592   0.686   0.746  1.4955  1.3564  0.9974
 3312TIP3   OH231494   0.768   3.024   2.190  0.7367  0.8118 -0.0818
 3312TIP3    H131495   0.779   3.045   2.097 -0.3483  0.2466 -0.3504
 3312TIP3    H231496   0.696   3.078   2.219 -0.5353 -0.7453 -0.2014
 3313TIP3   OH231497   2.540   1.234   3.112  0.3399  0.2768  0.3398
 3313TIP3    H131498   2.472   1.217   3.046  0.5736 -0.2242  0.2204
 3313TIP3    H231499   2.550   1.329   3.113 -0.9544  0.4381  0.9481
 3314TIP3   OH231500   4.500   2.122   1.229 -0.2907  0.5631  0.1975
 3314TIP3    H131501   4.478   2.163   1.146  1.7916  2.2025  0.3454
 3314TIP3    H231502   4.593   2.098   1.220  0.8199  3.1799  2.7956
 3315TIP3   OH231503   2.182   5.705   3.800 -0.3808  0.0537  0.5324
 3315TIP3    H131504   2.261   5.656   3.777  0.3395  1.0434  0.8137
 3315TIP3    H231505   2.206   5.750   3.881 -1.1689  0.5306  0.5013
 3316TIP3   OH231506   1.912   4.049   0.739 -0.3544  0.4310 -0.4956
 3316TIP3    H131507   1.865   4.092   0.810  2.8754 -0.7492  2.7133
 3316TIP3    H231508   1.909   3.956   0.761  2.1251  0.1797 -0.9057
 3317TIP3   OH231509   5.341   1.040   0.384  0.2314  0.5024 -0.1864
 3317TIP3    H131510   5.309   0.970   0.327  0.6246  1.1319 -1.2075
 3317TIP3    H231511   5.362   0.996   0.466  1.6716 -0.8332 -1.2068
 3318TIP3   OH231512   2.494   4.429   3.990  0.1134  0.4595 -0.4052
 3318TIP3    H131513   2.578   4.395   4.023 -0.6900 -0.7406  0.4993
 3318TIP3    H231514   2.518   4.483   3.915  1.7675  0.8773  0.3730
 3319TIP3   OH231515   0.191   0.110   1.782 -0.0838 -0.2958 -0.1498
 3319TIP3    H131516   0.178   0.082   1.692  0.7353 -1.1620 -0.0142
 3319TIP3    H231517   0.138   0.049   1.834 -1.4579  0.8909 -0.0930
 3320TIP3   OH231518   3.010   1.964   2.670 -0.2273  0.0130  0.3467
 3320TIP3    H131519   2.944   2.024   2.635 -0.8996  0.0554  1.6361
 3320TIP3    H231520   3.049   2.011   2.743  0.3675 -0.4991  0.3662
 3321TIP3   OH231521   4.182   5.005   0.930 -0.0675  0.2348 -0.0937
 3321TIP3    H131522   4.200   5.092   0.893 -0.0834  0.4608  0.4140
 3321TIP3    H231523   4.195   5.016   1.024 -0.8961 -0.1018  0.0717
 3322TIP3   OH231524   5.153   3.840   3.968 -0.6578 -0.3731  0.1428
 3322TIP3    H131525   5.082   3.777   3.972 -0.6261 -0.6242 -2.0699
 3322TIP3    H231526   5.123   3.907   3.906  0.3915  0.3771  0.4065
 3323TIP3   OH231527   4.217   2.496   3.448  0.2751  0.4695 -0.0830
 3323TIP3    H131528   4.191   2.562   3.512 -0.0918 -0.9514  1.2997
 3323TIP3    H231529   4.215   2.542   3.364 -1.4368  1.8215  0.6325
 3324TIP3   OH231530   0.578   1.468   4.082 -0.0611  0.4696  0.1209
 3324TIP3    H131531   0.564   1.512   3.998 -2.2956 -0.0196  0.1923
 3324TIP3    H231532   0.567   1.538   4.147  1.4427  0.8006  0.0520
 3325TIP3   OH231533   2.913   2.169   0.142  0.4427 -0.0973 -0.2466
 3325TIP3    H131534   2.857   2.190   0.216 -0.0238 -2.8274  0.2900
 3325TIP3    H231535   2.874   2.090   0.104  1.2066  0.6887 -2.8637
 3326TIP3   OH231536   4.827   3.273   1.058  0.4288  0.1676  0.0908
 3326TIP3    H131537   4.785   3.339   1.113  0.5659 -2.1536  3.3200
 3326TIP3    H231538   4.911   3.256   1.102  2.2043  0.5927 -2.9057
 3327TIP3   OH231539   1.897   6.802   2.812  0.0665  0.2834 -0.1628
 3327TIP3    H131540   1.902   6.750   2.731  0.1509 -0.4116  0.2867
 3327TIP3    H231541   1.896   6.893   2.781  1.0796  0.0576 -0.8999
 3328TIP3   OH231542   6.049   6.931   0.955 -0.2542  0.2474  0.5375
 3328TIP3    H131543   6.098   7.011   0.971  0.9283 -0.5423  0.9918
 3328TIP3    H231544   6.094   6.864   1.006 -2.2083 -0.3917  1.5168
 3329TIP3   OH231545   6.294   4.681   1.199  0.3870 -0.0799  0.0382
 3329TIP3    H131546   6.296   4.693   1.294 -1.0272 -1.5148  0.2941
 3329TIP3    H231547   6.210   4.720   1.171 -0.1673 -1.4338 -0.2971
 3330TIP3   OH231548   4.338   5.272   8.456  0.3504 -0.2491  0.7402
 3330TIP3    H131549   4.319   5.238   8.369 -1.4060  1.3283  0.4410
 3330TIP3    H231550   4.433   5.263   8.466  0.6309 -0.1329 -1.4923
 3331TIP3   OH231551   6.109   2.953   3.133 -0.5678 -0.4287  0.1840
 3331TIP3    H131552   6.038   2.906   3.088 -1.0775  1.0155 -0.5770
 3331TIP3    H231553   6.143   3.014   3.068 -0.8416  1.2085  1.5170
 3332TIP3   OH231554   0.498   5.869   2.180 -0.2609 -0.1255  0.5459
 3332TIP3    H131555   0.422   5.815   2.201 -0.2749 -0.6754 -0.7844
 3332TIP3    H231556   0.548   5.874   2.262 -0.7782 -1.3212  0.9570
 3333TIP3   OH231557   5.201   1.936   3.088 -0.0061  0.0814 -0.5825
 3333TIP3    H131558   5.131   1.951   3.152  0.3282 -1.3141  0.1548
 3333TIP3    H231559   5.158   1.890   3.017  0.0120 -0.1361 -0.4543
 3334TIP3   OH231560   1.053   3.375   1.065 -0.5758 -0.1082 -0.8423
 3334TIP3    H131561   1.060   3.281   1.082 -0.1892 -0.1947 -1.4261
 3334TIP3    H231562   1.105   3.388   0.986 -1.3244  0.4640 -1.2449
 3335TIP3   OH231563   4.095   0.370   8.046 -0.5679 -0.3179  0.2920
 3335TIP3    H131564   4.183   0.403   8.060 -0.8529  0.2213  0.8857
 3335TIP3    H231565   4.061   0.422   7.974 -0.2774 -0.7891 -0.1963
 3336TIP3   OH231566   2.266   5.254   1.128 -0.0743  0.3415 -0.6215
 3336TIP3    H131567   2.317   5.231   1.205 -0.5610  0.3422 -0.2907
 3336TIP3    H231568   2.238   5.171   1.091 -3.1231  0.2570  1.4396
 3337TIP3   OH231569   6.550   0.179   1.724  0.6190 -0.9368 -0.1471
 3337TIP3    H131570   6.520   0.226   1.646  0.9634 -0.0454  0.2479
 3337TIP3    H231571   6.473   0.177   1.781  0.8642 -0.0235  0.2217
 3338TIP3   OH231572   4.206   3.362   3.142  0.0629  0.2937 -0.1266
 3338TIP3    H131573   4.201   3.441   3.088 -0.0819  0.3865  0.0247
 3338TIP3    H231574   4.244   3.391   3.225  1.2087 -0.0274 -0.5235
 3339TIP3   OH231575   3.809   3.625   3.345 -0.8695  0.0150 -0.1038
 3339TIP3    H131576   3.871   3.698   3.353  0.3948 -1.0206 -0.0185
 3339TIP3    H231577   3.834   3.582   3.264 -0.0426 -1.6600  0.9855
 3340TIP3   OH231578   2.307   2.737   3.393 -0.3876  0.6517  0.7599
 3340TIP3    H131579   2.301   2.810   3.331  2.5574  1.2848  1.0824
 3340TIP3    H231580   2.366   2.768   3.461 -1.2557 -1.0871  2.4013
 3341TIP3   OH231581   0.680   3.438   3.085  0.4526 -0.3394  0.0714
 3341TIP3    H131582   0.610   3.461   3.146  0.4783 -2.0375  0.8025
 3341TIP3    H231583   0.719   3.359   3.123  1.6291 -0.4125 -1.2351
 3342TIP3   OH231584   2.086   5.788   3.113 -0.1919  0.4813  0.6414
 3342TIP3    H131585   2.098   5.699   3.145 -0.7467 -0.0398 -0.5457
 3342TIP3    H231586   2.004   5.786   3.065  0.8531  1.0622 -1.2894
 3343TIP3   OH231587   6.140   3.883   1.768  0.3083 -0.0972 -0.3981
 3343TIP3    H131588   6.117   3.932   1.688 -1.7783  0.0666  0.2507
 3343TIP3    H231589   6.083   3.806   1.766  2.9867 -2.2176 -0.9893
 3344TIP3   OH231590   2.296   1.221   2.274 -0.3066  0.2113  0.5881
 3344TIP3    H131591   2.270   1.155   2.338 -1.5004 -0.5482 -0.6221
 3344TIP3    H231592   2.234   1.211   2.202  1.3792  0.5758 -1.0026
 3345TIP3   OH231593   1.941   0.612   0.554 -0.0156 -0.0912 -0.0054
 3345TIP3    H131594   1.975   0.532   0.593  0.2025 -0.0793 -0.1700
 3345TIP3    H231595   1.854   0.588   0.521 -0.1177 -0.1537  0.3041
 3346TIP3   OH231596   1.695   1.488   3.548 -0.1943  0.2000  0.0969
 3346TIP3    H131597   1.765   1.468   3.609 -0.2655 -0.8366 -0.1420
 3346TIP3    H231598   1.647   1.560   3.589 -0.6767 -0.9389  1.6282
 3347TIP3   OH231599   6.404   6.820   3.482 -0.0843  0.3885 -0.0138
 3347TIP3    H131600   6.388   6.756   3.414 -0.5583  0.4838  0.0011
 3347TIP3    H231601   6.466   6.778   3.541  1.2132  0.7354 -1.0945
 3348TIP3   OH231602   0.313   2.780   0.190 -0.2138  0.8079 -0.1402
 3348TIP3    H131603   0.257   2.833   0.247 -3.3697 -2.0627 -0.2293
 3348TIP3    H231604   0.268   2.780   0.105 -1.1620 -2.8050  0.1934
 3349TIP3   OH231605   5.761   0.709   3.243  0.4508 -0.7679 -0.5098
 3349TIP3    H131606   5.700   0.732   3.173 -0.5304 -0.3006  0.4786
 3349TIP3    H231607   5.747   0.615   3.257  0.5566 -0.8351 -0.8391
 3350TIP3   OH231608   1.028   2.472   0.834 -0.3389  0.1807 -0.3015
 3350TIP3    H131609   0.966   2.504   0.899  0.9824  0.1221  1.0197
 3350TIP3    H231610   1.041   2.380   0.855  1.4398  0.5733  0.5186
 3351TIP3   OH231611   4.001   5.266   2.343  0.0242  0.4634 -0.2595
 3351TIP3    H131612   4.029   5.294   2.430  0.6023 -1.5756  0.2657
 3351TIP3    H231613   4.027   5.338   2.285  1.0724  1.1692  1.0186
 3352TIP3   OH231614   5.331   5.496   1.409 -0.2162 -0.5092 -0.3388
 3352TIP3    H131615   5.266   5.567   1.404 -0.2292 -0.5493 -0.8177
 3352TIP3    H231616   5.354   5.479   1.318  1.4802  0.4429 -0.1452
 3353TIP3   OH231617   0.692   6.151   2.866  0.5356 -0.5388  0.6877
 3353TIP3    H131618   0.700   6.170   2.773 -0.0786  1.7429  1.0329
 3353TIP3    H231619   0.601   6.125   2.878  0.3632  0.0735  0.7610
 3354TIP3   OH231620   3.554   0.326   1.895 -0.4364  0.1889  0.5471
 3354TIP3    H131621   3.640   0.347   1.858 -1.0213 -1.0141 -1.6793
 3354TIP3    H231622   3.572   0.304   1.986  2.0289 -2.1859 -0.3607
 3355TIP3   OH231623   5.336   2.104   0.123 -0.3157  0.4255  0.4742
 3355TIP3    H131624   5.370   2.183   0.083 -0.5879  0.2391 -0.1320
 3355TIP3    H231625   5.397   2.035   0.097 -0.4801  0.3083  0.3955
 3356TIP3   OH231626   0.143   1.208   1.715  1.0281 -0.9125 -0.1771
 3356TIP3    H131627   0.169   1.275   1.652  0.8570 -0.2798  0.4098
 3356TIP3    H231628   0.063   1.242   1.755  1.3113 -1.1454  0.6056
 3357TIP3   OH231629   0.568   5.081   2.711  0.3926 -0.4730 -0.5116
 3357TIP3    H131630   0.538   4.991   2.720 -0.8593 -0.0001  0.2153
 3357TIP3    H231631   0.650   5.074   2.662  0.6308 -2.0486  0.0667
 3358TIP3   OH231632   1.993   6.635   8.405  0.0795  0.1957  0.1218
 3358TIP3    H131633   2.020   6.568   8.342 -0.5613  0.2313 -0.1976
 3358TIP3    H231634   2.055   6.707   8.392  0.0529  0.1360 -0.3482
 3359TIP3   OH231635   4.482   0.648   1.254  0.1325  0.3353  0.3727
 3359TIP3    H131636   4.556   0.614   1.305  1.5211  0.9119 -1.1747
 3359TIP3    H231637   4.452   0.572   1.203  0.6384  0.4517 -0.1066
 3360TIP3   OH231638   3.833   2.930   2.293  0.0714  0.0716  0.2549
 3360TIP3    H131639   3.826   3.023   2.313 -1.1812 -0.6046  3.6471
 3360TIP3    H231640   3.744   2.904   2.268  0.0541 -0.5146  0.9040
 3361TIP3   OH231641   3.734   2.748   0.588  0.5871  0.1554  1.0543
 3361TIP3    H131642   3.746   2.654   0.577 -0.7195  0.1057 -0.3183
 3361TIP3    H231643   3.823   2.784   0.590  1.1159 -0.8192 -1.3703
 3362TIP3   OH231644   1.996   3.961   0.335 -0.0549  0.2206 -0.5807
 3362TIP3    H131645   2.079   3.953   0.382  1.0237  1.6662 -2.1148
 3362TIP3    H231646   1.939   4.010   0.394  0.6821  0.4696 -0.0623
 3363TIP3   OH231647   1.495   5.914   2.313  0.0821  0.1059  0.4601
 3363TIP3    H131648   1.561   5.956   2.368 -0.5381 -0.4884  1.6965
 3363TIP3    H231649   1.518   5.940   2.223  2.6693 -0.9758  0.7168
 3364TIP3   OH231650   5.790   6.246   1.786 -0.0723  0.0475  0.9491
 3364TIP3    H131651   5.852   6.273   1.854 -0.8114  0.4712  1.4554
 3364TIP3    H231652   5.764   6.158   1.811  0.7320 -0.3581  0.4308
 3365TIP3   OH231653   0.016   2.641   3.523 -0.5611  0.1360  0.1535
 3365TIP3    H131654   0.016   2.730   3.487 -0.5611  0.4599  0.9219
 3365TIP3    H231655  -0.037   2.590   3.462  2.0767 -0.1124 -2.0941
 3366TIP3   OH231656   3.779   2.250   1.837 -0.0110 -0.3027 -0.5180
 3366TIP3    H131657   3.754   2.322   1.895  1.9902  0.4933 -0.5634
 3366TIP3    H231658   3.788   2.174   1.896  1.5967  0.3978  0.1982
 3367TIP3   OH231659   1.576   6.400   1.507 -0.3221 -0.3663  0.2479
 3367TIP3    H131660   1.588   6.495   1.516 -0.7441 -0.3316  0.4480
 3367TIP3    H231661   1.554   6.388   1.414  2.7122 -0.5891 -0.5431
 3368TIP3   OH231662   6.346   3.709   1.913 -0.6897 -0.1651  0.8402
 3368TIP3    H131663   6.353   3.737   2.004  0.7080 -1.1389  1.0534
 3368TIP3    H231664   6.277   3.765   1.877 -1.5499 -0.0058  2.5785
 3369TIP3   OH231665   2.250   3.741   0.315  0.1808  0.2653  0.2190
 3369TIP3    H131666   2.162   3.747   0.278 -0.9855  0.1073  2.7398
 3369TIP3    H231667   2.282   3.655   0.287 -0.4767  0.2982 -0.6620
 3370TIP3   OH231668   1.204   3.225   1.394 -0.0087  0.1733  0.3571
 3370TIP3    H131669   1.160   3.146   1.365 -2.5016  2.0133 -1.2829
 3370TIP3    H231670   1.282   3.194   1.441 -0.1946 -3.1585 -1.2878
 3371TIP3   OH231671   5.030   3.247   1.389  0.1412  0.4175  0.2602
 3371TIP3    H131672   5.054   3.222   1.300  0.0731  0.3149  0.2706
 3371TIP3    H231673   4.970   3.178   1.418 -0.3043  0.7659  0.1722
 3372TIP3   OH231674   3.567   6.040   3.773  0.3264  0.2473  0.3787
 3372TIP3    H131675   3.550   6.019   3.865  0.4508 -2.2633 -0.1115
 3372TIP3    H231676   3.481   6.035   3.731  0.3604  0.8189  0.2266
 3373TIP3   OH231677   1.711   1.342   4.211  0.2447  0.1908 -0.3290
 3373TIP3    H131678   1.709   1.256   4.168  1.0697 -0.0548  0.1086
 3373TIP3    H231679   1.760   1.398   4.150  1.2832 -0.1192  0.2017
 3374TIP3   OH231680   3.446   5.181   3.786 -0.2785  0.3387 -0.1508
 3374TIP3    H131681   3.493   5.264   3.798  2.5155 -1.0302 -0.9278
 3374TIP3    H231682   3.510   5.122   3.747 -2.0621 -2.3304  0.6716
 3375TIP3   OH231683   6.757   2.061   2.334  0.2457  0.1811 -0.1078
 3375TIP3    H131684   6.785   2.084   2.246  1.4110 -1.0614 -0.0963
 3375TIP3    H231685   6.674   2.108   2.347  0.3852  0.8743 -1.6094
 3376TIP3   OH231686   2.276   3.409   8.382 -0.1076 -0.2271  0.4566
 3376TIP3    H131687   2.296   3.384   8.292 -0.9787 -1.3343  0.5448
 3376TIP3    H231688   2.362   3.416   8.425  0.2466 -1.3336 -0.0428
 3377TIP3   OH231689   3.663   1.268   1.299 -0.6347 -0.8611 -0.4778
 3377TIP3    H131690   3.696   1.183   1.327 -1.7929 -0.9148  0.8332
 3377TIP3    H231691   3.705   1.330   1.359 -2.1543 -0.8478  0.6300
 3378TIP3   OH231692   4.670   1.146   1.613 -0.2120  0.1532  0.4955
 3378TIP3    H131693   4.740   1.159   1.549  1.4021 -1.4989  1.7855
 3378TIP3    H231694   4.693   1.206   1.685  0.8024 -1.4048  1.5487
 3379TIP3   OH231695   4.765   0.441   0.515 -0.1363  0.4071  0.1244
 3379TIP3    H131696   4.675   0.447   0.486 -0.0239 -1.5994 -0.8291
 3379TIP3    H231697   4.816   0.487   0.448 -0.3336  0.3600 -0.0572
 3380TIP3   OH231698   6.021   4.665   2.785 -0.4865 -0.3341  0.1506
 3380TIP3    H131699   6.095   4.649   2.727 -0.0954 -0.7979  0.7575
 3380TIP3    H231700   5.974   4.581   2.787  0.0738 -0.6382  1.2784
 3381TIP3   OH231701   5.953   5.715   1.680 -0.7615 -0.1775  0.1889
 3381TIP3    H131702   5.921   5.779   1.743  3.4569  1.1826  1.2622
 3381TIP3    H231703   5.902   5.636   1.698 -1.2894  0.8314  3.7836
 3382TIP3   OH231704   1.057   5.145   1.090 -0.3704 -0.6486 -0.0088
 3382TIP3    H131705   0.997   5.093   1.142 -1.1973 -0.9785 -1.2431
 3382TIP3    H231706   1.036   5.236   1.113 -1.1378 -0.7710 -0.1863
 3383TIP3   OH231707   3.983   3.058   1.239  0.3387 -0.2944  0.0883
 3383TIP3    H131708   3.942   3.124   1.182  0.6647  0.1502  0.3581
 3383TIP3    H231709   3.988   2.979   1.185 -0.0133 -0.0859 -0.2573
 3384TIP3   OH231710   0.752   6.844   0.966 -0.2063 -0.9737 -0.9273
 3384TIP3    H131711   0.822   6.782   0.946  1.1978  0.8159 -1.8771
 3384TIP3    H231712   0.684   6.825   0.901 -0.0004 -1.7992 -0.9139
 3385TIP3   OH231713   4.280   2.468   1.790  0.3083  0.2848 -0.2264
 3385TIP3    H131714   4.192   2.431   1.799  0.7242 -0.4601  1.2235
 3385TIP3    H231715   4.330   2.425   1.860  1.6011  1.3398 -0.4762
 3386TIP3   OH231716   4.567   1.378   3.917 -1.0063  0.1854  0.2731
 3386TIP3    H131717   4.567   1.444   3.986 -0.2350  0.8691 -0.3739
 3386TIP3    H231718   4.525   1.301   3.958 -1.2123  0.8096  1.2632
 3387TIP3   OH231719   4.539   2.973   2.412 -0.1953  0.1029 -0.2715
 3387TIP3    H131720   4.576   2.965   2.500 -1.5816 -0.4956  0.2852
 3387TIP3    H231721   4.477   3.046   2.419  0.3109  0.6193 -0.9926
 3388TIP3   OH231722   2.632   5.199   3.454  0.2012 -0.7445  0.4037
 3388TIP3    H131723   2.584   5.117   3.440  0.2919 -0.8865  0.8807
 3388TIP3    H231724   2.611   5.253   3.379 -1.1497 -0.5979  0.8583
 3389TIP3   OH231725   2.028   2.025   1.969 -0.0422 -0.1605  0.2424
 3389TIP3    H131726   1.951   2.024   2.026 -0.6116  1.7981 -0.4103
 3389TIP3    H231727   1.992   2.028   1.880  0.8306 -1.6611 -0.1938
 3390TIP3   OH231728   5.355   0.092   0.613 -0.2872 -0.2049 -0.2120
 3390TIP3    H131729   5.374   0.182   0.586  0.8021  0.0244  1.1984
 3390TIP3    H231730   5.291   0.101   0.683 -2.1625 -0.7176 -1.7923
 3391TIP3   OH231731   0.724   1.886   4.117  0.1079 -0.3695 -0.0284
 3391TIP3    H131732   0.700   1.977   4.101  0.9905  0.0800  1.0510
 3391TIP3    H231733   0.786   1.890   4.190 -0.4087 -1.8977  0.5411
 3392TIP3   OH231734   3.736   4.467   3.042 -0.3835  0.2721 -0.2026
 3392TIP3    H131735   3.776   4.552   3.026  0.4486 -0.2124 -0.8079
 3392TIP3    H231736   3.644   4.478   3.018 -0.1038  0.7779 -1.0699
 3393TIP3   OH231737   5.783   4.686   1.231 -0.7133 -0.4369  0.0124
 3393TIP3    H131738   5.829   4.761   1.269 -0.0085 -0.5983 -0.5002
 3393TIP3    H231739   5.712   4.725   1.180  0.5649  0.0031 -1.5183
 3394TIP3   OH231740   1.833   2.941   2.648  0.1826  0.0209  0.2521
 3394TIP3    H131741   1.844   3.021   2.596  2.4990 -0.9244 -0.8832
 3394TIP3    H231742   1.895   2.951   2.720  0.4936 -0.7068  0.1009
 3395TIP3   OH231743   4.045   4.888   2.956 -0.3296  0.3363  0.0782
 3395TIP3    H131744   4.032   4.884   2.861 -0.5675  0.4132  0.1092
 3395TIP3    H231745   3.957   4.883   2.993 -0.1689 -1.0663  0.3419
 3396TIP3   OH231746   2.410   1.573   0.869 -0.1634  0.5298  0.6993
 3396TIP3    H131747   2.336   1.564   0.809  0.4917 -1.0071  0.0832
 3396TIP3    H231748   2.484   1.598   0.813 -0.2902  2.6351  1.3860
 3397TIP3   OH231749   0.791   0.627   8.165  0.4660  0.3606 -0.5776
 3397TIP3    H131750   0.727   0.697   8.175  1.5184  1.4275 -1.1239
 3397TIP3    H231751   0.851   0.639   8.239 -0.5197 -1.3025  0.5744
 3398TIP3   OH231752   2.599   6.925   3.039 -0.4803 -0.6025  0.4552
 3398TIP3    H131753   2.589   6.838   2.999 -0.2953 -0.2485 -0.3687
 3398TIP3    H231754   2.670   6.966   2.990 -1.0669  0.2970  0.3430
 3399TIP3   OH231755   1.798   3.811   0.628  0.1181 -0.1028  0.0105
 3399TIP3    H131756   1.758   3.898   0.625 -1.1407 -0.6486  0.1296
 3399TIP3    H231757   1.791   3.777   0.539  2.8247  0.8248 -0.6352
 3400TIP3   OH231758   6.352   5.669   1.577 -0.3368 -0.0137  0.0372
 3400TIP3    H131759   6.337   5.574   1.585  0.5561 -0.2079 -0.4606
 3400TIP3    H231760   6.433   5.676   1.527 -1.2197  1.0335 -1.3330
 3401TIP3   OH231761   0.814   5.269   0.587  0.1946  0.5513  0.3139
 3401TIP3    H131762   0.800   5.269   0.493 -0.2935 -0.3879  0.3724
 3401TIP3    H231763   0.743   5.324   0.622  1.3106  2.2193  0.0331
 3402TIP3   OH231764   1.570   5.294   0.320 -0.0000  0.4431  0.2921
 3402TIP3    H131765   1.529   5.280   0.235  2.1091  0.4398 -0.7750
 3402TIP3    H231766   1.611   5.210   0.342 -0.0889  0.5952  1.0867
 3403TIP3   OH231767   5.406   4.550   3.191 -0.4200  0.7195 -0.2584
 3403TIP3    H131768   5.441   4.594   3.113 -0.6133 -1.2760 -1.5487
 3403TIP3    H231769   5.315   4.532   3.169 -0.2386 -0.6692  0.0211
 3404TIP3   OH231770   3.620   5.347   1.638  0.7903 -0.0972  0.4757
 3404TIP3    H131771   3.566   5.295   1.697 -1.1837  0.1469 -1.0278
 3404TIP3    H231772   3.696   5.371   1.691  0.4812 -2.2138  2.0310
 3405TIP3   OH231773   1.115   2.184   0.269 -0.6165  0.0841  0.3340
 3405TIP3    H131774   1.054   2.258   0.270 -1.6601 -0.7269 -0.5092
 3405TIP3    H231775   1.080   2.125   0.203  2.0838  0.3922 -1.5591
 3406TIP3   OH231776   6.099   0.541   0.362 -0.2762 -0.0821 -0.1348
 3406TIP3    H131777   6.066   0.526   0.274 -1.0818 -1.8645  0.4422
 3406TIP3    H231778   6.160   0.469   0.378 -0.0758  0.2666  0.7383
 3407TIP3   OH231779   4.743   6.873   2.794  0.5656 -0.4769  0.2022
 3407TIP3    H131780   4.656   6.833   2.790  1.3481 -2.2799 -0.0113
 3407TIP3    H231781   4.799   6.804   2.830  1.9265  0.6244  0.2884
 3408TIP3   OH231782   6.879   2.182   0.086 -0.6465 -0.5833 -0.5739
 3408TIP3    H131783   6.808   2.196   0.148 -0.0541 -0.5571  0.1203
 3408TIP3    H231784   6.931   2.111   0.124  0.8469  0.7642  0.0120
 3409TIP3   OH231785   0.216   3.820   0.773  0.0842 -0.5282  0.0818
 3409TIP3    H131786   0.309   3.843   0.767  0.3167 -0.7358  2.0696
 3409TIP3    H231787   0.215   3.741   0.827 -1.2242 -0.8276 -0.3445
 3410TIP3   OH231788   0.995   0.178   0.864 -0.5095  0.0805 -0.0003
 3410TIP3    H131789   1.029   0.266   0.880  1.9285 -1.0016  1.2153
 3410TIP3    H231790   0.963   0.149   0.950 -0.6097 -0.4900 -0.2267
 3411TIP3   OH231791   3.910   4.925   4.064 -0.0358  0.3381 -0.3885
 3411TIP3    H131792   3.873   4.933   3.976 -0.4997 -0.4866 -0.2764
 3411TIP3    H231793   3.876   4.842   4.097  0.0950  0.6590  0.5907
 3412TIP3   OH231794   6.524   3.288   2.472 -0.3629  0.4933 -0.5189
 3412TIP3    H131795   6.608   3.247   2.494 -0.5085  0.1565 -0.5898
 3412TIP3    H231796   6.469   3.272   2.549 -1.0846 -1.2506 -1.3521
 3413TIP3   OH231797   0.191   2.799   8.404 -0.2937  0.0227 -0.1590
 3413TIP3    H131798   0.152   2.880   8.437  0.4823  0.0178  0.8102
 3413TIP3    H231799   0.256   2.828   8.340 -0.7881  0.1031 -0.6326
 3414TIP3   OH231800   3.510   5.914   0.562  0.1721  0.2435  0.2489
 3414TIP3    H131801   3.423   5.935   0.596  0.3683 -0.6454  1.3266
 3414TIP3    H231802   3.502   5.928   0.467  0.0530  4.2632  0.6894
 3415TIP3   OH231803   1.928   5.235   4.441  0.0054 -0.1802 -0.1717
 3415TIP3    H131804   1.952   5.324   4.467  0.1660 -0.1300 -0.4829
 3415TIP3    H231805   2.012   5.190   4.431  0.1145  0.4473 -2.8900
 3416TIP3   OH231806   5.702   3.588   1.852  0.3306 -0.3691 -0.8884
 3416TIP3    H131807   5.707   3.493   1.840 -2.3493 -0.5612 -1.1168
 3416TIP3    H231808   5.611   3.604   1.876  0.8723  2.1038 -0.2355
 3417TIP3   OH231809   1.953   0.860   0.657  0.3898  0.5659  0.1434
 3417TIP3    H131810   1.968   0.786   0.598  0.5416  0.3668  0.4302
 3417TIP3    H231811   1.857   0.870   0.659  0.4227  1.2609 -0.9742
 3418TIP3   OH231812   3.395   4.143   1.474 -0.6375 -0.2165  0.1749
 3418TIP3    H131813   3.382   4.230   1.436  0.1443  0.0868  0.5683
 3418TIP3    H231814   3.325   4.089   1.437 -1.1538  0.5893 -0.0422
 3419TIP3   OH231815   2.031   3.052   0.220  0.1722 -0.3469  0.4578
 3419TIP3    H131816   2.077   3.100   0.151  0.0001 -3.4611 -2.0447
 3419TIP3    H231817   1.942   3.087   0.218  0.0142 -0.7750 -1.3901
 3420TIP3   OH231818   5.375   2.953   3.410  0.1316 -0.1267  0.1489
 3420TIP3    H131819   5.464   2.986   3.423 -0.0696  0.6721 -0.5015
 3420TIP3    H231820   5.351   2.917   3.496  1.2871 -0.8710  0.1841
 3421TIP3   OH231821   6.716   0.065   0.928  0.3882 -0.3396  0.1261
 3421TIP3    H131822   6.660   0.052   0.851  0.2798  0.7433  0.0089
 3421TIP3    H231823   6.773   0.137   0.903  0.8600 -0.4781  0.7960
 3422TIP3   OH231824   4.983   4.987   2.217 -0.0041 -0.0499  0.3759
 3422TIP3    H131825   4.982   5.056   2.284 -0.9047 -0.3619  0.7086
 3422TIP3    H231826   5.027   5.026   2.142 -0.6072  0.9410  0.5216
 3423TIP3   OH231827   3.511   3.141   3.418  0.2829 -0.1291  1.3071
 3423TIP3    H131828   3.557   3.225   3.423 -0.5235  0.3985  0.1825
 3423TIP3    H231829   3.563   3.088   3.358 -0.6316  0.5497 -0.1524
 3424TIP3   OH231830   5.984   6.317   2.851  0.5897 -0.3781  0.0721
 3424TIP3    H131831   5.897   6.337   2.815  0.1650 -0.3076  1.0949
 3424TIP3    H231832   6.030   6.272   2.781 -0.4148 -0.7640 -0.3533
 3425TIP3   OH231833   4.542   5.047   1.030 -0.4023 -0.4491  0.1034
 3425TIP3    H131834   4.619   5.099   1.053 -0.8015  0.1559  0.0730
 3425TIP3    H231835   4.468   5.106   1.042 -0.9505 -1.2596  0.9223
 3426TIP3   OH231836   1.566   2.085   1.579  0.2208 -0.5419 -0.1530
 3426TIP3    H131837   1.577   2.108   1.671  3.6403 -0.5952 -0.4139
 3426TIP3    H231838   1.591   2.164   1.531 -1.1443 -0.6365 -1.0775
 3427TIP3   OH231839   1.998   2.915   3.284  0.0229 -0.0293 -0.0879
 3427TIP3    H131840   2.088   2.939   3.263 -0.1344  0.4584 -0.2184
 3427TIP3    H231841   1.954   2.999   3.300  0.7087 -0.2693  4.6731
 3428TIP3   OH231842   3.300   5.667   1.677  0.2126 -0.4807 -0.4747
 3428TIP3    H131843   3.385   5.703   1.651  0.5621 -1.7189 -1.1188
 3428TIP3    H231844   3.318   5.615   1.755 -0.2429  0.4738  0.2921
 3429TIP3   OH231845   5.562   0.071   1.116 -0.0986  0.0313 -0.3611
 3429TIP3    H131846   5.487   0.027   1.075  0.8438 -2.2633  0.2155
 3429TIP3    H231847   5.636   0.013   1.098  0.9727  0.6954  1.6345
 3430TIP3   OH231848   6.281   3.037   2.005  0.2973 -0.5884  0.1420
 3430TIP3    H131849   6.258   3.054   2.096 -1.4797 -0.7636 -0.2359
 3430TIP3    H231850   6.223   3.095   1.955  0.6019 -1.1638 -0.9013
 3431TIP3   OH231851   3.873   2.498   0.164  0.2469  0.7973  0.1346
 3431TIP3    H131852   3.799   2.531   0.215  0.7741  0.1552  1.3560
 3431TIP3    H231853   3.948   2.508   0.222  1.2180  1.8153 -1.2384
 3432TIP3   OH231854   0.990   2.196   0.875 -0.4527  0.1187 -0.0072
 3432TIP3    H131855   1.082   2.174   0.864 -0.3258  1.7361 -3.4732
 3432TIP3    H231856   0.946   2.112   0.892  1.1899 -1.3017 -2.2947
 3433TIP3   OH231857   1.992   1.055   3.421 -0.2322  0.2013 -0.1459
 3433TIP3    H131858   2.046   1.112   3.366 -1.5081  1.1528 -0.4487
 3433TIP3    H231859   1.956   1.113   3.487 -1.0541 -0.3801 -0.0764
 3434TIP3   OH231860   6.524   1.911   4.365 -0.0079 -0.1347 -0.2629
 3434TIP3    H131861   6.489   1.938   4.450 -0.2184  1.5588 -0.8400
 3434TIP3    H231862   6.604   1.963   4.354 -0.8636  0.9647 -1.7809
 3435TIP3   OH231863   2.738   3.926   1.806 -0.0160  0.0287  0.2354
 3435TIP3    H131864   2.658   3.916   1.858  0.6077 -0.5678  1.0915
 3435TIP3    H231865   2.707   3.958   1.721 -1.1896 -0.4473  0.4679
 3436TIP3   OH231866   6.298   1.973   2.363  0.1625  0.1121 -0.4906
 3436TIP3    H131867   6.254   2.035   2.306  1.6561  0.3698 -1.4053
 3436TIP3    H231868   6.273   1.887   2.330  1.3249  0.2583 -1.8286
 3437TIP3   OH231869   5.812   5.853   3.168 -0.1187 -0.0302 -0.2020
 3437TIP3    H131870   5.830   5.932   3.117  0.3423  0.2223  0.3325
 3437TIP3    H231871   5.796   5.886   3.257  0.7137 -0.5738  0.1673
 3438TIP3   OH231872   6.472   3.626   3.429  0.0007 -0.0472  0.3855
 3438TIP3    H131873   6.485   3.544   3.478  2.2150 -0.2237 -0.3909
 3438TIP3    H231874   6.560   3.656   3.408 -0.7786  2.2234  0.0556
 3439TIP3   OH231875   3.888   4.971   2.499  0.4315  0.3807  0.3525
 3439TIP3    H131876   3.803   4.998   2.533 -0.8470 -0.3198 -2.0524
 3439TIP3    H231877   3.922   4.909   2.563 -0.5497  1.1645  1.6639
 3440TIP3   OH231878   3.679   1.323   0.353  0.0853  0.5250 -0.0809
 3440TIP3    H131879   3.663   1.232   0.378 -0.6434  0.6597 -0.0489
 3440TIP3    H231880   3.774   1.328   0.342  0.1233 -0.2622 -0.1686
 3441TIP3   OH231881   4.003   0.147   0.323 -0.2283 -0.5716 -0.1165
 3441TIP3    H131882   4.038   0.182   0.241 -0.7724  0.3779  0.0427
 3441TIP3    H231883   3.985   0.225   0.376 -2.9731 -0.9671 -0.3601
 3442TIP3   OH231884   6.810   1.407   3.219  0.1110 -0.3323 -0.1168
 3442TIP3    H131885   6.819   1.410   3.314  2.8177 -3.1439 -0.1325
 3442TIP3    H231886   6.855   1.485   3.188 -0.8790  0.6614  0.8604
 3443TIP3   OH231887   2.967   5.689   2.561 -0.1974 -0.3598 -0.6018
 3443TIP3    H131888   2.947   5.624   2.494  1.6200 -1.4034 -0.2044
 3443TIP3    H231889   3.049   5.730   2.531 -0.7662  1.0368 -0.3221
 3444TIP3   OH231890   3.770   1.097   3.240  0.4948  0.5505  0.1706
 3444TIP3    H131891   3.785   1.188   3.216 -0.5296  0.7055  0.0457
 3444TIP3    H231892   3.687   1.098   3.288 -0.3734 -0.5078 -1.2078
 3445TIP3   OH231893   6.374   0.871   3.816 -0.1281  0.6234  0.3353
 3445TIP3    H131894   6.308   0.848   3.882  0.2809  2.0921  1.3077
 3445TIP3    H231895   6.405   0.957   3.843  0.5898  0.9332 -1.3897
 3446TIP3   OH231896   0.721   2.590   0.342 -0.5447 -0.2029 -0.5017
 3446TIP3    H131897   0.703   2.526   0.411 -0.3767 -1.2325 -1.3971
 3446TIP3    H231898   0.806   2.627   0.365  0.7178 -2.3378 -1.4432
 3447TIP3   OH231899   0.022   1.924   2.030 -0.1137  0.4534 -0.4608
 3447TIP3    H131900   0.094   1.885   1.980  0.0184 -0.4143  0.3661
 3447TIP3    H231901  -0.043   1.950   1.965  0.0475 -0.6579 -1.0727
 3448TIP3   OH231902   4.290   1.843   2.338 -0.0703 -0.2386  0.6508
 3448TIP3    H131903   4.258   1.753   2.342  0.5496 -0.4337  1.2908
 3448TIP3    H231904   4.306   1.867   2.429  2.4010 -0.4542  0.3212
 3449TIP3   OH231905   4.809   1.637   2.784  0.1967 -0.0846  0.2698
 3449TIP3    H131906   4.848   1.549   2.783  0.2132 -0.0682 -0.5017
 3449TIP3    H231907   4.774   1.649   2.696 -0.9914  0.1513  0.7507
 3450TIP3   OH231908   3.824   3.328   1.812 -0.0143  0.4407  0.7053
 3450TIP3    H131909   3.805   3.409   1.766 -1.2339 -1.5379 -2.6082
 3450TIP3    H231910   3.740   3.301   1.850 -0.0093 -0.0788  0.3574
 3451TIP3   OH231911   3.797   3.951   0.895 -0.0676 -0.2619  0.2602
 3451TIP3    H131912   3.797   3.868   0.848 -0.8027 -0.2315  0.2032
 3451TIP3    H231913   3.785   4.018   0.828  0.7073 -0.0841  0.2825
 3452TIP3   OH231914   3.919   4.654   0.508  0.3678  0.4740 -0.0695
 3452TIP3    H131915   3.948   4.595   0.439  0.7654  0.8667 -0.2430
 3452TIP3    H231916   3.997   4.671   0.560  0.0391  0.0734  0.5635
 3453TIP3   OH231917   5.250   3.346   1.047  0.3552  0.2890  0.2848
 3453TIP3    H131918   5.187   3.415   1.027 -0.4853 -0.7810 -0.9473
 3453TIP3    H231919   5.282   3.368   1.135 -0.3279  1.8894  0.1741
 3454TIP3   OH231920   4.134   6.930   1.813 -0.2457  0.0177  0.1507
 3454TIP3    H131921   4.170   7.010   1.774  2.8425 -1.0669  0.4743
 3454TIP3    H231922   4.144   6.943   1.907 -0.3528 -0.4871  0.2332
 3455TIP3   OH231923   6.689   0.525   8.288  0.0031 -0.2058 -0.3122
 3455TIP3    H131924   6.745   0.538   8.211  1.0997 -1.8064  0.1597
 3455TIP3    H231925   6.600   0.544   8.257  0.7233  1.8696 -1.2194
 3456TIP3   OH231926   4.890   5.315   0.009 -0.3779  0.0756 -0.1395
 3456TIP3    H131927   4.871   5.281   0.096  1.6679 -0.1192  0.2746
 3456TIP3    H231928   4.968   5.268  -0.019  0.6605  2.1168 -0.8764
 3457TIP3   OH231929   1.111   4.647   2.508  0.0239 -0.3824 -0.1477
 3457TIP3    H131930   1.179   4.714   2.511  2.0978 -2.3949  0.8519
 3457TIP3    H231931   1.103   4.617   2.598 -0.2272 -2.0287 -0.6792
 3458TIP3   OH231932   5.422   4.258   1.370 -0.2632  0.7748  0.6712
 3458TIP3    H131933   5.397   4.167   1.355  0.8074  0.3940  1.1145
 3458TIP3    H231934   5.457   4.287   1.285  0.5183  0.3938  0.8615
 3459TIP3   OH231935   6.910   1.638   3.089  0.7171 -0.0946 -0.0245
 3459TIP3    H131936   6.884   1.726   3.117  0.9775  0.1618 -0.5559
 3459TIP3    H231937   7.000   1.650   3.056  0.8901 -0.6328  0.2536
 3460TIP3   OH231938   0.848   2.857   1.698  0.0242  0.3031 -0.2481
 3460TIP3    H131939   0.756   2.842   1.676 -0.0676 -0.4641  0.6134
 3460TIP3    H231940   0.884   2.770   1.712  0.5137  0.6646  0.8626
 3461TIP3   OH231941   0.446   3.688   2.346  0.2292  0.3156 -0.0111
 3461TIP3    H131942   0.425   3.752   2.414 -0.0391 -0.0782  0.2858
 3461TIP3    H231943   0.361   3.658   2.314  0.3271  1.5318 -1.5374
 3462TIP3   OH231944   5.213   3.782   0.024 -0.1521  0.2443  0.5368
 3462TIP3    H131945   5.187   3.745   0.109 -0.2343 -0.3750  0.2431
 3462TIP3    H231946   5.231   3.706  -0.031 -3.7332  0.4496 -1.1927
 3463TIP3   OH231947   4.148   2.684   3.272 -0.7470 -0.2906  0.0171
 3463TIP3    H131948   4.056   2.689   3.246 -0.0876  1.3221 -2.2891
 3463TIP3    H231949   4.188   2.627   3.206 -0.0252 -0.7683  0.8516
 3464TIP3   OH231950   2.299   3.297   8.143 -0.2832 -0.0738  0.3279
 3464TIP3    H131951   2.210   3.291   8.107 -0.8717  1.9709  1.3409
 3464TIP3    H231952   2.355   3.267   8.071 -1.7873 -2.0938 -0.0924
 3465TIP3   OH231953   3.834   1.063   3.919  0.4332 -0.7717  0.6556
 3465TIP3    H131954   3.816   1.050   4.012  1.5069  0.7224  1.1006
 3465TIP3    H231955   3.927   1.041   3.910  1.0582  1.6862  0.5135
 3466TIP3   OH231956   2.368   1.016   3.502  0.3657  0.0141 -0.4369
 3466TIP3    H131957   2.427   1.089   3.520  0.4915  0.3300 -1.9543
 3466TIP3    H231958   2.325   1.040   3.420 -0.8424 -0.8518 -0.0825
 3467TIP3   OH231959   0.554   6.849   2.090  0.1407 -0.4883  0.1479
 3467TIP3    H131960   0.587   6.932   2.123 -0.7292  0.2501 -0.7967
 3467TIP3    H231961   0.628   6.814   2.038 -0.4022  1.0844 -1.8265
 3468TIP3   OH231962   1.644   0.582   0.623 -0.9639 -0.1852  0.6287
 3468TIP3    H131963   1.579   0.513   0.609  1.3718 -2.2308 -0.9026
 3468TIP3    H231964   1.615   0.654   0.567 -0.8405 -1.8604 -1.6875
 3469TIP3   OH231965   1.901   2.108   2.189  0.1771 -0.2584 -0.2827
 3469TIP3    H131966   1.889   2.203   2.192 -1.0807 -0.4206  0.4434
 3469TIP3    H231967   1.949   2.087   2.270 -1.2980 -0.4454  0.5746
 3470TIP3   OH231968   5.982   4.838   2.500 -0.1190 -0.5625 -0.4425
 3470TIP3    H131969   5.948   4.917   2.542 -1.5047 -1.0856 -0.5036
 3470TIP3    H231970   5.993   4.863   2.408  2.7844  0.5428  0.0972
 3471TIP3   OH231971   5.360   5.208   1.962 -0.0486 -0.1880  0.3711
 3471TIP3    H131972   5.406   5.163   2.033 -1.5363 -2.0479  0.2346
 3471TIP3    H231973   5.426   5.218   1.893  1.2024  0.9330  1.6659
 3472TIP3   OH231974   5.664   2.595   1.951 -0.0949 -0.6569  0.1736
 3472TIP3    H131975   5.711   2.583   2.034 -0.5071 -0.0645  0.5055
 3472TIP3    H231976   5.572   2.598   1.977 -0.3183 -1.6465 -0.4477
 3473TIP3   OH231977   0.929   3.945   3.749  0.3536 -0.0480  0.2318
 3473TIP3    H131978   0.998   4.011   3.747  0.4666 -0.1700 -1.1427
 3473TIP3    H231979   0.941   3.895   3.668 -1.3057 -0.0832 -0.0353
 3474TIP3   OH231980   2.958   4.235   3.480 -0.1801 -0.5523 -0.2340
 3474TIP3    H131981   3.037   4.262   3.528 -0.4948 -0.3648  0.1875
 3474TIP3    H231982   2.949   4.301   3.411 -2.1569  1.8288  2.0733
 3475TIP3   OH231983   3.230   2.328   0.590  0.3449  0.2326 -0.2092
 3475TIP3    H131984   3.251   2.407   0.640  0.5757 -0.0455  0.1349
 3475TIP3    H231985   3.139   2.309   0.613  0.0172  0.8675 -0.9337
 3476TIP3   OH231986   4.234   5.266   1.617 -0.5115  0.1362  0.4392
 3476TIP3    H131987   4.277   5.314   1.546  0.3097 -0.8248  0.2702
 3476TIP3    H231988   4.179   5.331   1.660  0.3375  1.1514  0.0212
 3477TIP3   OH231989   6.021   4.024   1.993  0.2131 -0.6584  0.4012
 3477TIP3    H131990   6.080   4.027   2.069  0.3898 -2.3500  0.3708
 3477TIP3    H231991   6.075   3.988   1.923  0.0031  0.7410 -0.5142
 3478TIP3   OH231992   6.872   4.572   2.728  0.3552 -0.0774 -0.3894
 3478TIP3    H131993   6.918   4.555   2.809  1.6248  0.0323 -1.0595
 3478TIP3    H231994   6.891   4.663   2.708 -0.1794 -0.0208 -0.6769
 3479TIP3   OH231995   0.826   2.452   3.608 -0.1154 -0.2780 -0.1478
 3479TIP3    H131996   0.907   2.403   3.625 -0.9381 -1.2563  1.1942
 3479TIP3    H231997   0.756   2.389   3.625 -1.1789  0.6519 -0.9152
 3480TIP3   OH231998   5.170   2.604   0.424  0.4320  0.0728 -0.3625
 3480TIP3    H131999   5.199   2.685   0.382 -0.2856  0.0564 -0.9139
 3480TIP3    H232000   5.189   2.535   0.360 -3.6817  0.3948 -2.2537
 3481TIP3   OH232001   3.932   1.040   3.629  0.6253 -0.4913 -0.7532
 3481TIP3    H132002   3.946   0.966   3.570  0.4116 -1.6428  0.5883
 3481TIP3    H232003   4.004   1.034   3.693 -0.7743 -1.0872  0.8516
 3482TIP3   OH232004   1.121   3.916   0.732  0.2064 -0.0837 -0.0906
 3482TIP3    H132005   1.084   3.911   0.643  2.4117  0.5987 -1.1239
 3482TIP3    H232006   1.111   4.008   0.757 -2.5308 -0.6760  1.4518
 3483TIP3   OH232007   4.155   3.051   0.739  0.1067  0.3972  0.2611
 3483TIP3    H132008   4.208   3.092   0.807  0.9970  1.2240 -0.8780
 3483TIP3    H232009   4.072   3.030   0.781  0.6723  0.8017  1.6049
 3484TIP3   OH232010   0.933   0.205   1.768 -0.0947 -0.3587 -0.0463
 3484TIP3    H132011   0.851   0.175   1.729  0.2393 -0.5646 -0.5971
 3484TIP3    H232012   0.914   0.293   1.799 -0.4869 -0.3548 -0.2973
 3485TIP3   OH232013   2.770   0.232   3.103 -0.3984 -0.0729 -0.1056
 3485TIP3    H132014   2.755   0.168   3.173  2.5827  0.1760  0.9166
 3485TIP3    H232015   2.816   0.182   3.035  1.0237  0.7064  0.2481
 3486TIP3   OH232016   6.517   1.024   2.292 -0.3653  0.6645  0.1386
 3486TIP3    H132017   6.480   1.109   2.317 -2.1908  0.3493 -1.2999
 3486TIP3    H232018   6.452   0.960   2.321  0.1518 -0.1151 -0.3814
 3487TIP3   OH232019   5.296   2.477   3.535 -0.3412 -0.6476  0.5119
 3487TIP3    H132020   5.320   2.548   3.476  1.3825 -2.2962 -0.8886
 3487TIP3    H232021   5.378   2.429   3.550 -1.5171 -2.6271  0.9956
 3488TIP3   OH232022   6.149   6.937   0.576  0.5119  0.0783  0.9688
 3488TIP3    H132023   6.177   6.956   0.486  1.3914 -1.7041  0.8255
 3488TIP3    H232024   6.182   7.010   0.628  0.9462  0.5765  0.0109
 3489TIP3   OH232025   4.850   4.691   1.442  0.5459  0.4372 -0.3992
 3489TIP3    H132026   4.836   4.783   1.462 -0.6917 -0.1357  1.6304
 3489TIP3    H232027   4.764   4.650   1.454  1.4535 -1.2915  0.6588
 3490TIP3   OH232028   0.404   3.073   1.584 -0.3961  0.2945  0.2148
 3490TIP3    H132029   0.496   3.100   1.584  0.6291 -2.8254  1.2611
 3490TIP3    H232030   0.368   3.110   1.665  0.4676  0.0303  0.7334
 3491TIP3   OH232031   6.609   5.654   1.426 -0.0310  0.5417  0.0671
 3491TIP3    H132032   6.667   5.681   1.497 -1.7554  1.0355  1.3712
 3491TIP3    H232033   6.658   5.588   1.378  0.5585 -1.1539  2.8020
 3492TIP3   OH232034   1.328   3.381   1.691 -0.0431 -0.0664  0.0411
 3492TIP3    H132035   1.362   3.297   1.662 -1.4423 -1.3214  1.8249
 3492TIP3    H232036   1.404   3.429   1.723  0.6964 -0.8430 -0.5431
 3493TIP3   OH232037   1.278   0.410   3.043 -0.5804 -0.1379  0.0899
 3493TIP3    H132038   1.280   0.393   2.949 -1.5668 -0.4485  0.1164
 3493TIP3    H232039   1.312   0.330   3.083  0.1700  0.1234 -0.0026
 3494TIP3   OH232040   1.507   2.011   1.037 -1.2671  0.2068  0.4529
 3494TIP3    H132041   1.592   2.034   1.000 -1.2849  0.3581  0.5041
 3494TIP3    H232042   1.525   1.936   1.095 -1.0228  0.7610  1.1084
 3495TIP3   OH232043   4.616   2.274   0.266  0.2402 -0.3562  0.0478
 3495TIP3    H132044   4.662   2.352   0.234 -1.7731  1.6375  1.7066
 3495TIP3    H232045   4.617   2.214   0.191  0.4388  1.9039 -1.9008
 3496TIP3   OH232046   4.070   0.346   2.541 -0.0849  0.3449  0.2725
 3496TIP3    H132047   4.124   0.283   2.588 -1.1299 -1.0339 -0.2718
 3496TIP3    H232048   4.057   0.306   2.454 -1.6699  0.7561  0.2777
 3497TIP3   OH232049   4.614   5.914   1.096  0.1448 -0.0199  0.3173
 3497TIP3    H132050   4.546   5.883   1.036  1.1116 -0.0031 -0.8165
 3497TIP3    H232051   4.596   6.007   1.108 -0.6079 -0.2201  0.8332
 3498TIP3   OH232052   1.991   4.179   0.175  0.1235  0.1837 -0.2377
 3498TIP3    H132053   2.072   4.228   0.161 -0.9352  2.4413  0.8263
 3498TIP3    H232054   2.018   4.100   0.222  1.6836  1.0505  0.4111
 3499TIP3   OH232055   1.582   3.775   2.579  0.0377 -0.1436 -0.6496
 3499TIP3    H132056   1.496   3.742   2.552 -0.9891  0.3074  1.8021
 3499TIP3    H232057   1.618   3.706   2.634 -0.5586  1.2379  1.5831
 3500TIP3   OH232058   0.844   6.698   0.675 -0.7123 -0.4084 -0.1576
 3500TIP3    H132059   0.899   6.707   0.752 -1.1871  0.5054  0.0892
 3500TIP3    H232060   0.802   6.783   0.666  0.8400  0.2034 -2.5969
 3501TIP3   OH232061   4.502   4.396   2.027 -0.2159 -0.0618  0.5822
 3501TIP3    H132062   4.483   4.470   2.084  0.7020  1.3741 -0.8947
 3501TIP3    H232063   4.440   4.403   1.955  0.0763 -0.5467  0.2718
 3502TIP3   OH232064   0.466   0.382   3.109 -0.2000  0.2905  0.9773
 3502TIP3    H132065   0.407   0.307   3.115  1.4057 -0.9421  2.7870
 3502TIP3    H232066   0.435   0.442   3.177 -0.4449  0.4827  0.6984
 3503TIP3   OH232067   0.888   2.155   2.240  0.0657 -0.1136 -0.3109
 3503TIP3    H132068   0.937   2.083   2.200  0.3865 -0.7429  1.1330
 3503TIP3    H232069   0.955   2.222   2.259 -0.4071  1.1430 -2.7585
 3504TIP3   OH232070   5.821   3.983   0.533 -0.2683  0.3681  0.5167
 3504TIP3    H132071   5.863   3.910   0.579 -0.5643  0.4391  0.9056
 3504TIP3    H232072   5.892   4.022   0.481  0.7307  1.8082  2.7811
 3505TIP3   OH232073   1.273   2.150   0.967  0.4946 -0.0639  0.4343
 3505TIP3    H132074   1.224   2.125   1.045 -0.3827  2.0559  0.6221
 3505TIP3    H232075   1.363   2.123   0.985  0.4909  1.1739  2.6061
 3506TIP3   OH232076   2.587   6.581   0.745  0.3684 -0.0382  0.3396
 3506TIP3    H132077   2.625   6.599   0.659 -0.8534 -0.2199 -0.2647
 3506TIP3    H232078   2.607   6.489   0.761  1.2060  0.1742  0.5885
 3507TIP3   OH232079   3.237   6.621   0.948  0.6070 -0.0001 -0.5696
 3507TIP3    H132080   3.165   6.606   1.009  0.9713 -0.8182 -0.3303
 3507TIP3    H232081   3.252   6.716   0.951  1.6577 -0.1825  1.8249
 3508TIP3   OH232082   4.462   2.543   0.663 -0.0493  0.0598 -0.2624
 3508TIP3    H132083   4.500   2.540   0.751  0.1307  0.7862 -0.3092
 3508TIP3    H232084   4.527   2.589   0.610  0.0901 -0.8613 -0.9097
 3509TIP3   OH232085   1.924   1.466   2.746 -0.3509  0.2670 -0.1961
 3509TIP3    H132086   1.930   1.556   2.714  0.6913  0.0579 -0.6176
 3509TIP3    H232087   1.887   1.416   2.673  0.3462  0.1174 -0.4571
 3510TIP3   OH232088   2.992   3.939   3.427 -0.1554 -0.4997 -0.8955
 3510TIP3    H132089   2.949   4.017   3.461 -0.4025 -1.0081 -0.0057
 3510TIP3    H232090   2.993   3.878   3.501  0.9799 -0.9584 -1.2665
 3511TIP3   OH232091   5.076   2.314   1.334 -0.1246  0.3777  0.1106
 3511TIP3    H132092   5.013   2.287   1.402  2.9078 -0.3676  2.8756
 3511TIP3    H232093   5.123   2.234   1.313  1.3690  1.3142 -0.2024
 3512TIP3   OH232094   0.480   2.736   3.180 -0.3976 -0.0144 -0.2652
 3512TIP3    H132095   0.435   2.681   3.116 -1.9815  0.6962  0.2056
 3512TIP3    H232096   0.472   2.825   3.145  0.3388  0.1724  0.0162
 3513TIP3   OH232097   4.242   3.898   1.345  0.7167  0.2412  0.1456
 3513TIP3    H132098   4.332   3.925   1.328  0.7127 -0.2017 -0.6286
 3513TIP3    H232099   4.197   3.912   1.262 -0.7386  3.4795  1.2753
 3514TIP3   OH232100   4.274   3.741   4.341  0.5235  0.0990 -1.1821
 3514TIP3    H132101   4.293   3.811   4.278  0.2196  0.7662 -0.5488
 3514TIP3    H232102   4.360   3.711   4.370  0.6524  0.4095 -1.2393
 3515TIP3   OH232103   4.902   3.176   2.489  0.5817 -0.0245  0.5636
 3515TIP3    H132104   4.946   3.182   2.574  1.9128 -0.5417 -0.0650
 3515TIP3    H232105   4.821   3.227   2.500  0.9319  0.2573  2.0006
 3516TIP3   OH232106   1.651   2.139   0.401 -0.7878 -0.2265  0.5565
 3516TIP3    H132107   1.643   2.117   0.494  0.0112 -1.6828  0.3064
 3516TIP3    H232108   1.561   2.156   0.373 -1.2487 -1.4794  1.2083
 3517TIP3   OH232109   0.247   4.764   1.579  0.3569  0.0115  0.3679
 3517TIP3    H132110   0.294   4.786   1.659 -1.1199 -0.2302  1.3426
 3517TIP3    H232111   0.293   4.811   1.510  2.3755 -0.6806  1.1598
 3518TIP3   OH232112   1.095   4.708   0.382 -0.9040 -0.0162 -0.1860
 3518TIP3    H132113   1.135   4.646   0.321  1.0579  0.0335  0.9868
 3518TIP3    H232114   1.041   4.653   0.440 -0.6981 -0.3861 -0.3445
 3519TIP3   OH232115   3.167   6.202   2.747 -0.4682 -0.2033  0.0283
 3519TIP3    H132116   3.199   6.215   2.658 -0.2920  1.0064  0.2521
 3519TIP3    H232117   3.124   6.116   2.745  0.9400 -0.9231 -0.8077
 3520TIP3   OH232118   6.935   3.337   2.546 -0.2219  0.2525  0.2324
 3520TIP3    H132119   7.001   3.374   2.487  0.0264  0.0157  0.3609
 3520TIP3    H232120   6.886   3.413   2.578  1.9757  0.8044  2.6037
 3521TIP3   OH232121   5.716   3.261   3.964 -0.1848  0.1975 -0.2554
 3521TIP3    H132122   5.634   3.308   3.977  0.6798  1.5783  0.5335
 3521TIP3    H232123   5.776   3.299   4.028  1.3541 -0.0772 -1.4564
 3522TIP3   OH232124   3.338   4.987   2.609 -0.4620 -0.3063 -0.5149
 3522TIP3    H132125   3.363   4.953   2.695 -0.3969 -0.6711 -0.6750
 3522TIP3    H232126   3.279   4.921   2.573  1.0408 -1.1436 -1.5682
 3523TIP3   OH232127   3.282   0.707   1.984  0.0249 -0.1064 -0.2230
 3523TIP3    H132128   3.324   0.623   1.967  0.8801  0.4652 -1.0210
 3523TIP3    H232129   3.284   0.716   2.080 -0.5600 -1.2221 -0.0910
 3524TIP3   OH232130   3.157   3.761   1.913 -0.6950 -0.5707 -0.3670
 3524TIP3    H132131   3.171   3.799   1.826  1.0382  0.6756  0.4200
 3524TIP3    H232132   3.117   3.832   1.964  0.2442 -0.6014  0.4272
 3525TIP3   OH232133   0.655   6.519   0.857  0.0515 -0.1347  0.4581
 3525TIP3    H132134   0.685   6.551   0.772  0.1358  1.9830  1.2091
 3525TIP3    H232135   0.561   6.538   0.858 -0.1926 -1.3038  0.3716
 3526TIP3   OH232136   1.485   3.756   3.304  0.0405  0.5175 -0.1506
 3526TIP3    H132137   1.529   3.738   3.220 -0.3082 -0.6666 -0.0858
 3526TIP3    H232138   1.557   3.765   3.366  0.2550  0.1712 -0.3445
 3527TIP3   OH232139   6.382   5.130   1.711 -0.2676  0.2345  0.2705
 3527TIP3    H132140   6.331   5.049   1.720 -1.8560  1.1742  0.1148
 3527TIP3    H232141   6.375   5.152   1.619  1.8240 -0.4604 -0.0941
 3528TIP3   OH232142   4.727   1.904   1.537  0.1064 -0.4602 -1.1699
 3528TIP3    H132143   4.770   1.982   1.571 -1.5517 -0.1763  0.4731
 3528TIP3    H232144   4.784   1.832   1.564 -0.9012 -0.2053  2.0224
 3529TIP3   OH232145   6.785   1.021   1.887 -0.7322  0.3554 -0.0841
 3529TIP3    H132146   6.816   0.931   1.898  0.2896  0.7937  0.7991
 3529TIP3    H232147   6.773   1.054   1.976  0.3825  1.5605 -0.3468
 3530TIP3   OH232148   3.340   1.612   2.054  0.3631  0.2852 -0.5731
 3530TIP3    H132149   3.335   1.658   1.970 -0.2096  1.4808  0.0905
 3530TIP3    H232150   3.409   1.546   2.041  0.3506  0.5044 -1.9401
 3531TIP3   OH232151   4.995   1.447   2.073  0.0992 -0.6544 -0.1617
 3531TIP3    H132152   5.048   1.481   2.145 -1.7136 -0.4322  1.1533
 3531TIP3    H232153   4.957   1.366   2.108 -1.9833  0.2163 -0.2541
 3532TIP3   OH232154   5.100   0.126   3.257 -0.5067  0.1400  0.0348
 3532TIP3    H132155   5.088   0.138   3.351 -1.3242 -0.2932 -0.0068
 3532TIP3    H232156   5.192   0.147   3.242 -0.6344  1.3110  0.7570
 3533TIP3   OH232157   2.756   6.718   3.671 -0.4389 -0.1617  0.1035
 3533TIP3    H132158   2.845   6.714   3.636  0.0338  1.0127  1.1093
 3533TIP3    H232159   2.711   6.780   3.615 -0.4435 -0.2851 -0.0293
 3534TIP3   OH232160   3.515   0.813   1.507 -0.1569  0.0200 -0.2822
 3534TIP3    H132161   3.484   0.722   1.508  2.7787 -1.1153 -0.8738
 3534TIP3    H232162   3.487   0.847   1.422 -2.8162  0.3852  0.6273
 3535TIP3   OH232163   4.941   6.421   7.944 -0.3366 -0.3427  0.2622
 3535TIP3    H132164   4.867   6.470   7.981 -1.1381 -1.0411 -0.3779
 3535TIP3    H232165   5.012   6.485   7.938 -0.6613  0.1687  1.5492
 3536TIP3   OH232166   2.605   3.979   3.602  0.2167  0.4759 -0.3343
 3536TIP3    H132167   2.669   3.944   3.540  0.4738 -0.4096  0.4049
 3536TIP3    H232168   2.573   4.060   3.561  0.5566  0.0411 -1.4969
 3537TIP3   OH232169   2.645   6.610   2.656 -0.3543 -0.3232  0.4103
 3537TIP3    H132170   2.582   6.576   2.592  0.3158 -0.4923 -0.1724
 3537TIP3    H232171   2.726   6.564   2.636 -0.0003  0.0162  1.0468
 3538TIP3   OH232172   4.688   4.411   3.518  0.4949 -0.2639 -0.0414
 3538TIP3    H132173   4.632   4.399   3.595  0.6927  1.7632  0.4715
 3538TIP3    H232174   4.777   4.404   3.552  0.6242  2.0351  0.2620
 3539TIP3   OH232175   4.401   2.058   2.779 -0.2478 -0.1393 -0.0610
 3539TIP3    H132176   4.415   2.041   2.872  1.8399 -2.1347 -0.6284
 3539TIP3    H232177   4.419   1.974   2.737  0.3835  1.0715 -2.3833
 3540TIP3   OH232178   6.219   6.092   3.569  0.1761  0.3670 -0.0374
 3540TIP3    H132179   6.292   6.071   3.511 -0.3885  0.1655 -0.6934
 3540TIP3    H232180   6.145   6.044   3.532 -0.2404  0.4005  0.7394
 3541TIP3   OH232181   5.986   2.811   2.924 -0.4270  0.1471  0.4016
 3541TIP3    H132182   5.927   2.735   2.916 -1.7928  1.2892 -0.9409
 3541TIP3    H232183   6.021   2.823   2.836  0.5583  0.4992  0.8344
 3542TIP3   OH232184   1.853   6.895   2.271 -0.4872  0.2499 -0.4499
 3542TIP3    H132185   1.792   6.966   2.247 -1.2375 -0.2629 -0.1032
 3542TIP3    H232186   1.823   6.866   2.357  0.5406  0.2858 -0.0698
 3543TIP3   OH232187   1.163   3.348   2.770 -0.6862 -0.0393  0.4703
 3543TIP3    H132188   1.158   3.275   2.832 -0.6383 -1.4240 -1.0771
 3543TIP3    H232189   1.091   3.333   2.709 -1.6377  2.1114  0.9767
 3544TIP3   OH232190   2.714   6.054   3.403 -0.2246  0.3579 -0.7689
 3544TIP3    H132191   2.681   6.108   3.475 -1.0061  1.1829 -1.7009
 3544TIP3    H232192   2.644   6.058   3.337 -0.1748 -1.5807 -0.9995
 3545TIP3   OH232193   6.265   0.152   1.001  0.2599  0.3012 -0.0530
 3545TIP3    H132194   6.295   0.214   0.934  3.0896 -0.9189 -0.0467
 3545TIP3    H232195   6.345   0.114   1.037 -1.2340 -0.6712  2.5711
 3546TIP3   OH232196   6.937   6.167   0.909 -0.5452  0.0619  0.6183
 3546TIP3    H132197   6.935   6.256   0.943 -0.8019  0.0436  0.6473
 3546TIP3    H232198   6.999   6.121   0.965 -1.6928 -0.2299  1.6787
 3547TIP3   OH232199   0.276   0.045   1.247  0.5340 -0.4620 -0.5103
 3547TIP3    H132200   0.198   0.031   1.193  0.1293 -1.2093  0.2359
 3547TIP3    H232201   0.349   0.030   1.188  0.1453  1.0977 -1.4486
 3548TIP3   OH232202   0.743   3.869   2.217  0.3373 -0.4183 -0.1604
 3548TIP3    H132203   0.674   3.933   2.196 -0.6583 -1.6713 -0.8043
 3548TIP3    H232204   0.731   3.799   2.153  2.4699 -0.5121 -0.5301
 3549TIP3   OH232205   0.290   1.976   3.576 -0.5180 -0.4166 -0.2572
 3549TIP3    H132206   0.248   1.908   3.523  0.4891  0.1873 -1.9175
 3549TIP3    H232207   0.298   1.937   3.663  0.6430 -2.7125 -1.3073
 3550TIP3   OH232208   4.155   5.555   3.110 -0.3826  0.2733  0.1854
 3550TIP3    H132209   4.123   5.522   3.194 -2.2544  0.6567 -0.3406
 3550TIP3    H232210   4.127   5.647   3.108  0.5895  0.5728 -0.4120
 3551TIP3   OH232211   1.536   1.115   1.930 -0.0307  0.3675  0.3807
 3551TIP3    H132212   1.557   1.176   2.001 -0.2579  0.6501  0.2053
 3551TIP3    H232213   1.447   1.139   1.904 -0.1266 -0.0490  0.3217
 3552TIP3   OH232214   2.218   6.661   0.354  0.2680 -0.1596 -0.7606
 3552TIP3    H132215   2.248   6.587   0.407 -0.8439  0.0142  0.1531
 3552TIP3    H232216   2.161   6.622   0.288  0.1036 -0.1773 -0.6090
 3553TIP3   OH232217   1.346   6.856   3.590 -0.0246  0.5649 -0.1403
 3553TIP3    H132218   1.359   6.762   3.603  0.3883  0.8231  1.6529
 3553TIP3    H232219   1.299   6.884   3.669 -1.5718  1.6203 -1.3697
 3554TIP3   OH232220   3.667   5.574   2.759 -0.2626  0.2539 -0.1095
 3554TIP3    H132221   3.616   5.651   2.786  1.3508  0.7456  1.7515
 3554TIP3    H232222   3.732   5.562   2.828  1.1689 -1.2795 -1.6098
 3555TIP3   OH232223   1.095   2.041   1.144  0.1104  0.1020 -0.1479
 3555TIP3    H132224   1.048   2.119   1.174 -0.0975  0.2503 -0.8360
 3555TIP3    H232225   1.026   1.981   1.115  0.3078  0.0938 -0.6222
 3556TIP3   OH232226   4.150   1.012   1.078 -0.0656 -0.6320  0.3763
 3556TIP3    H132227   4.069   0.981   1.036 -0.3040 -0.1024  0.4433
 3556TIP3    H232228   4.208   1.033   1.005 -0.8402  1.2606  0.2594
 3557TIP3   OH232229   5.683   4.807   3.899 -0.1914  0.3970 -0.5294
 3557TIP3    H132230   5.607   4.763   3.859 -0.4671 -0.1859  0.5933
 3557TIP3    H232231   5.647   4.885   3.940 -0.1199  0.3008 -0.2860
 3558TIP3   OH232232   3.551   2.791   1.437  0.2476 -0.2133 -0.4121
 3558TIP3    H132233   3.554   2.880   1.471  0.3636 -0.4150  0.1114
 3558TIP3    H232234   3.640   2.758   1.447  0.0308 -0.6577  0.1437
 3559TIP3   OH232235   5.056   3.554   2.343  0.4172 -0.5242  0.0961
 3559TIP3    H132236   5.100   3.484   2.294 -0.4862 -0.7132 -0.4825
 3559TIP3    H232237   5.019   3.611   2.275  1.8671  1.0201  0.5412
 3560TIP3   OH232238   0.013   5.149   4.233 -0.1926  0.3264 -0.3583
 3560TIP3    H132239  -0.039   5.174   4.156 -0.7061 -0.8217 -0.3973
 3560TIP3    H232240   0.104   5.154   4.203 -0.3290  1.1182 -0.6623
 3561TIP3   OH232241   0.069   5.505   3.617 -0.0213  0.3853 -0.2305
 3561TIP3    H132242   0.026   5.584   3.584  1.2641  1.4249  0.4934
 3561TIP3    H232243   0.144   5.492   3.559 -0.0909 -0.1719 -0.1996
 3562TIP3   OH232244   6.067   5.852   3.330 -0.6863  0.6733  0.3173
 3562TIP3    H132245   6.007   5.845   3.256 -1.8997 -1.7768  1.4171
 3562TIP3    H232246   6.020   5.903   3.395 -1.6965 -1.1920  1.1535
 3563TIP3   OH232247   1.026   4.512   2.295 -0.1288  0.0995 -0.1873
 3563TIP3    H132248   1.048   4.421   2.313 -0.3680 -0.0626 -0.6772
 3563TIP3    H232249   1.052   4.560   2.373 -0.2874 -0.4361  0.1965
 3564TIP3   OH232250   4.319   3.574   2.596 -0.4374 -0.1275 -0.2762
 3564TIP3    H132251   4.262   3.604   2.525 -0.7970  1.9724  0.8482
 3564TIP3    H232252   4.260   3.530   2.657 -0.5208  0.1822 -0.1317
 3565TIP3   OH232253   4.042   2.822   1.545 -0.2663  0.0617  0.3681
 3565TIP3    H132254   4.008   2.745   1.498  1.5604 -1.6699  1.7107
 3565TIP3    H232255   4.006   2.813   1.633 -1.8554  2.0617 -0.0047
 3566TIP3   OH232256   4.203   3.686   3.411  0.1844 -0.1486 -0.4619
 3566TIP3    H132257   4.247   3.630   3.346  1.5222 -4.0774  3.3362
 3566TIP3    H232258   4.260   3.763   3.419  0.2596  0.2016 -3.3701
 3567TIP3   OH232259   1.211   5.843   3.581 -0.3334 -0.0518 -0.1694
 3567TIP3    H132260   1.277   5.900   3.541  0.0070  1.2882  2.1410
 3567TIP3    H232261   1.259   5.792   3.646 -1.1123 -1.1969 -0.4407
 3568TIP3   OH232262   5.964   1.751   2.595 -0.7377  0.4199 -0.6520
 3568TIP3    H132263   6.015   1.671   2.582 -0.1362  0.4766  1.0321
 3568TIP3    H232264   6.030   1.821   2.594 -1.1641  0.8145 -1.3700
 3569TIP3   OH232265   5.481   5.465   1.639 -0.3417 -0.3110  0.2093
 3569TIP3    H132266   5.430   5.536   1.677 -0.5425 -1.0491  1.3572
 3569TIP3    H232267   5.433   5.442   1.559 -0.2523  0.8431 -0.1947
 3570TIP3   OH232268   1.288   0.290   2.800 -0.5043 -0.0536  0.4780
 3570TIP3    H132269   1.353   0.311   2.733  0.3801  1.6668  1.8003
 3570TIP3    H232270   1.269   0.197   2.787  0.2657  0.0150 -1.5791
 3571TIP3   OH232271   0.025   0.376   1.786  0.3849  0.2603  0.2875
 3571TIP3    H132272  -0.023   0.364   1.704 -1.4332 -1.2491  1.4649
 3571TIP3    H232273   0.116   0.355   1.764  0.2499  1.4749 -1.6490
 3572TIP3   OH232274   5.499   6.850   3.002 -0.3267  0.4908  0.5519
 3572TIP3    H132275   5.414   6.894   2.995 -0.5540  0.5564  2.9239
 3572TIP3    H232276   5.545   6.896   3.072  0.8185 -0.8645  0.7402
 3573TIP3   OH232277   1.098   3.615   1.642  0.3808 -0.5686  0.1566
 3573TIP3    H132278   1.006   3.594   1.628  0.4380 -0.1959 -0.8542
 3573TIP3    H232279   1.138   3.532   1.669 -0.2278 -0.7442  0.5358
 3574TIP3   OH232280   5.146   0.173   0.787  0.4696 -0.1688 -0.4576
 3574TIP3    H132281   5.210   0.231   0.828  1.2754  0.4545 -2.4777
 3574TIP3    H232282   5.087   0.232   0.739 -0.3386 -0.8667 -0.3357
 3575TIP3   OH232283   6.547   5.582   3.225  0.2864  0.3559  0.6733
 3575TIP3    H132284   6.642   5.587   3.239 -0.0935  0.6699  3.9833
 3575TIP3    H232285   6.519   5.509   3.280 -1.2090 -1.3182 -2.0868
 3576TIP3   OH232286   2.579   2.504   0.863 -0.1583  0.0675  0.3110
 3576TIP3    H132287   2.623   2.443   0.804  0.1232  0.9221 -0.3781
 3576TIP3    H232288   2.619   2.487   0.948  1.3174  0.6192 -0.2419
 3577TIP3   OH232289   4.871   5.069   3.458  0.1358 -0.4923  0.1671
 3577TIP3    H132290   4.888   5.103   3.546 -0.0053  1.2954 -0.4653
 3577TIP3    H232291   4.943   5.102   3.405  0.3573 -1.7768 -0.3568
 3578TIP3   OH232292   3.488   0.300   4.026 -0.5825  0.1460 -0.2247
 3578TIP3    H132293   3.514   0.370   3.967 -1.7038  0.8952  0.1260
 3578TIP3    H232294   3.483   0.342   4.112  1.0540 -0.9255  0.4541
 3579TIP3   OH232295   4.947   3.834   1.833  0.0170 -0.7393  0.0868
 3579TIP3    H132296   4.900   3.780   1.770  0.3981 -0.6196 -0.3026
 3579TIP3    H232297   4.913   3.922   1.820 -1.1993 -0.9935  1.2805
 3580TIP3   OH232298   3.164   3.768   3.045  0.2610 -0.3109 -0.1756
 3580TIP3    H132299   3.220   3.835   3.005 -0.1537  0.9749  1.2906
 3580TIP3    H232300   3.215   3.736   3.119 -0.0365 -0.7592 -0.1630
 3581TIP3   OH232301   4.150   1.512   0.038  0.1020 -0.4959  0.2368
 3581TIP3    H132302   4.133   1.601   0.009 -0.2878 -0.7510 -0.3508
 3581TIP3    H232303   4.220   1.520   0.102  0.4422  0.1716 -0.2089
 3582TIP3   OH232304   6.224   0.022   2.969  0.2036  0.7331  0.2625
 3582TIP3    H132305   6.205  -0.026   3.050  3.2574  1.4010  1.5134
 3582TIP3    H232306   6.243   0.111   2.998 -1.5217  1.7870 -1.5989
 3583TIP3   OH232307   3.179   2.422   3.188  0.3940 -0.3574 -0.0109
 3583TIP3    H132308   3.210   2.384   3.270  1.5040  0.7621  0.1217
 3583TIP3    H232309   3.257   2.464   3.150 -0.2079 -0.4325 -1.3962
 3584TIP3   OH232310   4.250   5.073   2.872 -0.0125 -0.1242 -0.5134
 3584TIP3    H132311   4.179   5.054   2.934 -0.3518  1.5936 -0.3316
 3584TIP3    H232312   4.206   5.090   2.789  0.0784  1.6928 -0.2274
 3585TIP3   OH232313   6.668   2.970   1.258 -0.5298  0.1862  0.7257
 3585TIP3    H132314   6.606   2.934   1.321  0.6767 -2.5177  0.5131
 3585TIP3    H232315   6.614   3.008   1.189 -1.9649 -1.8896  0.6432
 3586TIP3   OH232316   1.941   1.172   3.671 -0.5685  0.0502 -0.0917
 3586TIP3    H132317   1.847   1.179   3.689 -0.8286 -0.2138 -1.2942
 3586TIP3    H232318   1.978   1.141   3.753 -1.7524 -1.4321 -0.0703
 3587TIP3   OH232319   2.883   6.706   0.723 -1.1336 -0.3406  0.0661
 3587TIP3    H132320   2.959   6.764   0.732 -1.2774  0.1550 -1.6696
 3587TIP3    H232321   2.823   6.736   0.792  0.1470 -0.6332  1.3518
 3588TIP3   OH232322   4.721   1.602   0.951  0.4495  0.1058 -0.1480
 3588TIP3    H132323   4.809   1.634   0.971  0.0791  0.5552  0.8730
 3588TIP3    H232324   4.675   1.678   0.917 -0.1251  0.4372  1.2845
 3589TIP3   OH232325   2.938   1.120   2.244 -0.2053 -0.4395  0.6946
 3589TIP3    H132326   3.020   1.085   2.281  0.8233  1.5524  0.4572
 3589TIP3    H232327   2.879   1.125   2.319  0.6292  0.0944  1.3451
 3590TIP3   OH232328   3.468   6.920   1.465 -0.1606  0.0504  0.1883
 3590TIP3    H132329   3.377   6.894   1.458 -0.2299  0.3001  0.1655
 3590TIP3    H232330   3.502   6.869   1.539 -0.4598  0.3622  0.5393
 3591TIP3   OH232331   2.229   3.911   3.469 -0.7442  0.1581 -0.7570
 3591TIP3    H132332   2.245   3.905   3.374  0.6375  1.7114 -0.6780
 3591TIP3    H232333   2.278   3.838   3.506 -2.8293 -1.6202 -1.3277
 3592TIP3   OH232334   6.830   3.033   0.892  0.4076 -0.3890  0.3654
 3592TIP3    H132335   6.773   2.974   0.844  0.3520  0.3415 -0.4889
 3592TIP3    H232336   6.918   3.010   0.864  0.3932 -0.1612  0.1230
 3593TIP3   OH232337   1.839   1.275   3.940 -1.0980 -0.2584  0.2194
 3593TIP3    H132338   1.926   1.247   3.967 -0.5486  1.3496  0.2538
 3593TIP3    H232339   1.805   1.203   3.888 -0.3819 -1.5648  1.5023
 3594TIP3   OH232340   6.063   3.447   0.212 -0.1067  0.0452 -0.4387
 3594TIP3    H132341   5.971   3.436   0.234  0.0943 -0.3802  0.2152
 3594TIP3    H232342   6.107   3.460   0.296  0.4152  0.3583 -0.7508
 3595TIP3   OH232343   5.033   1.548   3.141  0.5597  0.3100  0.5011
 3595TIP3    H132344   5.034   1.595   3.058  0.0505  0.7765  0.7494
 3595TIP3    H232345   5.064   1.612   3.206 -0.7187  0.5231  0.9356
 3596TIP3   OH232346   3.054   2.842   4.065 -0.1557  0.1574  0.3234
 3596TIP3    H132347   3.076   2.822   3.974 -0.9291  1.4387 -0.1653
 3596TIP3    H232348   3.124   2.900   4.095  0.0197 -0.1447  0.5034
 3597TIP3   OH232349   1.975   3.423   2.515  0.3533  0.0814  0.1124
 3597TIP3    H132350   1.956   3.460   2.429 -1.0136 -1.1587 -0.1737
 3597TIP3    H232351   2.067   3.397   2.510 -0.1707 -1.7100 -1.7141
 3598TIP3   OH232352   5.940   6.840   0.716  0.7159 -0.0398 -0.3299
 3598TIP3    H132353   6.013   6.869   0.661  1.9639 -2.0581  0.1854
 3598TIP3    H232354   5.971   6.853   0.806 -0.1204  0.3799 -0.0938
 3599TIP3   OH232355   1.412   1.067   2.679 -0.1570  0.7983  0.1667
 3599TIP3    H132356   1.387   0.994   2.735  1.4821  0.3698  0.3970
 3599TIP3    H232357   1.379   1.043   2.592  0.2497 -0.1673  0.2642
 3600TIP3   OH232358   6.607   5.159   3.174 -0.0232 -0.1294 -0.0888
 3600TIP3    H132359   6.635   5.071   3.201  2.0636  0.9289  1.4673
 3600TIP3    H232360   6.646   5.171   3.088 -0.6087 -0.8408 -0.4618
 3601TIP3   OH232361   1.581   0.207   2.927  1.1446  0.2315  0.0164
 3601TIP3    H132362   1.630   0.229   2.848 -0.6618  3.8124 -0.3266
 3601TIP3    H232363   1.648   0.178   2.990  3.0734  0.6698 -1.7315
 3602TIP3   OH232364   2.753   6.231   1.052 -0.4177  0.0967  0.4231
 3602TIP3    H132365   2.737   6.202   1.142 -0.0133 -0.0870  0.4371
 3602TIP3    H232366   2.750   6.151   1.000  0.7792  0.0074  0.4702
 3603TIP3   OH232367   3.320   1.098   0.502 -0.1940 -0.5071 -0.1535
 3603TIP3    H132368   3.324   1.064   0.591 -1.3925  0.6254  0.3712
 3603TIP3    H232369   3.361   1.030   0.449 -0.1916 -1.5790  1.1512
 3604TIP3   OH232370   0.473   6.340   1.663 -0.3147 -0.3379  0.1454
 3604TIP3    H132371   0.467   6.281   1.738  0.0479 -2.1075 -1.1539
 3604TIP3    H232372   0.409   6.409   1.681 -1.6088 -1.7544  1.1960
 3605TIP3   OH232373   4.477   1.266   0.134  0.2283  0.0563  0.0636
 3605TIP3    H132374   4.558   1.295   0.091  0.0847  0.3223 -0.0234
 3605TIP3    H232375   4.430   1.346   0.155  0.1251 -0.0861  0.3913
 3606TIP3   OH232376   1.604   2.809   3.986  0.4589 -0.1209 -0.0499
 3606TIP3    H132377   1.653   2.891   3.996 -0.3949  0.4636 -0.4793
 3606TIP3    H232378   1.670   2.744   3.965  1.3687  0.1073  1.8496
 3607TIP3   OH232379   2.147   3.802   4.272  0.3131 -0.2165  0.3239
 3607TIP3    H132380   2.110   3.740   4.335 -1.7125  2.1438  1.6388
 3607TIP3    H232381   2.072   3.851   4.240  1.8655  1.9140 -0.2557
 3608TIP3   OH232382   5.091   1.457   4.562  0.1241 -0.0976  0.2927
 3608TIP3    H132383   5.023   1.449   4.628  0.0126  1.7416  0.4407
 3608TIP3    H232384   5.067   1.392   4.495 -0.1166 -1.5265  1.6898
 3609TIP3   OH232385   2.922   0.630   1.242  0.3490 -0.4234  0.2382
 3609TIP3    H132386   2.850   0.627   1.179 -0.6815 -1.7187  1.4120
 3609TIP3    H232387   2.962   0.716   1.228 -0.6585 -0.1455 -1.2653
 3610TIP3   OH232388   3.599   4.851   3.972 -0.1086 -0.4934 -0.2810
 3610TIP3    H132389   3.594   4.889   3.885 -0.0222 -0.0301 -0.0887
 3610TIP3    H232390   3.639   4.920   4.026  2.1291 -1.6273 -0.3740
 3611TIP3   OH232391   1.872   0.663   2.469  0.0155 -0.4042 -0.2054
 3611TIP3    H132392   1.804   0.690   2.531 -0.6067  0.6021 -1.2720
 3611TIP3    H232393   1.898   0.745   2.426 -0.4692 -1.2210 -2.1417
 3612TIP3   OH232394   0.056   0.538   2.233 -0.0733 -0.1664 -0.5245
 3612TIP3    H132395   0.139   0.501   2.204  0.3866  0.5612 -0.1468
 3612TIP3    H232396   0.010   0.562   2.153  0.0626 -0.5926 -0.7319
 3613TIP3   OH232397   2.370   5.773   2.721 -0.3325  0.3120  0.3677
 3613TIP3    H132398   2.447   5.724   2.691  0.0646  1.0390  0.1902
 3613TIP3    H232399   2.297   5.735   2.671  0.2401  1.1440 -1.1523
 3614TIP3   OH232400   2.283   2.512   1.611  0.1123  0.3380 -0.7999
 3614TIP3    H132401   2.212   2.499   1.548 -0.3844  0.2016 -0.2132
 3614TIP3    H232402   2.328   2.590   1.579 -0.4174  0.5396 -1.0725
 3615TIP3   OH232403   6.914   5.020   3.364 -0.0422 -0.2420 -0.5699
 3615TIP3    H132404   6.945   5.073   3.292  0.3334 -1.2530 -1.1674
 3615TIP3    H232405   6.849   5.076   3.409  1.3059  1.2139 -0.3507
 3616TIP3   OH232406   0.714   6.768   2.411  0.7756  0.2164 -0.2414
 3616TIP3    H132407   0.647   6.828   2.380 -2.3055 -2.8488 -0.1440
 3616TIP3    H232408   0.762   6.817   2.478 -1.8151  2.3740  0.1885
 3617TIP3   OH232409   6.304   6.471   3.570 -0.2688  0.7842 -0.3656
 3617TIP3    H132410   6.339   6.473   3.659 -0.3863 -0.3402 -0.2797
 3617TIP3    H232411   6.242   6.398   3.570  1.4590 -0.7978 -1.9927
 3618TIP3   OH232412   5.614   3.690   1.418  0.3665 -0.1132 -0.0636
 3618TIP3    H132413   5.528   3.722   1.443  0.2109  0.4903 -1.2637
 3618TIP3    H232414   5.608   3.595   1.427 -0.4000 -0.0715 -0.0559
 3619TIP3   OH232415   1.020   2.592   3.798 -0.6328  0.5141  0.2673
 3619TIP3    H132416   1.096   2.534   3.790 -0.6964  0.4823 -0.1096
 3619TIP3    H232417   0.953   2.551   3.745 -0.6780  0.9331 -0.0038
 3620TIP3   OH232418   0.931   0.641   1.052 -0.2240  0.9082  0.6546
 3620TIP3    H132419   0.939   0.736   1.064  0.9468  1.3276 -2.5234
 3620TIP3    H232420   0.869   0.632   0.979 -1.1585 -0.8645  1.6167
 3621TIP3   OH232421   3.416   5.644   2.463  0.7896  0.0907  0.3014
 3621TIP3    H132422   3.464   5.602   2.392 -0.3990 -1.6121  0.4575
 3621TIP3    H232423   3.446   5.600   2.543 -0.4982 -0.5189  0.4673
 3622TIP3   OH232424   2.846   5.402   8.379  0.0648 -0.2384  0.3065
 3622TIP3    H132425   2.815   5.437   8.462  1.6402  0.1767  0.7540
 3622TIP3    H232426   2.867   5.480   8.326  2.8799 -0.4001  1.0378
 3623TIP3   OH232427   5.048   1.761   0.523 -0.4021  0.2284  0.5692
 3623TIP3    H132428   4.989   1.704   0.573 -0.5352  0.8853  1.1878
 3623TIP3    H232429   5.092   1.703   0.461 -1.9102 -0.2437 -0.1126
 3624TIP3   OH232430   4.170   1.633   2.570  0.2578  0.8235 -0.1520
 3624TIP3    H132431   4.180   1.679   2.654  1.0062  0.9873 -0.3235
 3624TIP3    H232432   4.225   1.555   2.578 -0.9624 -0.0306  0.1131
 3625TIP3   OH232433   2.392   2.045   1.018  0.1131 -0.2306  0.1042
 3625TIP3    H132434   2.478   2.087   1.013  0.2477 -0.4880  0.2678
 3625TIP3    H232435   2.349   2.068   0.935  0.3685 -0.1676 -0.0106
 3626TIP3   OH232436   2.743   3.244   1.350  0.3064 -0.3507  0.0190
 3626TIP3    H132437   2.717   3.317   1.407  0.9216  0.2752 -0.4822
 3626TIP3    H232438   2.663   3.219   1.305 -0.0906 -0.5468  0.8242
 3627TIP3   OH232439   2.527   2.173   3.519 -0.1554 -0.0596  0.4747
 3627TIP3    H132440   2.593   2.187   3.587  0.6626  0.5794 -0.4281
 3627TIP3    H232441   2.488   2.260   3.505  1.4215  0.3868 -1.5944
 3628TIP3   OH232442   5.868   3.131   3.718 -0.5328 -0.4118  1.0869
 3628TIP3    H132443   5.879   3.036   3.716  0.4083 -0.3062  0.7703
 3628TIP3    H232444   5.773   3.144   3.726 -0.5933 -1.3743  2.2610
 3629TIP3   OH232445   4.176   6.040   2.902  0.4395 -0.5159 -0.0700
 3629TIP3    H132446   4.095   6.089   2.913  1.6278  1.3426  0.8987
 3629TIP3    H232447   4.169   5.999   2.816 -1.4949 -0.3724 -0.0088
 3630TIP3   OH232448   1.417   6.391   0.892  0.3713 -0.5975  0.2364
 3630TIP3    H132449   1.377   6.347   0.967  0.9098  1.0961  1.5758
 3630TIP3    H232450   1.511   6.389   0.911  0.7085 -1.7574 -1.3319
 3631TIP3   OH232451   4.193   2.734   1.903 -0.0294 -0.4601 -0.3675
 3631TIP3    H132452   4.225   2.823   1.888  1.3062 -0.7628  0.5213
 3631TIP3    H232453   4.259   2.677   1.864  0.9611 -1.1129  2.0665
 3632TIP3   OH232454   4.301   3.099   2.676 -0.9658  0.1186 -0.3861
 3632TIP3    H132455   4.334   3.025   2.727  2.4560  0.7374 -1.4606
 3632TIP3    H232456   4.245   3.147   2.737 -1.3084 -1.9897  1.0810
 3633TIP3   OH232457   3.147   3.166   0.618 -0.1912  0.2620 -0.4731
 3633TIP3    H132458   3.134   3.241   0.676  0.2791 -0.6587  0.8947
 3633TIP3    H232459   3.062   3.123   0.613 -0.1922  0.2443 -0.3070
 3634TIP3   OH232460   1.404   0.676   1.831 -0.7059  0.4014 -0.0914
 3634TIP3    H132461   1.449   0.753   1.796 -0.8871 -0.4122 -2.2502
 3634TIP3    H232462   1.473   0.623   1.871 -0.1022  0.2806 -1.2736
 3635TIP3   OH232463   0.123   5.713   8.418 -0.1241  0.6736  0.2865
 3635TIP3    H132464   0.061   5.771   8.375  0.5987  1.8396  0.7618
 3635TIP3    H232465   0.154   5.763   8.494  0.6297 -0.2754  0.6287
 3636TIP3   OH232466   0.402   1.323   1.894  0.3165 -0.1978  0.1042
 3636TIP3    H132467   0.353   1.268   1.833 -0.0134 -1.5100  1.5142
 3636TIP3    H232468   0.461   1.263   1.939 -0.2857  0.5147  1.9116
 3637TIP3   OH232469   1.928   2.662   3.332 -0.0606  0.6156  0.8317
 3637TIP3    H132470   1.962   2.751   3.322 -0.5278  0.6188 -1.3221
 3637TIP3    H232471   1.834   2.671   3.315  0.2593 -0.6001 -2.1214
 3638TIP3   OH232472   3.775   2.151   2.375  0.5223 -0.5634 -0.0918
 3638TIP3    H132473   3.687   2.122   2.351  0.5567  1.0854 -2.4558
 3638TIP3    H232474   3.831   2.076   2.354 -0.3941 -2.4692  3.4220
 3639TIP3   OH232475   1.223   6.274   8.121  0.2520  0.3372  0.0465
 3639TIP3    H132476   1.209   6.298   8.212  0.5817  1.9632 -0.3040
 3639TIP3    H232477   1.223   6.357   8.074 -0.7225 -0.5248 -1.5651
 3640TIP3   OH232478   6.448   3.496   2.287 -0.2034 -0.0785 -0.2072
 3640TIP3    H132479   6.476   3.418   2.333  2.2643 -1.1376 -3.1683
 3640TIP3    H232480   6.393   3.463   2.215  1.6460  0.6958 -2.0723
 3641TIP3   OH232481   3.021   2.995   2.432  0.1142 -0.6313  0.1497
 3641TIP3    H132482   2.974   2.913   2.418 -1.1336  0.1786 -0.5239
 3641TIP3    H232483   3.076   3.004   2.354 -1.1880  0.1099 -0.7102
 3642TIP3   OH232484   1.293   4.811   0.551 -0.3975 -0.0152 -0.2074
 3642TIP3    H132485   1.269   4.892   0.597  0.9985  1.1381 -1.4315
 3642TIP3    H232486   1.232   4.806   0.478 -1.0560 -0.5755  0.3596
 3643TIP3   OH232487   2.408   5.542   3.749 -0.0903  0.1734  0.1342
 3643TIP3    H132488   2.372   5.457   3.776  0.5949 -2.3515 -5.3229
 3643TIP3    H232489   2.500   5.538   3.775 -0.2912 -0.3523  0.7898
 3644TIP3   OH232490   0.386   4.647   0.329  0.5211  0.4766 -0.4382
 3644TIP3    H132491   0.294   4.652   0.353  1.2485 -0.0052  3.0476
 3644TIP3    H232492   0.387   4.598   0.247 -2.2693 -0.7872  0.1597
 3645TIP3   OH232493   5.131   2.503   0.870 -0.4429 -0.1440  0.1168
 3645TIP3    H132494   5.140   2.573   0.934  0.6368  0.2554 -0.4308
 3645TIP3    H232495   5.207   2.515   0.812  0.7869 -2.8170  1.0357
 3646TIP3   OH232496   5.634   5.327   2.743  0.5490  0.1833 -0.1903
 3646TIP3    H132497   5.630   5.383   2.821  2.2682 -0.4544  0.4169
 3646TIP3    H232498   5.724   5.339   2.710  0.6982 -1.5613 -0.5279
 3647TIP3   OH232499   1.041   2.247   0.575  0.3052 -0.1015 -0.0118
 3647TIP3    H132500   1.131   2.250   0.610 -0.0797  3.1470  0.9615
 3647TIP3    H232501   1.047   2.291   0.490 -0.1031 -1.4799 -0.7826
 3648TIP3   OH232502   2.747   5.015   0.555 -0.4684  0.6256  0.0860
 3648TIP3    H132503   2.830   5.009   0.507  0.1379  1.2246  1.0162
 3648TIP3    H232504   2.720   4.924   0.569 -0.7788  0.4458 -1.5603
 3649TIP3   OH232505   0.198   5.655   0.936 -0.0834  0.0858 -0.3728
 3649TIP3    H132506   0.271   5.628   0.880  1.7658 -0.4456  2.1594
 3649TIP3    H232507   0.166   5.735   0.895  1.0194 -0.3911 -2.3122
 3650TIP3   OH232508   6.687   4.972   8.431  0.2872 -0.4732  0.4329
 3650TIP3    H132509   6.628   5.014   8.494  0.0403  1.0846 -0.7816
 3650TIP3    H232510   6.773   5.012   8.449  0.6309 -1.4511  1.0358
 3651TIP3   OH232511   4.103   4.850   3.536  0.1219 -0.0672 -0.0087
 3651TIP3    H132512   4.094   4.931   3.588 -2.3742 -0.3133  0.0675
 3651TIP3    H232513   4.103   4.880   3.445 -0.8537  0.0540  0.0173
 3652TIP3   OH232514   2.779   2.639   0.639  0.1663 -0.0740 -0.0197
 3652TIP3    H132515   2.791   2.681   0.553 -0.3253  0.2100  0.0445
 3652TIP3    H232516   2.704   2.581   0.626  0.0079  0.0687  0.2516
 3653TIP3   OH232517   6.629   4.807   4.074 -0.0832 -0.3077 -0.6925
 3653TIP3    H132518   6.623   4.771   4.163  0.4694  0.6622 -0.2362
 3653TIP3    H232519   6.597   4.897   4.083 -1.3514 -0.6114 -1.7777
 3654TIP3   OH232520   1.965   3.264   0.726 -0.4127 -0.3467 -0.1439
 3654TIP3    H132521   1.960   3.296   0.635 -0.0468 -0.1893 -0.1109
 3654TIP3    H232522   1.879   3.226   0.742 -0.5284 -0.2535 -0.5137
 3655TIP3   OH232523   6.153   6.113   0.739  0.2535  0.3904 -0.1990
 3655TIP3    H132524   6.086   6.181   0.726  0.2659  0.8812  1.9408
 3655TIP3    H232525   6.236   6.159   0.728  0.2590  0.2553 -0.7487
 3656TIP3   OH232526   5.676   3.111   0.660 -0.4543 -0.2927 -0.4928
 3656TIP3    H132527   5.671   3.090   0.753 -1.6052 -1.2865 -0.7604
 3656TIP3    H232528   5.586   3.106   0.629  0.0052 -0.8519 -1.8319
 3657TIP3   OH232529   4.572   4.653   1.381 -0.3495  0.3869  0.1930
 3657TIP3    H132530   4.571   4.566   1.341  2.2058  0.3890  0.0084
 3657TIP3    H232531   4.507   4.702   1.331 -3.8777 -1.9896  1.9813
 3658TIP3   OH232532   2.612   5.757   8.362  0.7354 -0.1317 -0.7626
 3658TIP3    H132533   2.690   5.703   8.378 -0.2068 -1.4013 -0.3278
 3658TIP3    H232534   2.596   5.749   8.268 -1.1523 -3.1937 -0.3062
 3659TIP3   OH232535   2.906   4.733   3.425  0.1810 -0.1469  0.2008
 3659TIP3    H132536   2.961   4.731   3.503  1.4256  1.9425 -0.5401
 3659TIP3    H232537   2.961   4.700   3.355 -0.5603 -0.9668 -0.0094
 3660TIP3   OH232538   5.771   1.257   0.455 -0.4415 -0.2122  0.2445
 3660TIP3    H132539   5.682   1.249   0.420 -0.9245 -0.5487  1.4842
 3660TIP3    H232540   5.796   1.347   0.437 -1.9774  0.6157  1.9514
 3661TIP3   OH232541   5.145   2.526   1.934 -0.2032  0.4211 -0.1707
 3661TIP3    H132542   5.175   2.601   1.985 -3.2445  1.5512  0.1523
 3661TIP3    H232543   5.090   2.564   1.865  0.1680 -1.3837 -1.5421
 3662TIP3   OH232544   6.054   5.251   3.172  0.5503  0.0306 -0.1496
 3662TIP3    H132545   5.966   5.288   3.174  0.8126  0.7871 -1.5184
 3662TIP3    H232546   6.094   5.279   3.254 -0.8937 -1.4673  1.1467
 3663TIP3   OH232547   4.617   1.293   1.210  0.7489  0.1010 -0.1101
 3663TIP3    H132548   4.557   1.233   1.256  1.6044 -1.8172 -1.3674
 3663TIP3    H232549   4.670   1.332   1.280  3.2078 -4.0406  0.6717
 3664TIP3   OH232550   0.604   5.415   0.707  0.3475  0.3389 -0.9844
 3664TIP3    H132551   0.580   5.489   0.762 -0.8280 -0.8955  0.2451
 3664TIP3    H232552   0.527   5.359   0.707  1.8971 -1.9749  0.0451
 3665TIP3   OH232553   1.515   0.757   0.391  0.2289 -0.3163 -0.5969
 3665TIP3    H132554   1.455   0.692   0.355 -0.1121 -1.4258  1.7674
 3665TIP3    H232555   1.595   0.746   0.339  0.5133 -3.3604  0.2484
 3666TIP3   OH232556   1.322   2.495   2.763 -0.2178  0.2096  0.0019
 3666TIP3    H132557   1.377   2.495   2.841 -0.0791 -3.5085  0.0969
 3666TIP3    H232558   1.240   2.455   2.791 -0.2449 -1.0049 -1.6552
 3667TIP3   OH232559   0.504   2.008   4.308 -0.1518 -0.0454 -0.7467
 3667TIP3    H132560   0.569   2.031   4.241  0.1572 -0.5096 -0.6096
 3667TIP3    H232561   0.506   2.081   4.369  1.4935 -0.8049  0.1886
 3668TIP3   OH232562   4.650   5.308   1.952  0.1496 -0.1388  0.6934
 3668TIP3    H132563   4.669   5.215   1.936 -0.7522 -0.6605  2.3262
 3668TIP3    H232564   4.559   5.319   1.924 -0.3485 -0.2502  2.1491
 3669TIP3   OH232565   1.774   0.589   0.312 -0.3433 -0.1306 -0.1468
 3669TIP3    H132566   1.810   0.663   0.360 -0.1297 -0.9684  1.0100
 3669TIP3    H232567   1.781   0.615   0.220  1.3027  0.5758  0.1462
 3670TIP3   OH232568   5.532   6.639   3.536  0.5446 -0.4026  0.7700
 3670TIP3    H132569   5.548   6.647   3.630  0.4981 -1.0760  0.8385
 3670TIP3    H232570   5.476   6.714   3.516  0.9650  0.0299  1.1796
 3671TIP3   OH232571   6.078   5.134   1.802 -0.0884  0.6593 -0.1632
 3671TIP3    H132572   6.075   5.172   1.714 -3.0826  1.3628  0.0957
 3671TIP3    H232573   6.096   5.209   1.859  1.3599  0.2927 -0.1168
 3672TIP3   OH232574   2.278   3.111   2.359  0.0223 -0.0511  0.1114
 3672TIP3    H132575   2.340   3.038   2.369  0.6603  0.3012 -1.0971
 3672TIP3    H232576   2.333   3.189   2.361 -0.4520  0.3025 -0.3616
 3673TIP3   OH232577   6.120   4.810   3.423  1.1806 -0.0926 -0.0265
 3673TIP3    H132578   6.070   4.882   3.460  2.2524  1.7658 -1.9399
 3673TIP3    H232579   6.115   4.740   3.488 -1.3812  1.0526  1.1215
 3674TIP3   OH232580   6.453   2.374   3.288  0.5131  0.1882 -0.2533
 3674TIP3    H132581   6.365   2.360   3.323  0.7634 -1.0202 -0.0764
 3674TIP3    H232582   6.508   2.389   3.365  0.3484  1.7306 -0.4051
 3675TIP3   OH232583   2.619   2.395   0.578  0.0302  0.5566  0.0849
 3675TIP3    H132584   2.635   2.418   0.486  0.1718 -0.0965 -0.0588
 3675TIP3    H232585   2.544   2.448   0.603  1.4576  2.5875  0.3211
 3676TIP3   OH232586   5.747   3.823   2.568 -0.7035  0.2335  0.2021
 3676TIP3    H132587   5.812   3.888   2.541 -0.8872 -0.0253 -0.9273
 3676TIP3    H232588   5.663   3.868   2.559 -0.8406 -0.1839 -0.7065
 3677TIP3   OH232589   2.825   5.984   3.659 -0.0743 -0.2951 -0.5716
 3677TIP3    H132590   2.900   6.043   3.659 -0.3600  0.0772  0.0531
 3677TIP3    H232591   2.748   6.042   3.662 -0.3605 -0.6820 -0.2033
 3678TIP3   OH232592   1.527   4.751   2.566  0.2058 -0.0878  0.2177
 3678TIP3    H132593   1.500   4.723   2.653 -0.4486 -0.9774 -0.2594
 3678TIP3    H232594   1.476   4.830   2.549  0.2624  0.0316  0.6045
 3679TIP3   OH232595   4.250   5.340   2.082 -0.0220 -0.6490 -0.1309
 3679TIP3    H132596   4.310   5.285   2.133  0.6228 -0.1389 -0.3244
 3679TIP3    H232597   4.290   5.344   1.995 -1.8459 -2.7374 -1.1871
 3680TIP3   OH232598   3.190   6.056   3.112 -0.0609 -0.4759  0.3713
 3680TIP3    H132599   3.096   6.042   3.123 -0.3014 -0.4712 -1.4046
 3680TIP3    H232600   3.198   6.148   3.087  0.4041 -0.5150  0.3690
 3681TIP3   OH232601   6.762   2.310   2.782 -0.6790  0.2504  0.3774
 3681TIP3    H132602   6.797   2.251   2.849 -0.3661 -1.8110 -1.4844
 3681TIP3    H232603   6.692   2.260   2.740  0.1627  0.8051 -1.8592
 3682TIP3   OH232604   6.779   5.483   4.112  0.0100  0.4197  0.0618
 3682TIP3    H132605   6.755   5.572   4.139  1.0066  1.0548 -1.0157
 3682TIP3    H232606   6.873   5.489   4.094 -0.3236 -0.2639 -2.1743
 3683TIP3   OH232607   6.349   0.774   2.862  0.1762  0.4478 -0.4621
 3683TIP3    H132608   6.381   0.685   2.871 -1.5137 -0.2295 -0.8716
 3683TIP3    H232609   6.357   0.794   2.769 -0.8414  0.1543 -0.6235
 3684TIP3   OH232610   0.077   5.759   3.860  0.0280 -0.5466  0.1731
 3684TIP3    H132611  -0.014   5.778   3.886 -0.1063 -0.0065 -0.6380
 3684TIP3    H232612   0.100   5.680   3.909 -1.1283 -1.1014 -0.1439
 3685TIP3   OH232613   6.143   3.393   3.106  0.9554  0.1304 -0.0724
 3685TIP3    H132614   6.183   3.311   3.136 -0.6563 -0.7762 -0.2705
 3685TIP3    H232615   6.164   3.398   3.013  1.2181  0.0383 -0.0189
 3686TIP3   OH232616   1.119   3.295   3.682 -0.0573  0.9041 -0.1375
 3686TIP3    H132617   1.180   3.320   3.752  0.2347  0.7480 -0.3314
 3686TIP3    H232618   1.055   3.239   3.724  0.0055  0.9681  0.0446
 3687TIP3   OH232619   6.720   4.018   0.511  0.2709  0.1519  0.6731
 3687TIP3    H132620   6.687   3.931   0.490  0.5388 -0.2680  1.8987
 3687TIP3    H232621   6.659   4.078   0.469  0.1846 -0.6230 -0.3365
 3688TIP3   OH232622   6.628   4.080   3.304  0.0033  0.2786  0.3059
 3688TIP3    H132623   6.550   4.070   3.249  0.2036 -0.5287  0.1537
 3688TIP3    H232624   6.622   4.169   3.339  0.0657  0.9746 -1.3477
 3689TIP3   OH232625   4.112   0.886   0.130 -0.2144  0.0996  0.5308
 3689TIP3    H132626   4.167   0.956   0.095 -1.6588  0.7006 -0.6642
 3689TIP3    H232627   4.047   0.870   0.062 -1.7031 -0.3504  1.9819
 3690TIP3   OH232628   1.233   0.789   1.278 -0.3823  0.1308  0.6284
 3690TIP3    H132629   1.209   0.732   1.352  3.1996 -0.8818  1.1874
 3690TIP3    H232630   1.244   0.728   1.204 -0.2494  0.6233  0.2377
 3691TIP3   OH232631   4.060   4.137   2.199  0.0782 -0.2148 -0.1231
 3691TIP3    H132632   4.039   4.045   2.186 -0.2161 -0.2092  0.3165
 3691TIP3    H232633   4.016   4.161   2.281  0.4618  0.2162 -0.0403
 3692TIP3   OH232634   6.211   6.938   4.096 -0.3225 -0.1826  0.4827
 3692TIP3    H132635   6.188   6.993   4.021  2.0820  1.6194  0.9253
 3692TIP3    H232636   6.271   6.873   4.061 -0.6022 -0.4835  0.5531
 3693TIP3   OH232637   1.904   3.284   0.462  0.2095  0.0119 -0.0701
 3693TIP3    H132638   1.945   3.352   0.408  0.3032  2.0647  2.3938
 3693TIP3    H232639   1.812   3.287   0.438  0.0988  1.5153  0.4296
 3694TIP3   OH232640   0.876   0.078   1.107 -0.0246  0.1019 -0.5137
 3694TIP3    H132641   0.825   0.031   1.042 -2.5493  3.1802 -1.0124
 3694TIP3    H232642   0.838   0.053   1.191 -2.4455  2.1430 -0.8633
 3695TIP3   OH232643   3.085   0.245   1.247 -0.0922  0.0355 -0.4189
 3695TIP3    H132644   3.013   0.302   1.273  1.1719  2.3304 -1.6529
 3695TIP3    H232645   3.135   0.230   1.328 -0.4041  0.7331 -0.0960
 3696TIP3   OH232646   1.437   1.527   3.758 -0.2978 -0.1192 -0.1307
 3696TIP3    H132647   1.378   1.466   3.802  0.4585  0.8252  2.3434
 3696TIP3    H232648   1.382   1.602   3.735 -0.5863 -0.3687 -0.2570
 3697TIP3   OH232649   3.773   1.557   2.973 -0.0195 -0.5416 -0.4870
 3697TIP3    H132650   3.849   1.597   3.016 -0.9268 -1.0127  1.6488
 3697TIP3    H232651   3.721   1.631   2.942 -0.4272 -0.0972  1.1933
 3698TIP3   OH232652   5.092   4.188   3.495  0.0801  0.2757 -0.2693
 3698TIP3    H132653   5.060   4.102   3.469  0.5026  0.4529 -1.4289
 3698TIP3    H232654   5.172   4.201   3.443 -0.3806  1.6712 -0.6787
 3699TIP3   OH232655   0.983   6.682   0.915 -0.2267 -0.2234  0.3590
 3699TIP3    H132656   1.048   6.715   0.978  1.3358 -2.0331 -0.2269
 3699TIP3    H232657   0.989   6.587   0.922 -1.8477 -0.4435 -0.7365
 3700TIP3   OH232658   3.415   2.277   4.324 -0.4844 -0.1169  0.0145
 3700TIP3    H132659   3.421   2.329   4.244 -0.1269 -1.6665 -1.0122
 3700TIP3    H232660   3.429   2.340   4.395 -0.3655  1.2126 -1.1498
 3701TIP3   OH232661   0.050   4.933   0.528 -0.3380 -0.4488  0.0662
 3701TIP3    H132662   0.110   4.867   0.493  0.9217  0.5883  0.1975
 3701TIP3    H232663  -0.015   4.946   0.458 -0.6345 -1.8447  0.0678
 3702TIP3   OH232664   2.051   5.326   4.161 -0.4681 -0.0403  0.1676
 3702TIP3    H132665   2.069   5.419   4.175 -1.5787  0.0703  1.0016
 3702TIP3    H232666   2.090   5.282   4.237  1.4302 -0.4660 -0.9841
 3703TIP3   OH232667   5.197   5.819   2.003  0.1483  0.4619  0.0100
 3703TIP3    H132668   5.249   5.842   2.081 -0.3677 -1.5518  1.0163
 3703TIP3    H232669   5.261   5.781   1.943  0.2897  0.5290  0.1158
 3704TIP3   OH232670   6.223   1.039   2.646 -0.1010  0.0457 -0.7091
 3704TIP3    H132671   6.206   1.112   2.587  0.1678 -0.0530 -0.9121
 3704TIP3    H232672   6.285   1.075   2.711 -1.5131  0.5814  0.3872
 3705TIP3   OH232673   5.920   6.733   2.884  0.1338  0.4221 -0.4071
 3705TIP3    H132674   5.851   6.765   2.826 -1.2933 -0.0024  1.0122
 3705TIP3    H232675   5.939   6.806   2.943  0.9064  0.5279 -0.7658
 3706TIP3   OH232676   2.059   4.217   2.624 -0.2961 -1.2254 -0.2754
 3706TIP3    H132677   2.143   4.204   2.667  0.2751  0.5996 -0.7619
 3706TIP3    H232678   2.056   4.149   2.556 -0.0568 -2.4559  0.8990
 3707TIP3   OH232679   1.109   0.015   1.970  0.3359 -0.1828 -0.2132
 3707TIP3    H132680   1.033   0.063   1.936 -1.2631 -1.7313  0.9687
 3707TIP3    H232681   1.090   0.005   2.064  1.5478 -1.4371 -0.0694
 3708TIP3   OH232682   3.760   0.768   1.036  0.3657 -0.2855 -0.3579
 3708TIP3    H132683   3.824   0.700   1.057  0.6255 -0.1579 -0.7370
 3708TIP3    H232684   3.726   0.795   1.122  0.6641 -0.5020 -0.1681
 3709TIP3   OH232685   2.282   1.131   1.244 -0.0145 -0.0437 -0.6720
 3709TIP3    H132686   2.326   1.206   1.285  0.8691 -0.3640 -0.9911
 3709TIP3    H232687   2.259   1.161   1.156 -1.8903  0.6363  0.0137
 3710TIP3   OH232688   1.960   0.975   1.996 -0.1503  0.3296  0.3538
 3710TIP3    H132689   1.939   0.885   2.020  0.8876  0.0032  0.0533
 3710TIP3    H232690   1.891   1.000   1.934 -0.2252 -0.3854  0.1405
 3711TIP3   OH232691   4.170   1.710   8.246  0.9589 -0.5425 -0.1151
 3711TIP3    H132692   4.211   1.649   8.184  0.4128 -0.1055 -0.9256
 3711TIP3    H232693   4.186   1.797   8.209  0.7686 -0.2593  0.4513
 3712TIP3   OH232694   2.047   0.858   2.391  0.6009 -0.2498  0.0193
 3712TIP3    H132695   2.139   0.884   2.395  0.6716 -0.2480 -1.3739
 3712TIP3    H232696   2.038   0.812   2.308 -0.8681  0.6129 -0.3316
 3713TIP3   OH232697   6.784   6.752   2.558 -0.0433 -0.1434 -0.1264
 3713TIP3    H132698   6.804   6.663   2.528 -1.1837 -0.0056 -1.4052
 3713TIP3    H232699   6.755   6.741   2.648  1.6684 -0.8182  0.3849
 3714TIP3   OH232700   5.747   3.982   2.037  0.1064  0.2301 -0.0813
 3714TIP3    H132701   5.695   4.061   2.021  0.2682  1.2437  3.5602
 3714TIP3    H232702   5.838   4.009   2.021 -0.0557 -0.4087 -2.5129
 3715TIP3   OH232703   3.769   5.829   3.819 -0.3053 -0.0088 -0.0656
 3715TIP3    H132704   3.739   5.841   3.909  0.3933  3.2352 -0.1383
 3715TIP3    H232705   3.738   5.907   3.773 -1.5239 -2.0324 -2.9736
 3716TIP3   OH232706   1.358   6.776   2.073 -0.2015 -0.3343  0.9732
 3716TIP3    H132707   1.317   6.713   2.132  0.6874 -0.8161  1.0867
 3716TIP3    H232708   1.288   6.799   2.011 -0.4393 -1.7226  0.6979
 3717TIP3   OH232709   0.169   2.937   3.471  0.1350  0.1533  0.3724
 3717TIP3    H132710   0.200   3.008   3.415 -1.0762 -0.1448 -0.7018
 3717TIP3    H232711   0.074   2.944   3.469 -0.1254 -2.5218 -1.1953
 3718TIP3   OH232712   1.353   1.107   1.651 -0.1978  0.7063  0.3452
 3718TIP3    H132713   1.418   1.145   1.591  1.2488 -0.7780  0.8889
 3718TIP3    H232714   1.397   1.030   1.688 -2.8942 -1.3788 -0.5336
 3719TIP3   OH232715   0.208   4.619   2.079  0.5740 -0.9361 -0.3237
 3719TIP3    H132716   0.189   4.655   2.166  3.5392  0.6729 -0.2460
 3719TIP3    H232717   0.139   4.654   2.023  0.5717  0.8462  0.7327
 3720TIP3   OH232718   4.863   3.611   0.868  0.2440  0.0492  0.0116
 3720TIP3    H132719   4.894   3.659   0.791  2.7663 -1.3174  0.0683
 3720TIP3    H232720   4.865   3.676   0.938 -0.3688  0.8607 -0.7014
 3721TIP3   OH232721   3.187   5.789   2.449  0.1915 -0.2941 -0.0763
 3721TIP3    H132722   3.171   5.807   2.356 -0.1103  2.9001  0.4853
 3721TIP3    H232723   3.274   5.751   2.451  0.0782 -0.7311 -1.6628
 3722TIP3   OH232724   1.739   4.087   0.975  0.1224 -0.5610  0.7696
 3722TIP3    H132725   1.746   3.991   0.977  1.1476 -0.5009  2.8505
 3722TIP3    H232726   1.648   4.105   0.999  0.0559 -0.9950  0.8506
 3723TIP3   OH232727   0.660   0.840   0.663 -0.1651  0.4400 -0.2743
 3723TIP3    H132728   0.643   0.790   0.584 -0.6906 -0.4687  0.3885
 3723TIP3    H232729   0.585   0.900   0.670 -0.1745  0.4437 -0.4104
 3724TIP3   OH232730   3.135   5.995   4.539 -0.2851  0.4494  0.0376
 3724TIP3    H132731   3.203   5.960   4.597 -0.1418  1.6802  0.6348
 3724TIP3    H232732   3.106   5.919   4.488 -0.9607 -0.8500  2.2378
 3725TIP3   OH232733   5.142   0.404   0.463  0.1931 -0.3339  0.7168
 3725TIP3    H132734   5.176   0.395   0.374 -0.6049  0.7888  0.2736
 3725TIP3    H232735   5.082   0.330   0.473 -0.4619  0.0757 -0.0488
 3726TIP3   OH232736   4.752   0.191   2.691 -0.2477  0.6413 -0.5029
 3726TIP3    H132737   4.756   0.113   2.747  1.3275 -0.8031 -2.4778
 3726TIP3    H232738   4.691   0.168   2.622 -2.2689  2.4599  0.5646
 3727TIP3   OH232739   6.005   6.531   1.089 -0.1459  0.3592  0.0602
 3727TIP3    H132740   5.955   6.456   1.057  1.3942 -0.3225 -0.8772
 3727TIP3    H232741   6.063   6.554   1.017  0.4632  1.4962  0.8795
 3728TIP3   OH232742   5.407   2.698   1.864  0.0219  0.3211  0.4393
 3728TIP3    H132743   5.358   2.719   1.785  1.0644  0.3578 -0.2282
 3728TIP3    H232744   5.352   2.729   1.936 -1.2458 -0.3201 -0.2275
 3729TIP3   OH232745   4.192   5.188   7.914  0.0618 -0.4778 -0.3055
 3729TIP3    H132746   4.197   5.115   7.851 -0.7103 -0.8921  0.0885
 3729TIP3    H232747   4.098   5.206   7.921  0.2729  0.8242 -0.6843
 3730TIP3   OH232748   5.375   0.124   1.792  0.2947 -0.3606 -0.3710
 3730TIP3    H132749   5.390   0.187   1.720 -1.7230  0.4693 -0.1406
 3730TIP3    H232750   5.334   0.176   1.860  1.0580 -1.4166  0.9333
 3731TIP3   OH232751   6.198   4.068   3.434 -0.4984  0.1270 -0.4755
 3731TIP3    H132752   6.168   4.005   3.368 -0.7080 -1.4170  1.0511
 3731TIP3    H232753   6.259   4.020   3.489 -2.4876  0.4533  2.2254
 3732TIP3   OH232754   3.568   1.042   0.981  0.0605 -0.1621 -0.0811
 3732TIP3    H132755   3.637   1.026   0.916 -0.8328 -1.3657 -0.7801
 3732TIP3    H232756   3.543   1.133   0.966  1.7526  0.4385  0.4688
 3733TIP3   OH232757   5.908   3.227   0.507 -0.4170 -0.0716  0.2665
 3733TIP3    H132758   5.881   3.227   0.415 -0.5624 -2.1978  0.2699
 3733TIP3    H232759   5.835   3.187   0.554 -1.5486  3.3657  1.7960
 3734TIP3   OH232760   5.106   0.429   0.165 -0.0324  0.1791 -0.4209
 3734TIP3    H132761   5.029   0.374   0.153 -0.4883 -0.2337  3.2425
 3734TIP3    H232762   5.180   0.367   0.165  0.1387  0.3523 -2.1092
 3735TIP3   OH232763   5.238   1.810   0.835 -0.6027 -0.2748  0.2274
 3735TIP3    H132764   5.303   1.874   0.864 -0.0247 -0.7910  0.0909
 3735TIP3    H232765   5.200   1.849   0.757 -0.2936 -0.0688  0.1756
 3736TIP3   OH232766   4.943   0.553   0.775  0.4866 -0.2297 -0.8730
 3736TIP3    H132767   4.881   0.483   0.754  0.8956 -0.2461 -2.0865
 3736TIP3    H232768   4.946   0.606   0.696  1.0790  0.4897 -0.3737
 3737TIP3   OH232769   0.479   1.419   2.196  0.2529  0.0397  0.4601
 3737TIP3    H132770   0.417   1.349   2.176  0.4157 -0.5650  2.0083
 3737TIP3    H232771   0.432   1.499   2.173  0.0302 -0.5275 -1.2524
 3738TIP3   OH232772   2.773   5.576   3.651 -0.1606  0.5227 -0.1249
 3738TIP3    H132773   2.794   5.658   3.607  0.3070  0.1192 -0.6804
 3738TIP3    H232774   2.748   5.601   3.740  1.2250  1.1608  0.1094
 3739TIP3   OH232775   1.927   6.018   3.394  0.1029  0.1509  0.4398
 3739TIP3    H132776   1.891   5.933   3.419 -0.2832  0.4243  0.8171
 3739TIP3    H232777   1.871   6.082   3.437  0.1141  0.6122 -0.2177
 3740TIP3   OH232778   6.660   2.438   0.000 -0.0649  0.3220  0.3161
 3740TIP3    H132779   6.695   2.514  -0.046  2.2808 -1.0965 -0.4273
 3740TIP3    H232780   6.566   2.453   0.005  0.1612  2.5621 -1.0712
 3741TIP3   OH232781   5.301   0.910   1.574 -0.0153  0.1813  0.6578
 3741TIP3    H132782   5.382   0.940   1.532  0.4122  0.4874  1.6783
 3741TIP3    H232783   5.330   0.869   1.655 -0.7609 -1.2088  0.2543
 3742TIP3   OH232784   2.721   4.908   2.307  0.0499 -0.2198  0.1773
 3742TIP3    H132785   2.781   4.976   2.276  0.1053  1.0385  2.7845
 3742TIP3    H232786   2.776   4.830   2.313  0.8530  0.3395  0.3248
 3743TIP3   OH232787   5.139   0.710   1.461  0.0404  0.0851 -0.0454
 3743TIP3    H132788   5.220   0.660   1.457  0.2171  0.2823  0.9242
 3743TIP3    H232789   5.165   0.797   1.489 -0.2554  0.7808 -1.7710
 3744TIP3   OH232790   5.173   0.212   1.988 -0.3662 -0.0080  0.1298
 3744TIP3    H132791   5.182   0.128   2.034  0.1594 -0.0622 -0.0585
 3744TIP3    H232792   5.148   0.274   2.056  0.1668 -0.1347  0.4461
 3745TIP3   OH232793   0.127   4.100   1.108  0.1264 -0.0604  0.0190
 3745TIP3    H132794   0.111   4.013   1.145  0.0529 -0.1496 -0.2194
 3745TIP3    H232795   0.196   4.138   1.164  0.4878 -0.4516 -0.1537
 3746TIP3   OH232796   6.042   5.201   0.476  0.4076  0.4707  0.2438
 3746TIP3    H132797   6.100   5.273   0.503  2.3954 -0.6453 -0.8642
 3746TIP3    H232798   6.040   5.206   0.381  0.5799 -0.9661  0.1548
 3747TIP3   OH232799   1.268   4.134   3.494 -0.2356  0.3944  0.0281
 3747TIP3    H132800   1.355   4.158   3.526 -1.3333  2.7652  1.5122
 3747TIP3    H232801   1.226   4.092   3.569 -0.3482 -0.9078 -0.7329
 3748TIP3   OH232802   5.032   1.078   3.349 -0.4226  0.3048  0.3231
 3748TIP3    H132803   4.945   1.068   3.387 -0.3274  0.2515  0.5307
 3748TIP3    H232804   5.035   1.016   3.277 -1.4333  2.0086 -1.2680
 3749TIP3   OH232805   1.162   2.670   1.192 -0.5010 -0.1314 -0.7948
 3749TIP3    H132806   1.206   2.585   1.188 -0.0811  0.0784 -0.7771
 3749TIP3    H232807   1.223   2.725   1.242 -1.6551 -0.3398  0.9283
 3750TIP3   OH232808   4.370   6.637   8.320 -0.4346 -0.2550  0.3379
 3750TIP3    H132809   4.335   6.677   8.241  1.2140 -0.3455 -0.4562
 3750TIP3    H232810   4.464   6.631   8.306  0.0743  0.7151  2.7366
 3751TIP3   OH232811   2.419   2.407   3.414 -0.0540  0.0607  0.3362
 3751TIP3    H132812   2.478   2.451   3.353  1.9830  0.8984  2.7291
 3751TIP3    H232813   2.335   2.451   3.403 -0.5316 -1.4129 -3.4528
 3752TIP3   OH232814   5.721   5.097   1.903  0.2547  0.2759  0.1300
 3752TIP3    H132815   5.662   5.092   1.978 -0.4250 -0.5885 -0.4316
 3752TIP3    H232816   5.672   5.147   1.837 -0.1670 -1.0108 -0.5797
 3753TIP3   OH232817   0.910   2.911   2.579  0.2475  0.7002 -0.2476
 3753TIP3    H132818   0.949   2.891   2.494  0.1414  0.6776 -0.2907
 3753TIP3    H232819   0.816   2.917   2.562  0.2153  0.5902 -0.1129
 3754TIP3   OH232820   4.945   5.962   1.362 -0.6761 -0.0460  0.0224
 3754TIP3    H132821   4.929   5.974   1.269  0.9373 -2.1081 -0.6045
 3754TIP3    H232822   4.907   5.876   1.382  1.6489 -1.0420  0.4898
 3755TIP3   OH232823   2.783   5.849   8.021  0.1788  0.4874  0.1228
 3755TIP3    H132824   2.761   5.920   7.960 -0.3365 -0.6207 -1.0125
 3755TIP3    H232825   2.701   5.827   8.064  0.6259  1.6070  1.6714
 3756TIP3   OH232826   5.339   4.247   2.486  0.7858 -0.5023  0.2150
 3756TIP3    H132827   5.337   4.237   2.391  1.1362 -1.6164  0.3101
 3756TIP3    H232828   5.256   4.212   2.516  0.2399  0.7645  0.2689
 3757TIP3   OH232829   2.092   4.730   3.380  0.1580  0.4114 -1.0880
 3757TIP3    H132830   2.004   4.764   3.360 -0.2866  1.3251  1.9534
 3757TIP3    H232831   2.076   4.645   3.421  0.6654  0.7050 -0.2725
 3758TIP3   OH232832   1.166   2.754   4.394 -0.3630 -0.0249  0.6763
 3758TIP3    H132833   1.240   2.801   4.354 -1.0451  1.4344  1.0694
 3758TIP3    H232834   1.198   2.729   4.480  0.3290 -1.1600  0.1135
 3759TIP3   OH232835   4.396   6.379   2.631 -0.2209  0.1334 -0.0220
 3759TIP3    H132836   4.350   6.299   2.608  0.6811 -0.4044 -0.0167
 3759TIP3    H232837   4.374   6.395   2.723 -1.4389  0.6302 -0.3736
 3760TIP3   OH232838   5.460   4.636   2.514  0.6867 -0.1452  0.4786
 3760TIP3    H132839   5.461   4.569   2.582  0.8077  1.0116  1.6715
 3760TIP3    H232840   5.473   4.589   2.432  2.4155 -1.4000  1.4243
 3761TIP3   OH232841   3.467   1.587   4.260  0.6945 -0.2020 -1.0636
 3761TIP3    H132842   3.513   1.505   4.243  1.5629  0.2806 -1.0899
 3761TIP3    H232843   3.461   1.629   4.174 -1.5540 -1.1303 -1.4211
 3762TIP3   OH232844   1.647   2.759   2.749 -0.3933  0.2973  0.6088
 3762TIP3    H132845   1.589   2.737   2.676 -0.8342  0.6535  0.8454
 3762TIP3    H232846   1.689   2.841   2.722 -1.6412  1.2025  1.3621
 3763TIP3   OH232847   1.807   4.177   2.348 -0.0257 -0.5907  0.3561
 3763TIP3    H132848   1.884   4.125   2.330 -0.4640 -0.5637 -1.8935
 3763TIP3    H232849   1.803   4.183   2.444  1.0683 -3.0695  0.6263
 3764TIP3   OH232850   0.045   6.344   1.367 -0.0393  0.1667  0.2783
 3764TIP3    H132851   0.135   6.341   1.335 -0.0280  1.5459  0.1183
 3764TIP3    H232852   0.004   6.416   1.318 -0.7131  0.7244  1.5995
 3765TIP3   OH232853   1.570   4.887   3.481 -0.3698 -0.2605  0.2913
 3765TIP3    H132854   1.496   4.940   3.510  0.4075  0.2498  1.3835
 3765TIP3    H232855   1.536   4.839   3.405 -1.7391  0.1504  0.6120
 3766TIP3   OH232856   5.565   5.310   0.129  0.6814 -0.2491  0.4038
 3766TIP3    H132857   5.605   5.361   0.058  1.8904 -3.0502 -1.1088
 3766TIP3    H232858   5.492   5.265   0.087  1.2725 -1.7801  0.9482
 3767TIP3   OH232859   3.253   2.209   3.389 -0.8250 -0.0959 -0.7136
 3767TIP3    H132860   3.224   2.198   3.480  0.1485  2.0083 -0.1038
 3767TIP3    H232861   3.180   2.175   3.337 -1.4067 -1.3580  0.8169
 3768TIP3   OH232862   4.659   2.549   3.285  0.6190 -0.1560  0.0574
 3768TIP3    H132863   4.747   2.573   3.314  0.2966  1.1974 -0.0127
 3768TIP3    H232864   4.621   2.631   3.255 -1.5359 -0.2106  2.3433
 3769TIP3   OH232865   5.584   2.782   3.189  0.3992  0.1561  0.4676
 3769TIP3    H132866   5.552   2.858   3.140 -0.0603 -1.4737 -1.9559
 3769TIP3    H232867   5.679   2.788   3.181  0.3352 -0.1014 -0.7400
 3770TIP3   OH232868   4.744   5.813   2.105  0.1317 -0.1582  0.3598
 3770TIP3    H132869   4.770   5.790   2.194 -2.8230 -0.3842  1.2763
 3770TIP3    H232870   4.722   5.730   2.064  0.9985 -0.0064 -0.4310
 3771TIP3   OH232871   2.257   1.697   2.582 -0.4779 -0.1083 -0.2992
 3771TIP3    H132872   2.312   1.633   2.537 -1.2991 -0.0636 -1.4301
 3771TIP3    H232873   2.309   1.777   2.583 -0.4776 -0.0832 -1.2878
 3772TIP3   OH232874   5.097   1.925   1.251 -0.4407 -0.1602  0.2820
 3772TIP3    H132875   5.155   1.849   1.245  0.6573  0.6982 -0.5125
 3772TIP3    H232876   5.101   1.951   1.343  1.3488  0.5106  0.0735
 3773TIP3   OH232877   2.539   1.062   2.287  0.0311  0.2869 -0.0992
 3773TIP3    H132878   2.552   1.013   2.368  2.0849  0.1278 -0.4546
 3773TIP3    H232879   2.450   1.097   2.293 -0.3515 -0.8853  1.5686
 3774TIP3   OH232880   5.637   4.263   1.557 -0.1849 -0.1402 -0.5936
 3774TIP3    H132881   5.592   4.279   1.474  0.8958 -2.2797 -1.6764
 3774TIP3    H232882   5.730   4.274   1.536  0.1665 -1.6458  0.0581
 3775TIP3   OH232883   3.531   4.064   4.205 -0.2094 -0.1256 -0.2278
 3775TIP3    H132884   3.625   4.078   4.219 -0.1124 -1.1050  0.1828
 3775TIP3    H232885   3.505   4.004   4.275 -1.4717  1.2895  0.5783
 3776TIP3   OH232886   5.304   0.418   2.241 -0.2198  0.5368 -0.5794
 3776TIP3    H132887   5.279   0.440   2.331  0.9212 -0.8318  0.0985
 3776TIP3    H232888   5.221   0.412   2.195 -1.3670 -3.6716  1.5477
 3777TIP3   OH232889   4.768   5.945   3.987  0.4320  0.1787  0.0837
 3777TIP3    H132890   4.712   5.868   3.986 -0.0906  0.5564  0.2564
 3777TIP3    H232891   4.709   6.018   4.002  0.7492  0.7542 -1.3017
 3778TIP3   OH232892   1.529   0.030   2.529 -0.1118 -0.0941  0.0833
 3778TIP3    H132893   1.547  -0.064   2.531 -2.0971 -0.5219 -0.0305
 3778TIP3    H232894   1.492   0.049   2.616 -0.0981  0.5025 -0.0366
 3779TIP3   OH232895   3.728   6.369   2.936  0.1844  0.2684 -0.7943
 3779TIP3    H132896   3.640   6.404   2.953  0.4546 -0.3284  2.2746
 3779TIP3    H232897   3.713   6.280   2.905 -0.2932  0.7586 -2.0496
 3780TIP3   OH232898   5.225   4.715   2.637 -0.0070  0.6015  0.1444
 3780TIP3    H132899   5.198   4.752   2.553  1.1308  0.5539 -0.2551
 3780TIP3    H232900   5.319   4.731   2.641  0.0148  0.2557  1.2382
 3781TIP3   OH232901   3.719   5.646   8.049 -0.3556  0.1840 -0.7143
 3781TIP3    H132902   3.801   5.683   8.082 -0.7965  0.5103  0.0461
 3781TIP3    H232903   3.712   5.561   8.093 -2.1491  1.6130  2.1144
 3782TIP3   OH232904   3.749   3.211   2.811 -1.3954 -0.0373 -0.1360
 3782TIP3    H132905   3.744   3.274   2.883 -0.5097  1.5886 -1.4197
 3782TIP3    H232906   3.695   3.250   2.742 -0.1984 -0.2537 -1.2310
 3783TIP3   OH232907   4.224   5.346   0.647  0.3846 -0.3746  0.6431
 3783TIP3    H132908   4.308   5.381   0.619  0.0874  0.5000  0.8275
 3783TIP3    H232909   4.243   5.300   0.728  0.6564 -0.0482  0.7649
 3784TIP3   OH232910   1.745   5.513   2.759 -0.1620  0.0021 -0.0352
 3784TIP3    H132911   1.710   5.435   2.716 -0.0380 -0.4592  0.6882
 3784TIP3    H232912   1.683   5.533   2.829 -1.3347  1.8208 -1.5069
 3785TIP3   OH232913   4.806   1.205   2.117 -0.0092 -0.8195  0.0854
 3785TIP3    H132914   4.848   1.216   2.202  0.3322 -1.2964 -0.0174
 3785TIP3    H232915   4.843   1.124   2.082 -0.1225 -0.6099 -0.5325
 3786TIP3   OH232916   6.430   5.975   3.425  0.3331  0.3931 -0.3065
 3786TIP3    H132917   6.442   5.896   3.372 -1.3399 -0.2687  0.2223
 3786TIP3    H232918   6.482   5.958   3.504 -1.4375 -1.0765  0.6373
 3787TIP3   OH232919   0.085   3.705   3.482 -0.1730 -0.1516  0.0293
 3787TIP3    H132920   0.081   3.800   3.467 -0.9400 -0.1616  0.0852
 3787TIP3    H232921   0.177   3.687   3.498  0.2380  0.3260 -1.6013
 3788TIP3   OH232922   1.364   5.948   0.476 -0.3257 -0.3547  0.1150
 3788TIP3    H132923   1.425   5.873   0.477  0.3498  0.1828  0.1964
 3788TIP3    H232924   1.379   5.992   0.560  1.4816  1.5751 -1.1153
 3789TIP3   OH232925   2.917   0.032   1.132  0.0481 -0.5781 -0.1948
 3789TIP3    H132926   2.937  -0.022   1.208 -0.6119 -0.8925 -0.2388
 3789TIP3    H232927   2.969   0.111   1.144 -1.0070 -0.0603  1.2574
 3790TIP3   OH232928   6.088   3.051   0.988  0.5279 -0.2112 -0.1665
 3790TIP3    H132929   6.010   3.072   1.039  1.7209  0.1213  1.6063
 3790TIP3    H232930   6.070   3.087   0.901 -0.0501  2.8138  1.0513
 3791TIP3   OH232931   4.927   2.945   1.040 -0.2696  0.5847  1.1404
 3791TIP3    H132932   4.919   2.949   0.945  3.7108  0.4181  0.6004
 3791TIP3    H232933   4.955   3.033   1.065 -0.3617  0.3751  2.0248
 3792TIP3   OH232934   3.519   6.062   1.574  0.3932  0.2902  0.3986
 3792TIP3    H132935   3.513   5.967   1.573  1.8855  0.1715 -0.1322
 3792TIP3    H232936   3.500   6.089   1.484  0.6444  0.4271  0.3838
 3793TIP3   OH232937   1.512   3.468   1.867 -0.5052  0.5507  0.0856
 3793TIP3    H132938   1.524   3.543   1.926 -0.9178 -0.0253  0.9190
 3793TIP3    H232939   1.599   3.430   1.857 -0.6696 -0.3300  1.6760
 3794TIP3   OH232940   2.210   5.486   1.975 -0.2588 -0.1904  0.2695
 3794TIP3    H132941   2.186   5.550   1.909  1.8401  0.3352 -0.0485
 3794TIP3    H232942   2.204   5.534   2.058  1.4704  0.5569  0.0200
 3795TIP3   OH232943   3.213   5.167   1.580  0.1663  0.2868  0.0179
 3795TIP3    H132944   3.207   5.072   1.566  1.5497 -0.0722  1.5594
 3795TIP3    H232945   3.287   5.177   1.640 -0.5167  2.2799  0.5787
 3796TIP3   OH232946   4.892   0.135   1.097 -0.4709  0.0402  0.2879
 3796TIP3    H132947   4.986   0.152   1.107 -0.0757  0.3268 -2.8555
 3796TIP3    H232948   4.880   0.047   1.135  1.5872 -1.0213 -1.2812
 3797TIP3   OH232949   5.873   1.514   3.260 -0.3396  0.0997  0.0512
 3797TIP3    H132950   5.905   1.515   3.350  0.5345 -1.5009 -0.1867
 3797TIP3    H232951   5.953   1.503   3.207 -0.8570  0.8036 -0.9019
 3798TIP3   OH232952   6.228   6.352   3.255 -0.2508 -0.5232 -0.5010
 3798TIP3    H132953   6.167   6.415   3.216 -1.1780 -1.3210 -0.3772
 3798TIP3    H232954   6.176   6.271   3.264  0.2316 -0.6457  1.4693
 3799TIP3   OH232955   0.828   1.143   3.826  0.0574  0.5515 -0.2325
 3799TIP3    H132956   0.860   1.126   3.737  1.6841 -1.4426  0.6549
 3799TIP3    H232957   0.756   1.082   3.837 -0.0497  0.6971 -0.1218
 3800TIP3   OH232958   0.139   0.736   1.316  0.5364 -0.0272  0.3878
 3800TIP3    H132959   0.157   0.686   1.395  0.6590 -3.6896 -1.7083
 3800TIP3    H232960   0.193   0.815   1.324  1.9360 -1.1430  3.1132
 3801TIP3   OH232961   3.379   6.908   2.554 -0.8086 -0.1057  0.4327
 3801TIP3    H132962   3.450   6.845   2.571 -0.5206 -0.1737 -0.8829
 3801TIP3    H232963   3.356   6.942   2.640  0.3573 -0.6003  0.9665
 3802TIP3   OH232964   6.065   5.074   0.026  0.6978 -0.6431 -0.6698
 3802TIP3    H132965   6.114   5.026   0.092  2.1037  1.0191 -0.4194
 3802TIP3    H232966   6.089   5.032  -0.057  3.3209  0.6355 -0.6466
 3803TIP3   OH232967   2.109   0.693   1.286 -0.2968  0.6731 -0.0190
 3803TIP3    H132968   2.018   0.701   1.314 -0.5845 -0.9407 -0.3884
 3803TIP3    H232969   2.112   0.741   1.203  0.0251  3.5092  1.4870
 3804TIP3   OH232970   2.515   1.453   4.090 -0.2776  0.2719 -0.2565
 3804TIP3    H132971   2.477   1.492   4.169  1.6042  0.6544  0.5211
 3804TIP3    H232972   2.510   1.521   4.024  0.3620  0.8310  0.2595
 3805TIP3   OH232973   0.441   5.335   2.641 -0.1120  0.0293 -0.1886
 3805TIP3    H132974   0.459   5.268   2.707  0.6622  0.2397 -0.1710
 3805TIP3    H232975   0.406   5.287   2.566  0.9623 -0.4806 -0.3856
 3806TIP3   OH232976   0.671   1.632   1.205 -0.0950 -0.1160 -0.2190
 3806TIP3    H132977   0.721   1.704   1.168 -2.1068  0.2886 -2.4107
 3806TIP3    H232978   0.707   1.620   1.293  1.8426  1.9918 -0.6378
 3807TIP3   OH232979   2.455   2.135   2.185  0.2293  0.0966 -0.1027
 3807TIP3    H132980   2.400   2.142   2.107  0.8190  2.3061 -0.3945
 3807TIP3    H232981   2.520   2.069   2.163 -0.2770 -0.0974 -1.0601
 3808TIP3   OH232982   3.941   4.243   1.633 -0.7716  0.1015  0.1360
 3808TIP3    H132983   3.967   4.335   1.626 -0.9926  0.0188 -2.7929
 3808TIP3    H232984   3.861   4.246   1.685 -0.7751  1.5716  0.1056
 3809TIP3   OH232985   2.843   0.153   2.661  0.2817 -0.1615  0.8275
 3809TIP3    H132986   2.748   0.165   2.662  0.1097 -1.2869 -0.0870
 3809TIP3    H232987   2.870   0.181   2.573  0.5897 -1.1919  0.5804
 3810TIP3   OH232988   6.816   4.420   1.142  0.4247 -0.0282 -0.5438
 3810TIP3    H132989   6.820   4.386   1.232 -1.1062 -0.5769 -0.6555
 3810TIP3    H232990   6.723   4.442   1.129  1.0802  2.8143 -0.9986
 3811TIP3   OH232991   1.236   2.667   8.196  0.7446  0.0164 -0.0005
 3811TIP3    H132992   1.165   2.640   8.136  2.0814  1.1323 -2.2201
 3811TIP3    H232993   1.307   2.605   8.178  0.1189 -1.7711  2.9788
 3812TIP3   OH232994   4.586   6.301   0.272 -0.3156  0.0316  0.0946
 3812TIP3    H132995   4.676   6.290   0.240  0.7710  2.1902  2.1339
 3812TIP3    H232996   4.564   6.391   0.251 -1.5718 -0.1228  0.6622
 3813TIP3   OH232997   4.116   2.719   3.630  0.3926 -0.3417 -0.4658
 3813TIP3    H132998   4.156   2.732   3.716 -1.1783 -1.0909  0.4249
 3813TIP3    H232999   4.112   2.807   3.592 -1.3418  0.4558  1.3982
 3814TIP3   OH233000   5.239   0.946   0.720  0.1096 -0.1294 -0.2528
 3814TIP3    H133001   5.331   0.930   0.697  0.0906 -1.2279  0.3987
 3814TIP3    H233002   5.243   1.012   0.789  0.4639 -0.8254  0.4000
 3815TIP3   OH233003   6.921   2.815   4.101 -0.1766  0.4240 -0.6737
 3815TIP3    H133004   6.951   2.901   4.072  0.6602  0.4689  0.2976
 3815TIP3    H233005   6.984   2.788   4.167 -0.2220 -1.1059 -1.2153
 3816TIP3   OH233006   4.638   1.385   2.614 -0.0370  0.4844 -0.0872
 3816TIP3    H133007   4.628   1.425   2.701  1.0773  0.7265 -0.0493
 3816TIP3    H233008   4.683   1.302   2.631 -2.4436 -0.9211 -0.1549
 3817TIP3   OH233009   3.926   0.152   3.332  0.1830 -0.1568 -0.7793
 3817TIP3    H133010   3.857   0.099   3.293 -2.2064  0.7975  1.7801
 3817TIP3    H233011   3.949   0.106   3.413 -0.8013  1.7155  0.6704
 3818TIP3   OH233012   2.961   4.921   4.144 -0.0548 -0.2478  0.1620
 3818TIP3    H133013   2.971   4.938   4.238 -1.6173 -1.8255  0.6640
 3818TIP3    H233014   2.891   4.856   4.139  0.8730 -1.1595 -2.0349
 3819TIP3   OH233015   2.079   4.721   2.084  0.0915  0.2796 -0.1232
 3819TIP3    H133016   2.010   4.662   2.116  1.9405 -2.3158 -0.5957
 3819TIP3    H233017   2.031   4.790   2.038 -2.3498  1.0569  3.2230
 3820TIP3   OH233018   4.627   6.347   2.426 -0.2345 -0.1357 -0.6024
 3820TIP3    H133019   4.567   6.374   2.496  1.8697 -0.0160  1.2738
 3820TIP3    H233020   4.662   6.428   2.391  1.4267 -0.1759  0.7896
 3821TIP3   OH233021   5.177   4.187   8.376  0.1302  0.6442 -0.0800
 3821TIP3    H133022   5.262   4.172   8.335  1.6796  0.4890  2.8857
 3821TIP3    H233023   5.156   4.279   8.355  0.1649  0.2339 -2.1423
 3822TIP3   OH233024   6.345   4.466   0.866 -0.0811 -0.2295 -0.6432
 3822TIP3    H133025   6.262   4.513   0.869  0.3655  0.5297  0.8424
 3822TIP3    H233026   6.402   4.521   0.812  0.6068  1.3239  1.5247
 3823TIP3   OH233027   4.951   3.656   3.663  0.6003  0.3359  0.2725
 3823TIP3    H133028   4.921   3.572   3.700  0.0210 -0.4882 -1.8959
 3823TIP3    H233029   5.047   3.651   3.667  0.5551  0.2908  1.6363
 3824TIP3   OH233030   2.550   0.755   3.271 -0.2877 -0.0945  0.0125
 3824TIP3    H133031   2.454   0.756   3.266 -0.4045  0.3109  1.6093
 3824TIP3    H233032   2.576   0.678   3.221 -1.4254 -0.0456 -0.6969
 3825TIP3   OH233033   5.655   5.417   3.750  0.3788 -0.9537 -0.0589
 3825TIP3    H133034   5.676   5.428   3.843  2.6633 -2.6517 -0.2968
 3825TIP3    H233035   5.598   5.340   3.748  0.9747 -1.3920 -0.1347
 3826TIP3   OH233036   0.933   6.690   1.237  0.0914 -0.0989 -0.1029
 3826TIP3    H133037   0.885   6.620   1.193  0.4545 -0.3612 -0.0825
 3826TIP3    H233038   0.865   6.751   1.265 -0.1279  0.1769 -1.1967
 3827TIP3   OH233039   6.833   4.505   3.231  0.0674  0.5122  0.5379
 3827TIP3    H133040   6.749   4.513   3.277 -0.1685  1.1740  0.0119
 3827TIP3    H233041   6.817   4.441   3.163 -0.1370  0.9395  0.1781
 3828TIP3   OH233042   1.804   6.153   1.003  0.1870  0.1318 -0.2272
 3828TIP3    H133043   1.719   6.126   1.039  0.4832 -0.3993  0.0863
 3828TIP3    H233044   1.838   6.216   1.065  0.2725 -0.0729 -0.0668
 3829TIP3   OH233045   2.930   1.126   2.888 -0.3972 -0.2509  0.0974
 3829TIP3    H133046   2.941   1.049   2.944  1.0605  1.3370  2.1880
 3829TIP3    H233047   2.939   1.093   2.799 -0.3561 -2.5413  0.8786
 3830TIP3   OH233048   1.408   3.788   0.462  0.6947  0.1096  0.3545
 3830TIP3    H133049   1.312   3.787   0.460  0.6729  0.4924  0.8756
 3830TIP3    H233050   1.430   3.835   0.543  1.3198  0.3877  0.0330
 3831TIP3   OH233051   6.618   0.708   2.347 -0.1086 -0.0095 -0.5060
 3831TIP3    H133052   6.627   0.656   2.427  1.7828 -1.6949 -1.7153
 3831TIP3    H233053   6.534   0.682   2.311 -0.6218  0.1776  0.5182
 3832TIP3   OH233054   2.108   6.029   2.057  0.3871  0.7610  0.2224
 3832TIP3    H133055   2.067   6.112   2.080 -1.9971 -0.5048  0.7974
 3832TIP3    H233056   2.054   5.994   1.985  1.2950 -0.3311  0.0328
 3833TIP3   OH233057   2.102   3.763   1.176 -0.6221  0.0901 -0.0583
 3833TIP3    H133058   2.191   3.737   1.202 -0.9115  1.2968  2.5496
 3833TIP3    H233059   2.050   3.683   1.184  0.2312 -0.7050 -1.9339
 3834TIP3   OH233060   1.227   6.370   8.404 -0.2005  0.8843  0.6100
 3834TIP3    H133061   1.258   6.376   8.495  1.8814 -0.0976  0.0148
 3834TIP3    H233062   1.247   6.456   8.367  2.5339  0.1295  0.0961
 3835TIP3   OH233063   3.306   5.672   4.306  0.3297 -0.4250  0.2896
 3835TIP3    H133064   3.332   5.707   4.220  2.1920  0.4877  1.1775
 3835TIP3    H233065   3.223   5.715   4.325 -0.4641 -1.1322 -1.3021
 3836TIP3   OH233066   1.417   1.718   0.108  0.2101 -0.0494 -0.2101
 3836TIP3    H133067   1.346   1.692   0.050  0.6477  1.1346 -1.3237
 3836TIP3    H233068   1.475   1.642   0.110 -1.2857 -1.2403  1.1388
 3837TIP3   OH233069   6.423   0.092   3.316 -0.2704 -0.4105  0.5130
 3837TIP3    H133070   6.420   0.011   3.367 -0.2559 -0.2030  0.8480
 3837TIP3    H233071   6.451   0.064   3.229 -1.7365 -0.9868  0.1879
 3838TIP3   OH233072   6.788   0.303   3.471 -0.2483 -0.2059  0.0240
 3838TIP3    H133073   6.786   0.280   3.564 -0.6732 -1.5086 -0.2806
 3838TIP3    H233074   6.801   0.219   3.426 -0.8012  0.2958 -1.1194
 3839TIP3   OH233075   2.639   1.920   2.095  0.1579 -0.2840 -0.7489
 3839TIP3    H133076   2.654   1.957   2.182  0.2717  0.6419 -1.1576
 3839TIP3    H233077   2.621   1.827   2.112  1.7315 -0.4635  0.1232
 3840TIP3   OH233078   6.398   2.722   3.240 -0.0286 -0.1088 -0.3034
 3840TIP3    H133079   6.338   2.725   3.165  0.4479 -0.1292 -0.6942
 3840TIP3    H233080   6.476   2.678   3.206 -0.0682 -0.7315  0.4003
 3841TIP3   OH233081   4.737   1.705   3.900  0.6041 -0.0474 -0.6733
 3841TIP3    H133082   4.653   1.733   3.937  0.1726 -1.4288 -0.5462
 3841TIP3    H233083   4.715   1.670   3.814  0.8009 -1.7864 -0.0511
 3842TIP3   OH233084   5.355   2.596   0.690  0.2171  0.8915  0.9907
 3842TIP3    H133085   5.327   2.684   0.664 -1.2631 -0.0030 -0.6418
 3842TIP3    H233086   5.400   2.561   0.614  0.0330 -0.0805  1.3203
 3843TIP3   OH233087   6.385   3.501   2.647 -0.5255  0.0464  1.2051
 3843TIP3    H133088   6.306   3.535   2.607 -0.1283 -1.6492 -1.2224
 3843TIP3    H233089   6.457   3.541   2.598 -0.0312 -2.4689 -0.2618
 3844TIP3   OH233090   2.698   3.713   2.477 -0.4538  0.3411 -0.3473
 3844TIP3    H133091   2.716   3.792   2.425  0.9376  0.3076  0.0386
 3844TIP3    H233092   2.701   3.743   2.567 -0.0509 -0.1256 -0.2033
 3845TIP3   OH233093   5.427   4.742   3.785  0.5764  0.4790 -0.2302
 3845TIP3    H133094   5.387   4.737   3.699  2.7358  0.0632 -1.2743
 3845TIP3    H233095   5.408   4.831   3.815 -2.9190 -0.3082  0.3630
 3846TIP3   OH233096   5.467   0.787   3.177 -0.2922  0.1938  0.5905
 3846TIP3    H133097   5.383   0.829   3.195 -1.4721 -2.4448  1.8137
 3846TIP3    H233098   5.478   0.723   3.247  2.3045 -0.2230 -0.0733
 3847TIP3   OH233099   4.824   5.867   0.809 -0.0159 -0.1285  0.1095
 3847TIP3    H133100   4.752   5.811   0.780  1.2931 -0.6396 -2.3928
 3847TIP3    H233101   4.785   5.955   0.812 -1.0486 -0.5676  0.0404
 3848TIP3   OH233102   2.168   6.292   1.510 -0.0280 -0.5458  0.1297
 3848TIP3    H133103   2.076   6.318   1.500 -0.0770 -0.9610 -0.5982
 3848TIP3    H233104   2.217   6.373   1.496 -0.2388 -0.5527 -0.7280
 3849TIP3   OH233105   1.926   6.404   3.244 -0.0660  0.2780  0.1017
 3849TIP3    H133106   1.956   6.386   3.333 -0.7078 -1.5647 -0.0144
 3849TIP3    H233107   1.951   6.326   3.194 -0.2256  1.0312 -1.2138
 3850TIP3   OH233108   0.432   3.419   1.110  0.1808 -0.1154 -0.1321
 3850TIP3    H133109   0.385   3.368   1.175  0.7571  0.8269  1.0630
 3850TIP3    H233110   0.513   3.371   1.095 -0.0814 -0.4831 -0.3809
 3851TIP3   OH233111   3.422   6.650   4.111  0.2205 -0.1962 -0.0698
 3851TIP3    H133112   3.371   6.718   4.155 -0.8704 -0.4101 -0.9427
 3851TIP3    H233113   3.356   6.586   4.083  1.2462 -1.8651  1.1313
 3852TIP3   OH233114   4.403   5.240   1.228 -0.0723 -0.0488  0.7919
 3852TIP3    H133115   4.340   5.253   1.299  0.0196  1.2056  0.6553
 3852TIP3    H233116   4.355   5.267   1.149 -1.1671 -3.9502 -0.1304
 3853TIP3   OH233117   1.249   3.080   2.893 -0.2591 -0.2794  0.1898
 3853TIP3    H133118   1.204   3.141   2.951  0.1768  0.5478 -0.3068
 3853TIP3    H233119   1.341   3.107   2.897  0.3742 -2.4480  1.8121
 3854TIP3   OH233120   0.876   6.249   1.465  0.1179 -0.6917  0.0620
 3854TIP3    H133121   0.841   6.164   1.491 -3.6170  0.3216 -1.0364
 3854TIP3    H233122   0.831   6.268   1.382 -1.3980  3.4800  1.6152
 3855TIP3   OH233123   0.676   0.940   2.675 -0.5529  0.1542 -0.3099
 3855TIP3    H133124   0.724   0.876   2.727 -1.9702 -0.3262  0.4602
 3855TIP3    H233125   0.590   0.945   2.716 -0.9280  1.5455 -1.1888
 3856TIP3   OH233126   1.532   5.690   0.141  0.1718 -0.6908  0.0380
 3856TIP3    H133127   1.574   5.676   0.056  0.4369  1.0174 -0.1551
 3856TIP3    H233128   1.448   5.730   0.121  0.5955  0.5238  0.5797
 3857TIP3   OH233129   2.940   0.708   0.057 -0.3115 -0.4889 -0.3383
 3857TIP3    H133130   2.948   0.750  -0.029  5.6879  2.2848  1.0510
 3857TIP3    H233131   2.934   0.782   0.118 -0.2452 -2.1728  1.8015
 3858TIP3   OH233132   1.000   0.207   3.002  0.2365  0.0740 -0.1863
 3858TIP3    H133133   0.949   0.264   3.060  1.1741  0.2441  0.4918
 3858TIP3    H233134   1.037   0.140   3.059 -1.1356 -1.4615 -1.0351
 3859TIP3   OH233135   4.816   3.441   4.085 -0.2994 -0.0074 -0.4914
 3859TIP3    H133136   4.814   3.381   4.011  1.8571 -0.1578 -0.4962
 3859TIP3    H233137   4.726   3.473   4.093 -1.6032 -3.3247 -0.3882
 3860TIP3   OH233138   2.624   4.867   2.616  0.1232 -0.8914  0.0234
 3860TIP3    H133139   2.694   4.887   2.678 -0.9574  0.5270  0.8498
 3860TIP3    H233140   2.603   4.951   2.576  0.3291 -1.6620 -1.8151
 3861TIP3   OH233141   6.202   1.448   4.123 -0.1319 -0.5452  0.0322
 3861TIP3    H133142   6.159   1.532   4.134 -3.3152 -1.4260 -3.5501
 3861TIP3    H233143   6.140   1.384   4.158 -0.1035 -1.6296 -1.7324
 3862TIP3   OH233144   1.357   4.095   1.680 -0.0523  0.2054 -0.7985
 3862TIP3    H133145   1.338   4.115   1.772 -0.5090  1.4613 -1.1413
 3862TIP3    H233146   1.272   4.074   1.642  0.0560  0.2555 -1.0679
 3863TIP3   OH233147   3.606   0.633   3.385 -0.3554  0.2056  0.2358
 3863TIP3    H133148   3.575   0.706   3.332 -0.9010 -0.1753  0.0214
 3863TIP3    H233149   3.598   0.557   3.327  1.7008  0.1855 -0.1052
 3864TIP3   OH233150   1.893   2.520   2.996  0.3570 -0.6199 -0.2101
 3864TIP3    H133151   1.838   2.507   2.918 -0.0251  0.2703 -0.1017
 3864TIP3    H233152   1.877   2.611   3.021 -1.0707 -1.4299  2.0977
 3865TIP3   OH233153   4.343   2.240   3.411 -0.3126 -0.1409 -0.4161
 3865TIP3    H133154   4.380   2.241   3.323 -3.3239 -0.5845 -1.7866
 3865TIP3    H233155   4.342   2.332   3.438  0.7411 -0.0155 -0.7517
 3866TIP3   OH233156   6.175   3.812   2.889 -0.2624 -0.1200  0.1770
 3866TIP3    H133157   6.242   3.867   2.930 -0.6664  0.5205 -0.0015
 3866TIP3    H233158   6.136   3.763   2.961  1.8793 -2.2123  0.0596
 3867TIP3   OH233159   4.447   2.856   2.161 -0.4256  0.0098  0.0223
 3867TIP3    H133160   4.516   2.894   2.216  1.5703  1.0032 -2.9124
 3867TIP3    H233161   4.367   2.901   2.189  0.3024 -0.1314  2.5674
 3868TIP3   OH233162   0.184   5.609   1.373  0.0588  0.1754 -0.0448
 3868TIP3    H133163   0.152   5.608   1.464 -0.7820  1.2815 -0.2973
 3868TIP3    H233164   0.248   5.538   1.369  1.8892  1.5815  2.0468
 3869TIP3   OH233165   3.064   2.547   0.353  0.4563 -0.0057 -0.5861
 3869TIP3    H133166   3.152   2.569   0.321 -0.1624 -1.3651 -3.6386
 3869TIP3    H233167   3.008   2.555   0.275 -2.8037  3.5359  1.7708
 3870TIP3   OH233168   3.538   6.138   2.907  0.4608  0.2163 -0.5344
 3870TIP3    H133169   3.591   6.110   2.981  1.3102  0.6109 -0.9780
 3870TIP3    H233170   3.453   6.161   2.945  1.0894  1.0502  0.4134
 3871TIP3   OH233171   6.549   1.187   2.990 -0.4461  0.0370 -0.5105
 3871TIP3    H133172   6.631   1.147   2.961 -0.2986 -0.3301  0.4056
 3871TIP3    H233173   6.563   1.281   2.979 -1.1574 -0.1083 -3.6771
 3872TIP3   OH233174   6.231   0.290   3.616  0.4681 -0.6050  0.1603
 3872TIP3    H133175   6.305   0.319   3.562 -0.1049 -0.7501 -0.7175
 3872TIP3    H233176   6.181   0.232   3.560 -1.6133  1.3109 -0.0980
 3873TIP3   OH233177   3.240   5.699   7.952  0.5519  0.3859 -0.1597
 3873TIP3    H133178   3.312   5.762   7.949  0.8642  0.0232 -0.3803
 3873TIP3    H233179   3.191   5.715   7.872  0.6233  0.3555 -0.2093
 3874TIP3   OH233180   2.109   2.026   2.646  0.7806 -0.1069  0.4916
 3874TIP3    H133181   2.180   1.965   2.629  0.8032  0.0605 -0.0465
 3874TIP3    H233182   2.101   2.029   2.741  2.9026  1.4893  0.6858
 3875TIP3   OH233183   2.346   0.791   1.103 -0.3291 -0.2600  0.3458
 3875TIP3    H133184   2.293   0.870   1.090 -0.0366  0.2341  2.0232
 3875TIP3    H233185   2.302   0.725   1.049 -1.6410  0.5827  0.3313
 3876TIP3   OH233186   2.117   0.962   1.725  0.1175 -0.2231 -0.4030
 3876TIP3    H133187   2.168   0.930   1.799  0.6551 -0.5372 -0.9063
 3876TIP3    H233188   2.181   0.998   1.664 -0.2400 -0.7298 -1.0995
 3877TIP3   OH233189   0.267   1.578   1.926  0.0908  0.3291  0.4347
 3877TIP3    H133190   0.286   1.489   1.898  0.4155  0.1960  1.0719
 3877TIP3    H233191   0.315   1.589   2.008  0.7896  1.3884 -0.0907
 3878TIP3   OH233192   4.081   3.729   8.258 -0.6859  0.1158  0.6589
 3878TIP3    H133193   4.051   3.809   8.214  0.9927 -0.0485 -0.8977
 3878TIP3    H233194   4.176   3.735   8.257 -0.5362 -1.5465  1.2321
 3879TIP3   OH233195   3.099   6.633   1.975  0.0555 -0.0273  0.3197
 3879TIP3    H133196   3.037   6.609   2.043  0.2658  0.2433  0.6102
 3879TIP3    H233197   3.049   6.628   1.893 -0.8120  1.8270  0.6919
 3880TIP3   OH233198   6.419   3.358   3.240 -0.0665  0.0014 -0.4700
 3880TIP3    H133199   6.398   3.337   3.331  0.5309  0.3758 -0.2446
 3880TIP3    H233200   6.495   3.415   3.245  0.3453 -0.4629 -1.2328
 3881TIP3   OH233201   1.716   6.732   0.547  0.1727  0.3745 -0.3286
 3881TIP3    H133202   1.772   6.656   0.531 -2.3523 -1.3729 -1.7099
 3881TIP3    H233203   1.677   6.750   0.461 -1.8307  1.0427  0.6694
 3882TIP3   OH233204   2.123   2.645   3.576 -0.1839  0.1240  0.1049
 3882TIP3    H133205   2.199   2.604   3.616  0.2185  1.0227  0.2914
 3882TIP3    H233206   2.157   2.683   3.495  0.4650  3.5866  1.7993
 3883TIP3   OH233207   4.365   5.688   1.556 -0.3480  0.2369  0.0500
 3883TIP3    H133208   4.283   5.735   1.572 -1.5421 -1.9110  0.6856
 3883TIP3    H233209   4.412   5.743   1.493 -2.1316  1.6930 -0.1032
 3884TIP3   OH233210   5.151   6.432   0.458 -0.1853  0.0507 -0.1654
 3884TIP3    H133211   5.080   6.495   0.470 -0.3403 -0.2348  0.4502
 3884TIP3    H233212   5.166   6.395   0.545  0.0339 -0.6162 -0.4749
 3885TIP3   OH233213   6.529   3.978   1.998 -0.4564 -0.4166 -0.0637
 3885TIP3    H133214   6.444   4.018   1.979  0.8981  1.8807 -1.8294
 3885TIP3    H233215   6.510   3.913   2.066 -3.6499 -0.2622 -0.6427
 3886TIP3   OH233216   2.405   0.067   0.826 -0.3220 -0.3176 -0.2796
 3886TIP3    H133217   2.325   0.118   0.827 -0.2467 -0.1791 -0.8425
 3886TIP3    H233218   2.382  -0.013   0.778  0.0233 -0.0145 -0.9679
 3887TIP3   OH233219   4.773   3.711   2.243 -0.1125 -0.0420 -0.3965
 3887TIP3    H133220   4.742   3.682   2.329  2.1633 -0.7669  0.2486
 3887TIP3    H233221   4.713   3.670   2.181 -0.4799 -1.3660  0.7700
 3888TIP3   OH233222   3.875   6.469   1.529 -0.6083 -0.2289  0.0224
 3888TIP3    H133223   3.829   6.388   1.551 -0.5826 -0.7646 -1.7367
 3888TIP3    H233224   3.893   6.462   1.435 -1.9039  2.4696 -0.5202
 3889TIP3   OH233225   6.581   3.370   2.788  0.0996 -0.0316 -0.1809
 3889TIP3    H133226   6.499   3.405   2.755 -0.1694 -1.7307 -1.4104
 3889TIP3    H233227   6.556   3.316   2.863  0.4088  1.4661  1.0601
 3890TIP3   OH233228   1.093   0.373   1.224  0.2243 -0.4967  0.0582
 3890TIP3    H133229   1.057   0.325   1.298 -0.3267 -0.5974 -0.2694
 3890TIP3    H233230   1.101   0.464   1.254 -0.7204 -0.3869 -0.0055
 3891TIP3   OH233231   2.143   2.789   2.617 -0.7864  0.3889 -0.0844
 3891TIP3    H133232   2.108   2.821   2.534  0.0319  0.4478 -0.4139
 3891TIP3    H233233   2.125   2.695   2.616 -1.3155  0.4861 -0.0541
 3892TIP3   OH233234   6.792   0.589   1.206  0.5389  0.3300  0.0300
 3892TIP3    H133235   6.861   0.610   1.143  1.8055  0.4031  1.3899
 3892TIP3    H233236   6.718   0.642   1.179  0.9335  0.1176 -1.5797
 3893TIP3   OH233237   4.267   1.279   0.498 -0.1003  0.1657  0.2328
 3893TIP3    H133238   4.249   1.372   0.509  0.1577  0.1170  1.1068
 3893TIP3    H233239   4.271   1.244   0.587 -0.3212 -0.7103 -0.0858
 3894TIP3   OH233240   0.848   0.598   1.309  0.1812  0.3576  0.0202
 3894TIP3    H133241   0.896   0.586   1.227  1.3674 -0.3181  0.7959
 3894TIP3    H233242   0.757   0.608   1.281 -0.0689 -3.5506 -1.2548
 3895TIP3   OH233243   3.190   0.082   0.207 -0.3650  0.3279 -0.2792
 3895TIP3    H133244   3.113   0.127   0.174  0.4210  1.4862 -0.6108
 3895TIP3    H233245   3.226   0.037   0.130 -0.2006  0.5545 -0.3364
 3896TIP3   OH233246   2.610   3.639   3.738  0.3959 -0.5375 -0.4857
 3896TIP3    H133247   2.652   3.640   3.824  0.5002 -0.8098 -0.5328
 3896TIP3    H233248   2.671   3.591   3.681  0.0464 -0.9006 -0.5645
 3897TIP3   OH233249   5.353   4.886   1.292  0.3164  0.1061  0.7074
 3897TIP3    H133250   5.284   4.936   1.250 -0.3018 -0.9021  0.4848
 3897TIP3    H233251   5.307   4.816   1.339  1.1150  0.0981  1.5105
 3898TIP3   OH233252   3.174   2.699   2.100  0.0774  0.1707 -0.2385
 3898TIP3    H133253   3.161   2.735   2.013  0.5885  0.1826 -0.3125
 3898TIP3    H233254   3.089   2.711   2.144 -0.4750 -0.7036 -1.0395
 3899TIP3   OH233255   1.936   3.447   1.861  0.3814  0.2480 -0.0495
 3899TIP3    H133256   1.921   3.515   1.795 -0.6292 -1.7781 -2.0451
 3899TIP3    H233257   1.848   3.426   1.894  0.6762 -0.1078  0.5209
 3900TIP3   OH233258   0.296   1.043   0.239  0.2111  0.2113 -0.1205
 3900TIP3    H133259   0.358   1.002   0.299 -0.8445  0.3504  1.0825
 3900TIP3    H233260   0.268   0.973   0.181  0.3402 -0.1897  0.3022
 3901TIP3   OH233261   0.375   6.579   0.842 -0.2282 -0.2670  0.2890
 3901TIP3    H133262   0.294   6.621   0.815 -0.0344  0.2789  0.5488
 3901TIP3    H233263   0.347   6.500   0.889 -0.6282  0.2913  1.0065
 3902TIP3   OH233264   3.900   5.201   3.726 -0.2496 -0.2561  0.4118
 3902TIP3    H133265   3.884   5.257   3.650 -3.2536 -1.1453  0.2529
 3902TIP3    H233266   3.986   5.162   3.710  0.0245  1.0171 -1.5712
 3903TIP3   OH233267   4.315   5.600   0.801 -0.2859  0.4667 -0.5661
 3903TIP3    H133268   4.228   5.640   0.798  0.1957  1.6668  0.5522
 3903TIP3    H233269   4.298   5.508   0.824 -1.2930  0.4743 -1.1974
 3904TIP3   OH233270   5.495   6.567   3.977  0.0834 -0.4987 -0.7276
 3904TIP3    H133271   5.588   6.583   3.991 -0.4842  2.4596  0.1885
 3904TIP3    H233272   5.486   6.557   3.882  1.1499  0.5329 -0.9533
 3905TIP3   OH233273   6.704   5.575   3.778  0.0733  0.2116 -0.1798
 3905TIP3    H133274   6.613   5.551   3.795  0.6277 -1.6362  0.4678
 3905TIP3    H233275   6.716   5.658   3.824 -1.3139  0.5765 -0.4236
 3906TIP3   OH233276   0.549   5.047   1.547  0.1860  0.4362 -0.4521
 3906TIP3    H133277   0.607   4.988   1.499  1.1645  1.4028 -0.5073
 3906TIP3    H233278   0.548   5.013   1.636 -0.0537 -0.2199 -0.6967
 3907TIP3   OH233279   2.798   2.983   4.432  0.1343  0.3417  0.0756
 3907TIP3    H133280   2.817   2.914   4.369 -0.4692 -0.0768  0.3453
 3907TIP3    H233281   2.875   2.987   4.488 -0.1403 -0.6453  0.5335
 3908TIP3   OH233282   2.479   0.666   0.610 -0.2611  0.6832 -0.0325
 3908TIP3    H133283   2.469   0.720   0.689  1.7694  0.4656  0.4276
 3908TIP3    H233284   2.427   0.710   0.544 -3.9340 -0.3080  1.9063
 3909TIP3   OH233285   1.036   6.414   0.348 -0.1576  0.0017 -0.2139
 3909TIP3    H133286   1.078   6.422   0.433 -0.6129 -0.5957  0.0744
 3909TIP3    H233287   0.982   6.493   0.341 -0.6186 -0.2552  0.3395
 3910TIP3   OH233288   5.921   4.999   0.953 -0.6463  0.2604  0.2306
 3910TIP3    H133289   5.935   5.092   0.936  1.1947  0.0273  0.2861
 3910TIP3    H233290   5.871   4.968   0.877  0.0899  0.9656 -0.5649
 3911TIP3   OH233291   0.366   5.707   3.252  0.1673  0.2542 -0.2132
 3911TIP3    H133292   0.432   5.770   3.282 -0.8952  0.6484  1.4514
 3911TIP3    H233293   0.309   5.758   3.194  1.0725 -0.0002 -1.3716
 3912TIP3   OH233294   1.157   6.855   0.430 -0.4258 -0.2068 -0.2937
 3912TIP3    H133295   1.098   6.927   0.407  0.3526  0.9908  1.2776
 3912TIP3    H233296   1.160   6.856   0.525  0.1543 -1.8927 -0.2652
 3913TIP3   OH233297   1.404   5.212   2.642 -0.2870  0.0232  0.2756
 3913TIP3    H133298   1.364   5.237   2.725  0.4110 -1.1020  0.9768
 3913TIP3    H233299   1.498   5.224   2.656 -0.0980 -0.9776 -0.0508
 3914TIP3   OH233300   6.905   5.592   1.704  0.0658 -0.0094 -0.0803
 3914TIP3    H133301   6.874   5.625   1.789 -4.2168 -2.5780 -0.3513
 3914TIP3    H233302   6.885   5.663   1.643 -0.3651  0.4135  0.5388
 3915TIP3   OH233303   1.728   2.521   0.150  0.3726 -0.3682 -0.3425
 3915TIP3    H133304   1.731   2.438   0.101  0.9434 -0.7244  0.2964
 3915TIP3    H233305   1.813   2.561   0.135  0.7006 -0.6663  0.6784
 3916TIP3   OH233306   1.786   2.845   1.378 -0.1043 -0.2480 -0.3075
 3916TIP3    H133307   1.844   2.777   1.413  1.2860  1.2208  0.3664
 3916TIP3    H233308   1.714   2.796   1.338  1.2687 -2.1389 -0.6276
 3917TIP3   OH233309   6.745   0.627   0.072 -0.1972  0.0752  0.1130
 3917TIP3    H133310   6.749   0.607  -0.021  0.2579  0.3296  0.0727
 3917TIP3    H233311   6.834   0.610   0.104  0.2224  1.9574  0.0792
 3918TIP3   OH233312   2.397   0.544   1.498 -0.3801  0.0511  0.1558
 3918TIP3    H133313   2.424   0.540   1.590  0.6030  0.2728 -0.1109
 3918TIP3    H233314   2.347   0.624   1.491  1.0836  1.0027  0.1277
 3919TIP3   OH233315   6.576   2.258   2.361 -0.0043 -0.8487 -0.5588
 3919TIP3    H133316   6.483   2.264   2.340  0.1849 -0.7018 -1.3989
 3919TIP3    H233317   6.617   2.326   2.307  0.7681 -1.9252 -1.3732
 3920TIP3   OH233318   4.522   2.999   1.923  0.2051 -0.4212  0.7001
 3920TIP3    H133319   4.553   2.942   1.992 -0.7201 -4.5144 -1.9413
 3920TIP3    H233320   4.431   2.974   1.909 -0.1773  1.5125 -0.8787
 3921TIP3   OH233321   0.501   4.610   2.811  0.1578  0.3579 -0.8025
 3921TIP3    H133322   0.525   4.527   2.770  0.2680 -0.9453  1.6857
 3921TIP3    H233323   0.429   4.588   2.870  2.1617  1.3030  2.2308
 3922TIP3   OH233324   3.174   6.746   8.310 -0.1554  0.2265 -0.5001
 3922TIP3    H133325   3.183   6.813   8.242 -2.0576  1.4440  0.3392
 3922TIP3    H233326   3.237   6.771   8.378  0.8766 -0.2839 -1.2540
 3923TIP3   OH233327   5.849   6.297   1.034  0.0255 -0.0179 -0.1322
 3923TIP3    H133328   5.926   6.241   1.034  0.2618  0.2276 -1.8891
 3923TIP3    H233329   5.777   6.240   1.062  0.6767 -0.5014  0.5699
 3924TIP3   OH233330   6.332   0.427   0.424 -0.0997 -0.4769 -0.4156
 3924TIP3    H133331   6.391   0.498   0.450  0.0238 -0.4958 -0.6425
 3924TIP3    H233332   6.390   0.358   0.393 -0.2525 -0.3515 -0.9998
 3925TIP3   OH233333   2.869   5.922   2.227  0.0077  0.4573 -0.3033
 3925TIP3    H133334   2.944   5.874   2.192  0.0370  1.0332 -1.0584
 3925TIP3    H233335   2.795   5.893   2.173 -0.3248 -0.1445  0.4695
 3926TIP3   OH233336   5.217   5.915   3.555  0.1552 -0.4737 -0.0193
 3926TIP3    H133337   5.196   5.985   3.616 -0.7113  0.7437 -1.6254
 3926TIP3    H233338   5.278   5.859   3.602 -0.1787  0.6080  1.7972
 3927TIP3   OH233339   5.602   4.455   0.773  0.2865  0.1957  0.1030
 3927TIP3    H133340   5.603   4.363   0.798  3.3677  0.0835 -0.0033
 3927TIP3    H233341   5.584   4.455   0.679 -4.0989  0.1240  0.7701
 3928TIP3   OH233342   5.205   0.052   1.147 -0.1669  0.7013  0.0778
 3928TIP3    H133343   5.235   0.038   1.058  1.2996  0.8290  0.5211
 3928TIP3    H233344   5.223  -0.030   1.192 -1.1304  0.5510  0.2090
 3929TIP3   OH233345   2.397   3.373   2.223  1.1018  0.6295 -0.5062
 3929TIP3    H133346   2.330   3.412   2.166  1.2368  2.1107  0.3184
 3929TIP3    H233347   2.480   3.411   2.192  1.5933 -1.0616 -1.4092
 3930TIP3   OH233348   0.642   3.079   2.529  0.3463 -0.0293  0.0958
 3930TIP3    H133349   0.578   3.081   2.458  1.8917  1.1236 -1.3381
 3930TIP3    H233350   0.701   3.153   2.511  1.5262 -0.4760  1.8669
 3931TIP3   OH233351   6.754   6.118   4.332 -0.6425 -0.7764  0.0800
 3931TIP3    H133352   6.764   6.148   4.242 -0.2885  0.1310  0.4012
 3931TIP3    H233353   6.728   6.197   4.380 -0.2728 -1.1229  0.8695
 3932TIP3   OH233354   1.724   5.005   3.675 -0.6547 -0.0215  0.2293
 3932TIP3    H133355   1.759   4.926   3.716  0.4003  0.6232  0.6329
 3932TIP3    H233356   1.680   4.974   3.596  1.8195 -0.8334 -0.9553
 3933TIP3   OH233357   1.963   4.398   2.375 -0.1184 -0.6354 -0.4617
 3933TIP3    H133358   1.996   4.353   2.298 -3.2207 -0.4829 -2.0106
 3933TIP3    H233359   1.938   4.327   2.435  0.3517 -0.8021 -0.4573
 3934TIP3   OH233360   0.050   1.082   8.182  0.0190  0.2275 -0.0944
 3934TIP3    H133361   0.113   1.093   8.253  0.0254 -1.0712  0.1257
 3934TIP3    H233362  -0.031   1.055   8.226 -0.9042  2.3598 -0.3170
 3935TIP3   OH233363   5.522   1.974   1.650  0.1297 -0.3041 -0.1256
 3935TIP3    H133364   5.585   1.912   1.614 -0.0231 -0.7435  0.3520
 3935TIP3    H233365   5.569   2.057   1.653  0.0937 -0.2099 -1.4847
 3936TIP3   OH233366   4.815   3.189   1.613  0.4577 -0.4002  0.0601
 3936TIP3    H133367   4.813   3.117   1.550  0.9688 -0.2524 -0.1380
 3936TIP3    H233368   4.762   3.159   1.687  0.4600 -0.8739 -0.1272
 3937TIP3   OH233369   4.279   1.515   1.024  0.1657 -0.0294  0.2268
 3937TIP3    H133370   4.245   1.449   0.963 -1.2639  2.3734 -1.7406
 3937TIP3    H233371   4.304   1.589   0.969  0.6706  1.5336  2.4152
 3938TIP3   OH233372   1.268   5.833   2.824 -0.1500 -0.7451 -0.4370
 3938TIP3    H133373   1.281   5.893   2.750 -0.2062  1.7061  1.4107
 3938TIP3    H233374   1.187   5.787   2.804 -1.8197  2.0728 -0.6037
 3939TIP3   OH233375   1.617   3.798   3.529 -0.4963 -0.4207 -0.2521
 3939TIP3    H133376   1.662   3.877   3.558  0.8936 -0.5904 -1.8121
 3939TIP3    H233377   1.552   3.782   3.597  0.3244  1.0893  0.9686
 3940TIP3   OH233378   6.305   1.579   0.819  0.0422  0.1857  0.9296
 3940TIP3    H133379   6.293   1.623   0.735 -1.7819  1.2019  1.6576
 3940TIP3    H233380   6.221   1.590   0.864  1.0428 -0.0654  3.0062
 3941TIP3   OH233381   2.129   6.888   3.145 -0.0321  0.3727 -0.4178
 3941TIP3    H133382   2.197   6.955   3.151  1.2861 -0.7610 -1.9217
 3941TIP3    H233383   2.050   6.938   3.121  1.2487  1.3324 -3.1561
 3942TIP3   OH233384   5.207   6.623   8.005  0.5832 -0.3097  0.0927
 3942TIP3    H133385   5.291   6.664   7.991  0.1123  1.0176  0.9740
 3942TIP3    H233386   5.147   6.668   7.946 -0.0150  0.6200  1.3454
 3943TIP3   OH233387   3.060   4.522   2.354  0.3342  0.1810 -0.1729
 3943TIP3    H133388   2.976   4.567   2.342 -0.4279 -1.5051 -1.5721
 3943TIP3    H233389   3.116   4.557   2.284 -0.1740 -0.8132 -1.0966
 3944TIP3   OH233390   3.646   5.267   2.054  0.3187  0.4098  0.9379
 3944TIP3    H133391   3.611   5.281   1.966  0.3663 -0.9592  0.6829
 3944TIP3    H233392   3.569   5.261   2.111  0.2358 -0.0675  0.7751
 3945TIP3   OH233393   2.694   3.295   2.992 -0.5097  0.0042 -0.4830
 3945TIP3    H133394   2.631   3.231   2.959 -0.6094  0.2519 -0.7758
 3945TIP3    H233395   2.659   3.380   2.965 -0.2588  0.1674 -0.2996
 3946TIP3   OH233396   6.099   0.790   1.311  0.1556  0.5673  0.4129
 3946TIP3    H133397   6.146   0.870   1.286 -2.3785  1.8741 -0.4790
 3946TIP3    H233398   6.076   0.804   1.403 -0.6940  1.1131  0.1277
 3947TIP3   OH233399   6.824   4.291   3.066 -0.0389  0.1737  1.0759
 3947TIP3    H133400   6.823   4.195   3.066  0.9502  0.0935 -1.2284
 3947TIP3    H233401   6.917   4.314   3.079  0.1436  0.6933 -0.8259
 3948TIP3   OH233402   2.027   0.436   4.354 -0.4092  0.1496 -0.3932
 3948TIP3    H133403   2.008   0.349   4.319  0.1464 -0.6774  1.3017
 3948TIP3    H233404   2.122   0.443   4.350 -0.2598 -0.2972  1.6553
 3949TIP3   OH233405   3.785   1.336   2.022  0.0524  0.2350 -0.1720
 3949TIP3    H133406   3.808   1.428   2.012 -0.6351  0.5215  0.7557
 3949TIP3    H233407   3.792   1.299   1.934  0.6105  1.0984 -0.5022
 3950TIP3   OH233408   0.573   4.245   4.181  0.0111 -0.1652 -0.2934
 3950TIP3    H133409   0.653   4.214   4.140 -0.1715 -0.3063 -0.5512
 3950TIP3    H233410   0.561   4.334   4.145  0.6714  0.3097  0.6436
 3951TIP3   OH233411   5.344   5.109   1.582 -0.5121 -0.0391 -0.7160
 3951TIP3    H133412   5.268   5.150   1.539 -1.4964 -0.7760  0.2625
 3951TIP3    H233413   5.417   5.126   1.523 -1.5286  0.2813 -1.9265
 3952TIP3   OH233414   5.012   2.042   2.301 -0.3124  0.0921 -0.0342
 3952TIP3    H133415   4.998   2.131   2.333  0.3593  0.1527  0.0935
 3952TIP3    H233416   5.075   2.004   2.361  0.1740 -0.1368 -0.6797
 3953TIP3   OH233417   3.602   2.657   0.830 -0.0991  0.0349 -0.2646
 3953TIP3    H133418   3.639   2.713   0.762 -0.4924 -0.2558 -0.7183
 3953TIP3    H233419   3.517   2.695   0.849 -1.0296 -1.2627 -1.6565
 3954TIP3   OH233420   3.247   0.614   2.996  0.6460 -0.5695  0.1555
 3954TIP3    H133421   3.319   0.601   2.934  1.1807  1.4747  0.2817
 3954TIP3    H233422   3.290   0.631   3.079 -0.0651 -2.8251  1.0784
 3955TIP3   OH233423   1.827   4.839   3.377 -0.3669  0.2631  0.5934
 3955TIP3    H133424   1.738   4.872   3.392 -1.0702  0.0194 -2.5215
 3955TIP3    H233425   1.882   4.918   3.377 -0.3711  0.3578  3.2077
 3956TIP3   OH233426   5.505   2.122   0.374  0.2482 -0.0066  0.0469
 3956TIP3    H133427   5.414   2.143   0.398  0.6240  1.2211  0.4553
 3956TIP3    H233428   5.519   2.170   0.292  0.3001 -0.8023 -0.4131
 3957TIP3   OH233429   0.776   3.427   3.838 -0.4239  0.5925  0.0152
 3957TIP3    H133430   0.784   3.495   3.905 -0.4620  0.2094  0.4191
 3957TIP3    H233431   0.682   3.405   3.838 -0.5229  1.0140 -0.5928
 3958TIP3   OH233432   0.061   0.544   3.723  0.0228 -0.6750  0.2637
 3958TIP3    H133433   0.137   0.600   3.736  0.9048 -2.2850  2.9179
 3958TIP3    H233434   0.011   0.551   3.805 -1.7481 -1.0440 -0.7238
 3959TIP3   OH233435   6.806   6.572   0.352 -0.0921  0.2884  0.0217
 3959TIP3    H133436   6.869   6.545   0.286 -0.9518  0.5676 -0.9370
 3959TIP3    H233437   6.737   6.617   0.303 -1.3619 -0.5748  0.9522
 3960TIP3   OH233438   2.567   0.255   2.731  0.0612 -0.5804  0.4701
 3960TIP3    H133439   2.642   0.307   2.758 -0.0306  0.9197 -1.8103
 3960TIP3    H233440   2.530   0.221   2.812  2.0487  0.2443  1.7961
 3961TIP3   OH233441   6.701   4.349   1.383 -0.2953 -0.1752  0.0614
 3961TIP3    H133442   6.640   4.276   1.391  0.2414 -0.6652 -0.2657
 3961TIP3    H233443   6.705   4.387   1.471  1.1827 -1.9687  0.8401
 3962TIP3   OH233444   6.144   4.241   4.072 -0.1332 -0.0040  0.2051
 3962TIP3    H133445   6.231   4.233   4.109 -0.7527  1.2350  2.0505
 3962TIP3    H233446   6.151   4.312   4.008 -0.2687  1.7755  2.0805
 3963TIP3   OH233447   4.767   5.027   0.133 -0.0623 -0.1376 -0.2590
 3963TIP3    H133448   4.811   4.942   0.125 -1.8508 -1.0343 -1.1501
 3963TIP3    H233449   4.682   5.014   0.092 -1.0813  1.6084  1.1598
 3964TIP3   OH233450   1.658   2.249   3.226 -0.1704 -0.3482 -0.2397
 3964TIP3    H133451   1.680   2.200   3.147 -1.3573  1.1879 -1.5883
 3964TIP3    H233452   1.729   2.312   3.237 -0.6852  0.3701 -0.9214
 3965TIP3   OH233453   0.437   4.203   2.529 -0.1333 -0.6671 -0.1831
 3965TIP3    H133454   0.421   4.204   2.435 -1.0828  0.0774 -0.0308
 3965TIP3    H233455   0.382   4.132   2.562  1.4069 -1.9980 -0.3596
 3966TIP3   OH233456   2.696   4.831   3.607 -0.2145 -0.1892 -0.1848
 3966TIP3    H133457   2.767   4.772   3.580 -0.0398  0.3744 -0.9683
 3966TIP3    H233458   2.660   4.865   3.525 -2.6383 -1.8712  0.0800
 3967TIP3   OH233459   2.364   5.672   0.560 -0.0097 -0.2155 -0.3125
 3967TIP3    H133460   2.351   5.635   0.647 -1.4088 -1.4931 -1.0052
 3967TIP3    H233461   2.397   5.599   0.508  0.9025  0.5562 -0.8457
 3968TIP3   OH233462   3.974   5.812   2.709  0.0443  0.3877  0.0446
 3968TIP3    H133463   3.995   5.720   2.690  0.4648  0.8695 -2.1208
 3968TIP3    H233464   4.058   5.857   2.706 -0.3487  1.1140 -0.8656
 3969TIP3   OH233465   0.505   5.559   2.280 -0.0656 -0.8767  0.1063
 3969TIP3    H133466   0.555   5.480   2.261  0.6316 -0.8867  1.8042
 3969TIP3    H233467   0.486   5.597   2.194  0.4920 -2.3234 -0.6825
 3970TIP3   OH233468   2.546   5.340   1.254  0.4513 -0.2631 -0.5873
 3970TIP3    H133469   2.635   5.346   1.290 -0.4304  0.4776  1.6023
 3970TIP3    H233470   2.549   5.263   1.197  2.3141 -0.6802 -0.0113
 3971TIP3   OH233471   0.200   5.368   0.916 -0.5927 -0.1984  0.0633
 3971TIP3    H133472   0.202   5.403   0.827 -0.2079  0.7284  0.4242
 3971TIP3    H233473   0.192   5.445   0.972  0.7074 -0.6420  0.9083
 3972TIP3   OH233474   1.488   3.564   2.748 -0.1537 -0.8360  0.2362
 3972TIP3    H133475   1.455   3.527   2.666  0.1333 -0.6885  0.0526
 3972TIP3    H233476   1.483   3.492   2.811  0.2093 -1.1256 -0.0679
 3973TIP3   OH233477   4.903   2.481   1.165 -0.0673 -0.0652  0.2318
 3973TIP3    H133478   4.967   2.434   1.218  1.3869  0.0246 -1.3867
 3973TIP3    H233479   4.881   2.421   1.094 -2.1115 -0.2487  0.9353
 3974TIP3   OH233480   3.953   5.437   0.600  0.4769 -0.0060  0.6473
 3974TIP3    H133481   4.027   5.386   0.633  1.5102  2.1686  1.8631
 3974TIP3    H233482   3.992   5.518   0.566 -1.2161  0.5964  0.0184
 3975TIP3   OH233483   3.100   0.437   3.812  0.0268 -0.2578 -0.1607
 3975TIP3    H133484   3.081   0.510   3.871 -0.0516 -1.0286  0.8003
 3975TIP3    H233485   3.155   0.378   3.864  0.2763 -0.7812 -0.9942
 3976TIP3   OH233486   4.176   0.338   1.073  0.0569 -1.0382 -0.4579
 3976TIP3    H133487   4.187   0.254   1.118 -1.4399 -0.7517  0.5443
 3976TIP3    H233488   4.084   0.338   1.046  0.3672 -0.2396 -1.5495
 3977TIP3   OH233489   0.263   1.582   0.200 -0.2995 -0.0974 -0.1894
 3977TIP3    H133490   0.208   1.531   0.261 -1.0184  0.9792  0.0893
 3977TIP3    H233491   0.244   1.673   0.222  0.1364  0.2988 -1.4174
 3978TIP3   OH233492   1.289   2.199   0.687 -0.2195 -0.8487  0.0423
 3978TIP3    H133493   1.297   2.180   0.781  1.4574 -0.4876  0.0053
 3978TIP3    H233494   1.379   2.195   0.654 -0.7078 -0.3312 -1.4319
 3979TIP3   OH233495   0.825   1.700   3.004  0.3537 -0.4292  0.3931
 3979TIP3    H133496   0.916   1.723   3.025  0.8009 -1.1075 -0.6924
 3979TIP3    H233497   0.774   1.775   3.034  1.2281 -0.1957  1.3584
 3980TIP3   OH233498   4.530   0.867   1.121  0.4767  0.0141 -0.3224
 3980TIP3    H133499   4.496   0.799   1.179  0.1916 -1.0083 -1.6508
 3980TIP3    H233500   4.623   0.872   1.141  0.6865 -1.4361 -0.8345
 3981TIP3   OH233501   1.927   0.200   3.438 -0.5936 -0.4091  0.2619
 3981TIP3    H133502   1.910   0.242   3.522 -0.6121 -0.8447  0.4761
 3981TIP3    H233503   1.898   0.110   3.450  1.2751 -1.0227  0.4400
 3982TIP3   OH233504   0.612   4.261   0.612  0.0637 -0.5124  0.4143
 3982TIP3    H133505   0.640   4.330   0.553  2.6342  0.2975  2.4066
 3982TIP3    H233506   0.622   4.180   0.562  0.6637  0.2582 -0.7413
 3983TIP3   OH233507   3.400   6.250   3.506  0.3736 -0.2759  0.8252
 3983TIP3    H133508   3.441   6.330   3.472 -2.5230  1.4565  1.0494
 3983TIP3    H233509   3.426   6.182   3.445  2.7550  0.8202  0.4676
 3984TIP3   OH233510   2.747   3.328   3.804  0.2933 -0.9022  0.0757
 3984TIP3    H133511   2.712   3.241   3.792 -1.2233 -0.3127  0.0427
 3984TIP3    H233512   2.676   3.378   3.845  1.2996  0.1825  0.5855
 3985TIP3   OH233513   3.618   4.439   2.661  0.3113 -0.1800  0.1156
 3985TIP3    H133514   3.565   4.409   2.735  0.4096 -0.0934  0.2227
 3985TIP3    H233515   3.665   4.515   2.695 -1.1912  1.1343 -0.6444
 3986TIP3   OH233516   3.308   0.745   3.516 -0.1991 -0.0300 -0.1290
 3986TIP3    H133517   3.231   0.755   3.572  0.0399  1.9582 -0.0602
 3986TIP3    H233518   3.284   0.790   3.435  0.9054  0.6883 -0.0764
 3987TIP3   OH233519   2.484   2.638   0.145 -0.0107 -0.6782  0.1011
 3987TIP3    H133520   2.439   2.558   0.173  0.6274 -1.1688 -0.2396
 3987TIP3    H233521   2.428   2.674   0.076  0.0558 -1.2315 -0.2528
 3988TIP3   OH233522   4.987   3.829   0.364 -0.0901 -0.6660  0.0858
 3988TIP3    H133523   5.057   3.880   0.321 -0.8258  0.9505  0.7342
 3988TIP3    H233524   4.915   3.891   0.375 -0.9057 -1.7611  1.2524
 3989TIP3   OH233525   4.860   1.941   0.278  0.0305  0.2352  0.7007
 3989TIP3    H133526   4.776   1.896   0.287  0.9162 -1.4237  1.0545
 3989TIP3    H233527   4.900   1.901   0.201 -0.6176  2.9580 -1.1914
 3990TIP3   OH233528   3.088   0.906   4.492 -0.0026 -0.2823 -0.0311
 3990TIP3    H133529   3.085   0.931   4.400  1.5197  0.1020 -0.0031
 3990TIP3    H233530   3.021   0.838   4.501 -0.7952  0.3276 -1.2061
 3991TIP3   OH233531   3.298   1.251   2.183  0.1692  0.1317 -0.0796
 3991TIP3    H133532   3.352   1.190   2.132 -0.0859  0.8805 -1.2821
 3991TIP3    H233533   3.252   1.195   2.246 -1.1033 -1.1777 -2.0285
 3992TIP3   OH233534   1.491   3.799   4.210  0.4859 -0.2830  0.4684
 3992TIP3    H133535   1.555   3.860   4.173 -1.7948  2.7309  1.0673
 3992TIP3    H233536   1.475   3.736   4.141  0.7761  1.6224 -1.4606
 3993TIP3   OH233537   5.695   1.871   3.563 -0.2921 -0.2693  0.6844
 3993TIP3    H133538   5.646   1.847   3.484  1.4114 -1.2556 -0.1231
 3993TIP3    H233539   5.635   1.852   3.635 -0.8653 -2.0801 -0.2234
 3994TIP3   OH233540   3.273   1.432   3.979  0.5495  0.0742  0.1594
 3994TIP3    H133541   3.304   1.518   4.008  2.0457 -0.6251  0.7259
 3994TIP3    H233542   3.198   1.414   4.036  0.0440  1.1195 -0.1594
 3995TIP3   OH233543   4.946   1.104   1.106  0.2652  0.2111  0.1625
 3995TIP3    H133544   4.938   1.088   1.012 -0.1433  0.8895  0.0698
 3995TIP3    H233545   5.033   1.144   1.116  0.2830  0.1979  0.0631
 3996TIP3   OH233546   0.976   0.797   2.052  0.3582 -0.2089 -0.3490
 3996TIP3    H133547   0.928   0.841   1.982  2.0840  1.0857 -0.8012
 3996TIP3    H233548   1.040   0.742   2.006  1.0234  0.0960  0.1832
 3997TIP3   OH233549   4.233   5.960   8.181 -0.2237 -0.1726  0.5549
 3997TIP3    H133550   4.160   5.984   8.124 -0.8867 -1.4324  0.8485
 3997TIP3    H233551   4.213   5.871   8.210  0.6373  0.0453  1.9034
 3998TIP3   OH233552   4.267   1.271   1.233 -0.3226 -0.1293 -0.1847
 3998TIP3    H133553   4.354   1.276   1.194 -0.4717 -0.6256 -0.5942
 3998TIP3    H233554   4.253   1.178   1.250  0.0349  0.1286  1.7516
 3999TIP3   OH233555   1.072   2.864   1.015 -0.0432  0.0231 -0.1356
 3999TIP3    H133556   1.149   2.858   0.958  0.7802  2.3034  0.6256
 3999TIP3    H233557   1.084   2.792   1.077  1.4615  0.2928 -0.0697
 4000TIP3   OH233558   2.788   4.153   2.179  0.2449 -0.1660 -0.0420
 4000TIP3    H133559   2.850   4.091   2.140  1.8917  0.9013  0.7873
 4000TIP3    H233560   2.771   4.217   2.110  1.2756  0.3684  0.1715
 4001TIP3   OH233561   2.006   2.183   1.160 -0.7606  0.3529  0.4864
 4001TIP3    H133562   1.983   2.179   1.253 -1.4108  2.8254  0.4884
 4001TIP3    H233563   2.083   2.127   1.152 -0.9636 -0.2611  2.4233
 4002TIP3   OH233564   6.714   5.888   3.055 -0.2674 -0.2174  0.0419
 4002TIP3    H133565   6.628   5.852   3.033  0.3544 -1.9180  0.2748
 4002TIP3    H233566   6.760   5.816   3.098  1.0945  0.8324  0.4169
 4003TIP3   OH233567   5.967   2.606   0.894 -0.3040 -0.5422 -0.5271
 4003TIP3    H133568   5.950   2.665   0.968 -1.0447  0.6810 -1.6375
 4003TIP3    H233569   5.894   2.545   0.894  0.4419 -1.4885  0.6000
 4004TIP3   OH233570   6.187   2.289   3.381 -0.0056 -0.0027 -0.4895
 4004TIP3    H133571   6.143   2.364   3.422  0.0122  0.2081 -0.8525
 4004TIP3    H233572   6.239   2.251   3.451  0.4667  0.6948 -0.4550
 4005TIP3   OH233573   4.089   5.813   3.119  0.0381  0.1936 -0.1586
 4005TIP3    H133574   4.149   5.887   3.120 -0.0418  0.2560  0.5207
 4005TIP3    H233575   4.002   5.853   3.122 -0.0096  0.0778 -0.0033
 4006TIP3   OH233576   6.161   1.163   3.175 -0.2068  0.5755  0.6434
 4006TIP3    H133577   6.169   1.235   3.112  1.5458 -0.2942 -0.2000
 4006TIP3    H233578   6.100   1.102   3.134 -0.8185  1.0424  0.8438
 4007TIP3   OH233579   5.153   6.759   0.315 -0.6060 -0.8869  0.3615
 4007TIP3    H133580   5.078   6.811   0.288 -0.7552 -2.2525 -2.1797
 4007TIP3    H233581   5.159   6.689   0.250  3.4319 -0.3172 -0.1611
 4008TIP3   OH233582   1.891   6.726   1.322 -0.2983  0.0486 -0.5027
 4008TIP3    H133583   1.953   6.661   1.354 -1.1449  0.2261  1.6784
 4008TIP3    H233584   1.837   6.680   1.258 -0.2885 -1.1338  0.3243
 4009TIP3   OH233585   6.482   5.832   1.242 -0.7975  0.3571 -0.3674
 4009TIP3    H133586   6.548   5.809   1.307 -0.9091  2.5543  0.6092
 4009TIP3    H233587   6.493   5.766   1.172  3.3248  1.3487 -0.9271
 4010TIP3   OH233588   5.490   3.362   1.497 -0.4324 -0.0167  0.0061
 4010TIP3    H133589   5.417   3.414   1.530  0.0505  0.5659  0.1793
 4010TIP3    H233590   5.514   3.305   1.570  1.5738  2.2629  1.3120
 4011TIP3   OH233591   6.673   5.662   2.880 -0.0827  0.1453 -0.1625
 4011TIP3    H133592   6.735   5.685   2.949  0.2954 -0.2759 -0.3531
 4011TIP3    H233593   6.728   5.628   2.809 -0.5126 -0.0187 -0.4215
 4012TIP3   OH233594   6.251   1.891   0.679  0.0782 -0.2913  0.2229
 4012TIP3    H133595   6.313   1.856   0.614 -0.4456 -3.0707  1.0762
 4012TIP3    H233596   6.305   1.948   0.734  0.9114  0.7240 -1.5505
 4013TIP3   OH233597   1.970   4.890   1.751 -0.2766 -0.3425 -0.4220
 4013TIP3    H133598   2.038   4.823   1.752 -0.6422 -0.7572 -1.4931
 4013TIP3    H233599   2.007   4.963   1.800  1.3836 -0.1556 -1.8493
 4014TIP3   OH233600   2.356   6.160   1.906  0.0292 -0.2818 -0.3175
 4014TIP3    H133601   2.293   6.104   1.860  0.0504  0.4042 -1.1992
 4014TIP3    H233602   2.312   6.182   1.988  0.0015 -1.5437  0.0269
 4015TIP3   OH233603   6.543   5.220   1.016 -0.5984  0.0358 -0.4111
 4015TIP3    H133604   6.545   5.158   0.943 -0.6320 -1.0841  0.5195
 4015TIP3    H233605   6.609   5.188   1.077 -0.2893  1.1829 -0.1104
 4016TIP3   OH233606   4.101   3.743   2.580  0.1269  0.2388 -0.0757
 4016TIP3    H133607   4.058   3.823   2.548  4.2279  1.1504 -4.3952
 4016TIP3    H233608   4.157   3.774   2.651 -0.3043  0.6681  0.0843
 4017TIP3   OH233609   5.019   1.298   1.530  0.2204  0.2263  0.0757
 4017TIP3    H133610   5.096   1.250   1.500 -0.6593 -0.9478 -0.3795
 4017TIP3    H233611   5.011   1.275   1.623 -0.6828 -1.2230 -0.3408
 4018TIP3   OH233612   3.356   3.177   3.146 -0.2618  1.0147  0.5906
 4018TIP3    H133613   3.394   3.213   3.226  0.9057  1.0855  0.0296
 4018TIP3    H233614   3.321   3.091   3.171  0.2091  0.9806  1.1351
 4019TIP3   OH233615   0.875   0.678   1.651 -0.4451  0.2500 -0.0126
 4019TIP3    H133616   0.823   0.721   1.583 -2.4974 -0.1595  1.2071
 4019TIP3    H233617   0.884   0.588   1.621 -1.4611  0.0367  0.2848
 4020TIP3   OH233618   1.882   2.295   1.679 -0.2631 -0.8042  0.2960
 4020TIP3    H133619   1.863   2.383   1.647 -0.0281 -1.1869 -0.9161
 4020TIP3    H233620   1.887   2.306   1.774  1.3793  0.8108  0.0783
 4021TIP3   OH233621   5.332   4.570   4.007  0.0745 -0.2878  0.1181
 4021TIP3    H133622   5.366   4.625   3.936 -1.1941 -0.4474 -0.6397
 4021TIP3    H233623   5.393   4.496   4.011  0.7588  0.2525 -0.0820
 4022TIP3   OH233624   0.132   5.127   0.710  0.3109  0.0139 -0.1000
 4022TIP3    H133625   0.095   5.081   0.634  0.0061  0.2840 -0.1147
 4022TIP3    H233626   0.169   5.207   0.674 -0.4937  0.5008  0.1377
 4023TIP3   OH233627   2.622   2.770   1.253  0.8217 -0.0218  0.0462
 4023TIP3    H133628   2.695   2.717   1.284 -2.1271 -2.8625  2.9248
 4023TIP3    H233629   2.615   2.841   1.317  1.0091  0.1780 -0.1566
 4024TIP3   OH233630   1.400   5.530   2.801 -0.2677 -0.1750  0.2415
 4024TIP3    H133631   1.444   5.572   2.727 -0.1979 -1.7032 -0.6311
 4024TIP3    H233632   1.466   5.529   2.870  0.2097 -0.1244 -0.2021
 4025TIP3   OH233633   2.670   4.776   0.675  0.9336 -0.0638 -0.3838
 4025TIP3    H133634   2.729   4.701   0.673 -0.9860 -1.6582 -1.5341
 4025TIP3    H233635   2.594   4.745   0.724 -1.2609 -0.0966 -3.5348
 4026TIP3   OH233636   4.228   5.602   3.570 -0.1582  0.5774  0.0868
 4026TIP3    H133637   4.254   5.568   3.656 -0.1475  2.1203  0.7279
 4026TIP3    H233638   4.187   5.687   3.589 -0.5382  0.7599 -1.4035
 4027TIP3   OH233639   3.391   3.252   2.875 -0.1713 -0.2647  0.0954
 4027TIP3    H133640   3.349   3.229   2.958 -0.8102 -1.6752 -0.5734
 4027TIP3    H233641   3.351   3.192   2.811  0.1344  0.9400 -1.2721
 4028TIP3   OH233642   2.259   0.313   0.157  0.1821  0.0026  0.4676
 4028TIP3    H133643   2.302   0.229   0.175 -2.4109 -1.0402  2.3023
 4028TIP3    H233644   2.312   0.377   0.204  0.2676 -1.1159  1.9895
 4029TIP3   OH233645   3.045   6.484   0.485  0.0885  0.6336  0.1159
 4029TIP3    H133646   3.105   6.499   0.559  1.7679  2.4905 -1.5134
 4029TIP3    H233647   2.964   6.527   0.511  0.1304 -0.0531  1.4824
 4030TIP3   OH233648   2.568   5.045   1.218 -0.2757 -0.3347  0.0715
 4030TIP3    H133649   2.606   5.031   1.305 -0.0681 -1.6906 -0.2079
 4030TIP3    H233650   2.499   4.979   1.212 -0.8788  0.3323 -0.4635
 4031TIP3   OH233651   4.103   3.345   1.774  0.6234  0.4781 -0.9495
 4031TIP3    H133652   4.138   3.431   1.754  0.0193  1.3651  1.5151
 4031TIP3    H233653   4.008   3.357   1.777  0.6232  0.2599  1.4378
 4032TIP3   OH233654   0.703   4.749   4.111 -0.1829 -0.2943 -0.7260
 4032TIP3    H133655   0.716   4.790   4.026  1.0879  1.6271  0.3167
 4032TIP3    H233656   0.732   4.815   4.175 -0.2286 -1.9827  1.1639
 4033TIP3   OH233657   5.000   3.498   4.286 -0.0130 -0.2121 -0.4374
 4033TIP3    H133658   4.938   3.470   4.218 -1.1855 -1.0557  0.9382
 4033TIP3    H233659   5.066   3.429   4.288 -0.1362 -0.3343 -0.5262
 4034TIP3   OH233660   2.343   5.782   2.103  0.0920  0.1740 -0.2849
 4034TIP3    H133661   2.276   5.849   2.095 -1.4693 -1.2303  0.4321
 4034TIP3    H233662   2.396   5.809   2.177  0.2757  1.2327 -0.7784
 4035TIP3   OH233663   5.005   1.975   3.292  0.0208 -0.1581  0.1012
 4035TIP3    H133664   4.926   2.028   3.281  0.1293 -0.1771 -0.8711
 4035TIP3    H233665   4.975   1.899   3.343 -0.6170 -0.2004 -0.3118
 4036TIP3   OH233666   3.573   3.762   2.493  0.2216 -0.5107  0.2276
 4036TIP3    H133667   3.641   3.730   2.434  0.0556 -1.8637  0.7524
 4036TIP3    H233668   3.619   3.781   2.575  0.3417  0.7710 -0.1098
 4037TIP3   OH233669   1.759   3.654   0.387  0.4440  0.5367  0.0960
 4037TIP3    H133670   1.733   3.568   0.419 -0.0932  1.0976  1.2385
 4037TIP3    H233671   1.852   3.646   0.367  0.2840 -0.4360 -0.2733
 4038TIP3   OH233672   6.233   4.303   0.546 -0.5092 -0.9483  0.0511
 4038TIP3    H133673   6.244   4.397   0.560 -1.7346 -0.6810 -0.6075
 4038TIP3    H233674   6.147   4.284   0.583 -1.3567 -1.3055 -1.9720
 4039TIP3   OH233675   5.688   2.589   1.377 -0.1854 -0.2840 -0.4279
 4039TIP3    H133676   5.742   2.608   1.453  1.8713 -1.2636 -1.5318
 4039TIP3    H233677   5.678   2.673   1.332 -1.5066  0.3171  0.9251
 4040TIP3   OH233678   2.775   0.393   2.838  0.2354  0.1115  0.8939
 4040TIP3    H133679   2.869   0.398   2.853  0.3573 -1.1960  0.6672
 4040TIP3    H233680   2.736   0.448   2.906  1.1347  0.2155  1.3298
 4041TIP3   OH233681   0.934   0.344   3.910 -0.0369  0.1677 -0.1762
 4041TIP3    H133682   0.905   0.279   3.974 -1.1206  2.0367  1.3596
 4041TIP3    H233683   1.022   0.369   3.940  0.1728 -0.2271 -0.4636
 4042TIP3   OH233684   4.405   0.818   0.195 -0.0783  1.0294  0.4587
 4042TIP3    H133685   4.324   0.817   0.246  1.2119 -1.9607  2.7301
 4042TIP3    H233686   4.380   0.860   0.112 -3.6531  1.1543  1.4141
 4043TIP3   OH233687   6.559   6.080   2.658  0.1827 -0.0750 -0.5109
 4043TIP3    H133688   6.550   6.107   2.750 -1.7730 -0.0401 -0.6698
 4043TIP3    H233689   6.613   6.001   2.662 -0.8267 -0.7455  0.8277
 4044TIP3   OH233690   6.899   3.719   2.351 -0.0178  0.0402  0.8456
 4044TIP3    H133691   6.972   3.686   2.299  2.3270  2.4935  2.3397
 4044TIP3    H233692   6.914   3.683   2.438 -0.1663  1.0974  1.3240
 4045TIP3   OH233693   1.716   0.731   0.851  0.0127  0.0128  0.4202
 4045TIP3    H133694   1.639   0.786   0.857  1.3905  2.0398  0.3363
 4045TIP3    H233695   1.699   0.673   0.776 -0.9876  1.1316 -0.2432
 4046TIP3   OH233696   3.456   0.178   2.837  0.6368 -0.1384 -0.5526
 4046TIP3    H133697   3.362   0.189   2.851  0.5813  0.1280 -1.1274
 4046TIP3    H233698   3.472   0.085   2.855  0.0712 -0.4313 -1.5228
 4047TIP3   OH233699   3.868   6.171   2.105  0.1050  0.1183  0.1670
 4047TIP3    H133700   3.841   6.263   2.105  0.9569  0.3845 -0.7580
 4047TIP3    H233701   3.950   6.171   2.154 -0.3534 -0.3092  0.9546
 4048TIP3   OH233702   6.459   4.176   1.339 -0.1871 -0.1130 -0.8248
 4048TIP3    H133703   6.383   4.165   1.397  0.2454 -0.3491 -0.2897
 4048TIP3    H233704   6.422   4.207   1.256 -0.7672  0.7314 -0.2643
 4049TIP3   OH233705   2.873   6.576   1.799 -0.0404  0.2754 -0.2792
 4049TIP3    H133706   2.829   6.635   1.860 -1.5421 -0.8084 -0.2586
 4049TIP3    H233707   2.805   6.552   1.736  0.5667 -1.3115 -0.3690
 4050TIP3   OH233708   4.153   0.108   2.061  0.6396 -0.1752 -0.2409
 4050TIP3    H133709   4.157   0.091   2.155 -0.8738  2.7492  0.4724
 4050TIP3    H233710   4.177   0.200   2.051 -0.6167  0.0015 -2.5273
 4051TIP3   OH233711   2.465   6.812   2.573  0.3018 -0.1463 -0.3555
 4051TIP3    H133712   2.444   6.724   2.543 -0.2573  0.0794 -0.6559
 4051TIP3    H233713   2.521   6.799   2.649  0.0984 -0.7629 -0.3058
 4052TIP3   OH233714   6.103   5.840   2.132  0.1436 -0.2997 -0.3204
 4052TIP3    H133715   6.139   5.755   2.105  0.6188 -0.3161  0.3375
 4052TIP3    H233716   6.040   5.819   2.201 -0.5857 -0.2050 -0.9474
 4053TIP3   OH233717   1.862   5.198   1.054 -0.4976 -0.1813 -0.0951
 4053TIP3    H133718   1.929   5.179   0.989  0.3909  0.1425  0.7014
 4053TIP3    H233719   1.888   5.282   1.092  0.9241 -1.8058  2.9711
 4054TIP3   OH233720   6.369   0.308   1.562 -0.1120  0.1478  0.0503
 4054TIP3    H133721   6.299   0.336   1.622 -1.8571  0.8182 -2.1459
 4054TIP3    H233722   6.395   0.389   1.517  1.5325 -0.2505  0.2355
 4055TIP3   OH233723   1.896   4.306   0.601 -0.1683 -0.1698 -0.9846
 4055TIP3    H133724   1.901   4.214   0.626  1.3253  0.3746  0.9909
 4055TIP3    H233725   1.958   4.314   0.528  0.3430 -0.5938 -0.6121
 4056TIP3   OH233726   5.450   6.180   2.532  0.6064 -0.2897 -0.3503
 4056TIP3    H133727   5.426   6.186   2.625  0.3754  1.2736 -0.4756
 4056TIP3    H233728   5.367   6.167   2.486  0.6228 -0.2564 -0.3898
 4057TIP3   OH233729   3.752   2.470   3.897  0.4480 -0.3899 -0.4495
 4057TIP3    H133730   3.800   2.500   3.820  3.2868  0.5687  1.5084
 4057TIP3    H233731   3.775   2.377   3.904  3.9868  0.4500  1.5469
 4058TIP3   OH233732   0.365   5.611   0.659  0.2195  0.7913 -0.6202
 4058TIP3    H133733   0.284   5.659   0.643  1.0564  2.7060  0.4763
 4058TIP3    H233734   0.434   5.668   0.626  1.1326 -1.3406 -2.6943
 4059TIP3   OH233735   1.871   1.111   1.119 -0.2414  0.0822  0.3782
 4059TIP3    H133736   1.912   1.064   1.046  1.7404 -2.0286  2.6766
 4059TIP3    H233737   1.918   1.195   1.122 -1.3441  0.8396 -1.5571
 4060TIP3   OH233738   4.988   1.300   4.363 -0.3512  0.1170 -0.3097
 4060TIP3    H133739   5.033   1.307   4.279 -0.6684  1.3457 -0.3903
 4060TIP3    H233740   4.924   1.229   4.350 -0.0582 -0.0360 -0.9394
 4061TIP3   OH233741   2.273   3.527   1.001 -0.6722 -0.4502 -0.4014
 4061TIP3    H133742   2.231   3.562   0.923  0.4436  0.2120 -0.7225
 4061TIP3    H233743   2.248   3.435   1.002 -1.4042 -0.2682 -1.0551
 4062TIP3   OH233744   0.551   3.713   3.997 -0.2399  0.6612  0.1553
 4062TIP3    H133745   0.635   3.735   3.958  0.2421  0.1164  0.8726
 4062TIP3    H233746   0.551   3.759   4.081  0.8626 -2.0821  1.7759
 4063TIP3   OH233747   4.648   0.468   2.721 -0.1931  0.0764 -0.0651
 4063TIP3    H133748   4.688   0.381   2.727 -0.0944  0.1598  0.5084
 4063TIP3    H233749   4.640   0.484   2.627  1.5202  0.2281 -0.2203
 4064TIP3   OH233750   1.780   1.050   1.401 -0.4847 -0.4508 -0.1477
 4064TIP3    H133751   1.828   0.985   1.451 -1.1486 -1.3809 -0.6912
 4064TIP3    H233752   1.825   1.054   1.317  0.6757  1.1623  0.5086
 4065TIP3   OH233753   5.707   2.327   2.353  0.0740  0.3266  0.0494
 4065TIP3    H133754   5.756   2.346   2.432  2.8677 -0.0161 -1.4835
 4065TIP3    H233755   5.714   2.232   2.343  0.8814  0.4968 -1.2489
 4066TIP3   OH233756   2.582   6.721   2.344 -0.1281  0.4316 -0.1498
 4066TIP3    H133757   2.524   6.778   2.394 -1.8781  0.1873 -1.7671
 4066TIP3    H233758   2.666   6.767   2.342 -0.5233  1.2821  1.4368
 4067TIP3   OH233759   2.748   4.065   0.804  0.1432 -0.4255  0.0995
 4067TIP3    H133760   2.661   4.028   0.815  0.1620 -0.7024 -0.6102
 4067TIP3    H233761   2.794   4.002   0.749  0.6282 -0.0322  0.0472
 4068TIP3   OH233762   5.912   6.805   0.386 -0.5597  0.2599 -0.6088
 4068TIP3    H133763   6.008   6.806   0.395 -0.3747 -1.7043 -1.7028
 4068TIP3    H233764   5.898   6.789   0.292 -1.8858 -1.7763 -0.1308
 4069TIP3   OH233765   1.973   5.875   3.753  0.7345  0.0017  0.6006
 4069TIP3    H133766   1.916   5.873   3.830 -1.6995 -0.8144 -1.1029
 4069TIP3    H233767   2.051   5.825   3.779 -0.4667 -1.1331  2.2004
 4070TIP3   OH233768   4.020   3.050   3.536  0.3344  0.4402  0.2496
 4070TIP3    H133769   3.956   3.111   3.572  1.6392  1.5923  0.6819
 4070TIP3    H233770   3.983   3.023   3.452 -2.0042 -1.0610  1.6570
 4071TIP3   OH233771   6.906   0.919   2.900 -0.0163  0.4224 -0.1818
 4071TIP3    H133772   6.908   0.831   2.862 -0.5854 -0.2799  1.3241
 4071TIP3    H233773   6.823   0.956   2.869 -0.1254  0.1442 -0.2307
 4072TIP3   OH233774   3.018   3.220   0.068 -0.6573  0.2568 -0.2204
 4072TIP3    H133775   2.965   3.283   0.019 -1.1205  0.5724  0.6690
 4072TIP3    H233776   3.107   3.253   0.061 -0.8013  0.6193 -0.3640
 4073TIP3   OH233777   3.887   1.135   0.275 -0.4121 -0.2842  0.1678
 4073TIP3    H133778   3.981   1.153   0.272 -0.5740  0.4756 -0.5994
 4073TIP3    H233779   3.880   1.044   0.247  0.0084  0.0106 -0.9360
 4074TIP3   OH233780   0.993   5.269   2.597 -0.0562 -0.0257 -0.3157
 4074TIP3    H133781   0.916   5.325   2.591  1.0708  1.4254 -2.4710
 4074TIP3    H233782   1.063   5.329   2.625  0.4228 -1.2395  1.2333
 4075TIP3   OH233783   1.423   4.535   1.202  0.3379 -0.3284  0.3359
 4075TIP3    H133784   1.471   4.569   1.277  1.6529 -1.3187 -0.0231
 4075TIP3    H233785   1.430   4.603   1.135 -1.6390  0.9788  1.3566
 4076TIP3   OH233786   3.034   6.407   3.786  0.2101  0.1595 -0.4332
 4076TIP3    H133787   2.968   6.360   3.734  0.0297  0.2626 -0.3002
 4076TIP3    H233788   2.983   6.471   3.836  0.1109 -1.2422  1.3950
 4077TIP3   OH233789   3.909   5.632   2.401  0.0054  0.0696 -0.1591
 4077TIP3    H133790   3.890   5.573   2.328 -0.1603  0.0597 -0.1092
 4077TIP3    H233791   3.871   5.716   2.374  0.1195  0.1163 -0.1709
 4078TIP3   OH233792   4.241   5.166   8.190 -0.4047  0.0064 -0.7250
 4078TIP3    H133793   4.226   5.185   8.097  1.0166  0.3729 -0.8926
 4078TIP3    H233794   4.244   5.070   8.194 -0.2152 -0.0065 -1.0932
 4079TIP3   OH233795   4.251   3.005   1.537  0.5543  0.0601 -0.3645
 4079TIP3    H133796   4.170   2.955   1.528  0.0132  0.7908  0.3540
 4079TIP3    H233797   4.303   2.980   1.460 -0.5245 -0.0882 -1.0607
 4080TIP3   OH233798   0.205   0.633   0.813 -0.2584 -0.3097 -0.0766
 4080TIP3    H133799   0.137   0.624   0.880 -0.1496  0.0592  0.0878
 4080TIP3    H233800   0.203   0.726   0.790 -0.3562 -0.4547 -0.6506
 4081TIP3   OH233801   0.126   4.657   0.443 -0.0994  0.6657  0.2087
 4081TIP3    H133802   0.149   4.641   0.535 -1.1854  2.0550  0.7627
 4081TIP3    H233803   0.053   4.598   0.425  2.3026 -2.2115 -0.9154
 4082TIP3   OH233804   5.360   1.075   1.907 -0.0734  0.3285  0.1985
 4082TIP3    H133805   5.356   1.161   1.950 -1.1791 -0.1384  1.0858
 4082TIP3    H233806   5.300   1.083   1.833 -2.5889 -0.5271  1.9914
 4083TIP3   OH233807   2.927   5.350   3.277 -0.4025  0.1673  0.1498
 4083TIP3    H133808   2.842   5.312   3.254 -0.0226  0.2811 -1.5440
 4083TIP3    H233809   2.925   5.355   3.373 -2.8277  1.3848  0.1117
 4084TIP3   OH233810   5.289   6.645   1.528  0.5391  0.2046  0.0226
 4084TIP3    H133811   5.378   6.617   1.509  0.7735 -1.6832  3.2764
 4084TIP3    H233812   5.239   6.564   1.539 -0.9467  1.1881  0.8976
 4085TIP3   OH233813   4.527   1.940   4.794 -0.4720 -0.1972 -0.0956
 4085TIP3    H133814   4.513   1.914   4.703  2.8933  0.2068 -0.8762
 4085TIP3    H233815   4.537   1.857   4.841  1.6516 -0.4937 -0.9339
 4086TIP3   OH233816   1.509   2.416   1.947  0.3550 -0.5860 -0.3817
 4086TIP3    H133817   1.556   2.400   2.029  2.3048  2.4212 -0.7194
 4086TIP3    H233818   1.422   2.444   1.974  0.5951 -0.7665  0.6166
 4087TIP3   OH233819   6.952   6.732   1.424 -0.1251 -0.3212  0.1041
 4087TIP3    H133820   6.914   6.805   1.375  0.6724 -0.2555 -0.4294
 4087TIP3    H233821   7.037   6.716   1.382  0.5239 -0.3497  1.3839
 4088TIP3   OH233822   0.587   6.588   3.260  0.9658  0.1187  0.1908
 4088TIP3    H133823   0.566   6.673   3.299 -1.0037  0.0572 -0.6145
 4088TIP3    H233824   0.604   6.531   3.336  0.4703  0.7937  0.8282
 4089TIP3   OH233825   3.144   2.496   1.446 -0.0592 -0.3141 -0.4445
 4089TIP3    H133826   3.095   2.573   1.475  0.2220  0.2028 -1.3130
 4089TIP3    H233827   3.223   2.496   1.499 -0.9055 -1.0852  0.8845
 4090TIP3   OH233828   3.611   6.010   3.130 -0.2356 -0.0890 -0.0808
 4090TIP3    H133829   3.576   5.923   3.147  2.2448 -1.0576  0.5328
 4090TIP3    H233830   3.576   6.064   3.201 -1.1317 -0.7696  0.0141
 4091TIP3   OH233831   3.418   1.558   2.947 -0.0174  0.9097 -0.0460
 4091TIP3    H133832   3.427   1.588   3.037 -2.2913 -0.0902  0.5938
 4091TIP3    H233833   3.474   1.616   2.896  2.2199  0.7853  2.1046
 4092TIP3   OH233834   1.606   3.393   3.849 -0.4900  0.0988 -0.1728
 4092TIP3    H133835   1.643   3.342   3.777  0.3267 -0.0594  0.3537
 4092TIP3    H233836   1.548   3.331   3.894 -1.3474  0.3178 -0.9271
 4093TIP3   OH233837   4.287   4.668   1.264 -0.8143 -0.4981  0.7850
 4093TIP3    H133838   4.328   4.586   1.237  1.7926  0.5289  1.2486
 4093TIP3    H233839   4.317   4.732   1.199 -1.0155  0.4712  1.6252
 4094TIP3   OH233840   5.866   4.466   0.420  0.2216 -0.5776 -0.3844
 4094TIP3    H133841   5.848   4.391   0.477  0.5791 -0.5425 -0.2279
 4094TIP3    H233842   5.960   4.479   0.426 -0.1982  2.2761  2.6357
 4095TIP3   OH233843   3.146   6.916   2.735  0.0679  0.0383  0.7016
 4095TIP3    H133844   3.153   7.009   2.755  0.6709 -0.3118  2.3694
 4095TIP3    H233845   3.109   6.912   2.648 -2.3778  1.8244  1.5658
 4096TIP3   OH233846   6.520   3.424   0.422  0.2163 -0.3418 -0.2833
 4096TIP3    H133847   6.571   3.484   0.367 -0.5551  0.6855  0.0945
 4096TIP3    H233848   6.448   3.477   0.456  0.5609 -0.9935  1.5721
 4097TIP3   OH233849   2.283   2.314   1.266 -0.2429 -0.2211  0.1864
 4097TIP3    H133850   2.360   2.329   1.321 -2.0054  0.4775  2.6246
 4097TIP3    H233851   2.278   2.218   1.258  1.8046 -0.2605 -1.5354
 4098TIP3   OH233852   2.579   5.424   7.652 -0.0815  0.6835 -0.7232
 4098TIP3    H133853   2.586   5.411   7.746 -1.1580  0.7937 -0.6142
 4098TIP3    H233854   2.527   5.350   7.621  1.0878  0.1214 -1.3816
 4099TIP3   OH233855   5.105   2.267   0.157 -0.7332 -0.3926  0.0090
 4099TIP3    H133856   5.153   2.349   0.152 -1.6982  0.1261 -1.1881
 4099TIP3    H233857   5.165   2.201   0.122  0.2040 -0.3001  1.3745
 4100TIP3   OH233858   2.541   3.207   1.169  0.7118  0.0186  0.3372
 4100TIP3    H133859   2.456   3.251   1.163  1.2495  1.2399  1.2312
 4100TIP3    H233860   2.547   3.155   1.089 -0.2853  0.9914 -0.4031
 4101TIP3   OH233861   4.705   2.147   0.527  0.0849  0.0948  0.6149
 4101TIP3    H133862   4.677   2.063   0.491  0.6629 -0.5654  1.6314
 4101TIP3    H233863   4.733   2.198   0.452  0.5343 -0.9500  0.0522
 4102TIP3   OH233864   4.255   5.851   2.649  0.1860  0.4763 -0.5776
 4102TIP3    H133865   4.268   5.793   2.723  0.1158  0.0165 -0.9181
 4102TIP3    H233866   4.339   5.850   2.602  0.7302  1.9200  0.2790
 4103TIP3   OH233867   1.595   6.526   3.221 -0.3552 -0.1990 -0.3942
 4103TIP3    H133868   1.636   6.579   3.153  1.3278 -0.2581  0.5436
 4103TIP3    H233869   1.543   6.588   3.272 -0.9730 -0.0212 -1.2137
 4104TIP3   OH233870   2.903   3.219   2.278  0.1191 -0.4000 -0.1296
 4104TIP3    H133871   2.853   3.137   2.271 -0.9475  0.2055  0.3484
 4104TIP3    H233872   2.942   3.216   2.365  0.6163 -0.6816 -0.3524
 4105TIP3   OH233873   3.596   3.342   3.039  0.3647  0.0686  0.0871
 4105TIP3    H133874   3.525   3.325   2.977 -0.2742 -1.2948  1.1758
 4105TIP3    H233875   3.561   3.408   3.099  1.1958  1.8690 -1.2706
 4106TIP3   OH233876   4.402   4.580   3.617 -0.0380  0.0618 -0.1441
 4106TIP3    H133877   4.353   4.560   3.537 -1.3721  0.9075  0.4272
 4106TIP3    H233878   4.426   4.672   3.607  1.6834 -0.3875 -0.5083
 4107TIP3   OH233879   2.940   4.190   2.637  0.6025  0.2441  0.1563
 4107TIP3    H133880   2.935   4.228   2.550  1.8931  1.2195  0.4745
 4107TIP3    H233881   2.950   4.096   2.622 -1.3389  0.1157 -0.6698
 4108TIP3   OH233882   6.306   1.914   3.860  0.2723 -0.3145 -0.0248
 4108TIP3    H133883   6.283   1.866   3.780 -1.0938  0.3417 -0.0524
 4108TIP3    H233884   6.394   1.883   3.882  0.6408 -0.5661 -1.7381
 4109TIP3   OH233885   5.878   5.970   0.621 -0.3785  0.1204 -0.4783
 4109TIP3    H133886   5.912   6.060   0.620  0.9959 -0.3281  1.1332
 4109TIP3    H233887   5.906   5.933   0.538  1.1643  0.4787 -0.1538
 4110TIP3   OH233888   4.875   0.399   1.547  0.0321  0.1313  0.3037
 4110TIP3    H133889   4.902   0.370   1.460  0.7136  0.5690  0.3618
 4110TIP3    H233890   4.934   0.353   1.607 -2.4844 -2.7503  0.8206
 4111TIP3   OH233891   3.710   0.468   3.063 -0.1764 -0.4316  0.7602
 4111TIP3    H133892   3.629   0.449   3.110 -0.3123 -0.0978  0.6674
 4111TIP3    H233893   3.766   0.393   3.080 -0.4539 -0.5993  0.9432
 4112TIP3   OH233894   6.720   3.063   2.215 -0.4028 -0.0504 -0.3679
 4112TIP3    H133895   6.649   3.009   2.182 -1.2080 -0.7288  2.2130
 4112TIP3    H233896   6.735   3.128   2.146 -1.2951 -1.8369 -2.3570
 4113TIP3   OH233897   4.702   1.202   3.571  0.0511 -0.0105  0.6255
 4113TIP3    H133898   4.696   1.117   3.526  0.5671  0.0617  0.4239
 4113TIP3    H233899   4.756   1.185   3.648 -0.9644 -0.1737  1.3382
 4114TIP3   OH233900   3.326   2.719   3.936  0.4950 -0.4278 -0.3495
 4114TIP3    H133901   3.325   2.633   3.977  0.5256 -0.9792 -1.4523
 4114TIP3    H233902   3.239   2.728   3.897  0.5389 -0.0196 -0.3552
 4115TIP3   OH233903   6.468   1.668   2.804 -0.1283  0.5886 -0.2529
 4115TIP3    H133904   6.496   1.685   2.894 -0.4397  3.1582 -0.5729
 4115TIP3    H233905   6.548   1.677   2.752 -0.2799  0.9806 -0.4203
 4116TIP3   OH233906   0.435   0.299   1.875 -0.0580 -0.0681  0.5204
 4116TIP3    H133907   0.453   0.358   1.802  0.8704 -2.0669 -0.9576
 4116TIP3    H233908   0.388   0.226   1.836  0.2756 -1.1014  1.9689
 4117TIP3   OH233909   1.955   5.346   0.175  0.1261 -0.1170 -0.1772
 4117TIP3    H133910   1.928   5.434   0.147  0.7962 -0.2544 -1.3436
 4117TIP3    H233911   1.902   5.287   0.123  0.7380 -0.3913 -0.5030
 4118TIP3   OH233912   6.621   3.364   1.477 -0.6491  0.0442  0.2104
 4118TIP3    H133913   6.679   3.303   1.432 -0.9716  0.1808 -0.4121
 4118TIP3    H233914   6.670   3.392   1.554  0.0814  0.1018 -0.2638
 4119TIP3   OH233915   4.951   1.747   2.499  0.2299  1.1237  0.5303
 4119TIP3    H133916   5.045   1.732   2.508  0.1300  0.9739  1.3804
 4119TIP3    H233917   4.917   1.664   2.466  0.3282  1.0285  0.6684
 4120TIP3   OH233918   1.904   6.333   1.513 -0.3414  0.0477 -0.4202
 4120TIP3    H133919   1.884   6.243   1.540  0.5819 -0.3280 -0.9441
 4120TIP3    H233920   1.874   6.386   1.587  3.2863 -1.0385  2.1687
 4121TIP3   OH233921   2.775   5.606   3.110  0.4174 -0.7062  0.7366
 4121TIP3    H133922   2.784   5.547   3.185  2.2667 -1.0624  0.3010
 4121TIP3    H233923   2.726   5.680   3.143 -0.3903 -1.6776  1.7951
 4122TIP3   OH233924   0.052   2.119   1.042 -0.5795 -0.2739 -0.8792
 4122TIP3    H133925   0.069   2.029   1.068  2.9677  1.0468  2.3867
 4122TIP3    H233926   0.120   2.139   0.977 -1.1248  0.1826 -1.3298
 4123TIP3   OH233927   6.733   5.067   0.824 -0.9108  0.2306  0.1986
 4123TIP3    H133928   6.784   4.997   0.784 -3.2130 -0.4564 -1.8068
 4123TIP3    H233929   6.714   5.036   0.913  3.5620  1.3873  1.8615
 4124TIP3   OH233930   0.232   5.887   0.134 -0.0042  0.5502  1.0735
 4124TIP3    H133931   0.320   5.922   0.119 -0.6528  1.2984 -1.5533
 4124TIP3    H233932   0.178   5.963   0.152 -0.4619  0.3279  0.6725
 4125TIP3   OH233933   1.879   1.647   1.906  0.8605  0.1914 -0.1110
 4125TIP3    H133934   1.793   1.622   1.940  0.7641 -0.8731 -1.0727
 4125TIP3    H233935   1.937   1.575   1.933  1.1146  0.1369 -0.7827
 4126TIP3   OH233936   4.002   0.796   0.758 -0.0540 -0.4458 -0.3235
 4126TIP3    H133937   4.089   0.769   0.788  0.1399  0.1525 -0.3388
 4126TIP3    H233938   4.019   0.872   0.703 -0.2819 -2.0371 -2.7770
 4127TIP3   OH233939   1.091   2.450   3.304  0.2046  0.0972 -0.2009
 4127TIP3    H133940   1.070   2.357   3.311  2.9412 -0.5376  0.9977
 4127TIP3    H233941   1.075   2.485   3.392  0.8459  0.3391 -0.1772
 4128TIP3   OH233942   3.584   6.808   1.685 -0.0748 -0.0734 -0.0290
 4128TIP3    H133943   3.548   6.858   1.758  0.7905 -0.0712  0.3926
 4128TIP3    H233944   3.650   6.751   1.723  1.2555  0.7846 -0.9543
 4129TIP3   OH233945   6.270   6.203   2.053 -0.3864  0.6943 -0.4052
 4129TIP3    H133946   6.256   6.124   2.000 -1.4484 -0.6452  1.7525
 4129TIP3    H233947   6.366   6.207   2.063 -0.3572 -1.0320  0.4160
 4130TIP3   OH233948   5.073   2.849   1.760  0.2642  0.4062 -0.3024
 4130TIP3    H133949   5.094   2.851   1.666 -0.4298 -0.2427 -0.4816
 4130TIP3    H233950   5.011   2.921   1.772  0.8168  0.8770 -0.2141
 4131TIP3   OH233951   3.705   2.977   2.958 -0.2866  0.5708 -0.0397
 4131TIP3    H133952   3.729   3.019   2.876 -1.9598  0.8580 -0.4172
 4131TIP3    H233953   3.713   3.046   3.024 -0.4167  0.7429 -0.2045
 4132TIP3   OH233954   5.807   4.563   0.937 -0.4122 -0.8052  0.5244
 4132TIP3    H133955   5.768   4.571   1.024  0.0378 -0.8293  0.7267
 4132TIP3    H233956   5.731   4.563   0.877 -0.6687  1.0193  0.7696
 4133TIP3   OH233957   3.220   6.828   1.266  0.3034 -0.7814 -0.3139
 4133TIP3    H133958   3.279   6.755   1.287 -0.4877 -2.0011 -2.0437
 4133TIP3    H233959   3.247   6.855   1.178 -0.2867  0.1147 -0.2272
 4134TIP3   OH233960   2.037   1.550   8.330  0.3930  0.4452  0.0525
 4134TIP3    H133961   2.099   1.535   8.401 -0.1447  0.4610  0.5313
 4134TIP3    H233962   1.957   1.504   8.357  0.9089 -1.6168 -1.6521
 4135TIP3   OH233963   5.562   3.168   1.697  0.4828  0.2205  0.3838
 4135TIP3    H133964   5.647   3.210   1.704  0.1009  0.8470  1.4048
 4135TIP3    H233965   5.505   3.219   1.754 -0.7088  0.1384 -0.6896
 4136TIP3   OH233966   0.248   6.365   2.787  0.3187  0.2818  0.3436
 4136TIP3    H133967   0.160   6.402   2.774  1.1825  2.4219  0.0900
 4136TIP3    H233968   0.273   6.331   2.701 -0.8634 -1.9229  0.7957
 4137TIP3   OH233969   3.290   0.182   0.681 -0.1008  0.2123  0.6071
 4137TIP3    H133970   3.275   0.274   0.701 -0.6347  0.0410  1.0110
 4137TIP3    H233971   3.363   0.156   0.737  1.3066  0.8577 -0.8342
 4138TIP3   OH233972   5.514   6.535   3.089  0.1926  0.3178 -0.1075
 4138TIP3    H133973   5.600   6.574   3.080  0.3468  0.1155  0.4278
 4138TIP3    H233974   5.515   6.495   3.176 -0.8677  1.3726  0.4158
 4139TIP3   OH233975   1.105   6.009   0.740 -0.3824 -0.0383  0.2900
 4139TIP3    H133976   1.032   5.952   0.764  1.1427 -1.4681  1.7969
 4139TIP3    H233977   1.180   5.950   0.730  0.9835  1.5587  0.5970
 4140TIP3   OH233978   2.593   2.743   2.819  0.4103 -0.9681 -0.3730
 4140TIP3    H133979   2.582   2.761   2.912  0.8468 -0.0984 -0.4753
 4140TIP3    H233980   2.589   2.648   2.812 -3.1334 -0.9846  0.0817
 4141TIP3   OH233981   1.376   5.953   3.378 -0.9671  0.1817  0.1861
 4141TIP3    H133982   1.452   6.010   3.373 -1.7598  1.2792  0.2931
 4141TIP3    H233983   1.402   5.874   3.332  0.1081  0.6789 -0.0903
 4142TIP3   OH233984   0.031   4.687   2.292  0.3752 -0.3518 -0.0854
 4142TIP3    H133985  -0.051   4.736   2.291 -0.5649 -1.8638 -0.1374
 4142TIP3    H233986   0.008   4.601   2.327  2.1913 -0.4222  1.1053
 4143TIP3   OH233987   2.345   6.865   0.502  0.6131 -0.2056  0.1899
 4143TIP3    H133988   2.379   6.822   0.580 -1.1728 -0.8403  0.6890
 4143TIP3    H233989   2.286   6.800   0.463  1.6925 -0.0252 -1.8911
 4144TIP3   OH233990   3.947   2.640   8.068 -0.1967  0.1480 -0.0498
 4144TIP3    H133991   3.897   2.690   8.132 -1.1261 -0.9386  0.1158
 4144TIP3    H233992   3.921   2.549   8.084  0.5303 -0.2679 -1.1282
 4145TIP3   OH233993   2.717   0.443   3.398  0.3701 -0.1315 -0.6880
 4145TIP3    H133994   2.711   0.526   3.445 -0.2846  0.0878 -1.1553
 4145TIP3    H233995   2.810   0.418   3.406  0.4531  0.3546 -0.0679
 4146TIP3   OH233996   0.804   6.895   3.096 -0.2629  0.2845  0.3890
 4146TIP3    H133997   0.804   6.933   3.008 -2.3197 -0.8910 -0.2025
 4146TIP3    H233998   0.787   6.969   3.154  1.6608  1.1670 -0.0943
 4147TIP3   OH233999   3.560   0.545   2.183 -0.2168  0.5244 -0.5263
 4147TIP3    H134000   3.549   0.454   2.154  2.8796 -0.1197 -0.0548
 4147TIP3    H234001   3.621   0.583   2.119  2.2284  0.7794  1.7914
 4148TIP3   OH234002   4.719   5.388   2.804  0.4872 -0.2282 -0.9127
 4148TIP3    H134003   4.795   5.330   2.802  1.2959  0.7898 -1.2612
 4148TIP3    H234004   4.649   5.338   2.763  0.5906 -1.6748  0.6065
 4149TIP3   OH234005   4.995   1.765   1.567 -0.3176 -0.2445 -0.2219
 4149TIP3    H134006   5.062   1.704   1.595 -0.3610 -0.0780  0.2441
 4149TIP3    H234007   4.990   1.753   1.472 -1.8440 -2.5339  0.0841
 4150TIP3   OH234008   3.311   2.016   4.241 -0.1699 -0.0070  0.0471
 4150TIP3    H134009   3.220   2.019   4.270  0.3507 -2.1843  2.2449
 4150TIP3    H234010   3.351   2.093   4.279 -0.4964 -0.5336  1.5156
 4151TIP3   OH234011   0.040   3.023   2.318 -0.0878  0.2337  0.6020
 4151TIP3    H134012  -0.043   3.051   2.278  1.0004  1.0011 -1.2636
 4151TIP3    H234013   0.105   3.038   2.250  1.4847 -1.1313  1.7356
 4152TIP3   OH234014   0.706   6.649   3.011 -0.0295  0.5502  0.3853
 4152TIP3    H134015   0.673   6.600   3.086 -0.7455  1.4759  0.6967
 4152TIP3    H234016   0.705   6.740   3.039 -2.8891  1.2827 -1.5752
 4153TIP3   OH234017   0.563   6.467   0.539 -0.0104  0.0115 -0.0861
 4153TIP3    H134018   0.467   6.463   0.545  0.0694 -1.7324  0.7158
 4153TIP3    H234019   0.580   6.532   0.471 -1.6971  2.0909  1.3385
 4154TIP3   OH234020   2.854   2.030   1.141  0.1074 -0.5411  0.0418
 4154TIP3    H134021   2.836   1.936   1.139 -1.5049 -0.2536 -1.6456
 4154TIP3    H234022   2.949   2.036   1.149  0.5886 -2.4189 -2.7155
 4155TIP3   OH234023   3.341   5.960   1.848 -0.0048 -0.3482 -0.1925
 4155TIP3    H134024   3.261   5.948   1.796  0.0217 -1.0831 -0.0742
 4155TIP3    H234025   3.372   5.871   1.865  0.5992 -0.0800  0.1397
 4156TIP3   OH234026   1.320   2.456   2.373  0.3058  0.1077 -0.2117
 4156TIP3    H134027   1.313   2.539   2.420  0.6538  0.1313 -0.2019
 4156TIP3    H234028   1.380   2.403   2.426  1.0804  0.3079 -0.8774
 4157TIP3   OH234029   5.120   5.006   0.348 -0.0798  0.0126 -0.4239
 4157TIP3    H134030   5.188   5.056   0.303 -0.8042  0.0782 -1.4967
 4157TIP3    H234031   5.051   5.071   0.365  0.1463 -0.0297  0.7377
 4158TIP3   OH234032   2.308   2.429   0.860 -0.0350 -0.0076  0.6602
 4158TIP3    H134033   2.287   2.336   0.849  1.0983 -0.1079 -1.1386
 4158TIP3    H234034   2.403   2.433   0.848 -0.1477  1.4478  0.0223
 4159TIP3   OH234035   0.715   1.779   4.460 -0.0909  0.8071  0.1829
 4159TIP3    H134036   0.726   1.874   4.457 -0.6125  0.8609 -1.6398
 4159TIP3    H234037   0.651   1.761   4.391 -1.0317 -0.7565  1.3970
 4160TIP3   OH234038   5.945   0.305   0.690 -0.0382  0.2656 -0.0998
 4160TIP3    H134039   6.040   0.305   0.681  0.0303 -0.5643  0.5063
 4160TIP3    H234040   5.923   0.393   0.719  0.5453  0.4464 -0.1971
 4161TIP3   OH234041   4.077   6.872   8.297  0.1123 -0.0084  0.2480
 4161TIP3    H134042   4.078   6.803   8.231 -0.2217  0.7543 -0.5640
 4161TIP3    H234043   4.075   6.954   8.247 -0.1116  0.5822  1.1984
 4162TIP3   OH234044   5.979   3.890   2.349  0.1792  0.5420  0.3221
 4162TIP3    H134045   5.942   3.968   2.390  0.1794  0.4558  0.4868
 4162TIP3    H234046   5.910   3.858   2.291  1.2591  2.4595 -2.2018
 4163TIP3   OH234047   2.193   1.809   2.133  0.1089 -0.5303  0.0543
 4163TIP3    H134048   2.236   1.888   2.167  0.0824 -0.7819  0.6965
 4163TIP3    H234049   2.111   1.840   2.095  0.5478 -0.1294 -0.5763
 4164TIP3   OH234050   0.924   6.236   0.074 -0.0363 -0.0873  0.1483
 4164TIP3    H134051   0.929   6.304   0.140 -0.2293  0.2884 -0.2178
 4164TIP3    H234052   0.837   6.197   0.085 -0.5234  0.7341 -0.6047
 4165TIP3   OH234053   6.931   0.167   4.260  1.1086  0.2895 -0.1623
 4165TIP3    H134054   6.989   0.207   4.194  2.9281  2.0191  2.2910
 4165TIP3    H234055   6.919   0.236   4.325 -0.9742 -1.2056  1.1287
 4166TIP3   OH234056   5.337   4.828   2.079  0.1038  0.3592  0.3686
 4166TIP3    H134057   5.353   4.759   2.014  1.4488  2.1464 -1.3311
 4166TIP3    H234058   5.242   4.835   2.085 -0.0450 -0.3237 -0.9107
 4167TIP3   OH234059   0.852   1.347   2.527  0.5863 -0.3370  0.3609
 4167TIP3    H134060   0.814   1.423   2.483  0.2736  0.6884  2.2915
 4167TIP3    H234061   0.791   1.328   2.599  1.7832 -1.0524  1.2274
 4168TIP3   OH234062   3.932   6.407   3.664  0.0227 -0.3831  0.0185
 4168TIP3    H134063   3.935   6.377   3.574  1.0278 -0.9264  0.2098
 4168TIP3    H234064   3.849   6.452   3.672  0.2403  0.3204 -1.3813
 4169TIP3   OH234065   6.857   5.661   1.961  0.7954 -0.2880  0.3383
 4169TIP3    H134066   6.766   5.638   1.977  0.5578 -0.6289 -1.2672
 4169TIP3    H234067   6.861   5.755   1.977 -0.0905 -0.0874 -0.5024
 4170TIP3   OH234068   1.403   6.656   0.468  0.0631 -0.1796 -0.7803
 4170TIP3    H134069   1.481   6.689   0.425 -0.2205  1.9502  0.1952
 4170TIP3    H234070   1.335   6.721   0.448 -0.5858 -0.2071  1.1144
 4171TIP3   OH234071   1.482   3.436   2.986 -0.0893 -0.4037 -0.7175
 4171TIP3    H134072   1.421   3.402   3.051 -0.4687 -1.1357 -1.4447
 4171TIP3    H234073   1.523   3.359   2.947 -0.1393 -0.0044 -1.6048
 4172TIP3   OH234074   1.526   5.756   3.240 -0.3748  0.1274  0.3462
 4172TIP3    H134075   1.448   5.761   3.185 -1.9500  0.3416  2.4759
 4172TIP3    H234076   1.596   5.792   3.186 -1.3223 -1.6796 -2.2866
 4173TIP3   OH234077   1.799   6.614   1.964  0.2916  0.3041  0.1458
 4173TIP3    H134078   1.754   6.697   1.947 -1.3014 -0.3064  1.2101
 4173TIP3    H234079   1.882   6.640   2.004 -0.7566  1.3843  1.7266
 4174TIP3   OH234080   2.666   0.501   4.125 -0.2566  0.3646  0.4050
 4174TIP3    H134081   2.757   0.529   4.115 -0.6318  1.3711 -0.3000
 4174TIP3    H234082   2.672   0.406   4.139  0.8540  0.2831 -0.4650
 4175TIP3   OH234083   0.608   6.331   3.085  0.4037  0.4366 -0.5595
 4175TIP3    H134084   0.569   6.379   3.158  2.5259 -0.0634  0.9870
 4175TIP3    H234085   0.566   6.368   3.007 -1.5732  1.3367  0.8414
 4176TIP3   OH234086   2.707   3.176   1.757  0.3878 -0.1260  0.0292
 4176TIP3    H134087   2.777   3.210   1.702 -0.2085  2.9237  0.9552
 4176TIP3    H234088   2.704   3.235   1.832 -2.5174 -0.6970  0.5055
 4177TIP3   OH234089   2.596   5.332   1.760 -0.1416  0.4542 -0.6633
 4177TIP3    H134090   2.553   5.290   1.686  0.8490  1.5299 -1.8879
 4177TIP3    H234091   2.684   5.294   1.760 -0.5131 -0.5039  0.7971
 4178TIP3   OH234092   6.087   2.273   0.398 -0.0875 -0.2901  0.0874
 4178TIP3    H134093   6.033   2.274   0.478 -0.4667 -0.3086 -0.1659
 4178TIP3    H234094   6.047   2.340   0.342  0.6210  0.2430  0.1981
 4179TIP3   OH234095   5.973   2.045   8.143  0.0198 -0.2210  0.6020
 4179TIP3    H134096   5.932   1.989   8.077 -1.5258  0.1883  1.1583
 4179TIP3    H234097   6.063   2.058   8.112 -0.6869  0.0755 -1.4830
 4180TIP3   OH234098   6.522   2.920   2.601  0.0817  0.0845  0.1174
 4180TIP3    H134099   6.582   2.991   2.580 -0.9067  1.4238  1.6082
 4180TIP3    H234100   6.533   2.904   2.694  0.1982 -1.6893 -0.1511
 4181TIP3   OH234101   2.086   5.908   8.264 -0.6621 -0.3815 -0.5561
 4181TIP3    H134102   2.151   5.876   8.201 -0.6018 -0.2557 -0.5561
 4181TIP3    H234103   2.085   6.003   8.252  0.2936 -0.2102  0.5210
 4182TIP3   OH234104   6.129   1.264   2.489 -0.4027  0.2673  0.4455
 4182TIP3    H134105   6.141   1.279   2.395 -1.7090  0.4845  0.2960
 4182TIP3    H234106   6.048   1.310   2.511 -0.2885 -0.0494  1.6194
 4183TIP3   OH234107   6.070   0.850   3.602  0.0422  0.1053  0.4132
 4183TIP3    H134108   6.058   0.834   3.509  1.9745 -2.0295  0.4655
 4183TIP3    H234109   6.144   0.910   3.607  0.2775 -0.1959  0.5820
 4184TIP3   OH234110   0.654   5.660   0.849  0.4005 -0.5384 -0.2748
 4184TIP3    H134111   0.703   5.649   0.768  1.0865  2.4632 -0.3714
 4184TIP3    H234112   0.584   5.722   0.827 -0.5015 -1.0479  1.0146
 4185TIP3   OH234113   2.089   0.883   2.660 -0.1883 -0.0722 -0.3227
 4185TIP3    H134114   2.005   0.893   2.705  0.1931 -1.4802  0.7892
 4185TIP3    H234115   2.070   0.830   2.583 -0.4825  0.5129 -0.6597
 4186TIP3   OH234116   0.493   5.590   8.064  0.7001 -0.0181  0.0131
 4186TIP3    H134117   0.563   5.532   8.093 -0.5388 -2.1357 -0.9753
 4186TIP3    H234118   0.431   5.592   8.137  0.2332 -0.8353 -0.3519
 4187TIP3   OH234119   2.652   1.002   0.813 -0.3714  0.0654 -0.3672
 4187TIP3    H134120   2.629   1.073   0.872  1.6062  0.7684 -0.3606
 4187TIP3    H234121   2.588   1.008   0.742 -1.5999  0.4151  0.7320
 4188TIP3   OH234122   3.600   4.102   3.884 -0.1746 -0.1639  0.2861
 4188TIP3    H134123   3.560   4.117   3.799  0.4165  1.0995  0.2192
 4188TIP3    H234124   3.691   4.081   3.864 -0.5623 -2.2358  0.4868
 4189TIP3   OH234125   0.790   3.733   3.858 -0.1774  0.0007  0.3790
 4189TIP3    H134126   0.836   3.805   3.815  0.5823 -1.5128 -1.4974
 4189TIP3    H234127   0.852   3.700   3.923  0.7421 -0.9083 -0.9236
 4190TIP3   OH234128   2.225   5.593   1.531  0.2292  0.3983  0.0473
 4190TIP3    H134129   2.317   5.614   1.514  0.8557 -1.4637  0.8327
 4190TIP3    H234130   2.212   5.617   1.623  0.6943 -1.5456  0.6799
 4191TIP3   OH234131   0.752   2.590   3.103 -0.3192  0.0688  0.1554
 4191TIP3    H134132   0.788   2.608   3.016  1.6662 -0.7210  0.7589
 4191TIP3    H234133   0.670   2.639   3.105 -1.9321 -2.0882 -3.1671
 4192TIP3   OH234134   2.130   3.320   1.549  0.2242 -0.5054 -0.0883
 4192TIP3    H134135   2.068   3.387   1.519 -1.2531 -0.8004  2.0392
 4192TIP3    H234136   2.207   3.370   1.575  1.2082 -0.1752 -3.2489
 4193TIP3   OH234137   0.378   2.499   0.927  0.3325  0.8099  0.8017
 4193TIP3    H134138   0.456   2.466   0.883 -0.5674 -0.1137 -0.1555
 4193TIP3    H234139   0.350   2.574   0.874 -0.8868 -0.4474 -0.3955
 4194TIP3   OH234140   6.677   0.436   2.209  0.0248 -0.5423  0.1242
 4194TIP3    H134141   6.718   0.496   2.272 -0.6882 -0.0283  0.1146
 4194TIP3    H234142   6.603   0.486   2.174 -0.4349 -1.3470 -0.0663
 4195TIP3   OH234143   2.683   1.014   1.376 -0.5181 -0.0599 -0.1128
 4195TIP3    H134144   2.644   1.100   1.359 -1.0755 -0.1180  0.8150
 4195TIP3    H234145   2.614   0.952   1.353 -0.3419 -0.2350 -0.1680
 4196TIP3   OH234146   3.502   2.011   4.028  0.3119  0.0866 -0.3527
 4196TIP3    H134147   3.562   1.947   4.067 -1.4000 -0.9897  0.6447
 4196TIP3    H234148   3.426   2.010   4.086 -0.4005  1.9143 -1.2001
 4197TIP3   OH234149   4.791   4.902   2.396 -0.3422 -0.1239  0.1825
 4197TIP3    H134150   4.835   4.902   2.311  0.4181 -0.1759  0.5604
 4197TIP3    H234151   4.777   4.809   2.415 -0.1163 -0.1347  0.3048
 4198TIP3   OH234152   4.012   2.434   4.613 -0.1249  0.0620 -0.3916
 4198TIP3    H134153   3.992   2.523   4.584  0.3064  0.0900 -0.6001
 4198TIP3    H234154   4.103   2.437   4.640 -1.0977  0.6884  3.4127
 4199TIP3   OH234155   3.066   4.578   3.248 -0.1319 -0.1479 -0.0523
 4199TIP3    H134156   3.129   4.596   3.318 -0.0446 -0.9107  0.0765
 4199TIP3    H234157   3.109   4.512   3.194 -0.8149 -0.6760  0.0322
 4200TIP3   OH234158   2.718   6.546   1.119 -0.2234 -0.0624 -0.0588
 4200TIP3    H134159   2.711   6.466   1.067  1.4568  1.1112 -2.2419
 4200TIP3    H234160   2.629   6.581   1.120 -0.2713  0.1210 -2.6809
 4201TIP3   OH234161   2.283   0.775   1.536  0.2500 -0.1115 -0.0368
 4201TIP3    H134162   2.236   0.771   1.619 -3.5054  2.0670 -1.7865
 4201TIP3    H234163   2.296   0.868   1.520  2.0161 -0.5374 -1.3738
 4202TIP3   OH234164   0.336   6.435   2.208  0.5125  0.3659  0.3354
 4202TIP3    H134165   0.365   6.373   2.141  0.5338 -0.7653  1.3341
 4202TIP3    H234166   0.417   6.469   2.245  0.5098  0.4928  0.2243
 4203TIP3   OH234167   4.906   0.173   2.168 -0.2498 -0.3010  0.0332
 4203TIP3    H134168   4.917   0.158   2.262  0.2916  0.2339  0.0576
 4203TIP3    H234169   4.874   0.263   2.162 -3.6906 -1.3672 -0.0976
 4204TIP3   OH234170   4.027   6.373   2.915 -0.5754 -0.4075 -0.9133
 4204TIP3    H134171   4.049   6.301   2.857  0.2280  0.1201 -1.2812
 4204TIP3    H234172   3.939   6.400   2.888  0.2665  0.6703 -2.8011
 4205TIP3   OH234173   4.698   6.596   2.012 -0.3631 -0.0621  0.0583
 4205TIP3    H134174   4.629   6.632   1.956  1.7032 -0.3162 -2.8635
 4205TIP3    H234175   4.684   6.502   2.009  1.6486 -0.3935 -2.9979
 4206TIP3   OH234176   6.721   5.319   2.067 -0.2449  0.2859  0.3470
 4206TIP3    H134177   6.653   5.263   2.029 -0.2201  0.1692  0.4713
 4206TIP3    H234178   6.733   5.284   2.155 -1.1317  1.2675  0.8920
 4207TIP3   OH234179   0.218   2.513   0.010  0.1772  0.5019  0.2513
 4207TIP3    H134180   0.169   2.595   0.006 -0.6720  0.0618  1.1497
 4207TIP3    H234181   0.155   2.445  -0.013  0.4138 -0.0521  1.1692
 4208TIP3   OH234182   1.310   5.749   2.074 -0.3477  0.0262 -0.3044
 4208TIP3    H134183   1.255   5.730   2.150  1.2625 -0.6927  0.7455
 4208TIP3    H234184   1.341   5.838   2.088 -1.1671  0.4125 -0.8699
 4209TIP3   OH234185   0.832   6.594   0.291  0.3252 -0.2942 -0.3380
 4209TIP3    H134186   0.815   6.619   0.200 -0.6023 -2.2786 -0.7549
 4209TIP3    H234187   0.780   6.515   0.305 -1.5874  1.3076  2.7026
 4210TIP3   OH234188   0.004   0.253   0.926  0.8416 -0.1373 -0.0942
 4210TIP3    H134189   0.050   0.170   0.916  0.1005 -0.5459 -0.1589
 4210TIP3    H234190   0.063   0.306   0.980  0.7035 -1.2056  1.1578
 4211TIP3   OH234191   4.502   3.374   2.302  0.0681  0.9743  0.2182
 4211TIP3    H134192   4.558   3.335   2.235  1.2868  1.5189  0.8858
 4211TIP3    H234193   4.452   3.300   2.337  0.2278  0.5052 -0.5268
 4212TIP3   OH234194   1.771   5.946   3.130  0.0998 -0.5668  0.7128
 4212TIP3    H134195   1.742   5.977   3.215 -1.4887 -1.3674  0.5149
 4212TIP3    H234196   1.731   6.007   3.067 -0.0550 -0.8965  0.4856
 4213TIP3   OH234197   5.516   2.347   3.629 -0.6616  0.4464  0.1218
 4213TIP3    H134198   5.499   2.299   3.710 -0.6766 -0.5419 -0.4517
 4213TIP3    H234199   5.611   2.352   3.624 -0.6508  0.1654  0.0117
 4214TIP3   OH234200   1.536   1.100   0.294  0.0639  0.4912 -0.3088
 4214TIP3    H134201   1.532   1.052   0.211 -0.6723  0.0821 -0.0329
 4214TIP3    H234202   1.482   1.051   0.354 -0.5078  1.5255  0.0502
 4215TIP3   OH234203   3.810   3.302   3.215 -0.0024 -0.1304  0.2369
 4215TIP3    H134204   3.885   3.355   3.189 -2.5453  4.2467  0.7616
 4215TIP3    H234205   3.751   3.306   3.140 -2.1468  1.9570  1.8356
 4216TIP3   OH234206   1.679   2.410   1.083 -0.2133 -0.2347 -0.3476
 4216TIP3    H134207   1.687   2.370   1.170 -0.6494  0.6925  0.1407
 4216TIP3    H234208   1.585   2.408   1.065 -0.0590 -1.0177 -1.1001
 4217TIP3   OH234209   1.282   6.287   1.109 -0.2383  0.4048  0.0571
 4217TIP3    H134210   1.190   6.312   1.097 -0.6069 -0.9653 -0.1757
 4217TIP3    H234211   1.295   6.285   1.204 -0.4545  0.5926  0.0910
 4218TIP3   OH234212   3.329   5.501   1.881  0.4681  0.5180 -0.1081
 4218TIP3    H134213   3.375   5.420   1.860 -1.2606  0.1989 -3.1411
 4218TIP3    H234214   3.298   5.488   1.971  2.8634 -0.7953  0.6331
 4219TIP3   OH234215   5.193   5.461   0.807  0.3820 -0.2926 -0.2503
 4219TIP3    H134216   5.280   5.445   0.771  1.2721  1.7346  0.8940
 4219TIP3    H234217   5.200   5.544   0.853 -1.8402 -0.6999  0.9655
 4220TIP3   OH234218   3.990   0.954   3.336  0.0083 -0.2219 -0.6015
 4220TIP3    H134219   4.054   1.024   3.350 -1.3587  1.3109 -1.6785
 4220TIP3    H234220   3.914   0.998   3.298 -0.8082 -2.3376 -1.5731
 4221TIP3   OH234221   2.271   0.758   3.333 -0.3518  0.0906  0.1943
 4221TIP3    H134222   2.248   0.745   3.425  0.3342  2.5867  0.7841
 4221TIP3    H234223   2.189   0.743   3.285 -0.7382 -1.1332  1.1792
 4222TIP3   OH234224   3.522   4.969   2.322  0.5371 -0.0796 -0.2583
 4222TIP3    H134225   3.514   4.904   2.392  2.1056  1.6381  1.6437
 4222TIP3    H234226   3.609   5.007   2.334  0.4681  0.9794 -2.5703
 4223TIP3   OH234227   1.049   5.562   3.497 -0.3033 -0.5295  0.3538
 4223TIP3    H134228   1.086   5.519   3.574 -1.4937 -1.8160  0.2428
 4223TIP3    H234229   1.034   5.652   3.524  2.2699 -0.0865  0.5917
 4224TIP3   OH234230   3.637   3.922   3.200  0.4285  0.2067  0.5525
 4224TIP3    H134231   3.648   4.015   3.219  0.2317  0.3913 -0.2008
 4224TIP3    H234232   3.542   3.908   3.200  0.4691 -0.1579  1.3669
 4225TIP3   OH234233   1.462   1.436   3.421 -0.4387  0.5404  0.0327
 4225TIP3    H134234   1.384   1.412   3.471 -0.5587  1.2010  0.1780
 4225TIP3    H234235   1.532   1.441   3.486 -0.3024  0.1024 -0.0740
 4226TIP3   OH234236   4.357   0.864   2.356 -0.3550 -0.1494 -0.2999
 4226TIP3    H134237   4.341   0.771   2.339  1.0495 -0.1345 -1.9110
 4226TIP3    H234238   4.452   0.873   2.353 -0.5100  1.6205 -1.8408
 4227TIP3   OH234239   4.854   6.244   0.501  0.1649 -0.4776 -0.0377
 4227TIP3    H134240   4.782   6.300   0.530 -0.4169 -0.9314 -0.5805
 4227TIP3    H234241   4.869   6.270   0.410  1.1357  0.0680  0.2645
 4228TIP3   OH234242   4.023   4.600   2.284  0.7218  0.5212  0.4697
 4228TIP3    H134243   4.094   4.547   2.249 -0.1580 -0.4118  0.0492
 4228TIP3    H234244   4.018   4.675   2.225  0.0667 -0.4130 -0.7222
 4229TIP3   OH234245   4.987   3.986   1.449 -0.4766  0.2148 -0.2402
 4229TIP3    H134246   5.066   4.033   1.477 -0.4057 -0.3103  0.4481
 4229TIP3    H234247   4.983   4.002   1.354  1.7347 -1.5732 -0.7367
 4230TIP3   OH234248   3.950   2.892   0.836 -0.4279  0.1038 -0.0024
 4230TIP3    H134249   3.890   2.854   0.900  1.6381  0.4406  2.2622
 4230TIP3    H234250   3.997   2.817   0.800 -0.6233  0.0288 -0.1024
 4231TIP3   OH234251   5.633   1.543   3.763  0.0417  0.0964 -0.3383
 4231TIP3    H134252   5.600   1.455   3.780 -0.5048  0.2530 -0.5597
 4231TIP3    H234253   5.728   1.534   3.762  0.0905 -0.0819  1.9305
 4232TIP3   OH234254   2.144   1.430   3.158 -0.0355  0.1001 -0.3529
 4232TIP3    H134255   2.140   1.387   3.072  2.8860  0.0602 -0.5744
 4232TIP3    H234256   2.186   1.514   3.141  0.3417  0.2113  0.9964
 4233TIP3   OH234257   4.678   6.012   0.430  0.4134  0.0590  0.2072
 4233TIP3    H134258   4.656   6.015   0.337 -0.7971  2.2309  0.5087
 4233TIP3    H234259   4.719   6.096   0.448 -1.7926  0.8167  2.1659
 4234TIP3   OH234260   5.534   2.189   1.389  0.6680 -0.3696 -0.2209
 4234TIP3    H134261   5.621   2.226   1.398 -0.0259  1.1895  0.5234
 4234TIP3    H234262   5.537   2.107   1.439  1.2263  0.5495  1.3374
 4235TIP3   OH234263   0.801   5.437   3.464  0.4746 -0.1142  0.3931
 4235TIP3    H134264   0.837   5.360   3.507  0.7070 -0.1002  0.2293
 4235TIP3    H234265   0.875   5.499   3.461  0.5980 -0.2810 -0.4248
 4236TIP3   OH234266   2.631   2.504   3.635  0.5407  0.6790 -0.2441
 4236TIP3    H134267   2.689   2.444   3.682  0.6716 -0.2312 -1.5005
 4236TIP3    H234268   2.652   2.489   3.542 -0.4114  1.6722 -0.6434
 4237TIP3   OH234269   1.927   1.152   2.200  0.0489 -0.1211  0.0262
 4237TIP3    H134270   1.976   1.202   2.135  1.5375 -0.1713  1.0658
 4237TIP3    H234271   1.927   1.062   2.167  1.1442 -0.2195  0.2668
 4238TIP3   OH234272   3.964   1.551   0.758 -0.2352  0.6038  0.1579
 4238TIP3    H134273   3.895   1.489   0.731 -1.6508  0.8331  2.9205
 4238TIP3    H234274   3.935   1.635   0.723 -1.0922  0.5953  0.8207
 4239TIP3   OH234275   4.008   2.206   3.879  0.6006 -0.2214  0.4668
 4239TIP3    H134276   3.921   2.173   3.855  0.5861 -0.6082  1.0330
 4239TIP3    H234277   4.068   2.161   3.820  0.5529 -1.0519  1.0347
 4240TIP3   OH234278   5.065   2.662   3.945  0.0705  0.1757 -0.1044
 4240TIP3    H134279   5.008   2.738   3.959  0.5486  0.5020  0.1053
 4240TIP3    H234280   5.148   2.688   3.984 -0.0299 -0.8136  0.7934
 4241TIP3   OH234281   3.971   0.571   0.067  0.7284  0.9429  0.5020
 4241TIP3    H134282   4.028   0.632   0.020  1.4861  0.8834  1.3192
 4241TIP3    H234283   3.905   0.545   0.002  1.0770  1.7321 -0.1878
 4242TIP3   OH234284   0.255   4.166   3.435  0.2635 -0.8912 -0.1708
 4242TIP3    H134285   0.257   4.259   3.461  0.2229 -1.1346  0.7211
 4242TIP3    H234286   0.242   4.119   3.516  1.3123 -1.7521 -0.4766
 4243TIP3   OH234287   2.004   4.933   2.392  0.3186  0.0577 -0.4225
 4243TIP3    H134288   1.948   4.894   2.325 -0.2315 -3.7589  1.9378
 4243TIP3    H234289   2.090   4.893   2.377  0.4278 -0.0821  0.5182
 4244TIP3   OH234290   6.101   4.795   8.393  0.6364 -0.2451  0.0649
 4244TIP3    H134291   6.178   4.843   8.362  0.5220  1.0364  1.6128
 4244TIP3    H234292   6.039   4.801   8.321  0.5371  2.2399  0.2516
 4245TIP3   OH234293   5.943   3.177   2.812  0.2591 -0.8796  0.0873
 4245TIP3    H134294   5.905   3.118   2.746  2.0867 -1.5980 -0.3748
 4245TIP3    H234295   5.964   3.257   2.763 -1.5312 -0.0664  0.5614
 4246TIP3   OH234296   2.209   5.445   0.263  0.1410 -0.4353  0.0695
 4246TIP3    H134297   2.261   5.371   0.233  0.3578  0.3707 -1.6517
 4246TIP3    H234298   2.137   5.405   0.313  0.5511 -1.7528 -0.3599
 4247TIP3   OH234299   2.538   2.778   0.976 -0.4168  0.0006  0.3014
 4247TIP3    H134300   2.552   2.772   1.070  0.6082  1.2087  0.2603
 4247TIP3    H234301   2.554   2.689   0.943 -0.7675 -0.4238  1.2429
 4248TIP3   OH234302   6.465   0.838   3.552  0.0535  0.0510  0.3473
 4248TIP3    H134303   6.414   0.845   3.632 -1.2480 -1.5608 -0.2816
 4248TIP3    H234304   6.462   0.745   3.529  2.0946  0.1342 -0.5064
 4249TIP3   OH234305   4.940   6.457   2.328  0.3370 -0.2078 -0.1704
 4249TIP3    H134306   4.920   6.399   2.402 -0.1846 -0.0048 -0.1455
 4249TIP3    H234307   4.854   6.485   2.296  0.5246 -1.0700 -1.4908
 4250TIP3   OH234308   6.380   2.930   4.320 -0.2917 -0.3117  0.0092
 4250TIP3    H134309   6.416   3.004   4.271 -1.6939  0.4598  0.1159
 4250TIP3    H234310   6.455   2.897   4.371  0.7627 -0.0453 -1.3029
 4251TIP3   OH234311   4.997   2.896   4.260  0.9676 -0.1957 -0.0249
 4251TIP3    H134312   4.991   2.960   4.331  0.4610 -0.7702  0.4642
 4251TIP3    H234313   5.091   2.885   4.245  1.1104 -0.7833  1.2258
 4252TIP3   OH234314   2.424   6.164   1.534 -0.0475  0.7640  0.2150
 4252TIP3    H134315   2.416   6.099   1.465  0.5143  3.7414 -2.9734
 4252TIP3    H234316   2.335   6.195   1.548 -0.3609 -0.8155  1.9720
 4253TIP3   OH234317   0.877   5.900   2.189 -0.0339 -0.2366  0.7163
 4253TIP3    H134318   0.867   5.805   2.179 -0.0330 -0.1083 -0.7174
 4253TIP3    H234319   0.888   5.913   2.283 -2.5050 -1.4411  1.2743
 4254TIP3   OH234320   6.827   6.853   3.451  0.5642 -0.5806  0.0061
 4254TIP3    H134321   6.848   6.914   3.521  0.1366 -0.6566  0.2014
 4254TIP3    H234322   6.736   6.827   3.468  0.7377 -1.2520 -0.0894
 4255TIP3   OH234323   2.246   2.388   0.458  0.4552 -0.0348 -0.7077
 4255TIP3    H134324   2.226   2.308   0.508 -1.0033  0.5982 -0.2203
 4255TIP3    H234325   2.317   2.429   0.508 -0.2222  0.0202  0.2511
 4256TIP3   OH234326   2.397   0.364   2.547  0.0872  0.2331  0.5974
 4256TIP3    H134327   2.468   0.337   2.606  0.8432  0.0935 -0.3528
 4256TIP3    H234328   2.328   0.395   2.606  0.4893 -0.6764  1.5966
 4257TIP3   OH234329   1.116   5.733   2.550 -0.0041 -0.0577  0.2685
 4257TIP3    H134330   1.210   5.745   2.557 -0.1302  0.6288  0.7914
 4257TIP3    H234331   1.087   5.713   2.639 -0.5489  1.2055  0.3925
 4258TIP3   OH234332   6.760   1.370   2.270 -0.3031 -0.0297  0.6577
 4258TIP3    H134333   6.852   1.387   2.289  0.2750 -0.8530 -1.1616
 4258TIP3    H234334   6.720   1.457   2.266  0.6144  0.3947  0.5365
 4259TIP3   OH234335   4.316   6.321   1.792 -0.7788 -0.0250 -0.3431
 4259TIP3    H134336   4.398   6.314   1.742 -0.9666 -1.2373 -0.5004
 4259TIP3    H234337   4.249   6.339   1.725 -0.8123 -0.1631 -0.3460
 4260TIP3   OH234338   3.564   3.344   2.243 -0.3462  0.1098 -0.0365
 4260TIP3    H134339   3.531   3.295   2.168  1.4574  0.9404 -1.4392
 4260TIP3    H234340   3.568   3.435   2.213  1.3421  0.3150  0.6782
 4261TIP3   OH234341   5.927   6.000   4.052  0.3783  0.1025  0.8287
 4261TIP3    H134342   5.948   6.087   4.087 -0.5157  0.2660  0.9845
 4261TIP3    H234343   5.878   5.958   4.122  0.6732 -0.4807  0.6925
 4262TIP3   OH234344   6.222   5.840   1.402 -0.1344  0.0592 -0.7855
 4262TIP3    H134345   6.275   5.799   1.472  0.1841  1.3752 -0.2341
 4262TIP3    H234346   6.267   5.815   1.321 -1.2550 -2.6272 -0.6915
 4263TIP3   OH234347   6.623   4.315   3.500 -0.5900  0.6093  0.1937
 4263TIP3    H134348   6.685   4.336   3.570 -0.7266  2.9236 -0.3112
 4263TIP3    H234349   6.606   4.398   3.457 -3.2584 -0.1376 -0.3770
 4264TIP3   OH234350   2.006   1.302   4.510  0.5008  0.0100  0.3364
 4264TIP3    H134351   1.942   1.373   4.500  0.5816 -0.0030 -0.3017
 4264TIP3    H234352   1.971   1.248   4.581 -0.3450 -0.1662 -0.2134
 4265TIP3   OH234353   3.301   3.199   1.023 -0.4387 -0.2941 -0.2015
 4265TIP3    H134354   3.226   3.226   0.969  0.4099  2.6360 -0.0872
 4265TIP3    H234355   3.372   3.186   0.960 -0.3232 -0.2334 -0.0846
 4266TIP3   OH234356   0.026   2.034   0.511  0.6724 -0.6884  0.0488
 4266TIP3    H134357   0.040   2.113   0.564 -0.2937 -0.3466 -0.1799
 4266TIP3    H234358  -0.022   2.065   0.434  0.4714 -1.4694 -0.1466
 4267TIP3   OH234359   1.373   4.445   1.933  0.2230 -0.1366  0.0286
 4267TIP3    H134360   1.341   4.495   2.008  1.4376  2.0581 -0.8300
 4267TIP3    H234361   1.416   4.369   1.972 -0.3763  0.2262  1.4643
 4268TIP3   OH234362   5.462   6.199   3.506  0.3400  0.2185 -0.7475
 4268TIP3    H134363   5.371   6.208   3.531  0.3255 -0.3090 -0.6003
 4268TIP3    H234364   5.467   6.113   3.463  0.4175  0.9694 -2.3116
 4269TIP3   OH234365   1.887   5.709   0.135  0.5177 -0.5791 -0.3839
 4269TIP3    H134366   1.841   5.629   0.160  3.4120 -2.6795 -1.2186
 4269TIP3    H234367   1.929   5.739   0.216 -0.1204 -0.2327 -0.1824
 4270TIP3   OH234368   2.207   3.171   2.679 -0.4616 -0.1457  0.1814
 4270TIP3    H134369   2.214   3.209   2.592 -0.0345 -1.0003 -0.1779
 4270TIP3    H234370   2.267   3.223   2.733  0.3755 -0.5108 -0.3770
 4271TIP3   OH234371   3.491   0.923   1.205  0.1230 -0.1640  0.3248
 4271TIP3    H134372   3.514   0.955   1.118 -0.0882 -2.9352 -0.8739
 4271TIP3    H234373   3.423   0.857   1.188 -0.6336 -0.0693  2.7009
 4272TIP3   OH234374   6.929   6.267   1.650 -0.2020 -0.3041  0.2718
 4272TIP3    H134375   6.897   6.346   1.694 -2.7492 -0.5432 -0.9988
 4272TIP3    H234376   6.985   6.299   1.580 -1.1289  0.4129 -0.1605
 4273TIP3   OH234377   1.563   6.701   2.837  0.2154  0.2246 -0.4929
 4273TIP3    H134378   1.535   6.790   2.817  0.0531  0.2011 -0.3757
 4273TIP3    H234379   1.592   6.665   2.753 -0.4991  0.1157 -0.6973
 4274TIP3   OH234380   3.322   1.742   1.795 -0.0483 -0.6857  0.2601
 4274TIP3    H134381   3.415   1.761   1.791  0.4639 -3.0232 -2.0981
 4274TIP3    H234382   3.286   1.777   1.714 -1.4620  0.9411  1.5131
 4275TIP3   OH234383   4.986   5.567   0.611 -0.5173 -0.7714 -0.3278
 4275TIP3    H134384   4.910   5.537   0.660  0.3608  0.4796  1.9451
 4275TIP3    H234385   5.060   5.553   0.671  1.1581 -2.2119 -2.5446
 4276TIP3   OH234386   5.991   0.431   3.560  0.0845 -0.1051  0.5487
 4276TIP3    H134387   5.996   0.472   3.647  0.9628 -0.5755  0.7302
 4276TIP3    H234388   6.076   0.388   3.549 -0.0305 -0.0747 -0.5369
 4277TIP3   OH234389   5.623   4.150   3.433  0.0870 -0.0673  0.2109
 4277TIP3    H134390   5.614   4.233   3.387  1.9493 -0.9700 -2.0039
 4277TIP3    H234391   5.544   4.144   3.487 -1.8978  1.5124 -2.2435
 4278TIP3   OH234392   5.471   2.211   3.867 -0.2250 -0.7263 -0.1042
 4278TIP3    H134393   5.409   2.158   3.816 -0.1726 -1.2806  0.3969
 4278TIP3    H234394   5.520   2.147   3.919  0.5335 -0.2624 -0.2404
 4279TIP3   OH234395   4.921   6.724   2.929 -0.0489 -0.5085 -0.3909
 4279TIP3    H134396   5.008   6.708   2.892  0.6184  0.6062  0.6206
 4279TIP3    H234397   4.886   6.637   2.946  0.4429 -1.0017 -1.7389
 4280TIP3   OH234398   5.502   6.710   0.780  0.3160  0.1106 -0.0475
 4280TIP3    H134399   5.462   6.643   0.835 -1.1726 -0.2194 -1.4676
 4280TIP3    H234400   5.596   6.701   0.796  0.0681 -1.4722  0.7273
 4281TIP3   OH234401   2.052   4.055   2.400 -0.2043 -0.3835  0.0721
 4281TIP3    H134402   2.035   3.972   2.446 -1.6370 -1.2364 -1.8470
 4281TIP3    H234403   2.132   4.039   2.350 -0.8884 -0.9269 -0.8887
 4282TIP3   OH234404   4.126   3.619   1.173 -0.1116 -0.0867 -0.1293
 4282TIP3    H134405   4.085   3.588   1.254 -0.2080 -1.1430 -0.5630
 4282TIP3    H234406   4.217   3.590   1.179  0.0426  0.3883 -0.1225
 4283TIP3   OH234407   6.292   5.978   2.974 -0.4308 -0.5293  0.5407
 4283TIP3    H134408   6.351   6.023   2.914 -2.0240 -0.2051 -0.8470
 4283TIP3    H234409   6.333   5.988   3.060  1.2733  0.0771 -0.2936
 4284TIP3   OH234410   4.521   6.670   1.818 -0.3109  0.0015  0.0387
 4284TIP3    H134411   4.465   6.741   1.850  0.4728  1.9044 -2.5229
 4284TIP3    H234412   4.471   6.629   1.749  0.2820 -0.2096 -0.2719
 4285TIP3   OH234413   4.609   1.660   3.650  0.0965 -0.0785  0.6003
 4285TIP3    H134414   4.633   1.581   3.601  0.9080 -0.7003  1.9396
 4285TIP3    H234415   4.513   1.658   3.654  0.0803 -0.5934 -0.0267
 4286TIP3   OH234416   3.697   6.899   2.756 -0.1140  0.0679 -0.8128
 4286TIP3    H134417   3.784   6.919   2.720 -0.9564  2.3712 -1.7057
 4286TIP3    H234418   3.700   6.932   2.846 -0.0708  0.1558 -0.8462
 4287TIP3   OH234419   5.646   3.530   2.686  0.0702 -0.8081 -0.0209
 4287TIP3    H134420   5.710   3.595   2.656 -2.6383  2.0051 -0.3255
 4287TIP3    H234421   5.641   3.544   2.781  1.2010 -2.3690  0.2964
 4288TIP3   OH234422   0.538   5.929   4.225 -0.2896 -0.6053 -0.2260
 4288TIP3    H134423   0.558   5.851   4.277 -0.3220 -0.1568  0.4798
 4288TIP3    H234424   0.608   5.934   4.161  0.3641 -0.5658  0.4735
 4289TIP3   OH234425   0.192   2.928   2.897  0.6529  0.1564 -0.3009
 4289TIP3    H134426   0.175   2.962   2.985 -1.5903 -0.1604 -0.5450
 4289TIP3    H234427   0.168   2.999   2.838 -0.5431 -0.5395 -0.6993
 4290TIP3   OH234428   1.616   4.993   3.145 -0.2999 -0.2336  0.4372
 4290TIP3    H134429   1.648   4.954   3.063 -0.3741  1.6769 -0.5608
 4290TIP3    H234430   1.556   4.928   3.181  2.1429 -2.5288  0.6691
 4291TIP3   OH234431   4.751   5.189   1.152 -0.0436 -0.4453  0.8217
 4291TIP3    H134432   4.810   5.247   1.199  0.6646 -1.3619  1.0853
 4291TIP3    H234433   4.807   5.140   1.093 -0.9825  1.2403 -1.6545
 4292TIP3   OH234434   0.941   4.620   1.688  0.6983  0.4541  0.4072
 4292TIP3    H134435   1.032   4.601   1.710  0.8646  0.8185  0.0415
 4292TIP3    H234436   0.915   4.549   1.630  0.9691  0.7296 -0.0530
 4293TIP3   OH234437   1.948   5.303   8.076  0.0991 -0.3009 -0.8521
 4293TIP3    H134438   1.932   5.242   8.149  0.8662 -0.4309 -0.7815
 4293TIP3    H234439   1.942   5.248   7.998  0.1375 -0.3403 -0.8279
 4294TIP3   OH234440   4.037   3.967   3.536 -0.0266 -0.0780 -0.5333
 4294TIP3    H134441   4.127   3.947   3.562 -1.1825 -2.0749  2.5370
 4294TIP3    H234442   4.019   3.905   3.465 -0.0704 -2.4649  1.4363
 4295TIP3   OH234443   2.644   3.507   2.797 -0.5260  0.2791  0.3117
 4295TIP3    H134444   2.714   3.474   2.740 -0.8544 -0.5871  0.3962
 4295TIP3    H234445   2.629   3.597   2.767 -1.3782 -0.4597 -1.6762
 4296TIP3   OH234446   5.752   6.673   3.124 -0.0857  0.4536  0.1473
 4296TIP3    H134447   5.756   6.743   3.188  2.9763 -1.7958  2.7524
 4296TIP3    H234448   5.833   6.681   3.074 -0.2977 -0.4471 -0.3712
 4297TIP3   OH234449   3.687   0.718   3.109  0.2015  0.0924  0.8162
 4297TIP3    H134450   3.718   0.631   3.083 -0.9603  0.0400 -0.5125
 4297TIP3    H234451   3.759   0.755   3.161  1.3529 -1.0565  0.0871
 4298TIP3   OH234452   6.051   5.854   0.341  0.0190  0.1295 -0.4724
 4298TIP3    H134453   6.019   5.763   0.343  0.4955 -0.0364  2.0911
 4298TIP3    H234454   6.107   5.857   0.263  1.3807 -2.3126  0.2882
 4299TIP3   OH234455   3.237   2.401   2.509  0.1966  0.6986 -0.1835
 4299TIP3    H134456   3.282   2.317   2.515 -2.7718 -0.9621  1.9862
 4299TIP3    H234457   3.180   2.392   2.432 -0.1650  0.6923  0.0834
 4300TIP3   OH234458   0.425   1.892   0.596 -0.2206 -0.3332  0.3202
 4300TIP3    H134459   0.388   1.972   0.560  0.1894 -0.7492 -1.0843
 4300TIP3    H234460   0.350   1.838   0.619 -0.4863 -0.0562  0.1000
 4301TIP3   OH234461   5.228   4.822   1.683  0.9308  0.1478  0.3448
 4301TIP3    H134462   5.134   4.825   1.703  0.3009 -0.5407 -2.1892
 4301TIP3    H234463   5.248   4.909   1.650  1.0832  0.1505  0.4433
 4302TIP3   OH234464   4.921   1.186   4.076 -0.7487  0.2922  0.2429
 4302TIP3    H134465   4.876   1.160   4.157  0.8850 -1.2890  0.7021
 4302TIP3    H234466   4.989   1.247   4.105  0.0418 -0.5195  0.1366
 4303TIP3   OH234467   6.365   6.478   3.002  0.0377 -0.5080 -0.3218
 4303TIP3    H134468   6.295   6.543   3.000 -0.7907 -1.3500  0.1607
 4303TIP3    H234469   6.319   6.394   3.001  1.0294 -1.0830  0.3848
 4304TIP3   OH234470   2.637   1.668   3.482 -0.2674 -0.0053  0.9801
 4304TIP3    H134471   2.701   1.681   3.412  0.7619 -1.7762  1.5157
 4304TIP3    H234472   2.639   1.750   3.531  0.5028  0.5181  0.1140
 4305TIP3   OH234473   5.710   1.875   1.465  0.2174 -0.1347 -0.1410
 4305TIP3    H134474   5.745   1.786   1.465  0.8791  0.0491  2.4746
 4305TIP3    H234475   5.714   1.902   1.373  1.4185 -2.2432 -0.7784
 4306TIP3   OH234476   6.809   0.639   3.057 -0.1872 -0.2582 -0.6294
 4306TIP3    H134477   6.768   0.553   3.068 -2.6437  0.7374 -1.3446
 4306TIP3    H234478   6.774   0.672   2.974 -0.5035  2.0695  0.3650
 4307TIP3   OH234479   0.687   1.178   1.153  0.2006 -0.3364 -0.4687
 4307TIP3    H134480   0.673   1.190   1.247 -0.1664 -0.3173 -0.5214
 4307TIP3    H234481   0.733   1.258   1.125  0.2338 -0.3032 -0.3215
 4308TIP3   OH234482   6.816   0.851   1.006  0.2767  0.0125  0.2276
 4308TIP3    H134483   6.890   0.822   0.954 -0.8739 -2.1962 -0.2950
 4308TIP3    H234484   6.838   0.826   1.096  0.1928 -0.6272  0.0746
 4309TIP3   OH234485   3.038   5.608   3.320  0.1274 -0.4243  0.3988
 4309TIP3    H134486   2.990   5.531   3.290 -0.0725  0.1893 -0.9408
 4309TIP3    H234487   2.981   5.647   3.387 -0.7368 -0.3237 -0.3782
 4310TIP3   OH234488   2.192   1.460   0.070 -0.7243  0.0854  0.5848
 4310TIP3    H134489   2.219   1.380   0.116  0.3786  0.3516  0.4388
 4310TIP3    H234490   2.215   1.531   0.130  0.3062  0.4075 -0.1567
 4311TIP3   OH234491   1.995   1.733   2.672 -0.4634  0.5470 -0.1926
 4311TIP3    H134492   1.919   1.747   2.616 -0.6255  0.4286 -0.0072
 4311TIP3    H234493   2.068   1.719   2.612 -0.6242  0.4742 -0.3716
 4312TIP3   OH234494   2.204   0.407   0.539 -0.2434  0.7807 -0.6385
 4312TIP3    H134495   2.196   0.312   0.528 -0.8883  0.5394  1.3776
 4312TIP3    H234496   2.200   0.442   0.450 -1.2611 -1.0016 -1.3602
 4313TIP3   OH234497   2.221   1.122   2.507 -0.3395 -0.2981  0.1870
 4313TIP3    H134498   2.261   1.058   2.566  0.7997 -0.0937 -0.3477
 4313TIP3    H234499   2.129   1.124   2.534 -0.5540 -2.5631 -0.1378
 4314TIP3   OH234500   5.841   2.431   2.644  0.2743  0.8107  0.2750
 4314TIP3    H134501   5.922   2.410   2.690  1.1538 -0.3116 -1.6567
 4314TIP3    H234502   5.866   2.499   2.581 -0.3247  0.5580 -0.2485
 4315TIP3   OH234503   4.332   3.655   0.395  0.6003 -0.3219 -0.0454
 4315TIP3    H134504   4.278   3.727   0.365  1.5443  0.0650 -0.8711
 4315TIP3    H234505   4.343   3.669   0.489 -0.7418 -0.4313  0.1380
 4316TIP3   OH234506   0.737   4.617   2.559 -0.6117  0.1997 -0.1526
 4316TIP3    H134507   0.787   4.539   2.536  1.1810  1.6305 -1.3662
 4316TIP3    H234508   0.646   4.587   2.564  0.2070 -2.3188  1.2893
 4317TIP3   OH234509   5.708   5.388   1.950  0.0790  0.0134 -0.2846
 4317TIP3    H134510   5.791   5.422   1.918  0.5429 -2.0188 -1.3834
 4317TIP3    H234511   5.722   5.294   1.959 -1.9558 -0.3101 -0.0242
 4318TIP3   OH234512   2.428   3.118   3.059 -0.0552 -0.6763 -0.3301
 4318TIP3    H134513   2.387   3.068   2.988 -0.0709 -0.8886 -0.1698
 4318TIP3    H234514   2.422   3.209   3.030  0.5377 -0.8142 -0.9183
 4319TIP3   OH234515   3.854   0.523   2.824 -0.3104  0.3677  0.1980
 4319TIP3    H134516   3.793   0.492   2.891 -0.1126  0.3910  0.3891
 4319TIP3    H234517   3.842   0.618   2.824  0.0128  0.4099  0.5156
 4320TIP3   OH234518   3.658   2.591   0.293 -0.5579  0.3311  0.0364
 4320TIP3    H134519   3.609   2.547   0.363 -1.2878  2.9387  1.3055
 4320TIP3    H234520   3.613   2.675   0.282  1.9673  1.6733 -0.7337
 4321TIP3   OH234521   0.955   6.950   2.835  0.6391  0.0717 -0.5774
 4321TIP3    H134522   0.980   7.015   2.900 -1.2916  0.5217 -0.2277
 4321TIP3    H234523   1.035   6.936   2.784  1.7820  0.8310  0.9113
 4322TIP3   OH234524   1.528   3.132   0.157 -0.1128  0.4390  0.1490
 4322TIP3    H134525   1.442   3.170   0.141 -0.3527 -0.6541 -1.4620
 4322TIP3    H234526   1.524   3.046   0.114  1.2805 -0.2809  1.3660
 4323TIP3   OH234527   4.576   5.636   3.623  0.0751 -0.1918 -0.1975
 4323TIP3    H134528   4.517   5.709   3.635  0.7120  0.6467 -1.7690
 4323TIP3    H234529   4.616   5.652   3.537  2.3321 -0.8672  0.6559
 4324TIP3   OH234530   6.565   2.413   0.689 -0.0180  0.0773  0.5751
 4324TIP3    H134531   6.518   2.426   0.607 -0.4686 -0.4699  0.7394
 4324TIP3    H234532   6.562   2.318   0.704  1.1505  0.0278  0.5834
 4325TIP3   OH234533   0.185   5.141   2.639  0.6029  0.3611  0.8372
 4325TIP3    H134534   0.158   5.068   2.584 -2.3860  1.0829  1.1400
 4325TIP3    H234535   0.144   5.123   2.724  0.5453  1.9215  1.1693
 4326TIP3   OH234536   4.266   0.545   0.312 -0.5769 -0.4988 -0.4702
 4326TIP3    H134537   4.308   0.471   0.356  1.0010  0.9985  0.6693
 4326TIP3    H234538   4.302   0.623   0.356 -4.0088  0.9529  0.1124
 4327TIP3   OH234539   0.374   0.475   3.602  0.4349 -0.1461  0.0479
 4327TIP3    H134540   0.441   0.427   3.650 -1.3903 -1.7188  1.1313
 4327TIP3    H234541   0.333   0.531   3.668 -1.5886 -1.7666  0.2472
 4328TIP3   OH234542   3.860   4.067   1.134  0.6142 -0.8162  0.2687
 4328TIP3    H134543   3.822   4.018   1.060 -0.8856 -0.1458  0.5683
 4328TIP3    H234544   3.809   4.040   1.210 -0.4847  1.3900  0.4007
 4329TIP3   OH234545   1.453   0.874   2.115  0.2398  0.9627 -0.0756
 4329TIP3    H134546   1.366   0.908   2.095  0.1360  0.2276 -0.9408
 4329TIP3    H234547   1.512   0.922   2.056  0.2458  0.5416 -0.4196
 4330TIP3   OH234548   0.527   5.639   3.013 -0.1722 -0.7578 -0.4978
 4330TIP3    H134549   0.470   5.640   3.089  0.9116  0.4654  0.3504
 4330TIP3    H234550   0.611   5.608   3.046  0.4067  0.0940 -1.1120
 4331TIP3   OH234551   6.243   1.652   1.990  0.1406  0.4283 -0.1419
 4331TIP3    H134552   6.221   1.559   1.996  2.8674 -0.2794  0.2807
 4331TIP3    H234553   6.297   1.659   1.911  1.0208  1.3715  0.5125
 4332TIP3   OH234554   3.041   5.924   2.749 -0.1305 -0.2757  0.3239
 4332TIP3    H134555   3.007   5.853   2.696 -1.2537 -0.5611  1.3690
 4332TIP3    H234556   3.067   5.883   2.832  2.1094  0.0568 -0.1417
 4333TIP3   OH234557   2.290   4.194   2.762 -0.4556 -0.0020  0.4497
 4333TIP3    H134558   2.370   4.218   2.716 -0.6336 -0.5271 -0.1499
 4333TIP3    H234559   2.305   4.103   2.790 -0.9374 -0.1876  0.1143
 4334TIP3   OH234560   0.822   2.625   8.461 -0.4733  0.1374  0.1331
 4334TIP3    H134561   0.833   2.698   8.521  0.7509  0.8940 -0.9594
 4334TIP3    H234562   0.738   2.640   8.418 -0.9204  0.0827  0.9864
 4335TIP3   OH234563   4.930   0.358   3.237  0.5776 -0.4839  0.2774
 4335TIP3    H134564   4.990   0.284   3.246  1.2654 -0.0593 -0.7268
 4335TIP3    H234565   4.846   0.324   3.266  0.1875 -2.5714 -2.8803
 4336TIP3   OH234566   1.692   0.717   3.071 -0.5389 -0.0288 -0.4266
 4336TIP3    H134567   1.768   0.660   3.055  0.3791  1.3200 -1.1115
 4336TIP3    H234568   1.729   0.805   3.073 -2.1297  0.6846 -0.9671
 4337TIP3   OH234569   2.843   2.124   2.471  0.4357 -0.1211  0.3644
 4337TIP3    H134570   2.801   2.209   2.481  0.1660 -0.2688  0.4927
 4337TIP3    H234571   2.907   2.137   2.401 -1.8008 -0.6010 -1.9419
 4338TIP3   OH234572   6.467   5.185   2.737 -0.9623 -0.9221 -0.2575
 4338TIP3    H134573   6.474   5.256   2.673 -1.8058  0.0554  0.6887
 4338TIP3    H234574   6.519   5.214   2.811 -1.0279 -1.4680  0.0085
 4339TIP3   OH234575   6.047   3.784   3.408 -0.5762 -0.2646  0.0451
 4339TIP3    H134576   5.968   3.729   3.398  0.9017 -2.3274 -1.1021
 4339TIP3    H234577   6.119   3.721   3.414  0.9441  1.5422  1.9571
 4340TIP3   OH234578   5.119   5.034   1.987 -0.2400  0.1992 -0.0221
 4340TIP3    H134579   5.199   5.082   1.962  0.3093 -0.9595 -0.6007
 4340TIP3    H234580   5.076   5.015   1.903  0.6594 -2.1270 -0.0269
 4341TIP3   OH234581   0.743   3.011   3.347  0.3642  0.1850  0.3679
 4341TIP3    H134582   0.708   3.081   3.403 -0.4571  1.9742 -2.1634
 4341TIP3    H234583   0.668   2.985   3.292  1.0081 -1.7798  0.3617
 4342TIP3   OH234584   2.670   2.897   1.968 -0.1778  0.4575 -0.2326
 4342TIP3    H134585   2.672   2.896   1.872 -0.8863 -0.6790 -0.2601
 4342TIP3    H234586   2.604   2.962   1.990  0.1087  0.8483 -0.5031
 4343TIP3   OH234587   4.616   4.239   4.303  0.2337  0.1628 -0.1177
 4343TIP3    H134588   4.630   4.329   4.273  1.1356  0.2152  0.4396
 4343TIP3    H234589   4.686   4.223   4.366  0.7868 -1.3128 -1.0530
 4344TIP3   OH234590   3.180   3.973   2.607  0.3436  0.6247  0.4054
 4344TIP3    H134591   3.089   3.955   2.583  0.1099  1.1198  0.8923
 4344TIP3    H234592   3.231   3.945   2.531 -0.1752 -0.0785  0.3080
 4345TIP3   OH234593   2.835   3.660   1.364 -0.1915  0.0228  0.0633
 4345TIP3    H134594   2.867   3.707   1.287  2.0781 -0.8278  0.4098
 4345TIP3    H234595   2.849   3.721   1.436  0.2934 -0.1888  0.1543
 4346TIP3   OH234596   2.287   6.274   2.561 -0.2946 -0.2649 -0.0320
 4346TIP3    H134597   2.368   6.278   2.509  0.7863  0.9253  1.6338
 4346TIP3    H234598   2.223   6.324   2.510  0.4758  0.1204 -0.6460
 4347TIP3   OH234599   3.267   3.338   8.454  0.0904 -0.2140 -0.0112
 4347TIP3    H134600   3.220   3.290   8.387 -1.4481  2.1855 -0.7882
 4347TIP3    H234601   3.347   3.368   8.411 -1.5075  2.4593 -1.3531
 4348TIP3   OH234602   6.835   3.246   0.691 -0.2729  0.1628  0.0859
 4348TIP3    H134603   6.885   3.273   0.768  0.7914 -1.4066  0.0120
 4348TIP3    H234604   6.774   3.181   0.725  0.4116 -0.7628 -0.4092
 4349TIP3   OH234605   3.055   0.508   2.810 -0.7683  0.0673 -0.6267
 4349TIP3    H134606   3.087   0.496   2.721 -2.7750  0.2419 -1.4187
 4349TIP3    H234607   3.122   0.562   2.852 -1.0471  2.3800 -2.8781
 4350TIP3   OH234608   2.831   2.502   1.534  0.0565  0.1701 -0.2851
 4350TIP3    H134609   2.745   2.519   1.573 -0.7947  1.8590 -2.6712
 4350TIP3    H234610   2.849   2.410   1.556 -2.0214 -0.0333  0.8620
 4351TIP3   OH234611   3.467   0.033   4.056 -0.9193  0.0775  0.4702
 4351TIP3    H134612   3.485   0.127   4.051  0.0370 -0.1599 -1.2716
 4351TIP3    H234613   3.487  -0.000   3.968  1.5852 -2.2366  1.7869
 4352TIP3   OH234614   1.239   4.291   3.266 -0.0328  0.4400  0.0843
 4352TIP3    H134615   1.235   4.253   3.354 -0.7583  2.1285  0.8289
 4352TIP3    H234616   1.275   4.221   3.211  1.2041 -0.4024  1.8646
 4353TIP3   OH234617   3.068   6.283   4.622 -0.7429 -0.4710 -0.1280
 4353TIP3    H134618   3.152   6.324   4.601 -0.6717 -0.2613  0.5430
 4353TIP3    H234619   3.090   6.193   4.646 -0.6200 -0.2304  0.7068
 4354TIP3   OH234620   3.371   3.812   0.360 -0.2439 -0.1337 -0.7420
 4354TIP3    H134621   3.377   3.771   0.274 -0.9101 -0.7165 -0.5072
 4354TIP3    H234622   3.370   3.906   0.341 -0.0717 -0.2489 -1.3449
 4355TIP3   OH234623   3.704   2.819   2.576 -0.2821 -0.0603  0.1870
 4355TIP3    H134624   3.666   2.785   2.495 -0.6822  1.2425 -0.2096
 4355TIP3    H234625   3.795   2.838   2.554 -0.5877  1.0292 -0.2229
 4356TIP3   OH234626   6.820   3.749   3.145 -0.1930 -0.0576  0.0957
 4356TIP3    H134627   6.788   3.691   3.077 -3.7224  0.0124  1.4639
 4356TIP3    H234628   6.900   3.707   3.178 -0.9063 -2.4607 -1.0414
 4357TIP3   OH234629   4.549   0.575   2.121  0.1892  0.2644 -0.4857
 4357TIP3    H134630   4.491   0.615   2.055 -0.7041 -1.0799 -0.5619
 4357TIP3    H234631   4.559   0.643   2.188 -0.0340  1.1561 -1.3231
 4358TIP3   OH234632   1.392   0.525   1.205  0.3426 -0.1570  0.1004
 4358TIP3    H134633   1.466   0.583   1.192 -0.9258  1.1079 -2.1812
 4358TIP3    H234634   1.374   0.488   1.119 -1.0512 -1.2186  0.7864
 4359TIP3   OH234635   2.380   6.548   3.134 -0.3364 -0.8025  0.2163
 4359TIP3    H134636   2.455   6.603   3.110  1.5357 -2.8603  0.9206
 4359TIP3    H234637   2.314   6.566   3.067  1.3430  0.0520 -1.2925
 4360TIP3   OH234638   2.647   5.386   3.244 -0.3467 -0.3090  0.5122
 4360TIP3    H134639   2.612   5.425   3.324 -0.1621 -0.7735  0.8258
 4360TIP3    H234640   2.594   5.423   3.174  0.2784  1.0526  0.7243
 4361TIP3   OH234641   2.604   4.971   1.963 -0.4408  0.1439  0.2245
 4361TIP3    H134642   2.578   4.962   2.055 -2.2017 -0.2713 -0.2775
 4361TIP3    H234643   2.619   5.065   1.952  0.4831  0.1069  1.1057
 4362TIP3   OH234644   5.929   1.658   1.937  0.2034  0.3156  0.1628
 4362TIP3    H134645   5.898   1.748   1.948  1.8221  1.1707 -1.6423
 4362TIP3    H234646   6.024   1.665   1.948  0.3510 -1.1773 -0.0705
 4363TIP3   OH234647   5.424   1.443   1.313 -0.6722  0.0166  0.4417
 4363TIP3    H134648   5.497   1.409   1.366  0.2237 -0.2143 -0.8930
 4363TIP3    H234649   5.443   1.537   1.306 -0.1608 -0.1378 -0.3888
 4364TIP3   OH234650   1.079   5.304   0.601 -0.9119 -0.2995  0.1407
 4364TIP3    H134651   1.083   5.391   0.642 -1.4526 -0.5387  0.7192
 4364TIP3    H234652   0.987   5.279   0.608 -0.5913 -1.3293  0.8337
 4365TIP3   OH234653   0.760   0.328   8.233  0.1837 -0.0539  0.2693
 4365TIP3    H134654   0.778   0.414   8.195  0.8112 -0.2872  0.0247
 4365TIP3    H234655   0.803   0.266   8.174 -1.0028 -0.6156 -0.0593
 4366TIP3   OH234656   4.469   1.088   1.001  0.5797 -0.2444 -0.0309
 4366TIP3    H134657   4.474   1.010   1.055 -0.7317 -0.0015  0.4578
 4366TIP3    H234658   4.560   1.103   0.973  1.3190 -0.3392  2.1249
 4367TIP3   OH234659   6.542   2.534   0.423  0.1352  0.1103 -0.1962
 4367TIP3    H134660   6.533   2.619   0.466 -2.5933  0.5525 -1.3721
 4367TIP3    H234661   6.467   2.531   0.363  0.4698 -2.9000 -0.5898
 4368TIP3   OH234662   6.872   5.480   2.967 -0.3187 -0.1771  0.2175
 4368TIP3    H134663   6.888   5.525   2.884  2.5962  0.8816  1.2045
 4368TIP3    H234664   6.939   5.412   2.971 -2.3387 -2.2533  0.4173
 4369TIP3   OH234665   5.241   6.595   3.400  0.6987  0.4099 -0.6424
 4369TIP3    H134666   5.267   6.563   3.314  0.2929 -2.3547  0.1574
 4369TIP3    H234667   5.239   6.516   3.455 -2.4544  1.4849  1.0319
 4370TIP3   OH234668   1.468   2.437   0.192 -0.2758 -0.0869 -0.8335
 4370TIP3    H134669   1.407   2.504   0.162 -1.1414 -0.5703 -0.2119
 4370TIP3    H234670   1.552   2.460   0.152  0.1384  2.8429  1.3788
 4371TIP3   OH234671   3.609   3.372   2.633  0.9777  0.0652  0.1860
 4371TIP3    H134672   3.592   3.422   2.713  0.8259 -1.5292  1.1843
 4371TIP3    H234673   3.664   3.430   2.580 -0.7973  2.0847  0.3978
 4372TIP3   OH234674   3.692   5.578   3.687  0.6487 -0.7209 -0.2744
 4372TIP3    H134675   3.725   5.664   3.714  0.4073  0.1394 -2.4988
 4372TIP3    H234676   3.646   5.545   3.764  0.8400  1.0882  0.6807
 4373TIP3   OH234677   1.530   0.897   1.724  0.2857 -0.2849 -0.5171
 4373TIP3    H134678   1.591   0.909   1.797  0.5210  0.7919 -0.8709
 4373TIP3    H234679   1.585   0.898   1.646  0.1620 -2.5505 -0.6784
 4374TIP3   OH234680   1.203   0.992   4.273 -0.2640  0.1241  0.0481
 4374TIP3    H134681   1.275   1.016   4.330 -0.0727 -1.6745  0.6196
 4374TIP3    H234682   1.137   1.060   4.287  1.0258  1.4263  0.0057
 4375TIP3   OH234683   6.061   4.241   1.730  0.5956  0.0966  0.5196
 4375TIP3    H134684   6.096   4.274   1.812 -0.3891 -2.0523  1.8926
 4375TIP3    H234685   5.980   4.197   1.754  0.4686 -0.9401 -1.5521
 4376TIP3   OH234686   0.602   2.366   8.418 -0.7468 -0.4457  0.9109
 4376TIP3    H134687   0.546   2.297   8.382 -2.2925  0.7491  0.9059
 4376TIP3    H234688   0.564   2.448   8.384  1.0821  0.4233  0.8341
 4377TIP3   OH234689   6.070   3.163   0.729 -0.0667  0.3810  0.0792
 4377TIP3    H134690   5.986   3.176   0.686  0.4772 -0.3561 -1.2714
 4377TIP3    H234691   6.133   3.157   0.657  0.8696 -0.9553  0.9537
 4378TIP3   OH234692   5.418   2.434   2.402 -0.5111  0.1831  0.2188
 4378TIP3    H134693   5.343   2.374   2.404 -0.9920  0.7708  0.1265
 4378TIP3    H234694   5.491   2.382   2.436 -0.9458 -0.4154  0.2583
 4379TIP3   OH234695   5.808   3.007   1.524 -0.7776  0.5064  0.3661
 4379TIP3    H134696   5.821   3.091   1.569  0.8126  2.4873 -3.3397
 4379TIP3    H234697   5.824   2.941   1.592  1.7983  3.1850  2.6535
 4380TIP3   OH234698   1.804   6.241   4.300 -0.7241 -0.5041 -0.2341
 4380TIP3    H134699   1.726   6.186   4.311  0.6326 -2.1736  1.9698
 4380TIP3    H234700   1.876   6.179   4.292  0.7160  0.9236  0.8848
 4381TIP3   OH234701   2.935   1.696   2.606 -0.1448 -0.5801 -0.3109
 4381TIP3    H134702   2.994   1.638   2.654  0.5082  0.3979  0.0871
 4381TIP3    H234703   2.946   1.781   2.647 -1.4625 -0.2652 -0.5691
 4382TIP3   OH234704   0.071   3.127   3.125  0.0961 -0.0220  0.6012
 4382TIP3    H134705   0.128   3.155   3.197  0.4804 -0.6409  0.5456
 4382TIP3    H234706   0.071   3.201   3.064 -0.1129  0.4487  1.1637
 4383TIP3   OH234707   2.034   4.480   1.330 -0.7613 -0.2717 -0.0401
 4383TIP3    H134708   1.985   4.447   1.254  0.7737  0.4552 -1.4286
 4383TIP3    H234709   2.010   4.573   1.335  1.0239  0.3155 -1.2882
 4384TIP3   OH234710   4.887   2.544   4.419 -0.1612 -0.4555 -0.0608
 4384TIP3    H134711   4.953   2.486   4.380  0.6117  0.1883  0.2568
 4384TIP3    H234712   4.838   2.488   4.479  1.5854 -0.4693  1.4274
 4385TIP3   OH234713   2.497   6.243   3.837  0.0219  0.5752 -0.0704
 4385TIP3    H134714   2.483   6.333   3.865 -0.1190  0.0658  1.5865
 4385TIP3    H234715   2.458   6.189   3.906  0.8301 -0.7613 -0.6080
 4386TIP3   OH234716   3.438   1.505   3.385  0.5304  0.2948 -0.0986
 4386TIP3    H134717   3.490   1.509   3.465  0.7324 -0.8075 -0.1657
 4386TIP3    H234718   3.349   1.526   3.414  0.3445 -1.3531  0.6826
 4387TIP3   OH234719   5.577   0.358   1.065 -0.1816 -0.1457  0.1458
 4387TIP3    H134720   5.640   0.338   0.995 -1.1415 -1.0460 -0.4991
 4387TIP3    H234721   5.565   0.275   1.110 -1.0786 -0.0374  0.1143
 4388TIP3   OH234722   1.599   0.766   2.663  0.0019 -0.0829 -0.2341
 4388TIP3    H134723   1.593   0.670   2.657  0.3873 -0.0536 -1.2954
 4388TIP3    H234724   1.515   0.793   2.701 -0.4232 -0.7901 -0.6489
 4389TIP3   OH234725   6.215   5.197   2.571  0.1705 -0.0505 -0.5327
 4389TIP3    H134726   6.285   5.258   2.548  2.2664 -1.4300  1.6470
 4389TIP3    H234727   6.206   5.141   2.493  1.8954 -0.1462 -0.7090
 4390TIP3   OH234728   6.113   0.233   3.092  0.3652 -0.0780  0.5625
 4390TIP3    H134729   6.098   0.255   3.184 -1.0060  0.4031  0.2382
 4390TIP3    H234730   6.054   0.160   3.075 -0.8253  1.0589 -0.4153
 4391TIP3   OH234731   1.063   3.605   0.638  0.0141 -0.3532  0.7865
 4391TIP3    H134732   1.100   3.670   0.580 -1.1847 -0.4642 -0.1379
 4391TIP3    H234733   1.030   3.537   0.580 -0.5400 -0.8315  1.6388
 4392TIP3   OH234734   3.848   4.070   3.021 -0.1119  0.5676 -0.0808
 4392TIP3    H134735   3.869   4.149   3.071  0.8335  0.1064  0.2679
 4392TIP3    H234736   3.920   4.009   3.040 -1.8015 -1.1365  1.2546
 4393TIP3   OH234737   6.282   2.959   2.471  0.2844  0.4004 -0.0289
 4393TIP3    H134738   6.351   2.977   2.534  0.9039  0.3503 -0.6748
 4393TIP3    H234739   6.306   2.874   2.433 -2.0134 -1.3907  2.2165
 4394TIP3   OH234740   4.388   1.807   4.125 -0.1725  0.1357 -0.0257
 4394TIP3    H134741   4.434   1.787   4.207  0.4158 -0.8374 -0.5713
 4394TIP3    H234742   4.295   1.807   4.149  0.0057  0.0511  0.6830
 4395TIP3   OH234743   2.138   6.700   2.929 -0.0629 -0.2963  0.3184
 4395TIP3    H134744   2.067   6.743   2.881  0.7677  0.7995  0.0141
 4395TIP3    H234745   2.140   6.744   3.014  0.3434 -0.2114  0.2683
 4396TIP3   OH234746   6.366   4.423   3.271 -0.6613  0.3546 -0.6552
 4396TIP3    H134747   6.446   4.428   3.323 -0.3135  0.9690 -1.2400
 4396TIP3    H234748   6.369   4.500   3.214 -2.5003  1.3504  0.4782
 4397TIP3   OH234749   3.373   0.788   2.516  0.0433  0.2172  0.5384
 4397TIP3    H134750   3.280   0.806   2.524  0.0962  0.2814  1.0115
 4397TIP3    H234751   3.415   0.874   2.525  0.1830  0.1086  0.9474
 4398TIP3   OH234752   3.441   0.473   2.844 -0.8033  0.2251  0.6801
 4398TIP3    H134753   3.438   0.395   2.789 -0.6205 -0.0229  1.0150
 4398TIP3    H234754   3.480   0.541   2.789  1.2161 -0.5262  1.0985
 4399TIP3   OH234755   3.924   2.512   3.670  0.2501 -0.3340 -0.3671
 4399TIP3    H134756   3.954   2.437   3.618  1.3958  0.2804 -0.6166
 4399TIP3    H234757   3.970   2.587   3.633  1.7940  0.0209  2.0848
 4400TIP3   OH234758   6.668   3.581   2.969  0.0130  0.1785 -0.2877
 4400TIP3    H134759   6.677   3.508   2.908  1.9329  0.6098 -0.5946
 4400TIP3    H234760   6.615   3.645   2.923  1.6589  0.6108 -1.6685
 4401TIP3   OH234761   0.943   5.055   0.730 -0.2561  0.8634  0.5769
 4401TIP3    H134762   1.036   5.074   0.718 -0.1297  1.9328  2.8149
 4401TIP3    H234763   0.898   5.122   0.679  0.0222 -1.6388 -3.4128
 4402TIP3   OH234764   6.105   6.331   1.642 -0.2913  0.2821  0.3253
 4402TIP3    H134765   6.193   6.354   1.672 -0.5113  1.0432  0.4121
 4402TIP3    H234766   6.116   6.313   1.549 -0.0103  0.1854  0.3746
 4403TIP3   OH234767   6.119   0.788   3.015  0.6018  0.4398  0.4561
 4403TIP3    H134768   6.088   0.879   3.018  0.4758  0.3861  0.7891
 4403TIP3    H234769   6.182   0.787   2.942 -0.9177  0.3110 -0.9104
 4404TIP3   OH234770   3.729   4.987   0.444 -0.7708  0.0784 -0.4520
 4404TIP3    H134771   3.663   4.920   0.464  1.3995 -2.2780 -0.6821
 4404TIP3    H234772   3.779   4.995   0.525 -0.6924  1.1246 -0.5886
 4405TIP3   OH234773   3.336   5.868   4.688  0.4881  0.1796 -0.2662
 4405TIP3    H134774   3.411   5.893   4.743  0.4895 -1.1035  0.3565
 4405TIP3    H234775   3.290   5.801   4.740 -1.6661  1.6288 -0.1820
 4406TIP3   OH234776   0.905   5.616   1.391  0.0130  0.0472 -0.5835
 4406TIP3    H134777   0.897   5.664   1.309  1.0003 -0.9791 -1.2984
 4406TIP3    H234778   0.835   5.550   1.387  1.4110 -1.4300 -1.6245
 4407TIP3   OH234779   6.033   6.631   1.662 -0.1223 -0.1934 -0.1450
 4407TIP3    H134780   6.046   6.540   1.687 -1.5053 -0.8017 -1.4902
 4407TIP3    H234781   6.072   6.682   1.734  3.4713 -1.7723 -0.7601
 4408TIP3   OH234782   3.950   3.894   2.125 -0.0568  0.3766  0.3488
 4408TIP3    H134783   3.875   3.950   2.145 -1.5641 -2.0112  1.9046
 4408TIP3    H234784   3.937   3.869   2.033 -0.9162  0.3364  0.4719
 4409TIP3   OH234785   4.009   1.464   1.248 -0.2867 -0.7127  0.6757
 4409TIP3    H134786   3.949   1.532   1.218  0.1750 -0.3468  0.5741
 4409TIP3    H234787   3.994   1.391   1.189 -0.9540 -0.7894  0.9316
 4410TIP3   OH234788   2.341   0.316   2.285  0.5348  0.2816  0.4610
 4410TIP3    H134789   2.363   0.346   2.374  2.4492 -0.3094  0.2485
 4410TIP3    H234790   2.405   0.247   2.267 -0.0569  0.1317 -1.2445
 4411TIP3   OH234791   6.040   6.484   3.072  0.4731 -0.4215  0.0173
 4411TIP3    H134792   6.080   6.554   3.020  1.4471 -0.4884  0.6298
 4411TIP3    H234793   6.013   6.418   3.009 -0.4674  0.5041 -0.5718
 4412TIP3   OH234794   3.389   4.151   3.124  0.1775 -0.0423 -0.0475
 4412TIP3    H134795   3.355   4.201   3.199  0.3901 -2.6224  1.9143
 4412TIP3    H234796   3.311   4.119   3.080 -0.0243 -1.6439  1.3796
 4413TIP3   OH234797   2.182   3.248   1.038  0.6379  0.3552 -0.1734
 4413TIP3    H134798   2.175   3.176   0.974  0.7200  0.8866 -0.7897
 4413TIP3    H234799   2.207   3.204   1.120 -1.2312 -0.5447 -0.0438
 4414TIP3   OH234800   1.590   3.672   3.040 -0.0387 -0.1138  0.3833
 4414TIP3    H134801   1.635   3.657   2.956 -2.5170  0.5884 -1.1892
 4414TIP3    H234802   1.551   3.588   3.062 -0.0316 -0.1061  0.4246
 4415TIP3   OH234803   5.095   5.615   1.306  0.1483  0.3043 -0.0616
 4415TIP3    H134804   5.012   5.644   1.345 -0.0044  0.8606 -0.7705
 4415TIP3    H234805   5.072   5.539   1.254  0.4955 -0.9670  1.5460
 4416TIP3   OH234806   6.776   3.500   2.644  0.0972 -0.2912  0.2383
 4416TIP3    H134807   6.716   3.447   2.696 -0.6093 -0.2307 -0.4954
 4416TIP3    H234808   6.719   3.549   2.584  0.9644 -1.4222 -1.5729
 4417TIP3   OH234809   1.019   2.104   1.850 -0.4695 -0.0266 -0.0369
 4417TIP3    H134810   1.057   2.178   1.802 -1.3677  0.1400 -0.5196
 4417TIP3    H234811   1.060   2.108   1.936  1.9143 -0.8949 -1.0456
 4418TIP3   OH234812   2.174   6.799   1.449  0.3693  0.7024  0.2525
 4418TIP3    H134813   2.257   6.833   1.416 -0.4070  2.2629 -0.2089
 4418TIP3    H234814   2.124   6.877   1.475 -0.5851 -0.2489  1.4458
 4419TIP3   OH234815   6.559   3.793   4.203 -0.0490 -0.1036  0.5542
 4419TIP3    H134816   6.481   3.845   4.181  0.5254  0.6257  0.1595
 4419TIP3    H234817   6.626   3.859   4.222  0.9911 -0.6713 -0.9720
 4420TIP3   OH234818   5.222   6.093   2.417  0.1450 -0.1137  0.5014
 4420TIP3    H134819   5.204   6.077   2.324  0.0899  0.0885  0.4763
 4420TIP3    H234820   5.214   6.007   2.458 -1.4423  0.0524  0.5943
 4421TIP3   OH234821   4.347   0.502   8.101 -0.0172 -0.1060  0.3628
 4421TIP3    H134822   4.413   0.571   8.099 -0.3584  0.2036 -0.3039
 4421TIP3    H234823   4.356   0.463   8.188  0.2995  0.6493  0.6752
 4422TIP3   OH234824   2.547   0.448   3.699 -0.4490  0.3934 -0.6191
 4422TIP3    H134825   2.610   0.485   3.761 -1.6594  0.4169  0.6394
 4422TIP3    H234826   2.586   0.365   3.672  1.6421  1.8327 -2.4174
 4423TIP3   OH234827   5.630   2.773   2.625 -0.2851 -0.3844 -0.1030
 4423TIP3    H134828   5.631   2.700   2.687 -0.6872 -0.7743 -0.5496
 4423TIP3    H234829   5.538   2.798   2.619 -0.2318 -0.2695 -0.4524
 4424TIP3   OH234830   3.488   2.037   1.043 -0.1351 -0.5468  0.1226
 4424TIP3    H134831   3.498   2.111   0.983  2.2003 -0.6460  0.2927
 4424TIP3    H234832   3.536   2.063   1.121  1.2271 -2.4303 -0.0194
 4425TIP3   OH234833   2.572   6.862   1.768 -0.0880 -0.5028 -0.1145
 4425TIP3    H134834   2.477   6.869   1.763  0.0453  2.3020 -0.5203
 4425TIP3    H234835   2.590   6.841   1.860 -1.1028  1.2260  0.5354
 4426TIP3   OH234836   3.929   0.016   0.055 -0.2893  0.0913  0.0131
 4426TIP3    H134837   3.927   0.100   0.009  0.4155  0.6433  0.9580
 4426TIP3    H234838   3.971  -0.044  -0.007  0.6995  0.8325 -0.0461
 4427TIP3   OH234839   3.853   1.705   1.161  0.1676  0.0603  0.0457
 4427TIP3    H134840   3.772   1.687   1.113  0.5978 -0.0963 -0.6423
 4427TIP3    H234841   3.825   1.745   1.243 -0.7054 -1.5070  0.5499
 4428TIP3   OH234842   2.494   5.505   0.399 -0.3202 -0.0909  0.3528
 4428TIP3    H134843   2.446   5.458   0.331 -0.0173 -0.0002  0.0703
 4428TIP3    H234844   2.545   5.438   0.444  0.5961  0.0267 -0.4533
 4429TIP3   OH234845   2.382   1.955   2.616  0.5593 -0.5644  0.0217
 4429TIP3    H134846   2.388   1.994   2.529 -1.0461  1.2144  0.6442
 4429TIP3    H234847   2.460   1.987   2.662  0.7653 -0.4667 -0.3965
 4430TIP3   OH234848   1.427   4.699   0.993  0.6299  0.1289 -0.4149
 4430TIP3    H134849   1.336   4.721   0.971  0.2580  0.3948  1.2454
 4430TIP3    H234850   1.479   4.748   0.929 -0.3714  0.5236 -0.9620
 4431TIP3   OH234851   6.160   2.874   0.578  0.3842  0.4496  0.1798
 4431TIP3    H134852   6.249   2.906   0.569  0.8143 -0.4874  0.9358
 4431TIP3    H234853   6.156   2.795   0.525 -0.1862  0.8302 -0.3590
 4432TIP3   OH234854   1.299   0.107   1.487  0.0645  0.7462  1.1171
 4432TIP3    H134855   1.261   0.114   1.399  3.6418  2.7047 -0.4958
 4432TIP3    H234856   1.244   0.164   1.541  0.2988  3.1442 -0.9823
 4433TIP3   OH234857   4.478   4.788   8.394 -0.1713 -0.5842 -0.0336
 4433TIP3    H134858   4.435   4.772   8.479 -0.6499  0.3767 -0.0880
 4433TIP3    H234859   4.559   4.737   8.399 -0.7377 -1.4652  0.5442
 4434TIP3   OH234860   4.707   3.343   2.104  0.5801  0.2529 -0.3239
 4434TIP3    H134861   4.698   3.264   2.051  2.0729 -0.0568 -0.1639
 4434TIP3    H234862   4.794   3.337   2.142  0.3675  1.5315  0.4449
 4435TIP3   OH234863   1.427   2.807   3.762 -0.3971  0.3748  0.1308
 4435TIP3    H134864   1.480   2.792   3.840  0.7604  0.2442 -0.6560
 4435TIP3    H234865   1.450   2.735   3.703 -1.5939  0.2153 -0.1739
 4436TIP3   OH234866   3.141   1.005   0.997 -0.3234 -0.4640  0.2476
 4436TIP3    H134867   3.046   1.003   0.984 -0.4291  1.8732  0.1879
 4436TIP3    H234868   3.153   1.001   1.092 -0.3871 -1.8909  0.2161
 4437TIP3   OH234869   4.201   5.040   1.806  0.3980  0.3662  0.4821
 4437TIP3    H134870   4.248   5.034   1.889  1.2139 -1.5942 -0.0583
 4437TIP3    H234871   4.251   5.103   1.755  1.2590 -0.1602  0.6544
 4438TIP3   OH234872   0.096   3.954   3.248 -0.1846 -0.5896  0.0365
 4438TIP3    H134873   0.141   4.014   3.308  0.8104  0.7132 -1.8677
 4438TIP3    H234874   0.021   4.004   3.216 -1.1421 -1.5477  0.7418
 4439TIP3   OH234875   0.196   3.469   2.758 -0.5812  0.8056  0.1923
 4439TIP3    H134876   0.148   3.552   2.763 -0.1998  1.1941 -1.8646
 4439TIP3    H234877   0.288   3.495   2.762 -0.4648  0.4856 -0.3051
 4440TIP3   OH234878   4.450   6.048   3.284  0.6357 -0.6346  0.3691
 4440TIP3    H134879   4.427   5.955   3.276  1.1707 -0.6871 -0.6774
 4440TIP3    H234880   4.428   6.070   3.375  0.4567 -1.7691  0.6174
 4441TIP3   OH234881   2.641   1.578   0.703 -0.1929  0.4206  0.1006
 4441TIP3    H134882   2.716   1.518   0.696  2.5503  3.5097  0.5647
 4441TIP3    H234883   2.654   1.640   0.631 -2.6417  0.8027 -0.0913
 4442TIP3   OH234884   0.577   1.686   2.561 -0.8085 -0.2803 -0.0358
 4442TIP3    H134885   0.510   1.632   2.603 -0.9380  1.4813  2.2224
 4442TIP3    H234886   0.657   1.669   2.612 -0.7929  1.3546  0.5582
 4443TIP3   OH234887   5.192   3.701   4.212 -0.3042 -0.4034  0.5788
 4443TIP3    H134888   5.180   3.736   4.124 -0.1369  0.8357  1.0271
 4443TIP3    H234889   5.104   3.675   4.240 -0.5817  0.4650  0.5463
 4444TIP3   OH234890   3.327   5.552   0.853  0.0503 -0.0100 -0.5456
 4444TIP3    H134891   3.280   5.469   0.852 -0.1270  0.0914 -0.7359
 4444TIP3    H234892   3.367   5.558   0.766 -0.3187  0.3196 -0.6937
 4445TIP3   OH234893   5.738   3.394   1.644  0.2437 -0.2266 -0.0006
 4445TIP3    H134894   5.829   3.376   1.668  0.7093  0.6652 -1.0236
 4445TIP3    H234895   5.740   3.482   1.606 -1.0799 -0.1298  0.1093
 4446TIP3   OH234896   0.770   5.202   4.229 -0.7868  0.2340 -0.7679
 4446TIP3    H134897   0.750   5.242   4.314  0.3517  0.4766 -0.6052
 4446TIP3    H234898   0.710   5.246   4.169 -2.0858 -0.4174 -0.0057
 4447TIP3   OH234899   1.014   5.716   2.846  0.0053  0.0537 -0.0540
 4447TIP3    H134900   1.014   5.682   2.936  2.1655  2.0533  0.8242
 4447TIP3    H234901   0.943   5.780   2.845  1.1944  1.4735  0.9453
 4448TIP3   OH234902   1.095   5.547   0.192  0.1557 -0.2380 -0.0051
 4448TIP3    H134903   1.038   5.587   0.126  0.8966  0.0891 -0.4564
 4448TIP3    H234904   1.166   5.507   0.141  2.1866  2.2849  0.6736
 4449TIP3   OH234905   0.540   5.024   3.158  0.1261  0.3400  0.5922
 4449TIP3    H134906   0.567   4.966   3.087 -2.9406 -1.6957  0.8748
 4449TIP3    H234907   0.545   5.112   3.121  2.6740 -0.2497 -0.6492
 4450TIP3   OH234908   5.852   2.024   3.387  0.3024  0.0012  0.4850
 4450TIP3    H134909   5.901   2.011   3.468 -0.8208  0.4670  1.2667
 4450TIP3    H234910   5.761   2.009   3.412 -0.0995  0.4980 -0.6180
 4451TIP3   OH234911   1.032   3.277   2.063  0.2303 -0.3474 -0.5834
 4451TIP3    H134912   1.112   3.315   2.029 -0.3012  2.1194  0.7073
 4451TIP3    H234913   0.967   3.292   1.995 -0.3490  2.7162  0.5002
 4452TIP3   OH234914   0.777   1.891   3.597  0.3907 -0.2975 -0.2149
 4452TIP3    H134915   0.728   1.949   3.655  0.0858 -0.0926 -0.6679
 4452TIP3    H234916   0.806   1.819   3.653  0.4417  0.0976  0.2700
 4453TIP3   OH234917   6.610   6.384   1.352 -0.3882  0.1323  0.0405
 4453TIP3    H134918   6.625   6.318   1.419 -0.9825  0.8972  0.9426
 4453TIP3    H234919   6.687   6.378   1.295 -0.9969 -2.1822 -0.6452
 4454TIP3   OH234920   6.706   2.269   4.051 -0.4132 -0.6624 -0.1947
 4454TIP3    H134921   6.729   2.178   4.069  0.7503 -0.4512 -0.5642
 4454TIP3    H234922   6.747   2.288   3.967  0.6099  0.6462  0.5712
 4455TIP3   OH234923   0.121   1.159   3.591  0.4528  0.3355 -0.4624
 4455TIP3    H134924   0.116   1.244   3.634  0.3227 -0.5392  1.3776
 4455TIP3    H234925   0.096   1.175   3.500  2.0107  2.5306 -0.5858
 4456TIP3   OH234926   3.809   0.547   2.433 -0.1410  0.3640  0.2220
 4456TIP3    H134927   3.818   0.455   2.408  0.1738  0.7900 -1.2811
 4456TIP3    H234928   3.730   0.548   2.488  0.5709 -0.9927  1.3334
 4457TIP3   OH234929   2.570   4.419   3.691 -0.3471 -0.7172 -0.1701
 4457TIP3    H134930   2.480   4.407   3.663 -0.0961 -2.3510 -0.3577
 4457TIP3    H234931   2.621   4.362   3.633  1.1091  1.7838 -1.5655
 4458TIP3   OH234932   0.012   5.393   2.380  0.1956 -0.5230  0.4292
 4458TIP3    H134933   0.068   5.388   2.458  1.5226  1.4784 -0.3279
 4458TIP3    H234934   0.069   5.365   2.308 -0.6875 -1.2689 -0.0112
 4459TIP3   OH234935   5.671   6.694   0.495  0.0178 -0.3798  0.2774
 4459TIP3    H134936   5.599   6.635   0.514  0.2984 -0.7181  0.2904
 4459TIP3    H234937   5.696   6.674   0.405 -0.3483  0.2080  0.0396
 4460TIP3   OH234938   5.906   6.061   2.165  0.7858  0.1792 -0.4339
 4460TIP3    H134939   5.830   6.019   2.205  0.5278  1.0121 -0.0219
 4460TIP3    H234940   5.978   6.002   2.184  0.4247 -0.1016  0.1091
 4461TIP3   OH234941   6.882   0.949   1.630 -0.0721  0.4885  0.1984
 4461TIP3    H134942   6.961   0.996   1.604  0.6671 -0.9194 -0.2305
 4461TIP3    H234943   6.850   0.996   1.707  1.6550  0.5973  0.8883
 4462TIP3   OH234944   6.702   2.777   3.163  0.2325  0.2752 -0.2118
 4462TIP3    H134945   6.715   2.869   3.188 -0.7412  0.1913  0.6655
 4462TIP3    H234946   6.714   2.777   3.068 -0.4872  1.4623 -0.3297
 4463TIP3   OH234947   5.245   3.829   0.566  0.0468  0.4654  0.3667
 4463TIP3    H134948   5.203   3.914   0.574  0.3622  1.0351 -2.7660
 4463TIP3    H234949   5.178   3.766   0.593 -0.6713  1.6345  1.3583
 4464TIP3   OH234950   3.217   1.150   2.723 -0.1586  0.7122  0.1836
 4464TIP3    H134951   3.142   1.099   2.694  1.6496 -1.1237 -1.6595
 4464TIP3    H234952   3.225   1.220   2.658  0.3021  0.2602 -0.2632
 4465TIP3   OH234953   0.790   6.138   3.213 -0.4373  0.0209  0.1192
 4465TIP3    H134954   0.722   6.182   3.163 -1.9498 -1.7010  0.5246
 4465TIP3    H234955   0.850   6.103   3.147 -0.3824  0.8829 -0.2905
 4466TIP3   OH234956   0.132   1.410   2.299  0.3185 -0.0138  0.0686
 4466TIP3    H134957   0.148   1.357   2.378  0.6543  0.4928  0.3447
 4466TIP3    H234958   0.158   1.499   2.324 -1.3042  0.5182 -0.0296
 4467TIP3   OH234959   4.583   5.712   0.742  0.3806  0.2716  0.2193
 4467TIP3    H134960   4.500   5.675   0.770  1.1017 -1.0004  0.7628
 4467TIP3    H234961   4.562   5.761   0.662 -0.4141 -2.6566 -1.5196
 4468TIP3   OH234962   0.668   4.728   1.689 -0.3540 -0.4658 -0.0767
 4468TIP3    H134963   0.672   4.787   1.613  0.5797 -2.9041 -2.0739
 4468TIP3    H234964   0.759   4.722   1.718 -0.4586 -0.8224  0.1765
 4469TIP3   OH234965   2.840   5.155   1.483  0.4608 -0.3775  0.0986
 4469TIP3    H134966   2.892   5.166   1.563  2.5411  0.4893 -1.2815
 4469TIP3    H234967   2.834   5.244   1.447 -1.3235 -0.5976 -0.2083
 4470TIP3   OH234968   3.730   2.380   2.717  0.4548  0.0829 -0.3786
 4470TIP3    H134969   3.702   2.471   2.730 -0.3709 -0.4317  2.1128
 4470TIP3    H234970   3.648   2.330   2.711  0.8538 -0.7194  0.5382
 4471TIP3   OH234971   1.902   2.582   1.164  0.0629 -0.3916 -0.8019
 4471TIP3    H134972   1.889   2.555   1.255  1.1241  1.9855  0.1389
 4471TIP3    H234973   1.835   2.533   1.115 -0.8087 -1.4319  1.2871
 4472TIP3   OH234974   4.150   5.452   0.068 -1.1214  0.3297 -0.5130
 4472TIP3    H134975   4.111   5.486  -0.013  2.6846  1.4635 -2.0675
 4472TIP3    H234976   4.219   5.394   0.039 -0.5059 -0.3147  2.0034
 4473TIP3   OH234977   2.397   2.554   0.631 -0.3384  0.2753 -0.4778
 4473TIP3    H134978   2.352   2.635   0.607 -0.5056  0.3657  0.1275
 4473TIP3    H234979   2.363   2.532   0.717 -0.8468 -0.8485 -0.9494
 4474TIP3   OH234980   6.282   5.609   2.067 -0.6095  0.0631  0.3418
 4474TIP3    H134981   6.237   5.530   2.037 -0.8261  0.6200 -0.9186
 4474TIP3    H234982   6.329   5.640   1.989  2.2524 -0.6409  1.6627
 4475TIP3   OH234983   3.127   6.516   2.367 -0.2440  0.0677 -0.1270
 4475TIP3    H134984   3.115   6.504   2.461  1.8633  2.0968  0.5081
 4475TIP3    H234985   3.189   6.447   2.342  0.2037  0.3257  0.2615
 4476TIP3   OH234986   5.775   2.308   2.044  0.1411 -0.0559 -0.5527
 4476TIP3    H134987   5.688   2.271   2.056  0.0602  0.0993 -0.6535
 4476TIP3    H234988   5.769   2.396   2.082  0.4373 -0.2795  0.0378
 4477TIP3   OH234989   2.004   0.861   4.397  0.2069 -0.2925  0.2983
 4477TIP3    H134990   2.090   0.844   4.358 -0.0570  0.1246 -0.4868
 4477TIP3    H234991   1.998   0.956   4.402  0.9996 -0.2922  3.1426
 4478TIP3   OH234992   3.745   3.809   2.718 -0.0414 -0.2443  0.3028
 4478TIP3    H134993   3.807   3.860   2.666  0.7683 -0.8451  0.6475
 4478TIP3    H234994   3.728   3.862   2.795 -1.4737  0.7822 -0.6808
 4479TIP3   OH234995   4.324   6.888   0.672 -0.8809  0.0323  0.2846
 4479TIP3    H134996   4.293   6.798   0.686 -0.5610 -0.0589  0.4185
 4479TIP3    H234997   4.302   6.906   0.580  0.0958 -0.6119 -0.1044
 4480TIP3   OH234998   6.623   1.227   0.211  0.4055  0.0672 -0.1173
 4480TIP3    H134999   6.648   1.292   0.146 -1.8344  0.4209 -0.7155
 4480TIP3    H235000   6.604   1.148   0.161 -0.8235  0.1813  0.1478
 4481TIP3   OH235001   5.079   2.750   3.575  0.0142 -0.0436  0.4579
 4481TIP3    H135002   4.991   2.748   3.612  0.0133 -2.6807  0.5206
 4481TIP3    H235003   5.067   2.730   3.482  0.4929  0.3821  0.2975
 4482TIP3   OH235004   6.112   5.257   1.563 -0.2488 -0.0712 -0.2016
 4482TIP3    H135005   6.192   5.250   1.511 -0.2300  1.4657 -0.4052
 4482TIP3    H235006   6.070   5.337   1.532 -0.7028  0.3847  1.5046
 4483TIP3   OH235007   5.040   4.530   2.346 -0.7182  0.4037  0.7633
 4483TIP3    H135008   4.986   4.602   2.380  0.1657  1.3630  0.1925
 4483TIP3    H235009   5.095   4.504   2.420 -1.5559 -0.2216  1.1913
 4484TIP3   OH235010   6.811   2.559   2.917 -0.0698 -0.4965 -0.1963
 4484TIP3    H135011   6.748   2.630   2.908  0.9585  0.3998 -0.5329
 4484TIP3    H235012   6.792   2.500   2.844  3.0209  2.6580 -4.0283
 4485TIP3   OH235013   2.260   4.481   3.296 -0.1334 -0.2771 -0.3179
 4485TIP3    H135014   2.303   4.417   3.353  0.1785  2.1841  2.5067
 4485TIP3    H235015   2.192   4.520   3.352 -0.0923  2.0366 -1.7662
 4486TIP3   OH235016   5.851   1.528   1.687 -0.1827  0.5112  0.2351
 4486TIP3    H135017   5.937   1.496   1.660  0.4779  1.2703  1.3952
 4486TIP3    H235018   5.863   1.560   1.776 -1.5168  1.2100  0.1975
 4487TIP3   OH235019   6.036   3.939   3.149  0.2978  0.0611 -0.2992
 4487TIP3    H135020   6.066   3.848   3.144 -1.1285 -0.4435 -0.2954
 4487TIP3    H235021   5.980   3.941   3.227  2.3545  1.6192  1.2631
 4488TIP3   OH235022   4.942   1.251   2.353  0.0421 -0.3679 -0.5916
 4488TIP3    H135023   5.025   1.211   2.327  1.1192  0.5124  1.2863
 4488TIP3    H235024   4.903   1.188   2.414  0.4499  0.2128  0.2872
 4489TIP3   OH235025   0.507   1.670   1.553  0.1450  0.3460  0.0794
 4489TIP3    H135026   0.429   1.645   1.502 -0.8770  0.6282  1.4597
 4489TIP3    H235027   0.483   1.752   1.595  0.6551 -0.2785  1.6474
 4490TIP3   OH235028   0.560   3.759   0.942 -0.1118 -0.4466 -0.4320
 4490TIP3    H135029   0.552   3.812   0.863  0.5809  0.1667 -0.1110
 4490TIP3    H235030   0.574   3.823   1.012 -2.2367 -0.8819  0.4469
 4491TIP3   OH235031   1.690   1.939   2.366  1.1637 -0.3629  0.6334
 4491TIP3    H135032   1.716   1.979   2.283  3.5681 -0.2627  1.3745
 4491TIP3    H235033   1.668   2.013   2.423 -3.1460 -0.4442 -0.5396
 4492TIP3   OH235034   0.723   3.448   1.817  0.2319 -0.5819  0.0672
 4492TIP3    H135035   0.797   3.397   1.783 -0.0847 -0.5461 -0.6879
 4492TIP3    H235036   0.697   3.504   1.744 -1.9086 -2.1083 -0.4178
 4493TIP3   OH235037   5.537   2.751   0.440 -0.3890 -0.0094  0.8231
 4493TIP3    H135038   5.502   2.662   0.435 -0.8766  0.2288 -0.2481
 4493TIP3    H235039   5.587   2.762   0.359 -1.9839  1.3535 -0.0588
 4494TIP3   OH235040   2.689   3.947   2.326  0.7455  0.2368  0.0042
 4494TIP3    H135041   2.733   4.027   2.298 -2.1156  1.4107 -1.6193
 4494TIP3    H235042   2.620   3.977   2.386  0.3668 -1.1310  0.2869
 4495TIP3   OH235043   1.936   2.928   8.394 -0.0935  0.1816  0.2852
 4495TIP3    H135044   1.916   3.008   8.344  0.4425  0.7899  1.0206
 4495TIP3    H235045   2.029   2.914   8.381 -0.3942 -0.9761 -0.7421
 4496TIP3   OH235046   6.249   4.959   0.967 -0.2010  0.3158  0.2887
 4496TIP3    H135047   6.212   4.974   0.880 -1.7870  0.6544  0.9829
 4496TIP3    H235048   6.193   4.891   1.005  0.0637  0.6506  1.2921
 4497TIP3   OH235049   1.936   1.067   0.328  0.0670  0.3276  0.0816
 4497TIP3    H135050   1.867   1.133   0.316  1.7264  2.1826  0.1058
 4497TIP3    H235051   1.972   1.054   0.240 -0.8596 -1.3514 -0.0962
 4498TIP3   OH235052   3.468   5.493   1.476 -0.3745 -0.2909 -0.0955
 4498TIP3    H135053   3.497   5.581   1.502 -2.2561  0.4989 -0.5012
 4498TIP3    H235054   3.513   5.434   1.537 -0.5566  1.0986  1.4730
 4499TIP3   OH235055   2.541   0.732   2.665  0.1575  0.0447  0.4627
 4499TIP3    H135056   2.635   0.749   2.666  0.3594 -0.8308 -0.8243
 4499TIP3    H235057   2.510   0.758   2.752  1.6131  0.1848  0.9520
 4500TIP3   OH235058   1.416   6.389   2.229  0.3245  0.1259 -0.0680
 4500TIP3    H135059   1.491   6.420   2.178 -0.7494  1.0126 -1.1574
 4500TIP3    H235060   1.380   6.468   2.268  0.6498 -0.4438  1.4793
 4501TIP3   OH235061   3.307   0.356   8.434  0.1439  0.5238  0.4659
 4501TIP3    H135062   3.245   0.376   8.364 -0.5341  1.4567  1.3024
 4501TIP3    H235063   3.253   0.352   8.513  0.8678 -0.7213  0.9117
 4502TIP3   OH235064   5.052   0.193   1.688 -0.9736 -0.2148  0.1790
 4502TIP3    H135065   5.078   0.159   1.602 -1.2606 -0.6865  0.2696
 4502TIP3    H235066   5.112   0.150   1.750  0.5301  1.6120  0.0614
 4503TIP3   OH235067   1.724   4.875   2.919  0.6025  0.6618 -0.5979
 4503TIP3    H135068   1.788   4.884   2.849 -0.0223 -0.7906 -1.3979
 4503TIP3    H235069   1.733   4.784   2.948 -0.6904  0.5977 -0.3370
 4504TIP3   OH235070   5.669   6.157   3.271 -0.0746  0.0699 -0.8404
 4504TIP3    H135071   5.678   6.115   3.357 -0.5605  1.5194 -0.0327
 4504TIP3    H235072   5.754   6.197   3.255 -0.2671  0.6111 -0.5574
 4505TIP3   OH235073   2.466   6.091   2.241  0.0054  0.6758 -0.2377
 4505TIP3    H135074   2.528   6.142   2.294  1.4680 -3.1131  2.0980
 4505TIP3    H235075   2.430   6.026   2.301 -2.3441 -0.5761 -2.7736
 4506TIP3   OH235076   0.718   2.284   1.445  0.5370  0.2845  0.6720
 4506TIP3    H135077   0.809   2.311   1.458  0.6618 -0.7346  2.1840
 4506TIP3    H235078   0.669   2.328   1.515 -0.1482  0.8288 -0.1327
 4507TIP3   OH235079   1.872   0.892   1.619 -0.2680  0.3603 -0.4904
 4507TIP3    H135080   1.962   0.910   1.646 -0.0737  1.0391 -1.5432
 4507TIP3    H235081   1.818   0.931   1.688  0.1983  2.8012 -1.4086
 4508TIP3   OH235082   6.818   0.054   1.349 -0.1421 -0.0814  0.0220
 4508TIP3    H135083   6.788   0.146   1.347 -0.7073 -0.2547  0.2582
 4508TIP3    H235084   6.758   0.009   1.289 -1.7288 -0.8218  2.0488
 4509TIP3   OH235085   3.064   3.827   4.055  0.1229 -0.1998 -0.6935
 4509TIP3    H135086   3.077   3.768   4.130 -0.8724 -2.0428 -1.8900
 4509TIP3    H235087   3.151   3.837   4.017  0.7619  1.2791  1.0191
 4510TIP3   OH235088   5.201   1.210   2.262  0.2694  0.5376  0.2713
 4510TIP3    H135089   5.206   1.305   2.273  0.7220  0.5201  0.2330
 4510TIP3    H235090   5.277   1.176   2.310 -0.4632  0.1171  1.1583
 4511TIP3   OH235091   2.335   4.201   2.456 -0.2177 -0.0977  0.7426
 4511TIP3    H135092   2.389   4.279   2.468 -0.3719  0.2785 -0.7328
 4511TIP3    H235093   2.246   4.231   2.474 -0.2992  0.1433  0.0038
 4512TIP3   OH235094   6.224   6.706   2.890 -0.0304  0.1903 -0.4119
 4512TIP3    H135095   6.213   6.775   2.955  1.1609  0.3027 -0.3200
 4512TIP3    H235096   6.164   6.730   2.819  0.5862  1.4920 -0.5095
 4513TIP3   OH235097   5.676   0.150   2.275  0.5817  0.4421 -0.2610
 4513TIP3    H135098   5.676   0.059   2.247  0.9827  0.3204  0.1213
 4513TIP3    H235099   5.752   0.157   2.332  0.8159  1.1258 -0.6478
 4514TIP3   OH235100   2.099   6.582   1.609  0.8285  0.0660  0.0888
 4514TIP3    H135101   2.116   6.662   1.559 -1.0451  1.5974  1.7071
 4514TIP3    H235102   2.004   6.582   1.623  0.8833 -2.0155  0.8920
 4515TIP3   OH235103   4.650   4.808   0.354  0.5453  0.7264 -0.4123
 4515TIP3    H135104   4.714   4.798   0.284 -0.5435  1.3059 -1.5254
 4515TIP3    H235105   4.676   4.887   0.401  2.0200 -0.3552  0.6822
 4516TIP3   OH235106   2.339   1.355   3.829 -0.4393  0.2287 -0.4182
 4516TIP3    H135107   2.427   1.318   3.823 -0.6609 -0.5401  0.8241
 4516TIP3    H235108   2.351   1.437   3.876 -0.4859 -0.2650  0.4618
 4517TIP3   OH235109   2.595   2.369   2.281 -0.4356  0.3723  0.8401
 4517TIP3    H135110   2.525   2.304   2.271 -1.5743  1.3303  2.0686
 4517TIP3    H235111   2.551   2.453   2.268  0.6596  0.9644  0.8770
 4518TIP3   OH235112   1.668   0.756   2.256  0.3614  0.0109  0.4858
 4518TIP3    H135113   1.761   0.746   2.238  0.6876 -1.1176  2.4329
 4518TIP3    H235114   1.627   0.766   2.170  2.3232  1.2883 -0.3602
 4519TIP3   OH235115   0.826   4.245   2.688 -0.3601  0.4409  0.2758
 4519TIP3    H135116   0.859   4.271   2.773 -3.5058 -0.8427  2.0729
 4519TIP3    H235117   0.821   4.149   2.692 -2.8245  0.4613 -0.2897
 4520TIP3   OH235118   6.456   1.813   8.283  0.7220 -0.2681  0.3508
 4520TIP3    H135119   6.503   1.731   8.295 -0.9664 -1.0561  2.0618
 4520TIP3    H235120   6.363   1.789   8.286  0.1204  1.3531 -1.8656
 4521TIP3   OH235121   6.134   2.071   2.178 -0.1136 -0.0117 -0.3683
 4521TIP3    H135122   6.106   2.149   2.130  0.0197  0.2118 -0.0799
 4521TIP3    H235123   6.163   2.010   2.110 -1.1722 -0.2005 -0.6775
 4522TIP3   OH235124   2.817   1.863   0.467  0.6003  0.3632 -0.6158
 4522TIP3    H135125   2.782   1.949   0.489  1.4134  0.9312 -1.4203
 4522TIP3    H235126   2.740   1.811   0.444  0.2105  1.4890 -2.0818
 4523TIP3   OH235127   5.772   0.453   2.836  0.1979 -0.4090  0.2767
 4523TIP3    H135128   5.852   0.506   2.839  0.6961 -1.0564 -0.8547
 4523TIP3    H235129   5.706   0.506   2.880  0.6554  1.2151 -0.9035
 4524TIP3   OH235130   5.350   1.181   3.512 -0.0568 -0.3025 -0.3240
 4524TIP3    H135131   5.420   1.118   3.520 -0.1847 -0.4035  0.0186
 4524TIP3    H235132   5.380   1.243   3.445  0.0635 -0.7254 -0.6586
 4525TIP3   OH235133   0.518   1.377   0.774 -0.3179  0.4995  0.2453
 4525TIP3    H135134   0.609   1.352   0.792 -0.1547  1.9170  1.5464
 4525TIP3    H235135   0.523   1.466   0.741 -1.0943 -0.1819 -1.9154
 4526TIP3   OH235136   5.843   3.833   0.987  0.1237 -0.6484 -0.3405
 4526TIP3    H135137   5.779   3.885   0.937  0.0046 -0.8268 -0.3733
 4526TIP3    H235138   5.928   3.868   0.959  0.0164  0.9968  1.1958
 4527TIP3   OH235139   4.176   5.771   1.743  0.2110 -0.4495  0.3036
 4527TIP3    H135140   4.167   5.839   1.809  0.5755 -1.5731  1.5613
 4527TIP3    H235141   4.093   5.773   1.695  0.0368  0.5557  0.6270
 4528TIP3   OH235142   2.774   5.949   0.205 -0.3898  0.3832 -0.0560
 4528TIP3    H135143   2.768   5.971   0.298 -0.3838  1.0917 -0.2147
 4528TIP3    H235144   2.737   5.861   0.198  1.6526 -0.6438  0.9638
 4529TIP3   OH235145   5.568   1.995   3.986  0.2870 -0.2096  0.2068
 4529TIP3    H135146   5.575   1.931   3.915  1.7660  1.2443 -1.0355
 4529TIP3    H235147   5.652   1.988   4.033 -0.1885 -0.2826  1.0734
 4530TIP3   OH235148   2.184   3.160   0.034  0.0837  0.3060 -0.0686
 4530TIP3    H135149   2.173   3.210  -0.047 -3.0679 -1.2009 -0.7005
 4530TIP3    H235150   2.190   3.069   0.006 -0.1002 -0.1741  1.3484
 4531TIP3   OH235151   5.359   2.390   1.784 -0.4791 -0.4487  0.0981
 4531TIP3    H135152   5.420   2.457   1.753 -2.8292  0.9117 -1.9598
 4531TIP3    H235153   5.323   2.427   1.865 -0.4146 -0.0791 -0.0377
 4532TIP3   OH235154   2.479   6.653   1.167  0.8038  0.0485  0.2667
 4532TIP3    H135155   2.455   6.601   1.090  1.0541  1.3222 -0.7076
 4532TIP3    H235156   2.453   6.742   1.144 -0.4509  0.2436  2.2643
 4533TIP3   OH235157   5.542   3.429   4.078  0.0732 -0.1326  0.1301
 4533TIP3    H135158   5.607   3.486   4.119  0.5666  0.7237 -1.7567
 4533TIP3    H235159   5.465   3.437   4.135  0.2432  2.1358  0.1421
 4534TIP3   OH235160   3.059   0.858   0.510 -0.6223  0.1565 -0.1704
 4534TIP3    H135161   3.138   0.905   0.485 -0.4249 -0.1819 -0.1874
 4534TIP3    H235162   3.026   0.906   0.586 -0.6812  0.5975 -0.4704
 4535TIP3   OH235163   4.120   3.627   1.691 -1.1250  0.2905 -0.2772
 4535TIP3    H135164   4.104   3.606   1.599  0.4960  0.6481 -0.6750
 4535TIP3    H235165   4.198   3.683   1.689 -0.6448 -0.2643  1.3551
 4536TIP3   OH235166   3.448   6.581   0.271 -0.2642 -0.3306 -0.2955
 4536TIP3    H135167   3.377   6.637   0.303  1.2872  0.6493  1.6488
 4536TIP3    H235168   3.486   6.629   0.198 -1.8549 -1.1023 -1.6941
 4537TIP3   OH235169   0.444   4.459   2.027  0.2509 -0.2419 -0.0198
 4537TIP3    H135170   0.427   4.439   1.935 -1.4338 -0.6994  0.3569
 4537TIP3    H235171   0.358   4.482   2.063  0.4687 -2.0874  1.9129
 4538TIP3   OH235172   3.151   4.894   1.558  0.2740 -0.5611  0.1766
 4538TIP3    H135173   3.127   4.856   1.642  0.8301 -1.8892 -0.2308
 4538TIP3    H235174   3.084   4.861   1.497  0.3110 -0.2301 -0.0461
 4539TIP3   OH235175   2.624   3.400   3.236 -0.4996 -0.7708 -0.0427
 4539TIP3    H135176   2.654   3.353   3.159 -1.6315  1.6283 -2.1123
 4539TIP3    H235177   2.575   3.335   3.287  3.0273 -3.2734  0.5047
 4540TIP3   OH235178   5.077   4.422   3.860  0.2503  0.3083  0.0222
 4540TIP3    H135179   5.037   4.408   3.946  0.7200  1.8987  0.5190
 4540TIP3    H235180   5.142   4.352   3.853 -1.2801 -1.1784 -0.0051
 4541TIP3   OH235181   4.822   2.268   1.006 -0.0735  0.7875  0.5467
 4541TIP3    H135182   4.749   2.288   0.948 -1.3222 -0.7505  1.5012
 4541TIP3    H235183   4.896   2.254   0.948 -0.8650  1.0161 -0.5443
 4542TIP3   OH235184   1.754   4.065   0.437 -0.4030 -0.8625 -0.4106
 4542TIP3    H135185   1.774   4.127   0.366  1.8981 -1.2541 -0.1819
 4542TIP3    H235186   1.704   4.116   0.500  0.2276  0.3697 -0.8766
 4543TIP3   OH235187   4.334   5.675   0.403  0.0464 -0.6518  0.8241
 4543TIP3    H135188   4.374   5.683   0.316  0.5000  0.4901  1.1141
 4543TIP3    H235189   4.354   5.758   0.446 -0.9834 -0.8237  1.6878
 4544TIP3   OH235190   0.568   0.193   0.734  0.1671  0.1000 -0.0503
 4544TIP3    H135191   0.634   0.130   0.705  0.6073  0.0132  1.0608
 4544TIP3    H235192   0.573   0.264   0.671 -0.0187 -0.7699 -1.0686
 4545TIP3   OH235193   0.991   1.846   0.738 -0.0951 -0.0126 -0.0626
 4545TIP3    H135194   1.075   1.877   0.703  1.0372 -2.4025  0.3063
 4545TIP3    H235195   0.988   1.878   0.828 -0.0769  0.9148 -0.3813
 4546TIP3   OH235196   1.298   2.819   0.852 -0.2678  0.0019  0.2536
 4546TIP3    H135197   1.374   2.795   0.904  0.6808  1.0367 -0.5998
 4546TIP3    H235198   1.263   2.736   0.820  0.6844 -0.4742  0.4254
 4547TIP3   OH235199   0.723   0.602   2.189  0.2205  0.4754 -0.7531
 4547TIP3    H135200   0.738   0.574   2.279 -0.4712 -0.4952 -0.9252
 4547TIP3    H235201   0.791   0.668   2.173 -0.5968  1.8136  0.9640
 4548TIP3   OH235202   0.200   0.370   1.120 -0.2276  0.5277  0.3670
 4548TIP3    H135203   0.284   0.328   1.100  0.4616  1.5889  0.9444
 4548TIP3    H235204   0.193   0.366   1.216 -2.9078 -3.4021  0.2655
 4549TIP3   OH235205   0.652   0.972   4.544 -0.4356 -0.2767  0.6960
 4549TIP3    H135206   0.734   0.922   4.541 -1.7140 -2.4453  0.5855
 4549TIP3    H235207   0.627   0.983   4.453  0.6355  2.1247  0.5841
 4550TIP3   OH235208   1.611   2.734   1.593 -0.1314  0.5333 -0.3723
 4550TIP3    H135209   1.663   2.671   1.543 -0.9016 -0.1459 -0.3345
 4550TIP3    H235210   1.650   2.733   1.681 -0.9738 -0.9214  0.0108
 4551TIP3   OH235211   0.033   4.593   3.026 -0.4302 -0.1304 -0.2820
 4551TIP3    H135212   0.055   4.682   3.053  2.0508 -1.2547  1.9023
 4551TIP3    H235213  -0.033   4.565   3.090 -0.4701 -0.1612 -0.3374
 4552TIP3   OH235214   3.829   5.877   2.251  0.3100 -0.0824 -0.0147
 4552TIP3    H135215   3.893   5.883   2.180  0.8334  0.9711  0.5162
 4552TIP3    H235216   3.780   5.959   2.246 -0.5506 -0.5852  0.0116
 4553TIP3   OH235217   0.027   1.031   4.122 -0.4189 -0.3314 -0.2058
 4553TIP3    H135218   0.007   1.117   4.158 -1.7614  0.0868 -1.8167
 4553TIP3    H235219  -0.058   0.986   4.119  0.0250 -1.1535 -0.7493
 4554TIP3   OH235220   5.595   5.813   0.426 -0.3566 -0.2161  0.0979
 4554TIP3    H135221   5.645   5.735   0.447  0.4858 -0.2573 -1.8402
 4554TIP3    H235222   5.578   5.807   0.332  1.0638  2.6229 -0.4638
 4555TIP3   OH235223   4.593   6.448   3.597  0.2875  0.0902  0.1757
 4555TIP3    H135224   4.684   6.420   3.592  0.0876 -0.6478  0.5030
 4555TIP3    H235225   4.561   6.442   3.507  0.9690  1.8502 -0.2350
 4556TIP3   OH235226   1.574   6.296   1.240  0.0223 -0.6252 -0.1642
 4556TIP3    H135227   1.487   6.331   1.222 -0.5918 -1.9516  0.1319
 4556TIP3    H235228   1.569   6.204   1.214  1.5257 -0.5771 -0.7357
 4557TIP3   OH235229   5.504   1.836   0.448 -0.1913 -0.0699  0.4936
 4557TIP3    H135230   5.497   1.792   0.363  1.8272 -0.0498  0.2664
 4557TIP3    H235231   5.494   1.929   0.427  2.6581  0.1842 -0.1777
 4558TIP3   OH235232   6.215   6.491   1.270  0.6181  0.1366  0.2090
 4558TIP3    H135233   6.205   6.462   1.360  0.6882  0.2785  0.2618
 4558TIP3    H235234   6.126   6.487   1.234  0.2256  2.0785  0.8924
 4559TIP3   OH235235   2.641   1.274   2.820  0.5260  0.5263  1.0106
 4559TIP3    H135236   2.689   1.213   2.876  0.7194  1.6092  2.0587
 4559TIP3    H235237   2.566   1.301   2.873 -1.1459 -0.9005 -0.4813
 4560TIP3   OH235238   3.244   1.934   0.976 -0.4059 -0.1658  0.4194
 4560TIP3    H135239   3.209   1.884   0.902  0.5674  1.6837 -1.3979
 4560TIP3    H235240   3.333   1.956   0.951  0.0090  0.4301  2.2306
 4561TIP3   OH235241   3.641   0.861   0.022 -0.5886  0.2545  0.2073
 4561TIP3    H135242   3.568   0.866  -0.040 -1.2870 -0.4565  0.9400
 4561TIP3    H235243   3.612   0.796   0.086  1.0289 -0.6467  0.0683
 4562TIP3   OH235244   1.443   4.894   0.258 -0.5591  0.1618 -0.4591
 4562TIP3    H135245   1.402   4.927   0.178  0.2182  0.3263 -0.8000
 4562TIP3    H235246   1.447   4.799   0.245 -0.2586  0.2070 -0.7003
 4563TIP3   OH235247   0.767   5.655   2.246 -0.6198  0.0188  0.1316
 4563TIP3    H135248   0.708   5.604   2.190 -0.4288 -0.3370  0.2502
 4563TIP3    H235249   0.721   5.660   2.330 -0.0459 -1.1059  0.5229
 4564TIP3   OH235250   4.986   5.311   0.776  0.0605 -0.0514  0.1755
 4564TIP3    H135251   4.914   5.375   0.781 -0.0655 -0.2571  1.5618
 4564TIP3    H235252   5.065   5.364   0.784 -0.0463 -0.0384  1.4125
 4565TIP3   OH235253   6.931   1.933   3.802 -0.0989  0.2811 -0.0868
 4565TIP3    H135254   6.869   1.951   3.873 -0.8429  2.2517 -1.1645
 4565TIP3    H235255   7.001   1.997   3.815  1.2042 -1.1983  0.4681
 4566TIP3   OH235256   5.034   2.140   1.793 -0.0343  0.2041 -0.0912
 4566TIP3    H135257   5.125   2.111   1.788 -0.2658 -0.6328  0.4529
 4566TIP3    H235258   5.020   2.161   1.885  0.1704  2.2589 -0.4800
 4567TIP3   OH235259   1.206   4.109   2.579  0.0667  0.7485  0.3717
 4567TIP3    H135260   1.288   4.135   2.621  0.0828  0.7407  0.3453
 4567TIP3    H235261   1.176   4.033   2.629  0.8632 -0.2007 -0.5794
 4568TIP3   OH235262   6.544   4.601   0.726 -0.3040  0.0673  0.0366
 4568TIP3    H135263   6.595   4.681   0.723 -1.0665  0.7522  2.5748
 4568TIP3    H235264   6.603   4.536   0.764 -0.0302 -0.2772 -0.9734
 4569TIP3   OH235265   4.502   5.578   2.808  0.2360  0.0367 -0.2114
 4569TIP3    H135266   4.578   5.536   2.850  1.7433  1.1895 -1.6628
 4569TIP3    H235267   4.533   5.666   2.786 -0.8333 -0.1362 -2.7049
 4570TIP3   OH235268   1.981   4.655   0.513  0.0179 -0.1184  1.2623
 4570TIP3    H135269   1.897   4.641   0.557 -0.0714  0.8676  1.4288
 4570TIP3    H235270   2.017   4.568   0.503 -1.1894 -0.5981  0.8642
 4571TIP3   OH235271   1.625   6.165   3.806  0.8709  0.1530  0.1785
 4571TIP3    H135272   1.586   6.103   3.868  0.1089  0.2401 -0.2045
 4571TIP3    H235273   1.682   6.220   3.861  0.8585 -0.3049  0.6638
 4572TIP3   OH235274   3.735   0.112   2.054  0.0057 -0.3338  0.0038
 4572TIP3    H135275   3.702   0.111   2.144 -0.0649 -0.7912 -0.0238
 4572TIP3    H235276   3.809   0.052   2.055  0.2262 -0.0680 -0.1649
 4573TIP3   OH235277   2.679   1.367   2.578 -0.9247 -0.1544 -0.3156
 4573TIP3    H135278   2.588   1.349   2.553 -0.2211 -0.9074 -2.5567
 4573TIP3    H235279   2.680   1.354   2.673 -2.9992 -0.8103 -0.3236
 4574TIP3   OH235280   2.651   4.520   2.304 -0.5739 -0.3307  0.0064
 4574TIP3    H135281   2.702   4.502   2.225  1.2205  2.0022  0.5400
 4574TIP3    H235282   2.716   4.544   2.370 -2.2514  1.1647  1.2003
 4575TIP3   OH235283   6.822   1.885   2.958  0.4652 -0.8400 -0.2984
 4575TIP3    H135284   6.844   1.891   2.865 -0.6409  0.1514 -0.5151
 4575TIP3    H235285   6.897   1.925   3.003  0.9242 -1.1685 -0.7499
 4576TIP3   OH235286   0.510   5.336   1.028  0.3349 -0.0043 -0.4279
 4576TIP3    H135287   0.523   5.431   1.024 -2.0309  0.4798  1.1620
 4576TIP3    H235288   0.528   5.313   1.119 -2.6627 -0.3545  0.1859
 4577TIP3   OH235289   4.787   0.915   2.075 -0.1253  0.4145  0.0312
 4577TIP3    H135290   4.873   0.882   2.102 -0.0483  0.7842  0.2450
 4577TIP3    H235291   4.785   0.901   1.980 -0.0634 -0.1267  0.1049
 4578TIP3   OH235292   2.066   5.126   0.864 -0.5818  0.1515  0.4410
 4578TIP3    H135293   2.107   5.070   0.930  0.0246  1.2080  0.9878
 4578TIP3    H235294   2.139   5.176   0.826 -1.0689  0.3473 -0.2563
 4579TIP3   OH235295   5.198   2.797   0.024 -0.0856  0.0076  0.2377
 4579TIP3    H135296   5.269   2.740  -0.006  0.7989  1.2540 -0.1214
 4579TIP3    H235297   5.122   2.771  -0.029  0.4527 -0.4210 -0.3351
 4580TIP3   OH235298   4.362   4.312   3.142 -0.6297 -0.0702 -0.2314
 4580TIP3    H135299   4.321   4.262   3.213  1.0405 -0.1582  0.7251
 4580TIP3    H235300   4.379   4.398   3.181 -0.7729  0.2774 -0.9221
 4581TIP3   OH235301   3.755   3.664   0.835  0.2943  0.4037  0.2706
 4581TIP3    H135302   3.837   3.688   0.878  0.1787  0.0280  0.7088
 4581TIP3    H235303   3.774   3.583   0.788  0.2720  0.5189  0.0574
 4582TIP3   OH235304   3.765   4.582   0.739 -0.3538 -0.5475 -0.2041
 4582TIP3    H135305   3.692   4.536   0.697 -0.1669 -0.5534 -0.5244
 4582TIP3    H235306   3.797   4.642   0.672  0.5713 -1.2507 -0.4104
 4583TIP3   OH235307   0.873   2.522   8.196  0.0007  0.1390 -0.1201
 4583TIP3    H135308   0.866   2.428   8.212  0.1604  0.0335 -0.6350
 4583TIP3    H235309   0.889   2.560   8.282  0.9455 -0.4073 -0.0411
 4584TIP3   OH235310   2.216   5.699   0.162  0.1700 -0.5368  0.4865
 4584TIP3    H135311   2.224   5.615   0.206 -0.8923  0.2650  2.3539
 4584TIP3    H235312   2.151   5.747   0.214 -0.4083  0.8715 -1.4108
 4585TIP3   OH235313   4.793   6.854   1.165  0.2235  0.4295  0.1681
 4585TIP3    H135314   4.801   6.769   1.209 -0.2012 -0.4884 -1.4730
 4585TIP3    H235315   4.700   6.876   1.173  0.1407  0.2507 -0.2676
 4586TIP3   OH235316   0.586   1.501   3.557 -0.2715 -0.6517 -0.2644
 4586TIP3    H135317   0.667   1.549   3.576  0.3314 -1.6794 -0.1321
 4586TIP3    H235318   0.570   1.449   3.637 -0.8048 -0.7985 -0.4654
 4587TIP3   OH235319   0.141   0.024   2.403  0.3388  0.4356 -0.4035
 4587TIP3    H135320   0.208  -0.028   2.358 -0.4822 -2.4024  1.4089
 4587TIP3    H235321   0.065   0.021   2.345  0.9257  1.4519 -1.2594
 4588TIP3   OH235322   3.240   6.720   2.232  0.3981 -0.4097  0.3549
 4588TIP3    H135323   3.198   6.652   2.283  1.0652 -1.1861 -0.1105
 4588TIP3    H235324   3.217   6.700   2.141  2.5635 -1.4849 -0.0325
 4589TIP3   OH235325   0.828   6.774   1.732 -0.1421  0.2793 -0.7151
 4589TIP3    H135326   0.885   6.817   1.669  1.0036 -0.4721 -0.2151
 4589TIP3    H235327   0.755   6.740   1.680  0.3457  0.4115 -1.4936
 4590TIP3   OH235328   5.410   0.534   1.192  0.3022 -0.0615 -0.2756
 4590TIP3    H135329   5.464   0.491   1.126 -1.5058 -1.2928 -1.0298
 4590TIP3    H235330   5.410   0.473   1.266  1.0678  0.6033  0.2952
 4591TIP3   OH235331   1.919   4.791   0.269 -0.2870  0.3358  0.3384
 4591TIP3    H135332   1.926   4.777   0.364 -0.2818 -0.4109  0.2401
 4591TIP3    H235333   1.982   4.729   0.232 -0.5906  0.3286 -0.1703
 4592TIP3   OH235334   0.490   2.274   0.779 -0.5522 -0.3366 -0.0592
 4592TIP3    H135335   0.469   2.181   0.772  0.4531 -0.5662 -0.1726
 4592TIP3    H235336   0.585   2.277   0.783 -0.5533  0.7166 -0.4188
 4593TIP3   OH235337   5.541   1.953   1.924  0.3418  0.5330  0.3210
 4593TIP3    H135338   5.469   2.016   1.927 -0.4206 -0.3525  1.1571
 4593TIP3    H235339   5.544   1.924   1.833 -1.6758 -0.8651  0.6271
 4594TIP3   OH235340   1.723   2.361   0.818 -0.0995 -0.5256 -0.3038
 4594TIP3    H135341   1.812   2.330   0.802  0.5947  1.7507 -1.2239
 4594TIP3    H235342   1.714   2.359   0.913  1.2382 -0.0258 -0.1448
 4595TIP3   OH235343   6.825   1.211   3.017 -0.4037  0.6391 -0.3506
 4595TIP3    H135344   6.876   1.145   3.064 -1.0219 -0.3359 -1.0011
 4595TIP3    H235345   6.804   1.277   3.083 -2.2466 -1.2451  1.0994
 4596TIP3   OH235346   4.937   1.685   1.241  0.2797 -0.0431 -0.2465
 4596TIP3    H135347   4.959   1.729   1.159 -0.1270  2.6305  0.9600
 4596TIP3    H235348   4.850   1.717   1.263  1.5552  1.8008  2.6866
 4597TIP3   OH235349   3.352   0.709   2.260 -0.3877  0.5979 -0.5339
 4597TIP3    H135350   3.361   0.733   2.352 -1.4026  0.3180 -0.3581
 4597TIP3    H235351   3.440   0.681   2.235 -0.3602 -0.5385  0.7090
 4598TIP3   OH235352   5.078   6.243   0.679  0.4015 -0.3219  0.2591
 4598TIP3    H135353   5.003   6.213   0.628  0.4027 -0.3430  0.2699
 4598TIP3    H235354   5.040   6.274   0.761  0.2705  0.7233 -0.1694
 4599TIP3   OH235355   0.151   6.203   3.497 -0.4671  0.6600 -0.0499
 4599TIP3    H135356   0.239   6.184   3.530 -1.0916 -0.4482  1.0629
 4599TIP3    H235357   0.093   6.148   3.550 -1.7314  0.4173 -1.6215
 4600TIP3   OH235358   6.662   4.683   0.307 -0.1182 -0.0256 -0.3559
 4600TIP3    H135359   6.649   4.736   0.386  1.4521 -0.1020 -0.0221
 4600TIP3    H235360   6.720   4.612   0.335 -0.9785 -1.0773 -1.1653
 4601TIP3   OH235361   6.951   6.036   4.087 -0.0376  0.2414 -0.0035
 4601TIP3    H135362   6.963   6.117   4.038  0.2189  1.1674  1.5356
 4601TIP3    H235363   6.862   6.008   4.065  0.3962  0.1251 -1.6957
 4602TIP3   OH235364   6.592   6.848   1.250  0.0218 -0.3703  0.2754
 4602TIP3    H135365   6.567   6.934   1.286 -1.9277 -0.6989 -0.1950
 4602TIP3    H235366   6.542   6.840   1.169  1.2920 -1.3671 -0.4595
 4603TIP3   OH235367   6.459   0.428   1.294 -0.3977  0.1139 -0.0531
 4603TIP3    H135368   6.376   0.385   1.273  0.8641 -1.8223 -1.3484
 4603TIP3    H235369   6.442   0.521   1.279 -2.0921 -0.3175 -1.1098
 4604TIP3   OH235370   1.978   4.473   3.741 -0.0366  0.3035  0.1187
 4604TIP3    H135371   2.040   4.528   3.789  0.1268 -0.5276  0.8844
 4604TIP3    H235372   1.951   4.407   3.805  1.3251 -1.7655 -1.3444
 4605TIP3   OH235373   2.638   6.166   0.608  0.1843 -0.2519 -0.6472
 4605TIP3    H135374   2.545   6.174   0.587  0.1850  2.3735  0.0579
 4605TIP3    H235375   2.681   6.161   0.523 -0.5478 -1.1968 -0.9847
 4606TIP3   OH235376   1.270   1.723   8.263 -0.1265 -0.8810 -0.0886
 4606TIP3    H135377   1.353   1.768   8.278 -0.8519  0.1926  0.9934
 4606TIP3    H235378   1.247   1.687   8.349 -0.5246 -1.6120 -0.4974
 4607TIP3   OH235379   5.813   6.714   4.010 -0.5994  0.2377 -0.1187
 4607TIP3    H135380   5.871   6.779   4.050 -0.5291  1.9615 -2.7636
 4607TIP3    H235381   5.872   6.644   3.982 -0.0228  1.0289 -0.9604
 4608TIP3   OH235382   3.532   3.763   1.568 -0.0635  0.4482 -0.3993
 4608TIP3    H135383   3.594   3.835   1.565 -1.1849  1.4264 -1.1092
 4608TIP3    H235384   3.566   3.704   1.635  1.9115  0.6688 -1.1399
 4609TIP3   OH235385   4.402   6.427   2.906 -0.4346 -0.8544  0.3039
 4609TIP3    H135386   4.425   6.339   2.935 -0.1877 -0.6361  0.7836
 4609TIP3    H235387   4.332   6.455   2.965 -1.1397 -1.0655 -0.4123
 4610TIP3   OH235388   4.648   6.508   1.456 -0.1825  0.1623 -0.0053
 4610TIP3    H135389   4.729   6.558   1.445 -0.4316  0.1426 -2.4532
 4610TIP3    H235390   4.669   6.421   1.424 -0.4398 -0.6745  1.9660
 4611TIP3   OH235391   4.393   3.909   3.205  0.2997  0.2178 -0.0578
 4611TIP3    H135392   4.418   3.937   3.292  1.2293  1.2371 -0.6341
 4611TIP3    H235393   4.456   3.951   3.146  0.1454 -1.0141 -1.1705
 4612TIP3   OH235394   1.059   4.168   1.947 -0.2263 -0.8074 -0.1917
 4612TIP3    H135395   1.037   4.261   1.960 -1.6231 -1.0830 -0.4159
 4612TIP3    H235396   1.107   4.144   2.026 -2.5583 -0.6535  1.3993
 4613TIP3   OH235397   4.966   3.102   1.894  0.1148 -0.5306 -0.1980
 4613TIP3    H135398   4.876   3.136   1.895 -0.4337 -1.8737 -1.1040
 4613TIP3    H235399   5.018   3.175   1.860 -0.4730  0.5450  1.0873
 4614TIP3   OH235400   2.055   6.523   0.196  0.5695 -0.0939 -0.4489
 4614TIP3    H135401   2.026   6.434   0.173 -1.8124  0.2920  0.6746
 4614TIP3    H235402   2.044   6.574   0.116 -1.0681 -0.2020 -0.3365
 4615TIP3   OH235403   3.724   6.548   0.013 -0.0272 -0.5553  0.0533
 4615TIP3    H135404   3.649   6.605  -0.002 -0.2815 -1.5047 -2.8775
 4615TIP3    H235405   3.687   6.460   0.020  0.7162 -0.9544 -0.7211
 4616TIP3   OH235406   6.057   1.935   1.016 -0.3066  0.1199  0.0660
 4616TIP3    H135407   6.136   1.982   1.043 -0.0552 -0.2607 -0.0064
 4616TIP3    H235408   6.012   1.915   1.098 -0.4931  0.6111  0.0922
 4617TIP3   OH235409   4.651   4.381   0.705 -0.7550 -0.3411 -0.0879
 4617TIP3    H135410   4.636   4.464   0.751  0.0211 -1.1118  1.6541
 4617TIP3    H235411   4.734   4.349   0.740 -0.3728 -1.2355 -1.7120
 4618TIP3   OH235412   6.455   2.879   1.381 -0.1544  0.6342  0.1208
 4618TIP3    H135413   6.430   2.881   1.474 -0.4222  0.1135  0.0621
 4618TIP3    H235414   6.452   2.786   1.357  0.8122  0.6671 -0.1679
 4619TIP3   OH235415   3.525   5.400   4.646 -0.1905  0.4163 -0.1276
 4619TIP3    H135416   3.470   5.475   4.668  0.2882  0.5740  0.5401
 4619TIP3    H235417   3.583   5.432   4.577 -0.4563  0.4518 -0.3384
 4620TIP3   OH235418   3.441   5.142   4.715 -0.2893 -0.2360 -0.1004
 4620TIP3    H135419   3.469   5.075   4.653  1.1932  0.0459  0.2332
 4620TIP3    H235420   3.480   5.223   4.683 -3.5160  0.9146 -1.5235
 4621TIP3   OH235421   1.221   5.341   2.917 -0.0866  0.2777 -0.0368
 4621TIP3    H135422   1.302   5.292   2.927 -0.3087 -0.2081 -0.5569
 4621TIP3    H235423   1.248   5.430   2.893  0.2662 -0.3984 -2.3642
 4622TIP3   OH235424   0.881   3.920   1.502  0.1279  0.2531 -0.0665
 4622TIP3    H135425   0.850   4.010   1.492 -0.0170  0.2727  0.5031
 4622TIP3    H235426   0.953   3.912   1.441 -0.7330  0.3439 -1.1216
 4623TIP3   OH235427   0.709   0.817   1.459  0.2285  0.0151  0.2904
 4623TIP3    H135428   0.646   0.878   1.495  0.6991  0.0722  1.0454
 4623TIP3    H235429   0.706   0.831   1.364 -0.7313  0.1540  0.3381
 4624TIP3   OH235430   5.695   4.971   1.361  0.1661 -0.0848  0.3094
 4624TIP3    H135431   5.647   4.902   1.407 -1.3653 -0.5134 -1.8024
 4624TIP3    H235432   5.656   5.052   1.393  0.4382 -0.2741  1.1480
 4625TIP3   OH235433   1.569   0.493   2.737 -0.5139  0.2504 -0.0944
 4625TIP3    H135434   1.536   0.517   2.824 -0.6391 -3.1038  0.9075
 4625TIP3    H235435   1.654   0.451   2.754 -0.2607  0.0533 -1.6582
 4626TIP3   OH235436   0.074   0.233   2.129  1.0668 -0.0255  0.0571
 4626TIP3    H135437   0.005   0.262   2.188 -1.6354 -0.3735 -2.6639
 4626TIP3    H235438   0.093   0.309   2.074  0.9234 -0.6438 -0.8874
 4627TIP3   OH235439   3.581   1.034   3.657 -0.7044  0.0216  0.2097
 4627TIP3    H135440   3.566   0.941   3.672  0.2462 -0.2926 -0.7098
 4627TIP3    H235441   3.578   1.044   3.562  3.5294  0.0996 -0.0818
 4628TIP3   OH235442   5.250   6.550   2.647  0.8196 -0.0912 -0.2893
 4628TIP3    H135443   5.224   6.609   2.717 -0.0251 -1.5474  0.6738
 4628TIP3    H235444   5.312   6.490   2.687 -0.6635 -1.7688 -0.3826
 4629TIP3   OH235445   4.501   5.676   8.063 -0.2496  0.2888  0.0954
 4629TIP3    H135446   4.484   5.587   8.095  1.7389 -0.9568 -1.9315
 4629TIP3    H235447   4.575   5.707   8.116  0.7641 -0.3740 -0.8787
 4630TIP3   OH235448   3.450   0.427   4.275  0.1090 -0.0409 -0.3116
 4630TIP3    H135449   3.418   0.509   4.313 -0.1746  0.2773 -1.2115
 4630TIP3    H235450   3.401   0.359   4.321  2.0834  0.0993  2.1847
 4631TIP3   OH235451   0.764   4.236   8.285  0.1309  0.6873  0.3327
 4631TIP3    H135452   0.704   4.174   8.328  1.2046 -0.6178  0.0379
 4631TIP3    H235453   0.716   4.267   8.209 -1.1359  1.6857  1.4834
 4632TIP3   OH235454   2.516   3.506   2.461 -0.1424 -0.1332  0.0290
 4632TIP3    H135455   2.568   3.584   2.475  0.5126 -0.5779  0.1082
 4632TIP3    H235456   2.563   3.458   2.393  0.1777 -1.0776  0.8837
 4633TIP3   OH235457   1.866   0.810   1.077  0.1984  0.1681 -0.5342
 4633TIP3    H135458   1.828   0.780   0.995  0.9935 -0.5222 -0.6579
 4633TIP3    H235459   1.949   0.851   1.052 -0.5981  2.0040 -0.3102
 4634TIP3   OH235460   1.033   1.663   3.960  0.0043 -0.1068  0.1023
 4634TIP3    H135461   1.002   1.639   4.047  2.2603 -2.3265  0.4337
 4634TIP3    H235462   1.096   1.733   3.975  1.2548 -1.2595  0.4842
 4635TIP3   OH235463   1.542   1.247   4.002 -0.0667 -0.3484  0.1441
 4635TIP3    H135464   1.609   1.208   3.947  1.8994  2.6334  0.1861
 4635TIP3    H235465   1.470   1.183   4.002  1.5661 -2.3711 -2.2901
 4636TIP3   OH235466   4.768   2.116   2.125  0.1560  0.2699  0.0936
 4636TIP3    H135467   4.793   2.202   2.091 -1.5493  1.3198  1.3361
 4636TIP3    H235468   4.768   2.126   2.220 -0.1258 -1.1017  0.2665
 4637TIP3   OH235469   0.062   0.635   1.062  0.1243  0.1635 -0.3205
 4637TIP3    H135470   0.113   0.555   1.069  0.8120  0.3211 -2.6790
 4637TIP3    H235471   0.091   0.689   1.135  1.1486 -0.9435  0.1136
 4638TIP3   OH235472   1.257   1.568   0.652  0.3462 -0.1387  0.4772
 4638TIP3    H135473   1.175   1.526   0.677  0.0552  0.5754  0.7399
 4638TIP3    H235474   1.324   1.503   0.670 -0.2470 -1.0858 -0.6327
 4639TIP3   OH235475   3.539   3.571   1.365 -0.3305 -0.2527 -0.4013
 4639TIP3    H135476   3.548   3.651   1.417  0.2922 -1.1745  0.9651
 4639TIP3    H235477   3.581   3.503   1.417 -1.5308 -1.6477 -1.1689
 4640TIP3   OH235478   3.961   1.018   1.456 -0.3259  0.0553  0.0904
 4640TIP3    H135479   3.911   0.951   1.503  2.2425 -2.3536 -0.3775
 4640TIP3    H235480   3.898   1.056   1.395 -1.6861 -2.6887 -0.3580
 4641TIP3   OH235481   1.666   3.938   3.039  0.1566  0.4990  0.2340
 4641TIP3    H135482   1.642   3.847   3.053 -1.3161  0.2586 -2.9378
 4641TIP3    H235483   1.651   3.981   3.123 -1.0740 -1.7827  1.2479
 4642TIP3   OH235484   2.788   4.387   1.465 -0.4486 -0.2628 -0.1405
 4642TIP3    H135485   2.743   4.468   1.489 -0.8427 -0.5401  0.0677
 4642TIP3    H235486   2.859   4.416   1.408 -0.6569  0.2192 -0.1673
 4643TIP3   OH235487   1.227   1.990   1.548  0.0851  0.1743 -0.8597
 4643TIP3    H135488   1.224   1.959   1.457  2.2018  0.9436 -1.2541
 4643TIP3    H235489   1.230   2.085   1.540 -0.3319  0.2677  0.0531
 4644TIP3   OH235490   4.402   1.481   2.296 -0.1899 -0.1242 -0.2045
 4644TIP3    H135491   4.437   1.467   2.208  0.4540  0.3585 -0.0365
 4644TIP3    H235492   4.316   1.520   2.282 -0.5641 -1.0853 -0.6288
 4645TIP3   OH235493   2.942   1.780   2.006  0.8578 -0.4250  0.1585
 4645TIP3    H135494   2.964   1.710   1.944  1.7845  0.4225 -0.5116
 4645TIP3    H235495   3.002   1.767   2.079  0.4116 -0.8598  0.4525
 4646TIP3   OH235496   0.916   1.149   3.135 -0.0323 -0.2903  0.6357
 4646TIP3    H135497   0.906   1.067   3.184  0.5316  0.1492  1.5126
 4646TIP3    H235498   0.854   1.141   3.062 -2.7571  0.0693  2.7608
 4647TIP3   OH235499   0.681   6.252   4.249 -0.1245  0.3078 -0.4288
 4647TIP3    H135500   0.683   6.164   4.213  1.7634 -0.0904  0.5105
 4647TIP3    H235501   0.678   6.310   4.173 -1.1791 -0.5571 -1.0589
 4648TIP3   OH235502   5.434   4.097   3.622 -0.1788 -0.1537  0.3858
 4648TIP3    H135503   5.454   4.112   3.715 -0.0019 -0.0653  0.3347
 4648TIP3    H235504   5.382   4.017   3.621  0.7341 -0.7671  0.4686
 4649TIP3   OH235505   5.504   3.696   4.207  0.3864  0.2967 -0.0748
 4649TIP3    H135506   5.447   3.620   4.220 -0.1008  0.3965 -1.4123
 4649TIP3    H235507   5.445   3.771   4.213  0.5477  0.4599 -0.4821
 4650TIP3   OH235508   4.756   3.895   1.579 -0.3299 -0.1157  0.1686
 4650TIP3    H135509   4.839   3.924   1.543 -0.1618  0.6057  1.0913
 4650TIP3    H235510   4.715   3.844   1.509  1.6176 -1.8985  0.2384
 4651TIP3   OH235511   0.956   0.165   1.421 -0.2543 -0.1043  0.6144
 4651TIP3    H135512   0.958   0.245   1.474 -2.0731 -0.7885  1.8126
 4651TIP3    H235513   0.864   0.155   1.398 -0.1589 -2.1513  0.9816
 4652TIP3   OH235514   5.837   4.119   1.751 -0.3819 -0.4263 -0.0917
 4652TIP3    H135515   5.772   4.057   1.716 -2.9492  0.7600  2.1467
 4652TIP3    H235516   5.789   4.166   1.819  2.2944  2.0839  0.2138
 4653TIP3   OH235517   5.116   5.444   8.073 -0.1932 -0.0534  0.0554
 4653TIP3    H135518   5.108   5.349   8.072 -0.0974 -0.0585 -1.0074
 4653TIP3    H235519   5.171   5.463   8.149  0.2055 -0.8851 -0.0208
 4654TIP3   OH235520   2.073   0.777   0.287 -0.2488 -0.3045  0.3297
 4654TIP3    H135521   2.083   0.870   0.268 -1.2978 -0.2938 -0.2063
 4654TIP3    H235522   2.012   0.773   0.360  0.1423 -0.5608  0.6507
 4655TIP3   OH235523   0.116   0.044   3.548  0.5217  0.3683 -0.0988
 4655TIP3    H135524   0.133   0.138   3.551  0.2316  0.4135  0.1076
 4655TIP3    H235525   0.157   0.015   3.467  1.2551  0.5428  0.2065
 4656TIP3   OH235526   6.658   6.080   1.124 -0.3787  0.2131 -0.2096
 4656TIP3    H135527   6.616   6.010   1.074  0.8975 -1.9134  1.5239
 4656TIP3    H235528   6.692   6.140   1.057 -1.1963 -0.9845 -1.7759
 4657TIP3   OH235529   2.731   6.698   2.018  0.0856  0.0243 -0.1911
 4657TIP3    H135530   2.798   6.690   2.086  0.3499 -0.4643 -0.5075
 4657TIP3    H235531   2.698   6.787   2.027  1.2369  0.4919 -0.4569
 4658TIP3   OH235532   2.871   2.508   0.879 -0.3934  0.0645 -0.2339
 4658TIP3    H135533   2.857   2.589   0.930 -4.2634  0.2707 -1.3114
 4658TIP3    H235534   2.863   2.536   0.788 -0.4635 -1.3737 -0.6791
 4659TIP3   OH235535   1.743   1.256   0.307  0.0489 -0.3486  0.7037
 4659TIP3    H135536   1.736   1.278   0.214 -1.3893 -0.1263  0.8472
 4659TIP3    H235537   1.667   1.200   0.324  0.8888 -1.2786  1.5056
 4660TIP3   OH235538   5.828   2.319   0.900  0.2081 -0.0876 -0.0146
 4660TIP3    H135539   5.842   2.226   0.915 -2.2085 -0.3444  1.1410
 4660TIP3    H235540   5.794   2.325   0.811 -1.3607 -0.5744  0.5186
 4661TIP3   OH235541   4.287   5.861   2.194 -0.3502  0.4226  0.4960
 4661TIP3    H135542   4.317   5.945   2.228  0.6334 -0.2392  1.3114
 4661TIP3    H235543   4.221   5.831   2.257 -2.2892  1.5197 -0.8948
 4662TIP3   OH235544   1.402   0.949   0.523  0.0744 -0.2204 -0.9027
 4662TIP3    H135545   1.459   0.890   0.474  0.0724 -1.5489  0.5923
 4662TIP3    H235546   1.319   0.949   0.475  0.4507 -0.5108 -1.5579
 4663TIP3   OH235547   3.160   2.974   3.168 -0.7608 -0.6231 -0.4397
 4663TIP3    H135548   3.079   3.004   3.127 -0.5662 -0.7749 -0.9434
 4663TIP3    H235549   3.143   2.979   3.262 -0.5826  1.4389 -0.4872
 4664TIP3   OH235550   1.286   5.736   3.101  0.4782 -1.5173 -0.5021
 4664TIP3    H135551   1.209   5.719   3.155 -0.7482  2.3605 -0.7604
 4664TIP3    H235552   1.252   5.740   3.012  1.4337 -2.0167 -0.9035
 4665TIP3   OH235553   6.647   0.848   2.120  0.1145 -0.3334  0.2546
 4665TIP3    H135554   6.650   0.786   2.193  1.6157 -1.1724 -0.4634
 4665TIP3    H235555   6.591   0.919   2.151  1.8196  0.0454  2.8115
 4666TIP3   OH235556   4.419   5.973   1.685 -0.2043 -0.6198 -0.1132
 4666TIP3    H135557   4.480   5.962   1.758  0.1015  0.2291 -0.2281
 4666TIP3    H235558   4.347   5.914   1.705  0.5657 -1.5081  0.1178
 4667TIP3   OH235559   5.470   4.680   2.966 -0.2103 -0.1069 -0.0217
 4667TIP3    H135560   5.541   4.717   2.913  0.2835 -0.3412  0.4628
 4667TIP3    H235561   5.396   4.673   2.906  0.5223 -0.9819 -0.8554
 4668TIP3   OH235562   4.073   6.659   3.115  0.2965 -0.2219  0.2480
 4668TIP3    H135563   4.108   6.614   3.192 -0.7114 -0.8344  0.3677
 4668TIP3    H235564   3.988   6.618   3.101 -0.7024  1.6970  0.4050
 4669TIP3   OH235565   4.317   2.587   2.189 -0.5093 -0.0177 -0.2701
 4669TIP3    H135566   4.387   2.646   2.164 -0.6100  1.8846  3.3460
 4669TIP3    H235567   4.236   2.634   2.167 -0.6044  0.2621  0.6633
 4670TIP3   OH235568   6.345   2.346   2.929  0.6026 -0.2749 -0.2754
 4670TIP3    H135569   6.367   2.266   2.883 -2.7441 -0.8747 -1.0485
 4670TIP3    H235570   6.337   2.412   2.860 -0.1518 -0.1446 -0.0698
 4671TIP3   OH235571   1.655   5.061   1.145  0.3211 -0.1428  0.2873
 4671TIP3    H135572   1.732   5.099   1.100  0.1931 -1.4811 -1.1485
 4671TIP3    H235573   1.591   5.132   1.145  0.8835  0.3863 -0.2577
 4672TIP3   OH235574   5.011   3.964   2.299 -0.2772 -0.4892 -0.5100
 4672TIP3    H135575   4.935   3.913   2.268 -0.1641  0.0903 -1.8222
 4672TIP3    H235576   5.019   4.035   2.235  0.5791  0.2139  0.3645
 4673TIP3   OH235577   2.986   1.355   1.515 -0.2358 -0.1408 -0.3406
 4673TIP3    H135578   3.074   1.325   1.537  0.0234  1.8639  1.7923
 4673TIP3    H235579   2.928   1.286   1.548  0.4442 -0.0070  1.2085
 4674TIP3   OH235580   2.665   5.730   3.855 -0.1310 -0.6037  0.5112
 4674TIP3    H135581   2.609   5.805   3.836  1.5175  0.6538  0.4687
 4674TIP3    H235582   2.656   5.718   3.950 -0.8673 -0.7670  0.4306
 4675TIP3   OH235583   6.406   3.441   1.693  0.2531 -0.0303 -0.2621
 4675TIP3    H135584   6.484   3.447   1.637  1.0693  3.5078  0.9477
 4675TIP3    H235585   6.439   3.407   1.776  0.4044  0.7179 -0.0025
 4676TIP3   OH235586   3.232   4.224   1.839  0.0577 -0.5216  0.0077
 4676TIP3    H135587   3.167   4.175   1.789  0.9654 -1.3378 -0.4125
 4676TIP3    H235588   3.272   4.282   1.775  1.4855 -1.8362 -0.3519
 4677TIP3   OH235589   2.056   6.375   4.383 -0.2874  0.4839  0.4010
 4677TIP3    H135590   1.985   6.319   4.353 -0.5472  0.1894  1.5210
 4677TIP3    H235591   2.112   6.318   4.436  0.5058  0.8365 -0.0373
 4678TIP3   OH235592   3.528   2.842   3.106 -0.0804 -0.9566  0.3371
 4678TIP3    H135593   3.450   2.827   3.053 -0.1802  0.2019  0.1315
 4678TIP3    H235594   3.592   2.878   3.045 -0.6463  1.7319  1.1934
 4679TIP3   OH235595   1.257   4.839   1.959 -0.0656 -0.1869  0.2689
 4679TIP3    H135596   1.231   4.901   2.026  1.7845  1.6250 -0.5615
 4679TIP3    H235597   1.328   4.789   1.999  0.5178  0.3699 -0.0468
 4680TIP3   OH235598   0.484   5.220   2.352 -0.3044  0.0506  0.4771
 4680TIP3    H135599   0.548   5.243   2.420  1.1978  2.6464 -1.5970
 4680TIP3    H235600   0.491   5.125   2.344  2.4979  0.1050  1.1514
 4681TIP3   OH235601   5.177   5.513   1.699 -1.1507 -0.0448  0.2138
 4681TIP3    H135602   5.160   5.476   1.786 -0.0104  0.1204  0.5256
 4681TIP3    H235603   5.182   5.437   1.642 -2.4554 -0.1252  0.1714
 4682TIP3   OH235604   3.929   6.407   0.576  0.0952  0.1985  0.0782
 4682TIP3    H135605   3.883   6.365   0.504  0.1819  1.4342 -0.7228
 4682TIP3    H235606   4.020   6.412   0.547  0.3622 -0.3655  0.7848
 4683TIP3   OH235607   0.490   2.637   1.446  0.0310 -0.4512 -0.1307
 4683TIP3    H135608   0.432   2.713   1.430 -1.7998 -1.3434  1.7619
 4683TIP3    H235609   0.496   2.594   1.361 -0.0488  1.0186 -0.9285
 4684TIP3   OH235610   0.501   0.246   8.090  0.5484 -0.0846  0.2409
 4684TIP3    H135611   0.508   0.340   8.107  0.5525  0.1143 -0.7647
 4684TIP3    H235612   0.407   0.231   8.078  0.5070 -0.2912  0.7876
 4685TIP3   OH235613   5.551   0.662   2.439  0.1210  0.0775 -0.4085
 4685TIP3    H135614   5.637   0.700   2.425 -0.1066  1.3451  1.2503
 4685TIP3    H235615   5.490   0.732   2.418 -0.3923  0.0174  0.7889
 4686TIP3   OH235616   3.289   5.550   3.259  0.3104 -0.0572  0.1320
 4686TIP3    H135617   3.194   5.558   3.266  0.2116 -0.5158 -0.6032
 4686TIP3    H235618   3.319   5.543   3.350 -0.4010 -0.3758  0.3513
 4687TIP3   OH235619   2.394   1.977   0.488 -0.5495  0.5812 -0.1273
 4687TIP3    H135620   2.442   2.045   0.440  0.9248  2.0774  3.1661
 4687TIP3    H235621   2.458   1.943   0.551 -2.8855  0.3856  2.3045
 4688TIP3   OH235622   5.514   5.155   0.989  0.0287  0.5397 -0.4857
 4688TIP3    H135623   5.494   5.061   0.987 -1.7480  0.8844 -0.5498
 4688TIP3    H235624   5.606   5.160   0.961 -0.0050 -1.1268 -1.0518
 4689TIP3   OH235625   0.945   2.659   1.425 -0.2398 -0.6989  0.2568
 4689TIP3    H135626   0.853   2.667   1.453  0.5270  0.6474  2.7130
 4689TIP3    H235627   0.952   2.718   1.350 -2.0219 -3.2174 -2.0933
 4690TIP3   OH235628   0.392   1.144   2.118  0.5556  0.0448 -0.6299
 4690TIP3    H135629   0.458   1.128   2.186  1.1779  1.8209 -0.7751
 4690TIP3    H235630   0.394   1.064   2.065  1.1923 -0.7214  0.4887
 4691TIP3   OH235631   4.217   1.799   3.472  0.2750 -0.3998 -0.4501
 4691TIP3    H135632   4.312   1.792   3.477  0.1374 -4.3909 -0.6180
 4691TIP3    H235633   4.186   1.775   3.559 -0.5949 -1.6283 -1.0695
 4692TIP3   OH235634   4.104   2.136   1.552 -0.3199  0.0360  0.1713
 4692TIP3    H135635   4.178   2.196   1.542 -0.1544 -0.4543 -2.1293
 4692TIP3    H235636   4.143   2.058   1.592  0.3812 -0.1070 -0.7522
 4693TIP3   OH235637   3.180   6.655   0.310 -0.1906 -0.6468  0.7366
 4693TIP3    H135638   3.131   6.646   0.228  1.7601 -3.6379 -0.2301
 4693TIP3    H235639   3.127   6.609   0.375 -0.2526 -0.9425  0.4738
 4694TIP3   OH235640   4.666   3.498   0.072 -0.0096 -0.1109 -0.5185
 4694TIP3    H135641   4.688   3.568   0.134 -1.1970 -0.9770  0.9420
 4694TIP3    H235642   4.715   3.422   0.103 -0.3857 -0.4856 -0.8390
 4695TIP3   OH235643   0.888   3.166   3.779 -0.4570 -0.1570 -0.2000
 4695TIP3    H135644   0.843   3.251   3.784 -2.1500 -1.0603  0.8983
 4695TIP3    H235645   0.912   3.146   3.869 -0.6681 -1.1433 -0.3493
 4696TIP3   OH235646   5.591   3.519   2.972 -0.2742  0.2349  0.5913
 4696TIP3    H135647   5.633   3.594   3.013  0.2833  0.2123  0.0885
 4696TIP3    H235648   5.566   3.462   3.044 -1.1361  1.1152  1.0115
 4697TIP3   OH235649   5.919   2.770   1.123  0.3039 -0.3658  0.0948
 4697TIP3    H135650   5.855   2.817   1.178  0.6024  1.7714 -1.2977
 4697TIP3    H235651   6.003   2.787   1.165  0.3451 -0.1591 -0.0702
 4698TIP3   OH235652   5.336   1.915   1.463  0.2427  0.2839 -0.6937
 4698TIP3    H135653   5.386   1.920   1.544  0.3438 -0.8048 -0.6730
 4698TIP3    H235654   5.256   1.965   1.481  0.2978  0.1151  0.0606
 4699TIP3   OH235655   6.684   2.686   4.165 -0.0588  0.1966  0.0399
 4699TIP3    H135656   6.764   2.717   4.123  0.4524 -0.3195  0.6218
 4699TIP3    H235657   6.712   2.613   4.219 -0.6650  0.9985  1.4755
 4700TIP3   OH235658   2.396   0.241   2.944  0.4323  0.0935 -0.4289
 4700TIP3    H135659   2.402   0.336   2.943  0.8886  0.0652 -0.6160
 4700TIP3    H235660   2.303   0.222   2.950  0.2899  0.5479 -1.1269
 4701TIP3   OH235661   1.756   3.760   1.529  0.0940 -0.4771  0.1320
 4701TIP3    H135662   1.762   3.821   1.456  1.9100  2.4321  2.4314
 4701TIP3    H235663   1.662   3.746   1.541 -0.2820 -0.0334 -1.9115
 4702TIP3   OH235664   6.652   5.746   2.244 -0.1399  0.0059  0.2485
 4702TIP3    H135665   6.605   5.726   2.162 -1.2612 -1.9982  1.2965
 4702TIP3    H235666   6.596   5.810   2.288 -1.4433 -1.5809  1.0082
 4703TIP3   OH235667   4.776   5.962   7.948 -0.4221  0.2750 -0.0544
 4703TIP3    H135668   4.863   5.927   7.967 -0.5714 -1.1736 -1.7509
 4703TIP3    H235669   4.791   6.051   7.918  0.2454  0.8020  1.7301
 4704TIP3   OH235670   4.182   5.337   2.543  0.8317  0.4255  0.2232
 4704TIP3    H135671   4.264   5.374   2.511  1.7025  1.1752  3.0396
 4704TIP3    H235672   4.208   5.262   2.595 -0.5146 -0.8093 -0.7994
 4705TIP3   OH235673   0.629   0.969   3.779 -0.5345 -0.3043 -0.0496
 4705TIP3    H135674   0.583   0.966   3.695  0.5105  2.3866 -0.8380
 4705TIP3    H235675   0.573   0.920   3.839 -2.4585 -0.3998 -1.8215
 4706TIP3   OH235676   1.220   3.609   3.364 -0.0256 -0.3503 -0.1741
 4706TIP3    H135677   1.298   3.646   3.406 -0.3191  1.6197 -1.2596
 4706TIP3    H235678   1.241   3.609   3.271 -1.5212  0.8131 -0.5526
 4707TIP3   OH235679   2.519   2.320   1.408  0.0442  0.0523  0.3906
 4707TIP3    H135680   2.514   2.303   1.502  1.3614 -1.2075  0.2610
 4707TIP3    H235681   2.584   2.258   1.376 -1.3457 -0.4787 -1.5854
 4708TIP3   OH235682   6.361   2.651   3.769 -0.5511  0.0089  0.3512
 4708TIP3    H135683   6.423   2.682   3.835 -1.1642  1.3449  0.3202
 4708TIP3    H235684   6.322   2.572   3.807  2.1256 -1.7085 -0.1890
 4709TIP3   OH235685   0.556   5.562   2.738 -0.1314  0.1719  0.0325
 4709TIP3    H135686   0.564   5.558   2.833  0.0183  0.2820  0.0254
 4709TIP3    H235687   0.504   5.485   2.715  0.4968 -0.2821  0.1295
 4710TIP3   OH235688   1.530   1.392   1.218  0.3584 -0.4697 -0.3811
 4710TIP3    H135689   1.480   1.317   1.250  2.6899 -3.0314 -2.3105
 4710TIP3    H235690   1.570   1.430   1.296 -0.5252 -1.4669  0.5919
 4711TIP3   OH235691   6.087   2.728   3.282  0.2930 -0.8152  0.1831
 4711TIP3    H135692   6.127   2.766   3.204 -1.4324  1.2307  0.1932
 4711TIP3    H235693   6.160   2.706   3.339  1.4907 -0.3318 -1.1138
 4712TIP3   OH235694   4.018   2.496   8.390 -0.5544 -0.0028  0.3415
 4712TIP3    H135695   3.958   2.469   8.321  1.1779  0.8237 -1.5922
 4712TIP3    H235696   3.961   2.522   8.462 -2.5348  0.7143 -1.3652
 4713TIP3   OH235697   0.909   1.824   1.488  0.1083 -0.0712 -0.6012
 4713TIP3    H135698   0.873   1.835   1.576  1.5890 -1.7879  0.2745
 4713TIP3    H235699   0.941   1.734   1.485  2.1786  0.6208 -2.1014
 4714TIP3   OH235700   4.682   5.330   3.992 -0.0569  0.7285  0.1191
 4714TIP3    H135701   4.598   5.374   4.005 -0.0113  1.0183 -0.5587
 4714TIP3    H235702   4.747   5.388   4.033  0.0061  1.3062 -0.7871
 4715TIP3   OH235703   5.346   3.970   1.385 -0.0667  0.1815 -0.1262
 4715TIP3    H135704   5.337   3.897   1.447 -0.3157  0.6446  0.3898
 4715TIP3    H235705   5.277   3.955   1.321  0.4651 -0.5403 -0.5548
 4716TIP3   OH235706   0.633   4.885   3.373  0.4879  0.7131  0.3429
 4716TIP3    H135707   0.678   4.956   3.419  0.4252  0.3686  0.9477
 4716TIP3    H235708   0.578   4.929   3.308 -1.8791  1.4659  2.6745
 4717TIP3   OH235709   4.422   5.638   1.809  0.0733  0.5610  0.2206
 4717TIP3    H135710   4.350   5.695   1.837  0.1797  0.7808  0.0546
 4717TIP3    H235711   4.415   5.635   1.714  0.0894  0.3228  0.2265
 4718TIP3   OH235712   2.334   6.905   2.195  0.5801  0.0818 -1.1051
 4718TIP3    H135713   2.419   6.920   2.153  1.1841  0.3402  0.1824
 4718TIP3    H235714   2.320   6.810   2.186  1.3454 -0.0769 -0.7065
 4719TIP3   OH235715   4.602   0.072   1.998 -0.0270 -0.1066  0.4497
 4719TIP3    H135716   4.525   0.052   1.945  0.1551  0.1641  0.0811
 4719TIP3    H235717   4.668   0.101   1.935  0.2260  0.1120  0.8109
 4720TIP3   OH235718   3.527   1.029   2.430  0.0589  0.2387  0.1070
 4720TIP3    H135719   3.569   1.001   2.512  0.1536  0.3080  0.0811
 4720TIP3    H235720   3.599   1.041   2.368  0.0912  1.3104  0.3399
 4721TIP3   OH235721   3.078   0.737   3.692 -0.1007  0.1150 -0.1310
 4721TIP3    H135722   3.017   0.759   3.621 -0.1707 -0.8236 -0.3741
 4721TIP3    H235723   3.090   0.819   3.739  1.5663  1.3030 -2.4521
 4722TIP3   OH235724   0.421   4.878   0.609  0.1212 -0.2117  0.3630
 4722TIP3    H135725   0.343   4.897   0.557  0.2454 -0.9596 -0.1180
 4722TIP3    H235726   0.485   4.945   0.583  0.9088 -1.7400 -2.0566
 4723TIP3   OH235727   3.801   6.639   0.261  0.1305  0.5125 -0.0677
 4723TIP3    H135728   3.760   6.616   0.178  0.2705 -1.7057  0.4205
 4723TIP3    H235729   3.875   6.695   0.237 -0.0303  0.1781 -1.3973
 4724TIP3   OH235730   4.105   2.979   2.485 -0.0309 -0.0925 -0.1992
 4724TIP3    H135731   4.032   3.035   2.512 -0.7690 -1.3390  0.5332
 4724TIP3    H235732   4.170   2.990   2.555 -1.0693 -1.7117  1.1224
 4725TIP3   OH235733   6.112   5.491   0.060 -0.3055  0.8420  0.1183
 4725TIP3    H135734   6.166   5.447  -0.006 -0.7325  1.7329 -0.8563
 4725TIP3    H235735   6.166   5.564   0.090  0.1350  0.0754  1.2351
 4726TIP3   OH235736   0.606   6.221   3.699 -0.0870 -0.2105  0.1590
 4726TIP3    H135737   0.610   6.233   3.794 -0.8986  0.5695  0.0970
 4726TIP3    H235738   0.694   6.246   3.668  0.0470 -0.0675  0.6543
 4727TIP3   OH235739   3.970   3.049   1.724 -0.0229  0.1630  0.6548
 4727TIP3    H135740   3.885   3.032   1.765  0.3099 -0.7984  0.9852
 4727TIP3    H235741   3.966   3.140   1.696 -2.1880 -0.5867 -1.7732
 4728TIP3   OH235742   2.136   5.388   3.676  0.1772  0.0820  0.5494
 4728TIP3    H135743   2.107   5.422   3.760 -2.2219  1.6403 -0.8014
 4728TIP3    H235744   2.074   5.318   3.656  0.6667 -0.2120  0.0299
 4729TIP3   OH235745   2.138   6.899   2.399 -0.3082 -0.6834 -0.7886
 4729TIP3    H135746   2.112   6.807   2.398  0.5706 -0.9733  0.7299
 4729TIP3    H235747   2.209   6.905   2.336  0.8419 -1.4504  0.3902
 4730TIP3   OH235748   6.234   5.734   0.645  0.3829 -0.3554  0.2332
 4730TIP3    H135749   6.214   5.790   0.569 -0.5998  1.2661  1.6119
 4730TIP3    H235750   6.329   5.727   0.645  0.5188  1.0498 -0.2173
 4731TIP3   OH235751   1.830   6.301   2.234  0.0033 -0.4075  0.0859
 4731TIP3    H135752   1.911   6.281   2.187  0.0951  0.9899 -0.4049
 4731TIP3    H235753   1.765   6.242   2.195  0.9589 -2.3191  1.2381
 4732TIP3   OH235754   5.564   0.798   0.915  0.2660  0.3491 -0.1332
 4732TIP3    H135755   5.658   0.783   0.927  0.0460 -0.3864  0.7716
 4732TIP3    H235756   5.553   0.892   0.922  1.0657  0.5537 -1.2927
 4733TIP3   OH235757   4.072   0.978   3.871 -0.0132 -0.1616  0.2735
 4733TIP3    H135758   4.154   1.001   3.915 -0.8035  1.4507  0.9934
 4733TIP3    H235759   4.077   0.883   3.859  1.4080 -0.2703  1.4229
 4734TIP3   OH235760   1.116   4.985   3.715 -0.7488  0.1605  0.1678
 4734TIP3    H135761   1.064   5.051   3.760 -0.4907  2.2129 -2.3310
 4734TIP3    H235762   1.099   5.000   3.622  1.1113 -1.8146 -0.5818
 4735TIP3   OH235763   4.024   0.709   4.165 -0.0969  0.3047  0.0601
 4735TIP3    H135764   4.087   0.637   4.161 -0.2322  0.1669  0.4271
 4735TIP3    H235765   4.042   0.752   4.248 -1.8465 -0.9764  1.1804
 4736TIP3   OH235766   2.297   3.737   2.439  0.1043 -0.3374 -0.6072
 4736TIP3    H135767   2.348   3.816   2.457  0.7736 -0.8569 -0.1635
 4736TIP3    H235768   2.361   3.674   2.406 -0.5084 -0.5425 -1.4224
 4737TIP3   OH235769   2.874   4.013   3.963  0.3206 -0.7388  0.1297
 4737TIP3    H135770   2.812   3.984   4.029  1.2642 -1.0871  0.8924
 4737TIP3    H235771   2.956   3.968   3.985  0.0533 -3.0087 -2.8124
 4738TIP3   OH235772   2.285   0.858   1.925 -0.1456 -0.4016  0.1070
 4738TIP3    H135773   2.366   0.901   1.898 -1.4249  2.6836  0.8018
 4738TIP3    H235774   2.300   0.835   2.017 -0.3193  0.9940  0.5093
 4739TIP3   OH235775   0.659   4.364   1.326 -0.1083 -0.0331 -0.1943
 4739TIP3    H135776   0.737   4.377   1.380 -0.5638 -1.8816  1.0358
 4739TIP3    H235777   0.684   4.393   1.239  1.7706 -0.0846  0.2902
 4740TIP3   OH235778   6.042   5.706   2.677  0.0761 -0.2840 -0.0437
 4740TIP3    H135779   6.111   5.734   2.617  1.0272 -0.7044  0.8211
 4740TIP3    H235780   6.077   5.723   2.764 -1.6690  1.2342  0.4337
 4741TIP3   OH235781   0.037   0.959   2.531 -0.2888 -0.2239  0.0474
 4741TIP3    H135782   0.117   0.954   2.478  0.2339 -0.7193  0.8657
 4741TIP3    H235783  -0.034   0.967   2.466  0.3680 -0.3658 -0.7093
 4742TIP3   OH235784   5.597   6.401   8.401  0.0649  0.0886 -0.1708
 4742TIP3    H135785   5.669   6.451   8.439  1.7263 -0.8810 -1.8723
 4742TIP3    H235786   5.597   6.319   8.449  1.8872 -0.9616 -1.7747
 4743TIP3   OH235787   0.464   2.529   1.962  0.3386 -0.9581 -0.6264
 4743TIP3    H135788   0.538   2.589   1.969  0.9583 -1.8229  0.4606
 4743TIP3    H235789   0.409   2.567   1.893  0.2302  1.3574  0.6428
 4744TIP3   OH235790   1.701   5.112   4.397 -0.1879  0.3248  0.8207
 4744TIP3    H135791   1.778   5.157   4.433  1.2921  0.2063 -1.9494
 4744TIP3    H235792   1.699   5.139   4.306 -2.1123 -1.5046  0.2712
 4745TIP3   OH235793   3.639   0.644   8.214 -0.1147 -0.0490  0.4816
 4745TIP3    H135794   3.579   0.624   8.285 -0.1895 -1.1855  0.1183
 4745TIP3    H235795   3.678   0.559   8.190  0.9456  0.5208  0.0955
 4746TIP3   OH235796   0.717   4.400   0.345  0.3259 -0.3160  0.8020
 4746TIP3    H135797   0.634   4.422   0.302 -0.4601 -2.4088  1.1029
 4746TIP3    H235798   0.779   4.389   0.273  0.2481  0.8329  0.5427
 4747TIP3   OH235799   2.358   3.683   1.211 -0.2473  0.5630  0.2661
 4747TIP3    H135800   2.331   3.632   1.134 -0.7987  1.0751  0.1118
 4747TIP3    H235801   2.384   3.617   1.276  1.1082  0.1366 -0.6606
 4748TIP3   OH235802   2.745   4.558   2.924 -0.0425  0.3976  0.2950
 4748TIP3    H135803   2.684   4.581   2.994  1.0329 -1.0636  1.8071
 4748TIP3    H235804   2.830   4.585   2.957  0.6873 -1.6475  0.2674
 4749TIP3   OH235805   0.504   2.635   8.397 -0.0722 -0.6875 -0.0342
 4749TIP3    H135806   0.452   2.670   8.470  1.7763 -1.0172  1.5064
 4749TIP3    H235807   0.505   2.706   8.333 -1.7619 -0.3949  0.1962
 4750TIP3   OH235808   0.117   2.252   0.677  0.4529 -0.0742  0.3102
 4750TIP3    H135809   0.177   2.204   0.733 -0.4865 -0.8592  0.6842
 4750TIP3    H235810   0.163   2.332   0.654  0.2786  1.0693  3.5096
 4751TIP3   OH235811   6.780   1.469   0.524 -0.4086 -0.4171  0.1762
 4751TIP3    H135812   6.699   1.484   0.573 -0.1103  0.2861  0.4769
 4751TIP3    H235813   6.761   1.395   0.468 -1.5649  0.2991 -0.4187
 4752TIP3   OH235814   5.464   3.740   1.169  0.5167 -0.3073  0.1421
 4752TIP3    H135815   5.482   3.698   1.085 -1.4969 -1.6772  0.3104
 4752TIP3    H235816   5.461   3.668   1.232  1.9280  0.6841  1.4266
 4753TIP3   OH235817   2.611   0.186   2.256  0.0474  0.2752 -0.6248
 4753TIP3    H135818   2.687   0.238   2.281  0.2886  0.5995 -1.9704
 4753TIP3    H235819   2.578   0.151   2.339  1.0844  0.9079  0.0808
 4754TIP3   OH235820   2.403   2.640   2.474  0.3346 -0.3629 -0.3295
 4754TIP3    H135821   2.308   2.642   2.489  0.5333  0.2182  0.9831
 4754TIP3    H235822   2.428   2.550   2.493  0.3713  0.0336  1.8035
 4755TIP3   OH235823   0.345   1.002   3.643 -0.1098  0.8932  0.3238
 4755TIP3    H135824   0.265   1.054   3.637 -0.5218  0.0958 -1.8359
 4755TIP3    H235825   0.382   1.003   3.555 -0.3479 -2.7363  0.0280
 4756TIP3   OH235826   6.069   1.353   0.001  0.2580  0.2585 -0.3952
 4756TIP3    H135827   6.070   1.266  -0.040 -0.6865  0.0952 -0.1030
 4756TIP3    H235828   6.159   1.385  -0.009  0.4276 -0.4192 -1.2050
 4757TIP3   OH235829   6.910   5.339   1.562  0.1446  0.0883  0.0822
 4757TIP3    H135830   6.920   5.408   1.628  0.9554 -0.0992  0.1579
 4757TIP3    H235831   6.857   5.272   1.605  2.8582 -1.2765  1.5440
 4758TIP3   OH235832   4.411   2.331   8.266  0.3594 -0.1665  0.1318
 4758TIP3    H135833   4.467   2.387   8.213 -0.3418  0.7600  0.3359
 4758TIP3    H235834   4.471   2.270   8.308  1.1521  0.4431 -0.0827
 4759TIP3   OH235835   0.527   5.895   1.146  0.0241 -0.0530  0.0473
 4759TIP3    H135836   0.567   5.923   1.063 -1.7648  0.4535 -0.6781
 4759TIP3    H235837   0.590   5.923   1.213  1.3907 -0.2559 -1.1022
 4760TIP3   OH235838   1.094   6.455   1.189  0.4646  0.5803 -0.7291
 4760TIP3    H135839   1.034   6.518   1.149 -0.4642  1.2974  1.6404
 4760TIP3    H235840   1.160   6.508   1.233  1.5061 -0.1782 -1.3288
 4761TIP3   OH235841   2.945   5.422   2.710 -0.3928 -0.2080 -0.3369
 4761TIP3    H135842   2.872   5.439   2.771  1.4751 -0.9958  2.2799
 4761TIP3    H235843   2.945   5.498   2.652 -3.3703 -0.2635 -0.5630
 4762TIP3   OH235844   3.490   2.793   0.173 -0.2812  0.4763  0.5648
 4762TIP3    H135845   3.555   2.812   0.106 -0.7618  3.1464  0.7584
 4762TIP3    H235846   3.529   2.824   0.254 -0.1939 -1.6322  1.3947
 4763TIP3   OH235847   3.957   1.989   0.574  0.0723 -1.0517  0.0536
 4763TIP3    H135848   4.039   2.024   0.539 -0.3316 -0.4945 -0.3718
 4763TIP3    H235849   3.920   1.939   0.502 -1.7864  1.8185 -1.1693
 4764TIP3   OH235850   3.190   1.270   0.991 -0.2570  0.3506 -0.3684
 4764TIP3    H135851   3.146   1.296   1.072 -0.2215 -0.6631 -0.0134
 4764TIP3    H235852   3.172   1.177   0.983 -2.7607  0.9198 -3.0905
 4765TIP3   OH235853   2.873   0.956   1.026 -0.1047  0.4384  0.0130
 4765TIP3    H135854   2.814   1.031   1.023 -2.3425 -1.2465 -1.2405
 4765TIP3    H235855   2.878   0.932   1.118 -2.2365  0.0787  0.0899
 4766TIP3   OH235856   1.712   3.180   2.236  0.5399  0.0947  0.0063
 4766TIP3    H135857   1.703   3.087   2.216  1.6974  0.3783 -2.0851
 4766TIP3    H235858   1.744   3.183   2.326  1.9759 -1.6065 -0.4121
 4767TIP3   OH235859   0.815   3.644   1.985  0.1554 -0.1554 -0.2285
 4767TIP3    H135860   0.785   3.572   1.930 -1.4555 -0.0022  0.3858
 4767TIP3    H235861   0.839   3.713   1.923  0.5629 -0.7798 -0.7821
 4768TIP3   OH235862   0.281   2.701   0.472 -0.4450 -0.4479  0.0564
 4768TIP3    H135863   0.233   2.767   0.423 -0.8482  0.7160  1.9094
 4768TIP3    H235864   0.368   2.739   0.484  0.5308 -1.8825 -1.9645
 4769TIP3   OH235865   5.121   4.115   0.766  0.6902  0.0319  0.2822
 4769TIP3    H135866   5.210   4.147   0.755  0.1801  0.8598 -2.0194
 4769TIP3    H235867   5.084   4.114   0.678 -1.5732 -0.3282  1.1471
 4770TIP3   OH235868   3.504   4.796   0.240  0.2966  0.0583 -0.3014
 4770TIP3    H135869   3.423   4.777   0.193 -0.7213 -0.4620  1.5715
 4770TIP3    H235870   3.574   4.767   0.181 -0.7392  1.8319 -2.5867
 4771TIP3   OH235871   4.558   2.529   3.561 -0.8711 -0.3146  0.5432
 4771TIP3    H135872   4.559   2.522   3.465 -1.5038 -1.0674  0.5787
 4771TIP3    H235873   4.606   2.451   3.590 -1.0328 -0.3014  0.8423
 4772TIP3   OH235874   5.382   4.028   2.018 -0.1919 -0.1410  0.3436
 4772TIP3    H135875   5.342   3.941   2.013  1.6087 -0.9645 -0.9154
 4772TIP3    H235876   5.411   4.046   1.928  1.6021  0.6751  1.0327
 4773TIP3   OH235877   5.874   0.783   0.052 -0.4366  0.0514  1.0183
 4773TIP3    H135878   5.843   0.717  -0.010  0.1107  0.9606 -0.2510
 4773TIP3    H235879   5.956   0.815   0.015 -1.5368  2.6800  0.6444
 4774TIP3   OH235880   2.706   6.451   3.069 -0.0708  0.1168 -0.5507
 4774TIP3    H135881   2.763   6.383   3.106 -0.8993 -0.3003 -0.0074
 4774TIP3    H235882   2.641   6.403   3.017 -3.0823 -0.0001  2.9088
 4775TIP3   OH235883   2.868   4.588   0.694  0.0516  0.2804 -0.2423
 4775TIP3    H135884   2.835   4.514   0.745 -0.4917 -0.6751 -1.8979
 4775TIP3    H235885   2.960   4.567   0.679  0.3726  0.8698  0.8389
 4776TIP3   OH235886   5.458   3.579   0.157  0.0822  0.0355 -0.0997
 4776TIP3    H135887   5.514   3.506   0.183 -0.1088 -0.0913 -0.0350
 4776TIP3    H235888   5.427   3.557   0.070  0.4809  0.3156 -0.3135
 4777TIP3   OH235889   2.084   2.613   3.924 -0.2579 -0.5182  0.3764
 4777TIP3    H135890   2.014   2.632   3.861  0.4897 -0.7757 -0.5586
 4777TIP3    H235891   2.050   2.644   4.008 -1.6851 -1.0851  0.0338
 4778TIP3   OH235892   1.003   4.492   0.981  0.2256 -0.0517  0.3208
 4778TIP3    H135893   1.001   4.555   0.909 -1.5932  1.0418  1.2547
 4778TIP3    H235894   0.930   4.432   0.962 -0.2097  0.1940  1.1821
 4779TIP3   OH235895   3.611   6.705   2.020 -0.4998 -0.1634  0.5837
 4779TIP3    H135896   3.669   6.732   2.091  0.1611  1.4161 -0.4904
 4779TIP3    H235897   3.669   6.663   1.956 -0.9775 -0.9871  0.6850
 4780TIP3   OH235898   6.258   4.857   1.738  0.0956  0.4919 -0.3530
 4780TIP3    H135899   6.273   4.812   1.822  0.6115  0.0982 -0.6456
 4780TIP3    H235900   6.163   4.867   1.732  0.0954  1.1537  0.6007
 4781TIP3   OH235901   4.365   1.531   0.224 -0.0543  0.5029  0.7356
 4781TIP3    H135902   4.396   1.620   0.205 -1.2620  0.7400 -0.2466
 4781TIP3    H235903   4.397   1.513   0.312  0.8494  1.6213  0.6567
 4782TIP3   OH235904   6.787   5.007   2.974  0.2403 -0.2562 -0.2083
 4782TIP3    H135905   6.703   4.981   2.936 -0.2989  0.8189  0.2184
 4782TIP3    H235906   6.812   4.934   3.031 -0.5219 -0.4747 -0.1477
 4783TIP3   OH235907   4.834   2.729   1.570  0.6547  0.0638 -0.5347
 4783TIP3    H135908   4.777   2.679   1.513  0.9997 -0.9000 -0.0602
 4783TIP3    H235909   4.910   2.751   1.516 -0.6414  2.4231 -1.5474
 4784TIP3   OH235910   5.493   2.634   2.243 -0.1774  0.5715  0.4290
 4784TIP3    H135911   5.588   2.649   2.238  0.1076 -1.3850 -2.4377
 4784TIP3    H235912   5.485   2.549   2.285 -0.7572  1.0634  1.3460
 4785TIP3   OH235913   5.662   0.049   3.190 -0.4791 -0.0299 -0.0458
 4785TIP3    H135914   5.700   0.008   3.268 -1.2187  0.6518  0.7026
 4785TIP3    H235915   5.603   0.116   3.225 -0.3768  0.6947 -1.2093
 4786TIP3   OH235916   2.401   5.537   1.779  0.3199 -0.0003 -0.1286
 4786TIP3    H135917   2.485   5.493   1.769 -0.0604 -0.7987  0.1051
 4786TIP3    H235918   2.364   5.500   1.859 -0.1733  0.4806 -0.1293
 4787TIP3   OH235919   2.348   1.677   0.459  0.0292  0.2744  0.2263
 4787TIP3    H135920   2.301   1.664   0.377 -0.4218 -0.7677  0.6332
 4787TIP3    H235921   2.325   1.766   0.486 -1.5510 -0.1114  0.2860
 4788TIP3   OH235922   5.811   2.295   1.447 -0.4277  0.0328  0.3085
 4788TIP3    H135923   5.821   2.388   1.425 -1.7337  0.2686  0.5933
 4788TIP3    H235924   5.865   2.283   1.525 -0.4541  0.6307  0.4283
 4789TIP3   OH235925   2.782   6.604   0.501  0.2051  0.3084 -0.1272
 4789TIP3    H135926   2.824   6.650   0.574  1.0437  1.7025 -1.4395
 4789TIP3    H235927   2.804   6.656   0.424  1.0308 -2.1878 -1.6843
 4790TIP3   OH235928   5.439   5.487   3.432 -0.0855  0.2742  0.5728
 4790TIP3    H135929   5.354   5.446   3.446 -0.1473  0.7867  1.9250
 4790TIP3    H235930   5.503   5.417   3.446 -0.2514  0.2056  1.0054
 4791TIP3   OH235931   0.679   6.134   1.870 -0.3270 -0.2055  0.4525
 4791TIP3    H135932   0.652   6.043   1.875 -1.2841  0.1006  1.2245
 4791TIP3    H235933   0.754   6.134   1.810 -2.4424 -1.0104 -2.4376
 4792TIP3   OH235934   5.766   0.019   3.741 -0.5011 -0.2731 -0.3544
 4792TIP3    H135935   5.798   0.064   3.819 -2.1681  2.5266 -1.1505
 4792TIP3    H235936   5.821   0.052   3.670 -1.3784  0.1062 -0.8749
 4793TIP3   OH235937   1.489   0.859   3.838 -0.4673 -0.1932 -0.0679
 4793TIP3    H135938   1.542   0.779   3.836  0.8386  0.6627 -2.1870
 4793TIP3    H235939   1.454   0.866   3.749  0.2575  2.0926 -0.2202
 4794TIP3   OH235940   6.594   4.330   0.940 -0.0597  0.5959  0.0353
 4794TIP3    H135941   6.509   4.299   0.909  1.1707 -2.2260 -0.9606
 4794TIP3    H235942   6.651   4.321   0.864  1.9866 -1.7019  1.6562
 4795TIP3   OH235943   2.436   6.282   3.122  0.2711 -0.7754  0.0353
 4795TIP3    H135944   2.406   6.369   3.149 -1.6314 -1.8374  1.5591
 4795TIP3    H235945   2.416   6.279   3.028  0.9007  0.6011 -0.1772
 4796TIP3   OH235946   2.955   3.368   3.602  0.3016  0.0010  0.0729
 4796TIP3    H135947   2.925   3.455   3.574 -0.5231  0.5923  2.5464
 4796TIP3    H235948   2.899   3.346   3.677  1.6336 -1.9050  0.5907
 4797TIP3   OH235949   5.467   5.900   0.980 -0.5471 -0.2934  0.1113
 4797TIP3    H135950   5.438   5.810   0.964 -2.1783  0.3647 -0.8774
 4797TIP3    H235951   5.487   5.935   0.893  0.4199  0.2120  0.5166
 4798TIP3   OH235952   1.687   5.273   2.667 -0.1249 -0.2319 -0.1786
 4798TIP3    H135953   1.695   5.212   2.594  0.5724 -0.5370  0.1457
 4798TIP3    H235954   1.717   5.223   2.743 -3.2751 -0.8249  0.8165
 4799TIP3   OH235955   0.213   4.965   2.867 -0.6163 -0.4869 -0.0534
 4799TIP3    H135956   0.275   4.928   2.805 -0.8543  0.5412 -0.9434
 4799TIP3    H235957   0.266   5.022   2.923 -0.4191 -1.3295  0.6309
 4800TIP3   OH235958   1.088   2.770   2.192  0.2340 -0.6486  0.1945
 4800TIP3    H135959   1.031   2.747   2.265 -1.3068 -0.0544 -0.7815
 4800TIP3    H235960   1.108   2.863   2.205 -0.6521 -0.3437 -0.5024
 4801TIP3   OH235961   1.921   0.320   3.691 -0.8539 -0.7412  0.0327
 4801TIP3    H135962   2.006   0.323   3.735  0.0990 -2.3054 -1.5727
 4801TIP3    H235963   1.868   0.262   3.745 -0.1027 -1.6684 -0.2068
 4802TIP3   OH235964   4.221   4.743   4.431 -0.5164  0.0520 -0.2589
 4802TIP3    H135965   4.225   4.825   4.479  1.0344  0.1357 -0.4720
 4802TIP3    H235966   4.240   4.767   4.340  2.8056 -0.8003  0.0790
 4803TIP3   OH235967   5.877   5.651   8.179 -0.1297 -0.2319  0.0524
 4803TIP3    H135968   5.943   5.679   8.115  0.0815 -1.3581 -0.2423
 4803TIP3    H235969   5.797   5.698   8.153  0.7655  2.0649  1.1010
 4804TIP3   OH235970   5.404   1.609   3.476  0.7460 -0.0972 -0.4183
 4804TIP3    H135971   5.495   1.604   3.445  0.6020  1.1295 -1.1215
 4804TIP3    H235972   5.397   1.697   3.514  0.2842 -0.7622  1.0973
 4805TIP3   OH235973   2.307   0.993   2.736  0.1313 -0.1576  0.7039
 4805TIP3    H135974   2.348   0.951   2.811 -0.5758  2.0523  2.4613
 4805TIP3    H235975   2.231   0.939   2.716 -1.0683  0.4381  3.2459
 4806TIP3   OH235976   4.251   4.131   3.327  0.1324 -0.0302  0.1968
 4806TIP3    H135977   4.284   4.071   3.260  4.2984  1.6104  0.4471
 4806TIP3    H235978   4.284   4.095   3.410  0.8784  1.3790  0.5614
 4807TIP3   OH235979   2.354   6.257   1.174 -0.2545 -0.0293  0.3809
 4807TIP3    H135980   2.404   6.295   1.246  1.6182 -0.8717 -0.4075
 4807TIP3    H235981   2.290   6.201   1.217 -0.1533  0.6130  1.4221
 4808TIP3   OH235982   0.522   3.353   8.114  0.0360 -0.2196 -0.2200
 4808TIP3    H135983   0.476   3.426   8.073 -1.1331 -1.6956 -1.6961
 4808TIP3    H235984   0.453   3.293   8.141  0.6794  0.7787  4.4953
 4809TIP3   OH235985   5.400   3.874   3.862  0.8766 -0.3975  0.1378
 4809TIP3    H135986   5.321   3.881   3.915  0.7135  0.8773 -0.2194
 4809TIP3    H235987   5.434   3.964   3.858  0.8429 -0.4204 -1.9255
 4810TIP3   OH235988   1.526   5.841   0.817 -0.2710  0.5242 -0.3121
 4810TIP3    H135989   1.534   5.935   0.804  1.0696  0.3409 -1.0153
 4810TIP3    H235990   1.442   5.818   0.777 -2.0180  1.7805  2.3463
 4811TIP3   OH235991   1.959   5.091   0.433  0.3752 -0.0412  0.2383
 4811TIP3    H135992   1.948   5.156   0.503 -1.1451  0.8480 -0.7682
 4811TIP3    H235993   1.891   5.026   0.450 -0.4266  0.5113 -0.7246
 4812TIP3   OH235994   2.735   4.303   2.795  0.1047  0.6539 -0.1188
 4812TIP3    H135995   2.767   4.393   2.803  0.7834  0.2452  3.8900
 4812TIP3    H235996   2.812   4.253   2.766  0.4103  1.0497 -0.0039
 4813TIP3   OH235997   4.144   6.636   0.049 -0.2858 -0.3611 -0.5782
 4813TIP3    H135998   4.230   6.653   0.013  0.4055  3.1593  2.1797
 4813TIP3    H235999   4.083   6.653  -0.023  1.1935  1.0430 -1.5513
 4814TIP3   OH236000   0.072   5.114   0.980  0.3173 -0.0112  0.3268
 4814TIP3    H136001   0.086   5.065   0.900  1.9940  0.3883  0.3348
 4814TIP3    H236002   0.103   5.202   0.960 -2.9494  1.2313  0.1964
 4815TIP3   OH236003   4.522   1.493   4.163  0.0510 -0.3194 -0.2147
 4815TIP3    H136004   4.507   1.565   4.225  0.0580 -2.1915  2.1355
 4815TIP3    H236005   4.569   1.427   4.214  2.0680 -1.1409 -2.9010
 4816TIP3   OH236006   1.441   3.569   3.712  0.1896 -0.0450  0.5063
 4816TIP3    H136007   1.478   3.571   3.624  0.8432 -0.2436  0.7693
 4816TIP3    H236008   1.496   3.507   3.760 -1.7092 -1.9865  0.3704
 4817TIP3   OH236009   5.703   6.554   1.158 -0.3602 -0.7350 -0.2284
 4817TIP3    H136010   5.728   6.461   1.153 -2.5494 -1.3319 -1.4582
 4817TIP3    H236011   5.612   6.556   1.128 -0.2785  1.8829 -0.5213
 4818TIP3   OH236012   5.689   2.593   0.624 -0.4119  0.2784  0.3783
 4818TIP3    H136013   5.710   2.515   0.573  0.9053 -0.0927  1.4331
 4818TIP3    H236014   5.682   2.663   0.559  3.2352  0.2373 -0.2335
 4819TIP3   OH236015   6.344   6.369   1.792  0.4464 -0.2666 -0.2656
 4819TIP3    H136016   6.416   6.380   1.853 -0.9733  0.6828  1.3262
 4819TIP3    H236017   6.358   6.438   1.727  0.1089  0.9958  0.9565
 4820TIP3   OH236018   5.916   2.838   0.707 -0.3645 -0.0038  0.2657
 4820TIP3    H136019   5.918   2.746   0.734 -1.1074  0.2372  1.1864
 4820TIP3    H236020   6.005   2.856   0.677 -0.2835 -1.1084 -0.2221
 4821TIP3   OH236021   1.929   6.512   0.920 -0.3947  0.0724  0.2950
 4821TIP3    H136022   1.982   6.438   0.950  0.0734  0.7242  1.1448
 4821TIP3    H236023   1.976   6.545   0.843  0.0566  0.2196  0.6302
 4822TIP3   OH236024   5.958   0.885   3.878  0.2468  0.0466  0.0846
 4822TIP3    H136025   5.975   0.916   3.789  0.1187  1.4629  0.5237
 4822TIP3    H236026   5.867   0.909   3.895  0.2111 -0.3971  0.5361
 4823TIP3   OH236027   1.517   4.894   0.834 -0.1216 -0.2675 -0.2400
 4823TIP3    H136028   1.449   4.952   0.866  0.5285 -0.3245  1.3082
 4823TIP3    H236029   1.551   4.938   0.756 -1.2719  0.2156 -0.4935
 4824TIP3   OH236030   3.228   6.802   3.892 -0.6738 -0.3247  0.4114
 4824TIP3    H136031   3.148   6.817   3.943 -2.1085 -1.2977 -1.4497
 4824TIP3    H236032   3.211   6.721   3.844  1.0500 -0.0336 -0.7805
 4825TIP3   OH236033   5.539   1.154   2.693  0.7227  0.8669 -0.3229
 4825TIP3    H136034   5.500   1.101   2.763 -1.3039  1.7230 -0.7424
 4825TIP3    H236035   5.626   1.115   2.679  0.4634 -0.4573  1.3955
 4826TIP3   OH236036   5.267   1.147   0.906  0.4998  0.2346 -0.1538
 4826TIP3    H136037   5.299   1.219   0.851 -1.0273 -0.5193 -2.1389
 4826TIP3    H236038   5.211   1.190   0.971 -1.0546  0.8903 -1.8099
 4827TIP3   OH236039   1.704   5.617   3.742  0.0430 -0.0109 -0.1466
 4827TIP3    H136040   1.684   5.669   3.664 -1.4786 -0.0458  0.1958
 4827TIP3    H236041   1.710   5.682   3.813 -1.3262 -0.2345  0.1857
 4828TIP3   OH236042   0.820   1.585   0.488 -0.2051 -0.1238  0.2487
 4828TIP3    H136043   0.752   1.518   0.491  0.8135 -1.3297 -1.3862
 4828TIP3    H236044   0.807   1.628   0.404  0.1983  0.5660  0.5348
 4829TIP3   OH236045   1.159   3.645   1.908 -0.7808  0.0742 -0.3349
 4829TIP3    H136046   1.204   3.562   1.897 -0.5482  0.1240  0.2176
 4829TIP3    H236047   1.142   3.675   1.818 -0.5855 -0.4121 -0.5379
 4830TIP3   OH236048   2.541   3.618   2.026  0.0418 -0.0956  0.0055
 4830TIP3    H136049   2.551   3.714   2.028 -0.9707  0.0786 -1.6158
 4830TIP3    H236050   2.558   3.591   2.117 -1.9676  1.8852  1.0962
 4831TIP3   OH236051   5.083   2.351   3.623  0.7957 -0.3463  0.3452
 4831TIP3    H136052   5.131   2.423   3.582 -1.8009  0.8585 -0.8179
 4831TIP3    H236053   5.102   2.275   3.568  2.4071 -0.2669  0.7348
 4832TIP3   OH236054   5.353   4.958   3.921  0.3517  0.2299  0.0788
 4832TIP3    H136055   5.288   4.980   3.987  0.6382  1.1117  0.0899
 4832TIP3    H236056   5.437   4.968   3.965  0.5080 -0.8073  0.0392
 4833TIP3   OH236057   4.702   3.667   0.292  0.5299  0.5922 -0.0522
 4833TIP3    H136058   4.788   3.707   0.308  0.9919 -0.2125 -0.4481
 4833TIP3    H236059   4.656   3.731   0.238  1.7166  0.1190 -1.7276
 4834TIP3   OH236060   4.311   3.087   0.517  0.1163  0.1045 -0.1459
 4834TIP3    H136061   4.319   2.992   0.521  2.0857  0.2246 -0.0073
 4834TIP3    H236062   4.256   3.110   0.591 -1.3669 -0.9859 -0.8635
 4835TIP3   OH236063   4.061   0.460   3.482  1.0184 -0.2003 -0.0543
 4835TIP3    H136064   4.152   0.435   3.469  1.6431  0.4126  2.4850
 4835TIP3    H236065   4.028   0.479   3.394  3.1333 -1.0508 -1.0976
 4836TIP3   OH236066   6.383   4.028   1.597  0.0134 -0.3131 -0.6118
 4836TIP3    H136067   6.291   4.043   1.577 -0.3478  0.1467  1.2326
 4836TIP3    H236068   6.401   3.940   1.563 -1.4797 -0.9478  0.1469
 4837TIP3   OH236069   3.866   2.511   0.647  0.5955  0.1483  0.0594
 4837TIP3    H136070   3.888   2.469   0.563  1.3170  1.9822 -0.7326
 4837TIP3    H236071   3.930   2.476   0.709 -1.2209 -2.8243  0.4498
 4838TIP3   OH236072   2.616   0.111   1.153  0.0729 -0.5338  0.2367
 4838TIP3    H136073   2.689   0.058   1.122 -0.0571 -0.5532 -0.0419
 4838TIP3    H236074   2.539   0.071   1.113  0.0679  0.4764 -0.8350
 4839TIP3   OH236075   2.290   5.492   4.387 -0.3073  0.5612  0.2578
 4839TIP3    H136076   2.355   5.468   4.454 -1.3689 -0.5329  0.9250
 4839TIP3    H236077   2.342   5.533   4.318  0.8682  1.5015  1.6157
 4840TIP3   OH236078   1.548   4.039   2.668 -0.4928  0.0310  0.5366
 4840TIP3    H136079   1.554   3.948   2.638 -0.5059  0.1793  0.0668
 4840TIP3    H236080   1.636   4.074   2.657 -0.9374  0.6976 -1.3830
 4841TIP3   OH236081   5.288   0.412   1.812  0.1186  0.2515  0.1262
 4841TIP3    H136082   5.245   0.344   1.863 -3.3698  2.1260  0.0004
 4841TIP3    H236083   5.335   0.465   1.877  0.6338 -0.7111  0.5550
 4842TIP3   OH236084   0.697   3.171   4.385 -0.4188 -0.2529  0.7077
 4842TIP3    H136085   0.712   3.211   4.300 -0.6608 -0.4460  0.5751
 4842TIP3    H236086   0.641   3.234   4.432 -2.3762 -1.2421 -0.1648
 4843TIP3   OH236087   0.613   6.261   0.915 -0.3579  0.0044  0.0316
 4843TIP3    H136088   0.576   6.249   1.002  1.5449 -0.8199  0.7844
 4843TIP3    H236089   0.615   6.356   0.903 -1.5274  0.0942  0.4742
 4844TIP3   OH236090   0.705   1.526   4.598  0.0794 -0.4774 -0.4742
 4844TIP3    H136091   0.729   1.545   4.689  1.4179 -0.3761 -0.8373
 4844TIP3    H236092   0.692   1.612   4.558 -0.5956 -0.5240 -0.3711
 4845TIP3   OH236093   6.424   5.817   3.209 -0.0592  0.1151 -0.2621
 4845TIP3    H136094   6.465   5.731   3.204  0.7800  0.5425 -0.7718
 4845TIP3    H236095   6.342   5.808   3.159  1.0582  0.1914 -2.2070
 4846TIP3   OH236096   5.810   3.678   3.348 -0.0675  0.1442 -0.0185
 4846TIP3    H136097   5.831   3.644   3.261 -1.2870  1.4684 -0.8788
 4846TIP3    H236098   5.714   3.682   3.350 -0.1707 -1.4419  2.0421
 4847TIP3   OH236099   4.846   5.591   0.072 -0.0011 -0.3934 -0.5938
 4847TIP3    H136100   4.836   5.579   0.166 -0.4900 -0.2034 -0.6166
 4847TIP3    H236101   4.852   5.503   0.036  0.2656 -0.4626 -0.3736
 4848TIP3   OH236102   5.464   5.561   4.196 -0.4588  0.1747  0.0439
 4848TIP3    H136103   5.393   5.582   4.135  0.3346  2.7330 -0.1173
 4848TIP3    H236104   5.544   5.575   4.146  0.3484 -4.2457 -0.2959
 4849TIP3   OH236105   3.861   4.931   1.960  0.2340 -0.3729 -0.4675
 4849TIP3    H136106   3.816   4.847   1.969  0.1903 -0.4137 -1.0402
 4849TIP3    H236107   3.837   4.980   2.039  0.5972 -1.0550  0.0734
 4850TIP3   OH236108   3.101   4.769   3.608  0.0088 -0.3972 -1.0088
 4850TIP3    H136109   3.060   4.743   3.691  0.3224 -3.0430 -1.6092
 4850TIP3    H236110   3.151   4.848   3.630 -0.6580 -0.5037  1.1040
 4851TIP3   OH236111   0.483   5.758   4.016 -0.5128 -0.2780 -0.3054
 4851TIP3    H136112   0.453   5.829   4.072 -0.0511  0.0492 -0.4726
 4851TIP3    H236113   0.430   5.767   3.937 -0.0222  0.2702 -0.5805
 4852TIP3   OH236114   6.070   1.240   0.526  0.5504  0.2103 -0.0374
 4852TIP3    H136115   5.982   1.266   0.498  0.6087  1.4853  0.8581
 4852TIP3    H236116   6.127   1.278   0.460  0.5294  0.9948  0.3842
 4853TIP3   OH236117   0.696   1.074   2.957 -0.5596  0.4944  0.5192
 4853TIP3    H136118   0.610   1.116   2.954 -0.8754 -0.1787 -1.4329
 4853TIP3    H236119   0.722   1.067   2.865  3.1518  3.7159  1.0574
 4854TIP3   OH236120   6.041   5.427   8.192  0.4292  0.0085 -0.0657
 4854TIP3    H136121   5.991   5.507   8.205  0.8158  0.1143  0.9437
 4854TIP3    H236122   6.118   5.438   8.249  0.1503 -1.3523  0.6256
 4855TIP3   OH236123   6.800   1.178   0.435  0.4864 -0.4968  0.5144
 4855TIP3    H136124   6.731   1.177   0.370 -0.5336 -0.7875  1.5665
 4855TIP3    H236125   6.880   1.156   0.386  0.0664  1.0187 -0.9319
 4856TIP3   OH236126   3.606   2.902   2.096 -0.1978  0.0388  0.3298
 4856TIP3    H136127   3.547   2.939   2.030 -2.2519 -1.0270  1.4869
 4856TIP3    H236128   3.551   2.890   2.173  0.9420 -3.0398  0.7997
 4857TIP3   OH236129   5.737   5.101   2.893  0.0542  0.8220 -0.4404
 4857TIP3    H136130   5.708   5.152   2.817 -1.6621 -0.3280 -0.6095
 4857TIP3    H236131   5.670   5.033   2.903  2.4407 -1.6687 -0.4784
 4858TIP3   OH236132   1.993   6.747   2.103 -0.2444  0.2255 -0.3789
 4858TIP3    H136133   2.010   6.800   2.024 -1.6298  0.2386 -0.6941
 4858TIP3    H236134   1.966   6.811   2.169  1.5613  0.3007  0.3670
 4859TIP3   OH236135   4.946   5.962   0.584 -0.4209  0.6514  0.1854
 4859TIP3    H136136   4.916   5.912   0.661  1.0483  0.7384  0.8551
 4859TIP3    H236137   4.879   6.028   0.570 -0.5953  0.7871  1.5627
 4860TIP3   OH236138   0.495   0.549   0.798  0.1118 -0.3415  0.2517
 4860TIP3    H136139   0.480   0.589   0.713 -0.6246 -0.9078  0.1014
 4860TIP3    H236140   0.408   0.526   0.830  0.2047  1.3749  1.9384
 4861TIP3   OH236141   2.932   1.726   3.396 -0.1084  0.3314  0.4845
 4861TIP3    H136142   3.005   1.671   3.425  0.8110  0.9826 -0.5023
 4861TIP3    H236143   2.966   1.815   3.402 -0.8994  0.6577  0.2007
 4862TIP3   OH236144   5.322   2.816   3.753  0.1106  0.3060  0.1235
 4862TIP3    H136145   5.236   2.809   3.711  0.0635  0.9307  0.1094
 4862TIP3    H236146   5.302   2.813   3.847  0.1791 -0.6540  0.1251
 4863TIP3   OH236147   3.278   2.698   0.660  1.0269  0.3836  0.6425
 4863TIP3    H136148   3.221   2.689   0.584 -0.3739  2.4558  1.3637
 4863TIP3    H236149   3.360   2.732   0.625  0.0135  2.4382  0.1156
 4864TIP3   OH236150   3.198   2.027   1.799  0.3882  0.0912 -0.0303
 4864TIP3    H136151   3.240   2.027   1.713 -1.8347 -0.3391 -1.1783
 4864TIP3    H236152   3.199   1.936   1.827 -0.7968 -0.1164 -0.6152
 4865TIP3   OH236153   2.696   2.319   2.662  0.5159 -0.2560  0.3464
 4865TIP3    H136154   2.744   2.369   2.596 -0.2719  0.4375  0.2762
 4865TIP3    H236155   2.638   2.383   2.704 -0.4568 -1.0830  0.3213
 4866TIP3   OH236156   3.788   4.005   4.212  0.5082  0.2775  0.7071
 4866TIP3    H136157   3.836   4.016   4.294 -1.3603 -0.8149  2.0074
 4866TIP3    H236158   3.804   3.915   4.186 -1.9941 -0.6362  2.0196
 4867TIP3   OH236159   2.975   1.184   3.482 -0.5238 -0.1762  0.3895
 4867TIP3    H136160   2.910   1.195   3.412 -0.0847 -1.6289 -0.2784
 4867TIP3    H236161   2.933   1.223   3.559 -1.1541  1.1561 -0.5706
 4868TIP3   OH236162   4.795   0.415   2.087 -0.0195 -0.3627 -0.1930
 4868TIP3    H136163   4.764   0.364   2.011  0.6342  0.0384 -0.7391
 4868TIP3    H236164   4.742   0.494   2.086  2.0238  1.1055 -2.1168
 4869TIP3   OH236165   1.456   2.498   3.395 -0.4473 -0.3694  0.5040
 4869TIP3    H136166   1.514   2.532   3.326 -1.2505 -0.9927 -0.5073
 4869TIP3    H236167   1.505   2.513   3.476  1.7804 -2.1094 -0.3984
 4870TIP3   OH236168   3.887   1.488   2.415 -0.5736 -0.3371 -0.4733
 4870TIP3    H136169   3.851   1.513   2.500  0.2953  1.6178 -0.6093
 4870TIP3    H236170   3.817   1.510   2.353 -0.7603 -0.6193 -0.3613
 4871TIP3   OH236171   4.892   1.836   1.998 -0.0730 -0.0733  0.3103
 4871TIP3    H136172   4.970   1.792   2.033  0.0945  0.7176  0.9440
 4871TIP3    H236173   4.896   1.925   2.033 -0.8155  0.2317 -0.3420
 4872TIP3   OH236174   3.531   2.189   2.896  0.5950 -0.1612 -0.1289
 4872TIP3    H136175   3.437   2.199   2.915  0.6785  1.6857 -0.4847
 4872TIP3    H236176   3.574   2.240   2.964  1.3424 -0.9341 -0.0212
 4873TIP3   OH236177   5.371   3.520   2.532 -0.1870  0.6122 -0.1430
 4873TIP3    H136178   5.394   3.550   2.444 -1.5346 -0.5118 -0.9204
 4873TIP3    H236179   5.276   3.529   2.537 -0.1713  0.3180  1.0693
 4874TIP3   OH236180   6.374   3.356   3.815 -0.1064  0.5803 -0.0927
 4874TIP3    H136181   6.348   3.265   3.800 -1.9630  1.2805 -1.5335
 4874TIP3    H236182   6.334   3.379   3.898 -0.4570  0.3595 -0.1998
 4875TIP3   OH236183   5.148   6.314   3.521 -0.7989  0.0157  0.1217
 4875TIP3    H136184   5.079   6.269   3.473  0.1092 -1.2119 -0.0885
 4875TIP3    H236185   5.117   6.314   3.612 -1.6003  0.5282 -0.1435
 4876TIP3   OH236186   0.268   3.898   2.050 -0.3735  0.4602  0.2726
 4876TIP3    H136187   0.302   3.901   1.960 -1.6945 -0.4936 -0.2947
 4876TIP3    H236188   0.180   3.936   2.044 -0.5968  0.0959  1.0949
 4877TIP3   OH236189   5.236   1.360   2.970  0.6785  0.1886  0.0497
 4877TIP3    H136190   5.152   1.396   2.940  1.1361  0.4948 -0.8980
 4877TIP3    H236191   5.223   1.344   3.064 -0.6526 -0.3779 -0.1987
 4878TIP3   OH236192   4.819   6.306   2.787  0.4468  0.1032 -0.4008
 4878TIP3    H136193   4.769   6.225   2.778 -0.0201  0.3216  0.1803
 4878TIP3    H236194   4.910   6.277   2.790  0.2249 -0.5487  1.2754
 4879TIP3   OH236195   5.545   2.423   0.792  0.8396  0.1087  0.0662
 4879TIP3    H136196   5.594   2.501   0.821 -0.4855  0.5953  1.1357
 4879TIP3    H236197   5.489   2.455   0.721  1.2398 -0.1689 -0.3713
 4880TIP3   OH236198   2.511   4.967   0.075  0.1285 -0.5529  0.4414
 4880TIP3    H136199   2.491   5.006  -0.011 -1.1575  0.3167  1.0973
 4880TIP3    H236200   2.604   4.985   0.088  0.0599  0.4139 -0.2429
 4881TIP3   OH236201   5.669   1.969   1.203  0.4628  0.1352  0.5720
 4881TIP3    H136202   5.714   2.049   1.177 -1.1283  0.7972 -0.2168
 4881TIP3    H236203   5.576   1.987   1.191 -0.0012 -1.4899  1.3455
 4882TIP3   OH236204   0.764   5.356   2.093 -0.1294 -0.2339  0.0956
 4882TIP3    H136205   0.711   5.378   2.016 -2.1330 -1.1647  1.1365
 4882TIP3    H236206   0.739   5.267   2.115  3.0873 -1.3533 -0.2339
 4883TIP3   OH236207   5.325   2.205   4.295  0.1688 -0.1848  0.4124
 4883TIP3    H136208   5.307   2.286   4.343 -1.8058  0.3215 -1.0510
 4883TIP3    H236209   5.410   2.220   4.253 -1.2035  2.1723 -1.7706
 4884TIP3   OH236210   0.801   6.147   2.103 -0.1211 -0.4614 -0.3365
 4884TIP3    H136211   0.762   6.148   2.016 -2.0820 -1.4271  0.4749
 4884TIP3    H236212   0.830   6.057   2.116  3.3754  0.3573 -1.2271
 4885TIP3   OH236213   1.399   4.664   3.767 -0.2644 -0.6141 -0.7713
 4885TIP3    H136214   1.384   4.741   3.712 -0.8140  1.3889  1.9743
 4885TIP3    H236215   1.340   4.597   3.732 -0.5303  0.5214 -2.6113
 4886TIP3   OH236216   1.260   0.542   2.674  0.1291  0.0235 -0.1664
 4886TIP3    H136217   1.350   0.541   2.706  0.0055 -0.4945  0.1700
 4886TIP3    H236218   1.221   0.462   2.708 -0.3211  0.0031 -0.7106
 4887TIP3   OH236219   2.799   3.651   1.804 -0.0427 -0.0911  0.3813
 4887TIP3    H136220   2.874   3.616   1.852  0.0023  0.5955  0.8169
 4887TIP3    H236221   2.804   3.746   1.817  0.2842  0.1746 -1.4217
 4888TIP3   OH236222   0.634   0.283   4.090 -0.1672 -0.6685  0.1685
 4888TIP3    H136223   0.725   0.252   4.099 -0.0366 -0.1198  0.7783
 4888TIP3    H236224   0.608   0.306   4.179 -0.1389  1.3204 -0.3057
 4889TIP3   OH236225   6.213   0.931   2.074 -0.1407  0.8360  0.2546
 4889TIP3    H136226   6.229   0.905   1.984  0.3319  0.4537  0.4427
 4889TIP3    H236227   6.118   0.942   2.080 -0.2921 -0.1823 -0.0153
 4890TIP3   OH236228   5.971   3.003   2.036  0.6009 -0.0357 -0.4040
 4890TIP3    H136229   5.974   2.941   2.109  0.1787  1.0960  0.6163
 4890TIP3    H236230   5.963   3.088   2.078 -3.2151  0.4885 -1.7496
 4891TIP3   OH236231   3.715   5.229   2.394  0.0673 -0.7613 -0.2545
 4891TIP3    H136232   3.796   5.197   2.355  0.5192 -0.3762  0.3531
 4891TIP3    H236233   3.743   5.287   2.465 -0.7330 -1.2406  0.4812
 4892TIP3   OH236234   1.818   1.859   3.113  0.3252 -0.1252 -0.6937
 4892TIP3    H136235   1.777   1.911   3.043 -0.9443  1.1158  0.8709
 4892TIP3    H236236   1.753   1.792   3.134  0.7472 -0.5593 -0.7444
 4893TIP3   OH236237   2.253   2.979   1.824  0.6566 -0.5049  0.2349
 4893TIP3    H136238   2.230   3.071   1.834  0.8325 -0.3351 -0.8150
 4893TIP3    H236239   2.342   2.973   1.857  1.8926  0.4063 -2.5965
 4894TIP3   OH236240   2.414   5.981   1.338  0.0352 -0.3336  0.1300
 4894TIP3    H136241   2.440   5.971   1.247 -0.9924 -1.2725 -0.0942
 4894TIP3    H236242   2.319   5.991   1.335  0.1085  0.8695  1.0325
 4895TIP3   OH236243   2.921   6.459   0.854  0.1989  0.1157  0.0927
 4895TIP3    H136244   2.925   6.511   0.774 -0.3527 -0.4146 -0.2878
 4895TIP3    H236245   2.848   6.496   0.903 -1.4303 -1.4561 -1.0336
 4896TIP3   OH236246   5.810   5.467   3.995 -0.1595 -0.1408  0.3419
 4896TIP3    H136247   5.838   5.446   4.084  0.3310  0.2231  0.2781
 4896TIP3    H236248   5.737   5.527   4.006 -0.6737 -0.7824  0.5054
 4897TIP3   OH236249   5.191   4.127   1.562 -0.7327  0.8431  0.5138
 4897TIP3    H136250   5.279   4.158   1.542 -1.2538  1.4278 -1.0916
 4897TIP3    H236251   5.204   4.051   1.619  0.8592  0.3959 -0.3718
 4898TIP3   OH236252   4.882   1.405   3.770 -0.4026  0.2647 -0.5919
 4898TIP3    H136253   4.953   1.355   3.809  0.5504  2.2878  0.4271
 4898TIP3    H236254   4.802   1.359   3.797  0.4597 -2.0593 -1.7829
 4899TIP3   OH236255   0.945   3.744   3.038  0.2425 -0.4168  0.2537
 4899TIP3    H136256   1.001   3.723   2.963  0.7809 -0.6234  0.7051
 4899TIP3    H236257   0.989   3.703   3.112 -0.4203 -0.4220  0.6435
 4900TIP3   OH236258   4.494   5.828   1.337  0.1988 -0.5575 -0.2247
 4900TIP3    H136259   4.422   5.891   1.340 -0.7910 -1.6649  0.8249
 4900TIP3    H236260   4.533   5.840   1.251 -0.7158  0.6609 -0.5021
 4901TIP3   OH236261   1.025   4.649   0.737  0.2762  0.0474 -0.1627
 4901TIP3    H136262   0.930   4.643   0.739  0.2647 -1.0681 -1.9470
 4901TIP3    H236263   1.044   4.711   0.666  0.8898 -0.1103 -0.1484
 4902TIP3   OH236264   6.514   2.176   2.019  0.0539  0.3170 -0.4723
 4902TIP3    H136265   6.598   2.205   2.055  0.7513 -0.6002 -1.3045
 4902TIP3    H236266   6.529   2.085   1.993 -1.2522  0.0905 -0.4931
 4903TIP3   OH236267   6.193   4.953   0.270 -0.1256 -0.3030  0.0509
 4903TIP3    H136268   6.258   4.891   0.305  0.1729  0.5268  1.0255
 4903TIP3    H236269   6.223   5.038   0.300 -2.7285 -0.0438  2.3012
 4904TIP3   OH236270   1.707   6.168   1.936 -0.1132  1.1236  0.4009
 4904TIP3    H136271   1.662   6.142   1.856  0.1804  2.7767 -0.3395
 4904TIP3    H236272   1.795   6.192   1.908 -0.4007  2.9929  0.9715
 4905TIP3   OH236273   6.658   1.744   1.765  0.0405 -0.1382 -0.3205
 4905TIP3    H136274   6.720   1.724   1.695 -0.3513  0.6408 -0.9051
 4905TIP3    H236275   6.575   1.708   1.734  0.2325 -1.4634  0.6007
 4906TIP3   OH236276   6.062   3.668   3.119  0.6229 -0.2348 -0.0392
 4906TIP3    H136277   6.106   3.616   3.186 -1.2549  1.5492  2.7476
 4906TIP3    H236278   6.014   3.604   3.066  0.7456 -1.5770  1.4140
 4907TIP3   OH236279   4.859   1.584   1.853 -0.4880  0.1196 -0.0236
 4907TIP3    H136280   4.841   1.677   1.865  0.7161  0.6129 -1.7461
 4907TIP3    H236281   4.909   1.559   1.930 -2.7686  0.2844  1.6104
 4908TIP3   OH236282   2.383   2.871   2.269  0.1409  0.2123  0.0174
 4908TIP3    H136283   2.313   2.807   2.257 -0.4632  0.7246  0.6992
 4908TIP3    H236284   2.440   2.831   2.334  0.1436  0.0637 -0.0746
 4909TIP3   OH236285   5.194   2.710   2.910 -0.4825  0.1195  1.0324
 4909TIP3    H136286   5.157   2.784   2.862 -0.9620 -0.3604  0.6436
 4909TIP3    H236287   5.120   2.653   2.927  0.0354 -0.7798  0.3878
 4910TIP3   OH236288   4.619   5.581   1.337  0.4405  0.1846 -0.6137
 4910TIP3    H136289   4.574   5.656   1.376 -0.7798 -1.9028  2.4182
 4910TIP3    H236290   4.556   5.546   1.273 -0.6335 -0.3753  0.6970
 4911TIP3   OH236291   2.782   1.614   3.188 -0.3341  0.1173  0.3862
 4911TIP3    H136292   2.830   1.665   3.254 -0.6698 -0.4140  1.0519
 4911TIP3    H236293   2.833   1.625   3.108 -0.7038  1.9873  0.3557
 4912TIP3   OH236294   6.700   0.284   8.451 -0.2493 -0.1666 -0.2440
 4912TIP3    H136295   6.753   0.205   8.443 -1.5239 -1.3677  2.0642
 4912TIP3    H236296   6.738   0.346   8.389  1.8206 -2.0252 -0.9280
 4913TIP3   OH236297   6.230   1.975   4.159 -0.0433  0.5418 -0.0955
 4913TIP3    H136298   6.251   1.938   4.074 -0.4035 -0.6109  0.3061
 4913TIP3    H236299   6.174   2.051   4.140  0.9556  1.0944 -0.9363
 4914TIP3   OH236300   5.515   2.108   2.950 -0.1850  0.2938  0.0906
 4914TIP3    H136301   5.563   2.158   2.883 -1.8651  0.6755 -0.8825
 4914TIP3    H236302   5.469   2.175   3.001  0.9828 -0.0018  1.6099
 4915TIP3   OH236303   3.476   4.529   2.970  0.6280  0.2887  1.0901
 4915TIP3    H136304   3.447   4.525   3.062  0.8375 -0.0418  1.1435
 4915TIP3    H236305   3.395   4.522   2.920  0.5334  0.2417  1.2465
 4916TIP3   OH236306   3.289   6.208   1.664 -0.9189  0.0740 -0.6185
 4916TIP3    H136307   3.294   6.174   1.575 -2.9212  0.0003 -0.7656
 4916TIP3    H236308   3.195   6.207   1.684 -0.5115 -0.0022  1.5314
 4917TIP3   OH236309   6.176   1.348   3.741 -0.3444  0.6218 -0.2775
 4917TIP3    H136310   6.152   1.300   3.820 -0.7539  1.3634  0.0644
 4917TIP3    H236311   6.092   1.363   3.697 -0.3257  1.6648  0.0086
 4918TIP3   OH236312   4.779   0.066   1.475 -0.3408  0.1402 -0.0067
 4918TIP3    H136313   4.733   0.041   1.555 -0.5938 -1.9855 -0.7687
 4918TIP3    H236314   4.856   0.114   1.506 -0.1365 -1.1244  1.5489
 4919TIP3   OH236315   4.010   1.941   1.344 -0.6860 -0.0295 -0.0541
 4919TIP3    H136316   4.066   1.941   1.422  0.2685 -1.0432 -0.7011
 4919TIP3    H236317   3.982   2.032   1.334  0.6878  0.4731  0.4323
 4920TIP3   OH236318   5.912   2.789   4.172 -0.2022 -0.0572 -0.2190
 4920TIP3    H136319   5.980   2.772   4.237 -0.6427  0.4349  0.3870
 4920TIP3    H236320   5.937   2.736   4.096  0.1541 -0.8817  0.4626
 4921TIP3   OH236321   4.028   0.112   8.128  0.1745  0.5186 -0.5816
 4921TIP3    H136322   4.059   0.197   8.098  0.2315  1.5340  2.0920
 4921TIP3    H236323   3.937   0.108   8.100 -0.1184  1.9184  0.0847
 4922TIP3   OH236324   1.998   3.072   2.448 -0.5403  0.2066 -0.2745
 4922TIP3    H136325   2.089   3.082   2.422 -0.5135 -1.2568 -0.8457
 4922TIP3    H236326   1.982   2.978   2.444 -1.7663  0.3297  0.8947
 4923TIP3   OH236327   0.554   6.577   2.258  0.2889 -0.6206  0.2901
 4923TIP3    H136328   0.609   6.629   2.316 -0.0175  1.9243 -1.5313
 4923TIP3    H236329   0.616   6.520   2.212  0.9667 -0.2031  0.6727
 4924TIP3   OH236330   0.003   1.270   0.034  0.8012  0.1399 -0.5339
 4924TIP3    H136331   0.065   1.335  -0.000  0.1900  0.9102 -0.2201
 4924TIP3    H236332  -0.081   1.316   0.036  0.4851 -0.4502  0.3431
 4925TIP3   OH236333   1.454   3.165   1.571  0.0708 -0.6929  0.0478
 4925TIP3    H136334   1.512   3.179   1.496  2.3483 -0.3752  1.7638
 4925TIP3    H236335   1.449   3.070   1.581  1.9553 -0.7165  1.0467
 4926TIP3   OH236336   5.803   1.313   2.836  0.3301 -0.0484 -0.2040
 4926TIP3    H136337   5.819   1.220   2.820 -1.1614 -0.1527 -1.2289
 4926TIP3    H236338   5.781   1.317   2.929  1.0220 -0.6137 -0.0025
 4927TIP3   OH236339   2.662   0.526   3.095  0.4222  0.2574  0.1716
 4927TIP3    H136340   2.700   0.447   3.133 -0.4251 -0.0357  0.4272
 4927TIP3    H236341   2.734   0.589   3.095  0.6366  0.0575  1.6465
 4928TIP3   OH236342   0.568   5.415   3.278 -0.0607 -0.2910  0.8767
 4928TIP3    H136343   0.618   5.439   3.356 -0.6338  0.6191  0.9800
 4928TIP3    H236344   0.633   5.404   3.210  0.3300  0.3155  1.1471
 4929TIP3   OH236345   4.543   5.856   2.886 -0.4597  0.3362 -0.3246
 4929TIP3    H136346   4.540   5.952   2.893 -0.0746  0.2784  0.8305
 4929TIP3    H236347   4.589   5.828   2.965  0.0959 -0.7639 -1.0160
 4930TIP3   OH236348   5.046   0.291   2.730 -0.0858  0.4918 -0.1889
 4930TIP3    H136349   5.082   0.300   2.818 -0.1154  0.6585 -0.1948
 4930TIP3    H236350   4.956   0.263   2.744 -0.2650  1.0786 -0.1541
 4931TIP3   OH236351   5.481   4.807   2.326 -0.1788  0.2756  0.4990
 4931TIP3    H136352   5.449   4.741   2.387  2.2728 -2.1775 -0.6889
 4931TIP3    H236353   5.422   4.802   2.251  0.4026 -1.1708  0.1097
 4932TIP3   OH236354   3.975   3.813   1.850  0.2617  0.2506  0.3166
 4932TIP3    H136355   3.972   3.882   1.783 -3.7497 -0.6276 -0.6551
 4932TIP3    H236356   4.015   3.739   1.805  1.3057  0.8481  0.2280
 4933TIP3   OH236357   0.041   1.139   0.256 -0.2220  0.5059 -0.4021
 4933TIP3    H136358   0.135   1.120   0.260 -0.2000  0.7721  0.5346
 4933TIP3    H236359   0.027   1.168   0.165  0.1205 -1.9078 -1.2931
 4934TIP3   OH236360   5.203   4.402   1.433  0.3964 -0.3668  0.2302
 4934TIP3    H136361   5.125   4.350   1.453  0.8209 -0.6770  1.0792
 4934TIP3    H236362   5.267   4.339   1.402  0.6065 -0.2212  0.3691
 4935TIP3   OH236363   4.573   3.043   3.095 -0.0904 -0.3389  0.4691
 4935TIP3    H136364   4.561   2.951   3.120 -1.4875 -0.8069 -1.6077
 4935TIP3    H236365   4.492   3.086   3.122  0.6390  0.3504  1.6029
 4936TIP3   OH236366   5.087   5.694   2.321 -0.2212  0.0657  0.0229
 4936TIP3    H136367   5.039   5.711   2.402 -0.3782  0.3231 -0.1236
 4936TIP3    H236368   5.048   5.614   2.286 -0.5978  0.3234 -0.1397
 4937TIP3   OH236369   1.566   6.583   8.234 -0.4354  0.5560  0.9168
 4937TIP3    H136370   1.648   6.572   8.187  0.7951  1.6421  2.6670
 4937TIP3    H236371   1.529   6.664   8.199 -0.3557  0.4934  0.6875
 4938TIP3   OH236372   3.916   0.535   1.096 -0.4417 -0.4818 -0.2435
 4938TIP3    H136373   4.009   0.555   1.109 -0.8118  1.0592  0.1831
 4938TIP3    H236374   3.916   0.454   1.045  1.1323 -1.3936  1.0859
 4939TIP3   OH236375   3.132   6.816   0.699 -0.8941 -0.0247  0.6853
 4939TIP3    H136376   3.209   6.867   0.673 -0.8131 -0.6607 -0.3861
 4939TIP3    H236377   3.162   6.725   0.697 -1.2861 -0.1903  1.6947
 4940TIP3   OH236378   0.969   3.334   1.407  0.3012  0.4429  0.0823
 4940TIP3    H136379   0.939   3.273   1.340  1.8286 -0.1588 -0.0911
 4940TIP3    H236380   1.063   3.320   1.412  0.5687  2.1543  0.6810
 4941TIP3   OH236381   3.275   4.031   0.732  0.4794 -0.1887  0.5990
 4941TIP3    H136382   3.229   3.958   0.775 -1.4865  0.4125 -0.3499
 4941TIP3    H236383   3.360   3.995   0.709 -0.3198 -2.1166  0.4136
 4942TIP3   OH236384   3.622   1.772   1.767 -0.1607 -0.0235  0.1448
 4942TIP3    H136385   3.677   1.747   1.693  0.2937  0.0487  0.4589
 4942TIP3    H236386   3.683   1.805   1.833 -0.6212  0.5476  0.2980
 4943TIP3   OH236387   3.055   0.967   4.234  1.1430  0.4623 -0.3745
 4943TIP3    H136388   3.000   0.914   4.177 -2.7193  1.4561  2.0547
 4943TIP3    H236389   3.072   1.047   4.184  1.5643 -0.3712 -1.6296
 4944TIP3   OH236390   4.335   1.566   3.967  0.3700  0.4972  0.3275
 4944TIP3    H136391   4.302   1.631   4.029  2.3864  0.7377  1.2256
 4944TIP3    H236392   4.401   1.517   4.016  2.0309  0.6866 -1.5844
 4945TIP3   OH236393   5.702   3.345   2.039  0.5273 -0.1348  0.1462
 4945TIP3    H136394   5.646   3.274   2.006  1.7246 -0.6349 -0.9035
 4945TIP3    H236395   5.670   3.362   2.127  0.4919 -2.3455  0.6247
 4946TIP3   OH236396   4.711   5.646   3.369 -0.4794  0.4960 -0.4176
 4946TIP3    H136397   4.747   5.563   3.338  0.2817  0.5938  0.1839
 4946TIP3    H236398   4.772   5.712   3.337 -1.3059  0.8819 -1.2558
 4947TIP3   OH236399   4.641   6.652   0.095 -0.3820 -0.3559 -0.1490
 4947TIP3    H136400   4.624   6.643   0.001 -2.4380 -0.5170  0.1950
 4947TIP3    H236401   4.571   6.602   0.137  1.6445 -2.0012  1.4831
 4948TIP3   OH236402   6.888   2.567   0.814  0.5845 -0.2927 -0.3529
 4948TIP3    H136403   6.810   2.599   0.859  1.3193  2.4351 -0.7825
 4948TIP3    H236404   6.939   2.523   0.881 -0.1520  0.2136  0.5614
 4949TIP3   OH236405   2.439   6.054   0.156  0.5053  0.1403  0.3839
 4949TIP3    H136406   2.364   6.039   0.099  0.5262  1.2989  0.0262
 4949TIP3    H236407   2.440   5.979   0.215 -1.4602  0.5245  0.9742
 4950TIP3   OH236408   4.953   5.639   8.187  0.2583 -0.3968 -0.1393
 4950TIP3    H136409   5.018   5.571   8.167  1.3582  0.8129 -0.8655
 4950TIP3    H236410   4.979   5.713   8.132 -2.1170 -0.0643 -0.9000
 4951TIP3   OH236411   5.873   2.603   3.395 -0.0472  0.8482  0.0369
 4951TIP3    H136412   5.918   2.669   3.342  0.3254 -0.5711 -1.4887
 4951TIP3    H236413   5.942   2.543   3.422 -0.4742  0.7313  0.8980
 4952TIP3   OH236414   1.926   0.885   3.919 -0.8692 -0.0293  0.7346
 4952TIP3    H136415   2.006   0.908   3.966 -0.5624  1.5531 -0.4523
 4952TIP3    H236416   1.953   0.816   3.858 -0.6888 -0.3268  1.1499
 4953TIP3   OH236417   1.735   3.576   3.678 -0.6510 -0.8420 -0.0467
 4953TIP3    H136418   1.751   3.561   3.771 -0.5029  1.6371  0.4012
 4953TIP3    H236419   1.747   3.670   3.667 -0.8783 -1.0518 -2.5509
 4954TIP3   OH236420   2.569   2.576   3.277  0.1605 -0.4068  0.4427
 4954TIP3    H136421   2.662   2.589   3.296  0.2095  1.0598 -0.6196
 4954TIP3    H236422   2.546   2.648   3.219 -1.8738 -0.2130  1.3836
 4955TIP3   OH236423   1.137   4.991   3.393 -0.1434 -0.6747 -0.4063
 4955TIP3    H136424   1.217   5.021   3.350  0.3886  1.8165  1.9975
 4955TIP3    H236425   1.067   5.035   3.344  0.3841  1.3664  0.5422
 4956TIP3   OH236426   1.055   2.630   8.011  0.0971 -0.3401  0.5457
 4956TIP3    H136427   1.012   2.698   7.959 -0.1769 -0.7332  0.2579
 4956TIP3    H236428   0.984   2.578   8.047  0.2635  0.2910  1.8226
 4957TIP3   OH236429   3.256   3.188   8.217 -0.5691 -0.0570 -0.3480
 4957TIP3    H136430   3.222   3.100   8.235  0.3465 -0.5284 -0.8005
 4957TIP3    H236431   3.351   3.177   8.221 -0.4461  0.8927 -0.5364
 4958TIP3   OH236432   2.599   4.594   3.178  0.4103  0.4040  0.5326
 4958TIP3    H136433   2.515   4.635   3.202  0.5667  0.7787  0.4583
 4958TIP3    H236434   2.662   4.667   3.182  0.8409  0.0068  1.1734
 4959TIP3   OH236435   4.267   3.912   4.136 -0.0033  0.0803  0.0100
 4959TIP3    H136436   4.294   3.977   4.201 -0.1083  0.9554 -0.8107
 4959TIP3    H236437   4.349   3.876   4.103  0.0748  0.3429 -0.0826
 4960TIP3   OH236438   2.715   1.892   2.918  0.1329 -0.0857 -0.2739
 4960TIP3    H136439   2.635   1.891   2.866 -0.1920 -0.2337  0.2183
 4960TIP3    H236440   2.771   1.826   2.877 -0.1909 -0.3301 -0.3267
 4961TIP3   OH236441   1.110   0.432   0.963  0.0213  0.2373  0.9638
 4961TIP3    H136442   1.120   0.380   1.043 -0.5639 -1.1192  0.1898
 4961TIP3    H236443   1.080   0.517   0.994 -1.4697 -0.6518  2.1238
 4962TIP3   OH236444   6.037   3.354   2.626 -0.3662 -0.0098  0.0316
 4962TIP3    H136445   6.064   3.338   2.535  2.4986  0.9027  0.6151
 4962TIP3    H236446   5.994   3.440   2.623  0.5957  0.4717 -0.3463
 4963TIP3   OH236447   3.349   3.277   4.395  0.4709 -0.5208  0.0001
 4963TIP3    H136448   3.343   3.207   4.460  0.6584  0.0642  0.6598
 4963TIP3    H236449   3.395   3.237   4.321  0.8620 -1.0058  0.4976
 4964TIP3   OH236450   6.850   1.493   1.660 -1.1031  0.0203  0.2938
 4964TIP3    H136451   6.914   1.564   1.672 -0.0899 -0.8223  0.0053
 4964TIP3    H236452   6.836   1.459   1.748  1.8642 -2.3204  0.0383
 4965TIP3   OH236453   3.491   1.538   2.657  0.7797  0.0692 -0.1243
 4965TIP3    H136454   3.435   1.498   2.724  1.4785  0.1310  0.5044
 4965TIP3    H236455   3.528   1.463   2.611  0.0785  0.0271 -0.6461
 4966TIP3   OH236456   3.383   3.179   3.711 -0.2108  0.0630 -0.0705
 4966TIP3    H136457   3.447   3.110   3.694  1.0946  0.8993  1.2440
 4966TIP3    H236458   3.336   3.150   3.790 -0.7232 -0.0313 -0.4026
 4967TIP3   OH236459   6.239   3.188   4.066 -0.2018  0.0942  0.4358
 4967TIP3    H136460   6.164   3.172   4.123 -0.6375  1.2877  0.2216
 4967TIP3    H236461   6.313   3.150   4.113 -1.0218 -1.7597  0.3103
 4968TIP3   OH236462   6.729   4.117   2.119 -0.9982  0.2740 -0.0669
 4968TIP3    H136463   6.645   4.071   2.115 -2.2532  2.4386 -0.3099
 4968TIP3    H236464   6.705   4.209   2.133  1.3361  0.9889 -0.3611
 4969TIP3   OH236465   0.860   0.391   0.665 -0.0388 -0.5924 -0.2687
 4969TIP3    H136466   0.813   0.315   0.699  1.2522 -0.8624  0.9890
 4969TIP3    H236467   0.950   0.360   0.652 -0.0162  0.0767 -2.0367
 4970TIP3   OH236468   1.818   2.010   1.767 -0.0072  0.8494 -0.2444
 4970TIP3    H136469   1.806   2.083   1.706 -3.7625 -0.5954 -1.4710
 4970TIP3    H236470   1.748   2.020   1.831 -1.5039 -2.2904 -1.2062
 4971TIP3   OH236471   3.806   3.713   4.086 -0.0507 -0.7487  0.6230
 4971TIP3    H136472   3.897   3.734   4.062  0.0886 -0.5676  1.3088
 4971TIP3    H236473   3.814   3.648   4.156 -0.4581 -0.8617  0.5688
 4972TIP3   OH236474   2.401   1.924   1.815 -0.3975 -0.0872  0.5644
 4972TIP3    H136475   2.373   1.837   1.788 -2.5533  0.1517  1.7803
 4972TIP3    H236476   2.350   1.942   1.895  0.5088  1.9965  0.7441
 4973TIP3   OH236477   0.117   5.768   2.469  0.2128 -0.1122 -0.0771
 4973TIP3    H136478   0.191   5.714   2.496  0.4538 -0.0686 -0.6340
 4973TIP3    H236479   0.091   5.815   2.548  0.7326 -0.1812  0.1353
 4974TIP3   OH236480   6.696   1.804   2.223 -0.3527  0.4572 -0.3665
 4974TIP3    H136481   6.702   1.877   2.285 -1.5679 -1.4949  2.2283
 4974TIP3    H236482   6.786   1.777   2.209  0.0840  2.1460 -1.0532
 4975TIP3   OH236483   0.826   2.048   2.799  0.7035  0.3506  0.6546
 4975TIP3    H136484   0.769   2.008   2.733  1.2695 -1.5345  1.2560
 4975TIP3    H236485   0.799   2.140   2.801 -0.3327  0.1351 -1.1275
 4976TIP3   OH236486   4.219   2.705   2.723  0.0603 -0.0761 -0.1824
 4976TIP3    H136487   4.152   2.684   2.789 -0.7250 -0.7017 -1.1532
 4976TIP3    H236488   4.178   2.685   2.640  1.5913 -0.7915 -0.7959
 4977TIP3   OH236489   1.659   0.265   0.663 -0.5206  0.1013 -0.8678
 4977TIP3    H136490   1.663   0.270   0.567 -1.0726 -1.7297 -1.0269
 4977TIP3    H236491   1.749   0.283   0.691 -0.3550  0.6817 -1.7305
 4978TIP3   OH236492   6.468   2.782   3.991 -0.1415 -0.6808  0.3011
 4978TIP3    H136493   6.389   2.775   4.045 -0.3874 -0.8952 -0.0782
 4978TIP3    H236494   6.538   2.803   4.053 -0.2610 -1.7439  0.8215
 4979TIP3   OH236495   2.246   2.207   1.679 -0.1027 -0.8380 -0.6296
 4979TIP3    H136496   2.250   2.141   1.611 -0.8860 -1.2349 -0.3013
 4979TIP3    H236497   2.153   2.230   1.686 -0.2921 -1.9604  1.3744
 4980TIP3   OH236498   1.573   1.456   3.167 -0.2784  0.6736  0.2979
 4980TIP3    H136499   1.658   1.427   3.201 -0.1846  0.2322 -0.3031
 4980TIP3    H236500   1.511   1.437   3.238 -0.1275 -0.4620  0.1400
 4981TIP3   OH236501   3.762   4.472   8.389 -0.5203 -0.2472 -0.2631
 4981TIP3    H136502   3.751   4.419   8.310  0.7640  0.1554 -0.7259
 4981TIP3    H236503   3.808   4.415   8.450  0.5955  0.2020 -0.6562
 4982TIP3   OH236504   3.380   0.237   0.401  0.0780 -0.1727 -0.2717
 4982TIP3    H136505   3.355   0.225   0.492 -0.5235  0.5127 -0.3397
 4982TIP3    H236506   3.308   0.197   0.351 -0.8700  1.6699 -0.4685
 4983TIP3   OH236507   0.045   5.920   3.616  0.2494 -0.0017 -0.2054
 4983TIP3    H136508   0.070   5.835   3.652 -0.5935 -0.6458 -1.0968
 4983TIP3    H236509   0.053   5.980   3.690 -0.5434 -1.1208  0.8441
 4984TIP3   OH236510   3.724   1.582   2.191  0.0577  0.0110 -0.2194
 4984TIP3    H136511   3.669   1.513   2.156  0.0265 -0.3833  0.5815
 4984TIP3    H236512   3.782   1.606   2.119  0.6185 -1.4106 -0.2592
 4985TIP3   OH236513   6.266   3.079   0.237 -0.5283  0.4912  0.3711
 4985TIP3    H136514   6.231   3.151   0.290  1.6273  1.8666  0.0589
 4985TIP3    H236515   6.230   3.094   0.150 -0.0353  1.2493  0.2932
 4986TIP3   OH236516   2.676   0.218   4.164  0.6259  0.7186  0.1571
 4986TIP3    H136517   2.619   0.171   4.103 -0.6142  0.1659  1.6644
 4986TIP3    H236518   2.757   0.230   4.116 -0.1988  0.0513 -1.4912
 4987TIP3   OH236519   1.507   1.720   3.182 -1.1524  0.4084  0.9998
 4987TIP3    H136520   1.560   1.757   3.253  0.3093  1.9715 -0.7872
 4987TIP3    H236521   1.550   1.637   3.162 -1.2927  0.1786  1.6401
 4988TIP3   OH236522   3.210   0.200   3.965 -0.0736 -0.2142  0.0221
 4988TIP3    H136523   3.226   0.112   3.930 -0.1924 -0.9751  1.7611
 4988TIP3    H236524   3.297   0.233   3.986 -0.0922 -0.3504  0.3256
 4989TIP3   OH236525   5.871   3.303   3.282 -0.3382 -0.3627 -0.3993
 4989TIP3    H136526   5.848   3.320   3.191 -0.9535  0.8521 -0.0430
 4989TIP3    H236527   5.964   3.324   3.288  0.0376 -1.7459 -1.0285
 4990TIP3   OH236528   4.872   0.676   2.914  0.3402  0.6882 -0.0685
 4990TIP3    H136529   4.801   0.617   2.940  1.0028 -0.0327  0.1247
 4990TIP3    H236530   4.828   0.742   2.860 -0.2460 -0.7033 -1.4037
 4991TIP3   OH236531   5.843   4.417   1.306  0.3143 -0.4819 -0.1150
 4991TIP3    H136532   5.832   4.506   1.275 -0.3072 -0.6885 -0.5115
 4991TIP3    H236533   5.935   4.411   1.332  0.1888  0.4931  0.6324
 4992TIP3   OH236534   2.516   5.937   3.762  0.2106 -0.3849 -0.0438
 4992TIP3    H136535   2.542   6.022   3.727  1.8174 -1.4249 -1.6057
 4992TIP3    H236536   2.437   5.954   3.813  0.4633  2.0073 -0.3515
 4993TIP3   OH236537   3.732   5.437   0.860  0.2342 -0.3627 -0.1417
 4993TIP3    H136538   3.663   5.392   0.812  2.2719 -1.3430 -2.3431
 4993TIP3    H236539   3.780   5.485   0.793  1.0714  1.1775  1.4803
 4994TIP3   OH236540   4.000   0.304   2.245 -0.1546 -0.0719  0.4879
 4994TIP3    H136541   3.915   0.305   2.288  0.1148 -0.8357  1.0600
 4994TIP3    H236542   3.984   0.344   2.159 -0.5256  2.2542  1.5727
 4995TIP3   OH236543   2.471   5.192   0.476 -0.5698 -0.3577 -0.0694
 4995TIP3    H136544   2.552   5.166   0.433  0.4635  3.1372 -0.5675
 4995TIP3    H236545   2.499   5.226   0.562 -1.5087  0.5151 -0.0749
 4996TIP3   OH236546   3.715   6.302   3.268 -0.5903  0.5891  0.6749
 4996TIP3    H136547   3.757   6.243   3.330  1.0434 -0.5969 -1.4321
 4996TIP3    H236548   3.787   6.352   3.229 -1.4358  0.6352 -0.9173
 4997TIP3   OH236549   5.142   2.227   8.327  0.1241  0.9655  0.1594
 4997TIP3    H136550   5.109   2.139   8.345  2.4439  0.5775  3.3241
 4997TIP3    H236551   5.063   2.279   8.311 -1.4255 -1.2985 -0.0136
 4998TIP3   OH236552   5.691   0.368   0.494 -0.2273 -0.0487 -0.6721
 4998TIP3    H136553   5.785   0.365   0.511 -0.2279 -1.1286 -0.8067
 4998TIP3    H236554   5.661   0.278   0.506 -0.8456 -0.2106 -2.8568
 4999TIP3   OH236555   4.915   6.889   3.335 -0.3662  0.2212  0.2972
 4999TIP3    H136556   4.969   6.843   3.399 -0.3514  0.7444  0.6692
 4999TIP3    H236557   4.978   6.934   3.278 -0.3604 -0.6396 -0.4083
 5000TIP3   OH236558   4.896   3.361   3.715 -0.3676 -0.4106 -0.0527
 5000TIP3    H136559   4.820   3.405   3.752 -0.1137  0.5871 -0.6740
 5000TIP3    H236560   4.946   3.330   3.790 -0.3367  0.7527  0.4278
 5001TIP3   OH236561   3.640   5.107   2.856 -0.0142  0.1220 -0.0066
 5001TIP3    H136562   3.654   5.058   2.775 -0.4962 -0.6434  0.3576
 5001TIP3    H236563   3.545   5.122   2.859 -0.0772 -0.3661  0.6910
 5002TIP3   OH236564   2.266   0.587   2.691  0.1053 -0.4967  0.2991
 5002TIP3    H136565   2.344   0.609   2.639 -0.5375  0.8288 -0.1521
 5002TIP3    H236566   2.196   0.577   2.627 -0.5519  0.4894  0.8292
 5003TIP3   OH236567   3.259   2.948   0.795 -0.3362 -0.4119  0.5576
 5003TIP3    H136568   3.255   2.870   0.739  0.0407 -2.0067  2.6149
 5003TIP3    H236569   3.306   3.013   0.743 -1.7305 -1.0996 -1.6999
 5004TIP3   OH236570   0.237   6.386   0.964  0.5166  0.7068 -0.0377
 5004TIP3    H136571   0.143   6.406   0.964  0.6227  1.3782 -1.7002
 5004TIP3    H236572   0.263   6.392   1.056 -1.0210  0.7158  0.4253
 5005TIP3   OH236573   3.666   1.629   4.033  0.5895 -0.6740  0.1722
 5005TIP3    H136574   3.670   1.704   4.093  1.0275 -1.4252  1.0906
 5005TIP3    H236575   3.589   1.647   3.979  0.9664  0.6822  0.0443
 5006TIP3   OH236576   1.142   4.977   2.151 -0.5051 -0.4405 -0.1597
 5006TIP3    H136577   1.201   5.046   2.180 -0.8457 -0.1006 -0.2712
 5006TIP3    H236578   1.063   5.023   2.123 -0.4669 -0.8087 -0.9194
 5007TIP3   OH236579   1.110   6.306   3.556  0.3212  0.3936 -0.2354
 5007TIP3    H136580   1.122   6.237   3.490  0.0317  1.0582 -0.9907
 5007TIP3    H236581   1.166   6.278   3.629  1.4508  0.1584 -1.1539
 5008TIP3   OH236582   6.292   6.136   2.324 -0.3469 -0.8614  0.1927
 5008TIP3    H136583   6.341   6.216   2.344  0.7544 -1.5832  0.4785
 5008TIP3    H236584   6.242   6.158   2.245  0.4822 -0.1074 -0.1451
 5009TIP3   OH236585   1.065   5.864   8.279  0.0009  0.1766 -0.2898
 5009TIP3    H136586   0.979   5.879   8.239 -0.0139 -1.1345 -0.8022
 5009TIP3    H236587   1.098   5.952   8.299 -1.9316  0.6688  0.9661
 5010TIP3   OH236588   3.841   1.973   1.691  0.8103 -0.6571 -0.1631
 5010TIP3    H136589   3.798   1.905   1.639 -2.5211  0.6938  0.5410
 5010TIP3    H236590   3.918   1.998   1.640 -0.6644 -1.4539 -2.9797
 5011TIP3   OH236591   6.805   0.264   2.421  0.4549 -0.8830 -0.0924
 5011TIP3    H136592   6.817   0.176   2.385 -1.8734 -1.4356  0.3240
 5011TIP3    H236593   6.725   0.296   2.379  1.7877  1.5201 -1.0461
 5012TIP3   OH236594   6.822   2.696   3.838  0.4510 -0.2388 -0.1317
 5012TIP3    H136595   6.806   2.754   3.913  1.7479 -1.2411  0.9820
 5012TIP3    H236596   6.867   2.751   3.774 -0.9207  0.7069 -0.3267
 5013TIP3   OH236597   3.142   5.498   8.108 -0.1508  0.3069  0.0282
 5013TIP3    H136598   3.052   5.487   8.077  0.0263 -1.3898  0.0156
 5013TIP3    H236599   3.183   5.555   8.044 -0.9037  0.1135 -0.6354
 5014TIP3   OH236600   2.714   1.704   2.348 -0.1660  0.1163 -0.0872
 5014TIP3    H136601   2.720   1.662   2.263  1.0508  3.3707 -1.7808
 5014TIP3    H236602   2.794   1.678   2.393 -0.9637 -1.8743  0.2933
 5015TIP3   OH236603   6.739   2.047   4.331  0.6234 -0.0598  0.6425
 5015TIP3    H136604   6.827   2.084   4.325  0.3007  0.8337  1.2368
 5015TIP3    H236605   6.719   2.018   4.243  1.5557 -0.3667  0.5222
 5016TIP3   OH236606   5.243   2.919   0.857 -0.4256 -0.4864  0.7187
 5016TIP3    H136607   5.278   2.898   0.770 -0.3782 -0.9620  0.8493
 5016TIP3    H236608   5.312   2.971   0.898 -0.8731  0.6351  0.1017
 5017TIP3   OH236609   4.673   3.689   1.745 -0.2030  0.0227 -0.0610
 5017TIP3    H136610   4.669   3.773   1.700 -2.1139  0.0812  0.1241
 5017TIP3    H236611   4.727   3.634   1.689  0.0997  1.0337 -0.7893
 5018TIP3   OH236612   0.985   5.428   0.858 -0.1068 -0.0862 -0.3312
 5018TIP3    H136613   1.068   5.425   0.905 -0.1037 -0.0996 -0.3375
 5018TIP3    H236614   0.928   5.367   0.905  0.8387 -2.5600 -2.1556
 5019TIP3   OH236615   2.772   6.262   2.185  0.3087  0.1705 -0.1134
 5019TIP3    H136616   2.766   6.273   2.090  0.3532 -1.5930 -0.3558
 5019TIP3    H236617   2.703   6.318   2.220 -0.1832  0.2886 -1.2352
 5020TIP3   OH236618   3.294   5.760   1.090  0.2093  0.5021  0.0248
 5020TIP3    H136619   3.201   5.752   1.113  0.0781 -1.4499 -0.9784
 5020TIP3    H236620   3.297   5.740   0.997  1.7063 -0.0057  0.1644
 5021TIP3   OH236621   4.604   6.669   3.789  0.0747  0.5006  0.7945
 5021TIP3    H136622   4.699   6.679   3.787 -0.0285  1.4968 -0.5370
 5021TIP3    H236623   4.584   6.614   3.714 -0.4967  1.4793  0.2098
 5022TIP3   OH236624   3.659   0.017   1.282 -0.4260 -0.0733  0.6791
 5022TIP3    H136625   3.619   0.074   1.216 -1.9502 -0.4870  1.1924
 5022TIP3    H236626   3.592   0.009   1.350  0.2466 -1.4601  1.2204
 5023TIP3   OH236627   2.486   0.417   0.536  0.4925 -0.0557 -0.8585
 5023TIP3    H136628   2.391   0.416   0.550  0.5364 -0.3900 -0.5605
 5023TIP3    H236629   2.511   0.509   0.546  0.5682 -0.2853  1.6767
 5024TIP3   OH236630   3.535   6.650   3.446 -0.3827 -0.3604 -0.5197
 5024TIP3    H136631   3.504   6.738   3.467 -1.2304 -0.3680 -1.6456
 5024TIP3    H236632   3.456   6.597   3.441  0.1850 -1.4954  1.3329
 5025TIP3   OH236633   2.531   5.491   3.486  0.2237 -0.1947  0.5980
 5025TIP3    H136634   2.464   5.499   3.554  1.1185 -0.4660  1.5334
 5025TIP3    H236635   2.610   5.527   3.526  0.2267  1.9852 -1.1629
 5026TIP3   OH236636   6.067   4.746   1.063 -0.0461 -0.3220 -0.4919
 5026TIP3    H136637   6.081   4.680   0.995 -0.2583 -3.5936  2.3464
 5026TIP3    H236638   5.972   4.752   1.071 -0.0335 -0.9989  0.3487
 5027TIP3   OH236639   2.993   5.824   3.065  0.1448  0.4614 -0.6658
 5027TIP3    H136640   2.991   5.730   3.080  0.1585  0.1477 -2.5113
 5027TIP3    H236641   3.001   5.862   3.153 -0.2927 -1.2233  0.1247
 5028TIP3   OH236642   4.328   3.156   0.915  0.0404  0.2934  0.1882
 5028TIP3    H136643   4.335   3.179   1.008  0.1986 -2.3114  0.8805
 5028TIP3    H236644   4.408   3.190   0.876  0.0512  1.2719  1.0014
 5029TIP3   OH236645   0.236   4.184   0.765 -0.0593  0.5387 -0.4186
 5029TIP3    H136646   0.308   4.247   0.764  0.4882 -0.0807 -1.3248
 5029TIP3    H236647   0.210   4.178   0.857  3.1621 -1.6395  0.4959
 5030TIP3   OH236648   0.087   6.278   3.996  0.0827  0.7187 -0.0237
 5030TIP3    H136649   0.173   6.297   4.034  0.0507  1.3464 -0.2624
 5030TIP3    H236650   0.033   6.352   4.020  0.3769  1.7459 -2.2888
 5031TIP3   OH236651   5.458   0.959   2.448 -0.5586  0.1845  0.6194
 5031TIP3    H136652   5.539   1.010   2.453 -0.4762  0.0254  0.9877
 5031TIP3    H236653   5.417   0.987   2.366  0.2105 -0.2459  0.0755
 5032TIP3   OH236654   6.097   2.744   0.051  0.2713  0.4729 -0.3379
 5032TIP3    H136655   6.167   2.801   0.019  0.4245  0.2899 -0.3300
 5032TIP3    H236656   6.129   2.655   0.035  0.3642  0.3756  0.3438
 5033TIP3   OH236657   2.486   2.852   7.997  0.3399 -0.1774 -0.3993
 5033TIP3    H136658   2.427   2.869   7.924 -0.6877  0.0732  0.4678
 5033TIP3    H236659   2.436   2.876   8.075  0.7764 -2.0612  0.5270
 5034TIP3   OH236660   3.991   0.689   8.203 -0.4804 -0.1718 -0.4853
 5034TIP3    H136661   3.944   0.750   8.261 -0.5518  0.6633 -1.3984
 5034TIP3    H236662   4.084   0.709   8.218 -0.4686 -0.5464 -0.0392
 5035TIP3   OH236663   5.555   4.745   1.112 -0.1503  0.0033 -0.5613
 5035TIP3    H136664   5.515   4.777   1.031 -0.6637  1.2878  0.1629
 5035TIP3    H236665   5.508   4.792   1.181  0.0826 -1.2771  0.4993
 5036TIP3   OH236666   4.358   6.917   1.229  0.6348 -0.0316 -0.3577
 5036TIP3    H136667   4.411   6.981   1.181  2.2792 -1.1469 -0.1039
 5036TIP3    H236668   4.420   6.870   1.284 -0.7364 -0.9665  0.4603
 5037TIP3   OH236669   3.910   4.881   1.484  0.4250 -0.1156 -0.5099
 5037TIP3    H136670   3.974   4.951   1.498  1.3726 -1.1967  0.8802
 5037TIP3    H236671   3.964   4.803   1.470 -0.4915 -1.3649  2.1954
 5038TIP3   OH236672   4.335   5.029   2.030  0.3390  0.2227 -0.7756
 5038TIP3    H136673   4.281   4.999   2.104  0.1849 -0.0261 -0.9882
 5038TIP3    H236674   4.394   5.093   2.069 -0.6856  1.1502 -0.6929
 5039TIP3   OH236675   1.504   6.411   0.374 -0.3447  0.1715  0.2364
 5039TIP3    H136676   1.454   6.491   0.393 -1.0224 -0.0782 -0.4287
 5039TIP3    H236677   1.576   6.441   0.319  0.2189  0.5298  1.1576
 5040TIP3   OH236678   3.902   3.751   1.515 -0.3281  0.4051 -0.2944
 5040TIP3    H136679   3.934   3.826   1.465 -0.7887 -0.8530 -2.5994
 5040TIP3    H236680   3.944   3.675   1.474 -2.1916 -0.8334 -0.0119
 5041TIP3   OH236681   5.026   0.641   0.017  0.3634 -0.8538  0.2782
 5041TIP3    H136682   5.070   0.630  -0.067  0.1900 -0.3106  0.1130
 5041TIP3    H236683   5.061   0.571   0.072  0.8458 -0.9092 -0.0944
 5042TIP3   OH236684   1.207   1.164   2.304 -0.2540  0.1899  0.1629
 5042TIP3    H136685   1.125   1.177   2.351  0.0533  0.7197  0.5692
 5042TIP3    H236686   1.243   1.083   2.340 -0.1495  0.4531  0.6667
 5043TIP3   OH236687   2.774   4.724   4.059 -0.7091  0.0412 -0.0984
 5043TIP3    H136688   2.777   4.650   4.120  2.1878 -0.4444 -0.6541
 5043TIP3    H236689   2.705   4.701   3.997 -0.5018 -1.7825  0.2769
 5044TIP3   OH236690   5.443   3.585   0.922  0.5533  0.2568 -0.1667
 5044TIP3    H136691   5.359   3.542   0.935  0.7922  0.1626  1.2339
 5044TIP3    H236692   5.507   3.526   0.962  1.5718 -0.5832 -2.8226
 5045TIP3   OH236693   4.292   1.195   0.768  0.5887 -0.4694 -0.0740
 5045TIP3    H136694   4.239   1.262   0.811  0.2534 -0.4387 -0.5339
 5045TIP3    H236695   4.346   1.158   0.838 -0.8875 -1.3411  0.6419
 5046TIP3   OH236696   6.652   6.593   0.570 -0.0810  0.4918 -0.6145
 5046TIP3    H136697   6.561   6.605   0.543  0.3777  0.6657 -2.1430
 5046TIP3    H236698   6.697   6.562   0.491  0.8411 -1.3479  0.5514
 5047TIP3   OH236699   2.244   1.848   3.256  0.3091 -0.3156 -0.1164
 5047TIP3    H136700   2.269   1.787   3.186 -0.2656 -2.2374  1.2512
 5047TIP3    H236701   2.322   1.853   3.312  0.0483 -0.5566  0.2737
 5048TIP3   OH236702   6.102   3.875   1.191  0.4230 -0.3397  0.6452
 5048TIP3    H136703   6.195   3.858   1.206  0.4483  0.1520  1.0937
 5048TIP3    H236704   6.098   3.968   1.171  0.2618 -0.7595 -1.4910
 5049TIP3   OH236705   2.332   6.187   0.627  0.3414 -0.1958 -0.2695
 5049TIP3    H136706   2.313   6.095   0.608 -0.4766  0.1947 -1.5186
 5049TIP3    H236707   2.333   6.192   0.722 -4.1651 -0.7220  0.0296
 5050TIP3   OH236708   0.438   4.399   1.036 -0.0363 -0.0958 -0.3481
 5050TIP3    H136709   0.362   4.445   1.073  0.7189 -0.0981  1.3114
 5050TIP3    H236710   0.417   4.388   0.944 -1.1379  1.7667 -0.3682
 5051TIP3   OH236711   1.508   4.527   2.362 -0.4888  0.1581 -0.1982
 5051TIP3    H136712   1.552   4.592   2.416 -1.3923 -0.6490  1.6093
 5051TIP3    H236713   1.490   4.454   2.422 -0.2393 -1.4309 -1.9447
 5052TIP3   OH236714   3.127   2.039   0.257 -0.3230 -0.1575  0.3166
 5052TIP3    H136715   3.063   2.104   0.227  0.4344  0.1917 -0.6357
 5052TIP3    H236716   3.121   1.968   0.193  0.9693  0.3676 -0.4403
 5053TIP3   OH236717   4.053   6.094   1.723  0.6312 -0.0335 -0.2062
 5053TIP3    H136718   4.027   6.002   1.712  1.6373 -0.4150  0.4907
 5053TIP3    H236719   4.061   6.127   1.633  0.5858 -0.7268 -0.4709
 5054TIP3   OH236720   4.013   1.602   0.385 -0.8890 -0.0145 -0.0657
 5054TIP3    H136721   3.976   1.521   0.349  1.2902 -1.9840  1.7401
 5054TIP3    H236722   4.068   1.572   0.458 -0.2098  3.1624  0.8707
 5055TIP3   OH236723   5.642   6.446   2.012  0.1690  0.5445  0.3657
 5055TIP3    H136724   5.614   6.454   2.103 -1.9657  1.2632 -0.2748
 5055TIP3    H236725   5.665   6.535   1.986  0.3936  0.4128  0.1088
 5056TIP3   OH236726   2.176   2.138   0.548  0.3429  0.5996  0.0097
 5056TIP3    H136727   2.111   2.073   0.573  1.6210  0.0350  2.1148
 5056TIP3    H236728   2.244   2.088   0.503 -0.0775  0.9985 -1.1040
 5057TIP3   OH236729   4.343   1.385   3.418  0.0428  0.4818  0.1101
 5057TIP3    H136730   4.379   1.445   3.353 -2.0954  1.8440  0.0903
 5057TIP3    H236731   4.405   1.388   3.490  2.0769 -0.4766 -1.5004
 5058TIP3   OH236732   3.299   6.947   8.199  0.2238 -0.0961 -0.4912
 5058TIP3    H136733   3.333   6.983   8.281 -0.9661  1.1301 -0.4886
 5058TIP3    H236734   3.374   6.904   8.158  1.5142  1.6074 -0.0160
 5059TIP3   OH236735   3.578   4.809   4.760 -0.4522 -0.8880 -0.4512
 5059TIP3    H136736   3.493   4.842   4.790 -0.4214  0.6847 -1.9542
 5059TIP3    H236737   3.560   4.768   4.676  0.2193 -0.9742 -0.5597
 5060TIP3   OH236738   3.114   6.220   3.468 -0.4338 -0.0372  0.1270
 5060TIP3    H136739   3.206   6.223   3.441  0.2582 -2.1770  1.9542
 5060TIP3    H236740   3.077   6.302   3.435  1.8049  0.3539 -1.6932
 5061TIP3   OH236741   2.167   3.222   1.882  0.1465  0.4494 -0.1628
 5061TIP3    H136742   2.082   3.257   1.858 -0.0473  0.7206  0.8587
 5061TIP3    H236743   2.157   3.195   1.973  0.5530 -1.4746 -0.6413
 5062TIP3   OH236744   1.554   4.223   3.479 -0.4928  0.7252 -0.4620
 5062TIP3    H136745   1.532   4.312   3.453 -2.3103  0.1900 -0.8774
 5062TIP3    H236746   1.533   4.219   3.572 -3.5649 -0.1092 -1.0854
 5063TIP3   OH236747   1.562   3.570   0.573 -0.1096  0.1789  0.6495
 5063TIP3    H136748   1.527   3.635   0.513  2.0004  1.3168  0.5315
 5063TIP3    H236749   1.569   3.615   0.657  0.5800 -0.1595  0.7853
 5064TIP3   OH236750   6.802   4.535   3.980  0.1428  0.2955 -0.2630
 5064TIP3    H136751   6.896   4.547   3.969  0.0752  0.9885 -0.1320
 5064TIP3    H236752   6.779   4.594   4.052 -0.6237  1.1824 -1.1969
 5065TIP3   OH236753   5.662   3.788   3.954  0.3312 -0.0345  0.5317
 5065TIP3    H136754   5.693   3.873   3.921 -2.0927  1.1885  1.1585
 5065TIP3    H236755   5.571   3.784   3.926 -0.6117 -0.8296  3.4461
 5066TIP3   OH236756   3.529   4.623   1.370 -0.0180  0.1129  0.5677
 5066TIP3    H136757   3.486   4.687   1.427 -0.2198 -0.5909  1.2251
 5066TIP3    H236758   3.588   4.575   1.428 -0.1999 -0.5943  0.1798
 5067TIP3   OH236759   1.647   2.684   2.155  0.3512 -0.1444 -0.6756
 5067TIP3    H136760   1.554   2.686   2.178  0.8098 -1.1404  1.5233
 5067TIP3    H236761   1.676   2.597   2.181  2.2948  0.7985  0.5329
 5068TIP3   OH236762   5.438   5.304   1.213  0.6512  0.0986  0.2519
 5068TIP3    H136763   5.478   5.267   1.135  1.2366 -0.3917  0.7709
 5068TIP3    H236764   5.346   5.278   1.208  0.5885  0.4418 -0.4799
 5069TIP3   OH236765   6.547   4.919   2.882 -0.7608 -0.0159  0.3068
 5069TIP3    H136766   6.529   4.827   2.866 -0.5508  0.2325 -1.5684
 5069TIP3    H236767   6.461   4.958   2.898 -1.3408  0.0580 -2.4786
 5070TIP3   OH236768   4.474   4.618   0.244  0.5483  0.4446 -1.0578
 5070TIP3    H136769   4.398   4.676   0.246  0.7946  0.8320  1.7579
 5070TIP3    H236770   4.542   4.666   0.292  1.0746 -1.6969  0.5225
 5071TIP3   OH236771   2.616   5.876   2.096  0.1024 -0.2031  0.1032
 5071TIP3    H136772   2.555   5.947   2.118  0.8938  0.6904 -0.5425
 5071TIP3    H236773   2.624   5.880   2.001 -0.8148 -1.9902 -0.0979
 5072TIP3   OH236774   6.406   0.245   0.025 -0.2365  0.6852 -0.3618
 5072TIP3    H136775   6.470   0.311   0.051 -0.6018  0.6432  0.6584
 5072TIP3    H236776   6.352   0.289  -0.041  0.4667  0.9064 -0.8084
 5073TIP3   OH236777   4.223   5.953   1.923 -0.7420  0.7102  0.8424
 5073TIP3    H136778   4.279   6.031   1.927  1.2037 -0.5400 -0.2609
 5073TIP3    H236779   4.237   5.909   2.007  0.4914  0.0945  0.3460
 5074TIP3   OH236780   3.818   2.206   0.687  0.8516  0.2346  0.5940
 5074TIP3    H136781   3.865   2.133   0.648 -0.3018 -0.1419 -0.1529
 5074TIP3    H236782   3.732   2.204   0.645 -0.0063  0.6019  2.2663
 5075TIP3   OH236783   4.303   1.183   2.791  0.2987  0.1572 -0.0567
 5075TIP3    H136784   4.209   1.167   2.780  0.1962  0.4853  0.3076
 5075TIP3    H236785   4.320   1.263   2.741  0.4499 -0.0749 -0.3822
 5076TIP3   OH236786   5.379   5.435   0.611 -0.6193  0.4261  0.1434
 5076TIP3    H136787   5.327   5.398   0.539 -1.5443  1.4360  0.2631
 5076TIP3    H236788   5.469   5.434   0.579 -0.8239 -0.5024 -0.4374
 5077TIP3   OH236789   4.329   5.811   0.125  0.5622  0.5642  0.7929
 5077TIP3    H136790   4.257   5.764   0.083  0.2364 -0.1561  2.0920
 5077TIP3    H236791   4.320   5.901   0.096  1.1181 -0.1096 -1.6704
 5078TIP3   OH236792   5.995   1.798   1.285  0.1117 -0.2886  0.1744
 5078TIP3    H136793   6.082   1.759   1.276 -0.6233 -1.4568 -3.2266
 5078TIP3    H236794   5.934   1.725   1.277 -1.2166  0.9681 -2.1952
 5079TIP3   OH236795   6.134   3.485   1.871  0.5664 -0.1451  0.1847
 5079TIP3    H136796   6.214   3.535   1.881  0.4033  0.0438  0.5871
 5079TIP3    H236797   6.076   3.519   1.940 -1.4063  2.6533 -2.5986
 5080TIP3   OH236798   3.759   4.177   2.787 -0.0779 -0.7021  0.2264
 5080TIP3    H136799   3.785   4.142   2.871 -0.7403 -1.5233  0.1007
 5080TIP3    H236800   3.711   4.258   2.808  0.0771 -0.7105  0.6067
 5081TIP3   OH236801   6.130   6.670   2.304  0.8379 -0.2937 -0.4578
 5081TIP3    H136802   6.075   6.639   2.376  1.3544 -2.2179 -0.8394
 5081TIP3    H236803   6.098   6.622   2.227 -0.0971  2.1468 -1.7161
 5082TIP3   OH236804   3.697   5.980   0.831 -0.4248 -0.2924 -0.1585
 5082TIP3    H136805   3.621   5.938   0.792  0.6637 -0.3055 -2.4381
 5082TIP3    H236806   3.663   6.060   0.871 -1.8354 -1.0860  0.2914
 5083TIP3   OH236807   6.221   2.087   8.070 -0.1923 -0.5361  0.6140
 5083TIP3    H136808   6.305   2.093   8.116  0.4941 -2.7121 -0.2314
 5083TIP3    H236809   6.236   2.129   7.985 -0.4548  0.4510  1.0381
 5084TIP3   OH236810   3.701   3.164   2.401 -0.0643 -0.0825  0.5799
 5084TIP3    H136811   3.624   3.120   2.436  0.1404  0.8801  2.3677
 5084TIP3    H236812   3.667   3.222   2.333 -0.5230 -1.7423 -0.6667
 5085TIP3   OH236813   2.955   1.059   0.041  0.5240 -0.1364 -0.0447
 5085TIP3    H136814   2.945   1.149   0.072  2.3917 -0.0257  0.3777
 5085TIP3    H236815   2.993   1.069  -0.046  1.4780 -0.4957  0.3166
 5086TIP3   OH236816   5.301   6.090   0.653  0.3476 -0.9088 -0.0990
 5086TIP3    H136817   5.352   6.165   0.685 -1.1725 -0.2632  0.9443
 5086TIP3    H236818   5.211   6.123   0.649 -0.0508 -2.0733 -1.6782
 5087TIP3   OH236819   1.246   3.120   0.600 -0.0935 -0.5851 -0.8193
 5087TIP3    H136820   1.260   3.214   0.600  1.3270 -0.7583 -0.1526
 5087TIP3    H236821   1.205   3.101   0.516  3.5653  0.1437 -2.9869
 5088TIP3   OH236822   4.658   1.964   1.845  0.1075  0.3143  0.3190
 5088TIP3    H136823   4.611   1.932   1.768  2.4983 -3.6556  0.2438
 5088TIP3    H236824   4.733   2.012   1.809 -0.8678  1.9193  0.3419
 5089TIP3   OH236825   1.166   1.958   0.574  0.4520 -0.3831  0.4557
 5089TIP3    H136826   1.085   1.962   0.521 -0.0336 -0.7341  1.1615
 5089TIP3    H236827   1.203   2.046   0.566 -0.4596  0.0514  0.8222
 5090TIP3   OH236828   1.501   1.556   0.916 -0.2452 -0.1380 -0.0197
 5090TIP3    H136829   1.568   1.500   0.954 -1.7338 -0.8043  1.8064
 5090TIP3    H236830   1.480   1.515   0.832  1.3142 -0.1347 -0.4247
 5091TIP3   OH236831   6.874   6.472   0.713 -0.3043 -0.1341  0.1693
 5091TIP3    H136832   6.859   6.395   0.658  0.7732 -0.2524  0.0253
 5091TIP3    H236833   6.793   6.523   0.705 -0.1720 -0.1298 -1.5517
 5092TIP3   OH236834   3.449   4.860   2.877 -0.0366  0.1064  0.0111
 5092TIP3    H136835   3.400   4.828   2.953 -3.2100  0.7425 -1.6067
 5092TIP3    H236836   3.456   4.954   2.890  2.0535 -0.1134  0.8464
 5093TIP3   OH236837   6.090   3.271   2.384 -0.0025 -0.4673  0.0960
 5093TIP3    H136838   6.067   3.287   2.292 -3.0023 -2.2845  0.4166
 5093TIP3    H236839   6.172   3.223   2.380  0.5461  0.4965 -1.5315
 5094TIP3   OH236840   6.784   2.149   2.074 -0.4905 -0.4874 -0.4258
 5094TIP3    H136841   6.824   2.229   2.042 -0.1546 -0.5546 -0.1778
 5094TIP3    H236842   6.856   2.086   2.078 -0.7898 -0.8658 -0.8267
 5095TIP3   OH236843   4.083   6.159   0.313  0.1450  0.3814  0.1828
 5095TIP3    H136844   4.057   6.246   0.283 -1.5282  0.6748  2.1985
 5095TIP3    H236845   4.027   6.099   0.264 -0.3037  0.6142  0.4015
 5096TIP3   OH236846   1.313   6.006   8.004  0.7239 -0.0910  0.8656
 5096TIP3    H136847   1.254   6.081   8.004 -0.2919 -0.8697  0.9566
 5096TIP3    H236848   1.399   6.043   7.986 -0.0649  0.8596 -1.2094
 5097TIP3   OH236849   1.377   5.923   1.735  0.2404 -0.0142 -0.1757
 5097TIP3    H136850   1.424   5.885   1.810  2.3702  0.0490 -1.3953
 5097TIP3    H236851   1.340   6.004   1.770 -0.1678 -0.7509  1.1972
 5098TIP3   OH236852   0.034   6.446   3.421 -0.4274 -0.0653 -0.4778
 5098TIP3    H136853  -0.053   6.473   3.451 -1.6539 -3.6590 -0.3651
 5098TIP3    H236854   0.060   6.376   3.481  3.3267  1.7543  0.3925
 5099TIP3   OH236855   4.726   5.883   2.391  0.1625 -0.1670  0.6920
 5099TIP3    H136856   4.798   5.851   2.446 -0.1657  0.7440  1.6958
 5099TIP3    H236857   4.768   5.945   2.331  0.7287 -2.0389 -0.9851
 5100TIP3   OH236858   4.736   6.894   2.400  0.4531  0.4394  0.7419
 5100TIP3    H136859   4.815   6.844   2.421  0.3727 -0.3149 -0.5914
 5100TIP3    H236860   4.758   6.985   2.420  1.4093  0.1499  1.0405
 5101TIP3   OH236861   5.468   2.944   1.156  0.2483 -0.0114 -0.3096
 5101TIP3    H136862   5.449   3.001   1.081 -3.3872 -0.6258 -0.0376
 5101TIP3    H236863   5.508   2.866   1.118 -1.6207 -0.3548 -1.7409
 5102TIP3   OH236864   5.883   2.110   2.340 -0.6695 -0.6199  0.0002
 5102TIP3    H136865   5.930   2.193   2.339 -0.1607 -0.8407  1.8805
 5102TIP3    H236866   5.942   2.049   2.295 -0.1628 -0.3929  0.3457
 5103TIP3   OH236867   2.116   2.787   1.942  0.3937 -0.0540 -0.3987
 5103TIP3    H136868   2.179   2.848   1.905 -0.4290  0.5681 -0.8107
 5103TIP3    H236869   2.052   2.773   1.872 -0.8705  0.6860  0.5525
 5104TIP3   OH236870   3.089   4.080   1.667  0.4998  0.3210 -0.2160
 5104TIP3    H136871   3.156   4.012   1.677  0.4988 -0.2031 -2.8882
 5104TIP3    H236872   3.062   4.073   1.575  0.1111  3.6094 -0.4637
 5105TIP3   OH236873   6.061   2.312   2.063  0.1893 -0.7513  0.5323
 5105TIP3    H136874   5.968   2.305   2.042  0.5692 -1.9434 -0.9272
 5105TIP3    H236875   6.063   2.335   2.156 -1.5579 -0.3157  0.4942
 5106TIP3   OH236876   1.435   6.406   4.736  0.4006  0.4404 -0.3291
 5106TIP3    H136877   1.372   6.337   4.716  1.5855 -1.0012  0.6393
 5106TIP3    H236878   1.519   6.359   4.745  0.8228  1.5969  2.8799
 5107TIP3   OH236879   3.914   3.556   3.089  0.0258  0.2547 -0.0957
 5107TIP3    H136880   3.978   3.620   3.059 -0.5063  0.3986 -0.9787
 5107TIP3    H236881   3.853   3.547   3.015 -1.2472  0.5039  0.8964
 5108TIP3   OH236882   5.457   2.428   8.154  0.1444  0.6613 -1.1213
 5108TIP3    H136883   5.547   2.414   8.125  0.0633  0.3600 -1.2249
 5108TIP3    H236884   5.453   2.521   8.177  0.5436  0.6282 -0.9081
 5109TIP3   OH236885   6.725   5.867   0.136 -0.1493 -0.2970 -0.0783
 5109TIP3    H136886   6.630   5.859   0.146 -0.3378 -2.4270 -2.6457
 5109TIP3    H236887   6.738   5.913   0.053  1.0669 -0.3561  0.0493
 5110TIP3   OH236888   2.582   2.988   4.164  0.0384  0.4877 -0.2204
 5110TIP3    H136889   2.491   2.977   4.190  0.1400 -0.5021 -0.2332
 5110TIP3    H236890   2.579   3.041   4.084 -0.3991  1.9373  0.7191
 5111TIP3   OH236891   6.507   6.154   3.656  0.3266 -0.6919  0.1915
 5111TIP3    H136892   6.538   6.239   3.688 -0.4903 -0.2364 -0.1604
 5111TIP3    H236893   6.426   6.139   3.704 -0.5614 -0.3160 -1.1311
 5112TIP3   OH236894   4.554   3.831   1.062 -0.5199  0.8231  0.1848
 5112TIP3    H136895   4.567   3.912   1.012 -1.5085  1.0030  0.1975
 5112TIP3    H236896   4.479   3.788   1.019  0.5196 -0.5096 -0.3584
 5113TIP3   OH236897   6.593   1.868   0.070  0.2252  0.1686 -0.5200
 5113TIP3    H136898   6.546   1.785   0.058 -0.0419  0.3987 -1.0551
 5113TIP3    H236899   6.583   1.914  -0.013  1.7507  0.0491 -0.8063
 5114TIP3   OH236900   5.923   0.609   1.893  0.2713  0.9149  0.0366
 5114TIP3    H136901   5.880   0.524   1.891 -1.5986  1.8127  0.1965
 5114TIP3    H236902   5.984   0.606   1.819  1.0051 -0.9098  0.6563
 5115TIP3   OH236903   0.883   5.734   1.136  0.1479 -0.0174 -0.1897
 5115TIP3    H136904   0.860   5.674   1.064  2.4257  1.5889 -2.4166
 5115TIP3    H236905   0.864   5.821   1.101  2.9484  0.9219  0.3810
 5116TIP3   OH236906   1.336   5.624   8.348  0.2245  0.3542 -0.1500
 5116TIP3    H136907   1.429   5.649   8.352  0.1624  0.4725  0.5983
 5116TIP3    H236908   1.310   5.644   8.258  1.3283 -1.1419 -0.8599
 5117TIP3   OH236909   6.357   4.762   2.461  0.0593  0.1191 -0.3130
 5117TIP3    H136910   6.443   4.795   2.433 -0.4491  1.9039  0.0912
 5117TIP3    H236911   6.302   4.767   2.383  0.0888 -0.1905 -0.3548
 5118TIP3   OH236912   2.923   0.331   8.442  0.0318  0.2579 -0.1357
 5118TIP3    H136913   2.979   0.359   8.370  1.3746 -0.9813  0.3624
 5118TIP3    H236914   2.969   0.362   8.521 -0.5726  0.1847  0.2528
 5119TIP3   OH236915   0.555   0.662   3.415 -0.1852  0.8082  0.4774
 5119TIP3    H136916   0.586   0.694   3.330  2.1709  0.0474  0.9939
 5119TIP3    H236917   0.484   0.601   3.393 -1.8805  3.0321 -0.7139
 5120TIP3   OH236918   2.096   1.383   1.977  0.2066  0.1455  0.1676
 5120TIP3    H136919   2.159   1.446   2.012  0.9332 -0.8046  0.6265
 5120TIP3    H236920   2.148   1.305   1.958 -0.8556 -0.7343  0.7364
 5121TIP3   OH236921   2.272   0.333   3.480  0.2651 -0.1107  0.2243
 5121TIP3    H136922   2.198   0.372   3.433  0.2217  0.1397  0.4954
 5121TIP3    H236923   2.344   0.336   3.417  0.2328  0.3105  0.2007
 5122TIP3   OH236924   6.050   3.441   0.818  0.2585  0.6732 -0.0527
 5122TIP3    H136925   6.088   3.518   0.776  0.4921 -0.6722 -2.5435
 5122TIP3    H236926   6.108   3.369   0.792 -1.3617 -0.7236  0.0151
 5123TIP3   OH236927   5.417   1.630   0.944  0.0044  0.2493  0.2279
 5123TIP3    H136928   5.472   1.676   0.880  2.4949 -0.8504  1.4598
 5123TIP3    H236929   5.399   1.545   0.903  0.2785  0.1441  0.3209
 5124TIP3   OH236930   3.751   0.721   4.128 -0.0351 -0.0001  0.0549
 5124TIP3    H136931   3.846   0.716   4.135 -0.1821 -2.1657  1.5692
 5124TIP3    H236932   3.729   0.807   4.163  1.3598  0.6991 -0.6991
 5125TIP3   OH236933   4.181   1.514   0.593  0.0117 -0.1223 -0.1644
 5125TIP3    H136934   4.102   1.531   0.645 -0.7170 -0.2941 -1.2004
 5125TIP3    H236935   4.253   1.547   0.648 -0.9105  1.6538  0.0408
 5126TIP3   OH236936   0.487   6.891   1.135  0.3617  0.0711  0.5269
 5126TIP3    H136937   0.483   6.816   1.076  1.0472 -0.1375  0.7330
 5126TIP3    H236938   0.490   6.967   1.076  0.5534 -0.1116  0.2969
 5127TIP3   OH236939   0.292   4.937   0.366 -0.1529 -0.6836  0.0578
 5127TIP3    H136940   0.313   4.847   0.343 -0.9862 -1.0065  0.5070
 5127TIP3    H236941   0.259   4.976   0.285 -1.5568 -1.3386  0.2960
 5128TIP3   OH236942   2.702   5.449   2.466 -0.2038 -0.2207 -0.1601
 5128TIP3    H136943   2.793   5.467   2.442 -0.1198  0.3431  0.5545
 5128TIP3    H236944   2.653   5.458   2.384  0.0867  1.6283 -0.1844
 5129TIP3   OH236945   4.940   1.609   3.621  0.2700  0.4136  0.0803
 5129TIP3    H136946   4.900   1.540   3.673 -1.6760  0.3551 -1.3831
 5129TIP3    H236947   5.028   1.576   3.600 -0.3019 -1.2335  0.1552
 5130TIP3   OH236948   5.343   4.396   3.526  0.2954 -0.4677  0.0049
 5130TIP3    H136949   5.251   4.371   3.515  0.1028  0.6604 -1.1727
 5130TIP3    H236950   5.388   4.313   3.540 -0.5835 -1.3228 -1.8002
 5131TIP3   OH236951   3.431   6.408   2.669 -0.6614  0.0967  0.5961
 5131TIP3    H136952   3.424   6.467   2.745  0.7027  1.6050 -0.3913
 5131TIP3    H236953   3.455   6.323   2.707 -2.5147  0.1376  2.0376
 5132TIP3   OH236954   1.259   2.588   3.565 -0.5706 -0.5261  0.4437
 5132TIP3    H136955   1.287   2.572   3.655  0.3849  1.2474  0.5235
 5132TIP3    H236956   1.321   2.539   3.512 -1.1088 -1.5452  0.7459
 5133TIP3   OH236957   2.342   5.137   8.114  0.6882 -0.0486 -0.0323
 5133TIP3    H136958   2.301   5.108   8.032  0.0298  0.9230 -0.0634
 5133TIP3    H236959   2.284   5.104   8.183  0.7597 -0.1011  0.0029
 5134TIP3   OH236960   1.805   0.506   1.998  0.4804 -0.6013  0.1039
 5134TIP3    H136961   1.749   0.471   1.928  2.1327 -1.4659 -0.8374
 5134TIP3    H236962   1.817   0.432   2.058 -0.3632 -0.0606  0.9754
 5135TIP3   OH236963   2.909   4.538   1.700 -0.3404 -0.3602  0.2175
 5135TIP3    H136964   2.954   4.539   1.615 -0.9565  0.2724 -0.1106
 5135TIP3    H236965   2.979   4.553   1.764 -0.2057  1.8593 -0.3667
 5136TIP3   OH236966   5.357   0.574   2.039 -0.2154 -0.2393  0.1626
 5136TIP3    H136967   5.357   0.667   2.061 -1.1029 -0.1327 -0.2425
 5136TIP3    H236968   5.332   0.530   2.120 -0.5873 -0.0650  0.1431
 5137TIP3   OH236969   2.751   0.896   4.001 -0.2635 -0.5409 -0.0762
 5137TIP3    H136970   2.841   0.863   4.001 -0.0135  0.1133 -0.7195
 5137TIP3    H236971   2.735   0.921   4.092 -0.1503 -1.5911  0.2392
 5138TIP3   OH236972   3.478   2.783   0.500 -0.3052  0.1933 -0.7009
 5138TIP3    H136973   3.452   2.875   0.490  0.8706  0.3896 -2.5543
 5138TIP3    H236974   3.569   2.787   0.531 -0.1867 -0.3136 -0.9639
 5139TIP3   OH236975   4.407   4.786   2.451 -0.1879  0.2686  0.4102
 5139TIP3    H136976   4.332   4.780   2.510 -0.4983  1.9589  0.2443
 5139TIP3    H236977   4.370   4.771   2.364  0.3781 -2.9229  0.5825
 5140TIP3   OH236978   3.744   2.701   1.937 -0.0492  0.3693  0.3866
 5140TIP3    H136979   3.782   2.652   2.009  1.9202  1.2208 -0.0243
 5140TIP3    H236980   3.685   2.764   1.980 -0.2119 -0.2585  1.1076
 5141TIP3   OH236981   6.302   6.804   2.474  0.5289 -0.0157 -0.2214
 5141TIP3    H136982   6.376   6.846   2.431  0.7112  0.2424  0.3272
 5141TIP3    H236983   6.238   6.791   2.405 -0.1841  2.5945 -0.1707
 5142TIP3   OH236984   1.949   3.540   1.511 -0.6705  0.1828 -0.0330
 5142TIP3    H136985   2.003   3.597   1.565 -0.5238 -0.2182  0.2544
 5142TIP3    H236986   1.860   3.570   1.526 -0.5580  0.6398 -0.2565
 5143TIP3   OH236987   1.434   2.449   0.918 -0.2348 -0.1073 -0.0918
 5143TIP3    H136988   1.350   2.409   0.940 -0.3360  0.4373  0.5504
 5143TIP3    H236989   1.442   2.438   0.823  0.4104 -2.9353  0.1972
 5144TIP3   OH236990   4.188   3.736   3.750  0.1068 -0.2213  0.2084
 5144TIP3    H136991   4.228   3.785   3.678  0.1390  0.4115  0.6458
 5144TIP3    H236992   4.129   3.674   3.708 -1.2521  1.3764 -0.3122
 5145TIP3   OH236993   6.087   4.493   1.618 -0.4477 -0.3978 -0.6336
 5145TIP3    H136994   6.013   4.525   1.671 -0.3844 -1.9228  0.4524
 5145TIP3    H236995   6.076   4.398   1.618  0.5036 -0.5230 -2.0170
 5146TIP3   OH236996   6.604   5.563   2.021 -0.1476 -0.0746 -0.0439
 5146TIP3    H136997   6.667   5.492   2.031 -0.4071 -0.7802 -2.6337
 5146TIP3    H236998   6.518   5.521   2.031 -0.2871  0.4547  1.2110
 5147TIP3   OH236999   5.206   5.650   2.919  0.2038 -0.0741  0.2131
 5147TIP3    H137000   5.156   5.620   2.996  2.6841 -0.3363  1.8398
 5147TIP3    H237001   5.235   5.569   2.877  0.4750  0.0633  0.1336
 5148TIP3   OH237002   5.439   1.416   3.262  0.7447  1.0216  0.3973
 5148TIP3    H137003   5.415   1.502   3.296 -0.8497  0.3783  0.9949
 5148TIP3    H237004   5.358   1.381   3.226  1.7903  0.5240 -1.6112
 5149TIP3   OH237005   3.367   2.782   2.493 -0.2059  0.1987 -0.3648
 5149TIP3    H137006   3.311   2.831   2.553  0.5605  2.1212 -1.1598
 5149TIP3    H237007   3.391   2.703   2.543 -0.3893  1.2372  1.4741
 5150TIP3   OH237008   2.499   6.791   0.254  0.3370  0.6049  0.3940
 5150TIP3    H137009   2.449   6.814   0.333  1.1849  2.7353  0.3738
 5150TIP3    H237010   2.432   6.774   0.188 -0.3857 -1.1973  1.5248
 5151TIP3   OH237011   5.168   0.458   1.072 -0.6097  0.1562  0.3008
 5151TIP3    H137012   5.083   0.502   1.066 -0.5195  0.2797 -0.0370
 5151TIP3    H237013   5.232   0.529   1.079 -0.3413  0.1356 -1.5850
 5152TIP3   OH237014   3.637   1.951   3.026 -0.1415  0.1008  0.2623
 5152TIP3    H137015   3.581   2.014   2.981 -0.9922 -0.2986  0.7368
 5152TIP3    H237016   3.608   1.952   3.117  0.8599  0.1344  0.6014
 5153TIP3   OH237017   3.813   2.970   1.441 -0.2691  0.0912  0.1738
 5153TIP3    H137018   3.870   2.928   1.505 -0.6677 -0.1213  0.3997
 5153TIP3    H237019   3.871   3.003   1.373  0.0510 -0.8283 -0.0100
 5154TIP3   OH237020   3.136   4.609   1.499  0.4033  0.5843  0.0031
 5154TIP3    H137021   3.171   4.606   1.410 -0.2704 -0.5734 -0.2458
 5154TIP3    H237022   3.212   4.620   1.555  0.8484  1.1781 -0.6981
 5155TIP3   OH237023   4.072   6.887   3.839  0.0853  0.2794  0.7720
 5155TIP3    H137024   4.166   6.870   3.828  0.0062 -0.3516  1.0581
 5155TIP3    H237025   4.030   6.803   3.820 -0.3408  0.2374  1.8520
 5156TIP3   OH237026   4.892   5.513   0.362 -0.1404  0.1999  0.4339
 5156TIP3    H137027   4.907   5.418   0.362  2.5864  0.5314  0.7969
 5156TIP3    H237028   4.923   5.542   0.448 -0.5241  1.4666  0.1624
 5157TIP3   OH237029   3.682   2.052   1.365 -0.1802  0.0029  0.2325
 5157TIP3    H137030   3.765   2.090   1.338  1.1990 -3.5174 -1.0943
 5157TIP3    H237031   3.661   2.095   1.448  1.6196  2.7607 -0.6192
 5158TIP3   OH237032   1.106   1.273   1.612 -0.2740 -0.3271 -0.2667
 5158TIP3    H137033   1.172   1.209   1.588 -0.2557 -0.4866  0.1888
 5158TIP3    H237034   1.030   1.221   1.637 -0.3872 -0.1629 -0.2688
 5159TIP3   OH237035   1.832   4.255   2.043  0.3261  0.1253 -0.3594
 5159TIP3    H137036   1.826   4.174   1.993  2.2014 -0.6217  0.5600
 5159TIP3    H237037   1.794   4.233   2.128  2.4440 -0.3792  0.5133
 5160TIP3   OH237038   0.843   3.558   1.112  0.2136 -0.0161  0.1419
 5160TIP3    H137039   0.845   3.574   1.017 -1.0767 -0.7927 -0.0361
 5160TIP3    H237040   0.921   3.507   1.129  1.0086  0.9963 -0.3189
 5161TIP3   OH237041   0.273   0.319   1.425 -0.0086 -0.0295  0.0561
 5161TIP3    H137042   0.216   0.290   1.495  0.6150 -0.8982  0.2240
 5161TIP3    H237043   0.348   0.260   1.429  0.1561  0.0599 -1.1804
 5162TIP3   OH237044   2.710   5.659   0.505 -0.2960  0.6519 -0.0345
 5162TIP3    H137045   2.777   5.647   0.437 -0.2190  3.2222 -0.5376
 5162TIP3    H237046   2.630   5.622   0.467  0.6491 -2.0259  0.3757
 5163TIP3   OH237047   2.483   3.342   4.231 -0.2072 -0.0020 -0.7899
 5163TIP3    H137048   2.439   3.422   4.260  4.1790  2.8633 -1.1077
 5163TIP3    H237049   2.475   3.283   4.305 -1.1923  1.8302  0.6659
 5164TIP3   OH237050   6.781   4.932   1.058  0.6275  0.0888 -0.2784
 5164TIP3    H137051   6.859   4.901   1.011  0.6666 -0.4963  0.1561
 5164TIP3    H237052   6.764   4.863   1.123  0.4400  0.7733  0.4060
 5165TIP3   OH237053   3.451   5.576   3.497  0.1970 -0.1881 -0.3016
 5165TIP3    H137054   3.476   5.668   3.500  0.8517 -0.3730  2.5442
 5165TIP3    H237055   3.516   5.531   3.551 -0.5489 -2.2166 -0.9862
 5166TIP3   OH237056   4.034   4.260   3.369 -0.2949  0.2038  0.1129
 5166TIP3    H137057   3.980   4.195   3.415  0.7259 -0.6934  0.0690
 5166TIP3    H237058   4.118   4.217   3.356 -0.2523  0.7702 -1.7685
 5167TIP3   OH237059   5.892   0.147   0.471  0.1473 -0.4303 -0.5416
 5167TIP3    H137060   5.967   0.147   0.411  1.1806 -0.5881  0.6973
 5167TIP3    H237061   5.922   0.199   0.546 -1.2162  0.0117 -0.2807
 5168TIP3   OH237062   6.626   1.503   1.995 -0.4161 -0.0817  0.1318
 5168TIP3    H137063   6.604   1.559   1.920  0.9824  2.4313  1.4595
 5168TIP3    H237064   6.710   1.463   1.971 -0.3319  0.1432  0.0488
 5169TIP3   OH237065   1.496   6.592   1.822 -0.6146 -0.1375 -0.1313
 5169TIP3    H137066   1.527   6.541   1.897  0.1332 -0.2619 -0.5155
 5169TIP3    H237067   1.443   6.531   1.771 -1.2518 -0.0123  0.3652
 5170TIP3   OH237068   2.857   1.126   1.630 -0.1665 -0.2776 -0.2905
 5170TIP3    H137069   2.849   1.069   1.706  1.1482  1.0745  0.9404
 5170TIP3    H237070   2.888   1.070   1.560 -1.4241 -1.5576  0.1283
 5171TIP3   OH237071   1.773   4.660   1.747  0.4564 -0.0991 -0.0627
 5171TIP3    H137072   1.836   4.690   1.812 -0.2091 -1.3018  1.1852
 5171TIP3    H237073   1.692   4.645   1.797 -0.5011  0.3323 -1.4206
 5172TIP3   OH237074   5.405   2.248   8.368 -0.2890 -0.4105  0.0481
 5172TIP3    H137075   5.419   2.305   8.292 -1.6456 -0.2690 -0.1269
 5172TIP3    H237076   5.311   2.227   8.365 -0.4195 -0.2431  1.7832
 5173TIP3   OH237077   4.276   1.704   2.038  0.0762  0.3513  0.1027
 5173TIP3    H137078   4.236   1.791   2.035 -0.9085 -0.1181 -0.5757
 5173TIP3    H237079   4.228   1.658   2.107 -0.6037 -0.2207 -0.7307
 5174TIP3   OH237080   0.585   4.033   8.346 -0.2714 -0.0239 -0.1684
 5174TIP3    H137081   0.552   4.005   8.432 -1.2829 -1.3320 -0.9428
 5174TIP3    H237082   0.617   3.953   8.305 -0.5600  0.4310 -1.3243
 5175TIP3   OH237083   0.593   2.402   1.668 -0.7489  0.0068 -0.1600
 5175TIP3    H137084   0.653   2.476   1.675 -0.7260 -0.1205  1.1978
 5175TIP3    H237085   0.510   2.436   1.701 -0.1296 -1.2141  2.9835
 5176TIP3   OH237086   0.851   4.810   3.204  0.0979 -0.4560 -0.0768
 5176TIP3    H137087   0.901   4.888   3.228 -1.1857  0.8729 -1.5771
 5176TIP3    H237088   0.771   4.816   3.256 -0.5391 -0.1229 -1.0841
 5177TIP3   OH237089   3.102   2.940   8.264 -0.2087  0.0874  0.7009
 5177TIP3    H137090   3.037   2.891   8.313  1.0624 -1.3449  1.0121
 5177TIP3    H237091   3.185   2.897   8.283  0.5182  0.3170 -1.6117
 5178TIP3   OH237092   4.347   2.098   2.462 -0.5089  0.3688  0.6632
 5178TIP3    H137093   4.433   2.105   2.503 -1.1917  1.5252  1.9727
 5178TIP3    H237094   4.337   2.180   2.413 -0.7832  0.1371  0.3273
 5179TIP3   OH237095   6.824   1.722   0.883 -0.1021 -0.3961  0.5673
 5179TIP3    H137096   6.849   1.721   0.791 -0.4371 -1.0347  0.4743
 5179TIP3    H237097   6.837   1.631   0.912  0.6179 -0.0695  1.3204
 5180TIP3   OH237098   6.139   1.542   2.544 -0.6720 -0.0415  0.0900
 5180TIP3    H137099   6.232   1.567   2.544 -0.4431 -0.8014 -1.0182
 5180TIP3    H237100   6.134   1.469   2.605 -0.3523 -0.6161 -0.5640
 5181TIP3   OH237101   4.310   5.431   1.410  0.3343 -0.6731 -0.2264
 5181TIP3    H137102   4.248   5.488   1.455 -1.0374 -1.2878 -1.2847
 5181TIP3    H237103   4.347   5.486   1.340  0.0666 -0.6648 -0.3617
 5182TIP3   OH237104   3.640   4.472   1.080  0.2138  0.3357  0.4460
 5182TIP3    H137105   3.565   4.475   1.140  0.4024  1.8590  0.6241
 5182TIP3    H237106   3.640   4.557   1.036 -0.7068 -1.1275 -2.7459
 5183TIP3   OH237107   6.893   4.649   2.030  0.2689  0.0204 -0.1909
 5183TIP3    H137108   6.919   4.685   2.115 -2.6103  0.8437  0.4667
 5183TIP3    H237109   6.798   4.659   2.028  0.0599 -1.5041 -2.8554
 5184TIP3   OH237110   1.821   3.651   3.384  0.2746 -0.1855  1.1978
 5184TIP3    H137111   1.751   3.658   3.449 -1.7303 -2.8720 -0.4773
 5184TIP3    H237112   1.858   3.564   3.399 -0.0293 -0.7411 -1.0190
 5185TIP3   OH237113   4.381   1.851   1.374  0.0864  0.0024 -0.1097
 5185TIP3    H137114   4.416   1.891   1.294  0.5331  0.0639  0.1122
 5185TIP3    H237115   4.309   1.797   1.344  0.0357  0.2893 -0.5181
 5186TIP3   OH237116   0.902   3.577   4.066  0.0349 -0.5578 -0.5981
 5186TIP3    H137117   0.895   3.535   4.151  1.1441  2.1998  0.9744
 5186TIP3    H237118   0.995   3.598   4.057 -0.2962  0.5417 -1.7642
 5187TIP3   OH237119   0.749   2.302   0.833 -0.2208 -0.1057 -0.0756
 5187TIP3    H137120   0.830   2.254   0.847 -0.2366 -0.1793 -0.2366
 5187TIP3    H237121   0.726   2.336   0.919  1.2516  1.9489 -0.4223
 5188TIP3   OH237122   2.359   6.477   1.911  0.0101 -0.4823 -0.0437
 5188TIP3    H137123   2.378   6.554   1.857 -0.6438  0.1844  0.6374
 5188TIP3    H237124   2.405   6.405   1.869  1.1860  0.4127 -0.3338
 5189TIP3   OH237125   0.541   4.964   1.146  0.5523  0.5737  0.1592
 5189TIP3    H137126   0.545   4.928   1.234 -0.0029 -0.1576 -0.1107
 5189TIP3    H237127   0.461   5.016   1.144 -1.0822 -1.7955 -0.7677
 5190TIP3   OH237128   4.828   2.076   1.227  0.2302  0.6085 -0.2458
 5190TIP3    H137129   4.847   2.146   1.165  1.9275 -1.0358 -1.6748
 5190TIP3    H237130   4.909   2.026   1.233 -1.3320 -2.1344 -0.4766
 5191TIP3   OH237131   3.065   4.147   0.870  0.3307  0.9708  0.4438
 5191TIP3    H137132   3.147   4.162   0.823 -0.4757  0.2536 -1.2728
 5191TIP3    H237133   3.060   4.052   0.880 -0.9788  0.8698 -0.8365
 5192TIP3   OH237134   3.603   2.394   0.704 -0.2202 -0.1072  0.0662
 5192TIP3    H137135   3.698   2.385   0.711 -0.0514  1.2402 -0.0795
 5192TIP3    H237136   3.582   2.461   0.769 -1.0822 -0.4530  0.1472
 5193TIP3   OH237137   0.838   4.865   0.908 -0.3934 -0.0255  0.4036
 5193TIP3    H137138   0.890   4.918   0.847  0.1752 -0.8896  0.1255
 5193TIP3    H237139   0.750   4.901   0.900  0.0634  1.2055  0.5910
 5194TIP3   OH237140   0.392   6.646   3.091 -0.4700  0.6865  0.1894
 5194TIP3    H137141   0.466   6.613   3.142  0.8862 -0.1635 -2.1542
 5194TIP3    H237142   0.318   6.590   3.117  0.4593 -0.4934  0.3658
 5195TIP3   OH237143   2.799   4.338   8.275 -0.3456  0.4818 -0.0185
 5195TIP3    H137144   2.771   4.421   8.236  3.7393  1.8224 -0.5203
 5195TIP3    H237145   2.885   4.320   8.237  0.2484 -2.4740  2.2933
 5196TIP3   OH237146   5.734   4.443   3.016  0.1624 -0.3030 -0.1249
 5196TIP3    H137147   5.744   4.435   2.921  0.2247 -0.3014 -0.1187
 5196TIP3    H237148   5.738   4.537   3.032  0.9946 -0.3539 -0.0301
 5197TIP3   OH237149   0.676   4.551   0.997  0.0612  0.3179 -0.1166
 5197TIP3    H137150   0.736   4.483   0.963  0.2138  0.3095  0.1666
 5197TIP3    H237151   0.590   4.509   0.997  0.1497  0.1366  0.0240
 5198TIP3   OH237152   3.075   4.660   4.345 -0.2524  0.3959  0.3959
 5198TIP3    H137153   3.156   4.630   4.386 -0.0518  0.7547  0.2691
 5198TIP3    H237154   3.044   4.731   4.402 -0.9122 -0.2700  0.8930
 5199TIP3   OH237155   2.694   2.918   0.687  0.2519  0.0527 -0.3037
 5199TIP3    H137156   2.703   2.822   0.690 -1.3090 -0.2363 -2.4827
 5199TIP3    H237157   2.781   2.949   0.662  1.2800 -0.5696  2.1495
 5200TIP3   OH237158   4.614   4.047   3.106  0.8831 -0.7148  0.1358
 5200TIP3    H137159   4.668   4.014   3.034  2.3194 -1.4984  1.5059
 5200TIP3    H237160   4.643   4.138   3.118  0.0747 -0.3223 -0.7586
 5201TIP3   OH237161   5.330   2.129   2.276  0.3138 -0.1196 -0.0307
 5201TIP3    H137162   5.249   2.179   2.270  0.1563 -0.4171 -0.4346
 5201TIP3    H237163   5.318   2.071   2.351 -0.1519 -0.7017 -0.5507
 5202TIP3   OH237164   4.081   2.709   2.144  0.0220 -0.9091 -0.3120
 5202TIP3    H137165   4.112   2.719   2.054  1.2873 -1.7093  0.0237
 5202TIP3    H237166   4.076   2.799   2.177 -0.4056 -0.6124 -1.1495
 5203TIP3   OH237167   2.639   3.404   1.927  0.0128  0.2745  0.0224
 5203TIP3    H137168   2.563   3.396   1.868  0.0137  0.7141 -0.0429
 5203TIP3    H237169   2.647   3.498   1.942  2.2896  0.5396 -2.2648
 5204TIP3   OH237170   5.846   1.434   4.301 -0.2015 -0.2938  0.1164
 5204TIP3    H137171   5.831   1.405   4.391 -0.2868  2.0074  0.9048
 5204TIP3    H237172   5.906   1.508   4.310  0.6294 -0.6756 -1.8419
 5205TIP3   OH237173   2.598   0.151   0.135  1.0780 -0.1407 -0.3000
 5205TIP3    H137174   2.619   0.173   0.045 -0.7321  1.1531 -0.4694
 5205TIP3    H237175   2.570   0.234   0.174 -1.1291 -1.1725  0.5322
 5206TIP3   OH237176   1.912   6.275   1.810 -0.0608 -0.1780  0.0732
 5206TIP3    H137177   1.995   6.228   1.798  0.0837  0.1052 -0.0384
 5206TIP3    H237178   1.935   6.353   1.859 -0.0573  0.4958 -0.9583
 5207TIP3   OH237179   5.143   4.863   2.375  0.0885 -0.1752  0.1270
 5207TIP3    H137180   5.093   4.902   2.303  1.6399  0.7813 -0.4867
 5207TIP3    H237181   5.199   4.934   2.406  0.3429 -0.9293  1.4683
 5208TIP3   OH237182   0.658   1.228   2.711 -0.1482  0.0037 -0.6048
 5208TIP3    H137183   0.580   1.187   2.748 -0.4509  1.1566  0.0888
 5208TIP3    H237184   0.647   1.219   2.616 -1.6902  1.0862 -0.5707
 5209TIP3   OH237185   5.295   3.099   3.187  0.2953 -0.4222  0.7075
 5209TIP3    H137186   5.389   3.109   3.176 -0.0739  2.4232 -0.7951
 5209TIP3    H237187   5.285   3.039   3.261  3.2355 -1.7718  0.1445
 5210TIP3   OH237188   2.491   1.028   0.575  0.3795  0.3715 -0.1242
 5210TIP3    H137189   2.551   0.994   0.508  1.4888  0.2874  0.8890
 5210TIP3    H237190   2.433   1.088   0.527  0.5370 -0.4008 -1.3258
 5211TIP3   OH237191   5.176   4.955   3.343 -0.0917  0.3963  0.3127
 5211TIP3    H137192   5.166   5.039   3.299  1.0675 -0.5140 -1.7968
 5211TIP3    H237193   5.125   4.894   3.290 -0.0540 -0.4422  1.2181
 5212TIP3   OH237194   5.302   4.338   1.839 -0.0419  0.1579  0.4774
 5212TIP3    H137195   5.210   4.334   1.815 -0.1957  0.3157  1.0412
 5212TIP3    H237196   5.330   4.246   1.842 -0.0113  0.1292 -0.3047
 5213TIP3   OH237197   4.025   2.357   1.776 -0.1233 -0.3611  0.0776
 5213TIP3    H137198   4.040   2.289   1.710 -0.0385  0.3757 -0.6704
 5213TIP3    H237199   3.934   2.343   1.804 -0.3992 -0.2084 -0.7359
 5214TIP3   OH237200   2.134   0.995   0.492 -0.0489 -0.1185 -0.3883
 5214TIP3    H137201   2.060   1.012   0.433  0.1207 -1.3383 -0.9912
 5214TIP3    H237202   2.095   0.949   0.566 -0.2810  1.5210  0.5527
 5215TIP3   OH237203   2.826   3.533   0.297  0.3879  0.3887  0.1502
 5215TIP3    H137204   2.795   3.523   0.207  0.6999 -0.3473  0.1251
 5215TIP3    H237205   2.894   3.467   0.307  0.8761  0.9687  0.6957
 5216TIP3   OH237206   3.626   4.180   3.265  0.3405 -0.5592  0.4742
 5216TIP3    H137207   3.637   4.270   3.297  0.3414 -0.8179  1.2343
 5216TIP3    H237208   3.552   4.185   3.204 -1.9800 -0.5906  3.0586
 5217TIP3   OH237209   3.060   6.108   3.718  0.1236 -0.1772  0.2779
 5217TIP3    H137210   3.146   6.117   3.759  1.0088 -0.0817 -1.4598
 5217TIP3    H237211   3.068   6.158   3.636 -1.7331  0.1667  0.2669
 5218TIP3   OH237212   1.747   6.904   1.060 -0.6305  0.0496 -0.2819
 5218TIP3    H137213   1.716   6.959   0.988  1.9534  1.6854 -0.2715
 5218TIP3    H237214   1.832   6.940   1.082 -0.2507 -2.0000  1.9538
 5219TIP3   OH237215   4.101   4.939   1.214 -0.4052  0.1326  0.0112
 5219TIP3    H137216   4.126   4.854   1.251  0.5201  0.5654  0.4176
 5219TIP3    H237217   4.080   4.993   1.291 -1.8531  0.0383 -0.2769
 5220TIP3   OH237218   1.453   2.298   2.562  0.1094  0.1615 -1.0515
 5220TIP3    H137219   1.448   2.352   2.642 -2.5271 -2.0330  0.4319
 5220TIP3    H237220   1.370   2.250   2.561  1.2916 -2.0312 -3.6071
 5221TIP3   OH237221   3.908   0.874   8.421 -0.5729 -0.0145  0.2488
 5221TIP3    H137222   3.918   0.960   8.381  0.5563 -0.9404 -1.5683
 5221TIP3    H237223   3.816   0.870   8.446 -0.9016  1.3051 -0.6373
 5222TIP3   OH237224   1.786   0.837   0.419 -0.6201  0.0534 -0.1917
 5222TIP3    H137225   1.810   0.916   0.372 -0.6540  0.1032 -0.1259
 5222TIP3    H237226   1.754   0.868   0.504  0.2647 -0.0790  0.2098
 5223TIP3   OH237227   1.152   1.998   3.193  0.0874 -0.2666 -0.0279
 5223TIP3    H137228   1.247   2.012   3.197  0.2813 -1.1470 -0.9880
 5223TIP3    H237229   1.121   2.064   3.131  0.5167 -1.7574 -1.9346
 5224TIP3   OH237230   6.881   3.704   0.259  0.7186 -0.3279  0.0665
 5224TIP3    H137231   6.947   3.687   0.192  0.7788 -0.3069  0.1211
 5224TIP3    H237232   6.829   3.623   0.262 -1.6089  0.8595 -2.6103
 5225TIP3   OH237233   1.781   5.391   0.842 -0.5454 -0.6399 -0.0033
 5225TIP3    H137234   1.755   5.372   0.932  2.4023 -0.8557  0.9227
 5225TIP3    H237235   1.777   5.486   0.835 -1.1300 -0.6439  0.2168
 5226TIP3   OH237236   5.082   3.089   0.469  0.3308  0.1344  0.0067
 5226TIP3    H137237   5.052   3.049   0.387 -0.2421  0.0346  0.2651
 5226TIP3    H237238   5.161   3.136   0.444 -0.5871  1.2626 -0.9018
 5227TIP3   OH237239   0.168   2.121   2.262 -0.2929 -0.2434  0.1643
 5227TIP3    H137240   0.235   2.068   2.219  0.0803  0.7822 -0.5641
 5227TIP3    H237241   0.206   2.145   2.346  0.4184  0.6083 -0.3806
 5228TIP3   OH237242   5.698   2.111   3.706  0.1124  0.3375 -0.0808
 5228TIP3    H137243   5.708   2.031   3.655  2.4706  0.3012  0.3073
 5228TIP3    H237244   5.760   2.173   3.667  0.1832  1.1216  1.1988
 5229TIP3   OH237245   0.414   6.936   3.016  0.2556  0.1072 -0.7163
 5229TIP3    H137246   0.421   6.844   3.040 -1.3652 -0.0950 -0.8910
 5229TIP3    H237247   0.344   6.938   2.950  0.2997  1.4583 -0.7522
 5230TIP3   OH237248   1.285   4.916   2.589 -0.5595  0.0623 -0.3274
 5230TIP3    H137249   1.331   4.952   2.665 -1.6676  1.4150 -0.2720
 5230TIP3    H237250   1.305   4.976   2.517  0.0740 -0.9364 -1.0124
 5231TIP3   OH237251   0.528   1.906   3.194  0.2841 -0.7027 -0.5734
 5231TIP3    H137252   0.489   1.903   3.107  0.1415  0.8698 -0.5932
 5231TIP3    H237253   0.615   1.943   3.179 -1.1193  3.5503  0.2750
 5232TIP3   OH237254   5.723   2.877   1.292  1.0408 -0.2891  0.2425
 5232TIP3    H137255   5.739   2.900   1.383 -0.1053 -2.2234  0.9767
 5232TIP3    H237256   5.635   2.910   1.273  1.3217  0.2179 -0.2279
 5233TIP3   OH237257   0.866   6.270   3.680 -0.3322 -0.3306  0.6019
 5233TIP3    H137258   0.953   6.276   3.641 -0.3787 -1.8760  0.1932
 5233TIP3    H237259   0.880   6.225   3.763 -0.5294  1.0020  1.3860
 5234TIP3   OH237260   2.937   2.257   3.315  0.2398 -0.4113 -0.4195
 5234TIP3    H137261   2.842   2.250   3.304 -0.1198 -0.9520  2.4690
 5234TIP3    H237262   2.953   2.351   3.323 -0.3540 -0.4308  1.1566
 5235TIP3   OH237263   3.611   4.739   2.503  0.6010 -0.6033  0.4641
 5235TIP3    H137264   3.651   4.672   2.559  1.4015  0.1326  0.7832
 5235TIP3    H237265   3.560   4.688   2.439  2.9752 -1.6836 -0.7285
 5236TIP3   OH237266   0.437   1.893   2.629 -0.7181  0.1636  0.1423
 5236TIP3    H137267   0.494   1.822   2.600 -1.6565 -1.4514  2.0625
 5236TIP3    H237268   0.496   1.968   2.641  0.6482 -0.8767  0.1399
 5237TIP3   OH237269   4.239   2.668   8.381  0.0768 -0.3613  1.0169
 5237TIP3    H137270   4.169   2.605   8.369 -0.2732  0.4837 -2.3708
 5237TIP3    H237271   4.268   2.689   8.292  1.2691  3.0110  2.0503
 5238TIP3   OH237272   4.866   2.154   3.088 -0.3199  0.4901  0.2234
 5238TIP3    H137273   4.850   2.067   3.052  1.2226  1.0566 -2.0714
 5238TIP3    H237274   4.784   2.201   3.073 -1.0794 -0.4439  1.2531
 5239TIP3   OH237275   3.698   0.351   0.524 -0.3781 -0.3577  1.0926
 5239TIP3    H137276   3.665   0.414   0.587  1.3596 -0.3945  2.1194
 5239TIP3    H237277   3.776   0.314   0.566  0.4759 -0.8479 -0.8148
 5240TIP3   OH237278   4.856   6.298   0.231  0.4894  0.0810 -0.4710
 5240TIP3    H137279   4.865   6.239   0.156 -2.4797  1.0387 -1.7743
 5240TIP3    H237280   4.903   6.377   0.205 -1.2484  0.7386 -1.8456
 5241TIP3   OH237281   0.888   3.882   1.145  0.3728 -0.1953 -0.5533
 5241TIP3    H137282   0.907   3.827   1.221  2.7708  0.7595 -0.3638
 5241TIP3    H237283   0.953   3.857   1.080  0.4412  1.2165 -1.0749
 5242TIP3   OH237284   6.164   1.210   0.844 -0.1991  0.3792  0.1474
 5242TIP3    H137285   6.069   1.221   0.851 -0.3865 -1.4117  1.2981
 5242TIP3    H237286   6.183   1.221   0.751 -1.5234  0.8184 -0.0917
 5243TIP3   OH237287   3.949   2.726   1.776  0.3284 -0.6332  0.0795
 5243TIP3    H137288   3.874   2.735   1.835 -0.2641 -1.5786 -0.4970
 5243TIP3    H237289   4.025   2.729   1.834 -0.2510 -1.8107  0.9389
 5244TIP3   OH237290   6.862   6.523   2.874  0.1767 -0.1421 -0.1686
 5244TIP3    H137291   6.772   6.508   2.903  0.3914 -1.0007  0.0850
 5244TIP3    H237292   6.893   6.436   2.848  1.1957  0.0075  0.5277
 5245TIP3   OH237293   5.412   0.897   2.873 -0.5047  0.4578 -0.2068
 5245TIP3    H137294   5.426   0.872   2.782  1.5121  0.1686  0.1314
 5245TIP3    H237295   5.407   0.814   2.920  3.2568  0.4514  0.5166
 5246TIP3   OH237296   3.204   5.481   2.838  0.1281 -0.0797 -0.3421
 5246TIP3    H137297   3.198   5.576   2.824 -0.0202  0.3202  2.0461
 5246TIP3    H237298   3.151   5.443   2.768 -1.1480  1.6753 -0.3985
 5247TIP3   OH237299   0.324   6.054   2.046 -0.0743 -0.0723 -0.2984
 5247TIP3    H137300   0.382   5.982   2.068 -0.5032 -0.5054 -0.5657
 5247TIP3    H237301   0.382   6.124   2.015  0.2957 -0.5314 -0.6434
 5248TIP3   OH237302   0.574   2.627   3.649 -0.4366 -0.1608  0.6606
 5248TIP3    H137303   0.642   2.560   3.650  1.5662  1.6857 -0.7401
 5248TIP3    H237304   0.529   2.614   3.565 -1.7809 -1.3053  1.5322
 5249TIP3   OH237305   6.654   5.299   2.925  0.3047  0.0951  0.0188
 5249TIP3    H137306   6.714   5.228   2.903 -1.0646 -0.4639 -2.1296
 5249TIP3    H237307   6.707   5.379   2.918  1.1788 -0.4961 -0.2095
 5250TIP3   OH237308   5.388   3.196   3.847 -0.0340 -0.3220 -0.1531
 5250TIP3    H137309   5.368   3.135   3.918  0.1710 -0.2337 -0.0179
 5250TIP3    H237310   5.464   3.158   3.803 -1.8326 -1.9015 -2.1402
 5251TIP3   OH237311   2.233   3.730   2.725 -0.1162  0.6687  0.7463
 5251TIP3    H137312   2.305   3.726   2.662 -0.7538  0.0433  0.0440
 5251TIP3    H237313   2.159   3.763   2.674 -0.4953  0.6981  1.3100
 5252TIP3   OH237314   4.585   5.764   0.023 -0.2553  0.5089  0.1723
 5252TIP3    H137315   4.506   5.717  -0.002 -1.0476  1.4353  0.8671
 5252TIP3    H237316   4.564   5.803   0.108  1.1123  0.3843  0.6053
 5253TIP3   OH237317   1.211   1.064   3.587 -0.1646 -0.1068  0.2352
 5253TIP3    H137318   1.157   1.019   3.652  0.0789 -1.1318 -0.2443
 5253TIP3    H237319   1.287   1.007   3.575 -0.2048  0.0568 -0.9408
 5254TIP3   OH237320   5.084   2.023   1.508 -0.0326  0.3060 -0.1150
 5254TIP3    H137321   5.102   2.091   1.573 -0.3310  2.2634 -1.9826
 5254TIP3    H237322   5.049   1.950   1.559  0.3885  1.4856  1.9822
 5255TIP3   OH237323   3.678   2.271   0.439  0.5962  0.6687 -0.5111
 5255TIP3    H137324   3.675   2.225   0.355  1.3104  0.3793 -0.3805
 5255TIP3    H237325   3.771   2.286   0.455  0.5360 -0.0719  0.6617
 5256TIP3   OH237326   5.438   0.043   1.456  0.0622 -0.2752  0.0165
 5256TIP3    H137327   5.389  -0.005   1.389 -1.1799 -1.2526  1.5602
 5256TIP3    H237328   5.463   0.124   1.412  0.1226 -1.2708 -1.9201
 5257TIP3   OH237329   4.852   5.882   3.300 -0.0669  0.0443  0.5889
 5257TIP3    H137330   4.857   5.922   3.213 -0.9478 -0.2284  0.4025
 5257TIP3    H237331   4.782   5.930   3.344  0.6148  0.4229  1.2885
 5258TIP3   OH237332   6.111   0.534   1.469  0.0251  0.0749  0.3648
 5258TIP3    H137333   6.158   0.583   1.536 -0.0804  1.1075 -0.2761
 5258TIP3    H237334   6.145   0.569   1.386 -0.1722 -0.8467 -0.1200
 5259TIP3   OH237335   0.342   1.074   3.374 -0.5626 -0.2862 -0.7415
 5259TIP3    H137336   0.293   1.000   3.339 -0.7201 -0.9728  0.8346
 5259TIP3    H237337   0.425   1.074   3.327 -1.0577 -0.6861 -1.6302
 5260TIP3   OH237338   4.231   2.481   3.096  0.1794  0.1208  0.0279
 5260TIP3    H137339   4.298   2.415   3.113  0.4487  0.4232  0.1606
 5260TIP3    H237340   4.192   2.456   3.012  0.7012  0.1423 -0.2227
 5261TIP3   OH237341   1.540   1.255   2.439  0.8469 -0.2900 -0.5316
 5261TIP3    H137342   1.475   1.271   2.507  1.4795  0.6339 -0.1286
 5261TIP3    H237343   1.537   1.161   2.425  1.2792 -0.6087  1.3466
 5262TIP3   OH237344   0.339   5.095   1.975  0.6249  0.1857 -0.2973
 5262TIP3    H137345   0.274   5.074   1.908 -0.0579 -1.1374  0.7247
 5262TIP3    H237346   0.367   5.010   2.008 -0.0479  0.7956  2.0000
 5263TIP3   OH237347   3.933   1.159   2.876  0.7931 -0.1332  0.5961
 5263TIP3    H137348   3.927   1.102   2.799  0.7527  0.4189  0.1868
 5263TIP3    H237349   3.907   1.245   2.844 -0.3040 -0.1232  1.4930
 5264TIP3   OH237350   4.309   6.788   2.976  0.0337 -0.1989 -0.0162
 5264TIP3    H137351   4.232   6.738   3.003 -3.1570  3.7874 -0.7242
 5264TIP3    H237352   4.349   6.819   3.057  1.9232 -3.3448  0.4185
 5265TIP3   OH237353   2.861   2.743   1.001  0.0880  0.2458  0.0320
 5265TIP3    H137354   2.924   2.784   0.942 -1.1044  0.1957 -1.3323
 5265TIP3    H237355   2.808   2.816   1.034  0.3941  0.2095  0.6218
 5266TIP3   OH237356   5.161   3.038   2.080 -0.5549  0.4791 -0.3878
 5266TIP3    H137357   5.127   3.033   1.991  0.8046  1.2254 -0.9848
 5266TIP3    H237358   5.239   2.983   2.079 -0.1084  1.0866  0.1244
 5267TIP3   OH237359   0.223   4.603   1.144  0.1007 -0.2226  0.4242
 5267TIP3    H137360   0.229   4.610   1.239  0.1429  0.3061  0.3850
 5267TIP3    H237361   0.197   4.690   1.115  0.7874 -0.1842 -0.1071
 5268TIP3   OH237362   4.870   3.240   0.449  0.2892 -0.4738  0.4536
 5268TIP3    H137363   4.859   3.246   0.354 -0.2699  0.6695  0.5802
 5268TIP3    H237364   4.955   3.198   0.461 -0.3497 -2.1777 -0.5466
 5269TIP3   OH237365   6.749   1.504   1.244 -0.3080 -0.2026  0.6141
 5269TIP3    H137366   6.768   1.470   1.332 -0.6448  0.9539  1.1661
 5269TIP3    H237367   6.832   1.496   1.197 -0.8380 -3.5162  0.0416
 5270TIP3   OH237368   1.619   0.542   3.461  0.1545 -0.1528  0.9791
 5270TIP3    H137369   1.701   0.583   3.487  0.6216 -0.0362 -0.5739
 5270TIP3    H237370   1.551   0.594   3.504  0.8210  0.8567  0.8451
 5271TIP3   OH237371   6.205   3.722   2.360  0.3980 -0.0330 -0.6522
 5271TIP3    H137372   6.208   3.730   2.455 -1.1372 -0.0633 -0.5742
 5271TIP3    H237373   6.122   3.762   2.335  0.7879  0.0024 -1.9917
 5272TIP3   OH237374   2.115   0.950   4.138 -0.0297 -0.0895  0.0690
 5272TIP3    H137375   2.167   1.031   4.135  0.1215  0.0543  3.3398
 5272TIP3    H237376   2.180   0.880   4.143 -0.1129 -0.0926  1.3961
 5273TIP3   OH237377   6.474   3.363   3.516  0.5724  0.0167  0.7372
 5273TIP3    H137378   6.443   3.359   3.606 -0.0923 -1.0740  0.4797
 5273TIP3    H237379   6.526   3.284   3.504  3.3404  1.6302  1.0550
 5274TIP3   OH237380   3.849   0.069   3.758 -0.1816 -0.1220  0.1622
 5274TIP3    H137381   3.887   0.049   3.673 -0.0531  1.1809 -0.1129
 5274TIP3    H237382   3.914   0.038   3.821  0.4207  0.2647 -0.2569
 5275TIP3   OH237383   1.670   3.940   4.013 -0.1718 -0.1306 -0.5810
 5275TIP3    H137384   1.641   3.946   3.922 -0.0171 -2.1120 -0.8006
 5275TIP3    H237385   1.759   3.976   4.012 -0.5692  0.8800 -0.9725
 5276TIP3   OH237386   5.981   1.847   0.707  0.0713 -0.1788 -0.4379
 5276TIP3    H137387   6.071   1.879   0.703 -0.3069  1.1833  0.9465
 5276TIP3    H237388   5.968   1.801   0.624  1.3840  1.3797 -1.5690
 5277TIP3   OH237389   5.982   0.631   2.870 -0.2098 -0.3803  0.5478
 5277TIP3    H137390   5.982   0.698   2.802 -0.5788 -0.9402 -0.0125
 5277TIP3    H237391   6.016   0.675   2.948 -1.6544  0.8196  0.5436
 5278TIP3   OH237392   4.092   0.091   3.005 -0.1647 -0.4890 -0.3731
 5278TIP3    H137393   4.152   0.081   3.079 -0.0944  1.0981 -0.1890
 5278TIP3    H237394   4.148   0.081   2.927  1.2959  4.5525 -0.3265
 5279TIP3   OH237395   6.583   3.080   3.682  0.0343  0.1328 -0.1442
 5279TIP3    H137396   6.511   3.020   3.660  0.4439 -0.4815  0.1604
 5279TIP3    H237397   6.626   3.097   3.598  0.6221 -0.9356 -0.0769
 5280TIP3   OH237398   5.542   6.511   2.365 -0.4314 -0.6214  0.4632
 5280TIP3    H137399   5.566   6.419   2.353  0.7453 -0.3603  0.7161
 5280TIP3    H237400   5.600   6.542   2.435  0.5134  0.8049 -0.8983
 5281TIP3   OH237401   3.647   1.314   4.674 -0.1288 -0.0754  0.6106
 5281TIP3    H137402   3.693   1.325   4.591  0.5196 -1.6926  0.7227
 5281TIP3    H237403   3.608   1.400   4.691 -0.3220  0.2781 -1.3734
 5282TIP3   OH237404   0.381   2.258   3.822  0.1608  0.1026  0.8372
 5282TIP3    H137405   0.394   2.228   3.911  0.8232 -1.0284  0.3833
 5282TIP3    H237406   0.312   2.201   3.787 -0.3769  0.8000  0.7396
 5283TIP3   OH237407   2.590   4.166   8.339 -0.2570 -0.0922 -0.2897
 5283TIP3    H137408   2.650   4.233   8.304 -0.0219 -0.0836  0.1318
 5283TIP3    H237409   2.521   4.216   8.382  0.5401 -0.1325  1.0648
 5284TIP3   OH237410   1.666   0.121   8.049  0.6763 -0.2845 -0.6758
 5284TIP3    H137411   1.641   0.114   8.141 -1.2569  0.9569 -1.0447
 5284TIP3    H237412   1.743   0.065   8.041  1.7151  0.6166  1.9545
 5285TIP3   OH237413   0.692   4.091   3.694  0.1088 -0.6670 -0.1670
 5285TIP3    H137414   0.759   4.033   3.729 -0.7149 -2.0800 -0.8456
 5285TIP3    H237415   0.718   4.109   3.604  1.5906  1.9944  0.6855
 5286TIP3   OH237416   3.359   1.020   0.751  0.7618  0.2627  0.1158
 5286TIP3    H137417   3.313   1.011   0.835  1.6167  0.5401  0.6269
 5286TIP3    H237418   3.450   1.038   0.776  1.0541  0.1753 -0.8763
 5287TIP3   OH237419   2.261   3.678   1.877 -0.0829 -0.0220  0.4527
 5287TIP3    H137420   2.258   3.766   1.915  0.9448  0.0430  0.4092
 5287TIP3    H237421   2.353   3.665   1.855  0.0217 -1.6592  1.7105
 5288TIP3   OH237422   0.422   4.835   2.070 -0.0990 -0.1771  0.2794
 5288TIP3    H137423   0.366   4.759   2.052 -2.5711  1.4200  0.6339
 5288TIP3    H237424   0.421   4.843   2.165 -1.2659  1.1878  0.1956
 5289TIP3   OH237425   0.796   4.078   1.974  0.2767  0.2884 -0.4097
 5289TIP3    H137426   0.891   4.085   1.985  0.4522  1.2155 -2.1747
 5289TIP3    H237427   0.761   4.148   2.030  0.6397  0.1359  0.0177
 5290TIP3   OH237428   6.393   1.141   3.863  0.0849  0.0571 -0.1588
 5290TIP3    H137429   6.445   1.149   3.943  0.7984  1.4888 -0.7402
 5290TIP3    H237430   6.309   1.181   3.885  0.7812  1.7940 -0.5364
 5291TIP3   OH237431   3.331   4.624   1.698  0.3786  0.4316 -0.3603
 5291TIP3    H137432   3.372   4.711   1.693  0.1773  0.5987  0.7993
 5291TIP3    H237433   3.383   4.576   1.762 -0.4672  0.2196  0.1721
 5292TIP3   OH237434   3.694   6.588   3.664  0.0929 -0.3940  0.3299
 5292TIP3    H137435   3.637   6.603   3.588  0.7150  1.5175  0.1814
 5292TIP3    H237436   3.659   6.644   3.732  2.6416  2.2286 -0.2783
 5293TIP3   OH237437   1.107   3.037   2.220  0.2063  0.1122  0.0576
 5293TIP3    H137438   1.182   3.056   2.277  1.3197 -0.7367 -1.0906
 5293TIP3    H237439   1.085   3.122   2.181 -0.5147  0.6906  1.6470
 5294TIP3   OH237440   2.347   3.004   0.615  0.1467  0.3002 -0.0169
 5294TIP3    H137441   2.308   3.075   0.563 -0.6576 -0.4780 -0.4943
 5294TIP3    H237442   2.323   2.924   0.568  0.6143 -0.3255  0.7966
 5295TIP3   OH237443   4.152   4.121   3.943  0.0109 -0.5829  0.0101
 5295TIP3    H137444   4.128   4.047   3.998  0.9506  0.3241  1.7025
 5295TIP3    H237445   4.238   4.098   3.908  0.1779 -0.4171  0.3099
 5296TIP3   OH237446   0.204   0.514   0.562 -0.4057 -0.4146  0.3039
 5296TIP3    H137447   0.292   0.550   0.547 -1.1824  0.8629 -1.6457
 5296TIP3    H237448   0.175   0.556   0.643  0.9240 -1.2140  1.2352
 5297TIP3   OH237449   2.302   4.152   1.247  0.0656  0.2015  0.2816
 5297TIP3    H137450   2.215   4.115   1.266  0.4259 -1.6544 -1.3402
 5297TIP3    H237451   2.315   4.136   1.153  1.4651  2.0286  0.0998
 5298TIP3   OH237452   3.997   5.285   2.048 -0.0770 -0.6549  0.0910
 5298TIP3    H137453   3.994   5.239   1.964 -0.4658  0.8270 -0.7270
 5298TIP3    H237454   4.087   5.317   2.054 -0.6137  1.2040 -0.8934
 5299TIP3   OH237455   0.924   3.139   0.678 -0.1633 -0.5141  0.6265
 5299TIP3    H137456   0.875   3.214   0.710 -0.8445 -0.1097 -1.2110
 5299TIP3    H237457   0.930   3.154   0.583  1.4412 -1.7667  0.4920
 5300TIP3   OH237458   1.618   0.685   4.616  0.2137 -0.6858 -0.1191
 5300TIP3    H137459   1.568   0.765   4.605 -0.8858 -1.5795 -2.0847
 5300TIP3    H237460   1.709   0.712   4.604  0.3285  0.9097  3.2606
 5301TIP3   OH237461   5.689   6.038   1.932 -0.7603  0.3446 -0.2909
 5301TIP3    H137462   5.630   6.085   1.991  0.3845  0.0152  1.1837
 5301TIP3    H237463   5.635   6.017   1.855 -1.8867  2.1218 -0.0415
 5302TIP3   OH237464   6.474   3.163   4.165  0.5302  0.2665  0.3087
 5302TIP3    H137465   6.482   3.246   4.213  3.5645  0.6461 -0.6022
 5302TIP3    H237466   6.556   3.157   4.115 -0.2048 -2.6344 -0.7325
 5303TIP3   OH237467   0.071   3.037   0.027  0.2975  0.1700  0.1676
 5303TIP3    H137468   0.043   2.983   0.101 -0.3177  0.8653  0.4494
 5303TIP3    H237469  -0.008   3.083   0.000  1.1601  2.2503  1.0350
 5304TIP3   OH237470   2.034   3.799   3.129 -0.2557  0.1916  0.5277
 5304TIP3    H137471   2.096   3.858   3.172 -0.6731  1.4336 -0.5068
 5304TIP3    H237472   1.954   3.806   3.181  0.1128 -0.5999  1.2399
 5305TIP3   OH237473   2.242   0.555   0.324  0.0388  0.0536  0.4177
 5305TIP3    H137474   2.303   0.619   0.359 -0.5237  0.1017  1.3473
 5305TIP3    H237475   2.182   0.606   0.270  0.3863  0.1091  0.0800
 5306TIP3   OH237476   6.610   2.738   1.852  0.5336 -0.1627 -0.2773
 5306TIP3    H137477   6.696   2.732   1.810  0.9360 -0.2322  0.5190
 5306TIP3    H237478   6.560   2.665   1.816  0.2073  0.8801 -2.0414
 5307TIP3   OH237479   5.227   1.155   1.444  0.1448  0.2945  0.2668
 5307TIP3    H137480   5.215   1.068   1.483 -0.2170  0.3981  0.3977
 5307TIP3    H237481   5.317   1.156   1.414  0.4556  0.2251  1.1559
 5308TIP3   OH237482   4.081   2.028   1.868 -0.1571  0.4045 -0.7914
 5308TIP3    H137483   3.989   2.017   1.844 -0.3079 -1.6700  0.5074
 5308TIP3    H237484   4.084   2.005   1.961  1.5973  0.9352 -0.6876
 5309TIP3   OH237485   4.212   3.016   1.862 -0.1028 -0.0269 -0.9268
 5309TIP3    H137486   4.150   3.015   1.789  0.5382 -1.6738 -1.5101
 5309TIP3    H237487   4.168   3.066   1.931 -0.3343  2.4235 -2.7396
 5310TIP3   OH237488   0.389   4.644   3.884  0.4897 -0.1090 -0.0646
 5310TIP3    H137489   0.403   4.724   3.834  0.9233  0.6468  1.2187
 5310TIP3    H237490   0.435   4.576   3.834  1.6369  0.7802 -0.2563
 5311TIP3   OH237491   2.468   2.602   2.212 -0.3156 -0.3035  0.0834
 5311TIP3    H137492   2.443   2.593   2.304  2.0436 -0.6019  0.7612
 5311TIP3    H237493   2.391   2.640   2.170 -1.3276  0.1993  2.2408
 5312TIP3   OH237494   1.197   2.547   8.447  0.0299  0.9877 -0.7827
 5312TIP3    H137495   1.220   2.557   8.355  2.2262 -0.4723 -0.4741
 5312TIP3    H237496   1.271   2.584   8.495  0.7395 -1.5865  0.3113
 5313TIP3   OH237497   2.198   5.270   7.786 -0.2793  0.2203  0.2337
 5313TIP3    H137498   2.160   5.198   7.837  0.1108  0.1933  0.4942
 5313TIP3    H237499   2.289   5.243   7.773 -0.5515 -0.1133 -1.1040
 5314TIP3   OH237500   1.825   5.497   2.469  0.0028  0.5386  0.2036
 5314TIP3    H137501   1.783   5.529   2.549 -0.1163  1.9262 -0.3877
 5314TIP3    H237502   1.807   5.565   2.404  0.5668 -0.3082 -0.8619
 5315TIP3   OH237503   1.793   0.589   4.158  0.2269  0.1104  0.2990
 5315TIP3    H137504   1.800   0.538   4.239  2.3614 -1.2955 -0.6632
 5315TIP3    H237505   1.838   0.535   4.092 -0.4955  1.6938 -1.5811
 5316TIP3   OH237506   3.810   0.855   0.281 -0.3368 -0.3611 -0.2412
 5316TIP3    H137507   3.751   0.846   0.206 -0.3672 -0.5562 -0.1926
 5316TIP3    H237508   3.862   0.775   0.280  0.4253  0.1192 -0.7157
 5317TIP3   OH237509   1.321   1.953   1.283  0.2602  0.2577 -0.3525
 5317TIP3    H137510   1.329   1.859   1.267 -1.2691  0.3482 -1.9290
 5317TIP3    H237511   1.254   1.982   1.222  0.7590  2.4135  0.0444
 5318TIP3   OH237512   4.969   6.535   3.219  0.1908  0.1923 -0.0456
 5318TIP3    H137513   4.909   6.546   3.145 -0.8840 -2.7366  0.2619
 5318TIP3    H237514   5.053   6.567   3.186 -0.6281  0.6160 -1.9013
 5319TIP3   OH237515   2.870   0.800   2.186  0.0922 -0.4927  0.7272
 5319TIP3    H137516   2.854   0.706   2.200  1.3096 -0.6003  1.5114
 5319TIP3    H237517   2.922   0.827   2.262 -0.0485  0.7765  0.3894
 5320TIP3   OH237518   6.450   0.109   0.262  0.4066 -0.0522 -0.1300
 5320TIP3    H137519   6.431   0.161   0.184  0.5675 -0.0054 -0.1370
 5320TIP3    H237520   6.428   0.019   0.236 -0.3043  0.0694  0.0277
 5321TIP3   OH237521   3.445   1.615   1.405 -0.1376  0.3431  0.1002
 5321TIP3    H137522   3.404   1.683   1.351  1.2333  0.1933 -1.2141
 5321TIP3    H237523   3.529   1.653   1.430  0.4966 -0.7171 -0.3707
 5322TIP3   OH237524   6.217   6.815   3.185  0.5062  0.5927 -0.0474
 5322TIP3    H137525   6.302   6.779   3.209  1.2055  2.6569  0.8333
 5322TIP3    H237526   6.164   6.807   3.265  0.3865  0.7299 -0.1123
 5323TIP3   OH237527   6.651   6.355   0.130 -0.6587  0.7234 -0.2104
 5323TIP3    H137528   6.702   6.351   0.049 -0.7048  1.5322 -0.2855
 5323TIP3    H237529   6.611   6.442   0.129  0.2528  1.1964  1.2323
 5324TIP3   OH237530   6.667   3.684   1.850 -0.5867  0.0797  0.5610
 5324TIP3    H137531   6.592   3.728   1.810  0.9828  3.9610  1.4629
 5324TIP3    H237532   6.636   3.657   1.936 -1.6573 -0.8761 -0.1004
 5325TIP3   OH237533   0.847   2.407   1.989  0.0230 -0.5279  0.4520
 5325TIP3    H137534   0.916   2.375   2.048 -0.9770  0.0786  2.0028
 5325TIP3    H237535   0.799   2.328   1.965  1.2887 -0.9767 -0.7419
 5326TIP3   OH237536   1.951   4.733   1.364 -0.6902  0.1557 -0.8096
 5326TIP3    H137537   2.034   4.781   1.359 -0.5732  0.0749  0.0838
 5326TIP3    H237538   1.902   4.778   1.434 -0.9319 -0.4899 -0.5604
 5327TIP3   OH237539   2.754   6.595   1.402 -0.0300 -0.6207 -0.4445
 5327TIP3    H137540   2.750   6.543   1.322 -0.1871 -0.4724 -0.5322
 5327TIP3    H237541   2.735   6.533   1.472 -1.2058 -0.4787 -0.6264
 5328TIP3   OH237542   6.548   1.133   1.079  0.2735 -0.0355  0.3548
 5328TIP3    H137543   6.469   1.081   1.064  0.2875 -0.0025  0.1644
 5328TIP3    H237544   6.515   1.223   1.087  0.4206  0.1713 -1.1034
 5329TIP3   OH237545   2.527   0.412   0.247 -0.3767  0.5048  0.1289
 5329TIP3    H137546   2.607   0.462   0.236 -0.8400  1.0198 -1.2410
 5329TIP3    H237547   2.522   0.392   0.340  2.8152 -2.0432 -0.1043
 5330TIP3   OH237548   4.660   5.116   3.039 -0.7698  0.3070  0.0403
 5330TIP3    H137549   4.739   5.150   2.996 -0.3921 -0.5214  0.0416
 5330TIP3    H237550   4.596   5.186   3.033 -0.8179  0.1264 -2.1158
 5331TIP3   OH237551   3.908   6.117   1.305 -0.3805 -0.2373  0.6572
 5331TIP3    H137552   3.878   6.208   1.302 -1.2158 -0.4317  2.1205
 5331TIP3    H237553   3.885   6.082   1.220  0.3176  1.0232 -0.0831
 5332TIP3   OH237554   2.452   4.314   1.416  0.5273 -0.6711 -0.2072
 5332TIP3    H137555   2.443   4.256   1.491 -1.0548 -1.0723 -0.6656
 5332TIP3    H237556   2.418   4.264   1.342 -2.1526  1.1817 -0.4040
 5333TIP3   OH237557   5.779   5.343   8.340  0.0865 -0.1414 -0.2242
 5333TIP3    H137558   5.747   5.429   8.366 -1.1009 -0.6020 -0.1381
 5333TIP3    H237559   5.874   5.356   8.329  0.5336  0.3557  3.2025
 5334TIP3   OH237560   4.882   1.601   0.666 -0.7115 -0.6191  0.1375
 5334TIP3    H137561   4.802   1.549   0.659 -0.4197 -1.1024  0.3055
 5334TIP3    H237562   4.886   1.626   0.759 -1.4446  0.6862 -0.1543
 5335TIP3   OH237563   1.328   4.625   4.118  0.2545 -0.2754 -0.0484
 5335TIP3    H137564   1.417   4.647   4.146  0.6475 -1.1493 -0.5728
 5335TIP3    H237565   1.340   4.564   4.045 -0.7462  1.2081 -1.5217
 5336TIP3   OH237566   3.025   6.190   0.442 -0.2613 -0.1852  0.7303
 5336TIP3    H137567   3.035   6.149   0.356 -2.6253 -0.4058  0.5028
 5336TIP3    H237568   3.050   6.281   0.428  3.8203 -1.0585  0.9526
 5337TIP3   OH237569   4.052   6.815   0.241 -0.1268  0.1960  0.0085
 5337TIP3    H137570   4.032   6.905   0.215  0.7800  1.0882  2.1851
 5337TIP3    H237571   4.070   6.770   0.158 -0.3442  2.0652 -1.1198
 5338TIP3   OH237572   2.786   4.216   3.776  1.3142  0.5529  0.1575
 5338TIP3    H137573   2.720   4.146   3.773 -0.7474  2.3835  0.4019
 5338TIP3    H237574   2.797   4.242   3.684  0.0449  1.6521  0.2868
 5339TIP3   OH237575   5.225   5.826   1.144  0.0791 -0.2407 -0.2114
 5339TIP3    H137576   5.168   5.782   1.081 -1.8014  1.6063  0.1213
 5339TIP3    H237577   5.220   5.771   1.223 -0.0499 -0.8876 -0.6629
 5340TIP3   OH237578   1.836   3.684   4.306 -0.2974  0.1906 -0.5049
 5340TIP3    H137579   1.749   3.667   4.342 -0.0927  2.6713  1.4182
 5340TIP3    H237580   1.826   3.764   4.256  1.0472  1.0843  0.5966
 5341TIP3   OH237581   5.436   1.316   2.055  0.2580  0.3662  0.4209
 5341TIP3    H137582   5.425   1.406   2.024  1.4855  0.3637 -0.0589
 5341TIP3    H237583   5.527   1.295   2.037  0.0027 -0.9667  0.5723
 5342TIP3   OH237584   0.700   0.318   2.063  0.3290 -0.3926 -0.1524
 5342TIP3    H137585   0.651   0.396   2.089  0.8723 -0.2290  0.4077
 5342TIP3    H237586   0.757   0.348   1.993 -1.9549 -1.0843 -2.4705
 5343TIP3   OH237587   4.006   6.156   4.156  0.2474 -0.0941  0.0058
 5343TIP3    H137588   3.974   6.069   4.133  0.0082 -0.0696  0.2533
 5343TIP3    H237589   3.945   6.189   4.222 -0.1332  0.5858 -0.6623
 5344TIP3   OH237590   0.905   2.593   2.840  0.7560  0.1776 -1.0277
 5344TIP3    H137591   0.870   2.681   2.855 -0.1250 -0.2650 -0.4059
 5344TIP3    H237592   0.867   2.566   2.756  0.9109  0.3367 -1.1482
 5345TIP3   OH237593   4.235   2.698   3.882 -0.1601 -0.3158  0.4981
 5345TIP3    H137594   4.210   2.606   3.880 -0.5731 -0.1934 -0.1007
 5345TIP3    H237595   4.331   2.697   3.878 -0.2072 -0.6661 -2.6341
 5346TIP3   OH237596   3.549   3.068   2.646  0.1171  0.3187  0.5014
 5346TIP3    H137597   3.601   2.987   2.643 -1.1992 -0.5258 -1.1362
 5346TIP3    H237598   3.535   3.084   2.739 -0.3015 -1.8322  0.8545
 5347TIP3   OH237599   6.555   1.566   2.259 -0.4215 -0.1684  1.1679
 5347TIP3    H137600   6.552   1.522   2.175 -2.3278 -0.5276  1.3844
 5347TIP3    H237601   6.601   1.648   2.242  0.8589 -1.0538  0.2042
 5348TIP3   OH237602   2.976   1.623   4.297 -0.1105 -0.4409 -0.2544
 5348TIP3    H137603   2.973   1.609   4.392  0.6168  1.8846  0.1688
 5348TIP3    H237604   2.884   1.631   4.271 -0.3207 -1.2364  0.2014
 5349TIP3   OH237605   3.443   2.512   0.432  0.4833  0.0892  0.3221
 5349TIP3    H137606   3.453   2.607   0.443  1.3227  0.2243 -1.2247
 5349TIP3    H237607   3.379   2.503   0.361  1.0767 -0.4645 -0.1538
 5350TIP3   OH237608   4.659   2.645   1.116  0.5797 -0.2552  0.9167
 5350TIP3    H137609   4.571   2.626   1.085  0.3071  0.3000  1.3382
 5350TIP3    H237610   4.711   2.570   1.088  0.6206  0.7284 -1.9628
 5351TIP3   OH237611   6.925   2.263   3.669  0.4696 -0.5389 -0.2592
 5351TIP3    H137612   6.879   2.219   3.597  1.5932 -0.4809 -1.0367
 5351TIP3    H237613   7.009   2.290   3.632  0.3014  1.2423  0.5311
 5352TIP3   OH237614   2.200   1.193   4.019 -0.3190 -0.0428  0.0282
 5352TIP3    H137615   2.273   1.248   3.989  0.0169  0.5040  1.7654
 5352TIP3    H237616   2.153   1.247   4.082 -1.9101 -0.6132 -0.6237
 5353TIP3   OH237617   2.822   0.957   3.523  0.1551 -0.1764 -0.5295
 5353TIP3    H137618   2.761   0.997   3.585 -0.8171 -0.4483 -1.2857
 5353TIP3    H237619   2.897   1.015   3.522 -1.8014  2.5924 -2.7571
 5354TIP3   OH237620   0.127   4.539   0.723 -0.1273 -0.1840 -0.4256
 5354TIP3    H137621   0.133   4.474   0.793 -1.8245 -0.4714 -0.4873
 5354TIP3    H237622   0.165   4.618   0.760  1.2506 -0.9765 -0.0683
 5355TIP3   OH237623   2.421   6.510   3.943 -0.4864  0.2573 -0.5867
 5355TIP3    H137624   2.440   6.524   3.850 -1.3150  1.3002 -0.6142
 5355TIP3    H237625   2.411   6.598   3.979  0.0522 -0.1291  0.5491
 5356TIP3   OH237626   6.296   0.897   1.801  0.9171 -0.9118  0.5260
 5356TIP3    H137627   6.318   0.909   1.709 -0.2885  0.2178  0.3621
 5356TIP3    H237628   6.376   0.860   1.840  2.3055  0.8738 -0.4828
 5357TIP3   OH237629   4.579   2.495   2.316 -0.1896 -0.2682  0.0144
 5357TIP3    H137630   4.638   2.556   2.360  1.7193 -1.8937 -0.1713
 5357TIP3    H237631   4.569   2.530   2.227  1.6588 -0.6746 -0.3876
 5358TIP3   OH237632   3.101   6.011   7.948 -0.5316 -0.2553  0.4744
 5358TIP3    H137633   3.072   5.926   7.915  0.9683 -0.9418  0.8302
 5358TIP3    H237634   3.066   6.075   7.886 -1.8054 -1.1032  0.2835
 5359TIP3   OH237635   4.027   3.490   3.532  0.3919  0.0363  0.0939
 5359TIP3    H137636   3.941   3.519   3.502 -0.3066 -0.7558  1.2632
 5359TIP3    H237637   4.089   3.537   3.476 -0.7981  0.3581 -1.0016
 5360TIP3   OH237638   0.560   1.673   0.453 -0.4396  0.0316  0.2891
 5360TIP3    H137639   0.539   1.741   0.517  0.3322 -0.2221  0.8230
 5360TIP3    H237640   0.624   1.715   0.395  0.0650 -0.2498  0.6416
 5361TIP3   OH237641   4.751   1.586   1.592 -0.1461  0.3361 -0.4273
 5361TIP3    H137642   4.660   1.574   1.619 -0.2619  0.9524 -0.5309
 5361TIP3    H237643   4.800   1.585   1.674 -0.1059 -1.0901 -0.4419
 5362TIP3   OH237644   6.051   6.062   1.026  0.2707 -0.0041 -0.3782
 5362TIP3    H137645   5.961   6.032   1.038 -0.3172  0.7872 -2.3963
 5362TIP3    H237646   6.077   6.025   0.942  1.9538 -0.4362  0.3057
 5363TIP3   OH237647   5.653   4.582   2.044  0.6600  0.4843 -0.3766
 5363TIP3    H137648   5.602   4.663   2.047  1.5436  1.0235  1.0663
 5363TIP3    H237649   5.673   4.570   1.951  0.3550  1.8171 -0.6336
 5364TIP3   OH237650   2.702   1.575   4.284 -0.4153  0.2395 -0.3330
 5364TIP3    H137651   2.748   1.528   4.354 -0.1679  0.0839 -0.5973
 5364TIP3    H237652   2.610   1.569   4.308 -0.2020  2.3213  1.2941
 5365TIP3   OH237653   3.955   0.334   1.524  0.0708 -0.0003  0.3387
 5365TIP3    H137654   3.935   0.263   1.463  0.6917  0.4658 -0.4290
 5365TIP3    H237655   4.046   0.358   1.503 -0.5914  2.0300 -0.4708
 5366TIP3   OH237656   2.940   6.362   1.488 -0.3472  0.1850  0.4329
 5366TIP3    H137657   2.981   6.338   1.405  0.0789 -0.3192  0.7792
 5366TIP3    H237658   2.985   6.443   1.515 -0.1925  0.1186  0.3767
 5367TIP3   OH237659   1.059   5.442   1.200 -0.0196  0.0780  0.0442
 5367TIP3    H137660   1.078   5.534   1.220 -1.7491  0.4034  0.3781
 5367TIP3    H237661   0.965   5.441   1.182 -0.0925 -1.6873  0.3818
 5368TIP3   OH237662   2.084   3.687   1.671  0.1347  0.2504 -0.2761
 5368TIP3    H137663   2.032   3.767   1.680  0.7301  0.7012 -0.7721
 5368TIP3    H237664   2.134   3.682   1.753 -0.9144 -0.3708  0.3566
 5369TIP3   OH237665   2.592   1.734   0.350 -0.1139 -0.1726  0.2266
 5369TIP3    H137666   2.522   1.716   0.413 -1.8668  0.8465 -1.3484
 5369TIP3    H237667   2.603   1.652   0.302 -0.3828 -0.2806  0.3496
 5370TIP3   OH237668   4.197   6.187   2.594 -0.1736 -0.6791  0.3582
 5370TIP3    H137669   4.119   6.238   2.616  0.2422  1.3787 -2.4197
 5370TIP3    H237670   4.163   6.110   2.548 -0.6530 -0.5215  0.4455
 5371TIP3   OH237671   5.589   2.714   1.057  0.1112 -0.6297  0.6287
 5371TIP3    H137672   5.652   2.647   1.082 -0.3135 -1.5010 -0.5333
 5371TIP3    H237673   5.506   2.667   1.050 -0.1678 -0.0113 -0.3319
 5372TIP3   OH237674   1.765   0.254   2.722  0.7862  0.3442  0.4643
 5372TIP3    H137675   1.847   0.205   2.731  1.0361  0.7497  0.4243
 5372TIP3    H237676   1.747   0.255   2.628  1.2583  1.0970  0.3775
 5373TIP3   OH237677   1.556   2.600   3.627 -0.0996  0.0474 -0.2870
 5373TIP3    H137678   1.568   2.519   3.676  0.2905 -0.8385 -1.7519
 5373TIP3    H237679   1.642   2.642   3.630  0.2023 -0.4890 -0.9836
 5374TIP3   OH237680   3.447   5.094   1.087  0.0372 -0.1454  0.3059
 5374TIP3    H137681   3.433   5.183   1.118  0.7002 -0.2420  0.9062
 5374TIP3    H237682   3.434   5.039   1.164  0.2731 -0.5185  0.0836
 5375TIP3   OH237683   3.836   0.017   1.594 -0.0897  0.3905  0.4775
 5375TIP3    H137684   3.887  -0.050   1.639 -1.1771 -1.3473 -0.7532
 5375TIP3    H237685   3.810  -0.023   1.511 -0.5531  2.4534 -0.4629
 5376TIP3   OH237686   1.455   3.918   0.721  0.6916 -0.3982  0.5030
 5376TIP3    H137687   1.496   3.990   0.769 -0.4041  0.2708  0.4725
 5376TIP3    H237688   1.376   3.898   0.771 -0.8610  0.7918 -1.3408
 5377TIP3   OH237689   3.087   5.254   2.993 -0.7661  1.0715 -0.3705
 5377TIP3    H137690   3.121   5.324   2.937 -0.7102  1.6608  0.3844
 5377TIP3    H237691   2.992   5.261   2.986 -0.7694  0.2471 -1.4688
 5378TIP3   OH237692   6.566   1.493   0.764  0.1903  0.3962 -0.2363
 5378TIP3    H137693   6.485   1.541   0.781  0.7056  1.2106  0.0061
 5378TIP3    H237694   6.595   1.463   0.850 -0.3257 -0.7144 -0.4268
 5379TIP3   OH237695   4.697   6.586   2.307 -0.4240 -0.3613  0.0387
 5379TIP3    H137696   4.721   6.615   2.219  0.4025 -1.1607 -0.0191
 5379TIP3    H237697   4.703   6.665   2.360 -1.1152  0.1694 -0.6530
 5380TIP3   OH237698   6.367   1.399   2.727  0.3842  0.2769  0.0073
 5380TIP3    H137699   6.392   1.474   2.673 -1.5439  0.3652 -0.8570
 5380TIP3    H237700   6.366   1.432   2.817  1.3416  0.7670 -0.1577
 5381TIP3   OH237701   0.549   4.786   0.929 -0.3301  0.0159 -0.2008
 5381TIP3    H137702   0.532   4.858   0.990  0.3239 -1.8260  2.3034
 5381TIP3    H237703   0.622   4.738   0.968 -0.5369 -1.8390 -1.9404
 5382TIP3   OH237704   2.632   5.770   4.124 -0.6460  0.0792  0.4794
 5382TIP3    H137705   2.695   5.749   4.193  0.2976  1.7753  0.1950
 5382TIP3    H237706   2.557   5.807   4.170 -0.1721  0.8508  0.6666
 5383TIP3   OH237707   0.041   1.723   1.656 -0.1950  0.2235  0.1835
 5383TIP3    H137708   0.089   1.762   1.729 -2.3393  2.8002  0.3481
 5383TIP3    H237709   0.105   1.722   1.584  0.6760  1.8607  0.8802
 5384TIP3   OH237710   0.283   4.632   4.181  0.3902 -0.4183 -0.3518
 5384TIP3    H137711   0.242   4.714   4.151  1.5281  0.2006 -0.2523
 5384TIP3    H237712   0.338   4.605   4.108  0.0052 -1.1154 -0.3885
 5385TIP3   OH237713   3.289   1.232   4.260  0.1307  0.0645  0.6070
 5385TIP3    H137714   3.254   1.198   4.342  0.6456 -2.0572  0.0143
 5385TIP3    H237715   3.225   1.206   4.194  1.0873 -0.8068 -0.0134
 5386TIP3   OH237716   1.619   5.746   3.492  0.3023  0.5085 -0.0051
 5386TIP3    H137717   1.610   5.725   3.399  2.5523 -0.4315 -0.0695
 5386TIP3    H237718   1.565   5.824   3.504  1.1961  1.6117 -2.4611
 5387TIP3   OH237719   6.754   6.053   3.322 -0.4923  0.1171  0.1807
 5387TIP3    H137720   6.718   6.000   3.393 -0.4365  0.7741  0.7222
 5387TIP3    H237721   6.726   6.010   3.242  1.9860 -2.4422  0.5338
 5388TIP3   OH237722   3.244   5.322   0.336 -0.7242  0.2912 -0.1937
 5388TIP3    H137723   3.310   5.293   0.273 -0.6432 -0.7305  0.3526
 5388TIP3    H237724   3.280   5.299   0.421 -0.8087  1.7107  0.2558
 5389TIP3   OH237725   4.865   3.923   2.821 -0.1375  0.3255  0.5802
 5389TIP3    H137726   4.906   3.998   2.778 -0.8556  1.2686  1.4586
 5389TIP3    H237727   4.936   3.880   2.868  0.1786  0.8763  0.6187
 5390TIP3   OH237728   6.054   6.781   1.425  0.2645  0.6364 -0.5989
 5390TIP3    H137729   6.121   6.838   1.462 -0.3743  1.4296 -0.6582
 5390TIP3    H237730   6.036   6.717   1.495 -2.3275  3.2507  1.3529
 5391TIP3   OH237731   6.442   0.597   2.141 -0.0722 -0.2434 -0.4493
 5391TIP3    H137732   6.347   0.602   2.144 -0.1388 -1.1105 -0.9390
 5391TIP3    H237733   6.463   0.585   2.048  0.4958 -0.4085 -0.3066
 5392TIP3   OH237734   4.166   6.626   2.061 -0.2542 -0.1435 -0.3252
 5392TIP3    H137735   4.233   6.557   2.062 -1.0513 -0.9201  1.2308
 5392TIP3    H237736   4.111   6.608   2.136 -4.4671 -1.7114 -3.4005
 5393TIP3   OH237737   2.051   5.855   2.264 -0.0661 -0.3499 -0.1590
 5393TIP3    H137738   2.025   5.905   2.341 -0.3333 -1.6928  0.6499
 5393TIP3    H237739   2.085   5.920   2.203  0.7847  0.6722  1.3513
 5394TIP3   OH237740   5.407   5.329   3.001 -0.2167  0.3540 -0.0079
 5394TIP3    H137741   5.493   5.361   3.031 -0.5300  0.2298  1.0635
 5394TIP3    H237742   5.384   5.387   2.929  0.5467  0.7040  0.0181
 5395TIP3   OH237743   6.220   5.335   2.145 -0.3013  0.2926  0.6922
 5395TIP3    H137744   6.258   5.290   2.221  1.7397 -0.6667 -0.7808
 5395TIP3    H237745   6.293   5.340   2.082 -1.5567  2.2332 -0.6946
 5396TIP3   OH237746   5.169   5.850   0.728  0.5964  0.0214  0.1623
 5396TIP3    H137747   5.247   5.903   0.742  0.8561 -0.1913 -0.4387
 5396TIP3    H237748   5.107   5.909   0.684  1.4025 -0.5435 -1.8186
 5397TIP3   OH237749   3.232   0.191   2.441 -0.0037  0.1404  0.2781
 5397TIP3    H137750   3.235   0.097   2.424 -0.7217  0.2289 -0.3564
 5397TIP3    H237751   3.300   0.228   2.385 -1.9169  0.3576 -2.0570
 5398TIP3   OH237752   1.327   0.193   0.638 -0.2570 -0.0003  0.2966
 5398TIP3    H137753   1.288   0.120   0.686  0.5062 -1.7470 -1.6132
 5398TIP3    H237754   1.419   0.193   0.664 -0.4453  0.9471  1.0278
 5399TIP3   OH237755   3.513   3.033   1.161 -0.4993  0.0485 -0.0481
 5399TIP3    H137756   3.540   3.015   1.251 -0.2078  0.0428 -0.1358
 5399TIP3    H237757   3.432   3.084   1.170  0.3792  1.4476  0.2536
 5400TIP3   OH237758   2.824   5.383   1.354 -0.3439 -0.2192 -0.5720
 5400TIP3    H137759   2.886   5.358   1.286  0.1096  0.4917 -0.4198
 5400TIP3    H237760   2.819   5.478   1.349 -0.6475 -0.1929  0.0937
 5401TIP3   OH237761   1.525   4.395   1.523  0.3621 -0.6423  0.2213
 5401TIP3    H137762   1.570   4.360   1.601  2.6689 -0.6033 -1.0299
 5401TIP3    H237763   1.559   4.483   1.513 -1.9239  0.3468  0.6308
 5402TIP3   OH237764   0.648   1.902   1.915  0.1914  0.4779 -0.2910
 5402TIP3    H137765   0.584   1.973   1.909 -0.1666  0.1431 -0.5149
 5402TIP3    H237766   0.631   1.862   2.000 -2.4194 -1.9263 -1.7602
 5403TIP3   OH237767   1.108   3.161   8.366  0.2646 -0.5290 -0.0796
 5403TIP3    H137768   1.153   3.085   8.332 -0.3232 -0.5430 -0.8526
 5403TIP3    H237769   1.018   3.131   8.379  0.2070 -0.1807  0.3371
 5404TIP3   OH237770   4.267   2.171   2.010  0.6757  0.1363  0.2231
 5404TIP3    H137771   4.339   2.183   1.949  0.8527 -0.4344  0.3066
 5404TIP3    H237772   4.192   2.150   1.955  0.5013  1.0045  0.1180
 5405TIP3   OH237773   1.556   6.733   0.869 -0.0655 -0.0732  0.0299
 5405TIP3    H137774   1.625   6.706   0.930  0.9619 -0.1848 -1.1405
 5405TIP3    H237775   1.570   6.678   0.791 -2.7932 -1.6152  0.5067
 5406TIP3   OH237776   4.010   0.634   3.067 -0.2293  0.1777  0.8497
 5406TIP3    H137777   4.008   0.538   3.069  2.6118 -0.0017 -0.0330
 5406TIP3    H237778   3.969   0.657   2.983  1.3436 -0.4660 -0.1345
 5407TIP3   OH237779   1.243   4.335   2.271 -0.3488  0.0294 -0.5787
 5407TIP3    H137780   1.265   4.423   2.240 -0.5130  0.4611  0.4904
 5407TIP3    H237781   1.319   4.282   2.248  0.1194  0.6427 -0.4661
 5408TIP3   OH237782   1.497   5.666   1.898 -0.2545  0.1053 -0.2336
 5408TIP3    H137783   1.479   5.599   1.832 -1.3896  0.0559  0.1029
 5408TIP3    H237784   1.419   5.667   1.953  0.9764 -0.4227  1.6200
 5409TIP3   OH237785   2.295   1.713   1.080 -0.2739 -0.1879  0.4638
 5409TIP3    H137786   2.339   1.701   1.164 -0.4679 -0.6395  0.5078
 5409TIP3    H237787   2.341   1.654   1.020 -0.5456 -0.3552  0.4133
 5410TIP3   OH237788   2.737   6.194   0.363  0.1300 -0.2571  0.4005
 5410TIP3    H137789   2.832   6.203   0.358  0.0401  0.1426 -0.9796
 5410TIP3    H237790   2.704   6.248   0.291 -1.0656 -1.7300 -0.1975
 5411TIP3   OH237791   2.041   3.370   8.010 -0.3635  0.5748 -0.3845
 5411TIP3    H137792   1.946   3.363   7.994 -0.7813  0.4916  1.8241
 5411TIP3    H237793   2.055   3.462   8.030  0.2119  0.7591 -1.5210
 5412TIP3   OH237794   0.816   4.608   3.835  0.0276 -0.3355 -1.3494
 5412TIP3    H137795   0.830   4.569   3.921 -2.8510 -0.5750 -0.8875
 5412TIP3    H237796   0.889   4.576   3.782  1.9118 -0.1411  0.9635
 5413TIP3   OH237797   1.074   1.975   2.878  0.1692  0.0361  0.0589
 5413TIP3    H137798   0.988   1.981   2.835 -0.1513  0.6279  0.7741
 5413TIP3    H237799   1.077   2.049   2.938 -0.1313 -1.7437  2.3868
 5414TIP3   OH237800   3.759   5.033   0.180 -0.0013  0.5318  0.4469
 5414TIP3    H137801   3.747   4.998   0.269 -1.0579 -1.0384 -0.2654
 5414TIP3    H237802   3.854   5.035   0.168  0.1547 -2.3036  0.5129
 5415TIP3   OH237803   4.303   6.770   8.090  0.7052 -0.1421  0.5352
 5415TIP3    H137804   4.247   6.705   8.045  0.4334 -0.6455  1.5739
 5415TIP3    H237805   4.323   6.835   8.022 -4.0917  2.0775  0.8438
 5416TIP3   OH237806   6.915   1.640   1.939 -0.2047 -0.3486  0.6375
 5416TIP3    H137807   6.979   1.581   1.979 -0.0158 -0.2127  0.5371
 5416TIP3    H237808   6.966   1.716   1.912 -0.2360 -0.6571 -0.3252
 5417TIP3   OH237809   6.311   1.538   4.401  0.4283 -0.3411 -0.1177
 5417TIP3    H137810   6.241   1.582   4.449  1.9175  2.0660  0.0091
 5417TIP3    H237811   6.348   1.475   4.463 -0.4494 -0.3774  0.3833
 5418TIP3   OH237812   3.124   5.898   1.648 -0.2913 -0.3091  0.0520
 5418TIP3    H137813   3.106   5.815   1.603 -0.4918 -1.3151  1.8795
 5418TIP3    H237814   3.042   5.947   1.640  0.0938  0.1284 -1.7733
 5419TIP3   OH237815   6.621   5.123   1.256 -0.2601  0.6531  0.1644
 5419TIP3    H137816   6.583   5.036   1.244  0.6341  0.2420  0.2393
 5419TIP3    H237817   6.690   5.110   1.320 -0.3923  1.5088  0.4866
 5420TIP3   OH237818   3.018   1.242   0.718  0.7476  0.4413 -0.8876
 5420TIP3    H137819   3.029   1.284   0.804  0.0623  1.1367 -1.1233
 5420TIP3    H237820   3.095   1.269   0.668  0.6730  0.8267 -0.7978
 5421TIP3   OH237821   1.397   0.546   3.630 -0.3979  0.6240 -0.0006
 5421TIP3    H137822   1.335   0.490   3.678 -1.4428  1.0708 -0.7808
 5421TIP3    H237823   1.342   0.614   3.592  0.5091  0.7327 -1.1567
 5422TIP3   OH237824   4.365   4.587   0.682 -0.3272 -0.3620  0.2959
 5422TIP3    H137825   4.400   4.672   0.709 -1.6970  0.2219  0.3377
 5422TIP3    H237826   4.398   4.526   0.747 -0.3756  0.3625  1.0213
 5423TIP3   OH237827   1.545   1.642   2.355 -0.4684  0.2552  0.0345
 5423TIP3    H137828   1.633   1.639   2.392 -0.6196 -0.4897  0.3361
 5423TIP3    H237829   1.552   1.705   2.283 -0.1053  1.5329  1.1310
 5424TIP3   OH237830   4.744   2.699   2.536 -0.3864  0.2908  0.2748
 5424TIP3    H137831   4.682   2.760   2.575  0.9626 -1.5780  6.4682
 5424TIP3    H237832   4.719   2.613   2.571  2.5166 -1.3867 -1.3581
 5425TIP3   OH237833   2.593   1.880   0.657 -0.4928  0.5011  0.1019
 5425TIP3    H137834   2.580   1.960   0.707 -0.2856 -0.2484  1.3912
 5425TIP3    H237835   2.634   1.819   0.718  1.4050  0.0868 -1.4690
 5426TIP3   OH237836   5.059   3.229   3.912  0.2576  0.0133 -0.0526
 5426TIP3    H137837   5.143   3.199   3.948 -0.5782 -2.0294  0.3526
 5426TIP3    H237838   4.994   3.195   3.973 -0.9513  0.5206 -1.0166
 5427TIP3   OH237839   5.005   4.305   3.173  0.2100 -0.2998 -0.0910
 5427TIP3    H137840   5.092   4.301   3.213  0.4395 -0.8760 -0.6381
 5427TIP3    H237841   4.948   4.258   3.234  0.1695  0.5189  0.5248
 5428TIP3   OH237842   6.599   3.328   1.161  0.4807  0.0828 -0.1826
 5428TIP3    H137843   6.527   3.378   1.199  2.0330  1.6066  0.9600
 5428TIP3    H237844   6.606   3.251   1.216 -1.9509 -1.5651 -1.9675
 5429TIP3   OH237845   2.124   0.448   0.824  0.2317 -0.8279 -0.2782
 5429TIP3    H137846   2.173   0.461   0.743  1.5861 -0.2540  0.6044
 5429TIP3    H237847   2.185   0.406   0.884 -0.0020  0.7181  1.1458
 5430TIP3   OH237848   6.388   4.490   1.621  0.2277  0.3772  0.0589
 5430TIP3    H137849   6.414   4.473   1.712  1.4057  0.5055 -0.2329
 5430TIP3    H237850   6.293   4.478   1.620  0.2110  0.2932  1.2873
 5431TIP3   OH237851   6.525   0.791   1.881  0.2962 -0.1347  0.1231
 5431TIP3    H137852   6.569   0.795   1.966  1.0376 -2.0794 -0.1267
 5431TIP3    H237853   6.561   0.713   1.839 -3.2672 -1.7890 -0.1918
 5432TIP3   OH237854   2.222   5.960   0.046 -0.2545 -0.1001  0.1330
 5432TIP3    H137855   2.161   5.945  -0.026 -1.2335  1.4960  0.5921
 5432TIP3    H237856   2.213   5.882   0.101 -0.0690 -0.9761 -1.0242
 5433TIP3   OH237857   0.409   5.339   2.060 -0.1868  0.1472  0.4239
 5433TIP3    H137858   0.431   5.302   2.145  0.3022 -1.7661 -0.4942
 5433TIP3    H237859   0.386   5.264   2.005 -0.5266  1.3301 -1.1389
 5434TIP3   OH237860   5.744   4.227   1.152  0.5716 -0.4087 -0.2392
 5434TIP3    H137861   5.691   4.157   1.189 -0.0018  0.0407 -0.2101
 5434TIP3    H237862   5.773   4.279   1.227 -0.6474  0.5424 -0.3937
 5435TIP3   OH237863   0.831   3.246   2.361  0.1838 -0.7125  0.4276
 5435TIP3    H137864   0.818   3.322   2.305 -0.5050 -0.7440  0.5442
 5435TIP3    H237865   0.838   3.172   2.300  0.5619 -0.6017  0.3314
 5436TIP3   OH237866   2.822   3.962   3.041  0.0474  0.0849  0.2215
 5436TIP3    H137867   2.846   3.872   3.018 -1.1361 -1.2917  3.6043
 5436TIP3    H237868   2.736   3.975   3.002 -0.5962 -1.0327  1.1718
 5437TIP3   OH237869   1.493   5.588   2.322 -0.1219 -0.0314 -0.3978
 5437TIP3    H137870   1.538   5.661   2.280  0.0469  0.0589 -0.0625
 5437TIP3    H237871   1.401   5.600   2.299 -0.0632  0.1546 -0.5381
 5438TIP3   OH237872   6.280   1.499   3.464  0.1621 -0.3334  0.1992
 5438TIP3    H137873   6.355   1.536   3.418  2.0494 -1.0780  2.4608
 5438TIP3    H237874   6.313   1.418   3.502 -2.4234 -1.7862 -0.4102
 5439TIP3   OH237875   6.495   4.757   0.108  0.4244 -0.0899  0.3965
 5439TIP3    H137876   6.531   4.789   0.026 -0.0519  0.1991  0.2980
 5439TIP3    H237877   6.568   4.712   0.151  0.6387 -0.3383 -0.2316
 5440TIP3   OH237878   4.811   2.510   0.654 -0.2649 -0.3968 -0.3717
 5440TIP3    H137879   4.811   2.482   0.563 -0.9226 -1.6468 -0.0106
 5440TIP3    H237880   4.822   2.605   0.650  1.0335 -0.5646 -1.6918
 5441TIP3   OH237881   0.632   5.864   1.941  0.2390  0.3457 -0.0934
 5441TIP3    H137882   0.601   5.915   2.015 -0.5431  0.2748 -0.3627
 5441TIP3    H237883   0.605   5.774   1.961 -2.9102  0.7540 -1.9190
 5442TIP3   OH237884   3.471   1.820   2.202  0.5580  0.1860 -0.1608
 5442TIP3    H137885   3.417   1.759   2.152  1.4792  0.2388 -1.2790
 5442TIP3    H237886   3.468   1.788   2.292  0.7540 -1.3183 -0.6680
 5443TIP3   OH237887   2.651   2.213   3.279  0.8126  0.9829  0.0092
 5443TIP3    H137888   2.672   2.130   3.237  0.4165 -0.1936  1.9934
 5443TIP3    H237889   2.615   2.188   3.365 -1.3629  3.1206 -0.1756
 5444TIP3   OH237890   5.145   6.700   2.055 -0.4345  0.4417  0.4291
 5444TIP3    H137891   5.169   6.776   2.108 -1.4205 -0.4132  2.2052
 5444TIP3    H237892   5.225   6.677   2.008  0.3145  1.6177  1.0793
 5445TIP3   OH237893   6.677   5.597   0.833  0.4226 -0.1661 -0.1779
 5445TIP3    H137894   6.723   5.678   0.811  0.3060 -0.5141 -1.8256
 5445TIP3    H237895   6.747   5.534   0.852  0.5089  0.3648  1.4300
 5446TIP3   OH237896   5.176   2.061   1.020 -0.8079 -0.1535  0.2779
 5446TIP3    H137897   5.209   2.129   1.078  1.8207 -0.0549 -1.1901
 5446TIP3    H237898   5.152   1.989   1.079  0.4095  0.4697  1.6053
 5447TIP3   OH237899   4.636   3.315   3.013 -0.3793  0.2020  0.0023
 5447TIP3    H137900   4.674   3.334   3.098 -0.4685  0.9555 -0.1182
 5447TIP3    H237901   4.608   3.223   3.019 -0.5630  0.3073  0.8470
 5448TIP3   OH237902   6.765   0.876   0.230 -0.1849 -0.2787  0.7016
 5448TIP3    H137903   6.734   0.787   0.213  0.3751 -0.3092 -0.2393
 5448TIP3    H237904   6.698   0.932   0.191  0.0112 -0.3106  0.3152
 5449TIP3   OH237905   2.374   5.318   3.967 -0.4230  0.2348 -0.1292
 5449TIP3    H137906   2.327   5.392   4.007  0.9568  0.6806  0.7604
 5449TIP3    H237907   2.376   5.251   4.035  1.3163  0.7284  0.3886
 5450TIP3   OH237908   6.748   0.229   1.938 -0.1110  0.7286 -0.1074
 5450TIP3    H137909   6.705   0.204   1.857  0.1041  0.0904 -0.0297
 5450TIP3    H237910   6.842   0.224   1.918  0.0232 -1.7893  0.8305
 5451TIP3   OH237911   1.737   0.657   1.653  0.3159  0.3066 -0.2114
 5451TIP3    H137912   1.709   0.680   1.564 -1.1030  0.2451  0.1861
 5451TIP3    H237913   1.828   0.684   1.657 -0.1603  2.2636 -1.0416
 5452TIP3   OH237914   6.463   3.387   4.410  0.1934 -0.3286 -0.2153
 5452TIP3    H137915   6.471   3.466   4.463  2.0093 -0.6667  0.0669
 5452TIP3    H237916   6.544   3.382   4.360 -0.4823 -1.2777 -1.2813
 5453TIP3   OH237917   0.607   5.079   0.518  0.6531 -0.1553  0.2989
 5453TIP3    H137918   0.650   5.086   0.432  1.3817 -0.9710  0.5855
 5453TIP3    H237919   0.678   5.093   0.581  0.1310  0.3733  0.7787
 5454TIP3   OH237920   2.397   2.378   2.497  0.6877  0.1861 -0.0165
 5454TIP3    H137921   2.364   2.303   2.448 -1.6721  1.1873 -0.0529
 5454TIP3    H237922   2.412   2.344   2.586  1.7105 -0.7912 -0.5242
 5455TIP3   OH237923   5.178   1.701   3.324 -0.4776 -0.1479  0.2232
 5455TIP3    H137924   5.269   1.699   3.353  0.0839 -0.3525 -1.4244
 5455TIP3    H237925   5.153   1.794   3.331 -0.4287 -0.2190  1.4625
 5456TIP3   OH237926   2.878   4.293   2.393 -0.1309  0.1256 -0.0494
 5456TIP3    H137927   2.843   4.248   2.315 -1.4268  0.4709  0.3111
 5456TIP3    H237928   2.923   4.369   2.358  2.8922 -1.7971 -0.7556
 5457TIP3   OH237929   6.873   5.357   3.800  0.5322  0.7814  0.4385
 5457TIP3    H137930   6.797   5.415   3.805  0.0967  0.5001 -1.6749
 5457TIP3    H237931   6.936   5.405   3.748  1.5712  0.7338  1.6195
 5458TIP3   OH237932   1.380   1.916   2.928  0.2596  0.0795  0.2551
 5458TIP3    H137933   1.297   1.956   2.955  1.0398  1.1367  1.1815
 5458TIP3    H237934   1.356   1.826   2.904 -1.4193  0.8405 -1.1390
 5459TIP3   OH237935   4.943   4.403   0.631  0.2155 -0.5369 -0.2923
 5459TIP3    H137936   4.931   4.492   0.599  0.8952 -0.3375 -0.0084
 5459TIP3    H237937   5.037   4.391   0.634  0.1354 -1.1175  0.0883
 5460TIP3   OH237938   5.384   4.536   1.591  0.3379  0.3043 -0.2426
 5460TIP3    H137939   5.322   4.530   1.664 -0.1795  1.2179 -0.5879
 5460TIP3    H237940   5.338   4.494   1.518  1.1721 -1.3307  0.1329
 5461TIP3   OH237941   4.241   3.578   0.855  0.1726  0.6362  0.4244
 5461TIP3    H137942   4.180   3.539   0.917  0.1574  0.3525  0.2355
 5461TIP3    H237943   4.263   3.507   0.795 -0.6290  1.1551 -0.5345
 5462TIP3   OH237944   2.495   3.210   7.943 -0.2059  0.3651  0.0171
 5462TIP3    H137945   2.417   3.162   7.913 -0.0473  0.3938 -0.4568
 5462TIP3    H237946   2.569   3.161   7.906 -0.0482  1.0366 -0.5684
 5463TIP3   OH237947   6.420   5.704   0.977 -0.3733  0.4082  0.1543
 5463TIP3    H137948   6.337   5.750   0.991 -0.0462  0.9523  0.3122
 5463TIP3    H237949   6.400   5.612   0.998 -0.9385  0.5350  0.1745
 5464TIP3   OH237950   5.767   5.192   0.431  0.3015 -0.9529 -0.5982
 5464TIP3    H137951   5.862   5.181   0.434  0.4338  0.3358  0.9695
 5464TIP3    H237952   5.738   5.127   0.366  2.0435 -2.6902  0.2413
 5465TIP3   OH237953   4.766   1.121   3.844 -0.2748 -0.0502 -0.0000
 5465TIP3    H137954   4.801   1.118   3.933  0.5092  0.9560 -0.2557
 5465TIP3    H237955   4.686   1.172   3.850  0.2137  0.7227 -0.0001
 5466TIP3   OH237956   5.179   4.941   0.706  0.1450 -0.2096 -0.0080
 5466TIP3    H137957   5.236   5.012   0.735  1.3471 -1.7020  1.5186
 5466TIP3    H237958   5.209   4.922   0.616 -0.6747  1.6152 -0.7033
 5467TIP3   OH237959   6.418   1.708   3.344  0.2380 -0.1182 -0.2936
 5467TIP3    H137960   6.424   1.791   3.393  0.7702 -0.2486 -0.1385
 5467TIP3    H237961   6.369   1.731   3.265 -2.0089 -0.2066  0.9840
 5468TIP3   OH237962   0.429   0.484   1.671 -0.5222 -0.1785  0.5281
 5468TIP3    H137963   0.488   0.489   1.595 -0.3186 -0.4992  0.6623
 5468TIP3    H237964   0.342   0.499   1.635 -0.4006 -0.0988  0.2657
 5469TIP3   OH237965   0.363   5.200   1.674 -0.2646  0.0509  0.2393
 5469TIP3    H137966   0.454   5.177   1.659 -0.0016  0.9669  0.3588
 5469TIP3    H237967   0.313   5.133   1.627  0.4075 -1.4788  1.5866
 5470TIP3   OH237968   2.562   1.656   1.551  0.0178 -0.2011 -0.3177
 5470TIP3    H137969   2.548   1.687   1.462  0.8490  0.5097 -0.2175
 5470TIP3    H237970   2.620   1.580   1.542 -0.5780 -0.6461 -0.4367
 5471TIP3   OH237971   4.634   5.446   1.017 -0.9950  0.6426 -0.1130
 5471TIP3    H137972   4.555   5.459   0.964 -1.6117 -0.0186  0.6136
 5471TIP3    H237973   4.608   5.382   1.083  0.8204 -1.4209 -1.2736
 5472TIP3   OH237974   6.899   4.896   4.036 -0.0654 -0.0337 -0.6478
 5472TIP3    H137975   6.890   4.991   4.026  1.0598 -0.0379 -1.9740
 5472TIP3    H237976   6.809   4.863   4.037 -0.4592  1.0139 -0.4887
 5473TIP3   OH237977   0.527   0.156   1.400  0.0252  0.0371 -0.0759
 5473TIP3    H137978   0.461   0.129   1.335 -0.1950 -0.7431  0.4551
 5473TIP3    H237979   0.585   0.215   1.352  0.6236 -1.5226 -1.3532
 5474TIP3   OH237980   5.674   3.002   2.977 -0.1732  0.9356 -0.4262
 5474TIP3    H137981   5.757   2.953   2.974  0.5377  2.1358 -1.4666
 5474TIP3    H237982   5.699   3.089   3.006 -0.8030  1.7775 -2.2688
 5475TIP3   OH237983   1.704   5.267   3.024  0.1664 -0.1901  0.1339
 5475TIP3    H137984   1.736   5.268   3.114  3.6433 -1.9674 -0.8995
 5475TIP3    H237985   1.776   5.229   2.973 -0.9138  2.3512 -3.7262
 5476TIP3   OH237986   1.009   1.500   1.456  0.2640 -0.1362  0.5508
 5476TIP3    H137987   1.081   1.559   1.478  1.0948 -1.2122  0.7724
 5476TIP3    H237988   1.027   1.421   1.507 -0.3652 -0.9056 -0.4042
 5477TIP3   OH237989   5.016   3.745   2.968 -0.2385 -0.0878  0.3488
 5477TIP3    H137990   5.082   3.796   3.016 -0.0621 -1.2843  1.4520
 5477TIP3    H237991   4.985   3.681   3.032 -0.9659 -0.8973 -0.7813
 5478TIP3   OH237992   0.484   0.052   0.322 -0.2038 -0.0217  0.4574
 5478TIP3    H137993   0.553   0.051   0.256 -2.2467 -0.6580 -1.8244
 5478TIP3    H237994   0.440   0.136   0.310 -1.3535 -0.6492  0.1079
 5479TIP3   OH237995   6.581   0.719   0.950 -0.1658 -0.2751 -0.0169
 5479TIP3    H137996   6.629   0.773   1.012 -0.6954 -0.5811  0.6794
 5479TIP3    H237997   6.624   0.734   0.866  0.4155  0.3278  0.3802
 5480TIP3   OH237998   6.457   3.003   3.216  0.0239 -1.2195  0.5702
 5480TIP3    H137999   6.367   3.020   3.245  0.3946 -0.0505  1.0891
 5480TIP3    H238000   6.462   2.907   3.210 -1.0135 -1.3434  1.3089
 5481TIP3   OH238001   3.928   5.235   7.967  0.0589 -0.3675 -0.9701
 5481TIP3    H138002   3.904   5.236   8.060 -1.6629 -0.4803 -1.3790
 5481TIP3    H238003   3.923   5.327   7.941  0.9382 -0.2834 -0.8777
 5482TIP3   OH238004   5.602   2.747   4.121  0.1608 -0.1396 -0.1298
 5482TIP3    H138005   5.559   2.832   4.105 -1.5777 -0.7379  1.0187
 5482TIP3    H238006   5.619   2.747   4.215 -0.3792 -1.2856 -0.0238
 5483TIP3   OH238007   3.233   3.588   0.460 -0.1807 -0.4447  0.6252
 5483TIP3    H138008   3.254   3.674   0.424 -0.2362  0.0805  1.8071
 5483TIP3    H238009   3.289   3.527   0.411  0.3942  0.3428  0.2833
 5484TIP3   OH238010   4.423   5.258   2.992 -0.3957  0.7744  0.0333
 5484TIP3    H138011   4.425   5.337   2.938  0.8222 -0.4339 -1.7722
 5484TIP3    H238012   4.371   5.195   2.942 -0.9440  0.2501  1.2198
 5485TIP3   OH238013   5.861   5.664   0.647  0.0396 -0.0463  0.0428
 5485TIP3    H138014   5.870   5.753   0.680 -0.6647 -0.3005  0.9996
 5485TIP3    H238015   5.931   5.615   0.690 -1.0413 -0.4350  1.4807
 5486TIP3   OH238016   4.823   5.390   1.360 -0.3597 -0.1386  0.5486
 5486TIP3    H138017   4.851   5.369   1.449 -1.5397 -0.9092  0.7655
 5486TIP3    H238018   4.758   5.460   1.371  0.0996  0.3440  0.2200
 5487TIP3   OH238019   4.935   2.466   8.451 -0.2911 -0.1010  0.8699
 5487TIP3    H138020   4.944   2.553   8.412  1.2120 -0.4217  0.4230
 5487TIP3    H238021   4.848   2.466   8.491 -1.0453  0.9512 -0.7057
 5488TIP3   OH238022   0.114   3.247   0.324 -0.1584 -0.1428  0.1299
 5488TIP3    H138023   0.116   3.156   0.295  0.7785  0.1963 -0.9341
 5488TIP3    H238024   0.094   3.297   0.245  0.0420  0.6307  0.5640
 5489TIP3   OH238025   2.991   6.751   3.428  0.5053 -0.4824  0.3049
 5489TIP3    H138026   3.079   6.780   3.451 -0.7343  1.1536  3.7292
 5489TIP3    H238027   2.949   6.829   3.391 -0.2141 -0.4656  1.1183
 5490TIP3   OH238028   6.151   3.200   1.834  0.0073 -0.1211  0.8333
 5490TIP3    H138029   6.224   3.206   1.772 -0.0011 -0.5310  0.7760
 5490TIP3    H238030   6.140   3.288   1.868  1.0023 -0.2076  1.3860
 5491TIP3   OH238031   5.311   2.136   1.692  0.3771 -0.3979 -0.8186
 5491TIP3    H138032   5.345   2.223   1.714 -0.7893  0.2021 -1.2654
 5491TIP3    H238033   5.388   2.081   1.683  1.1805  0.7440 -1.1289
 5492TIP3   OH238034   1.762   1.343   2.556 -0.2848 -0.0015 -0.5723
 5492TIP3    H138035   1.818   1.284   2.505 -1.6756 -0.3372 -1.8199
 5492TIP3    H238036   1.677   1.340   2.510 -1.3463  0.4169  1.2531
 5493TIP3   OH238037   4.039   1.584   3.368  0.1631 -0.2400 -0.5912
 5493TIP3    H138038   4.049   1.594   3.273  0.0298 -0.3029 -0.6120
 5493TIP3    H238039   4.092   1.655   3.405  0.3550 -0.3201 -0.7084
 5494TIP3   OH238040   5.235   1.518   3.688 -0.5055 -0.1436  0.2724
 5494TIP3    H138041   5.275   1.514   3.601 -0.8086  0.7321  0.0807
 5494TIP3    H238042   5.262   1.603   3.723 -1.4551  0.0747  0.5003
 5495TIP3   OH238043   4.803   2.136   1.667  0.0019 -0.1594  0.4623
 5495TIP3    H138044   4.778   2.213   1.616 -0.9117 -0.4152  0.4986
 5495TIP3    H238045   4.892   2.154   1.696  0.1547  0.4494 -0.3471
 5496TIP3   OH238046   1.195   1.569   0.005 -0.0839 -0.4972 -0.2821
 5496TIP3    H138047   1.195   1.478  -0.026 -1.1514 -0.3633 -0.7394
 5496TIP3    H238048   1.127   1.570   0.073 -0.4563  0.0741 -0.6613
 5497TIP3   OH238049   5.662   1.659   3.356  0.0583  0.5570  0.3827
 5497TIP3    H138050   5.731   1.615   3.306 -0.6502  0.8343 -0.9146
 5497TIP3    H238051   5.652   1.744   3.313 -0.7589  0.7070  0.8411
 5498TIP3   OH238052   1.828   0.018   1.403 -0.1023 -0.5317  0.7111
 5498TIP3    H138053   1.856  -0.073   1.391  2.0409  0.3386 -1.7295
 5498TIP3    H238054   1.906   0.063   1.437  0.9157  1.4072 -3.5357
 5499TIP3   OH238055   3.035   5.844   0.669  0.0069 -0.2289 -0.3338
 5499TIP3    H138056   2.989   5.783   0.726 -0.3764  0.3954  0.0351
 5499TIP3    H238057   2.967   5.875   0.608 -0.1936  1.0401  0.4992
 5500TIP3   OH238058   5.063   0.473   2.133  0.0111 -0.2802 -0.4359
 5500TIP3    H138059   4.974   0.439   2.136 -0.9833  2.1775 -0.3429
 5500TIP3    H238060   5.055   0.562   2.098  2.3676  0.1825 -0.0116
 5501TIP3   OH238061   5.732   1.673   2.753  0.4081  0.2591  0.6563
 5501TIP3    H138062   5.784   1.682   2.833 -0.2963  0.6841  1.0734
 5501TIP3    H238063   5.790   1.706   2.684  0.1792  2.1837  1.3153
 5502TIP3   OH238064   5.585   2.503   1.703  0.4865  0.2040 -0.5601
 5502TIP3    H138065   5.604   2.540   1.790 -0.3103 -0.0856 -0.2505
 5502TIP3    H238066   5.535   2.571   1.659  1.3078  0.5477 -0.9865
 5503TIP3   OH238067   4.730   4.854   0.817 -0.1144  0.0683  0.6364
 5503TIP3    H138068   4.752   4.862   0.724  0.8634 -1.2824  0.7232
 5503TIP3    H238069   4.634   4.854   0.819 -0.1461  0.2385 -0.3545
 5504TIP3   OH238070   3.024   1.816   0.022  0.0525 -0.2407 -0.3259
 5504TIP3    H138071   2.980   1.862  -0.049 -0.8565 -0.2236  0.2338
 5504TIP3    H238072   3.114   1.850   0.021 -0.3704  0.9126 -0.4604
 5505TIP3   OH238073   5.328   3.474   4.259 -0.0108 -0.9007  0.8177
 5505TIP3    H138074   5.283   3.393   4.235 -0.1341 -0.3172 -1.0418
 5505TIP3    H238075   5.257   3.536   4.276  0.0528 -0.3427 -0.8325
 5506TIP3   OH238076   3.057   0.515   1.008  0.1269  0.7279 -0.0372
 5506TIP3    H138077   3.048   0.587   0.945  0.4901  0.5157 -0.3404
 5506TIP3    H238078   3.038   0.555   1.093 -0.8676  0.9042 -0.3328
 5507TIP3   OH238079   2.534   3.464   0.360  0.5193  0.2122 -0.1587
 5507TIP3    H138080   2.478   3.541   0.377  1.1161  0.6391 -0.1007
 5507TIP3    H238081   2.618   3.501   0.335  0.0244 -0.3627 -3.0520
 5508TIP3   OH238082   3.624   0.196   1.586  0.1591  0.1645 -0.0385
 5508TIP3    H138083   3.711   0.155   1.583  0.7735  1.0859  2.6344
 5508TIP3    H238084   3.563   0.123   1.593  1.0222 -0.4559  1.7303
 5509TIP3   OH238085   2.633   3.710   3.078  0.4709 -0.0723  0.7351
 5509TIP3    H138086   2.659   3.632   3.029 -1.6371  0.5289 -1.5447
 5509TIP3    H238087   2.601   3.676   3.162 -1.9507 -1.9183 -0.8185
 5510TIP3   OH238088   2.472   1.607   2.444 -0.1286  0.1946 -0.1467
 5510TIP3    H138089   2.557   1.652   2.443  0.4988 -0.6788  2.9948
 5510TIP3    H238090   2.470   1.558   2.362  2.3160  0.3815 -0.3954
 5511TIP3   OH238091   5.163   5.408   1.948 -0.0064 -0.6467 -0.1989
 5511TIP3    H138092   5.221   5.332   1.947 -1.1259 -1.6486  2.2144
 5511TIP3    H238093   5.087   5.379   1.998 -1.4731  1.4081 -1.1066
 5512TIP3   OH238094   3.773   5.649   1.444 -0.0338  0.0756  0.4548
 5512TIP3    H138095   3.759   5.555   1.432  1.2188  0.1445 -2.1396
 5512TIP3    H238096   3.855   5.667   1.399 -0.7154  2.5717  0.0560
 5513TIP3   OH238097   3.843   6.524   3.124 -0.2530  0.3958  0.0001
 5513TIP3    H138098   3.780   6.549   3.192  0.6427  0.7334  0.7183
 5513TIP3    H238099   3.789   6.480   3.058 -1.2790  0.8609  0.4911
 5514TIP3   OH238100   2.031   4.007   1.228 -0.0013 -0.2199  0.0434
 5514TIP3    H138101   2.075   3.922   1.221  0.1916 -0.3407  2.0947
 5514TIP3    H238102   1.940   3.986   1.248  0.2609  0.0187  1.6142
 5515TIP3   OH238103   5.920   0.320   1.769  0.5621 -0.1671  0.4004
 5515TIP3    H138104   5.850   0.350   1.827  0.7345  1.7458 -0.3163
 5515TIP3    H238105   5.922   0.225   1.781 -1.9453 -0.2525  0.6605
 5516TIP3   OH238106   5.496   0.552   3.319  0.2013  0.0238 -0.0865
 5516TIP3    H138107   5.487   0.569   3.412 -2.0195 -1.0963 -0.0275
 5516TIP3    H238108   5.521   0.459   3.314  1.6418  0.4189 -0.5955
 5517TIP3   OH238109   4.441   4.462   0.899  0.4612 -0.4548 -0.3309
 5517TIP3    H138110   4.521   4.419   0.930 -0.1131 -0.2765  1.5753
 5517TIP3    H238111   4.385   4.464   0.977 -2.4124 -2.7981 -2.1571
 5518TIP3   OH238112   2.565   1.486   1.095 -0.4907 -0.0526  0.5821
 5518TIP3    H138113   2.503   1.499   1.024 -1.1755  3.2652  1.6047
 5518TIP3    H238114   2.527   1.416   1.148 -1.1234 -0.9896 -1.0309
 5519TIP3   OH238115   0.208   1.986   1.399 -0.2253  0.0340 -0.3025
 5519TIP3    H138116   0.133   1.941   1.361 -1.2074  1.3258  0.0307
 5519TIP3    H238117   0.217   2.066   1.346  0.5011  0.2072  0.0700
 5520TIP3   OH238118   5.266   1.507   0.532  0.4264  0.6281  0.1631
 5520TIP3    H138119   5.246   1.542   0.446  1.9151  0.9731 -0.0736
 5520TIP3    H238120   5.361   1.513   0.539  0.4845 -0.8259  1.2186
 5521TIP3   OH238121   3.502   4.645   4.101 -0.0398 -0.1436  0.2896
 5521TIP3    H138122   3.583   4.620   4.146 -0.8007 -0.8613  1.3001
 5521TIP3    H238123   3.522   4.730   4.062  0.8736  0.1879  1.4160
 5522TIP3   OH238124   4.979   4.272   2.879  0.4521  0.1739 -0.0104
 5522TIP3    H138125   4.925   4.336   2.833  1.2538  0.9188  0.0670
 5522TIP3    H238126   4.950   4.276   2.970  1.1462  1.1270  0.1786
 5523TIP3   OH238127   4.418   1.337   3.699  0.1552 -0.7988  0.7933
 5523TIP3    H138128   4.477   1.354   3.773 -0.1960 -1.1041  1.1504
 5523TIP3    H238129   4.411   1.242   3.696  0.2603 -0.7902  0.2879
 5524TIP3   OH238130   1.942   1.170   2.465 -0.3549  0.7854  0.2104
 5524TIP3    H138131   1.917   1.079   2.476 -0.2390  0.7535  0.2138
 5524TIP3    H238132   1.939   1.184   2.370  2.1711  0.0325 -0.0605
 5525TIP3   OH238133   3.751   3.944   1.613  0.7194 -0.2023  0.1886
 5525TIP3    H138134   3.801   3.867   1.589 -0.2625 -0.9247  0.4007
 5525TIP3    H238135   3.802   4.018   1.579  3.0161 -0.7152  2.2103
 5526TIP3   OH238136   6.448   0.500   2.788 -0.0966  0.0023  0.0966
 5526TIP3    H138137   6.353   0.502   2.798 -0.1224  0.1902 -0.1497
 5526TIP3    H238138   6.474   0.412   2.815 -0.2194  0.2812  1.1618
 5527TIP3   OH238139   2.429   3.029   1.405  0.6044 -0.3764 -0.2362
 5527TIP3    H138140   2.371   3.074   1.343 -2.4350 -0.4818  2.2678
 5527TIP3    H238141   2.467   3.100   1.458  2.4111 -0.3485 -1.5022
 5528TIP3   OH238142   5.716   5.566   1.547 -0.7740  0.2966 -0.5557
 5528TIP3    H138143   5.702   5.638   1.607  1.4805  0.0955  0.3070
 5528TIP3    H238144   5.637   5.512   1.554 -0.7931  0.5694  1.8260
 5529TIP3   OH238145   1.308   3.316   3.867  0.4529 -0.3187 -0.6898
 5529TIP3    H138146   1.364   3.254   3.819  0.8812 -1.5013  1.2320
 5529TIP3    H238147   1.333   3.305   3.959 -1.4622  0.6710  0.0086
 5530TIP3   OH238148   4.851   1.780   3.410  0.0566 -0.1753  0.6032
 5530TIP3    H138149   4.869   1.728   3.489  1.4929  0.5605  0.7915
 5530TIP3    H238150   4.807   1.719   3.351 -2.1610 -0.4352  2.3826
 5531TIP3   OH238151   1.010   6.423   0.639  0.1758  0.1766  0.5622
 5531TIP3    H138152   1.098   6.460   0.637 -0.3447  1.5085  0.7113
 5531TIP3    H238153   0.953   6.500   0.646 -0.9973 -0.6573  0.3740
 5532TIP3   OH238154   5.281   6.736   0.604  0.6733 -0.2796 -0.0983
 5532TIP3    H138155   5.328   6.678   0.545 -0.3484 -0.2369 -0.9744
 5532TIP3    H238156   5.343   6.752   0.676  1.5290 -1.1979 -0.6070
 5533TIP3   OH238157   2.011   6.131   0.057 -0.3184 -0.5702 -0.0388
 5533TIP3    H138158   2.088   6.082   0.085  0.5261  1.0867  0.6626
 5533TIP3    H238159   2.042   6.185  -0.016 -0.7117  0.3504  0.4593
 5534TIP3   OH238160   0.856   3.008   0.004  0.1823 -0.7408 -0.0919
 5534TIP3    H138161   0.838   3.082   0.063 -0.1946 -1.0675  0.2066
 5534TIP3    H238162   0.912   2.950   0.054  0.5933 -0.5946 -0.3779
 5535TIP3   OH238163   5.581   3.218   2.559  0.3387  0.5712 -0.6387
 5535TIP3    H138164   5.650   3.162   2.593  0.1149  0.8311  0.2788
 5535TIP3    H238165   5.617   3.255   2.479  0.9009 -0.0257 -0.6695
 5536TIP3   OH238166   5.267   6.731   1.156  0.4008  0.3565  0.1347
 5536TIP3    H138167   5.186   6.680   1.157  0.0719  0.8809  0.9488
 5536TIP3    H238168   5.328   6.677   1.106  0.2264 -1.1391  1.4466
 5537TIP3   OH238169   4.863   6.852   2.162  0.0055  0.1133  0.0378
 5537TIP3    H138170   4.811   6.850   2.243  0.1016  0.9022  0.1241
 5537TIP3    H238171   4.886   6.944   2.151 -0.2424  0.0595 -1.0402
 5538TIP3   OH238172   1.717   3.091   1.450  0.1636  0.0027  0.4174
 5538TIP3    H138173   1.792   3.119   1.502  0.6056 -0.8030  0.2248
 5538TIP3    H238174   1.730   2.997   1.437  0.0526  0.1772 -1.1343
 5539TIP3   OH238175   2.065   1.607   1.171  0.1678  0.1597 -0.3487
 5539TIP3    H138176   2.106   1.585   1.255  0.7802 -0.5876 -0.8419
 5539TIP3    H238177   2.131   1.658   1.124 -0.5498  1.4870  0.0140
 5540TIP3   OH238178   0.480   4.264   3.780  0.0829  0.2354  0.2204
 5540TIP3    H138179   0.489   4.355   3.752  0.2316 -0.2779 -1.5426
 5540TIP3    H238180   0.552   4.218   3.736  0.4677 -0.6218  1.6880
 5541TIP3   OH238181   2.950   3.750   2.858  0.6190  0.0319  0.4996
 5541TIP3    H138182   3.011   3.754   2.932  2.1413  1.7472 -0.7757
 5541TIP3    H238183   3.001   3.708   2.788 -0.0035  0.5366 -0.2667
 5542TIP3   OH238184   4.057   6.240   2.302 -0.1371  0.4978  0.2988
 5542TIP3    H138185   4.046   6.157   2.348  0.4952  1.3186  2.0178
 5542TIP3    H238186   4.149   6.242   2.278 -0.4561  0.0837 -1.0714
 5543TIP3   OH238187   0.293   6.751   1.366  0.3136  0.0481 -0.0854
 5543TIP3    H138188   0.318   6.826   1.313  1.2170  0.5120  0.9506
 5543TIP3    H238189   0.307   6.779   1.456 -0.3421 -1.0098  0.3753
 5544TIP3   OH238190   5.122   5.147   1.414  0.0906 -0.0155 -0.0026
 5544TIP3    H138191   5.123   5.173   1.322  1.2260 -1.3055 -0.3926
 5544TIP3    H238192   5.082   5.060   1.414  0.2490 -0.0954  0.7065
 5545TIP3   OH238193   4.876   6.045   3.071  0.0522 -0.1671 -0.2799
 5545TIP3    H138194   4.959   6.085   3.045  0.4861 -0.4988  0.5425
 5545TIP3    H238195   4.844   6.002   2.992  0.8322 -0.3159 -0.5262
 5546TIP3   OH238196   5.718   1.566   2.362 -0.1975 -0.2325 -0.7890
 5546TIP3    H138197   5.777   1.550   2.435 -1.6043 -0.6916  0.3008
 5546TIP3    H238198   5.769   1.543   2.284  0.1876 -3.4514  0.2508
 5547TIP3   OH238199   3.944   4.189   0.435 -0.2862 -0.2166 -0.1246
 5547TIP3    H138200   3.999   4.250   0.386 -0.0765 -0.3690 -0.0842
 5547TIP3    H238201   3.955   4.215   0.527 -1.4836  0.7180 -0.2252
 5548TIP3   OH238202   0.458   2.773   2.873 -0.3378  0.2966  0.3441
 5548TIP3    H138203   0.434   2.682   2.886 -2.5998  0.8604  0.5493
 5548TIP3    H238204   0.374   2.820   2.872  0.7879  2.4516  0.9130
 5549TIP3   OH238205   0.108   6.271   0.529 -0.0613 -0.3450  0.0611
 5549TIP3    H138206   0.158   6.253   0.608 -0.2545  1.3310  0.5955
 5549TIP3    H238207   0.018   6.248   0.552 -0.0622 -0.1872  0.2152
 5550TIP3   OH238208   1.291   6.789   0.896 -0.2767 -0.1345 -0.1850
 5550TIP3    H138209   1.379   6.760   0.874 -0.1528  0.8707 -1.1129
 5550TIP3    H238210   1.297   6.819   0.987  0.6131  0.9563 -0.5902
 5551TIP3   OH238211   1.739   6.022   3.601 -0.4249 -0.0413 -0.1364
 5551TIP3    H138212   1.819   5.981   3.635 -1.5249 -2.2044  0.0473
 5551TIP3    H238213   1.691   6.050   3.679 -1.4125 -1.9983  0.0490
 5552TIP3   OH238214   5.553   6.569   1.488 -1.0103  0.1435 -0.2506
 5552TIP3    H138215   5.623   6.545   1.548  0.1255 -1.2919 -2.0357
 5552TIP3    H238216   5.589   6.640   1.435  1.2469 -3.5477 -4.3807
 5553TIP3   OH238217   1.819   4.775   1.051  0.1007  0.0271 -0.3422
 5553TIP3    H138218   1.748   4.820   1.096 -0.7106 -1.5469  0.0481
 5553TIP3    H238219   1.898   4.802   1.097 -0.5322 -0.2085  0.9225
 5554TIP3   OH238220   5.804   0.588   1.400 -0.5272  0.9548 -0.4694
 5554TIP3    H138221   5.778   0.633   1.480 -0.5498 -0.6386  0.4583
 5554TIP3    H238222   5.894   0.560   1.417 -0.1183  1.6105 -1.4767
 5555TIP3   OH238223   6.475   6.183   2.908  0.4478 -0.3066 -0.2179
 5555TIP3    H138224   6.475   6.165   3.002  1.6239  0.6667 -0.0017
 5555TIP3    H238225   6.524   6.265   2.899 -1.2753  0.6396 -1.5136
 5556TIP3   OH238226   5.830   5.853   0.149  0.2334  0.2554 -0.3013
 5556TIP3    H138227   5.739   5.823   0.158 -0.1167  0.4068 -2.7309
 5556TIP3    H238228   5.874   5.782   0.103  0.4452  1.5462 -2.2411
 5557TIP3   OH238229   3.782   5.944   1.459  0.4939 -0.0934 -0.1558
 5557TIP3    H138230   3.762   5.878   1.393  1.5529 -1.2064  0.6053
 5557TIP3    H238231   3.841   6.005   1.415  1.4439 -1.0009 -0.1710
 5558TIP3   OH238232   3.292   5.356   0.011  0.4711 -0.2570 -0.0750
 5558TIP3    H138233   3.342   5.274   0.017  1.8854  0.5062 -0.9858
 5558TIP3    H238234   3.244   5.349  -0.071  0.4428 -0.2424 -0.0601
 5559TIP3   OH238235   0.062   1.215   3.324  0.1467  0.0098 -0.8455
 5559TIP3    H138236   0.056   1.153   3.252 -0.1147 -1.8620  0.6890
 5559TIP3    H238237  -0.029   1.244   3.338 -0.4145 -2.2179  0.7725
 5560TIP3   OH238238   5.122   4.644   3.395 -0.0635  0.6174  0.4284
 5560TIP3    H138239   5.032   4.675   3.408 -0.7048 -0.5336 -0.9465
 5560TIP3    H238240   5.142   4.668   3.305  1.0555  0.9249  0.7465
 5561TIP3   OH238241   0.214   1.648   2.958 -0.3307 -0.3214  0.1236
 5561TIP3    H138242   0.303   1.614   2.946 -0.1021 -0.5366  2.0960
 5561TIP3    H238243   0.207   1.720   2.895  0.9064 -0.8816 -0.6975
 5562TIP3   OH238244   3.365   2.899   2.012 -0.0684 -0.0585 -0.2372
 5562TIP3    H138245   3.300   2.850   1.962  1.7647 -2.8823 -0.0390
 5562TIP3    H238246   3.325   2.914   2.097 -1.3055  0.3162 -0.8727
 5563TIP3   OH238247   5.743   6.342   2.688  0.3841 -0.5287 -0.3501
 5563TIP3    H138248   5.667   6.360   2.744  1.8748  2.2211  1.0089
 5563TIP3    H238249   5.727   6.254   2.653 -2.8204 -0.5349  0.7830
 5564TIP3   OH238250   0.738   4.672   1.256  0.6134  0.1828 -0.5969
 5564TIP3    H138251   0.650   4.678   1.294  0.4324 -0.3626 -0.9148
 5564TIP3    H238252   0.723   4.643   1.166  1.1501 -0.4582 -0.4862
 5565TIP3   OH238253   4.111   5.117   4.228  1.1080 -0.3268  0.3313
 5565TIP3    H138254   4.174   5.129   4.298  0.9754  2.5851  0.0720
 5565TIP3    H238255   4.155   5.151   4.150 -0.6932  1.8823  0.1637
 5566TIP3   OH238256   3.472   3.506   8.344  0.1432  0.1902 -0.8644
 5566TIP3    H138257   3.566   3.492   8.349  0.2136  1.1613  1.1153
 5566TIP3    H238258   3.461   3.576   8.280  1.0603  2.2188  1.0781
 5567TIP3   OH238259   6.481   5.276   2.292 -0.5264 -0.3849 -0.5108
 5567TIP3    H138260   6.576   5.277   2.304 -0.6768  1.1930  1.0693
 5567TIP3    H238261   6.456   5.185   2.305  0.8428 -1.0105 -1.9393
 5568TIP3   OH238262   5.620   5.606   2.411 -0.4798 -0.5482 -0.3628
 5568TIP3    H138263   5.527   5.621   2.426 -0.5106  1.2560 -2.0148
 5568TIP3    H238264   5.650   5.684   2.364  2.5277  0.3700  2.6752
 5569TIP3   OH238265   2.621   3.120   2.791  0.0952 -0.4216 -0.3067
 5569TIP3    H138266   2.552   3.062   2.824 -0.6760 -0.0126 -1.1692
 5569TIP3    H238267   2.574   3.191   2.748  1.0561 -0.1510 -0.9338
 5570TIP3   OH238268   6.177   0.538   2.175 -0.6836 -0.2808  0.2360
 5570TIP3    H138269   6.084   0.528   2.194 -0.5706 -0.6823  0.5857
 5570TIP3    H238270   6.213   0.450   2.182 -0.1705 -0.0468  0.6602
 5571TIP3   OH238271   4.023   1.249   3.138  0.3463 -0.2894 -0.1788
 5571TIP3    H138272   3.976   1.207   3.066 -0.2426 -0.7383  0.4646
 5571TIP3    H238273   3.963   1.316   3.171 -0.3136 -1.5624  1.3288
 5572TIP3   OH238274   0.871   2.922   0.366 -0.1469  0.1239  0.3474
 5572TIP3    H138275   0.913   2.998   0.406 -0.9599  0.0905  1.3037
 5572TIP3    H238276   0.942   2.875   0.321  0.1613  2.1596 -1.4692
 5573TIP3   OH238277   5.134   2.716   1.025  0.1894 -0.3322  0.2953
 5573TIP3    H138278   5.050   2.747   1.061  0.0475 -0.9528  0.5200
 5573TIP3    H238279   5.168   2.790   0.976  0.0464  0.3120  1.1399
 5574TIP3   OH238280   0.189   3.643   2.164 -0.0280  0.0278 -0.1919
 5574TIP3    H138281   0.211   3.729   2.129  0.9971 -0.5897 -1.1846
 5574TIP3    H238282   0.247   3.583   2.115 -0.7456 -1.2123  0.4398
 5575TIP3   OH238283   6.146   0.202   8.275  0.1206 -0.0613  0.8294
 5575TIP3    H138284   6.119   0.129   8.331 -3.6112  0.3769 -0.1105
 5575TIP3    H238285   6.157   0.276   8.335 -0.5269 -0.3694  1.3406
 5576TIP3   OH238286   4.944   3.624   1.616 -0.5496  0.1603 -0.9912
 5576TIP3    H138287   4.879   3.556   1.595  1.6681 -1.9036 -1.5378
 5576TIP3    H238288   4.956   3.671   1.534  0.4467 -1.1226 -1.6225
 5577TIP3   OH238289   1.018   5.320   3.116  0.3199 -0.2455 -0.8965
 5577TIP3    H138290   1.084   5.328   3.184 -0.0307 -1.6114 -0.3603
 5577TIP3    H238291   1.068   5.313   3.035  0.7428  1.3045 -0.7994
 5578TIP3   OH238292   4.270   3.835   0.936 -0.6882 -0.1484  0.2395
 5578TIP3    H138293   4.238   3.745   0.938  0.6375 -0.6318  1.0614
 5578TIP3    H238294   4.236   3.874   1.016  1.5031 -0.9762  1.6686
 5579TIP3   OH238295   0.059   3.414   0.107 -1.1256  0.2487  0.5517
 5579TIP3    H138296   0.087   3.506   0.109  2.4952 -0.6751  0.5121
 5579TIP3    H238297   0.020   3.403   0.020  0.0948  1.3736 -0.1730
 5580TIP3   OH238298   4.399   3.739   2.844  0.3911 -0.4545 -0.0086
 5580TIP3    H138299   4.400   3.674   2.773 -1.4975  2.4738 -2.9816
 5580TIP3    H238300   4.479   3.789   2.831  0.7500 -0.7696  0.9013
 5581TIP3   OH238301   1.714   3.792   0.969  0.0102 -0.6572 -0.5670
 5581TIP3    H138302   1.724   3.764   0.878 -0.8943 -1.7967 -0.3363
 5581TIP3    H238303   1.691   3.712   1.016  0.0234  0.0060  0.5890
 5582TIP3   OH238304   5.677   6.867   2.787  0.8154  0.4245  0.1456
 5582TIP3    H138305   5.691   6.958   2.811 -0.1343  0.5550  0.2484
 5582TIP3    H238306   5.630   6.829   2.862  3.4436 -0.8662  1.3092
 5583TIP3   OH238307   1.552   0.217   1.496  0.1168  0.4163 -0.2814
 5583TIP3    H138308   1.508   0.289   1.541 -0.0645  0.9926 -1.3605
 5583TIP3    H238309   1.482   0.154   1.478  0.1725  0.2304  0.1193
 5584TIP3   OH238310   0.347   1.949   2.160 -0.6276  0.0952 -0.1969
 5584TIP3    H138311   0.348   1.987   2.072 -0.6723 -2.4570 -1.4043
 5584TIP3    H238312   0.427   1.981   2.201 -0.0987  0.5759 -1.5441
 5585TIP3   OH238313   2.582   2.146   0.750  0.5075 -0.4767  0.2341
 5585TIP3    H138314   2.616   2.154   0.839  0.6585  1.4605  0.0449
 5585TIP3    H238315   2.659   2.154   0.694  0.2143  0.0795 -0.1013
 5586TIP3   OH238316   1.688   1.557   4.024 -0.0483  0.0954  0.2890
 5586TIP3    H138317   1.677   1.533   3.932  2.6635  2.5704 -0.8256
 5586TIP3    H238318   1.774   1.599   4.028 -0.3910  0.7650  3.8305
 5587TIP3   OH238319   2.562   1.984   0.152  0.0982  0.3638 -0.7053
 5587TIP3    H138320   2.561   1.903   0.202  1.1873  0.0356 -1.1748
 5587TIP3    H238321   2.562   2.054   0.218 -0.6772 -0.0108 -0.3012
 5588TIP3   OH238322   2.024   1.712   1.463  0.2044 -0.0770  0.0361
 5588TIP3    H138323   2.023   1.617   1.475  0.9754 -0.0434  0.3900
 5588TIP3    H238324   1.972   1.747   1.535 -0.3153 -0.2414 -0.2538
 5589TIP3   OH238325   0.939   6.482   2.364 -0.0194 -0.3475  0.1040
 5589TIP3    H138326   0.848   6.466   2.338 -0.3525 -1.4642  1.7654
 5589TIP3    H238327   0.955   6.573   2.341 -2.0180  0.2858  0.9920
 5590TIP3   OH238328   0.107   2.170   3.898  0.2719  0.2585 -0.0167
 5590TIP3    H138329   0.087   2.227   3.972  0.3249 -0.0563  0.2394
 5590TIP3    H238330   0.037   2.188   3.835 -0.9297 -0.9209  0.9208
 5591TIP3   OH238331   5.864   4.207   0.896  0.1011  0.6164  0.0988
 5591TIP3    H138332   5.794   4.142   0.883  0.3858  0.5196 -1.0259
 5591TIP3    H238333   5.834   4.259   0.971 -0.5961 -0.1936  0.4010
 5592TIP3   OH238334   4.332   4.266   1.683 -0.0120  0.4030  0.2567
 5592TIP3    H138335   4.287   4.204   1.741  0.2345 -0.6147 -0.5938
 5592TIP3    H238336   4.298   4.245   1.596 -0.1698  1.7159 -0.0077
 5593TIP3   OH238337   6.157   1.931   2.600 -0.4284 -0.1743  0.0338
 5593TIP3    H138338   6.147   2.024   2.621 -2.2942 -0.0833 -0.9876
 5593TIP3    H238339   6.203   1.930   2.516 -0.1073 -0.1971  0.2084
 5594TIP3   OH238340   2.233   4.343   3.760 -0.2787 -0.0941 -0.0601
 5594TIP3    H138341   2.214   4.284   3.833 -0.5915  0.0525 -0.0212
 5594TIP3    H238342   2.206   4.295   3.682  0.3242 -0.3673 -0.1105
 5595TIP3   OH238343   5.613   0.331   1.473 -0.2381 -0.3481  0.0628
 5595TIP3    H138344   5.661   0.248   1.471 -0.8828 -0.7417  0.7538
 5595TIP3    H238345   5.668   0.391   1.421 -0.1090 -1.3816 -1.0474
 5596TIP3   OH238346   3.044   4.269   2.047  0.4009 -0.2770  0.1898
 5596TIP3    H138347   3.102   4.284   1.973 -1.7288  0.5778 -1.3850
 5596TIP3    H238348   3.024   4.175   2.044 -1.2013  0.0691 -1.5808
 5597TIP3   OH238349   3.177   1.724   2.969 -0.2286 -0.3696 -0.9507
 5597TIP3    H138350   3.227   1.651   2.934  0.9933  0.6518 -1.4428
 5597TIP3    H238351   3.214   1.740   3.055 -2.1773 -1.8721  0.2545
 5598TIP3   OH238352   0.247   6.153   1.810 -0.2259 -0.2747 -0.0991
 5598TIP3    H138353   0.273   6.068   1.776  1.0406  0.3019 -0.6616
 5598TIP3    H238354   0.236   6.139   1.904 -1.3831 -1.3414 -0.3767
 5599TIP3   OH238355   1.776   4.552   0.668 -0.1019 -0.2548 -0.2467
 5599TIP3    H138356   1.792   4.458   0.658 -0.5346 -0.5229  1.3959
 5599TIP3    H238357   1.683   4.559   0.689  0.2586  0.3976  1.2335
 5600TIP3   OH238358   0.089   4.436   0.965 -0.3576  0.2823 -0.1398
 5600TIP3    H138359   0.017   4.413   1.024 -1.8210  1.0228 -1.5813
 5600TIP3    H238360   0.137   4.505   1.012 -0.7865  0.0363  0.6747
 5601TIP3   OH238361   6.564   5.702   8.247  0.0285 -0.1207 -0.0054
 5601TIP3    H138362   6.472   5.726   8.241  0.2493  1.1401  1.2042
 5601TIP3    H238363   6.565   5.623   8.301 -0.4186 -0.9461 -1.1509
 5602TIP3   OH238364   1.509   5.804   1.212  0.1370 -0.4690  0.3223
 5602TIP3    H138365   1.479   5.718   1.182 -0.3576 -0.8628  1.8748
 5602TIP3    H238366   1.536   5.789   1.302 -0.1763  1.0657  0.6820
 5603TIP3   OH238367   4.855   0.778   1.388  0.0045  0.0031 -0.2132
 5603TIP3    H138368   4.885   0.857   1.432  1.1067 -1.3281  1.5419
 5603TIP3    H238369   4.920   0.712   1.410 -2.2450 -2.0768  0.6035
 5604TIP3   OH238370   2.616   4.047   1.602  0.4977 -0.0519 -0.3627
 5604TIP3    H138371   2.676   4.119   1.622 -0.7270  1.1296 -0.7944
 5604TIP3    H238372   2.529   4.085   1.611 -0.1793 -1.3312 -1.1981
 5605TIP3   OH238373   3.427   0.110   3.230 -0.0056  0.0382  0.6940
 5605TIP3    H138374   3.383   0.026   3.244 -1.1970  0.6129  0.5474
 5605TIP3    H238375   3.367   0.160   3.175 -0.0677  1.5751  2.0758
 5606TIP3   OH238376   2.495   5.707   0.128 -0.1617  0.2375 -0.2442
 5606TIP3    H138377   2.402   5.728   0.125  0.0291  1.0682 -0.6064
 5606TIP3    H238378   2.534   5.759   0.057  0.6919  0.5398  0.4272
 5607TIP3   OH238379   3.366   3.268   2.445 -0.0894  0.5940 -0.1762
 5607TIP3    H138380   3.426   3.308   2.381  0.4857 -0.1509 -0.1105
 5607TIP3    H238381   3.415   3.266   2.527 -1.0928  2.2397  0.5159
 5608TIP3   OH238382   4.398   0.311   1.993 -0.1895  0.3758  0.2892
 5608TIP3    H138383   4.458   0.340   2.061 -1.3954 -0.1596  1.6348
 5608TIP3    H238384   4.332   0.381   1.988  1.0955  1.5662 -2.0339
 5609TIP3   OH238385   2.572   5.782   1.439  0.0541 -0.1118 -0.2715
 5609TIP3    H138386   2.522   5.858   1.411 -0.2101 -1.1534 -2.9581
 5609TIP3    H238387   2.536   5.709   1.388  2.5099 -1.3930 -0.3318
 5610TIP3   OH238388   2.794   4.140   4.637  0.3727 -0.0273  0.1767
 5610TIP3    H138389   2.824   4.081   4.706 -1.3227 -0.3760  0.6477
 5610TIP3    H238390   2.802   4.228   4.675 -1.6502 -0.2835  1.3032
 5611TIP3   OH238391   0.688   5.101   3.903 -0.0127 -0.2577 -0.2324
 5611TIP3    H138392   0.679   5.007   3.883 -0.4769 -0.4638  0.8355
 5611TIP3    H238393   0.644   5.111   3.988  1.6648  0.5742  0.5793
 5612TIP3   OH238394   5.177   3.013   0.205 -0.0488 -0.0118  0.7848
 5612TIP3    H138395   5.133   2.983   0.125  0.4986  1.6789 -0.2162
 5612TIP3    H238396   5.215   2.934   0.243 -0.4617 -0.8876 -0.5518
 5613TIP3   OH238397   2.913   1.880   8.223 -0.0828  0.0264 -0.1256
 5613TIP3    H138398   2.833   1.836   8.195  0.3489 -1.2205  0.4805
 5613TIP3    H238399   2.896   1.973   8.211 -1.3901 -0.2522 -0.5744
 5614TIP3   OH238400   5.431   3.486   3.839  0.2612  0.1302 -0.0600
 5614TIP3    H138401   5.476   3.490   3.923  1.2044  0.7518 -0.5781
 5614TIP3    H238402   5.405   3.394   3.829  0.5321 -0.0326  0.6994
 5615TIP3   OH238403   4.714   1.320   1.852 -0.3028 -0.0962 -0.5736
 5615TIP3    H138404   4.752   1.286   1.934  2.0485  0.1446 -1.4863
 5615TIP3    H238405   4.773   1.390   1.825 -2.9142  2.2242 -0.7798
 5616TIP3   OH238406   1.058   2.112   3.838  0.1279 -0.5730 -0.1426
 5616TIP3    H138407   0.965   2.102   3.857 -0.0066 -0.4357 -0.7011
 5616TIP3    H238408   1.100   2.115   3.924 -0.1987 -2.3032  0.1013
 5617TIP3   OH238409   4.652   6.938   0.253 -0.2509 -0.6455  0.3067
 5617TIP3    H138410   4.648   7.026   0.216  1.5246 -0.7834 -0.2644
 5617TIP3    H238411   4.564   6.902   0.238 -1.2770  1.2940  1.3196
 5618TIP3   OH238412   3.733   1.147   2.641 -0.2780 -0.2612  0.1382
 5618TIP3    H138413   3.790   1.199   2.585  0.0917 -1.0797 -0.2746
 5618TIP3    H238414   3.706   1.206   2.710 -0.4477  0.6751 -0.7071
 5619TIP3   OH238415   3.932   6.478   1.256 -0.1447  0.8510 -0.2688
 5619TIP3    H138416   3.999   6.545   1.243 -1.2699  2.3169  1.2389
 5619TIP3    H238417   3.854   6.514   1.215 -1.0738  1.0342  1.5965
 5620TIP3   OH238418   4.697   6.441   1.030  0.3235 -0.3618 -0.1382
 5620TIP3    H138419   4.752   6.451   0.952 -0.2779  1.4348 -0.3729
 5620TIP3    H238420   4.755   6.461   1.103  0.8206 -1.7884 -0.1181
 5621TIP3   OH238421   4.418   0.466   1.032 -0.1703 -0.1218  0.5356
 5621TIP3    H138422   4.330   0.429   1.036  0.4064 -1.5345  0.5476
 5621TIP3    H238423   4.473   0.397   0.994  0.8962  0.8302  0.2466
 5622TIP3   OH238424   5.504   1.241   0.325 -0.7663 -0.2505  0.1445
 5622TIP3    H138425   5.541   1.188   0.254 -0.0476 -0.9780  1.0357
 5622TIP3    H238426   5.431   1.189   0.358 -0.7009 -0.2130  0.3509
 5623TIP3   OH238427   0.166   6.703   0.596 -0.1637 -0.4090 -0.3500
 5623TIP3    H138428   0.170   6.734   0.505  1.7325  0.6905  0.0492
 5623TIP3    H238429   0.073   6.706   0.619 -0.5954 -0.0393 -2.0283
 5624TIP3   OH238430   0.117   4.936   2.448 -0.3128 -0.1306 -0.1194
 5624TIP3    H138431   0.131   4.843   2.432 -1.6541 -0.6612  1.5124
 5624TIP3    H238432   0.024   4.949   2.428 -0.9153  0.1410  2.4596
 5625TIP3   OH238433   4.646   1.711   3.223 -0.3599  0.3918  0.2882
 5625TIP3    H138434   4.620   1.724   3.132  0.9540 -2.0115 -0.5077
 5625TIP3    H238435   4.565   1.718   3.273 -1.2943  0.4973 -1.2062
 5626TIP3   OH238436   5.631   2.667   3.530 -0.3299 -0.5600  0.0928
 5626TIP3    H138437   5.695   2.637   3.466 -0.1025  0.5717 -0.2265
 5626TIP3    H238438   5.549   2.624   3.504  0.2569 -1.9264  0.4406
 5627TIP3   OH238439   3.885   5.835   0.954  0.1165  0.0996 -0.2614
 5627TIP3    H138440   3.798   5.860   0.922 -0.0808 -1.1798 -0.8003
 5627TIP3    H238441   3.871   5.749   0.994  0.8456  0.5728  1.0770
 5628TIP3   OH238442   5.917   0.521   2.254 -0.2250 -0.0121  0.3316
 5628TIP3    H138443   5.932   0.602   2.303  2.5492  0.2555 -0.7919
 5628TIP3    H238444   5.863   0.547   2.179  1.3664  1.0500 -0.4991
 5629TIP3   OH238445   3.189   6.880   1.574  0.4610 -0.7080  0.1866
 5629TIP3    H138446   3.190   6.954   1.513  0.2912  2.4478  3.6687
 5629TIP3    H238447   3.117   6.824   1.543 -0.6092  1.5282 -1.5930
 5630TIP3   OH238448   3.227   1.545   1.033  0.9446  0.1971 -0.3716
 5630TIP3    H138449   3.225   1.454   1.002  2.9685  0.3209 -0.9905
 5630TIP3    H238450   3.228   1.598   0.953  1.7457  0.6785 -0.0537
 5631TIP3   OH238451   2.796   2.251   0.369  0.1140  0.2621  0.1415
 5631TIP3    H138452   2.794   2.344   0.343  1.1671  1.2921  3.2912
 5631TIP3    H238453   2.839   2.251   0.454  2.9674 -3.4889 -0.9956
 5632TIP3   OH238454   6.267   3.106   3.776 -0.3184  0.0091  0.2250
 5632TIP3    H138455   6.303   3.021   3.749  0.0135  0.3858 -0.5430
 5632TIP3    H238456   6.220   3.087   3.857  0.2918 -0.7893  0.4082
 5633TIP3   OH238457   4.638   6.851   1.664 -0.2768 -0.5787 -0.3976
 5633TIP3    H138458   4.647   6.777   1.724 -1.7130 -0.4846 -0.0394
 5633TIP3    H238459   4.555   6.891   1.687 -0.0179  0.5285 -1.2911
 5634TIP3   OH238460   0.644   3.724   3.103  0.5404  0.2343  0.3198
 5634TIP3    H138461   0.701   3.663   3.056  1.7776  1.3320  0.3604
 5634TIP3    H238462   0.683   3.733   3.190 -0.8985 -0.6201  1.1021
 5635TIP3   OH238463   6.250   2.722   3.006 -0.1300 -0.0133 -0.7714
 5635TIP3    H138464   6.176   2.776   2.979 -1.4839 -1.4035  0.0392
 5635TIP3    H238465   6.285   2.687   2.924 -0.8597  0.0253 -1.1042
 5636TIP3   OH238466   2.507   3.882   2.064 -0.3612 -1.2251  0.6835
 5636TIP3    H138467   2.423   3.876   2.018 -0.5104  0.3231  0.7163
 5636TIP3    H238468   2.514   3.974   2.090  0.4113 -1.7521  2.4824
 5637TIP3   OH238469   4.309   4.435   0.039  0.1472  0.0622 -0.4220
 5637TIP3    H138470   4.379   4.443  -0.026  1.9379 -1.1818  1.2279
 5637TIP3    H238471   4.318   4.513   0.093  0.7064 -0.3963  0.1641
 5638TIP3   OH238472   3.200   1.705   4.181  0.0342 -0.0841  0.2133
 5638TIP3    H138473   3.110   1.690   4.210 -0.0422 -0.8033 -0.3875
 5638TIP3    H238474   3.254   1.661   4.247 -0.0769 -0.1620  0.2524
 5639TIP3   OH238475   2.237   0.049   2.650 -0.2146  0.1896 -0.1022
 5639TIP3    H138476   2.190   0.014   2.574 -0.7025 -1.8122  1.0455
 5639TIP3    H238477   2.311  -0.010   2.661  1.7933  2.3972 -0.9412
 5640TIP3   OH238478   3.383   3.072   0.245 -0.1973  0.3152 -0.2156
 5640TIP3    H138479   3.452   3.043   0.186 -0.1982  2.5377 -1.3993
 5640TIP3    H238480   3.302   3.046   0.201 -0.2804  3.4714 -2.2632
 5641TIP3   OH238481   3.621   3.900   2.925 -0.3741  0.0724  0.2265
 5641TIP3    H138482   3.563   3.905   3.001 -0.8818  1.5376 -0.2303
 5641TIP3    H238483   3.696   3.956   2.947  0.3546 -0.9090  0.3469
 5642TIP3   OH238484   2.242   4.782   0.432  0.0773 -0.2921  0.0477
 5642TIP3    H138485   2.299   4.762   0.507  1.4955 -2.8651 -1.5643
 5642TIP3    H238486   2.154   4.768   0.465  0.7448 -3.0930  0.9041
 5643TIP3   OH238487   5.440   3.648   2.234  0.2350  0.0623 -0.0188
 5643TIP3    H138488   5.492   3.719   2.272  0.3536 -0.6325  1.1417
 5643TIP3    H238489   5.370   3.693   2.186  2.3338  1.0507 -2.3828
 5644TIP3   OH238490   0.638   1.167   1.414 -0.4262  0.3591 -0.7501
 5644TIP3    H138491   0.727   1.197   1.432 -0.5629  0.2809  0.1251
 5644TIP3    H238492   0.627   1.090   1.470 -1.4477  1.0744  0.0892
 5645TIP3   OH238493   2.903   4.686   4.561 -0.2996  0.0713 -1.1602
 5645TIP3    H138494   2.942   4.662   4.645 -1.3441  0.9018 -0.4092
 5645TIP3    H238495   2.914   4.608   4.507  0.4965 -0.4414 -0.2985
 5646TIP3   OH238496   3.713   1.163   2.236 -0.4375  0.0116  0.0073
 5646TIP3    H138497   3.729   1.220   2.161  2.6030  0.0058  0.4994
 5646TIP3    H238498   3.792   1.171   2.289 -1.3707 -2.0236  1.8667
 5647TIP3   OH238499   0.952   6.328   4.364  0.2853 -0.2050 -0.0578
 5647TIP3    H138500   0.996   6.410   4.385 -0.6897  0.6904 -1.3498
 5647TIP3    H238501   0.859   6.348   4.368 -0.0653 -1.9142  2.0446
 5648TIP3   OH238502   1.910   2.402   3.496  0.4027 -0.2183  0.3927
 5648TIP3    H138503   1.948   2.487   3.517 -0.9122  0.1147  1.6485
 5648TIP3    H238504   1.893   2.405   3.402 -1.1326  1.5970  0.6641
 5649TIP3   OH238505   4.730   3.653   3.497 -0.4495  0.4868 -0.2930
 5649TIP3    H138506   4.798   3.638   3.563  0.7198 -2.3031 -1.9491
 5649TIP3    H238507   4.753   3.737   3.458 -0.1864  1.3749  1.6909
 5650TIP3   OH238508   0.118   4.524   3.925  0.3728 -0.4882 -0.0318
 5650TIP3    H138509   0.198   4.570   3.901 -0.9359  1.6612 -0.6048
 5650TIP3    H238510   0.132   4.497   4.016  1.0977  1.4395  0.4857
 5651TIP3   OH238511   3.975   6.888   2.400 -0.3761  0.6103 -0.2619
 5651TIP3    H138512   4.010   6.938   2.474 -0.4146  0.9790 -0.4917
 5651TIP3    H238513   4.051   6.843   2.363 -0.3311  0.5474 -0.0917
 5652TIP3   OH238514   2.005   3.847   3.654 -0.6092 -0.8962  0.1074
 5652TIP3    H138515   2.050   3.763   3.658 -0.7565 -1.0708 -1.3806
 5652TIP3    H238516   1.999   3.875   3.745  1.2950 -1.4975  0.4592
 5653TIP3   OH238517   6.545   0.088   0.718 -0.7820 -0.1872 -0.5949
 5653TIP3    H138518   6.456   0.063   0.742 -1.1030  1.1337 -0.3131
 5653TIP3    H238519   6.539   0.110   0.625 -0.8403  0.2099 -0.5020
 5654TIP3   OH238520   6.823   1.204   0.944  0.7002  0.2042  0.5838
 5654TIP3    H138521   6.806   1.187   0.852  1.6335 -0.7228  0.5564
 5654TIP3    H238522   6.762   1.148   0.991 -0.2175  1.1550  0.5469
 5655TIP3   OH238523   4.454   0.917   1.746 -0.3888  1.2362  0.6591
 5655TIP3    H138524   4.482   0.889   1.659  0.1172 -1.3687  1.5740
 5655TIP3    H238525   4.509   0.992   1.767  0.8200  0.6908 -0.4941
 5656TIP3   OH238526   6.458   6.189   1.237  0.3106  0.1052 -0.4448
 5656TIP3    H138527   6.488   6.274   1.268 -0.9318  0.9241 -1.4076
 5656TIP3    H238528   6.538   6.141   1.218  1.1058  2.2692 -3.0962
 5657TIP3   OH238529   5.013   6.635   0.577 -0.1389 -0.3040 -0.0246
 5657TIP3    H138530   5.100   6.666   0.599 -0.3611 -0.8483  1.7802
 5657TIP3    H238531   4.990   6.683   0.497  1.1698  1.0303  0.3497
 5658TIP3   OH238532   0.768   5.638   1.752  0.1254 -0.3636 -0.6134
 5658TIP3    H138533   0.726   5.705   1.805 -0.7980 -0.1267 -1.6007
 5658TIP3    H238534   0.779   5.563   1.811 -2.4020 -0.7022 -0.4800
 5659TIP3   OH238535   2.076   6.492   1.902 -0.4790 -0.1444 -0.0263
 5659TIP3    H138536   2.065   6.518   1.811  0.2078 -2.2601 -0.7896
 5659TIP3    H238537   2.170   6.490   1.915 -0.5418 -0.8718  0.3821
 5660TIP3   OH238538   1.371   3.888   2.289  0.4360 -0.0344 -0.0476
 5660TIP3    H138539   1.452   3.845   2.262  0.2809  0.5502 -1.5524
 5660TIP3    H238540   1.340   3.837   2.363  0.5357 -2.2230 -1.4120
 5661TIP3   OH238541   4.096   1.354   0.900 -0.0549  0.0686 -0.3198
 5661TIP3    H138542   4.040   1.412   0.848 -1.4731 -0.5711  0.4341
 5661TIP3    H238543   4.037   1.315   0.964  1.1226 -1.2192  0.0305
 5662TIP3   OH238544   6.284   1.164   2.875 -0.4773 -0.3224 -0.2927
 5662TIP3    H138545   6.272   1.249   2.833  0.5568  0.8456  1.6528
 5662TIP3    H238546   6.372   1.168   2.912 -0.8729 -1.7773  0.8830
 5663TIP3   OH238547   2.054   4.070   2.979 -0.1203 -0.7673  0.8586
 5663TIP3    H138548   2.019   4.044   3.064  0.5360 -0.4373  1.2325
 5663TIP3    H238549   2.068   4.165   2.986 -0.9246 -0.5750  0.0702
 5664TIP3   OH238550   0.802   6.933   0.319 -0.2289  0.1555  0.4186
 5664TIP3    H138551   0.782   6.936   0.226  0.2632 -0.6321  0.2804
 5664TIP3    H238552   0.881   6.986   0.329  0.8985 -1.4189  0.0561
 5665TIP3   OH238553   2.897   3.404   8.366  0.0201  0.2996 -0.3965
 5665TIP3    H138554   2.951   3.455   8.306  0.9509  0.6460  0.7149
 5665TIP3    H238555   2.837   3.468   8.404  0.3436  0.3291  0.0622
 5666TIP3   OH238556   3.093   0.094   3.083 -0.1959 -0.2090 -0.2906
 5666TIP3    H138557   3.156   0.166   3.072 -0.4067 -0.1974 -1.5821
 5666TIP3    H238558   3.148   0.017   3.095  0.1017 -0.2522 -1.7554
 5667TIP3   OH238559   0.156   5.447   2.651  0.5187  0.5855 -0.2095
 5667TIP3    H138560   0.247   5.465   2.626  0.5971  0.0742 -0.3097
 5667TIP3    H238561   0.163   5.384   2.722  0.2124 -0.6959 -1.2789
 5668TIP3   OH238562   5.517   3.765   3.349 -0.5204 -0.1080  0.0990
 5668TIP3    H138563   5.555   3.770   3.436  0.1530 -1.6951 -0.0762
 5668TIP3    H238564   5.439   3.820   3.354  0.1483  0.7885  1.3378
 5669TIP3   OH238565   3.564   0.037   3.703  0.0723  0.6825 -0.1158
 5669TIP3    H138566   3.562  -0.027   3.774  1.1484  0.9444  0.1679
 5669TIP3    H238567   3.657   0.050   3.684 -0.1218  2.1429 -0.1827
 5670TIP3   OH238568   4.602   2.707   0.518  0.5121  0.1265 -0.1980
 5670TIP3    H138569   4.656   2.758   0.578 -0.2223  1.3381 -0.5089
 5670TIP3    H238570   4.631   2.733   0.430  0.6129 -0.5416 -0.3684
 5671TIP3   OH238571   3.607   6.883   0.601  0.2881 -0.7584 -0.7061
 5671TIP3    H138572   3.673   6.814   0.592  0.7838 -0.2772 -0.7546
 5671TIP3    H238573   3.526   6.842   0.570 -0.2832 -2.6105  2.7479
 5672TIP3   OH238574   0.632   3.092   0.475  0.3828 -0.1133  0.1909
 5672TIP3    H138575   0.564   3.136   0.425  1.0955  2.1901  1.0825
 5672TIP3    H238576   0.684   3.046   0.410 -0.1877  0.7216 -0.8862
 5673TIP3   OH238577   0.673   5.194   1.254  0.0990 -0.1610  0.2992
 5673TIP3    H138578   0.751   5.168   1.303 -0.4657 -0.7872  0.8988
 5673TIP3    H238579   0.650   5.117   1.203 -0.7023 -0.3358  0.9027
 5674TIP3   OH238580   1.596   5.514   1.350 -0.3084 -0.0015  0.3975
 5674TIP3    H138581   1.506   5.530   1.322 -0.4726  0.7964  1.3462
 5674TIP3    H238582   1.596   5.530   1.444  0.7391 -0.3963  0.4844
 5675TIP3   OH238583   2.024   5.496   3.887 -0.0830  0.0831 -0.2677
 5675TIP3    H138584   2.036   5.482   3.981  1.0424 -1.4787 -0.6189
 5675TIP3    H238585   2.048   5.588   3.873  0.0020  0.2531  0.9211
 5676TIP3   OH238586   3.976   5.971   0.133 -0.4063  0.1979 -0.1592
 5676TIP3    H138587   3.910   6.038   0.111 -1.1450 -0.5150 -0.1764
 5676TIP3    H238588   3.976   5.912   0.057  1.2670  0.9296 -0.7853
 5677TIP3   OH238589   4.093   2.346   2.439  0.1132  0.1999 -0.4987
 5677TIP3    H138590   4.130   2.348   2.350 -1.1224 -0.5141 -1.0554
 5677TIP3    H238591   4.053   2.259   2.446  0.2219  0.2382  0.7799
 5678TIP3   OH238592   6.892   3.640   1.009  0.2291 -0.1720 -0.2102
 5678TIP3    H138593   6.862   3.706   0.946 -2.1243 -0.3028  0.6696
 5678TIP3    H238594   6.944   3.689   1.072  1.0885  0.2790 -1.2526
 5679TIP3   OH238595   1.365   0.069   1.889  0.5172  0.8217 -0.9683
 5679TIP3    H138596   1.380   0.163   1.899  1.9228  0.5627 -0.5109
 5679TIP3    H238597   1.270   0.062   1.882  0.3115  2.1976 -0.1269
 5680TIP3   OH238598   3.009   2.529   3.395 -0.1460  0.1035 -0.3162
 5680TIP3    H138599   3.085   2.554   3.342  0.8965 -0.5446  0.8260
 5680TIP3    H238600   3.025   2.570   3.480 -1.9416  1.3797 -0.5342
 5681TIP3   OH238601   5.915   5.662   8.459 -0.6811  0.0111 -0.0293
 5681TIP3    H138602   5.917   5.666   8.363 -1.8061  1.1761 -0.0308
 5681TIP3    H238603   5.978   5.593   8.481 -0.2368 -0.1316 -1.5876
 5682TIP3   OH238604   2.386   3.845   1.602 -0.0874 -0.2409  0.2625
 5682TIP3    H138605   2.310   3.889   1.563  0.0902  1.6685  1.8918
 5682TIP3    H238606   2.461   3.883   1.556 -0.0543 -2.0745 -1.2977
 5683TIP3   OH238607   5.880   0.063   1.874  0.3815 -0.0124 -0.1935
 5683TIP3    H138608   5.808   0.056   1.936  0.3479 -0.1064 -0.2423
 5683TIP3    H238609   5.847   0.020   1.795  0.2675  0.4716 -0.4124
 5684TIP3   OH238610   0.260   5.512   3.433 -0.6114  0.1187  0.2356
 5684TIP3    H138611   0.333   5.563   3.397  0.2587 -0.4627  1.1198
 5684TIP3    H238612   0.271   5.425   3.395 -3.3855  0.9910 -3.0716
 5685TIP3   OH238613   2.722   2.717   2.194  0.5456  0.4449  0.1023
 5685TIP3    H138614   2.642   2.665   2.185  0.8952  0.1353 -1.3800
 5685TIP3    H238615   2.734   2.758   2.109  3.2856 -1.4707 -0.5463
 5686TIP3   OH238616   0.898   5.887   2.484 -0.1202  0.0780 -0.1378
 5686TIP3    H138617   0.831   5.828   2.519  0.7051  0.5527  2.4267
 5686TIP3    H238618   0.979   5.838   2.493  0.0738 -0.1385 -2.3896
 5687TIP3   OH238619   5.413   3.484   1.920  0.1561  0.6828 -0.3595
 5687TIP3    H138620   5.389   3.503   2.010 -0.5805  2.0384 -0.8203
 5687TIP3    H238621   5.386   3.393   1.906 -0.6389  0.7847  0.4788
 5688TIP3   OH238622   6.091   0.604   3.758  0.5102  0.6555 -0.0400
 5688TIP3    H138623   6.028   0.636   3.822  0.7996 -0.8568  1.0527
 5688TIP3    H238624   6.104   0.678   3.699  1.0054  2.5285  2.2221
 5689TIP3   OH238625   0.594   3.902   2.493 -0.2478  0.4403 -0.1348
 5689TIP3    H138626   0.570   3.992   2.470  0.4506  0.6512 -0.0640
 5689TIP3    H238627   0.637   3.867   2.415 -1.6187 -0.2739 -0.6163
 5690TIP3   OH238628   6.586   3.817   1.094 -0.4058  0.3067 -0.4854
 5690TIP3    H138629   6.628   3.826   1.009  0.9186  1.1215  0.2228
 5690TIP3    H238630   6.658   3.826   1.157 -0.9530 -2.4548  0.7097
 5691TIP3   OH238631   4.235   1.207   1.916  0.0354 -0.1678  0.3712
 5691TIP3    H138632   4.183   1.132   1.885  1.8075 -1.2315 -0.1561
 5691TIP3    H238633   4.308   1.168   1.963  0.2950  1.3004  1.2402
 5692TIP3   OH238634   5.859   6.377   3.236 -0.2405  0.0439  0.4819
 5692TIP3    H138635   5.929   6.316   3.259 -0.4245  0.1318  1.2883
 5692TIP3    H238636   5.889   6.417   3.154 -0.5634 -1.8346 -0.6146
 5693TIP3   OH238637   6.627   1.744   1.163 -0.0458  0.1176  0.5488
 5693TIP3    H138638   6.667   1.657   1.166  1.4524  0.7337 -0.2724
 5693TIP3    H238639   6.584   1.754   1.248 -1.7123 -2.0641  0.0289
 5694TIP3   OH238640   5.846   5.095   8.221  0.4173 -0.1110  0.4864
 5694TIP3    H138641   5.911   5.124   8.157 -1.6056  0.6215 -1.3791
 5694TIP3    H238642   5.816   5.176   8.262 -0.5575 -0.2167  0.0197
 5695TIP3   OH238643   3.752   5.021   7.955 -0.5894 -0.0468 -0.2702
 5695TIP3    H138644   3.787   5.107   7.932 -0.1667 -0.2272 -0.2943
 5695TIP3    H238645   3.769   5.012   8.049 -0.9377  0.0364 -0.1963
 5696TIP3   OH238646   3.219   4.504   2.596 -0.3390  0.5232  0.0997
 5696TIP3    H138647   3.282   4.543   2.536 -0.3079  0.2647 -0.0369
 5696TIP3    H238648   3.141   4.488   2.542 -0.3695  0.4433  0.1663
 5697TIP3   OH238649   0.194   2.953   0.378 -0.1707  0.1407 -0.5285
 5697TIP3    H138650   0.111   2.917   0.345 -0.1068 -2.6787  2.0315
 5697TIP3    H238651   0.174   2.981   0.467  1.1123  1.8047 -0.7082
 5698TIP3   OH238652   3.719   5.367   0.461 -0.6706  0.1855  0.2120
 5698TIP3    H138653   3.800   5.368   0.511 -0.0747  1.1431 -0.7194
 5698TIP3    H238654   3.649   5.368   0.527  0.0763  2.3867  1.0558
 5699TIP3   OH238655   2.963   5.343   1.107 -0.1217  0.1813  0.4923
 5699TIP3    H138656   3.017   5.375   1.035  1.2969 -0.5991  1.1790
 5699TIP3    H238657   3.022   5.290   1.161 -1.6222 -0.9451  1.1299
 5700TIP3   OH238658   6.500   5.318   3.353  0.5033  0.2735  0.8377
 5700TIP3    H138659   6.530   5.268   3.276  0.3564  1.1109  0.2252
 5700TIP3    H238660   6.543   5.275   3.427  0.7607 -0.4653  0.2803
 5701TIP3   OH238661   2.316   1.702   1.359 -0.0380  0.3953  1.2585
 5701TIP3    H138662   2.377   1.774   1.374 -1.2937  1.6954  0.3545
 5701TIP3    H238663   2.258   1.703   1.435 -0.2673  0.5746  1.0836
 5702TIP3   OH238664   0.171   5.797   0.520 -0.1064 -0.4158 -0.2753
 5702TIP3    H138665   0.146   5.748   0.441 -0.3207  0.5972 -0.8621
 5702TIP3    H238666   0.091   5.802   0.572 -0.2908 -0.0239 -0.5891
 5703TIP3   OH238667   4.933   6.846   1.850  0.6520  0.1550  0.4400
 5703TIP3    H138668   4.879   6.924   1.845 -1.3066 -1.1095  0.7152
 5703TIP3    H238669   5.010   6.866   1.798  0.1924  2.2368  0.4949
 5704TIP3   OH238670   6.567   6.126   2.074 -0.1889  0.6967 -0.5946
 5704TIP3    H138671   6.642   6.182   2.055  0.9150 -0.3058  0.5926
 5704TIP3    H238672   6.593   6.040   2.041 -0.6069  0.2395  0.2357
 5705TIP3   OH238673   6.475   2.078   8.184  0.0199  0.3896 -0.0615
 5705TIP3    H138674   6.465   1.983   8.191 -2.0650  0.6344  1.0875
 5705TIP3    H238675   6.568   2.091   8.168  0.5732 -1.7985  0.9722
 5706TIP3   OH238676   1.428   1.862   0.677 -0.3751  0.0437  0.1555
 5706TIP3    H138677   1.483   1.796   0.719 -0.9919 -0.8355 -0.3887
 5706TIP3    H238678   1.472   1.945   0.695 -0.4871 -0.3131  2.3473
 5707TIP3   OH238679   3.447   6.302   0.225 -0.3313 -0.0426  0.2275
 5707TIP3    H138680   3.497   6.304   0.143  1.4951  1.2501  1.2963
 5707TIP3    H238681   3.420   6.392   0.239 -0.3231 -0.1847  1.2108
 5708TIP3   OH238682   1.206   4.644   1.768 -0.9126  0.0607  0.3764
 5708TIP3    H138683   1.211   4.712   1.834 -1.8418 -0.8143  1.3854
 5708TIP3    H238684   1.245   4.567   1.809  0.4611  0.0454 -0.8793
 5709TIP3   OH238685   3.868   5.678   2.928  0.1862  0.5462  0.5722
 5709TIP3    H138686   3.906   5.704   3.012 -0.4504  1.3641  0.6094
 5709TIP3    H238687   3.879   5.753   2.871 -0.8394  0.5943  0.4077
 5710TIP3   OH238688   5.028   3.324   1.772  0.3183  0.8407 -0.2743
 5710TIP3    H138689   4.958   3.296   1.713  0.4381 -0.0326 -0.0115
 5710TIP3    H238690   5.013   3.418   1.785 -0.9524  0.6151 -0.0261
 5711TIP3   OH238691   5.030   6.252   1.032  0.7905 -0.1310  0.0912
 5711TIP3    H138692   4.977   6.173   1.035  0.0253  0.3219 -1.0158
 5711TIP3    H238693   4.981   6.316   1.084  0.4957  0.1454 -0.5254
 5712TIP3   OH238694   1.515   1.083   3.162  0.5112  1.0822  0.1807
 5712TIP3    H138695   1.501   1.125   3.078 -1.0970 -1.1445 -0.7779
 5712TIP3    H238696   1.460   1.132   3.223 -2.7128 -0.4151 -1.2417
 5713TIP3   OH238697   2.613   2.471   2.878  0.1155  0.3285  0.3924
 5713TIP3    H138698   2.620   2.389   2.928  0.9453 -0.0862 -0.3803
 5713TIP3    H238699   2.521   2.476   2.854 -0.1511  0.1486  1.3081
 5714TIP3   OH238700   2.471   1.539   2.828  0.4238  0.5301 -0.3341
 5714TIP3    H138701   2.513   1.531   2.743  0.2009 -1.1952 -0.3174
 5714TIP3    H238702   2.377   1.539   2.808  0.2072 -2.9527 -0.0237
 5715TIP3   OH238703   4.701   2.273   3.509  0.1757 -0.0207  0.1652
 5715TIP3    H138704   4.699   2.240   3.599  1.2715  1.3473  0.7390
 5715TIP3    H238705   4.710   2.195   3.454 -0.6397 -0.8825  1.2291
 5716TIP3   OH238706   5.185   6.924   2.468  0.8619  0.5183 -0.1463
 5716TIP3    H138707   5.137   6.928   2.551  0.1887  0.1895 -0.5109
 5716TIP3    H238708   5.193   6.830   2.450  0.4386  0.5918 -0.7639
 5717TIP3   OH238709   3.754   0.075   0.971  0.4592  0.0579  0.2946
 5717TIP3    H138710   3.790   0.153   0.928  0.8205 -0.1299  0.2514
 5717TIP3    H238711   3.660   0.091   0.975  0.0455 -0.9618 -2.7811
 5718TIP3   OH238712   0.881   5.965   3.391 -0.3812  0.3635 -0.2233
 5718TIP3    H138713   0.836   6.019   3.326  1.3946  1.8186 -0.3567
 5718TIP3    H238714   0.968   6.005   3.398  1.2319 -2.7949 -0.6470
 5719TIP3   OH238715   2.700   2.779   2.576  0.4976  0.0551  0.0929
 5719TIP3    H138716   2.620   2.770   2.524  1.6625  0.2566 -1.8094
 5719TIP3    H238717   2.670   2.771   2.667 -1.8918  1.5183 -0.4695
 5720TIP3   OH238718   3.559   6.172   0.972 -0.0783  0.1622 -0.4169
 5720TIP3    H138719   3.524   6.244   0.919  0.8803  1.1022  0.1889
 5720TIP3    H238720   3.615   6.215   1.037 -0.8183 -0.9820  1.0483
 5721TIP3   OH238721   3.804   1.602   3.638  1.1057 -0.5601  0.3805
 5721TIP3    H138722   3.822   1.509   3.650 -0.0831 -0.8042  0.3955
 5721TIP3    H238723   3.849   1.645   3.710  1.9159 -1.0825  0.2026
 5722TIP3   OH238724   5.133   0.685   1.909 -0.1245 -0.6771  0.2549
 5722TIP3    H138725   5.202   0.626   1.939 -1.6900 -1.7849  1.8322
 5722TIP3    H238726   5.112   0.738   1.986  0.0734  0.8162 -0.6738
 5723TIP3   OH238727   2.560   6.645   2.938  0.0609 -0.3150  0.4650
 5723TIP3    H138728   2.561   6.620   2.845  2.3670  1.3037 -0.0433
 5723TIP3    H238729   2.634   6.599   2.977 -1.3034 -1.5396  1.7440
 5724TIP3   OH238730   2.840   1.570   0.949 -0.1547 -0.1598  0.2417
 5724TIP3    H138731   2.858   1.633   0.879 -1.2084 -0.6394 -0.4874
 5724TIP3    H238732   2.744   1.564   0.951 -0.0953 -0.9854  0.9848
 5725TIP3   OH238733   0.720   3.055   1.907  0.0492 -0.0482  0.4790
 5725TIP3    H138734   0.651   3.119   1.888 -0.7994 -0.8089  0.9329
 5725TIP3    H238735   0.762   3.040   1.822  0.0447  0.8479  0.2996
 5726TIP3   OH238736   3.784   6.652   2.439 -0.4542 -0.2599  0.1884
 5726TIP3    H138737   3.738   6.647   2.523  0.7729 -0.6325  0.8627
 5726TIP3    H238738   3.846   6.724   2.450 -1.7551  1.1240 -1.1841
 5727TIP3   OH238739   2.853   5.660   1.688  0.6575  0.4640 -0.2704
 5727TIP3    H138740   2.915   5.634   1.620  1.0679 -0.8380  0.5745
 5727TIP3    H238741   2.817   5.743   1.656  1.3021  0.2088 -1.7635
 5728TIP3   OH238742   1.953   3.559   0.619 -0.3392 -0.1039  0.2323
 5728TIP3    H138743   1.897   3.563   0.697 -0.9658  0.5334 -0.2374
 5728TIP3    H238744   2.001   3.641   0.620  0.0601 -0.3372  0.2445
 5729TIP3   OH238745   4.466   5.725   3.213 -0.3580  0.1423  0.3529
 5729TIP3    H138746   4.479   5.764   3.127 -0.6235  1.2521  0.8071
 5729TIP3    H238747   4.553   5.694   3.239 -0.3117 -0.3665 -0.3857
 5730TIP3   OH238748   4.060   4.593   2.802  0.2263 -0.4791  0.0574
 5730TIP3    H138749   4.035   4.530   2.870 -1.4440  1.7104  1.6741
 5730TIP3    H238750   4.130   4.645   2.842 -1.1087  1.1523  0.4226
 5731TIP3   OH238751   6.639   2.866   4.391  0.1242  0.1157  0.8874
 5731TIP3    H138752   6.716   2.922   4.384 -0.2899  0.4922 -1.5213
 5731TIP3    H238753   6.648   2.803   4.319 -2.3658  0.9832 -0.3372
 5732TIP3   OH238754   6.503   2.470   1.775 -0.1954  0.1908 -0.0562
 5732TIP3    H138755   6.459   2.423   1.847  0.9407  0.9664  1.1979
 5732TIP3    H238756   6.576   2.413   1.751 -1.8662 -1.1847 -2.2661
 5733TIP3   OH238757   6.755   3.880   0.854 -0.5127  0.2712  0.1170
 5733TIP3    H138758   6.686   3.939   0.822 -0.7435 -0.3273 -0.5134
 5733TIP3    H238759   6.831   3.937   0.867 -0.8182  0.7632 -0.1893
 5734TIP3   OH238760   0.582   2.560   3.972  0.1089  0.1379  0.5892
 5734TIP3    H138761   0.651   2.601   4.024  0.4263 -0.2941  0.5147
 5734TIP3    H238762   0.586   2.467   3.997  0.8791 -0.2481 -0.8765
 5735TIP3   OH238763   2.991   3.545   8.158  0.6308 -0.0156  0.1096
 5735TIP3    H138764   2.969   3.632   8.127  0.3817 -0.1851 -0.1995
 5735TIP3    H238765   3.077   3.526   8.119 -0.3224 -0.8158 -1.7369
 5736TIP3   OH238766   4.617   2.200   8.413  0.0213  0.3033  0.2189
 5736TIP3    H138767   4.566   2.145   8.473  0.4079  2.1214  2.3520
 5736TIP3    H238768   4.702   2.209   8.455  0.3108  1.6424 -0.6045
 5737TIP3   OH238769   1.942   3.917   1.696  0.4740 -0.6040 -0.0838
 5737TIP3    H138770   1.863   3.872   1.666 -1.0087  1.0573  1.1700
 5737TIP3    H238771   1.935   4.005   1.660  1.0556 -0.0285  1.1570
 5738TIP3   OH238772   0.809   4.921   4.293 -0.4014  0.8400  0.3099
 5738TIP3    H138773   0.881   4.933   4.355  1.1437  2.3622 -1.6761
 5738TIP3    H238774   0.795   5.007   4.255 -1.8617  0.1276 -0.8794
 5739TIP3   OH238775   4.096   4.674   1.466  0.3339  0.8317 -0.1795
 5739TIP3    H138776   4.189   4.657   1.454  0.9436  2.3303  1.8970
 5739TIP3    H238777   4.052   4.604   1.416  2.5528 -0.9311  0.1793
 5740TIP3   OH238778   6.387   1.682   0.546  0.0983  0.2823  0.3411
 5740TIP3    H138779   6.437   1.652   0.470 -0.4216 -1.4469  0.6361
 5740TIP3    H238780   6.298   1.651   0.529 -0.4618  1.5926  0.7561
 5741TIP3   OH238781   2.408   1.321   2.585 -0.1786 -0.1367 -0.6803
 5741TIP3    H138782   2.346   1.366   2.641 -0.5832  0.9585 -1.9473
 5741TIP3    H238783   2.370   1.234   2.571  1.2534 -1.4973  2.8534
 5742TIP3   OH238784   2.429   5.840   3.475 -0.6897  0.0048  0.2055
 5742TIP3    H138785   2.424   5.930   3.442  2.0745  0.6277  1.1992
 5742TIP3    H238786   2.486   5.846   3.552 -0.7577 -2.5536  0.5453
 5743TIP3   OH238787   1.778   6.900   3.484  0.5977  0.2670  0.3747
 5743TIP3    H138788   1.801   6.834   3.419 -0.1307  0.6243 -0.2635
 5743TIP3    H238789   1.726   6.852   3.549  1.7715 -0.2001  0.9855
 5744TIP3   OH238790   5.561   5.190   1.441  0.6548 -0.4057  0.0558
 5744TIP3    H138791   5.644   5.237   1.442  0.3741  0.1192 -1.0487
 5744TIP3    H238792   5.513   5.226   1.367  0.5656 -2.6460 -1.0754
 5745TIP3   OH238793   2.896   2.803   3.166  0.6910  0.1768 -0.9262
 5745TIP3    H138794   2.851   2.727   3.130 -2.3175  1.2562  0.2285
 5745TIP3    H238795   2.825   2.861   3.195  2.8747  2.6028 -0.0984
 5746TIP3   OH238796   3.131   6.559   3.071 -0.2627 -0.2888  0.4113
 5746TIP3    H138797   3.133   6.583   2.978  0.3288  1.3322  0.8048
 5746TIP3    H238798   3.165   6.470   3.074  0.0942 -0.2172 -0.8766
 5747TIP3   OH238799   4.846   4.068   1.192 -0.6612  0.0204  0.2261
 5747TIP3    H138800   4.813   4.113   1.270  0.5409  1.8072 -0.2347
 5747TIP3    H238801   4.847   4.135   1.124  0.1459 -0.9949 -0.8086
 5748TIP3   OH238802   5.086   0.731   3.040 -0.0449  0.3006  0.2409
 5748TIP3    H138803   5.148   0.684   2.984  0.6209  0.0290  1.1973
 5748TIP3    H238804   5.001   0.693   3.017 -0.1017  1.6128 -2.0758
 5749TIP3   OH238805   0.327   4.296   2.855 -0.1392  0.1207 -0.0738
 5749TIP3    H138806   0.396   4.310   2.790  1.1941 -0.3153  1.1694
 5749TIP3    H238807   0.322   4.379   2.902 -0.4766  0.1513 -0.1619
 5750TIP3   OH238808   2.304   5.251   0.738  0.6583 -0.4060 -0.5493
 5750TIP3    H138809   2.365   5.182   0.765  1.5582  0.9785  1.1627
 5750TIP3    H238810   2.359   5.317   0.696  0.1919  0.3474 -0.0111
 5751TIP3   OH238811   2.958   0.627   3.092 -0.1902 -0.0487 -0.3771
 5751TIP3    H138812   3.051   0.634   3.070  0.4698 -1.4991  1.6691
 5751TIP3    H238813   2.949   0.676   3.174 -2.1207  3.3872 -2.3735
 5752TIP3   OH238814   6.569   6.572   3.820 -1.3177 -0.2144  0.2686
 5752TIP3    H138815   6.559   6.607   3.908  0.9898 -0.4872  0.7095
 5752TIP3    H238816   6.553   6.478   3.828 -1.3850 -0.1959  0.3449
 5753TIP3   OH238817   6.103   2.335   1.138 -0.2217 -0.3030  0.0155
 5753TIP3    H138818   6.125   2.247   1.109  2.4659 -1.0426  3.5309
 5753TIP3    H238819   6.159   2.393   1.087 -1.9716 -0.4925 -2.2818
 5754TIP3   OH238820   4.572   0.282   1.772  0.0135  0.8279 -0.6834
 5754TIP3    H138821   4.516   0.281   1.850  0.2949 -0.3776 -0.4790
 5754TIP3    H238822   4.595   0.374   1.761 -1.3662  1.2384 -0.3106
 5755TIP3   OH238823   5.144   1.813   4.469  0.3692 -0.9001 -0.3717
 5755TIP3    H138824   5.204   1.741   4.491 -0.7991 -1.8760 -0.2902
 5755TIP3    H238825   5.106   1.839   4.553 -0.8423 -1.6851 -0.6548
 5756TIP3   OH238826   2.033   0.610   8.401  0.1673  0.8183  0.5359
 5756TIP3    H138827   2.087   0.532   8.387  0.3539  0.9701  0.3992
 5756TIP3    H238828   2.007   0.637   8.313  0.8646  1.4427  0.5109
 5757TIP3   OH238829   4.410   5.354   1.859 -0.6802 -0.1768 -0.3678
 5757TIP3    H138830   4.394   5.319   1.772  2.2339 -0.1839 -0.9997
 5757TIP3    H238831   4.402   5.449   1.849 -1.3649 -0.2327 -0.3814
 5758TIP3   OH238832   4.227   0.683   1.138 -0.0971 -0.4007 -0.7823
 5758TIP3    H138833   4.269   0.630   1.070  0.8151  1.1179 -1.4518
 5758TIP3    H238834   4.241   0.773   1.110 -0.9946  0.2278  0.6846
 5759TIP3   OH238835   0.994   3.027   4.350  0.0610  0.0945 -0.1843
 5759TIP3    H138836   0.918   3.029   4.408 -0.1564  1.0350 -0.4965
 5759TIP3    H238837   1.052   3.095   4.383  0.0760  0.4252 -0.8763
 5760TIP3   OH238838   3.258   2.458   0.864  0.1375  0.2781 -0.2618
 5760TIP3    H138839   3.226   2.499   0.944 -0.6583  3.1944 -1.9111
 5760TIP3    H238840   3.258   2.528   0.799  1.9312 -1.6363 -2.5458
 5761TIP3   OH238841   1.084   1.372   2.697  0.0823 -0.0967 -0.0572
 5761TIP3    H138842   0.997   1.343   2.668 -0.3718  0.0454  1.0749
 5761TIP3    H238843   1.071   1.393   2.790  1.2920  0.1047  0.0742
 5762TIP3   OH238844   5.627   5.523   1.225  0.2346  0.0414  0.1451
 5762TIP3    H138845   5.619   5.435   1.263  2.3656  0.2928  1.3258
 5762TIP3    H238846   5.603   5.510   1.133 -1.6560 -1.2893  0.7523
 5763TIP3   OH238847   3.975   2.298   0.895 -0.3102 -0.0207 -0.1160
 5763TIP3    H138848   3.930   2.349   0.962  1.2965  0.1992  0.8526
 5763TIP3    H238849   3.906   2.272   0.834 -1.9140 -0.7110  1.8959
 5764TIP3   OH238850   0.128   0.373   4.151 -0.0826  0.1761 -0.1282
 5764TIP3    H138851   0.071   0.442   4.186 -1.3445 -1.4695  1.2449
 5764TIP3    H238852   0.206   0.375   4.208 -1.0149 -0.8105  1.2525
 5765TIP3   OH238853   1.557   5.957   2.672  0.1797  0.4270 -0.4510
 5765TIP3    H138854   1.554   5.962   2.767  0.8525 -0.3963 -0.3754
 5765TIP3    H238855   1.467   5.978   2.644  0.0655  1.0346  0.3296
 5766TIP3   OH238856   3.289   2.933   1.605 -0.0074  0.1279 -0.5270
 5766TIP3    H138857   3.268   2.934   1.698  0.5446 -0.9016 -0.3850
 5766TIP3    H238858   3.203   2.930   1.562 -0.2451 -1.4982 -0.0003
 5767TIP3   OH238859   2.297   3.612   3.136 -0.3892  0.0092 -0.1061
 5767TIP3    H138860   2.356   3.658   3.196  0.0082 -0.4853 -0.1083
 5767TIP3    H238861   2.228   3.675   3.117  0.8101  1.0657 -1.1181
 5768TIP3   OH238862   3.978   5.802   1.304 -0.0294  0.0115  0.1392
 5768TIP3    H138863   3.994   5.891   1.274  3.5286 -0.1743  1.1130
 5768TIP3    H238864   3.981   5.749   1.224 -0.6900  0.5608 -0.2616
 5769TIP3   OH238865   4.707   3.906   3.389  0.2317 -0.3086  0.1235
 5769TIP3    H138866   4.708   3.941   3.300  0.6746  1.2036  0.6972
 5769TIP3    H238867   4.614   3.891   3.408  0.0350  0.5386 -0.1488
 5770TIP3   OH238868   0.805   2.097   0.554 -0.5525 -0.0315  0.2973
 5770TIP3    H138869   0.840   2.015   0.520 -1.2086 -1.4078  2.7631
 5770TIP3    H238870   0.880   2.140   0.596 -0.2587  0.5875 -0.8074
 5771TIP3   OH238871   3.266   6.073   2.187  0.4128 -0.4913  0.3199
 5771TIP3    H138872   3.172   6.076   2.201  0.3734 -1.2491  0.2389
 5771TIP3    H238873   3.286   6.155   2.140 -0.2085 -0.3596  0.2789
 5772TIP3   OH238874   3.992   0.542   7.862 -0.4797  0.0942 -0.2331
 5772TIP3    H138875   4.066   0.601   7.844 -0.6810  0.3610 -0.1859
 5772TIP3    H238876   3.917   0.600   7.873 -0.5937 -0.1433  0.2691
 5773TIP3   OH238877   0.783   0.443   3.704  0.3943 -0.0758  0.3075
 5773TIP3    H138878   0.836   0.412   3.778  0.0935  1.3689  1.1753
 5773TIP3    H238879   0.846   0.462   3.635  0.8424  0.0518  0.7470
 5774TIP3   OH238880   0.553   6.899   3.456  0.2595  0.2741 -0.0872
 5774TIP3    H138881   0.570   6.972   3.396  0.6685 -1.9963 -2.9655
 5774TIP3    H238882   0.460   6.879   3.443  0.8465 -1.6236 -1.7624
 5775TIP3   OH238883   2.128   5.236   2.031 -0.1266  0.3314 -0.6217
 5775TIP3    H138884   2.167   5.319   2.003 -0.6759  0.5828 -0.6527
 5775TIP3    H238885   2.199   5.172   2.022  0.6707  1.0007  0.5592
 5776TIP3   OH238886   3.882   3.604   2.044  0.8757  0.4196  0.2941
 5776TIP3    H138887   3.789   3.626   2.054  1.1109  1.5768  0.0462
 5776TIP3    H238888   3.910   3.654   1.967  1.6270 -0.2050  0.1461
 5777TIP3   OH238889   6.204   4.388   1.935  0.3512  0.6870 -0.5762
 5777TIP3    H138890   6.238   4.475   1.915 -0.5258  1.4361  0.9858
 5777TIP3    H238891   6.195   4.387   2.030  0.8946 -1.3428 -0.5030
 5778TIP3   OH238892   2.682   3.775   2.739  0.7163 -0.2488 -0.2720
 5778TIP3    H138893   2.777   3.775   2.754  0.8612 -1.6666 -1.0549
 5778TIP3    H238894   2.647   3.829   2.810  1.9807 -0.8902  0.8947
 5779TIP3   OH238895   2.582   4.426   0.794  0.0805 -0.3366  0.4501
 5779TIP3    H138896   2.580   4.495   0.860  0.7583  0.3004 -0.1794
 5779TIP3    H238897   2.665   4.381   0.809  0.8686  0.6366 -0.7595
 5780TIP3   OH238898   3.835   4.305   0.972 -0.2650 -0.0344 -0.7215
 5780TIP3    H138899   3.859   4.241   1.039  0.8409  0.8879 -0.2091
 5780TIP3    H238900   3.792   4.375   1.021  2.4143  1.6460 -0.6080
 5781TIP3   OH238901   6.396   2.009   0.899  0.2052 -0.2172 -0.1455
 5781TIP3    H138902   6.345   1.986   0.977  0.8937 -0.0397  0.3698
 5781TIP3    H238903   6.482   1.968   0.915  0.4093 -0.0096 -0.7190
 5782TIP3   OH238904   3.969   1.213   2.448  0.3921 -0.4881  0.8006
 5782TIP3    H138905   3.986   1.307   2.457  0.7591 -0.4488 -0.2407
 5782TIP3    H238906   4.054   1.174   2.431 -0.1844 -0.4980 -2.7523
 5783TIP3   OH238907   2.719   3.881   3.349  0.1393  0.4483 -0.3064
 5783TIP3    H138908   2.812   3.883   3.325 -0.4760  0.0999 -3.0908
 5783TIP3    H238909   2.691   3.972   3.344 -0.2773  0.2685 -2.6094
 5784TIP3   OH238910   1.528   4.489   3.426 -0.1631  0.2464  0.0209
 5784TIP3    H138911   1.538   4.560   3.489 -1.3678 -0.5630  1.1826
 5784TIP3    H238912   1.462   4.520   3.364 -1.9519 -0.4706  1.5086
 5785TIP3   OH238913   2.584   1.036   2.590 -0.1808  0.1943 -0.3447
 5785TIP3    H138914   2.519   0.967   2.595  0.6528 -0.6909 -1.2556
 5785TIP3    H238915   2.584   1.076   2.677 -0.2926 -1.3144  0.3688
 5786TIP3   OH238916   3.290   0.306   3.065  0.5751 -0.4166  0.5685
 5786TIP3    H138917   3.222   0.364   3.100  0.5086 -1.0022  1.4525
 5786TIP3    H238918   3.329   0.355   2.993 -0.4497  0.1293  0.3700
 5787TIP3   OH238919   1.253   5.036   0.915 -0.5936 -0.2399 -0.3106
 5787TIP3    H138920   1.206   4.960   0.880 -1.8568 -0.2962  1.3494
 5787TIP3    H238921   1.193   5.073   0.980 -0.6741  3.0982 -2.0383
 5788TIP3   OH238922   2.082   3.472   2.786 -0.1984 -0.0621 -0.4251
 5788TIP3    H138923   2.130   3.553   2.771  0.8197 -0.4956  0.3641
 5788TIP3    H238924   2.054   3.444   2.698  1.6926 -0.1912 -1.0378
 5789TIP3   OH238925   0.061   6.107   3.254  0.6067 -1.0092 -0.2923
 5789TIP3    H138926  -0.035   6.106   3.258  0.5502  1.0878  0.1333
 5789TIP3    H238927   0.087   6.162   3.328  2.0458 -0.3750 -1.2399
 5790TIP3   OH238928   6.612   6.171   0.748  0.1501 -0.7371 -0.1762
 5790TIP3    H138929   6.668   6.128   0.813  1.2554  0.0854 -0.5536
 5790TIP3    H238930   6.537   6.203   0.799  0.1172 -1.6720  0.3813
 5791TIP3   OH238931   6.747   3.141   2.558  0.2302 -0.5911  0.5133
 5791TIP3    H138932   6.823   3.196   2.538 -0.7366  1.0247  1.0860
 5791TIP3    H238933   6.739   3.146   2.654 -0.9992 -0.1598  0.4017
 5792TIP3   OH238934   1.791   5.982   0.316  0.5555  0.1449  0.3519
 5792TIP3    H138935   1.843   6.061   0.305 -0.8246  0.8461 -1.9884
 5792TIP3    H238936   1.700   6.012   0.312 -0.0098 -1.4142  0.5894
 5793TIP3   OH238937   1.667   1.461   1.968  0.3503 -0.1847 -0.2442
 5793TIP3    H138938   1.649   1.411   2.048 -0.8965 -4.0546 -2.6823
 5793TIP3    H238939   1.581   1.488   1.937  0.6020 -0.6244 -1.3606
 5794TIP3   OH238940   4.967   3.712   0.113 -0.4392  0.2813 -0.0497
 5794TIP3    H138941   4.977   3.770   0.188  0.9479  0.8063 -0.6073
 5794TIP3    H238942   5.015   3.755   0.042 -0.3687 -0.9643 -0.8062
 5795TIP3   OH238943   1.757   0.214   2.453  0.2741  0.2890 -0.1925
 5795TIP3    H138944   1.724   0.125   2.460 -0.2746  0.5985  1.6651
 5795TIP3    H238945   1.852   0.204   2.448  0.1507 -0.4369 -1.5599
 5796TIP3   OH238946   4.983   2.286   0.729  0.1936  0.2833 -0.2001
 5796TIP3    H138947   5.048   2.346   0.766  1.2455 -0.8223 -0.1912
 5796TIP3    H238948   4.902   2.337   0.727  1.3795  2.2549 -1.6886
 5797TIP3   OH238949   0.869   2.916   3.626 -0.4536  0.1045  0.6174
 5797TIP3    H138950   0.843   3.007   3.643 -0.5920 -0.0371  1.1806
 5797TIP3    H238951   0.950   2.904   3.675 -1.0086 -0.3957  1.4305
 5798TIP3   OH238952   6.665   3.275   3.837 -0.5173 -0.3939 -0.2554
 5798TIP3    H138953   6.574   3.305   3.839 -1.4280 -2.8212  2.6856
 5798TIP3    H238954   6.669   3.217   3.762 -1.0549  0.5572 -1.0454
 5799TIP3   OH238955   5.969   6.052   3.004 -0.0507 -0.0975  0.0296
 5799TIP3    H138956   5.960   6.135   2.958  1.9705 -0.4175 -1.0257
 5799TIP3    H238957   5.973   5.986   2.935  2.6666 -0.6246  0.5778
 5800TIP3   OH238958   2.553   4.493   1.892  0.2540  0.3066  0.3446
 5800TIP3    H138959   2.490   4.554   1.930 -0.9160 -1.5250  1.4847
 5800TIP3    H238960   2.609   4.548   1.837 -0.8427  2.3603  1.1639
 5801TIP3   OH238961   2.439   5.841   4.313 -0.2846 -0.5100  0.3336
 5801TIP3    H138962   2.461   5.930   4.288  1.6710 -1.0340 -0.0692
 5801TIP3    H238963   2.375   5.850   4.383  2.1001  1.3521  2.4583
 5802TIP3   OH238964   3.270   1.330   0.644 -0.0472 -0.1946 -0.3738
 5802TIP3    H138965   3.287   1.242   0.610 -2.1603 -1.2451  1.0457
 5802TIP3    H238966   3.229   1.377   0.572  0.5064 -0.5729 -0.9446
 5803TIP3   OH238967   5.675   0.137   2.591 -0.2014 -0.0858  0.0565
 5803TIP3    H138968   5.649   0.217   2.546 -0.5483  0.3821  1.0623
 5803TIP3    H238969   5.661   0.156   2.684 -0.2534 -1.3031  0.3101
 5804TIP3   OH238970   1.432   4.766   3.255  0.2565  0.0123  0.5440
 5804TIP3    H138971   1.432   4.691   3.196  1.6496 -0.5022  1.1548
 5804TIP3    H238972   1.356   4.818   3.228  0.5313 -0.4793 -1.3338
 5805TIP3   OH238973   3.855   2.467   3.255  0.2598  0.0679 -0.2131
 5805TIP3    H138974   3.786   2.444   3.318  1.2904 -0.4130  0.7945
 5805TIP3    H238975   3.893   2.382   3.231  0.5732  0.3376 -0.6600
 5806TIP3   OH238976   4.077   5.337   1.133  0.1403  0.3997 -0.3276
 5806TIP3    H138977   3.996   5.322   1.085 -0.0149  0.4738 -0.0930
 5806TIP3    H238978   4.147   5.311   1.073  0.0265  1.9245 -1.1553
 5807TIP3   OH238979   3.797   4.902   1.025  0.1807  0.0718  0.2145
 5807TIP3    H138980   3.797   4.965   1.097 -0.0540  0.0913  0.1983
 5807TIP3    H238981   3.867   4.931   0.967  0.5859 -0.1244  0.5909
 5808TIP3   OH238982   5.548   6.004   1.652 -0.2163 -0.3425  0.0466
 5808TIP3    H138983   5.542   6.100   1.647 -1.4141 -0.3427  0.9399
 5808TIP3    H238984   5.493   5.973   1.580  0.8627 -0.3764 -0.7824
 5809TIP3   OH238985   0.376   2.448   3.476  0.0604 -0.3313  0.0892
 5809TIP3    H138986   0.375   2.535   3.436 -1.4139 -1.0832 -1.6667
 5809TIP3    H238987   0.445   2.401   3.428 -1.1361 -0.9766 -1.0767
 5810TIP3   OH238988   3.477   4.996   4.468 -0.4020  0.0351 -0.0413
 5810TIP3    H138989   3.511   4.909   4.445  0.0354  0.1322  0.2253
 5810TIP3    H238990   3.387   4.996   4.436 -0.1110 -0.1864 -0.8770
 5811TIP3   OH238991   6.865   4.497   2.461  0.4939  0.1326  0.0111
 5811TIP3    H138992   6.779   4.456   2.466  0.3348  0.4727  0.0979
 5811TIP3    H238993   6.895   4.502   2.552  0.8086 -0.4031 -0.0560
 5812TIP3   OH238994   4.138   2.413   2.856  0.2475 -0.7176  0.0603
 5812TIP3    H138995   4.087   2.453   2.786  2.1889 -1.0960 -1.6570
 5812TIP3    H238996   4.110   2.322   2.858  0.3881 -0.7721 -0.4341
 5813TIP3   OH238997   6.192   5.746   2.898  0.2184  0.0253  0.4463
 5813TIP3    H138998   6.178   5.833   2.935 -1.3784 -0.1187  0.2190
 5813TIP3    H238999   6.272   5.755   2.847 -0.3062  1.5528 -0.1561
 5814TIP3   OH239000   2.968   6.017   1.916 -0.6656 -0.1742  0.1089
 5814TIP3    H139001   3.026   6.032   1.841  2.0995 -0.8583  1.9386
 5814TIP3    H239002   2.934   6.103   1.938 -1.4046  0.0703 -1.7507
 5815TIP3   OH239003   1.289   2.319   1.554 -0.3428  0.2919 -0.3266
 5815TIP3    H139004   1.313   2.293   1.465  1.6253 -0.9247  0.5010
 5815TIP3    H239005   1.361   2.375   1.583  1.5936 -3.0758  2.0662
 5816TIP3   OH239006   3.399   2.552   1.535 -0.2758  0.0848  0.0696
 5816TIP3    H139007   3.470   2.583   1.592 -0.5335  0.7786  0.0224
 5816TIP3    H239008   3.404   2.609   1.458 -0.7264 -0.0266 -0.0415
 5817TIP3   OH239009   1.735   6.128   0.697  0.0838  0.4612 -0.0843
 5817TIP3    H139010   1.776   6.209   0.667  1.6360  0.5518  2.0082
 5817TIP3    H239011   1.776   6.111   0.782 -1.0024 -1.9421  0.0390
 5818TIP3   OH239012   0.271   5.721   1.872 -0.7114  0.0307  0.3369
 5818TIP3    H139013   0.228   5.701   1.955 -2.1058 -0.4372 -0.4666
 5818TIP3    H239014   0.261   5.641   1.820 -1.2185  0.8093 -0.8257
 5819TIP3   OH239015   6.388   5.373   3.014  0.0591 -0.7877 -0.8855
 5819TIP3    H139016   6.483   5.373   3.003  0.4833 -0.0149  1.9755
 5819TIP3    H239017   6.373   5.428   3.091 -2.9091  0.9578 -2.5108
 5820TIP3   OH239018   1.360   1.334   2.655 -0.0558 -0.1266 -0.0877
 5820TIP3    H139019   1.396   1.291   2.733  1.1217 -1.5730 -1.3649
 5820TIP3    H239020   1.265   1.322   2.662  0.1709 -1.9620  0.1795
 5821TIP3   OH239021   4.162   6.626   1.101 -0.6916 -0.0718 -0.3839
 5821TIP3    H139022   4.255   6.646   1.101 -0.7963  0.5186  1.0210
 5821TIP3    H239023   4.119   6.710   1.084 -0.9741 -0.3938 -1.3302
 5822TIP3   OH239024   2.297   1.047   3.782 -0.0999  0.7789  0.5052
 5822TIP3    H139025   2.272   1.091   3.863 -1.4221  1.3465 -0.1881
 5822TIP3    H239026   2.343   1.114   3.731 -0.8435  0.9534  0.0518
 5823TIP3   OH239027   0.888   1.022   2.256 -0.3802 -0.0743  0.8713
 5823TIP3    H139028   0.843   1.012   2.172 -2.5438  1.7624  1.7207
 5823TIP3    H239029   0.867   0.942   2.304  0.9728 -1.1984 -0.2987
 5824TIP3   OH239030   3.491   5.893   2.266 -0.2119  0.1560  0.0492
 5824TIP3    H139031   3.448   5.966   2.222 -0.0658  1.3380  1.7551
 5824TIP3    H239032   3.481   5.913   2.359  1.0647 -1.2907  0.5285
 5825TIP3   OH239033   5.742   3.967   3.272  0.3707 -0.5312  0.2132
 5825TIP3    H139034   5.706   4.037   3.327  1.1304  0.0709 -0.0414
 5825TIP3    H239035   5.790   4.013   3.204  1.5116 -1.3170  0.4689
 5826TIP3   OH239036   0.382   4.969   2.341  0.1781 -0.1115 -0.2940
 5826TIP3    H139037   0.291   4.969   2.371 -0.1011 -0.4840 -1.1293
 5826TIP3    H239038   0.412   4.879   2.355 -0.3565 -0.6393 -2.2800
 5827TIP3   OH239039   5.026   2.310   4.469  0.2153 -0.0038 -0.1357
 5827TIP3    H139040   5.001   2.242   4.406 -0.4550 -0.1914  0.3188
 5827TIP3    H239041   5.104   2.274   4.513 -0.1909 -0.5389  0.1714
 5828TIP3   OH239042   1.923   2.211   0.698  0.1372 -0.1376 -0.4382
 5828TIP3    H139043   1.919   2.233   0.605 -1.8101  0.2577 -0.3075
 5828TIP3    H239044   1.957   2.121   0.699  2.8500  0.7787 -1.3089
 5829TIP3   OH239045   3.432   4.054   2.018  0.4763 -0.0153  0.5852
 5829TIP3    H139046   3.475   4.113   2.080  0.4566  3.6442 -2.5344
 5829TIP3    H239047   3.342   4.085   2.013  1.0937  1.6690 -3.0574
 5830TIP3   OH239048   5.404   1.950   1.177  0.2310  0.6336 -0.1148
 5830TIP3    H139049   5.339   2.012   1.145 -1.1735 -0.2449  0.9281
 5830TIP3    H239050   5.354   1.872   1.199  1.6722 -0.1395  0.5786
 5831TIP3   OH239051   3.477   4.272   2.817  0.5396  0.4865  0.6036
 5831TIP3    H139052   3.474   4.219   2.896  1.1300 -0.7984 -0.2036
 5831TIP3    H239053   3.387   4.271   2.784  0.6011 -0.2901  0.4344
 5832TIP3   OH239054   1.336   6.519   4.463  0.1902  0.0040  0.9915
 5832TIP3    H139055   1.245   6.530   4.437  0.5685  0.0475 -0.3810
 5832TIP3    H239056   1.332   6.466   4.543 -1.0853  1.0007  1.6164
 5833TIP3   OH239057   4.952   0.227   0.602  0.3666 -0.4199 -0.6024
 5833TIP3    H139058   4.899   0.290   0.554 -0.0105  0.2771  0.6764
 5833TIP3    H239059   4.900   0.207   0.680  0.6477 -2.0440 -0.7915
 5834TIP3   OH239060   3.788   2.199   3.450 -0.3340 -0.2910 -0.0001
 5834TIP3    H139061   3.780   2.182   3.356 -2.4806  0.8860 -0.0803
 5834TIP3    H239062   3.876   2.235   3.460  0.1708 -1.0246 -1.4403
 5835TIP3   OH239063   2.167   4.886   1.456  0.5367  0.2750 -0.4798
 5835TIP3    H139064   2.114   4.961   1.429 -0.4167 -0.3872 -0.4929
 5835TIP3    H239065   2.141   4.871   1.547 -0.3983 -0.9558 -0.9267
 5836TIP3   OH239066   4.491   6.561   3.153  0.4917  0.0251 -0.4481
 5836TIP3    H139067   4.485   6.565   3.057 -0.5260  0.3591 -0.3813
 5836TIP3    H239068   4.535   6.642   3.178 -0.0938  0.3927 -0.5800
 5837TIP3   OH239069   3.111   1.403   3.645 -0.0299  0.3848  0.2173
 5837TIP3    H139070   3.028   1.368   3.676 -0.0819  0.7068  0.4500
 5837TIP3    H239071   3.177   1.356   3.695 -0.0600 -0.1110 -0.2110
 5838TIP3   OH239072   1.612   6.425   2.034 -0.4470  0.3415 -0.3893
 5838TIP3    H139073   1.631   6.341   1.993 -0.7787  0.4904 -0.8564
 5838TIP3    H239074   1.694   6.474   2.026 -0.7073  0.6205 -1.5097
 5839TIP3   OH239075   6.653   0.845   0.552 -0.3434  0.5604 -0.3591
 5839TIP3    H139076   6.702   0.791   0.614 -0.2691 -0.3065 -1.1572
 5839TIP3    H239077   6.718   0.906   0.517 -0.0330  0.0353 -0.7135
 5840TIP3   OH239078   1.196   4.046   2.150 -0.0172  0.0131  0.0627
 5840TIP3    H139079   1.253   3.987   2.200  1.1886 -0.0456 -1.3166
 5840TIP3    H239080   1.149   4.095   2.217  0.6399 -0.8993  1.2576
 5841TIP3   OH239081   1.792   5.683   0.484 -0.5269  0.2486 -0.4406
 5841TIP3    H139082   1.831   5.597   0.469 -0.1530  0.1982  0.7465
 5841TIP3    H239083   1.865   5.744   0.481 -0.5435  0.3181  0.4044
 5842TIP3   OH239084   6.519   4.546   1.135  0.1066 -0.5746 -0.2925
 5842TIP3    H139085   6.432   4.584   1.150  0.0493 -0.1720 -1.5566
 5842TIP3    H239086   6.520   4.524   1.042  1.3928 -0.4747 -0.3226
 5843TIP3   OH239087   2.948   6.609   2.184 -0.2053 -0.6281  0.1262
 5843TIP3    H139088   2.877   6.547   2.203 -1.3252  0.8229  0.8419
 5843TIP3    H239089   3.013   6.591   2.251  0.1189 -1.9541 -0.5133
 5844TIP3   OH239090   3.267   1.886   0.449 -0.3514  0.3623 -0.0761
 5844TIP3    H139091   3.248   1.794   0.426  0.9661 -0.5953  2.3027
 5844TIP3    H239092   3.246   1.935   0.369 -3.2856 -1.6748 -0.7242
 5845TIP3   OH239093   1.777   1.953   0.604 -0.1460 -0.1833 -0.3140
 5845TIP3    H139094   1.788   1.911   0.519  2.2673  0.1658 -0.2406
 5845TIP3    H239095   1.741   1.885   0.660  1.2831 -1.4321 -0.8394
 5846TIP3   OH239096   5.108   0.326   3.462 -0.4085  0.7096 -0.4308
 5846TIP3    H139097   5.122   0.250   3.519 -2.1422 -0.0746 -0.9696
 5846TIP3    H239098   5.086   0.397   3.521 -0.5864  0.3170 -0.0218
 5847TIP3   OH239099   5.032   1.146   2.789 -0.2173 -0.3907  0.2290
 5847TIP3    H139100   5.093   1.118   2.721 -0.7078  0.5876 -0.6456
 5847TIP3    H239101   5.081   1.136   2.871  1.0529  0.1777 -0.4276
 5848TIP3   OH239102   2.475   5.182   7.785  0.2794  0.1117 -0.0339
 5848TIP3    H139103   2.489   5.099   7.831  0.8066 -0.7576 -1.7057
 5848TIP3    H239104   2.528   5.246   7.833 -0.4620 -0.3942  1.5196
 5849TIP3   OH239105   0.624   4.116   0.238  0.2671  0.0399  0.7596
 5849TIP3    H139106   0.578   4.196   0.212  1.3816  0.8027  1.0559
 5849TIP3    H239107   0.576   4.045   0.194 -1.0142  0.8127  0.8449
 5850TIP3   OH239108   5.519   3.509   3.238  0.1054  0.3777  0.0723
 5850TIP3    H139109   5.496   3.458   3.316  1.6046 -0.0485  0.2815
 5850TIP3    H239110   5.516   3.600   3.267 -2.2158  0.4297 -0.1964
 5851TIP3   OH239111   5.920   2.014   3.840 -0.3805  0.3956  0.3401
 5851TIP3    H139112   5.832   2.053   3.834 -0.7934 -0.5255  0.1876
 5851TIP3    H239113   5.921   1.970   3.925 -0.8298 -1.3209 -0.4889
 5852TIP3   OH239114   1.827   4.182   1.603 -0.3448 -0.4964  0.5850
 5852TIP3    H139115   1.890   4.252   1.616  0.0366 -1.0182  1.6921
 5852TIP3    H239116   1.756   4.202   1.664 -0.8415 -0.3877 -0.0194
 5853TIP3   OH239117   4.846   5.726   1.398 -0.2832  0.3705  0.4742
 5853TIP3    H139118   4.757   5.703   1.371 -0.4609  1.3176  0.2189
 5853TIP3    H239119   4.855   5.688   1.486 -0.8372  0.0291  0.3865
 5854TIP3   OH239120   3.938   2.503   1.298 -0.1032 -0.1173 -0.3904
 5854TIP3    H139121   4.007   2.547   1.250  0.3115 -1.3516 -0.9708
 5854TIP3    H239122   3.954   2.526   1.390 -0.9273  2.2801 -0.7688
 5855TIP3   OH239123   3.060   1.486   2.737  0.3004  0.7608  0.4321
 5855TIP3    H139124   3.081   1.450   2.823  0.1254  0.9791  0.5652
 5855TIP3    H239125   3.064   1.410   2.678  0.4373  0.6154  0.6284
 5856TIP3   OH239126   5.803   5.327   1.438  0.2600  0.4745  0.2445
 5856TIP3    H139127   5.872   5.316   1.374  0.5518  1.8362  0.2931
 5856TIP3    H239128   5.817   5.415   1.474 -1.7724  0.9944 -0.1024
 5857TIP3   OH239129   2.042   5.228   1.570  0.0215  0.6598  0.2530
 5857TIP3    H139130   1.994   5.284   1.509 -0.8039  0.3806  0.6343
 5857TIP3    H239131   1.982   5.214   1.642  0.6956  0.3229  0.7605
 5858TIP3   OH239132   5.624   2.229   1.688 -0.8752  0.1267  0.2425
 5858TIP3    H139133   5.604   2.321   1.669 -1.1892  0.3906  1.7150
 5858TIP3    H239134   5.717   2.229   1.712 -0.5987 -0.1265 -0.7910
 5859TIP3   OH239135   4.482   5.914   2.525 -0.2566  0.4844 -0.3488
 5859TIP3    H139136   4.565   5.879   2.492  0.2613  0.7729  0.5926
 5859TIP3    H239137   4.447   5.966   2.453  1.4520  2.1285 -0.0778
 5860TIP3   OH239138   5.704   5.452   0.323 -0.0342 -0.0135  0.1104
 5860TIP3    H139139   5.661   5.423   0.242  1.9884  0.2177 -1.1060
 5860TIP3    H239140   5.716   5.371   0.373  2.8148 -1.0255 -1.9255
 5861TIP3   OH239141   3.784   2.486   1.576 -0.6769  0.1655  0.3100
 5861TIP3    H139142   3.733   2.445   1.505 -0.0252  0.9865 -0.6533
 5861TIP3    H239143   3.719   2.536   1.625 -0.9709  0.4255 -0.3255
 5862TIP3   OH239144   4.545   5.424   0.180 -0.0759  0.0620  0.0284
 5862TIP3    H139145   4.577   5.389   0.097  2.0637  1.2820  0.2621
 5862TIP3    H239146   4.461   5.464   0.159  0.1016 -0.2863 -1.4018
 5863TIP3   OH239147   3.563   4.117   3.551  0.2563 -0.0123  0.0135
 5863TIP3    H139148   3.622   4.184   3.584 -1.2361  0.6234  1.5396
 5863TIP3    H239149   3.569   4.125   3.455 -0.8500  3.2952  0.0739
 5864TIP3   OH239150   1.812   1.716   2.466  0.0189  0.2519 -0.0703
 5864TIP3    H139151   1.856   1.689   2.385  1.8014  0.3792  0.8218
 5864TIP3    H239152   1.756   1.789   2.440  0.8899  0.5658 -1.1106
 5865TIP3   OH239153   6.310   6.793   2.091 -0.3565  0.1913 -0.8894
 5865TIP3    H139154   6.330   6.700   2.094 -1.2198  0.0016 -0.8012
 5865TIP3    H239155   6.237   6.804   2.152 -0.1857  0.9458 -0.8069
 5866TIP3   OH239156   3.522   4.723   4.466 -0.4137 -0.5554 -0.9658
 5866TIP3    H139157   3.448   4.662   4.459 -0.4495 -0.9280  1.6659
 5866TIP3    H239158   3.590   4.684   4.411 -1.4843 -1.2679 -1.8339
 5867TIP3   OH239159   0.815   1.680   2.731  0.2382  0.4402 -0.0560
 5867TIP3    H139160   0.825   1.695   2.825 -1.4440 -1.0688  0.4022
 5867TIP3    H239161   0.862   1.753   2.691  1.7597  0.6511  1.9187
 5868TIP3   OH239162   0.553   5.609   1.105 -0.4164  0.0038  0.0781
 5868TIP3    H139163   0.583   5.643   1.020 -0.8050 -0.9682 -0.4619
 5868TIP3    H239164   0.493   5.677   1.137  0.5428  0.8770  0.0942
 5869TIP3   OH239165   3.636   1.815   1.286 -0.7192 -0.1877  0.0587
 5869TIP3    H139166   3.570   1.814   1.217  0.0138 -0.3472 -0.6626
 5869TIP3    H239167   3.637   1.906   1.317 -1.6312 -0.2988  0.4409
 5870TIP3   OH239168   5.380   6.107   2.807 -0.0745  0.4575  0.2967
 5870TIP3    H139169   5.318   6.037   2.786  0.7270 -0.6913  1.6166
 5870TIP3    H239170   5.447   6.065   2.860  0.0459  2.3754  1.7747
 5871TIP3   OH239171   6.290   4.282   2.675  0.2488  0.2272 -0.1378
 5871TIP3    H139172   6.353   4.225   2.719 -2.1834 -2.2649  0.4289
 5871TIP3    H239173   6.215   4.283   2.734 -1.0606  1.3137 -1.7392
 5872TIP3   OH239174   4.060   5.501   3.366  0.1876  0.2285 -0.2447
 5872TIP3    H139175   3.981   5.473   3.411  0.7407  0.6172  1.0351
 5872TIP3    H239176   4.119   5.529   3.436  1.5932 -0.3660 -1.1269
 5873TIP3   OH239177   3.832   4.178   2.404 -0.3114 -0.6307 -0.9918
 5873TIP3    H139178   3.749   4.218   2.427  0.2397 -0.4704  0.9090
 5873TIP3    H239179   3.886   4.189   2.482  0.8516 -2.4281 -1.4804
 5874TIP3   OH239180   5.795   3.992   3.807  0.1319  0.4792 -0.4989
 5874TIP3    H139181   5.824   3.980   3.717 -1.7552  1.6554 -1.3316
 5874TIP3    H239182   5.868   4.035   3.851  0.5119  1.3264 -1.8931
 5875TIP3   OH239183   0.542   4.368   2.713 -0.7154  0.5466 -0.0489
 5875TIP3    H139184   0.637   4.364   2.718 -0.7715 -0.6610  0.5953
 5875TIP3    H239185   0.519   4.303   2.647 -1.0433  1.7916 -1.1966
 5876TIP3   OH239186   1.960   3.830   8.313 -0.1986 -0.0036 -0.7668
 5876TIP3    H139187   1.942   3.923   8.327 -0.4808 -0.1680 -0.0227
 5876TIP3    H239188   1.920   3.785   8.387  0.5644 -0.6626 -0.7352
 5877TIP3   OH239189   4.523   4.464   8.344 -0.0220  0.3381 -0.0816
 5877TIP3    H139190   4.581   4.430   8.276 -0.4915  1.4395 -1.0436
 5877TIP3    H239191   4.570   4.539   8.380 -0.0758  0.1622  0.3718
 5878TIP3   OH239192   3.175   2.445   2.233  0.2065 -0.8375 -0.1829
 5878TIP3    H139193   3.261   2.469   2.267  0.4885 -2.3097  0.2306
 5878TIP3    H239194   3.123   2.526   2.239  0.8617 -0.4989  1.8213
 5879TIP3   OH239195   1.839   4.576   0.004 -0.6218 -0.4865 -0.2892
 5879TIP3    H139196   1.767   4.554  -0.055 -0.9963  1.2261 -0.5230
 5879TIP3    H239197   1.805   4.557   0.092 -0.5734 -1.6876 -0.5129
 5880TIP3   OH239198   3.417   1.092   1.439 -0.4193 -0.4026  1.2485
 5880TIP3    H139199   3.470   1.072   1.516 -0.8791 -1.3343  1.3335
 5880TIP3    H239200   3.451   1.034   1.371 -1.4094 -1.1248  1.3482
 5881TIP3   OH239201   4.196   0.857   0.416 -0.1579 -0.1502 -0.2442
 5881TIP3    H139202   4.154   0.918   0.476  0.8821  1.9161 -1.5048
 5881TIP3    H239203   4.147   0.865   0.335  1.5858  1.1097 -1.2461
 5882TIP3   OH239204   0.925   0.178   2.586 -0.2729  0.1338 -0.2144
 5882TIP3    H139205   0.852   0.125   2.617 -0.1237 -0.7591 -1.3321
 5882TIP3    H239206   0.908   0.191   2.493  0.5744  0.6149 -0.3141
 5883TIP3   OH239207   6.008   0.888   1.570 -0.1968 -0.4952 -0.2083
 5883TIP3    H139208   6.049   0.973   1.589 -0.6124 -0.6716  1.7027
 5883TIP3    H239209   6.056   0.826   1.625 -0.3678 -1.3807 -1.0470
 5884TIP3   OH239210   0.912   4.881   1.751  0.6693  0.1906  0.4672
 5884TIP3    H139211   0.941   4.790   1.740  1.2347  0.5022 -0.8204
 5884TIP3    H239212   0.984   4.923   1.797  0.1905 -0.1184  1.5162
 5885TIP3   OH239213   3.082   1.343   2.986  0.0450  0.0964 -0.3431
 5885TIP3    H139214   3.168   1.312   2.958  0.3783  0.2828  0.4636
 5885TIP3    H239215   3.023   1.270   2.967  1.0947 -1.9130  3.2276
 5886TIP3   OH239216   1.272   1.058   2.976  0.3804  0.0512 -0.4641
 5886TIP3    H139217   1.187   1.053   2.933  0.2445  0.3533 -0.2331
 5886TIP3    H239218   1.313   1.136   2.940  0.0532  0.5985  0.3288
 5887TIP3   OH239219   4.766   1.864   2.281  0.0637  0.3139 -0.0160
 5887TIP3    H139220   4.737   1.803   2.348  0.2571 -2.3210 -2.1545
 5887TIP3    H239221   4.843   1.907   2.318  0.5001 -1.4630  1.2442
 5888TIP3   OH239222   4.430   1.327   1.482  0.4462 -0.2817  0.5013
 5888TIP3    H139223   4.428   1.243   1.436  0.7599 -0.9898  1.7342
 5888TIP3    H239224   4.515   1.365   1.459 -0.0802  0.1621 -0.8139
 5889TIP3   OH239225   3.600   1.683   1.008 -0.3074 -0.0739 -0.3388
 5889TIP3    H139226   3.573   1.689   0.917 -2.9911 -0.0951  0.3692
 5889TIP3    H239227   3.591   1.590   1.030 -0.9602  0.1327  0.2930
 5890TIP3   OH239228   1.494   0.410   0.846 -0.3133  0.5121  0.4360
 5890TIP3    H139229   1.567   0.461   0.882  0.4768  0.2148 -0.6774
 5890TIP3    H239230   1.508   0.412   0.752  0.0828 -2.2309  0.3514
 5891TIP3   OH239231   1.159   0.011   0.710 -0.6562 -0.5726  0.1213
 5891TIP3    H139232   1.119   0.069   0.775 -0.2910 -0.9702  0.7068
 5891TIP3    H239233   1.181  -0.068   0.759  0.2875 -0.5983 -0.3297
 5892TIP3   OH239234   1.488   2.503   2.989 -0.1283 -0.2295 -0.0718
 5892TIP3    H139235   1.570   2.496   2.939 -0.6043  0.8788 -1.0472
 5892TIP3    H239236   1.484   2.422   3.039  1.1730 -0.6583 -0.6107
 5893TIP3   OH239237   3.515   5.246   0.246  0.9394 -0.0048  0.2326
 5893TIP3    H139238   3.540   5.219   0.158 -0.2581 -1.0209  0.1679
 5893TIP3    H239239   3.597   5.253   0.294  1.4601 -1.5745 -0.3864
 5894TIP3   OH239240   3.269   0.508   3.385  0.7694  0.3659  0.2915
 5894TIP3    H139241   3.282   0.581   3.445  1.0052  0.9595 -0.4805
 5894TIP3    H239242   3.191   0.532   3.334  0.2974 -0.3426  0.6508
 5895TIP3   OH239243   2.164   6.562   1.292 -0.0131 -0.2702 -0.1778
 5895TIP3    H139244   2.229   6.511   1.340  1.4052  0.0162 -1.7081
 5895TIP3    H239245   2.172   6.651   1.328 -0.5434 -0.5269  0.5870
 5896TIP3   OH239246   0.381   4.834   2.698  0.0220 -0.4452  0.3633
 5896TIP3    H139247   0.397   4.837   2.604  0.5570  1.4244  0.4725
 5896TIP3    H239248   0.423   4.753   2.726  0.3074 -0.7701 -0.9301
 5897TIP3   OH239249   3.156   5.297   3.747  0.1974  0.0089  0.2556
 5897TIP3    H139250   3.115   5.222   3.790 -0.3622 -0.7072 -1.4433
 5897TIP3    H239251   3.247   5.270   3.733 -0.1356 -0.6215 -0.8462
 5898TIP3   OH239252   4.368   3.732   8.261  0.4208 -0.4475 -0.0605
 5898TIP3    H139253   4.433   3.791   8.300 -0.9106 -0.4773  2.4274
 5898TIP3    H239254   4.386   3.647   8.302  0.6031 -1.1798 -1.5729
 5899TIP3   OH239255   3.169   5.336   0.894 -0.2673 -0.7575 -0.4561
 5899TIP3    H139256   3.195   5.244   0.905  0.3617 -0.6919 -1.2852
 5899TIP3    H239257   3.111   5.335   0.818 -0.5629 -0.5205 -0.2333
 5900TIP3   OH239258   5.405   4.122   0.147 -0.6987 -0.4110  0.2529
 5900TIP3    H139259   5.339   4.172   0.194  1.2084  1.8389  0.7318
 5900TIP3    H239260   5.441   4.183   0.083  1.0899 -1.4509  0.1899
 5901TIP3   OH239261   6.683   5.949   3.584 -1.1122 -0.1996 -0.5393
 5901TIP3    H139262   6.662   6.033   3.625  1.8216  1.9713 -3.0333
 5901TIP3    H239263   6.769   5.926   3.618 -0.1566 -0.0926 -2.7032
 5902TIP3   OH239264   2.894   3.461   2.718 -0.2162  0.1654  0.5208
 5902TIP3    H139265   2.964   3.526   2.716 -0.7895  0.7818  0.0975
 5902TIP3    H239266   2.932   3.383   2.678  0.6962  0.0017  1.6434
 5903TIP3   OH239267   3.207   3.118   3.420 -0.1783  0.2278  0.1273
 5903TIP3    H139268   3.154   3.195   3.399 -1.4213 -0.4092  0.7814
 5903TIP3    H239269   3.260   3.145   3.494 -2.0855 -0.0783  1.7079
 5904TIP3   OH239270   5.645   6.258   2.364 -0.2473 -0.6255 -0.3734
 5904TIP3    H139271   5.571   6.220   2.411  1.0370  2.2077  4.7320
 5904TIP3    H239272   5.721   6.208   2.394  0.5967  1.0006  0.3051
 5905TIP3   OH239273   0.446   1.239   3.769 -0.4868 -0.0336  0.5164
 5905TIP3    H139274   0.433   1.208   3.858 -1.8074  2.3192  1.2225
 5905TIP3    H239275   0.416   1.167   3.713 -2.9527 -0.2594  2.0243
 5906TIP3   OH239276   4.898   0.617   0.328  0.6503  0.0939  0.3674
 5906TIP3    H139277   4.844   0.570   0.263  0.5897  0.6079  0.0441
 5906TIP3    H239278   4.987   0.588   0.310  0.3647 -2.0185  1.9402
 5907TIP3   OH239279   5.601   0.831   1.967 -0.1126  0.1960  0.0693
 5907TIP3    H139280   5.518   0.845   2.013  0.1571 -1.5405  1.1750
 5907TIP3    H239281   5.577   0.813   1.877 -0.8757  0.4394  0.2193
 5908TIP3   OH239282   3.094   0.049   1.803  0.2138 -0.4075 -0.0485
 5908TIP3    H139283   3.128  -0.008   1.735  0.3235  0.2169 -0.5249
 5908TIP3    H239284   3.166   0.110   1.822 -0.6415  1.0055 -1.1548
 5909TIP3   OH239285   2.233   4.626   4.063 -0.4585  0.0469  0.6423
 5909TIP3    H139286   2.291   4.560   4.027 -0.1024  0.8724 -0.3472
 5909TIP3    H239287   2.171   4.645   3.992 -0.5183  0.7996  0.8818
 5910TIP3   OH239288   3.203   2.509   1.153 -0.2156  0.3036  0.2177
 5910TIP3    H139289   3.161   2.484   1.235  0.2015 -2.5291 -0.3371
 5910TIP3    H239290   3.234   2.599   1.168 -0.5556  0.0387  2.9723
 5911TIP3   OH239291   3.458   2.426   4.582  0.0296  0.3258 -0.3249
 5911TIP3    H139292   3.464   2.332   4.594  0.8882  0.6040  1.9338
 5911TIP3    H239293   3.549   2.456   4.582 -0.1664  1.0871 -2.1865
 5912TIP3   OH239294   1.807   3.632   2.847  0.7774  0.0292 -0.0010
 5912TIP3    H139295   1.867   3.575   2.895  0.7956  1.1903  1.4398
 5912TIP3    H239296   1.845   3.719   2.855 -0.9871  0.7766  0.8027
 5913TIP3   OH239297   2.158   4.735   3.041  0.5643 -0.1137  0.4276
 5913TIP3    H139298   2.141   4.726   2.947  0.6174  0.8595  0.3163
 5913TIP3    H239299   2.148   4.647   3.076  2.5464 -0.9029 -0.8096
 5914TIP3   OH239300   0.744   1.490   4.298  0.3613 -0.8864 -0.2139
 5914TIP3    H139301   0.708   1.420   4.353  0.4672 -0.7940 -0.0235
 5914TIP3    H239302   0.671   1.550   4.284  0.0544 -1.4523 -1.0626
 5915TIP3   OH239303   6.453   2.947   1.650 -0.3034  0.0174 -0.4237
 5915TIP3    H139304   6.453   2.947   1.746 -0.9888  0.4025 -0.4146
 5915TIP3    H239305   6.392   3.017   1.627  1.8074  1.7379 -1.1529
 5916TIP3   OH239306   3.677   0.532   3.687  0.8001 -0.4418 -0.2226
 5916TIP3    H139307   3.592   0.489   3.691  0.1695  0.4996 -2.2719
 5916TIP3    H239308   3.723   0.502   3.766 -1.0090 -1.8046  0.3751
 5917TIP3   OH239309   1.363   2.015   2.263  0.7576  0.0726  0.7398
 5917TIP3    H139310   1.319   2.009   2.178 -1.0299  0.5170  1.5830
 5917TIP3    H239311   1.334   1.936   2.310  1.1865  0.1733  1.1701
 5918TIP3   OH239312   1.652   6.336   3.421 -0.4154  0.1535 -0.1452
 5918TIP3    H139313   1.635   6.393   3.346 -0.0162  0.3932 -0.0574
 5918TIP3    H239314   1.745   6.349   3.441 -0.7260  0.8018  0.9802
 5919TIP3   OH239315   3.873   6.262   0.797  0.2431 -0.1712 -0.9093
 5919TIP3    H139316   3.920   6.331   0.843 -3.4145  1.3773  0.8982
 5919TIP3    H239317   3.849   6.300   0.713 -3.3205  1.7091  0.7670
 5920TIP3   OH239318   0.444   3.024   3.155  0.4756  0.5321  0.5327
 5920TIP3    H139319   0.453   3.114   3.187  2.0980  1.1531 -1.5121
 5920TIP3    H239320   0.465   3.029   3.062 -0.6834 -1.7713  0.0827
 5921TIP3   OH239321   0.434   5.216   0.787  0.5909 -0.6176  0.4229
 5921TIP3    H139322   0.458   5.254   0.871 -0.7482 -1.0306  1.0292
 5921TIP3    H239323   0.338   5.225   0.783  0.7066  0.2171 -1.4693
 5922TIP3   OH239324   6.097   1.694   4.143  0.4824 -0.7013  0.0154
 5922TIP3    H139325   6.114   1.787   4.156  1.0220 -0.8568  0.4713
 5922TIP3    H239326   6.037   1.671   4.215  1.5862 -1.0383  0.8616
 5923TIP3   OH239327   1.318   1.683   3.426 -0.0028  0.4223 -0.3131
 5923TIP3    H139328   1.366   1.722   3.353 -0.0589  1.0374 -0.0233
 5923TIP3    H239329   1.348   1.592   3.428 -0.0821  0.3629 -1.1736
 5924TIP3   OH239330   0.466   1.100   0.945  0.7971  0.2821  0.0256
 5924TIP3    H139331   0.547   1.118   0.994  0.3233  1.2249  0.4908
 5924TIP3    H239332   0.490   1.116   0.853  0.7359  2.2391  0.2995
 5925TIP3   OH239333   3.986   4.638   3.223 -0.2311 -0.3269  0.8008
 5925TIP3    H139334   3.934   4.644   3.143 -0.3720 -1.4990  0.7968
 5925TIP3    H239335   4.048   4.711   3.216 -0.1377 -0.5092 -0.4525
 5926TIP3   OH239336   2.557   3.643   1.686 -0.2150 -0.0122  0.1264
 5926TIP3    H139337   2.506   3.724   1.681 -2.5627 -1.2964  1.1817
 5926TIP3    H239338   2.614   3.655   1.761 -2.7302 -0.3481  2.2528
 5927TIP3   OH239339   2.526   2.168   0.332  0.4732  0.0444  0.4561
 5927TIP3    H139340   2.607   2.214   0.351 -0.0345  1.3243 -0.2811
 5927TIP3    H239341   2.479   2.227   0.272  0.5855 -2.2307 -2.0723
 5928TIP3   OH239342   1.211   3.863   1.567 -0.3905 -0.5590  0.1116
 5928TIP3    H139343   1.164   3.787   1.600  1.5381 -0.6745  2.9882
 5928TIP3    H239344   1.163   3.938   1.603 -0.0644 -0.5784  0.5978
 5929TIP3   OH239345   5.175   5.235   1.144  0.2822  0.0691 -0.5600
 5929TIP3    H139346   5.123   5.314   1.131 -0.4486 -0.2953  0.0614
 5929TIP3    H239347   5.166   5.186   1.062  0.6325  0.5592 -0.8978
 5930TIP3   OH239348   2.224   5.029   1.802 -0.0292 -0.2238  0.1507
 5930TIP3    H139349   2.284   4.961   1.834  0.5045  0.3046  0.2809
 5930TIP3    H239350   2.275   5.078   1.738 -1.0354 -1.1856 -1.4832
 5931TIP3   OH239351   6.764   0.973   8.281 -0.5369  0.1910 -0.0259
 5931TIP3    H139352   6.710   1.049   8.261 -0.9302 -0.1339 -0.1999
 5931TIP3    H239353   6.729   0.903   8.226 -2.1907 -0.9809  2.3681
 5932TIP3   OH239354   5.883   4.756   0.479 -0.6653  0.4103 -0.5886
 5932TIP3    H139355   5.835   4.675   0.461 -1.2485  1.0346 -1.9879
 5932TIP3    H239356   5.974   4.728   0.488 -0.6756 -0.2870 -2.2746
 5933TIP3   OH239357   2.812   1.298   3.691 -0.1336 -0.0201 -0.2476
 5933TIP3    H139358   2.838   1.267   3.778 -0.1649  1.3675  0.2822
 5933TIP3    H239359   2.743   1.362   3.707 -1.3707 -0.9940 -1.4254
 5934TIP3   OH239360   2.783   5.226   0.722 -0.5091  0.2805 -0.0485
 5934TIP3    H139361   2.748   5.139   0.700 -1.9362  0.4544  1.3966
 5934TIP3    H239362   2.773   5.233   0.817  0.8253  1.5196  0.0301
 5935TIP3   OH239363   5.647   5.569   0.051  0.1684  0.1044  0.0156
 5935TIP3    H139364   5.610   5.633   0.112  0.2894  1.1334 -0.9463
 5935TIP3    H239365   5.731   5.607   0.025 -0.6309  0.5778 -2.0907
 5936TIP3   OH239366   2.838   6.050   1.335  0.1964  0.0819 -0.2033
 5936TIP3    H139367   2.787   6.023   1.258 -0.2855  0.1199  0.0977
 5936TIP3    H239368   2.918   5.997   1.330  0.6116  0.7578 -1.2430
 5937TIP3   OH239369   1.301   6.525   8.087  0.5739 -0.3119  0.1299
 5937TIP3    H139370   1.395   6.520   8.107  0.8779 -1.7665 -1.4443
 5937TIP3    H239371   1.267   6.588   8.151  2.6617  0.5242  0.5263
 5938TIP3   OH239372   3.746   3.810   3.563 -0.0441 -0.7127  0.1621
 5938TIP3    H139373   3.735   3.767   3.478 -0.4821 -0.0326 -0.1296
 5938TIP3    H239374   3.778   3.898   3.541 -2.9772  0.5266  0.5028
 5939TIP3   OH239375   2.742   6.464   3.590  0.1776 -0.4838 -0.0977
 5939TIP3    H139376   2.710   6.531   3.529  3.5733  2.8737  1.3822
 5939TIP3    H239377   2.719   6.499   3.676  2.6427 -0.7954  0.7510
 5940TIP3   OH239378   1.214   2.847   2.754 -0.8477 -0.4924  0.1872
 5940TIP3    H139379   1.222   2.936   2.788  2.0919  0.7384 -3.0434
 5940TIP3    H239380   1.292   2.801   2.786  0.0971 -0.3657 -1.7340
 5941TIP3   OH239381   6.808   1.292   1.494 -0.2912  0.4336  0.8528
 5941TIP3    H139382   6.901   1.269   1.485 -0.0453  1.8329 -0.7048
 5941TIP3    H239383   6.808   1.367   1.552 -0.4164  0.5556  0.6964
 5942TIP3   OH239384   1.239   2.520   0.435  0.2295 -0.0196  0.1827
 5942TIP3    H139385   1.275   2.547   0.351 -1.6584 -1.0195 -1.0153
 5942TIP3    H239386   1.286   2.439   0.457 -0.8282 -1.0351 -1.1087
 5943TIP3   OH239387   0.654   5.107   3.534 -0.4339 -0.4860  0.2936
 5943TIP3    H139388   0.563   5.091   3.558 -0.3211  0.0195  1.1049
 5943TIP3    H239389   0.683   5.176   3.594 -0.3140  1.3470 -1.7377
 5944TIP3   OH239390   3.410   5.643   4.569 -0.5585 -0.0582 -0.2447
 5944TIP3    H139391   3.401   5.676   4.480  0.0472  3.2369  0.7916
 5944TIP3    H239392   3.392   5.719   4.625 -1.6051 -2.1529  2.5039
 5945TIP3   OH239393   1.356   2.838   3.248 -0.2368 -0.4823  0.2528
 5945TIP3    H139394   1.281   2.851   3.306 -0.0083  0.9565  0.2544
 5945TIP3    H239395   1.319   2.840   3.160 -0.1146  1.0699  0.2179
 5946TIP3   OH239396   2.726   1.298   2.191 -0.2603  0.3361 -0.4330
 5946TIP3    H139397   2.702   1.231   2.255  1.9658  1.4124  1.7017
 5946TIP3    H239398   2.659   1.365   2.200 -0.2869  0.2094  0.4046
 5947TIP3   OH239399   0.648   3.532   0.832  0.1996 -0.0898  0.4561
 5947TIP3    H139400   0.742   3.554   0.832  0.0887  0.4576 -0.6005
 5947TIP3    H239401   0.607   3.605   0.877  0.1215  0.5325 -0.5880
 5948TIP3   OH239402   1.440   4.938   2.359  0.4203 -0.4841 -0.6892
 5948TIP3    H139403   1.449   4.957   2.265  0.7487 -0.4777 -0.6578
 5948TIP3    H239404   1.517   4.978   2.399  0.9258 -1.5518 -0.5751
 5949TIP3   OH239405   3.039   3.042   4.547 -0.1429 -0.3541 -0.4741
 5949TIP3    H139406   3.133   3.059   4.555 -0.1087 -0.9157  0.5536
 5949TIP3    H239407   2.998   3.102   4.610 -0.4914 -0.0132 -1.0160
 5950TIP3   OH239408   4.271   2.265   1.166 -0.2220  0.0011  0.0560
 5950TIP3    H139409   4.320   2.336   1.210  1.5784 -1.2335  0.1423
 5950TIP3    H239410   4.205   2.240   1.230 -1.6216  2.2749 -0.3825
 5951TIP3   OH239411   1.957   1.723   0.623 -0.0837  0.3822  0.1020
 5951TIP3    H139412   1.923   1.643   0.663  0.9604  0.1162  0.4894
 5951TIP3    H239413   1.917   1.725   0.536 -0.9751  0.0223  0.4925
 5952TIP3   OH239414   3.453   1.311   3.194  0.1285  0.3726 -0.2835
 5952TIP3    H139415   3.413   1.363   3.125  0.0796  0.0877 -0.4721
 5952TIP3    H239416   3.444   1.364   3.273  1.6209  1.4215 -0.7826
 5953TIP3   OH239417   4.781   1.216   3.288 -0.3538  0.5561  0.4126
 5953TIP3    H139418   4.748   1.304   3.271 -2.6664 -0.7773 -3.1289
 5953TIP3    H239419   4.842   1.199   3.216 -1.4207 -1.3399 -0.1141
 5954TIP3   OH239420   3.716   0.945   2.086  0.4618  0.0270  0.5227
 5954TIP3    H139421   3.721   0.857   2.123  0.1128 -0.2470 -0.0615
 5954TIP3    H239422   3.723   1.004   2.161  2.4947 -0.4399  0.7613
 5955TIP3   OH239423   1.368   4.099   3.081  0.1744  0.2547  0.2026
 5955TIP3    H139424   1.454   4.112   3.120  0.5289 -2.0172  0.3214
 5955TIP3    H239425   1.382   4.038   3.009 -1.7069 -2.9276  2.3010
 5956TIP3   OH239426   3.014   0.037   4.164  0.2510 -0.1470  0.1406
 5956TIP3    H139427   2.937   0.026   4.220 -0.7574 -1.0263 -1.3647
 5956TIP3    H239428   2.993   0.113   4.110  1.2775  0.7782  0.9940
 5957TIP3   OH239429   5.688   2.958   0.900 -0.5779 -0.1434 -0.0206
 5957TIP3    H139430   5.779   2.933   0.884 -0.3708  0.8843 -0.5182
 5957TIP3    H239431   5.644   2.876   0.922  0.6201 -0.5549  0.9803
 5958TIP3   OH239432   3.655   5.096   0.882 -0.0847 -0.1069  0.1693
 5958TIP3    H139433   3.567   5.120   0.914  0.4612  0.8959  0.9902
 5958TIP3    H239434   3.679   5.019   0.934  0.5249  1.1212  1.8220
 5959TIP3   OH239435   3.271   4.995   0.310 -0.0219  0.0406  0.0178
 5959TIP3    H139436   3.364   4.985   0.329  0.4741 -1.3511 -2.6072
 5959TIP3    H239437   3.268   5.014   0.216 -2.3505  1.6479  0.3248
 5960TIP3   OH239438   1.042   2.816   0.170 -0.1778  0.0653 -0.1641
 5960TIP3    H139439   1.059   2.726   0.142  0.0055 -0.2265  0.8234
 5960TIP3    H239440   1.129   2.854   0.179 -0.2501  0.2894 -0.4338
 5961TIP3   OH239441   4.795   3.490   1.203 -0.6901 -0.5952  0.1055
 5961TIP3    H139442   4.885   3.514   1.181 -0.3485 -0.7061  1.2900
 5961TIP3    H239443   4.787   3.513   1.296 -2.3388  0.7357 -0.3282
 5962TIP3   OH239444   5.213   1.462   2.298  0.2779  0.5250  0.3136
 5962TIP3    H139445   5.209   1.516   2.377  2.5965  0.6053  0.4466
 5962TIP3    H239446   5.275   1.508   2.241 -0.6025 -0.0489 -1.1617
 5963TIP3   OH239447   0.533   6.813   0.746 -0.3859  0.4466 -0.1690
 5963TIP3    H139448   0.462   6.753   0.769  0.6411 -0.1119  1.7091
 5963TIP3    H239449   0.527   6.821   0.651 -0.8756 -2.2435 -0.4336
 5964TIP3   OH239450   4.421   4.828   0.797 -0.0746 -1.2260  0.1522
 5964TIP3    H139451   4.377   4.909   0.826  0.4772 -0.3843 -1.2475
 5964TIP3    H239452   4.413   4.769   0.871  0.2752  0.4179  1.5647
 5965TIP3   OH239453   4.574   4.650   2.594  0.1117  0.7653  0.1181
 5965TIP3    H139454   4.529   4.703   2.529 -0.2181  0.4899  0.1220
 5965TIP3    H239455   4.532   4.673   2.677  1.1805  1.8393  0.3798
 5966TIP3   OH239456   1.286   2.669   2.557 -0.5482  0.2159  0.3999
 5966TIP3    H139457   1.290   2.590   2.611  0.8642  0.2903  0.4208
 5966TIP3    H239458   1.234   2.730   2.608 -1.1557 -0.4891  0.6480
 5967TIP3   OH239459   4.540   4.047   2.003 -0.2359  0.3760 -0.2400
 5967TIP3    H139460   4.596   4.003   2.068  0.4031  0.4049 -0.7596
 5967TIP3    H239461   4.518   4.131   2.044 -1.6471 -0.4869  0.8541
 5968TIP3   OH239462   4.961   5.251   1.623 -0.5122 -0.1255 -0.0194
 5968TIP3    H139463   5.024   5.197   1.575 -0.1538 -0.5281  0.8940
 5968TIP3    H239464   4.924   5.193   1.689  0.6374  0.9739  1.6793
 5969TIP3   OH239465   0.137   3.901   1.741  0.0116 -0.2724  0.1311
 5969TIP3    H139466   0.190   3.822   1.746  1.3385  0.3926 -2.1069
 5969TIP3    H239467   0.053   3.871   1.706  0.2120 -0.8031  0.0903
 5970TIP3   OH239468   3.382   6.948   1.845 -0.1705  0.3718  0.8267
 5970TIP3    H139469   3.384   6.985   1.933 -3.1538 -0.3302  1.3104
 5970TIP3    H239470   3.372   7.024   1.787 -0.0829  0.7210  1.2669
 5971TIP3   OH239471   0.766   3.864   1.795 -0.1357 -0.7796 -0.6128
 5971TIP3    H139472   0.755   3.923   1.870 -2.3167 -0.5103 -1.0644
 5971TIP3    H239473   0.822   3.912   1.735 -0.0174 -0.1247  0.0041
 5972TIP3   OH239474   0.468   0.195   1.005 -0.1402  0.7489 -0.4129
 5972TIP3    H139475   0.512   0.272   1.041  2.6253 -0.8668 -0.0924
 5972TIP3    H239476   0.502   0.188   0.915 -0.3257 -0.1295 -0.4255
 5973TIP3   OH239477   2.446   6.606   3.428 -0.3138 -0.3959 -0.0059
 5973TIP3    H139478   2.413   6.570   3.346  2.0848  1.0346 -1.7212
 5973TIP3    H239479   2.541   6.604   3.419  0.0367  0.0575  2.6692
 5974TIP3   OH239480   4.920   1.036   3.650  0.6054 -0.0822  0.2764
 5974TIP3    H139481   4.858   1.059   3.718  0.7694  3.8127 -0.6720
 5974TIP3    H239482   4.878   0.963   3.603 -1.5224  0.0491  1.8405
 5975TIP3   OH239483   2.055   2.309   8.451  0.2912  0.2059  0.5193
 5975TIP3    H139484   2.147   2.332   8.467  0.0550  0.5849  1.3712
 5975TIP3    H239485   2.019   2.386   8.408  0.2473  0.2531  0.6407
 5976TIP3   OH239486   2.767   0.487   2.565  0.1913 -0.1483  0.3918
 5976TIP3    H139487   2.768   0.583   2.558 -0.0370 -0.1203  0.7118
 5976TIP3    H239488   2.758   0.470   2.658 -2.6826 -0.4475  0.1458
 5977TIP3   OH239489   2.368   4.716   3.223  0.2759  0.2473  0.3364
 5977TIP3    H139490   2.331   4.641   3.269  0.6497 -0.0650  0.1356
 5977TIP3    H239491   2.315   4.724   3.143 -0.2924  0.7131  0.7516
 5978TIP3   OH239492   1.400   0.461   0.530 -0.1845  0.1505  0.0540
 5978TIP3    H139493   1.342   0.480   0.456 -1.9128 -1.5216  0.9012
 5978TIP3    H239494   1.351   0.398   0.583  0.8036  1.5836  2.8460
 5979TIP3   OH239495   2.983   1.476   2.144  0.4164 -0.5531  1.4529
 5979TIP3    H139496   3.000   1.482   2.238  1.7048 -0.0565  1.2128
 5979TIP3    H239497   3.062   1.511   2.103 -1.2551  2.1129  0.1936
 5980TIP3   OH239498   6.511   4.243   0.561  0.5625  0.0600 -0.0722
 5980TIP3    H139499   6.423   4.277   0.544  1.0669  1.6062  0.2078
 5980TIP3    H239500   6.563   4.277   0.489  1.4177  1.2928  1.0813
 5981TIP3   OH239501   1.009   1.466   0.657  0.1644 -0.2988 -0.0463
 5981TIP3    H139502   1.003   1.371   0.648 -0.7832 -0.1874 -0.7380
 5981TIP3    H239503   0.940   1.500   0.600  0.8069  0.8222 -0.1830
 5982TIP3   OH239504   0.690   6.464   1.832  0.4713  0.3146 -0.5177
 5982TIP3    H139505   0.659   6.442   1.744  1.8800 -1.5214 -0.6102
 5982TIP3    H239506   0.785   6.467   1.823  0.6112  0.5332  0.8731
 5983TIP3   OH239507   5.151   1.275   3.772  0.1793  0.4767 -0.4380
 5983TIP3    H139508   5.206   1.261   3.850  2.8974 -0.3710 -2.3371
 5983TIP3    H239509   5.173   1.364   3.743 -1.2474  1.0045  0.0295
 5984TIP3   OH239510   0.243   0.863   3.258  0.4100 -0.4293 -0.3313
 5984TIP3    H139511   0.294   0.810   3.196 -0.2377 -0.8480 -0.5269
 5984TIP3    H239512   0.205   0.798   3.318 -0.1104 -0.1575 -0.3615
 5985TIP3   OH239513   3.840   0.741   1.355  0.3356 -0.5459  0.0893
 5985TIP3    H139514   3.799   0.655   1.367  0.6999 -0.4599  2.5242
 5985TIP3    H239515   3.928   0.730   1.392  0.5114  0.7786  0.1006
 5986TIP3   OH239516   5.428   6.463   0.249 -0.3712 -0.1018 -0.4433
 5986TIP3    H139517   5.507   6.437   0.202 -0.2015 -1.2975  0.4427
 5986TIP3    H239518   5.382   6.521   0.188  2.3338  2.6863 -0.0391
 5987TIP3   OH239519   1.625   5.680   8.326 -0.4582  0.7438  0.0015
 5987TIP3    H139520   1.697   5.742   8.324 -1.6861  2.2113 -0.8084
 5987TIP3    H239521   1.652   5.610   8.265  0.5806  0.8811  0.2872
 5988TIP3   OH239522   2.900   4.385   4.710  0.3087 -0.0301 -1.2802
 5988TIP3    H139523   2.988   4.384   4.673  0.3165  3.2685 -1.6159
 5988TIP3    H239524   2.904   4.451   4.779 -1.6941 -0.4781 -0.6747
 5989TIP3   OH239525   0.132   3.672   0.082 -0.0967 -0.5106 -0.7625
 5989TIP3    H139526   0.112   3.753   0.034 -0.5311 -0.1992 -0.0618
 5989TIP3    H239527   0.220   3.685   0.116  0.6253 -1.1288 -2.2699
 5990TIP3   OH239528   0.112   6.683   2.721 -0.5998 -0.7614 -0.4009
 5990TIP3    H139529   0.031   6.718   2.684 -0.3850  1.1426  0.7862
 5990TIP3    H239530   0.084   6.628   2.794 -0.8295  1.3336  1.1562
 5991TIP3   OH239531   1.949   1.795   8.296  0.2242 -0.2284  0.0803
 5991TIP3    H139532   2.032   1.842   8.306  0.8159 -1.4141  1.0768
 5991TIP3    H239533   1.971   1.704   8.316 -1.2202 -0.6491 -0.1386
 5992TIP3   OH239534   1.122   1.612   1.978 -0.0259  0.4751 -0.4983
 5992TIP3    H139535   1.030   1.636   1.968  0.2642  0.7020 -3.7827
 5992TIP3    H239536   1.121   1.527   2.022 -2.0352 -0.7487 -2.7000
 5993TIP3   OH239537   1.484   0.869   0.931  0.1529  0.5172 -0.0115
 5993TIP3    H139538   1.390   0.853   0.932 -0.2892  2.8809  0.3785
 5993TIP3    H239539   1.504   0.902   1.019  1.3280  0.2683 -0.1633
 5994TIP3   OH239540   1.610   6.735   0.261  0.4762 -0.5573 -0.1223
 5994TIP3    H139541   1.693   6.734   0.213  0.1510 -1.7288 -0.6926
 5994TIP3    H239542   1.546   6.765   0.197  0.3148 -0.5145  0.0582
 5995TIP3   OH239543   4.722   3.944   0.389  0.4278 -0.4354  0.2412
 5995TIP3    H139544   4.655   3.913   0.328 -0.8750 -2.7506  2.6198
 5995TIP3    H239545   4.674   4.001   0.450  1.8936  2.6990 -1.2975
 5996TIP3   OH239546   3.615   2.610   2.773 -0.0395 -0.4633  0.3782
 5996TIP3    H139547   3.641   2.684   2.718 -0.1787 -0.7203 -0.0361
 5996TIP3    H239548   3.521   2.623   2.788 -0.0412 -0.4936  0.3943
 5997TIP3   OH239549   2.012   3.793   3.934  0.4547 -0.0584  0.0123
 5997TIP3    H139550   2.025   3.714   3.882  1.8430  0.2461 -0.1367
 5997TIP3    H239551   1.955   3.765   4.006  0.2609 -0.9938 -0.4913
 5998TIP3   OH239552   3.984   1.396   0.198  0.0059 -0.5621  0.1232
 5998TIP3    H139553   4.007   1.447   0.119  0.2891  0.4766  0.8511
 5998TIP3    H239554   4.056   1.335   0.209 -0.2261 -0.9841 -0.6420
 5999TIP3   OH239555   1.733   4.580   0.248 -0.3504  0.1679  0.0261
 5999TIP3    H139556   1.780   4.663   0.247 -1.1559  0.6420 -2.0514
 5999TIP3    H239557   1.648   4.601   0.286 -0.3621  0.1647  0.0013
 6000TIP3   OH239558   3.210   1.550   2.347 -0.6642  0.5971 -0.7212
 6000TIP3    H139559   3.300   1.573   2.370 -0.1488  0.4583 -2.4862
 6000TIP3    H239560   3.193   1.470   2.396 -0.1113  1.0429  0.2335
 6001TIP3   OH239561   5.346   3.008   1.856  0.3288 -0.1814  0.0377
 6001TIP3    H139562   5.384   2.941   1.799  1.4952  1.0392 -0.6641
 6001TIP3    H239563   5.420   3.044   1.905 -0.3519  0.2580  0.7845
 6002TIP3   OH239564   0.122   4.331   1.610 -0.0248  0.0710  0.6041
 6002TIP3    H139565   0.118   4.409   1.665 -1.4988  0.1462  0.4393
 6002TIP3    H239566   0.091   4.260   1.667 -0.9527  0.0406  0.0847
 6003TIP3   OH239567   1.911   3.505   2.256  0.6827  0.0648 -0.0348
 6003TIP3    H139568   1.846   3.457   2.205 -0.1058  0.2533  0.7634
 6003TIP3    H239569   1.986   3.515   2.197  0.2168 -0.6756 -0.7680
 6004TIP3   OH239570   0.908   1.231   1.374  0.5298 -0.6681  0.2885
 6004TIP3    H139571   0.954   1.312   1.353  0.2331 -0.2699  1.1124
 6004TIP3    H239572   0.946   1.203   1.457  0.6612 -1.3980 -0.0141
 6005TIP3   OH239573   3.258   1.116   4.525 -0.3038  0.3352  0.9981
 6005TIP3    H139574   3.341   1.091   4.565 -0.0576 -0.5244 -0.0104
 6005TIP3    H239575   3.210   1.034   4.515  0.0964  0.3006 -1.4252
 6006TIP3   OH239576   5.171   1.253   1.170 -0.1074 -0.0609 -0.3891
 6006TIP3    H139577   5.101   1.318   1.179 -0.7337 -0.9000  1.1325
 6006TIP3    H239578   5.235   1.278   1.236 -1.7420 -2.6129  2.4013
 6007TIP3   OH239579   5.146   5.409   2.299 -0.9883  0.7234 -0.5428
 6007TIP3    H139580   5.081   5.340   2.314  0.3978 -0.5021  0.1151
 6007TIP3    H239581   5.189   5.383   2.218  0.2349  0.2058  0.2467
 6008TIP3   OH239582   6.019   4.590   2.084 -0.5453 -0.0793 -0.4053
 6008TIP3    H139583   5.949   4.627   2.030 -1.4015 -1.5988 -0.3833
 6008TIP3    H239584   6.004   4.496   2.082  1.4287 -0.4540 -0.2815
 6009TIP3   OH239585   5.381   0.730   2.650  0.4298 -0.2882 -0.4147
 6009TIP3    H139586   5.356   0.684   2.570  0.4737  0.5355 -0.9116
 6009TIP3    H239587   5.467   0.769   2.629  0.2477  0.2827 -0.1187
 6010TIP3   OH239588   4.891   2.101   3.725  0.7599  0.2638 -0.1827
 6010TIP3    H139589   4.820   2.037   3.718  0.7070  0.4885 -2.3427
 6010TIP3    H239590   4.932   2.100   3.639  1.2551  2.6021 -0.0317
 6011TIP3   OH239591   4.335   1.590   3.644 -0.6455 -0.4249  0.5042
 6011TIP3    H139592   4.249   1.574   3.605 -0.1044 -2.6471  0.1273
 6011TIP3    H239593   4.365   1.504   3.673  1.1959  0.4038  1.1956
 6012TIP3   OH239594   2.726   4.812   3.228  0.2679 -0.3457 -0.0257
 6012TIP3    H139595   2.783   4.798   3.304 -1.3336 -0.1272  1.2819
 6012TIP3    H239596   2.712   4.906   3.225 -0.9434 -0.4916  0.4155
 6013TIP3   OH239597   3.261   5.000   3.683  0.2876  0.1246 -0.0927
 6013TIP3    H139598   3.289   5.014   3.592  2.0539 -0.5999  0.3149
 6013TIP3    H239599   3.317   5.058   3.734 -1.6000  1.5358  0.4749
 6014TIP3   OH239600   2.706   3.162   2.516 -0.6449  0.2428 -0.2130
 6014TIP3    H139601   2.769   3.234   2.508  0.5846 -0.9046 -1.3745
 6014TIP3    H239602   2.718   3.128   2.605  0.3328  0.0906 -0.3983
 6015TIP3   OH239603   5.268   6.200   0.066 -0.2809  0.2430  0.1022
 6015TIP3    H139604   5.276   6.108   0.092  1.0165  0.7886  1.8368
 6015TIP3    H239605   5.258   6.197  -0.029 -0.5351 -1.7004  0.1480
 6016TIP3   OH239606   6.922   5.783   2.192 -0.0530  0.1328 -0.2980
 6016TIP3    H139607   6.971   5.781   2.275 -1.2045 -0.3396  0.4038
 6016TIP3    H239608   6.838   5.742   2.213 -1.0953  1.6542 -1.2318
 6017TIP3   OH239609   3.766   5.050   1.294  0.0213 -0.1011 -0.0808
 6017TIP3    H139610   3.818   5.131   1.300 -0.2078  0.0159  0.3639
 6017TIP3    H239611   3.802   4.994   1.362  0.7340 -0.7046 -0.9295
 6018TIP3   OH239612   4.329   4.712   2.929  0.8154  0.3563  0.1829
 6018TIP3    H139613   4.270   4.783   2.954  0.3692 -0.2923  1.0049
 6018TIP3    H239614   4.356   4.671   3.011  0.2972 -1.0319 -0.2973
 6019TIP3   OH239615   6.487   0.298   3.463 -0.2346 -0.6820  0.3849
 6019TIP3    H139616   6.477   0.243   3.386  1.0764 -1.8541  0.9963
 6019TIP3    H239617   6.567   0.267   3.505 -0.8449 -0.0258  2.1740
 6020TIP3   OH239618   1.159   4.632   8.403  0.1589 -0.0275  0.6325
 6020TIP3    H139619   1.134   4.563   8.342  0.3347  0.4499  0.0018
 6020TIP3    H239620   1.235   4.598   8.449 -0.2471 -0.5707  0.9034
 6021TIP3   OH239621   4.166   2.886   8.146 -0.0398  0.0520 -0.2677
 6021TIP3    H139622   4.145   2.928   8.062  2.7853  0.6273 -0.7924
 6021TIP3    H239623   4.239   2.828   8.126 -0.5875 -1.3159  1.4731
 6022TIP3   OH239624   3.658   0.374   1.185 -0.3914 -0.1694  0.3651
 6022TIP3    H139625   3.743   0.392   1.146  0.6769 -1.9319  1.7247
 6022TIP3    H239626   3.602   0.352   1.111  0.0307  1.9032 -0.6476
 6023TIP3   OH239627   1.003   6.514   2.655  0.0145  0.8825  0.3791
 6023TIP3    H139628   1.003   6.503   2.560  1.5728 -0.5803  0.5029
 6023TIP3    H239629   0.913   6.495   2.682 -0.2202  0.3804 -0.7133
 6024TIP3   OH239630   5.727   5.278   0.832 -0.6242  0.1743  0.1747
 6024TIP3    H139631   5.686   5.257   0.749  1.6289  3.1639 -1.9184
 6024TIP3    H239632   5.817   5.245   0.824 -0.1601  1.1324  1.0732
 6025TIP3   OH239633   5.492   5.896   0.700 -0.1481  0.9649  0.1204
 6025TIP3    H139634   5.519   5.869   0.612  0.0022 -0.0802  0.4755
 6025TIP3    H239635   5.425   5.962   0.684 -1.2478 -0.3000 -0.8245
 6026TIP3   OH239636   0.895   3.657   0.868 -0.1935  0.3768  0.1166
 6026TIP3    H139637   0.947   3.718   0.921  1.5490 -0.5144 -0.4916
 6026TIP3    H239638   0.952   3.636   0.794 -1.7994  0.0447 -1.0696
 6027TIP3   OH239639   0.444   1.644   3.239  0.2236 -0.2170 -0.0801
 6027TIP3    H139640   0.463   1.737   3.251 -1.1288  0.2150 -0.9984
 6027TIP3    H239641   0.348   1.640   3.242  0.2377 -1.4388 -1.0430
 6028TIP3   OH239642   4.180   4.970   3.269 -0.5530 -0.8669  0.0903
 6028TIP3    H139643   4.251   5.013   3.316  0.1500 -1.8138 -0.0703
 6028TIP3    H239644   4.140   5.040   3.217  0.7455 -0.4537 -0.3946
 6029TIP3   OH239645   3.973   5.308   8.218  0.0268 -0.0593 -0.2658
 6029TIP3    H139646   4.057   5.270   8.244  0.5825  0.9894 -0.4802
 6029TIP3    H239647   3.974   5.396   8.256 -0.9338  0.0108 -0.3733
 6030TIP3   OH239648   2.819   5.925   0.500  0.1116  0.1930 -0.0420
 6030TIP3    H139649   2.773   5.998   0.543 -0.6353  0.5233 -1.3328
 6030TIP3    H239650   2.756   5.853   0.501 -0.4903  0.6336 -1.7844
 6031TIP3   OH239651   2.116   0.114   0.789  0.0064  0.5391  0.1131
 6031TIP3    H139652   2.047   0.048   0.793  1.6429 -1.2134  1.1770
 6031TIP3    H239653   2.127   0.131   0.696 -0.6263 -0.5392 -0.1800
 6032TIP3   OH239654   5.927   4.678   1.775  0.0466  0.4208 -0.2966
 6032TIP3    H139655   5.874   4.684   1.696 -0.9778  0.8569  0.4025
 6032TIP3    H239656   5.921   4.764   1.815 -1.6472 -0.4909  1.6110
 6033TIP3   OH239657   2.143   0.458   1.167  0.2080  0.0062 -0.7694
 6033TIP3    H139658   2.080   0.483   1.100  1.7307  2.6239 -1.3570
 6033TIP3    H239659   2.146   0.533   1.226  0.9622 -1.1048  0.6768
 6034TIP3   OH239660   4.723   2.042   3.369 -0.2624 -0.1852  0.1317
 6034TIP3    H139661   4.703   1.962   3.320 -0.7727  0.7395 -1.2327
 6034TIP3    H239662   4.724   2.015   3.461 -1.8853 -1.4719 -0.1947
 6035TIP3   OH239663   4.919   4.378   4.106  0.0899 -0.4628 -0.0876
 6035TIP3    H139664   4.947   4.381   4.198  1.5200  1.0941 -0.5396
 6035TIP3    H239665   4.824   4.372   4.111  0.0496  0.8572  1.5104
 6036TIP3   OH239666   4.627   5.262   8.461  0.0561  1.0618  0.0485
 6036TIP3    H139667   4.720   5.259   8.481 -0.0515 -2.3259  0.5556
 6036TIP3    H239668   4.613   5.190   8.399 -2.3709  0.8508  0.7248
 6037TIP3   OH239669   3.737   6.357   3.931 -0.1215  0.2518  0.4435
 6037TIP3    H139670   3.644   6.336   3.931 -0.3922  1.3362 -0.4133
 6037TIP3    H239671   3.744   6.436   3.985 -0.0376  1.3906 -1.1645
 6038TIP3   OH239672   4.076   2.969   0.357  0.1158 -0.4126  0.5916
 6038TIP3    H139673   4.073   3.018   0.274  0.0550 -1.3542  0.0245
 6038TIP3    H239674   4.137   3.018   0.411  1.1369 -0.4656 -0.4611
 6039TIP3   OH239675   0.347   5.381   1.447  0.2099 -0.3591 -0.4795
 6039TIP3    H139676   0.354   5.361   1.540  0.5252  0.6126 -0.2745
 6039TIP3    H239677   0.310   5.302   1.407 -1.5532 -0.1898  0.7212
 6040TIP3   OH239678   3.438   3.692   0.116  0.2239 -0.2635  0.1783
 6040TIP3    H139679   3.392   3.747   0.054  0.0813  0.2325  0.7204
 6040TIP3    H239680   3.422   3.602   0.085 -2.7485 -0.2707  1.4048
 6041TIP3   OH239681   1.923   5.034   0.171 -0.0378 -0.4147  0.2609
 6041TIP3    H139682   1.907   4.947   0.208 -2.1408  0.5025  1.6685
 6041TIP3    H239683   1.918   5.093   0.246 -2.8836  1.3540 -1.1741
 6042TIP3   OH239684   4.663   6.943   0.756 -0.0445 -0.1394 -0.1784
 6042TIP3    H139685   4.744   6.918   0.802 -0.9483 -2.9747  0.1095
 6042TIP3    H239686   4.677   6.914   0.666 -0.5545 -0.2718 -0.2184
 6043TIP3   OH239687   4.475   3.897   2.417  0.6530 -0.0892 -0.5106
 6043TIP3    H139688   4.419   3.908   2.494  1.1681 -0.1391 -0.1176
 6043TIP3    H239689   4.464   3.805   2.393 -0.8890  0.3439 -1.6063
 6044TIP3   OH239690   6.073   1.361   2.950 -1.1191  0.0493  0.2834
 6044TIP3    H139691   6.047   1.441   2.996 -0.4092  0.8048 -0.5845
 6044TIP3    H239692   6.008   1.352   2.880 -0.0879  0.9977 -0.8418
 6045TIP3   OH239693   3.507   1.074   3.369  0.0030 -0.0327 -0.1543
 6045TIP3    H139694   3.433   1.065   3.430 -0.3538 -1.7207 -0.7903
 6045TIP3    H239695   3.478   1.139   3.306 -0.4350  0.2360  0.3143
 6046TIP3   OH239696   0.476   6.092   3.377  0.0006 -0.3440  0.1897
 6046TIP3    H139697   0.555   6.144   3.390 -1.0274  1.8724 -1.7012
 6046TIP3    H239698   0.437   6.085   3.464  0.2981  1.9760  0.5612
 6047TIP3   OH239699   2.529   0.506   8.420  0.4705  0.8607 -0.1376
 6047TIP3    H139700   2.532   0.468   8.508  1.6605 -0.2444 -0.6212
 6047TIP3    H239701   2.510   0.433   8.363  1.7708  1.1574 -0.9985
 6048TIP3   OH239702   1.062   4.181   0.857  0.5547 -0.2559 -0.0561
 6048TIP3    H139703   0.977   4.140   0.843  0.9435 -1.3334  0.6016
 6048TIP3    H239704   1.052   4.230   0.939  0.6919 -0.7952  0.2943
 6049TIP3   OH239705   5.175   6.425   2.193  0.0098  0.1735 -0.3500
 6049TIP3    H139706   5.106   6.407   2.256  0.7678 -0.1044  0.4135
 6049TIP3    H239707   5.181   6.521   2.190  1.2977  0.2233  1.5353
 6050TIP3   OH239708   4.611   4.377   4.044  0.0689  0.1623  0.1320
 6050TIP3    H139709   4.614   4.471   4.061  2.0560  0.5296 -1.7504
 6050TIP3    H239710   4.573   4.370   3.956 -0.1216 -0.7914  0.2847
 6051TIP3   OH239711   0.659   3.165   1.577  0.3429 -0.6797 -0.1749
 6051TIP3    H139712   0.639   3.180   1.669  0.8652 -1.8823  0.1479
 6051TIP3    H239713   0.726   3.231   1.556  0.8069 -0.9145  0.5246
 6052TIP3   OH239714   0.435   6.076   3.101 -0.4928 -0.0243  0.0121
 6052TIP3    H139715   0.444   6.097   3.194 -0.1460  0.5738 -0.1512
 6052TIP3    H239716   0.383   6.148   3.065  0.9961  0.7753 -0.6184
 6053TIP3   OH239717   0.260   2.431   2.119 -0.1585  0.2052  0.4703
 6053TIP3    H139718   0.315   2.476   2.056 -1.8345  1.2463 -0.3305
 6053TIP3    H239719   0.228   2.500   2.178 -2.0042 -0.0147 -0.1923
 6054TIP3   OH239720   5.996   3.829   0.688 -0.1057  0.0972 -0.0575
 6054TIP3    H139721   6.042   3.874   0.759  0.8954 -1.2692  0.1987
 6054TIP3    H239722   6.054   3.758   0.662 -1.4369 -0.8035 -0.7353
 6055TIP3   OH239723   5.619   3.348   1.027 -0.2095 -0.3453  0.1945
 6055TIP3    H139724   5.671   3.270   1.010  1.6939  1.2210 -1.8472
 6055TIP3    H239725   5.682   3.413   1.058 -1.2985  1.0244 -0.3336
 6056TIP3   OH239726   5.661   5.498   3.003 -0.2628  0.0375  0.1873
 6056TIP3    H139727   5.644   5.553   3.080 -0.2733  0.8215 -0.3612
 6056TIP3    H239728   5.745   5.529   2.970 -1.6115  1.8069 -1.8442
 6057TIP3   OH239729   6.103   6.840   1.819 -0.2157  0.1206 -0.2110
 6057TIP3    H139730   6.161   6.902   1.775  0.0133  1.4175  1.7481
 6057TIP3    H239731   6.028   6.894   1.847 -0.1822 -0.5373  1.2292
 6058TIP3   OH239732   6.410   4.882   0.669 -0.1357  0.2477  0.7579
 6058TIP3    H139733   6.323   4.918   0.685 -1.3156 -2.3781  0.8998
 6058TIP3    H239734   6.440   4.854   0.756 -0.1072 -0.7740  0.4303
 6059TIP3   OH239735   1.510   3.292   2.456  0.2035 -0.4835 -0.4977
 6059TIP3    H139736   1.581   3.301   2.519 -0.4076 -0.6710  0.2276
 6059TIP3    H239737   1.443   3.353   2.486 -0.5137 -1.3100 -0.3612
 6060TIP3   OH239738   3.341   1.300   3.740 -0.7698  0.4930 -0.0910
 6060TIP3    H139739   3.312   1.324   3.828  1.0271  0.0654  0.6632
 6060TIP3    H239740   3.423   1.348   3.729  0.1370 -1.1261 -0.6558
 6061TIP3   OH239741   2.527   5.079   3.222 -0.2446  0.3007 -0.4790
 6061TIP3    H139742   2.445   5.061   3.176  0.5878  0.3476 -2.0688
 6061TIP3    H239743   2.563   5.156   3.177  1.3774 -0.6164 -0.8227
 6062TIP3   OH239744   4.375   1.756   3.227 -0.0510  0.0975  0.2914
 6062TIP3    H139745   4.374   1.669   3.186  1.3150 -0.0908  0.6050
 6062TIP3    H239746   4.282   1.778   3.239 -0.4583 -0.4654 -1.5459
 6063TIP3   OH239747   6.824   4.695   1.205 -0.3517  0.1218  0.0483
 6063TIP3    H139748   6.783   4.609   1.195 -1.1217  0.4557  0.2787
 6063TIP3    H239749   6.918   4.677   1.200 -0.4421 -0.9305  1.5283
 6064TIP3   OH239750   4.535   1.620   2.475 -0.0665  0.0200  0.1538
 6064TIP3    H139751   4.477   1.586   2.407 -0.2489 -0.5762  0.6004
 6064TIP3    H239752   4.540   1.550   2.540  1.5491 -0.1442 -0.1049
 6065TIP3   OH239753   4.619   3.123   3.859 -0.5021 -0.3394  0.2775
 6065TIP3    H139754   4.656   3.069   3.929 -1.2946 -2.5058 -0.8592
 6065TIP3    H239755   4.676   3.199   3.854  0.8652 -1.2018  1.7951
 6066TIP3   OH239756   3.867   5.220   4.039 -0.3238  0.4668  0.0220
 6066TIP3    H139757   3.825   5.172   3.967 -0.5355 -1.6711  1.4507
 6066TIP3    H239758   3.950   5.251   4.003 -0.7690  0.1319 -1.3464
 6067TIP3   OH239759   3.298   1.915   3.445  0.3510  0.1481 -0.2371
 6067TIP3    H139760   3.271   1.996   3.489  0.7503  0.3278 -0.3264
 6067TIP3    H239761   3.341   1.944   3.365 -0.9688 -0.1885 -1.1129
 6068TIP3   OH239762   3.107   0.404   8.244  0.7738  0.2078  0.0553
 6068TIP3    H139763   3.083   0.477   8.187 -0.0001 -0.7778 -0.9272
 6068TIP3    H239764   3.078   0.326   8.197  0.4090 -0.6685  1.6510
 6069TIP3   OH239765   5.038   4.227   1.766  0.3305  0.1836 -0.1354
 6069TIP3    H139766   5.084   4.213   1.684 -0.7222  0.7622 -0.8534
 6069TIP3    H239767   4.968   4.161   1.766  1.2519 -0.8289  1.0368
 6070TIP3   OH239768   1.589   6.702   2.553 -0.2875  0.1928  0.4088
 6070TIP3    H139769   1.639   6.649   2.491 -2.7061  0.2914 -1.8120
 6070TIP3    H239770   1.499   6.697   2.522 -2.3643 -2.0692  5.5439
 6071TIP3   OH239771   5.604   3.861   1.814 -0.2513  0.0034  0.1056
 6071TIP3    H139772   5.679   3.859   1.754 -0.9591  0.6215 -0.8348
 6071TIP3    H239773   5.635   3.913   1.888 -0.1108  1.2944 -0.8160
 6072TIP3   OH239774   4.444   5.114   0.465 -0.3039  0.1874  0.1521
 6072TIP3    H139775   4.520   5.160   0.431  0.9792 -0.9976  1.3047
 6072TIP3    H239776   4.443   5.135   0.559 -0.0488 -1.5653  0.5846
 6073TIP3   OH239777   0.124   2.776   4.329 -0.1079 -0.2013 -0.8512
 6073TIP3    H139778   0.210   2.745   4.300  0.6490  1.0396  0.0090
 6073TIP3    H239779   0.113   2.738   4.416  0.9335  2.0073  0.3170
 6074TIP3   OH239780   0.157   4.851   1.059 -0.3374  0.3683  0.1010
 6074TIP3    H139781   0.166   4.827   0.967 -0.4177  1.8088 -0.3056
 6074TIP3    H239782   0.111   4.935   1.058  0.2019  0.7079  1.4158
 6075TIP3   OH239783   2.866   6.707   3.078 -0.2754  0.0829 -0.8037
 6075TIP3    H139784   2.825   6.623   3.098 -0.9949  0.5445 -0.2992
 6075TIP3    H239785   2.959   6.687   3.069 -0.1873 -0.4830  1.0722
 6076TIP3   OH239786   1.556   5.549   0.934 -0.4409 -0.0811  0.0096
 6076TIP3    H139787   1.473   5.502   0.931 -0.6667  0.1071  1.7634
 6076TIP3    H239788   1.534   5.638   0.905 -0.5325 -0.4000 -0.9225
 6077TIP3   OH239789   3.749   1.889   3.872 -0.3311 -0.0768 -0.7338
 6077TIP3    H139790   3.758   1.984   3.859 -0.0491 -0.0118 -0.1130
 6077TIP3    H239791   3.757   1.877   3.967  0.2867 -0.7935 -0.8689
 6078TIP3   OH239792   6.315   0.752   3.280  0.6718 -0.2435  0.3741
 6078TIP3    H139793   6.323   0.774   3.187  0.6978  1.1161  0.6688
 6078TIP3    H239794   6.389   0.694   3.297  0.8008 -0.3188 -0.4072
 6079TIP3   OH239795   2.801   5.906   1.570 -0.2666  0.0900  0.4756
 6079TIP3    H139796   2.720   5.864   1.543 -1.2015  1.2417  1.3948
 6079TIP3    H239797   2.827   5.960   1.495 -0.3358 -0.2854  0.1803
 6080TIP3   OH239798   2.377   3.691   3.598  0.6208  0.1423  0.0419
 6080TIP3    H139799   2.378   3.596   3.602  0.4817  0.1746  1.0613
 6080TIP3    H239800   2.448   3.719   3.655 -0.7336  0.6672  1.5534
 6081TIP3   OH239801   6.568   4.620   1.431  0.1239  0.0407  0.3158
 6081TIP3    H139802   6.506   4.574   1.489  0.4664 -1.3165 -0.3503
 6081TIP3    H239803   6.592   4.554   1.366 -0.6839  1.6758 -1.7453
 6082TIP3   OH239804   1.392   5.091   3.663  0.1736  0.3402 -0.3810
 6082TIP3    H139805   1.356   5.004   3.678  2.3520 -0.6690 -0.6082
 6082TIP3    H239806   1.403   5.127   3.751  4.0357 -1.7808  0.2472
 6083TIP3   OH239807   1.039   1.154   4.020  0.0017 -0.2057 -0.1339
 6083TIP3    H139808   1.071   1.227   4.073  1.4480 -0.7749 -0.1681
 6083TIP3    H239809   0.951   1.181   3.992 -1.3349 -0.3828  3.4455
 6084TIP3   OH239810   4.188   3.623   2.989 -0.0593 -0.2334  0.3027
 6084TIP3    H139811   4.153   3.599   2.902 -0.7602  0.3987  0.3948
 6084TIP3    H239812   4.274   3.660   2.970 -1.1292  2.1508 -0.4479
 6085TIP3   OH239813   1.637   4.656   1.493 -0.1851 -0.3633 -0.1856
 6085TIP3    H139814   1.704   4.691   1.551 -0.1764 -0.2316 -0.2761
 6085TIP3    H239815   1.637   4.715   1.418 -0.2096 -0.5223 -0.3104
 6086TIP3   OH239816   5.049   1.374   0.889  0.2836  0.1880 -0.8485
 6086TIP3    H139817   4.976   1.313   0.880  0.4642  0.0112 -1.0961
 6086TIP3    H239818   5.033   1.417   0.973  1.4114 -1.8742  0.5191
 6087TIP3   OH239819   3.436   6.587   1.332  0.1868  0.3280  0.3981
 6087TIP3    H139820   3.523   6.618   1.357  0.4419 -0.9784  1.2295
 6087TIP3    H239821   3.415   6.519   1.397 -1.7687  1.1089  0.6687
 6088TIP3   OH239822   2.449   6.453   1.002  0.3238 -0.3273 -0.0746
 6088TIP3    H139823   2.487   6.431   0.917 -1.5556 -2.3523 -0.4876
 6088TIP3    H239824   2.407   6.372   1.031 -1.9901  1.2071  1.1840
 6089TIP3   OH239825   2.490   4.918   3.411 -0.2858 -0.1288  0.3896
 6089TIP3    H139826   2.450   4.839   3.374  1.4166 -1.1038  0.5292
 6089TIP3    H239827   2.506   4.974   3.335 -1.1290 -0.0758  0.2421
 6090TIP3   OH239828   5.232   2.652   1.307  0.1142  0.5715  0.4048
 6090TIP3    H139829   5.227   2.648   1.212  0.4875  0.1219  0.3949
 6090TIP3    H239830   5.273   2.569   1.332 -1.2884  0.0401  1.0633
 6091TIP3   OH239831   0.868   3.935   2.797 -0.6210 -0.2740 -0.4836
 6091TIP3    H139832   0.916   3.929   2.879  1.0397  0.3689 -1.3531
 6091TIP3    H239833   0.814   3.857   2.795  0.0607 -0.8088  0.7588
 6092TIP3   OH239834   0.776   6.512   1.542  0.1477  0.5015 -0.4296
 6092TIP3    H139835   0.784   6.417   1.555  0.1708  0.6485  0.7467
 6092TIP3    H239836   0.866   6.541   1.528 -0.0804 -0.0382 -4.2276
 6093TIP3   OH239837   3.768   1.736   1.538  0.8073 -0.4326 -0.3424
 6093TIP3    H139838   3.809   1.655   1.505  3.3206  0.4408  0.3944
 6093TIP3    H239839   3.715   1.767   1.465  0.8545 -2.0420 -1.1140
 6094TIP3   OH239840   4.755   1.150   2.668 -0.5509 -0.5637  0.1171
 6094TIP3    H139841   4.782   1.076   2.614 -2.0547 -1.5243  0.5977
 6094TIP3    H239842   4.834   1.177   2.715  0.8708  0.4440 -2.6294
 6095TIP3   OH239843   0.976   3.053   2.780 -0.4455  0.1786 -0.3447
 6095TIP3    H139844   1.057   3.035   2.827 -2.0829 -1.2555  2.1819
 6095TIP3    H239845   0.961   2.975   2.727 -0.5955  0.0543 -0.1229
 6096TIP3   OH239846   0.862   2.749   4.541 -0.2851  0.5626  0.0958
 6096TIP3    H139847   0.932   2.690   4.514 -0.2035  0.2771  0.9023
 6096TIP3    H239848   0.881   2.831   4.496  0.9166  0.6769  0.7736
 6097TIP3   OH239849   5.190   0.953   8.431  0.1970 -0.1992  0.3565
 6097TIP3    H139850   5.238   0.888   8.379 -2.8653 -1.4897 -1.0633
 6097TIP3    H239851   5.179   1.028   8.372  1.5112  0.6639  1.1411
 6098TIP3   OH239852   1.731   2.213   2.459  0.6561 -0.0078  0.4473
 6098TIP3    H139853   1.662   2.272   2.490 -0.6156 -1.5410  0.6598
 6098TIP3    H239854   1.735   2.229   2.364 -2.4762 -2.2301 -0.2167
 6099TIP3   OH239855   5.947   3.612   2.554  0.0109 -0.3550  0.4182
 6099TIP3    H139856   5.873   3.673   2.549 -0.8996 -1.3807  0.9500
 6099TIP3    H239857   5.926   3.543   2.491  0.9057 -0.2557  0.0064
 6100TIP3   OH239858   0.839   5.816   1.564  0.0550 -0.4895  0.2360
 6100TIP3    H139859   0.880   5.759   1.499  1.8036  0.6740  0.2518
 6100TIP3    H239860   0.819   5.758   1.638 -2.1580 -1.8747 -1.3294
 6101TIP3   OH239861   6.113   2.211   2.699 -0.3875 -0.0858  0.3508
 6101TIP3    H139862   6.132   2.300   2.671  0.1718 -0.9190 -2.1494
 6101TIP3    H239863   6.059   2.221   2.777  1.3038  2.4120  1.3105
 6102TIP3   OH239864   5.616   5.511   0.950  0.0105 -0.3723 -0.1167
 6102TIP3    H139865   5.648   5.438   0.897  0.2246  0.8448 -1.7214
 6102TIP3    H239866   5.566   5.565   0.889  1.4419  1.8182  0.5405
 6103TIP3   OH239867   6.633   0.299   2.689 -0.1528 -0.4287  0.1907
 6103TIP3    H139868   6.684   0.225   2.657 -0.7072  0.1565 -2.2074
 6103TIP3    H239869   6.583   0.328   2.614 -0.5341  1.9155  1.2657
 6104TIP3   OH239870   2.351   2.983   2.815  0.2347  0.0772 -0.5779
 6104TIP3    H139871   2.327   2.891   2.815  0.3626  0.0047  1.2802
 6104TIP3    H239872   2.276   3.028   2.775 -1.7433 -0.4494  2.2739
 6105TIP3   OH239873   5.137   1.744   2.105 -0.0096 -0.1272 -0.2707
 6105TIP3    H139874   5.209   1.711   2.051 -0.4506 -0.2303 -0.8070
 6105TIP3    H239875   5.169   1.738   2.195  0.7617  0.0976 -0.5212
 6106TIP3   OH239876   0.816   4.038   0.863 -0.3990  0.0817  0.7155
 6106TIP3    H139877   0.748   4.015   0.926  0.3106 -0.5008  1.2838
 6106TIP3    H239878   0.850   3.954   0.832  0.0779  0.3601  0.4627
 6107TIP3   OH239879   5.925   1.479   0.670  0.0954  0.1734  0.3203
 6107TIP3    H139880   5.868   1.434   0.733  1.2463  0.2088  1.4217
 6107TIP3    H239881   5.868   1.496   0.595 -1.2229 -0.1941  1.1949
 6108TIP3   OH239882   1.062   2.592   3.061 -0.0523  0.1245  0.2988
 6108TIP3    H139883   1.043   2.536   3.136 -0.0918 -1.1678 -0.6521
 6108TIP3    H239884   1.003   2.562   2.992  0.2139  1.0708 -0.3655
 6109TIP3   OH239885   3.841   5.079   2.194  0.4222 -0.4619  0.5110
 6109TIP3    H139886   3.779   5.127   2.138 -0.5792 -2.9157 -0.5998
 6109TIP3    H239887   3.918   5.136   2.198 -0.7957  1.3726 -0.4622
 6110TIP3   OH239888   1.137   2.283   2.172  0.1698  0.1815 -0.9482
 6110TIP3    H139889   1.201   2.305   2.240 -0.2538 -0.1176 -0.4403
 6110TIP3    H239890   1.147   2.352   2.106 -0.4951  1.3777  0.1566
 6111TIP3   OH239891   0.874   1.963   0.954  0.2019  0.1509 -0.4197
 6111TIP3    H139892   0.797   1.972   0.898  0.4867 -1.3270 -1.0890
 6111TIP3    H239893   0.839   1.933   1.038 -0.0676  0.8593 -0.2665
 6112TIP3   OH239894   2.625   4.657   1.376  0.3198 -0.2411 -0.4804
 6112TIP3    H139895   2.575   4.739   1.379  2.0089  0.9317 -2.2896
 6112TIP3    H239896   2.629   4.628   1.467  0.2354  2.0483  0.3119
 6113TIP3   OH239897   1.349   1.283   4.250  0.1236 -0.1372 -0.0113
 6113TIP3    H139898   1.363   1.218   4.319  2.8256  1.2269  0.8610
 6113TIP3    H239899   1.257   1.309   4.259 -0.3304 -1.9630  1.2388
 6114TIP3   OH239900   6.094   1.431   1.594  0.4173  0.1711 -0.0166
 6114TIP3    H139901   6.187   1.438   1.615  0.7217 -0.0117 -1.2486
 6114TIP3    H239902   6.092   1.401   1.503 -0.8455 -0.5286  0.2188
 6115TIP3   OH239903   6.359   0.631   1.548 -0.1344  0.0334  0.0831
 6115TIP3    H139904   6.368   0.704   1.487  0.9869  1.7638  2.1734
 6115TIP3    H239905   6.447   0.620   1.585 -0.9522 -0.2042  2.1173
 6116TIP3   OH239906   4.652   6.347   0.661 -0.2626  0.8373 -0.8729
 6116TIP3    H139907   4.692   6.392   0.736 -0.7326 -3.7123  2.5023
 6116TIP3    H239908   4.563   6.380   0.659  0.1870  2.1506 -0.4696
 6117TIP3   OH239909   3.643   2.392   2.380  0.1187 -0.0645 -0.4851
 6117TIP3    H139910   3.698   2.316   2.361 -0.7686 -1.0576  0.7164
 6117TIP3    H239911   3.570   2.357   2.432 -1.8926  1.1039 -2.3347
 6118TIP3   OH239912   5.321   1.569   4.434 -0.2229  0.1939 -0.0816
 6118TIP3    H139913   5.399   1.555   4.488 -0.4636 -2.9041 -0.3626
 6118TIP3    H239914   5.253   1.516   4.477 -1.5342  0.9697 -1.1388
 6119TIP3   OH239915   6.835   5.800   1.547  0.1972  0.3976 -0.3782
 6119TIP3    H139916   6.814   5.855   1.472  1.4987  0.9680 -0.3471
 6119TIP3    H239917   6.851   5.862   1.618 -1.7075 -0.1528  0.5940
 6120TIP3   OH239918   3.909   0.191   1.275 -0.0240 -0.2735 -0.2836
 6120TIP3    H139919   3.979   0.127   1.292 -1.6739 -1.9053  0.7176
 6120TIP3    H239920   3.828   0.140   1.283 -1.3864  1.8157 -0.1921
 6121TIP3   OH239921   4.349   2.835   0.846 -0.2323 -0.1240  0.1527
 6121TIP3    H139922   4.322   2.891   0.774 -0.8536 -1.6192 -0.8271
 6121TIP3    H239923   4.267   2.801   0.881  0.1051  0.0610  1.1489
 6122TIP3   OH239924   1.698   5.066   2.464  0.0884 -0.0280  0.3946
 6122TIP3    H139925   1.735   4.978   2.460 -1.1097 -0.5076 -1.3954
 6122TIP3    H239926   1.739   5.113   2.391  2.2804  1.6300  2.5402
 6123TIP3   OH239927   4.370   5.616   1.200 -0.6188  0.1946 -0.1010
 6123TIP3    H139928   4.343   5.700   1.238 -2.9973  0.2846 -1.7827
 6123TIP3    H239929   4.359   5.628   1.106  0.6908 -1.4691 -0.5120
 6124TIP3   OH239930   1.517   3.525   0.843 -0.0606  0.7853  0.0913
 6124TIP3    H139931   1.610   3.503   0.848 -0.2456 -0.0588 -0.0747
 6124TIP3    H239932   1.476   3.477   0.915 -0.1308  2.5451  1.2859
 6125TIP3   OH239933   0.258   6.503   1.758  0.2308 -0.3259 -0.5293
 6125TIP3    H139934   0.177   6.475   1.716 -1.8830  2.8584  1.0062
 6125TIP3    H239935   0.231   6.531   1.845  2.9757  0.9517  0.0136
 6126TIP3   OH239936   6.941   1.120   0.672  0.2153 -0.2235 -0.3695
 6126TIP3    H139937   7.020   1.174   0.658  0.2819 -0.0943  0.4459
 6126TIP3    H239938   6.880   1.150   0.605  1.0420 -0.7091 -1.3820
 6127TIP3   OH239939   1.221   0.732   0.975  0.2827  0.1777  0.1662
 6127TIP3    H139940   1.266   0.689   0.903  1.5645  0.8339  0.5451
 6127TIP3    H239941   1.194   0.817   0.939 -0.8127 -0.2764 -0.1059
 6128TIP3   OH239942   6.771   1.447   3.811 -0.4298  0.2721  0.1565
 6128TIP3    H139943   6.758   1.371   3.868 -1.4337  0.7068  0.5189
 6128TIP3    H239944   6.765   1.523   3.869 -1.2760  0.7140 -0.4877
 6129TIP3   OH239945   4.352   4.011   1.819  0.0291  0.4791 -0.2773
 6129TIP3    H139946   4.297   3.977   1.890  1.7665  0.5256  1.1574
 6129TIP3    H239947   4.435   4.032   1.861  0.3408  2.8112 -1.8888
 6130TIP3   OH239948   6.230   6.231   3.802 -0.5111  0.2774 -0.6579
 6130TIP3    H139949   6.137   6.245   3.820 -1.1048 -4.0233  0.8894
 6130TIP3    H239950   6.231   6.183   3.719  0.1590 -0.7363 -0.0874
 6131TIP3   OH239951   3.369   3.036   0.520 -0.4811 -0.1523  0.6269
 6131TIP3    H139952   3.386   3.043   0.426  0.3334 -1.5500  0.6399
 6131TIP3    H239953   3.310   3.109   0.539 -0.0463  0.6146 -0.8117
 6132TIP3   OH239954   5.293   4.914   2.968  0.2993  0.2832  0.7094
 6132TIP3    H139955   5.338   4.830   2.958 -0.8716 -0.3403  0.4803
 6132TIP3    H239956   5.348   4.976   2.921  0.6310 -0.5601 -0.0559
 6133TIP3   OH239957   2.389   3.364   1.787  0.0891  0.0869 -0.4292
 6133TIP3    H139958   2.312   3.318   1.822  0.3990  0.3364  0.5965
 6133TIP3    H239959   2.353   3.424   1.722 -0.5808  0.1547 -0.0052
 6134TIP3   OH239960   0.168   3.276   2.289  0.4563 -0.2850 -0.4065
 6134TIP3    H139961   0.196   3.336   2.358  0.1791 -0.7513  0.1162
 6134TIP3    H239962   0.129   3.202   2.336 -1.9732  0.4671 -1.0892
 6135TIP3   OH239963   5.920   3.044   1.776  0.9869 -0.4180 -0.5067
 6135TIP3    H139964   5.917   3.005   1.863  0.1815  1.5769  0.4154
 6135TIP3    H239965   5.992   3.107   1.780 -0.7747  1.7108 -0.3022
 6136TIP3   OH239966   1.604   2.071   2.115 -0.1011  0.1626  0.1010
 6136TIP3    H139967   1.545   2.075   2.190 -1.6183 -0.7260 -0.9767
 6136TIP3    H239968   1.668   2.141   2.131 -0.9341  0.6110  1.7333
 6137TIP3   OH239969   4.374   3.535   1.240 -0.1697  0.6101  0.6299
 6137TIP3    H139970   4.407   3.558   1.327 -0.1208 -1.0889  1.0900
 6137TIP3    H239971   4.352   3.442   1.246  0.1888  0.3597 -1.2886
 6138TIP3   OH239972   5.353   0.277   0.941 -0.7022 -0.0777  0.5797
 6138TIP3    H139973   5.432   0.293   0.992  0.0115  0.0914 -0.5412
 6138TIP3    H239974   5.291   0.344   0.969 -0.7237 -0.6726  2.0041
 6139TIP3   OH239975   6.645   3.650   1.421  0.5086  0.4777  0.0839
 6139TIP3    H139976   6.634   3.564   1.382  0.1867  0.5817 -0.0593
 6139TIP3    H239977   6.715   3.691   1.369  0.4725  0.4064 -0.0214
 6140TIP3   OH239978   0.246   1.676   0.555 -0.0187 -0.1562  0.2903
 6140TIP3    H139979   0.222   1.730   0.480 -2.8060  0.3208  1.3827
 6140TIP3    H239980   0.200   1.593   0.540  0.5591 -0.5781  0.7930
 6141TIP3   OH239981   5.249   0.697   0.507 -0.3175  0.3078 -0.4649
 6141TIP3    H139982   5.181   0.632   0.493 -1.2299  1.0702  0.2925
 6141TIP3    H239983   5.201   0.778   0.526  0.7682  0.5152  1.6982
 6142TIP3   OH239984   4.938   2.702   3.328 -0.1078 -0.9674  0.1220
 6142TIP3    H139985   4.893   2.779   3.293 -0.6132 -1.1029  0.4515
 6142TIP3    H239986   5.022   2.700   3.282  0.9912  1.2040  1.8438
 6143TIP3   OH239987   0.245   5.174   3.403 -0.2378  0.0490 -0.2071
 6143TIP3    H139988   0.284   5.148   3.486 -0.9588  0.0772  0.1512
 6143TIP3    H239989   0.161   5.215   3.428 -0.1788  0.6163 -0.9032
 6144TIP3   OH239990   0.285   4.953   3.266  0.0785  0.2209  0.1594
 6144TIP3    H139991   0.372   4.965   3.227 -0.8036  0.9718 -1.7353
 6144TIP3    H239992   0.272   5.031   3.320  0.5526  0.1610  0.3555
 6145TIP3   OH239993   1.978   6.821   4.311  0.0971 -0.3061  0.2400
 6145TIP3    H139994   1.971   6.796   4.219 -0.3430 -0.8029  0.4017
 6145TIP3    H239995   2.023   6.746   4.352 -0.0039 -0.2295  0.4895
 6146TIP3   OH239996   5.541   1.054   0.882 -0.2550 -0.8929  0.0195
 6146TIP3    H139997   5.554   1.078   0.790  2.9610  1.6737  0.9413
 6146TIP3    H239998   5.447   1.065   0.897 -0.3303  2.6547 -2.0663
 6147TIP3   OH239999   2.917   0.277   4.031 -0.0289  0.4413  0.3613
 6147TIP3    H140000   2.926   0.372   4.023 -1.7923  0.7045  0.9913
 6147TIP3    H240001   2.943   0.243   3.946 -1.7034  1.7150 -0.7177
 6148TIP3   OH240002   2.131   3.619   3.724  0.3990  0.0862 -0.2929
 6148TIP3    H140003   2.218   3.591   3.694  0.6730  2.2047 -1.7002
 6148TIP3    H240004   2.077   3.540   3.718  1.7308 -0.7916 -1.4572
 6149TIP3   OH240005   1.356   6.422   2.598 -0.2982  0.2310 -0.4718
 6149TIP3    H140006   1.291   6.371   2.646  1.5569 -0.8436  1.0584
 6149TIP3    H240007   1.406   6.356   2.549  1.3168  0.6533  0.5128
 6150TIP3   OH240008   1.812   4.892   1.531  0.1176  0.3668  0.0639
 6150TIP3    H140009   1.782   4.982   1.519  0.5545  0.2817 -2.2063
 6150TIP3    H240010   1.849   4.889   1.619 -1.6933  1.8609  0.9077
 6151TIP3   OH240011   4.496   1.525   0.460 -0.1301 -0.4250  0.5528
 6151TIP3    H140012   4.585   1.527   0.427 -0.2142 -1.3957  0.2450
 6151TIP3    H240013   4.485   1.609   0.506  0.4730  0.3001 -0.5913
 6152TIP3   OH240014   5.938   5.620   0.383 -0.3527 -0.4660 -0.4706
 6152TIP3    H140015   5.898   5.616   0.470 -0.5059 -0.3881 -0.5360
 6152TIP3    H240016   5.893   5.551   0.334 -0.2014 -0.5718 -0.4621
 6153TIP3   OH240017   6.118   1.592   3.143 -0.0614 -0.6914  0.0815
 6153TIP3    H140018   6.211   1.592   3.118 -0.7812  1.1490 -3.1718
 6153TIP3    H240019   6.109   1.669   3.200 -0.1605  1.7981 -2.9915
 6154TIP3   OH240020   4.915   5.800   1.865  0.5429 -0.1848  0.0788
 6154TIP3    H140021   4.841   5.757   1.908 -0.2855  1.1776  0.0836
 6154TIP3    H240022   4.976   5.819   1.935  1.1005 -1.6210  0.0309
 6155TIP3   OH240023   2.334   6.348   2.237 -0.0011  0.6989  0.2119
 6155TIP3    H140024   2.363   6.258   2.220 -0.3129  0.2511  1.8824
 6155TIP3    H240025   2.407   6.403   2.210  0.3122 -0.0755 -0.5431
 6156TIP3   OH240026   6.484   6.893   2.294  0.0936 -0.2320  0.1548
 6156TIP3    H140027   6.424   6.893   2.220  2.2777  0.2982 -1.7119
 6156TIP3    H240028   6.545   6.822   2.276  0.3508 -0.4537  1.7520
 6157TIP3   OH240029   0.684   1.625   0.743  0.0289 -0.2820  0.2969
 6157TIP3    H140030   0.749   1.599   0.808  2.3942  1.5894 -1.1320
 6157TIP3    H240031   0.735   1.638   0.663 -2.6571 -1.9691 -1.8826
 6158TIP3   OH240032   1.463   6.951   2.792 -0.2383 -0.1978 -0.4524
 6158TIP3    H140033   1.540   7.002   2.817  0.7999 -1.4029 -1.0613
 6158TIP3    H240034   1.401   6.963   2.864  1.3228 -0.8369  1.0686
 6159TIP3   OH240035   4.893   4.765   3.430  0.2619 -0.3665  0.4114
 6159TIP3    H140036   4.885   4.857   3.454  0.2382 -0.5403  1.1039
 6159TIP3    H240037   4.804   4.731   3.436  0.0402 -0.1526 -1.1207
 6160TIP3   OH240038   2.155   0.182   2.128 -0.0654 -0.1163 -0.2719
 6160TIP3    H140039   2.202   0.099   2.140 -1.0195 -0.4566  1.3392
 6160TIP3    H240040   2.213   0.248   2.166  0.7760  0.0388 -1.7129
 6161TIP3   OH240041   0.941   4.413   3.252  0.7183  0.2216 -0.0265
 6161TIP3    H140042   0.939   4.362   3.171  0.6487 -0.0379  0.1367
 6161TIP3    H240043   1.012   4.373   3.304 -0.0800 -0.4588  0.5813
 6162TIP3   OH240044   5.556   1.795   3.788 -0.3617  0.3582 -0.6228
 6162TIP3    H140045   5.462   1.810   3.779 -0.7332 -0.5481  1.1076
 6162TIP3    H240046   5.568   1.702   3.768  0.3669  0.7215 -1.9597
 6163TIP3   OH240047   1.067   0.831   3.031  0.5021  0.1868 -0.2926
 6163TIP3    H140048   1.031   0.752   2.992 -2.3605  1.5772 -0.7779
 6163TIP3    H240049   1.050   0.899   2.966  0.1482  1.6949  1.3027
 6164TIP3   OH240050   3.795   5.466   1.903 -0.3271  0.6380  0.5264
 6164TIP3    H140051   3.756   5.397   1.956 -0.9265  0.9177  0.4715
 6164TIP3    H240052   3.884   5.437   1.886 -0.9895 -0.8108 -0.6871
 6165TIP3   OH240053   4.171   0.099   2.558 -0.3112 -0.1347 -0.5190
 6165TIP3    H140054   4.218   0.096   2.641  0.3821  0.8979 -0.8570
 6165TIP3    H240055   4.239   0.089   2.491 -0.5327  1.3625 -1.0101
 6166TIP3   OH240056   1.712   3.163   0.794 -0.3875 -0.4996 -0.3895
 6166TIP3    H140057   1.683   3.210   0.716 -1.6483 -1.7162 -0.7022
 6166TIP3    H240058   1.648   3.188   0.862  0.6629  0.5020  0.2709
 6167TIP3   OH240059   0.290   3.358   3.020 -0.0598 -0.4067  0.2466
 6167TIP3    H140060   0.364   3.379   3.076 -0.8749 -0.4664  1.3884
 6167TIP3    H240061   0.272   3.439   2.972  1.1013 -0.5702 -0.4962
 6168TIP3   OH240062   0.933   6.338   8.290  0.0952  0.4076 -0.6069
 6168TIP3    H140063   0.963   6.419   8.331  0.2284 -0.0303  0.1847
 6168TIP3    H240064   0.946   6.271   8.357 -0.0121 -0.2703 -1.2472
 6169TIP3   OH240065   2.714   1.020   3.772  0.7809  0.4622  0.1227
 6169TIP3    H140066   2.683   0.961   3.840 -1.1008  0.4303 -0.6975
 6169TIP3    H240067   2.755   1.092   3.819  0.8913 -0.2971  1.2164
 6170TIP3   OH240068   2.114   4.595   7.940 -0.1051 -0.5429 -0.3512
 6170TIP3    H140069   2.145   4.601   8.030  0.8557 -1.6674 -0.5799
 6170TIP3    H240070   2.091   4.685   7.916 -0.9558 -0.3057  1.1923
 6171TIP3   OH240071   3.419   6.875   2.964 -0.1055 -0.4474 -0.0053
 6171TIP3    H140072   3.455   6.787   2.955 -0.3535 -0.7037  1.2714
 6171TIP3    H240073   3.344   6.865   3.022  0.9174  0.8399  1.6624
 6172TIP3   OH240074   1.477   3.510   2.201  0.1089 -0.3552 -0.6090
 6172TIP3    H140075   1.383   3.515   2.219 -0.0036 -1.0860 -0.9999
 6172TIP3    H240076   1.512   3.593   2.235  0.0855 -1.9311  4.0446
 6173TIP3   OH240077   3.279   4.927   3.091  0.0558  0.2452 -0.3231
 6173TIP3    H140078   3.277   4.906   3.185  1.1155 -0.0060 -0.3457
 6173TIP3    H240079   3.187   4.931   3.066 -0.2752  1.1660  0.9144
 6174TIP3   OH240080   1.595   2.038   0.094 -0.3000 -0.2607  0.2070
 6174TIP3    H140081   1.589   1.976   0.167 -1.4547 -1.5406 -0.9215
 6174TIP3    H240082   1.592   1.983   0.016  0.8120  1.0879 -0.8302
 6175TIP3   OH240083   1.858   6.294   1.236  0.0493 -0.3996 -0.3449
 6175TIP3    H140084   1.762   6.289   1.228 -0.1582  2.3797 -0.5585
 6175TIP3    H240085   1.872   6.325   1.326  0.5699  1.5485 -1.0517
 6176TIP3   OH240086   1.941   3.109   1.607  0.0199 -0.3760  0.6138
 6176TIP3    H140087   2.002   3.182   1.596 -0.3797  0.0082  0.8951
 6176TIP3    H240088   1.893   3.130   1.687  0.0766 -1.0776  0.8423
 6177TIP3   OH240089   4.530   6.348   3.342 -0.1665  0.3233  0.3536
 6177TIP3    H140090   4.592   6.292   3.295 -1.5266  0.8044 -2.1978
 6177TIP3    H240091   4.489   6.401   3.273 -1.5101  1.8930  2.2591
 6178TIP3   OH240092   4.670   5.547   8.276  0.9006  0.0046 -1.0875
 6178TIP3    H140093   4.587   5.518   8.313 -0.3053  1.1616 -2.7801
 6178TIP3    H240094   4.714   5.466   8.248  0.0662 -0.5673 -0.7597
 6179TIP3   OH240095   6.064   4.554   3.562 -0.5332 -0.6197  0.2861
 6179TIP3    H140096   6.064   4.471   3.514  1.6158 -0.6566  0.2591
 6179TIP3    H240097   6.134   4.544   3.627  0.4370  1.5097 -0.3472
 6180TIP3   OH240098   2.005   0.167   4.269 -0.1234 -0.3557 -0.3972
 6180TIP3    H140099   2.090   0.150   4.229  0.1224 -0.4864  0.1667
 6180TIP3    H240100   1.978   0.082   4.304  0.2728  0.0071  0.8485
 6181TIP3   OH240101   5.402   6.933   0.255 -0.5689 -0.0127 -0.1676
 6181TIP3    H140102   5.471   6.996   0.235 -0.9254  0.8058  1.0679
 6181TIP3    H240103   5.424   6.856   0.202  1.3267  0.2013  0.2270
 6182TIP3   OH240104   5.515   6.402   3.347 -0.5102 -0.2469  0.2034
 6182TIP3    H140105   5.537   6.321   3.394  2.2228 -0.0680 -0.6167
 6182TIP3    H240106   5.522   6.471   3.413 -0.4457 -0.4205  0.3797
 6183TIP3   OH240107   4.689   3.327   2.596  0.6431 -0.0482  0.5458
 6183TIP3    H140108   4.613   3.370   2.557  0.6756 -0.5220 -0.0569
 6183TIP3    H240109   4.668   3.319   2.689 -1.0303 -2.1749  0.0597
 6184TIP3   OH240110   0.429   0.953   2.852  0.0131  0.2049  0.3010
 6184TIP3    H140111   0.409   0.876   2.905 -0.5267  0.0765 -0.0860
 6184TIP3    H240112   0.344   0.993   2.834  0.3895  3.3464  4.1076
 6185TIP3   OH240113   6.725   0.464   0.542 -0.3059 -0.2613 -0.0865
 6185TIP3    H140114   6.761   0.390   0.592  2.6527  0.7801 -0.4916
 6185TIP3    H240115   6.765   0.457   0.456  0.2443  1.8828 -0.0756
 6186TIP3   OH240116   0.728   5.005   2.114  0.0613  0.2167 -0.2440
 6186TIP3    H140117   0.704   4.914   2.133  1.2751 -0.3474 -1.2250
 6186TIP3    H240118   0.742   5.044   2.200  0.4382 -0.8043  0.1850
 6187TIP3   OH240119   2.666   2.178   1.003  0.0170 -0.3298 -0.0430
 6187TIP3    H140120   2.709   2.264   1.007 -1.3173  0.4571 -1.6618
 6187TIP3    H240121   2.719   2.123   1.062  1.1524  1.4643  0.7185
 6188TIP3   OH240122   1.781   1.483   4.454  0.0353  0.4925 -0.9880
 6188TIP3    H140123   1.769   1.435   4.372 -0.5650  0.4270 -0.8626
 6188TIP3    H240124   1.741   1.568   4.438  0.9227  0.8922 -1.1423
 6189TIP3   OH240125   6.506   4.999   2.545 -0.2687  0.2619  0.2514
 6189TIP3    H140126   6.499   5.049   2.626  0.7126  2.1778 -0.7841
 6189TIP3    H240127   6.425   4.948   2.542 -1.6734  2.3075  1.0644
 6190TIP3   OH240128   0.288   5.555   8.265 -0.4199 -0.5088 -0.0364
 6190TIP3    H140129   0.232   5.610   8.320 -0.7971 -2.8451  2.0749
 6190TIP3    H240130   0.227   5.511   8.205 -0.3008  0.1004 -0.6217
 6191TIP3   OH240131   5.087   4.097   0.510  0.1998  0.1499  0.0139
 6191TIP3    H140132   5.132   4.144   0.440  1.5277  0.1804  0.8546
 6191TIP3    H240133   4.996   4.125   0.502  0.5627  1.1755 -0.8721
 6192TIP3   OH240134   2.831   1.932   1.684  0.8614  0.0968  0.2313
 6192TIP3    H140135   2.859   1.922   1.593  0.1404 -2.1132  0.1928
 6192TIP3    H240136   2.790   2.019   1.687 -0.5801 -0.4198 -1.9968
 6193TIP3   OH240137   5.222   2.286   2.563 -0.1605  0.4636  0.5931
 6193TIP3    H140138   5.137   2.254   2.534 -1.9673  2.6419  3.0761
 6193TIP3    H240139   5.258   2.214   2.615 -0.7166 -0.2709 -0.0159
 6194TIP3   OH240140   6.853   1.209   2.727  0.1831 -0.7856 -0.3202
 6194TIP3    H140141   6.805   1.134   2.692  0.7608 -1.6156  0.6191
 6194TIP3    H240142   6.839   1.205   2.822  1.5551 -0.6556 -0.0948
 6195TIP3   OH240143   1.903   0.632   4.496 -0.3584 -0.1029 -0.4219
 6195TIP3    H140144   1.948   0.564   4.446  2.0499  0.3146  1.0248
 6195TIP3    H240145   1.944   0.714   4.468 -0.6692  0.3684  0.4575
 6196TIP3   OH240146   4.572   1.354   0.905  0.0765  0.4114 -0.0623
 6196TIP3    H140147   4.633   1.428   0.899 -0.5110  0.8483 -0.7886
 6196TIP3    H240148   4.562   1.340   0.999 -0.0446  1.4754  0.1015
 6197TIP3   OH240149   6.818   3.007   3.256  0.2746  0.1607 -0.4131
 6197TIP3    H140150   6.901   3.029   3.213  0.8877  0.4403  0.8585
 6197TIP3    H240151   6.844   2.977   3.343 -0.9616  0.1927 -0.0227
 6198TIP3   OH240152   6.109   1.129   1.782 -0.0793 -0.5930 -0.5265
 6198TIP3    H140153   6.153   1.057   1.828 -0.7562 -1.4056 -1.1014
 6198TIP3    H240154   6.016   1.109   1.792 -0.3119  0.7347  0.1123
 6199TIP3   OH240155   3.930   3.955   2.570 -0.4507 -0.1999  0.1558
 6199TIP3    H140156   3.969   4.033   2.610  1.6922 -0.5889 -1.0368
 6199TIP3    H240157   3.880   3.988   2.496  1.8019 -0.0075 -1.3538
 6200TIP3   OH240158   4.778   2.887   3.645  0.8152  0.1957  0.2594
 6200TIP3    H140159   4.795   2.816   3.706 -0.0809 -1.5364 -1.3790
 6200TIP3    H240160   4.685   2.877   3.621  1.1338  0.7635 -1.3779
 6201TIP3   OH240161   1.827   5.714   2.311  0.2660 -0.2564  0.4093
 6201TIP3    H140162   1.772   5.693   2.236  0.2488  0.7311  0.1217
 6201TIP3    H240163   1.889   5.779   2.277  2.7943 -2.5728  0.2290
 6202TIP3   OH240164   6.787   5.946   1.313 -0.1748  0.4283  0.4383
 6202TIP3    H140165   6.751   6.006   1.248 -0.8571  1.2491  1.5396
 6202TIP3    H240166   6.825   5.875   1.261  1.0038  1.9758 -0.9187
 6203TIP3   OH240167   5.199   6.831   1.698  0.3424 -0.2967 -0.4257
 6203TIP3    H140168   5.240   6.779   1.628  1.9631  0.2610  0.0779
 6203TIP3    H240169   5.256   6.906   1.709 -0.3670  0.0777  0.9111
 6204TIP3   OH240170   2.860   4.477   3.786 -0.2637 -0.3653  0.5420
 6204TIP3    H140171   2.855   4.383   3.798  1.6541 -1.2673 -3.7013
 6204TIP3    H240172   2.779   4.500   3.741  0.0513 -0.3968 -0.0605
 6205TIP3   OH240173   4.432   6.625   1.092 -0.0850 -0.0231 -0.0379
 6205TIP3    H140174   4.474   6.656   1.172 -1.2179 -1.2072  1.0766
 6205TIP3    H240175   4.495   6.565   1.053  0.3607  0.3435  0.1138
 6206TIP3   OH240176   6.382   6.569   2.551 -0.5025 -0.0924 -0.3464
 6206TIP3    H140177   6.361   6.656   2.517  0.3575  0.7282  1.1047
 6206TIP3    H240178   6.434   6.586   2.630 -0.0493 -1.9351 -0.2007
 6207TIP3   OH240179   1.894   2.988   0.514  0.2721 -0.0149 -0.0338
 6207TIP3    H140180   1.916   3.079   0.496  1.0541 -0.0384  0.7332
 6207TIP3    H240181   1.924   2.940   0.437  0.7730  0.2498 -0.0039
 6208TIP3   OH240182   6.857   6.401   1.017 -0.0364  0.1240  0.2247
 6208TIP3    H140183   6.803   6.464   1.064 -1.4390  0.0912 -1.2375
 6208TIP3    H240184   6.858   6.433   0.927  1.1040 -0.7466 -0.0997
 6209TIP3   OH240185   1.943   2.592   2.201 -0.4336  0.1409 -0.2244
 6209TIP3    H140186   1.856   2.560   2.224 -1.2568  0.5734 -2.5200
 6209TIP3    H240187   1.976   2.528   2.138  0.3627  0.6904 -0.3815
 6210TIP3   OH240188   2.366   4.254   3.433  0.2047 -0.5833 -0.1744
 6210TIP3    H140189   2.380   4.223   3.344 -1.2130 -0.9960 -0.2778
 6210TIP3    H240190   2.304   4.191   3.471 -0.6615  0.6310  0.4866
 6211TIP3   OH240191   2.940   3.866   2.540  0.6912 -0.3361 -0.7995
 6211TIP3    H140192   2.941   3.833   2.450 -2.2415 -1.7155 -0.4511
 6211TIP3    H240193   2.955   3.789   2.594 -0.1151 -0.0196 -0.0883
 6212TIP3   OH240194   6.351   6.210   0.979 -0.1762 -0.1227 -0.1355
 6212TIP3    H140195   6.258   6.199   0.998 -0.2821 -1.7985 -1.3419
 6212TIP3    H240196   6.395   6.195   1.063 -0.9070 -1.4146  0.0512
 6213TIP3   OH240197   2.021   3.630   8.095  0.5404  0.2881  0.3109
 6213TIP3    H140198   2.016   3.594   8.184  0.1734 -1.4506 -0.3623
 6213TIP3    H240199   2.008   3.724   8.106 -0.3907  0.0044  2.0096
 6214TIP3   OH240200   4.171   1.770   3.817 -0.2305  0.7917  0.1152
 6214TIP3    H140201   4.248   1.713   3.805  0.3474  1.3432  1.0452
 6214TIP3    H240202   4.103   1.712   3.851  0.3193  0.6211  0.9528
 6215TIP3   OH240203   0.181   1.069   2.844 -0.1416  0.3305 -0.4961
 6215TIP3    H140204   0.167   0.980   2.876  0.2885 -0.6583 -2.8438
 6215TIP3    H240205   0.093   1.102   2.826 -0.2451 -0.0109 -0.6181
 6216TIP3   OH240206   0.954   5.966   3.072 -0.3642 -0.2751 -0.7656
 6216TIP3    H140207   1.035   5.970   3.123  0.1465 -0.1313 -1.5584
 6216TIP3    H240208   0.947   5.874   3.047 -1.2028 -0.5597  0.4673
 6217TIP3   OH240209   6.607   6.712   3.588  0.3316 -0.4983 -0.0284
 6217TIP3    H140210   6.566   6.649   3.649 -2.0259 -0.5812 -1.5713
 6217TIP3    H240211   6.640   6.781   3.645 -1.4025 -0.7820  1.4335
 6218TIP3   OH240212   6.126   5.016   0.660 -0.0449 -0.3497 -0.1488
 6218TIP3    H140213   6.113   5.087   0.596 -1.8877  1.1246  1.7447
 6218TIP3    H240214   6.038   4.992   0.688  0.7147 -0.4949  2.3174
 6219TIP3   OH240215   0.925   5.237   3.591  0.2355  0.1582 -0.3571
 6219TIP3    H140216   0.921   5.229   3.687 -2.4323  1.5403 -0.2550
 6219TIP3    H240217   1.018   5.232   3.571  0.8308 -1.0135  2.2181
 6220TIP3   OH240218   0.069   0.750   2.703 -0.2191  0.2067  0.0977
 6220TIP3    H140219   0.164   0.767   2.700  0.3490 -2.5218  0.0335
 6220TIP3    H240220   0.031   0.816   2.645  1.9466 -0.2245 -1.9546
 6221TIP3   OH240221   5.426   5.842   3.143  0.7368 -0.6872  0.3252
 6221TIP3    H140222   5.434   5.885   3.228  1.7076  0.5372 -0.3434
 6221TIP3    H240223   5.333   5.820   3.136  0.1472  1.4170  0.7028
 6222TIP3   OH240224   4.364   6.777   2.006  0.4379  0.3376 -0.2207
 6222TIP3    H140225   4.288   6.735   2.044 -0.6745  0.7169 -1.9026
 6222TIP3    H240226   4.394   6.839   2.073 -1.4314  1.0033  0.0637
 6223TIP3   OH240227   3.589   4.411   3.400 -0.8373  0.0324  0.4236
 6223TIP3    H140228   3.590   4.505   3.382 -0.5074 -0.1304 -0.4080
 6223TIP3    H240229   3.647   4.401   3.476  2.3822  0.0542 -1.8135
 6224TIP3   OH240230   0.648   4.860   2.973 -0.6372  0.2949  0.0775
 6224TIP3    H140231   0.723   4.830   3.025 -1.2940 -0.1183  0.7925
 6224TIP3    H240232   0.624   4.784   2.920 -1.0304  0.1940  0.4038
 6225TIP3   OH240233   3.792   0.478   1.725  0.1112  0.1174 -0.6354
 6225TIP3    H140234   3.849   0.402   1.710 -0.5636 -0.4583 -0.3519
 6225TIP3    H240235   3.749   0.493   1.640 -1.9899 -1.7111  0.0116
 6226TIP3   OH240236   3.244   3.824   8.440  0.2896  0.2183 -0.2432
 6226TIP3    H140237   3.161   3.776   8.446  1.3569 -1.5418  2.2056
 6226TIP3    H240238   3.226   3.907   8.483 -0.9136  1.1289 -2.3361
 6227TIP3   OH240239   1.521   4.169   2.233  0.1113  0.7970  0.5196
 6227TIP3    H140240   1.610   4.177   2.266  0.5642 -1.2911 -0.0670
 6227TIP3    H240241   1.486   4.091   2.277 -0.3670 -0.1657 -1.4260
 6228TIP3   OH240242   2.373   4.113   4.355  0.2248 -0.9059 -0.3532
 6228TIP3    H140243   2.289   4.151   4.382  0.2758 -1.1863  0.2171
 6228TIP3    H240244   2.434   4.186   4.355  0.2113 -0.8905  0.2465
 6229TIP3   OH240245   4.873   2.444   0.387  0.4467 -0.2894  0.5568
 6229TIP3    H140246   4.945   2.506   0.373 -1.0077  1.2934 -0.0965
 6229TIP3    H240247   4.822   2.447   0.306  0.9288 -3.2139  0.0457
 6230TIP3   OH240248   5.272   5.417   2.788  0.0550 -0.5783  0.0671
 6230TIP3    H140249   5.244   5.333   2.752 -0.4050  0.1304 -1.3211
 6230TIP3    H240250   5.265   5.478   2.714 -1.6772  1.1232  1.5030
 6231TIP3   OH240251   5.664   6.727   3.763 -0.1597 -0.3268  0.4288
 6231TIP3    H140252   5.699   6.815   3.750 -0.4305 -0.5666 -2.7673
 6231TIP3    H240253   5.725   6.685   3.824  1.0181  1.4752  0.5441
 6232TIP3   OH240254   0.288   6.290   3.078  0.5007 -0.5030  0.1891
 6232TIP3    H140255   0.249   6.351   3.142  1.5698  0.4245 -0.0119
 6232TIP3    H240256   0.255   6.321   2.993  2.5379  1.0626 -0.1117
 6233TIP3   OH240257   4.682   5.936   3.528  0.7899  0.2797  0.3109
 6233TIP3    H140258   4.735   5.975   3.597 -1.3773  0.1011  2.1957
 6233TIP3    H240259   4.602   5.907   3.572 -0.8087  0.3278 -2.2944
 6234TIP3   OH240260   3.120   0.528   2.193  0.1767  0.0029 -0.1194
 6234TIP3    H140261   3.027   0.551   2.194 -0.0312 -0.8196 -0.3147
 6234TIP3    H240262   3.158   0.579   2.265 -0.8813 -1.4932  1.5957
 6235TIP3   OH240263   2.922   2.593   8.045 -0.1833 -0.4586 -0.2323
 6235TIP3    H140264   2.886   2.564   8.128 -0.7013  1.7836  0.3871
 6235TIP3    H240265   2.856   2.653   8.009  0.7818 -0.0457 -1.4047
 6236TIP3   OH240266   0.801   1.582   2.391 -0.0031  0.1227  0.0016
 6236TIP3    H140267   0.740   1.655   2.390  2.7663  2.6266 -1.3998
 6236TIP3    H240268   0.808   1.555   2.300  1.6564  0.5997 -0.0502
 6237TIP3   OH240269   3.849   4.681   3.473 -0.1460 -0.8593 -0.5536
 6237TIP3    H140270   3.931   4.731   3.481  0.0044 -1.3555  2.0467
 6237TIP3    H240271   3.875   4.600   3.429  0.7242 -0.9078  0.0233
 6238TIP3   OH240272   4.277   4.857   0.466 -0.1700 -0.1736 -0.4019
 6238TIP3    H140273   4.287   4.834   0.374 -0.5633  0.3237 -0.5717
 6238TIP3    H240274   4.341   4.927   0.480  0.3549 -0.7038 -0.1276
 6239TIP3   OH240275   5.450   4.898   0.907  0.5101  0.5249  0.1429
 6239TIP3    H140276   5.443   4.857   0.820  0.8128  0.5001  0.1279
 6239TIP3    H240277   5.364   4.934   0.923 -0.0864 -1.0024  0.5912
 6240TIP3   OH240278   0.371   2.157   0.523 -0.0715  0.1434 -0.4224
 6240TIP3    H140279   0.340   2.143   0.433  1.1843  0.3605 -0.9162
 6240TIP3    H240280   0.353   2.250   0.540 -0.1101  0.1561 -0.5322
 6241TIP3   OH240281   6.342   2.661   2.731 -0.1102 -0.5132 -0.3216
 6241TIP3    H140282   6.351   2.733   2.669 -1.0519 -0.8064 -0.8271
 6241TIP3    H240283   6.400   2.593   2.698  0.3944 -0.1899 -0.1249
 6242TIP3   OH240284   3.870   0.515   0.764  0.5008  0.4418 -0.3501
 6242TIP3    H140285   3.787   0.547   0.800  1.0933  1.1129  0.4359
 6242TIP3    H240286   3.934   0.582   0.787  1.5513 -0.7502  0.2937
 6243TIP3   OH240287   5.761   1.770   0.538  0.2445  0.1930 -0.1888
 6243TIP3    H140288   5.676   1.788   0.499  0.8556  1.4417 -0.9993
 6243TIP3    H240289   5.776   1.677   0.521 -0.9013 -0.0330 -0.0987
 6244TIP3   OH240290   0.951   0.293   3.547  0.0115  0.3389 -0.5110
 6244TIP3    H140291   0.999   0.256   3.621 -1.4513 -0.8122 -0.0857
 6244TIP3    H240292   1.017   0.341   3.497  0.9902  1.5782  1.7805
 6245TIP3   OH240293   5.284   5.138   0.840 -0.2812  0.7534 -0.3499
 6245TIP3    H140294   5.363   5.152   0.892 -0.1173  1.5911 -0.8047
 6245TIP3    H240295   5.243   5.224   0.834 -0.7331  0.5092 -0.9022
 6246TIP3   OH240296   2.268   5.781   1.126  0.4052  0.0352  0.2483
 6246TIP3    H140297   2.317   5.857   1.096  0.0892  0.2030  0.1536
 6246TIP3    H240298   2.176   5.806   1.116  0.2795 -0.9435 -1.3489
 6247TIP3   OH240299   2.955   0.423   3.570 -0.0216  0.2874 -0.0589
 6247TIP3    H140300   2.998   0.426   3.655 -1.4983  1.1440  0.7023
 6247TIP3    H240301   2.962   0.513   3.536 -0.3521  0.2054 -0.3517
 6248TIP3   OH240302   6.508   5.952   2.348  0.7960  0.2614 -0.3068
 6248TIP3    H140303   6.420   5.950   2.383  0.8191 -0.7547 -0.2665
 6248TIP3    H240304   6.502   6.004   2.268  0.0997 -0.0639 -0.4664
 6249TIP3   OH240305   2.498   5.125   2.534  0.6060  0.4276 -0.2004
 6249TIP3    H140306   2.419   5.126   2.589  0.9711 -0.8864  0.3960
 6249TIP3    H240307   2.467   5.152   2.447 -0.6347 -0.6283 -0.1232
 6250TIP3   OH240308   6.368   1.408   8.438 -0.5776  0.0130  0.0635
 6250TIP3    H140309   6.326   1.493   8.454 -0.4509 -0.3583  2.8951
 6250TIP3    H240310   6.453   1.430   8.401 -0.6574  1.1200  0.4901
 6251TIP3   OH240311   6.772   3.433   1.748 -0.1020 -0.1081 -0.1837
 6251TIP3    H140312   6.737   3.520   1.768  0.2203  0.0054 -0.0996
 6251TIP3    H240313   6.817   3.406   1.828 -1.5267 -1.0315  0.3282
 6252TIP3   OH240314   1.677   3.428   1.539  0.0493  0.2566  0.1380
 6252TIP3    H140315   1.696   3.503   1.596 -0.7421  1.0928 -0.6691
 6252TIP3    H240316   1.641   3.362   1.598  1.5544  0.1489  1.0147
 6253TIP3   OH240317   5.291   2.088   0.759  0.0431  0.1919  0.3081
 6253TIP3    H140318   5.249   2.078   0.845 -0.9985 -0.0466 -0.2119
 6253TIP3    H240319   5.384   2.097   0.779 -0.2655  0.9755  1.5170
 6254TIP3   OH240320   0.578   0.974   4.272 -0.1266 -0.2620 -0.5814
 6254TIP3    H140321   0.489   1.008   4.275  0.5111  1.5536 -0.7478
 6254TIP3    H240322   0.629   1.045   4.231  1.4635 -1.0660 -0.0767
 6255TIP3   OH240323   6.928   2.760   0.643 -0.3741 -0.2483  0.3991
 6255TIP3    H140324   6.908   2.679   0.690 -0.2621 -0.0386  0.8107
 6255TIP3    H240325   6.847   2.781   0.596 -0.0139 -1.2874 -0.7445
 6256TIP3   OH240326   3.078   4.415   0.965  0.3760  0.1078 -0.4794
 6256TIP3    H140327   3.094   4.321   0.956 -0.4768  0.0613 -1.8888
 6256TIP3    H240328   3.100   4.451   0.879  0.2305  1.1197 -0.0994
 6257TIP3   OH240329   2.965   3.971   2.050  0.4329 -0.3402  0.1662
 6257TIP3    H140330   2.932   3.973   1.960  1.1271  0.7991 -0.0896
 6257TIP3    H240331   2.920   3.897   2.091 -1.4383  0.3250 -0.5389
 6258TIP3   OH240332   0.007   5.428   3.302 -0.0684  0.3122  0.3439
 6258TIP3    H140333  -0.077   5.468   3.324  0.5001  1.0228  1.2917
 6258TIP3    H240334   0.072   5.488   3.338  0.8787  0.3491 -1.3551
 6259TIP3   OH240335   2.773   3.809   0.644 -0.2971  0.2454  0.2553
 6259TIP3    H140336   2.853   3.767   0.612  0.1562  0.7806  0.6722
 6259TIP3    H240337   2.703   3.773   0.588 -0.0118 -1.4806  0.9419
 6260TIP3   OH240338   0.551   1.031   2.322  0.1931 -0.5176 -0.3415
 6260TIP3    H140339   0.589   0.970   2.386 -0.9859  0.9812  1.9500
 6260TIP3    H240340   0.571   1.118   2.357 -0.0451  0.4077 -2.3468
 6261TIP3   OH240341   1.719   3.418   2.668 -0.5678  0.0475  0.0371
 6261TIP3    H140342   1.798   3.457   2.630 -0.4644  0.3244  0.5263
 6261TIP3    H240343   1.699   3.474   2.744 -1.0270 -0.2317  0.1246
 6262TIP3   OH240344   6.553   4.086   3.619 -0.4858 -0.0802 -1.2522
 6262TIP3    H140345   6.570   4.109   3.710  0.5539 -1.4205 -1.0778
 6262TIP3    H240346   6.540   4.170   3.575  0.4187  0.6773 -0.1392
 6263TIP3   OH240347   4.820   4.598   1.910 -0.1282  0.5998 -0.1808
 6263TIP3    H140348   4.764   4.644   1.973  0.2822  1.3321 -0.3361
 6263TIP3    H240349   4.767   4.592   1.830 -0.4344  0.1885  0.0480
 6264TIP3   OH240350   0.725   6.851   1.280  0.7152  0.1274 -0.0692
 6264TIP3    H140351   0.651   6.855   1.218 -0.1861  3.0176  1.0171
 6264TIP3    H240352   0.685   6.824   1.362  1.2715 -0.3431  0.0492
 6265TIP3   OH240353   3.094   4.081   3.142 -0.1589 -0.4997  0.2237
 6265TIP3    H140354   3.055   4.020   3.079 -0.2292 -0.1856 -0.0414
 6265TIP3    H240355   3.081   4.039   3.227 -1.1174 -0.3972  0.1452
 6266TIP3   OH240356   5.516   2.224   2.082 -0.3751 -0.3332 -0.4461
 6266TIP3    H140357   5.453   2.202   2.151 -0.0559 -1.5645 -0.5213
 6266TIP3    H240358   5.463   2.256   2.010 -0.7611  0.3938  0.1460
 6267TIP3   OH240359   1.502   1.684   0.474  0.6383  0.7327  0.2981
 6267TIP3    H140360   1.514   1.598   0.433 -0.7739  0.2224  0.8883
 6267TIP3    H240361   1.567   1.687   0.544  0.2636 -0.1447  0.6975
 6268TIP3   OH240362   3.913   3.970   4.462  0.0361 -0.4547  0.4281
 6268TIP3    H140363   3.964   3.915   4.402 -0.9836 -1.0373  0.0694
 6268TIP3    H240364   3.944   3.946   4.549  0.5659 -0.5968  0.2042
 6269TIP3   OH240365   6.262   5.148   1.170 -0.1396  0.4703  0.0730
 6269TIP3    H140366   6.357   5.146   1.185  0.4543  0.1700 -3.0867
 6269TIP3    H240367   6.248   5.087   1.097 -2.9296 -0.1706  1.0426
 6270TIP3   OH240368   0.293   3.609   0.954  0.3493  0.3837  0.5275
 6270TIP3    H140369   0.290   3.538   0.889 -1.3309 -0.6896  1.7055
 6270TIP3    H240370   0.381   3.603   0.991 -0.3733 -2.5852  2.1019
 6271TIP3   OH240371   3.482   2.723   1.094  0.6270 -0.0550  0.6111
 6271TIP3    H140372   3.424   2.753   1.164 -0.5359 -2.1069  0.6178
 6271TIP3    H240373   3.548   2.670   1.138  1.2989  0.5781  0.3836
 6272TIP3   OH240374   4.079   2.051   2.441 -0.7105  0.2372 -0.0470
 6272TIP3    H140375   4.052   1.959   2.451 -0.0657 -0.0094 -0.4940
 6272TIP3    H240376   4.174   2.047   2.435 -0.6395  0.9933  0.4420
 6273TIP3   OH240377   2.005   4.475   3.459  0.8242  0.0482  0.2029
 6273TIP3    H140378   1.933   4.426   3.420  0.9943  0.1982 -0.3025
 6273TIP3    H240379   2.006   4.446   3.550 -0.1396  0.3493  0.3245
 6274TIP3   OH240380   4.384   5.572   8.328  0.5259  0.1554  0.5149
 6274TIP3    H140381   4.310   5.628   8.307 -0.0033 -0.3072  1.0880
 6274TIP3    H240382   4.372   5.495   8.273  0.9150  0.3353  0.1732
 6275TIP3   OH240383   3.301   3.412   0.247 -0.1673 -0.9021  0.5289
 6275TIP3    H140384   3.250   3.412   0.167  0.3401  3.1508  0.0258
 6275TIP3    H240385   3.390   3.393   0.219 -0.0967 -0.1246  0.2239
 6276TIP3   OH240386   5.988   0.501   0.129  0.4713 -0.4168 -0.2206
 6276TIP3    H140387   5.945   0.586   0.124  2.5990  0.8559  1.4031
 6276TIP3    H240388   5.917   0.438   0.138 -1.0940  1.4063  0.6901
 6277TIP3   OH240389   4.203   0.953   1.342  0.0695  0.4636  0.7230
 6277TIP3    H140390   4.145   0.977   1.415  0.0248 -1.2225  1.2743
 6277TIP3    H240391   4.158   0.986   1.265 -0.7341  0.7666  1.3008
 6278TIP3   OH240392   5.199   5.174   2.667  0.1204 -0.1611 -0.4765
 6278TIP3    H140393   5.256   5.137   2.601 -1.0268 -0.3301 -1.4060
 6278TIP3    H240394   5.126   5.111   2.674 -0.3400  0.4193  0.1264
 6279TIP3   OH240395   1.442   0.315   2.576 -0.2230  0.8800  0.1366
 6279TIP3    H140396   1.477   0.229   2.550 -2.3329 -0.1448  0.4705
 6279TIP3    H240397   1.520   0.366   2.600  1.1651 -0.6256 -0.9340
 6280TIP3   OH240398   4.170   1.157   3.352 -0.4129 -0.7112  0.0639
 6280TIP3    H140399   4.137   1.199   3.272  1.7559 -0.0191 -0.5211
 6280TIP3    H240400   4.244   1.210   3.379 -0.3707 -1.6211  1.8964
 6281TIP3   OH240401   4.440   4.183   2.333 -0.2841  0.0707 -0.0199
 6281TIP3    H140402   4.398   4.099   2.353 -0.4351  0.2530  0.4623
 6281TIP3    H240403   4.459   4.220   2.419  0.6534  0.0997 -0.2384
 6282TIP3   OH240404   3.462   6.206   2.005 -0.5934 -0.1411  0.1513
 6282TIP3    H140405   3.383   6.260   2.013 -1.0121 -0.9094  1.3945
 6282TIP3    H240406   3.521   6.239   2.073 -0.3401 -0.4015  0.0623
 6283TIP3   OH240407   3.680   2.222   3.204 -0.0727  0.0907 -0.1271
 6283TIP3    H140408   3.661   2.316   3.199 -1.5697 -0.2330 -1.2372
 6283TIP3    H240409   3.742   2.207   3.133 -0.6749  0.0811 -0.6671
 6284TIP3   OH240410   4.076   0.631   2.526  0.2779  0.2946  0.2930
 6284TIP3    H140411   4.101   0.540   2.546  1.2111  0.5355  0.2778
 6284TIP3    H240412   3.987   0.625   2.492  0.0888 -0.5483  0.9079
 6285TIP3   OH240413   3.355   3.393   3.513 -0.3240  0.2247 -0.2972
 6285TIP3    H140414   3.436   3.416   3.467  1.3372  0.5354  2.5460
 6285TIP3    H240415   3.378   3.317   3.565 -3.1696 -2.4397 -2.5369
 6286TIP3   OH240416   4.560   2.797   3.246  0.9008 -0.4201  0.3113
 6286TIP3    H140417   4.489   2.818   3.308  0.0936 -2.3291  0.1248
 6286TIP3    H240418   4.634   2.849   3.276 -0.1964  0.6071  1.3592
 6287TIP3   OH240419   6.476   2.108   0.659 -0.0672  0.7032 -0.2984
 6287TIP3    H140420   6.465   2.081   0.750  0.0533 -0.7386 -0.6876
 6287TIP3    H240421   6.568   2.093   0.640 -0.1641  0.6668 -0.7580
 6288TIP3   OH240422   6.492   5.476   1.086  0.1917 -0.7549  0.1598
 6288TIP3    H140423   6.505   5.385   1.061 -0.9563 -0.6242 -1.0604
 6288TIP3    H240424   6.563   5.524   1.044  0.2412 -0.9649  0.0071
 6289TIP3   OH240425   2.665   0.725   1.907 -0.4348  0.5468  1.1220
 6289TIP3    H140426   2.743   0.704   1.857  0.2405  1.0925  1.9106
 6289TIP3    H240427   2.659   0.820   1.902 -1.4888  0.4598  0.4463
 6290TIP3   OH240428   3.925   2.613   4.420 -0.3767 -0.0022 -0.1403
 6290TIP3    H140429   3.990   2.683   4.419  0.8691 -1.1269 -0.0889
 6290TIP3    H240430   3.914   2.590   4.328 -0.8088  0.2520 -0.1589
 6291TIP3   OH240431   4.485   0.196   0.653  0.0201 -0.4211  0.4314
 6291TIP3    H140432   4.491   0.101   0.661 -1.1648 -0.6492 -0.9851
 6291TIP3    H240433   4.502   0.229   0.741 -0.0821 -1.9656  1.0583
 6292TIP3   OH240434   6.950   1.444   1.025  0.1203 -0.1573 -0.3269
 6292TIP3    H140435   7.045   1.433   1.015 -0.0377 -1.1293 -0.9200
 6292TIP3    H240436   6.917   1.355   1.035 -0.9459 -0.0182 -2.2250
 6293TIP3   OH240437   5.488   4.326   2.947 -0.2693  0.3376  0.2426
 6293TIP3    H140438   5.567   4.374   2.972 -0.0242  1.4834 -2.3636
 6293TIP3    H240439   5.417   4.389   2.960 -0.7274 -0.4867  1.9948
 6294TIP3   OH240440   3.053   5.727   1.943  0.0925 -0.1277  0.0475
 6294TIP3    H140441   2.976   5.670   1.944 -0.5648  0.7573  0.2205
 6294TIP3    H240442   3.022   5.811   1.912  1.1605  0.0347 -0.6612
 6295TIP3   OH240443   4.878   6.323   4.031 -0.9399  0.0897 -0.2512
 6295TIP3    H140444   4.931   6.401   4.049  1.1064 -0.8005 -1.9343
 6295TIP3    H240445   4.916   6.255   4.086 -1.7777 -0.0616  0.1465
 6296TIP3   OH240446   1.104   3.817   0.974 -0.0026 -0.0993  0.6551
 6296TIP3    H140447   1.128   3.838   0.884 -1.1626 -0.9760  0.1077
 6296TIP3    H240448   1.187   3.803   1.019  0.5728 -1.3596 -0.7183
 6297TIP3   OH240449   4.211   1.950   0.792 -0.1791  0.1287  0.1879
 6297TIP3    H140450   4.203   2.032   0.744  1.4241  0.5675  0.6082
 6297TIP3    H240451   4.120   1.925   0.813 -0.6861  1.8346  0.1427
 6298TIP3   OH240452   2.087   2.744   1.314  0.0081 -0.4486 -0.0684
 6298TIP3    H140453   2.104   2.782   1.400  2.7058  0.8253 -1.0251
 6298TIP3    H240454   2.111   2.652   1.323  0.9831 -0.1680  0.4126
 6299TIP3   OH240455   0.210   6.924   2.844  0.0525 -0.3259  0.1720
 6299TIP3    H140456   0.203   6.852   2.781 -0.1072 -1.5820  1.5966
 6299TIP3    H240457   0.152   6.991   2.808  1.0466 -0.4098 -1.7714
 6300TIP3   OH240458   0.258   6.860   3.326 -0.0550 -0.0301  0.1662
 6300TIP3    H140459   0.241   6.771   3.358 -1.5586  0.3989  0.6745
 6300TIP3    H240460   0.223   6.860   3.237  2.3561 -0.6641 -0.8507
 6301TIP3   OH240461   2.218   5.996   2.546  0.0515 -0.0363 -0.2911
 6301TIP3    H140462   2.189   6.078   2.586 -0.6270 -1.3906  2.1860
 6301TIP3    H240463   2.145   5.971   2.489  0.3215  1.1100 -1.1693
 6302TIP3   OH240464   6.908   1.779   0.629 -0.3962  0.1954 -0.3397
 6302TIP3    H140465   6.947   1.862   0.600 -0.3513  0.5998  0.8197
 6302TIP3    H240466   6.813   1.794   0.624 -0.3894  0.4110  0.0873
 6303TIP3   OH240467   1.206   3.546   1.250  0.3617  0.0770 -0.0878
 6303TIP3    H140468   1.168   3.473   1.202  1.7024 -0.5763 -0.2153
 6303TIP3    H240469   1.270   3.506   1.308 -0.1411  1.0034  1.1437
 6304TIP3   OH240470   3.469   0.602   8.440  0.2481 -0.7653  0.4388
 6304TIP3    H140471   3.482   0.614   8.534 -1.6590 -1.6225  0.8562
 6304TIP3    H240472   3.421   0.519   8.432 -0.1274 -0.4343 -1.2659
 6305TIP3   OH240473   2.380   6.627   1.685 -0.1381 -0.2220  0.0213
 6305TIP3    H140474   2.295   6.590   1.661 -1.7735  0.4639  3.9840
 6305TIP3    H240475   2.378   6.715   1.647 -2.7629  0.9868  2.5240
 6306TIP3   OH240476   3.271   4.353   1.262  0.1109  0.1780 -0.3309
 6306TIP3    H140477   3.287   4.319   1.174 -2.0301  0.5902 -0.9197
 6306TIP3    H240478   3.290   4.447   1.255  1.9170 -0.0990  0.2221
 6307TIP3   OH240479   5.367   4.669   3.525  0.0453 -0.4650  0.6998
 6307TIP3    H140480   5.368   4.573   3.518  2.0678 -0.4175 -0.3305
 6307TIP3    H240481   5.298   4.697   3.465  1.6342 -1.1924 -1.6098
 6308TIP3   OH240482   3.957   1.874   3.662 -0.1951 -0.1392  0.0819
 6308TIP3    H140483   3.929   1.873   3.753 -0.4263  0.6750  0.0309
 6308TIP3    H240484   3.875   1.870   3.612 -0.0665 -0.6653 -0.0947
 6309TIP3   OH240485   3.967   3.526   2.545  0.2010  0.0605 -0.2849
 6309TIP3    H140486   3.986   3.486   2.461 -1.5954 -1.1609 -0.1502
 6309TIP3    H240487   4.021   3.605   2.546  5.2926 -3.0238  0.1781
 6310TIP3   OH240488   0.455   2.279   2.866  0.1704 -0.1539  0.4845
 6310TIP3    H140489   0.426   2.365   2.895 -0.9091 -0.6795  1.0127
 6310TIP3    H240490   0.376   2.236   2.834  1.1504  0.0395 -2.4485
 6311TIP3   OH240491   5.015   4.167   2.111  0.0368 -0.0686  0.5883
 6311TIP3    H140492   5.034   4.153   2.018 -1.5492 -1.1189  0.3700
 6311TIP3    H240493   4.999   4.261   2.119  2.1329  0.3764  0.2385
 6312TIP3   OH240494   6.058   3.500   2.133 -0.3103 -0.0956 -0.6203
 6312TIP3    H140495   5.978   3.552   2.129 -0.6539 -0.5342  0.2187
 6312TIP3    H240496   6.116   3.551   2.189 -1.0101 -1.0364  1.0467
 6313TIP3   OH240497   0.836   2.605   4.056  0.1079 -0.3973 -0.7362
 6313TIP3    H140498   0.892   2.658   4.113  0.5829 -2.7006  1.1066
 6313TIP3    H240499   0.855   2.635   3.968 -0.7975  3.5046  0.2104
 6314TIP3   OH240500   3.641   2.400   2.050  0.4986 -0.5710  0.5201
 6314TIP3    H140501   3.547   2.413   2.064 -0.0167 -3.3254  0.1745
 6314TIP3    H240502   3.683   2.456   2.115 -1.3253  1.5676 -0.0403
 6315TIP3   OH240503   5.189   2.767   3.189  0.0629  0.2523 -0.0464
 6315TIP3    H140504   5.193   2.858   3.159  2.7004  0.0402 -0.6194
 6315TIP3    H240505   5.222   2.717   3.114  1.6299 -0.8269  1.2929
 6316TIP3   OH240506   2.838   2.645   1.882  0.0383 -0.2665 -0.0414
 6316TIP3    H140507   2.818   2.552   1.869 -0.6175  0.0055 -1.0269
 6316TIP3    H240508   2.754   2.684   1.906  0.2850  0.1024  0.2250
 6317TIP3   OH240509   5.811   2.087   1.906  0.2584  0.4412 -0.2340
 6317TIP3    H140510   5.737   2.028   1.891 -0.2223  1.1918 -0.8814
 6317TIP3    H240511   5.774   2.162   1.952  1.0983 -0.2698  1.7217
 6318TIP3   OH240512   3.329   6.423   8.116 -0.1901 -0.1732 -0.3678
 6318TIP3    H140513   3.357   6.444   8.206  0.1140  1.6157 -0.8455
 6318TIP3    H240514   3.329   6.507   8.071  1.6042 -1.2562 -2.5949
 6319TIP3   OH240515   6.805   6.014   2.387  0.4046  0.3543  0.0680
 6319TIP3    H140516   6.883   6.029   2.334  0.8772 -0.3887  0.5277
 6319TIP3    H240517   6.748   5.962   2.330  0.5962  0.1909  0.0236
 6320TIP3   OH240518   4.012   2.230   3.246  0.9563 -0.1409 -0.2747
 6320TIP3    H140519   4.066   2.154   3.270  1.1063 -0.3317 -1.1586
 6320TIP3    H240520   3.972   2.205   3.162  2.2767  1.3784 -1.4126
 6321TIP3   OH240521   3.631   0.742   0.595 -0.7321 -0.0468 -0.0423
 6321TIP3    H140522   3.692   0.692   0.540 -1.5977 -0.2202 -0.8751
 6321TIP3    H240523   3.622   0.826   0.551  1.3668  1.2500  1.7983
 6322TIP3   OH240524   2.006   6.725   3.768 -0.3642  0.0837 -0.0822
 6322TIP3    H140525   1.932   6.786   3.769 -0.7225 -0.3485 -0.2693
 6322TIP3    H240526   2.054   6.747   3.848 -1.1501 -0.1881  0.4816
 6323TIP3   OH240527   3.732   2.505   4.579 -0.2188 -0.2190 -0.1066
 6323TIP3    H140528   3.782   2.561   4.518 -1.3526  0.9733  0.0128
 6323TIP3    H240529   3.797   2.445   4.614  0.7423 -0.0393 -1.4685
 6324TIP3   OH240530   6.507   4.870   1.235 -0.6994 -0.1275 -0.2323
 6324TIP3    H140531   6.420   4.835   1.257 -0.9675  0.5975 -0.1345
 6324TIP3    H240532   6.568   4.809   1.276 -1.1781  0.7444  1.8803
 6325TIP3   OH240533   2.367   4.867   0.697 -0.2128 -0.0751 -0.0958
 6325TIP3    H140534   2.399   4.945   0.741 -0.3457 -1.2330  2.2016
 6325TIP3    H240535   2.275   4.885   0.679  0.0551  0.7357 -0.7258
 6326TIP3   OH240536   5.939   4.927   1.263 -0.1471  0.0526  0.3255
 6326TIP3    H140537   5.852   4.961   1.284 -1.3404 -1.2721 -1.9593
 6326TIP3    H240538   5.955   4.957   1.174  2.2524  1.1135  1.0457
 6327TIP3   OH240539   5.955   5.615   3.195  0.1120 -0.0922  0.2059
 6327TIP3    H140540   5.901   5.536   3.196  0.9716 -0.7900 -2.0591
 6327TIP3    H240541   5.892   5.687   3.191 -0.6794 -0.6213  2.1961
 6328TIP3   OH240542   6.050   1.041   2.958  0.0195 -0.0028  0.4786
 6328TIP3    H140543   5.979   1.013   2.901 -0.8262  1.1608  0.9154
 6328TIP3    H240544   6.115   1.079   2.898 -0.6601  0.8033  0.2385
 6329TIP3   OH240545   1.049   0.648   2.816  0.4267 -0.3467 -0.2815
 6329TIP3    H140546   0.983   0.580   2.829  0.4140 -0.2608  0.1267
 6329TIP3    H240547   1.130   0.601   2.798  0.6091 -0.5019  0.8670
 6330TIP3   OH240548   1.098   5.802   3.310 -0.1336 -0.1064  0.0829
 6330TIP3    H140549   1.034   5.862   3.349 -1.1401 -1.6536  0.9125
 6330TIP3    H240550   1.173   5.805   3.369  0.4057  1.3657 -0.6410
 6331TIP3   OH240551   1.203   3.997   3.737 -0.0633 -0.5209 -0.4285
 6331TIP3    H140552   1.248   4.034   3.813 -0.2074 -1.6862  0.2445
 6331TIP3    H240553   1.220   3.903   3.742 -0.5224 -0.6811 -1.5437
 6332TIP3   OH240554   0.806   4.404   3.620  0.0919 -0.5719  0.4249
 6332TIP3    H140555   0.895   4.386   3.593 -0.2995  0.1824 -1.5680
 6332TIP3    H240556   0.756   4.327   3.593  0.0464 -0.7841  1.0949
 6333TIP3   OH240557   3.671   0.985   0.475 -0.4806  0.1148  0.4571
 6333TIP3    H140558   3.597   0.957   0.421 -0.5664 -0.7533  0.9963
 6333TIP3    H240559   3.748   0.957   0.427 -0.4392  1.9438 -0.6126
 6334TIP3   OH240560   0.121   0.481   2.759  0.5270 -0.2511 -0.5643
 6334TIP3    H140561   0.105   0.450   2.670  1.0548 -0.3851 -0.6094
 6334TIP3    H240562   0.063   0.557   2.768 -0.4654 -0.9842 -0.5902
 6335TIP3   OH240563   0.692   5.611   8.374 -0.0074 -0.7128  0.2520
 6335TIP3    H140564   0.661   5.571   8.292 -1.4200 -1.0418  0.9033
 6335TIP3    H240565   0.762   5.670   8.347 -1.0385 -0.1365 -1.3175
 6336TIP3   OH240566   1.617   3.416   4.323  0.0160  0.1989 -0.0614
 6336TIP3    H140567   1.708   3.436   4.347 -0.4585  1.9485  0.4606
 6336TIP3    H240568   1.569   3.495   4.346 -1.9242 -1.2500  1.0817
 6337TIP3   OH240569   6.591   3.617   2.491  0.5905  0.1873  0.4726
 6337TIP3    H140570   6.561   3.706   2.510  1.7449  0.6380  0.2954
 6337TIP3    H240571   6.549   3.594   2.409 -1.6428 -0.3994  1.6976
 6338TIP3   OH240572   2.026   3.753   0.162  0.3066 -0.5443 -0.4753
 6338TIP3    H140573   2.007   3.841   0.197  1.8196  0.1906 -1.4281
 6338TIP3    H240574   1.943   3.725   0.123  0.0326  0.8567 -0.9766
 6339TIP3   OH240575   1.357   0.826   2.792  0.0152 -0.4373 -0.1420
 6339TIP3    H140576   1.409   0.783   2.860  1.0159  0.0887 -0.5677
 6339TIP3    H240577   1.273   0.846   2.835  1.5596  2.3912  1.8620
 6340TIP3   OH240578   1.984   5.060   2.629  0.2142  0.2207 -0.4013
 6340TIP3    H140579   1.982   4.995   2.559 -1.5267  0.0511 -0.2370
 6340TIP3    H240580   2.022   5.138   2.589  0.7022 -0.3592 -1.0827
 6341TIP3   OH240581   0.365   2.683   3.814 -0.0588 -0.6590 -0.1488
 6341TIP3    H140582   0.454   2.653   3.792 -0.0152 -0.0309 -0.8734
 6341TIP3    H240583   0.307   2.621   3.769 -0.0233 -1.7199  1.1969
 6342TIP3   OH240584   4.199   4.295   0.581 -0.0580 -0.2791 -0.2283
 6342TIP3    H140585   4.155   4.303   0.665  0.9331  1.0271  0.1870
 6342TIP3    H240586   4.239   4.380   0.565  0.3821 -0.7139 -1.6887
 6343TIP3   OH240587   5.020   2.210   0.411  0.0264 -0.1276  0.0153
 6343TIP3    H140588   4.967   2.284   0.441  1.9645  2.1141 -1.7163
 6343TIP3    H240589   5.047   2.234   0.323  1.9547 -2.2415 -0.0509
 6344TIP3   OH240590   3.522   1.428   2.137  0.0495  0.1057  0.0023
 6344TIP3    H140591   3.437   1.386   2.152 -0.3277  0.9950  0.4325
 6344TIP3    H240592   3.558   1.382   2.062 -1.2587  0.3310 -0.8099
 6345TIP3   OH240593   2.590   6.071   3.152 -0.4240 -0.4483  0.4656
 6345TIP3    H140594   2.539   5.997   3.121 -2.1488  0.1594  1.6862
 6345TIP3    H240595   2.527   6.144   3.156  0.8271  0.6519  0.8818
 6346TIP3   OH240596   4.248   2.352   0.865  0.0518  0.1630  0.5048
 6346TIP3    H140597   4.159   2.324   0.884 -0.7354  2.0346 -0.1626
 6346TIP3    H240598   4.248   2.368   0.770  1.4408 -0.9256  0.2992
 6347TIP3   OH240599   1.913   3.923   4.228  0.6807  0.2510 -0.4234
 6347TIP3    H140600   1.868   3.977   4.293 -0.2613  0.6654 -1.3995
 6347TIP3    H240601   1.918   3.978   4.150 -0.0278 -0.9403 -1.3516
 6348TIP3   OH240602   5.016   2.026   0.696  0.2193  0.1073 -0.3498
 6348TIP3    H140603   5.070   2.026   0.775  0.3146 -0.2235 -0.4129
 6348TIP3    H240604   4.970   2.110   0.698 -1.9750 -1.0498  1.5414
 6349TIP3   OH240605   6.448   6.791   3.962 -0.7417  0.1346  0.0118
 6349TIP3    H140606   6.479   6.878   3.938 -1.7213  0.1918 -1.1402
 6349TIP3    H240607   6.518   6.754   4.016 -0.6785  1.9480  1.2370
 6350TIP3   OH240608   2.383   5.823   3.035  0.2761 -0.0962 -0.5178
 6350TIP3    H140609   2.299   5.851   3.072  0.3356 -1.0851  0.3982
 6350TIP3    H240610   2.359   5.765   2.962  0.1666  0.2671 -0.7725
 6351TIP3   OH240611   3.889   1.921   2.919 -0.5535  0.2188 -0.2516
 6351TIP3    H140612   3.891   1.905   2.825 -0.8115 -1.4608  0.0059
 6351TIP3    H240613   3.801   1.895   2.946 -1.3194  2.9172  0.1194
 6352TIP3   OH240614   2.475   5.270   0.135 -0.0816  0.0458  0.0908
 6352TIP3    H140615   2.527   5.236   0.208  1.0316  0.7627 -0.3354
 6352TIP3    H240616   2.478   5.201   0.070 -0.6965 -0.4116  0.5372
 6353TIP3   OH240617   0.797   5.424   1.125 -0.1180 -0.2400 -0.2239
 6353TIP3    H140618   0.725   5.477   1.159  0.5612  1.6734 -1.6254
 6353TIP3    H240619   0.767   5.334   1.137 -1.7263  0.4300  1.3732
 6354TIP3   OH240620   1.121   0.967   0.877 -0.1920 -0.0294  0.5197
 6354TIP3    H140621   1.078   0.967   0.792 -0.0844 -1.9542  0.4244
 6354TIP3    H240622   1.076   1.036   0.926 -2.2124 -0.7710 -0.1723
 6355TIP3   OH240623   6.513   4.023   0.777  0.0137  0.8633 -0.2195
 6355TIP3    H140624   6.425   4.058   0.790 -0.7736 -0.4487 -1.8102
 6355TIP3    H240625   6.555   4.087   0.719 -0.6482  0.3821 -1.2530
 6356TIP3   OH240626   3.317   6.344   2.261 -0.4300  0.4438  0.1032
 6356TIP3    H140627   3.393   6.401   2.246 -0.0661 -0.3000 -0.9588
 6356TIP3    H240628   3.353   6.270   2.310 -0.0547 -0.7868 -1.9253
 6357TIP3   OH240629   3.222   0.282   1.021 -0.7549 -0.6042 -0.5028
 6357TIP3    H140630   3.167   0.256   1.095 -2.5951 -0.2788 -1.6837
 6357TIP3    H240631   3.161   0.292   0.948  0.8256  0.3039 -1.7745
 6358TIP3   OH240632   4.979   6.230   2.506 -0.4278 -0.0389  0.3237
 6358TIP3    H140633   5.005   6.207   2.595  1.5136  1.2310  0.1477
 6358TIP3    H240634   5.042   6.185   2.450 -1.8875 -1.1811 -0.4921
 6359TIP3   OH240635   1.604   4.058   3.276 -0.4897  0.1112 -0.1426
 6359TIP3    H140636   1.579   4.124   3.340 -2.0046  0.7243 -1.3003
 6359TIP3    H240637   1.555   3.980   3.302 -0.6354  0.1818 -0.2041
 6360TIP3   OH240638   6.026   4.148   1.162  0.4549  0.0002 -0.0827
 6360TIP3    H140639   6.060   4.236   1.181 -1.0770  1.0869 -1.8895
 6360TIP3    H240640   5.931   4.160   1.160  0.2781 -1.0927 -2.6871
 6361TIP3   OH240641   2.007   0.482   3.392 -0.2702  0.1995  0.4055
 6361TIP3    H140642   1.952   0.551   3.429 -0.5015  0.2209  0.0297
 6361TIP3    H240643   1.980   0.402   3.438  0.9077  0.5527  1.7877
 6362TIP3   OH240644   3.366   3.532   2.811 -0.2482  0.1133 -0.3678
 6362TIP3    H140645   3.458   3.556   2.802 -0.4098  0.4746 -1.1422
 6362TIP3    H240646   3.367   3.437   2.825  0.3068  0.3047  1.0695
 6363TIP3   OH240647   6.475   0.565   3.563  0.4060  0.3886 -0.2221
 6363TIP3    H140648   6.513   0.529   3.643  0.9059  0.6821 -0.3236
 6363TIP3    H240649   6.448   0.488   3.513  0.4253  0.1934  0.0598
 6364TIP3   OH240650   6.598   0.076   2.543  0.0585  0.0390 -0.0448
 6364TIP3    H140651   6.607   0.021   2.465  0.3104 -0.4999  0.3601
 6364TIP3    H240652   6.513   0.118   2.533 -0.2897 -0.6927 -0.1941
 6365TIP3   OH240653   2.152   0.317   1.663 -0.5790  0.2337 -0.5711
 6365TIP3    H140654   2.248   0.312   1.660 -0.6645 -3.4085 -1.6647
 6365TIP3    H240655   2.129   0.376   1.591  0.8327 -0.0502 -1.3016
 6366TIP3   OH240656   5.414   3.118   0.945  0.4466  0.5788 -0.3711
 6366TIP3    H140657   5.428   3.146   0.855  0.0553  1.7117 -0.0958
 6366TIP3    H240658   5.421   3.198   0.997  0.1011  0.0348  0.5416
 6367TIP3   OH240659   5.442   3.855   0.818  0.0466  0.2054  0.5809
 6367TIP3    H140660   5.459   3.772   0.861  1.5528  0.4979  0.5869
 6367TIP3    H240661   5.351   3.848   0.787  0.9528 -2.6213 -1.9559
 6368TIP3   OH240662   3.553   6.940   4.345 -0.0893  0.2759  0.8513
 6368TIP3    H140663   3.478   6.979   4.301  0.4200  1.2770  0.8405
 6368TIP3    H240664   3.618   7.010   4.348  0.9947 -0.6819  0.5013
 6369TIP3   OH240665   2.794   5.636   1.956  0.4442  0.1921  0.5082
 6369TIP3    H140666   2.749   5.720   1.949  1.4279  0.6676 -0.2636
 6369TIP3    H240667   2.808   5.608   1.866 -0.4801 -1.1587  0.7487
 6370TIP3   OH240668   3.275   6.458   3.975  0.1763 -0.6464 -0.6216
 6370TIP3    H140669   3.214   6.416   3.914  0.0866  0.4240 -1.2775
 6370TIP3    H240670   3.354   6.404   3.972 -0.6087 -1.8731  0.0053
 6371TIP3   OH240671   3.566   6.414   1.731  0.2287 -0.1911  0.4278
 6371TIP3    H140672   3.523   6.492   1.763  0.3155  0.1360 -0.2422
 6371TIP3    H240673   3.656   6.442   1.714  0.1514 -0.3281 -0.2129
 6372TIP3   OH240674   0.319   0.943   1.357  0.0597 -0.2338 -0.1684
 6372TIP3    H140675   0.382   0.917   1.424 -0.7946  0.4447  0.9329
 6372TIP3    H240676   0.349   1.028   1.326 -0.6008  0.3646  0.7765
 6373TIP3   OH240677   4.199   6.499   8.055 -0.4769  0.2627 -0.5524
 6373TIP3    H140678   4.287   6.462   8.046 -0.6311 -0.8077  1.5783
 6373TIP3    H240679   4.156   6.442   8.119 -3.1686  0.0509 -2.4041
 6374TIP3   OH240680   0.490   0.955   1.892  0.2102  0.0275 -0.3846
 6374TIP3    H140681   0.403   0.960   1.852 -0.3089  1.6437  0.8369
 6374TIP3    H240682   0.489   0.873   1.941  0.0207 -0.8217 -1.7598
 6375TIP3   OH240683   6.620   5.884   0.513  0.1416  0.6180  0.2265
 6375TIP3    H140684   6.544   5.826   0.520 -0.0071  0.6810 -0.7724
 6375TIP3    H240685   6.591   5.956   0.458  1.0422  0.4144 -0.5473
 6376TIP3   OH240686   5.220   0.011   2.998 -0.3178  0.0132  0.0028
 6376TIP3    H140687   5.172   0.033   3.077 -0.8116 -2.1303  0.3502
 6376TIP3    H240688   5.152  -0.005   2.932  0.0900  2.3746 -1.0972
 6377TIP3   OH240689   6.286   2.799   0.848 -0.2033 -0.0225 -0.0409
 6377TIP3    H140690   6.233   2.838   0.779 -0.7131 -0.0516  0.3272
 6377TIP3    H240691   6.313   2.714   0.813 -2.8457 -1.3349  0.8459
 6378TIP3   OH240692   4.860   3.014   0.075  0.3701 -0.1191  0.2287
 6378TIP3    H140693   4.803   2.958   0.022 -0.0560 -0.1576  0.7274
 6378TIP3    H240694   4.890   2.958   0.146  1.4587 -0.2538 -0.3159
 6379TIP3   OH240695   0.045   1.684   3.729  0.0404  0.4008 -0.3852
 6379TIP3    H140696   0.121   1.699   3.673  0.2793 -0.6290 -0.3589
 6379TIP3    H240697   0.017   1.772   3.755  1.7846  0.7791  0.3787
 6380TIP3   OH240698   3.372   3.189   2.061 -0.7785 -0.2820 -0.0988
 6380TIP3    H140699   3.277   3.197   2.064 -0.6740  0.9348  1.7405
 6380TIP3    H240700   3.388   3.095   2.074 -1.7319 -0.2563  1.5701
 6381TIP3   OH240701   4.696   5.871   8.189  0.3211 -0.0589  0.0527
 6381TIP3    H140702   4.744   5.941   8.234 -1.6722  0.7034  1.1549
 6381TIP3    H240703   4.701   5.894   8.096 -0.3201  1.5982  0.3999
 6382TIP3   OH240704   5.816   3.804   4.380  0.4912  0.1020  0.4304
 6382TIP3    H140705   5.901   3.848   4.385  1.3374 -1.5649  1.6269
 6382TIP3    H240706   5.836   3.711   4.389 -1.4048 -0.4223 -0.1476
 6383TIP3   OH240707   2.337   4.611   3.803  0.3517 -0.0951 -0.1392
 6383TIP3    H140708   2.320   4.518   3.793  1.1091  0.0155 -4.1176
 6383TIP3    H240709   2.251   4.649   3.821 -0.2401 -1.4088 -0.0862
 6384TIP3   OH240710   5.717   1.876   3.085 -0.0803  0.1927 -0.1304
 6384TIP3    H140711   5.753   1.960   3.113 -1.4523  1.3951 -1.7360
 6384TIP3    H240712   5.628   1.875   3.120  1.0086 -2.3828  3.1061
 6385TIP3   OH240713   6.825   3.813   1.618 -0.5293 -0.7131  0.1095
 6385TIP3    H140714   6.810   3.719   1.607 -0.8383 -0.8384  1.3736
 6385TIP3    H240715   6.756   3.855   1.569  0.2253 -1.1151 -1.3430
 6386TIP3   OH240716   3.901   4.531   3.916 -0.3768 -0.1595  0.1312
 6386TIP3    H140717   3.907   4.590   3.992 -0.6951 -0.3842  0.3366
 6386TIP3    H240718   3.877   4.446   3.954  3.3402 -1.3395  0.2586
 6387TIP3   OH240719   5.759   4.256   0.535  0.1115  0.2280  0.0870
 6387TIP3    H140720   5.679   4.268   0.485 -1.5455 -3.0499  1.6215
 6387TIP3    H240721   5.778   4.163   0.528  2.5879  0.5308  1.5456
 6388TIP3   OH240722   4.884   6.653   1.653  0.3967  0.1317 -0.5058
 6388TIP3    H140723   4.888   6.724   1.589  0.8286  0.9664  0.4159
 6388TIP3    H240724   4.928   6.688   1.731 -1.6967 -0.1551  0.8944
 6389TIP3   OH240725   4.425   3.010   3.688  0.1072 -0.0269  0.6243
 6389TIP3    H140726   4.436   2.915   3.683 -1.9355 -0.3403  1.0625
 6389TIP3    H240727   4.495   3.040   3.746  1.9796 -0.9703 -1.0411
 6390TIP3   OH240728   0.043   2.299   2.636  1.1175 -0.0588 -0.2783
 6390TIP3    H140729  -0.036   2.315   2.687  0.7263  0.6191 -1.0864
 6390TIP3    H240730   0.022   2.331   2.548  2.3063  0.1783 -0.4866
 6391TIP3   OH240731   5.179   2.568   8.175 -0.6991  0.5209  0.1571
 6391TIP3    H140732   5.263   2.609   8.191 -0.0246 -0.6137 -0.3416
 6391TIP3    H240733   5.196   2.474   8.183 -1.8736  0.2636 -0.1088
 6392TIP3   OH240734   2.086   4.362   3.099  0.0493 -0.1630  0.5507
 6392TIP3    H140735   2.021   4.310   3.146 -0.5668  0.1813  0.0957
 6392TIP3    H240736   2.131   4.412   3.167 -2.5293  2.2734  0.6250
 6393TIP3   OH240737   1.471   6.109   0.710 -0.2440  0.0242 -0.0491
 6393TIP3    H140738   1.565   6.118   0.721 -0.2098 -1.0281  0.6534
 6393TIP3    H240739   1.433   6.180   0.763  0.1425  0.3001 -0.1428
 6394TIP3   OH240740   4.114   0.785   2.049 -0.8705  0.3126 -0.1312
 6394TIP3    H140741   4.038   0.731   2.028  0.2088 -0.9925 -0.8489
 6394TIP3    H240742   4.091   0.872   2.018 -1.7688 -0.2357 -1.0655
 6395TIP3   OH240743   3.644   5.070   4.136  0.3899  0.3807 -1.0216
 6395TIP3    H140744   3.655   5.164   4.122 -1.9717  0.6904 -1.1918
 6395TIP3    H240745   3.564   5.063   4.188  0.5219 -1.5437 -1.0214
 6396TIP3   OH240746   4.933   3.245   2.213  0.4271  0.5772  0.2029
 6396TIP3    H140747   4.933   3.156   2.177 -1.9492 -0.3537  2.1811
 6396TIP3    H240748   4.906   3.233   2.304 -0.4591  3.3800  0.3855
 6397TIP3   OH240749   3.676   4.802   1.638 -0.2091  0.2474  0.3959
 6397TIP3    H140750   3.762   4.808   1.597  0.2911 -2.1861  0.9071
 6397TIP3    H240751   3.614   4.810   1.565  0.4623  1.1859 -0.0874
 6398TIP3   OH240752   1.619   5.019   3.917  0.2518 -0.3034 -0.0116
 6398TIP3    H140753   1.524   5.025   3.924  0.3447  1.4055  0.1891
 6398TIP3    H240754   1.638   5.027   3.824  0.2128 -0.6347 -0.0506
 6399TIP3   OH240755   1.946   5.090   3.398 -0.0720 -0.9231 -0.2852
 6399TIP3    H140756   1.856   5.122   3.384  0.0773 -0.1913  0.3653
 6399TIP3    H240757   1.954   5.083   3.493  0.9459  0.2011 -0.2663
 6400TIP3   OH240758   2.505   2.353   1.718 -0.7488  0.1665  0.1388
 6400TIP3    H140759   2.481   2.438   1.681 -2.6925 -0.1278  0.6081
 6400TIP3    H240760   2.424   2.302   1.715 -0.0218 -1.1287  1.3291
 6401TIP3   OH240761   4.502   1.565   1.683  0.1878  0.0292 -0.1372
 6401TIP3    H140762   4.425   1.536   1.732  0.2991  0.8905  0.5745
 6401TIP3    H240763   4.500   1.661   1.690  2.3370  0.0199  1.4849
 6402TIP3   OH240764   3.410   3.742   4.362 -0.3139 -0.2976 -0.0252
 6402TIP3    H140765   3.471   3.802   4.407  0.8477  0.3410 -2.2942
 6402TIP3    H240766   3.440   3.655   4.387  0.2530  0.0340  0.4915
 6403TIP3   OH240767   3.734   0.790   2.301  0.5540  0.0439  0.9783
 6403TIP3    H140768   3.711   0.824   2.387  1.4893  0.6152  1.0165
 6403TIP3    H240769   3.744   0.696   2.313 -0.5528 -0.0573  1.2081
 6404TIP3   OH240770   2.265   2.122   1.966 -0.0542 -0.5001 -0.2989
 6404TIP3    H140771   2.272   2.138   1.872  2.3036 -0.6695 -0.2076
 6404TIP3    H240772   2.189   2.064   1.975 -0.6089 -0.0991 -2.0257
 6405TIP3   OH240773   1.492   1.756   2.084 -0.0526  0.7069  0.5723
 6405TIP3    H140774   1.534   1.787   2.004  1.8666  0.1794  1.3230
 6405TIP3    H240775   1.483   1.834   2.138 -0.5231  0.9084  0.2106
 6406TIP3   OH240776   2.356   2.440   2.806  0.2270  0.0669 -0.5880
 6406TIP3    H140777   2.292   2.406   2.869  0.2993 -0.5104 -0.8270
 6406TIP3    H240778   2.304   2.492   2.745  0.2895  1.5681  0.5788
 6407TIP3   OH240779   2.558   5.361   0.687  0.1660  0.0770  0.1802
 6407TIP3    H140780   2.540   5.397   0.774  0.7346 -0.7826  0.6677
 6407TIP3    H240781   2.650   5.335   0.691  0.2833  0.3267 -0.7929
 6408TIP3   OH240782   4.321   4.720   3.866  0.0524  0.0458  0.1435
 6408TIP3    H140783   4.412   4.746   3.881 -0.0538  0.9383 -0.6857
 6408TIP3    H240784   4.328   4.644   3.808  0.2520  0.8682 -0.9452
 6409TIP3   OH240785   5.442   1.886   3.206 -0.5771 -0.1685 -0.0330
 6409TIP3    H140786   5.373   1.928   3.156 -1.6576 -0.5430  1.1084
 6409TIP3    H240787   5.417   1.898   3.297  0.9263 -0.2224  0.4206
 6410TIP3   OH240788   6.429   0.938   3.087  0.3710 -0.1053  0.3673
 6410TIP3    H140789   6.452   1.024   3.051  1.9770 -0.3582  0.7187
 6410TIP3    H240790   6.412   0.884   3.010 -1.5666  0.7341  0.1610
 6411TIP3   OH240791   4.373   6.451   0.089 -0.1731 -0.2667 -0.0852
 6411TIP3    H140792   4.293   6.443   0.142 -0.7865 -1.0613 -1.0901
 6411TIP3    H240793   4.349   6.513   0.020  0.4570  0.3695  0.2558
 6412TIP3   OH240794   1.251   4.608   3.458 -0.0418 -0.2108  0.1354
 6412TIP3    H140795   1.226   4.524   3.496  0.4420  1.0843  3.6627
 6412TIP3    H240796   1.169   4.655   3.446 -0.0881  0.1193  1.6218
 6413TIP3   OH240797   5.934   1.702   3.620 -0.0878  0.3630 -0.4761
 6413TIP3    H140798   5.985   1.655   3.686  2.3192  0.6950 -1.9794
 6413TIP3    H240799   5.873   1.756   3.671 -1.6362 -2.8093  1.3306
 6414TIP3   OH240800   5.753   3.187   1.331 -0.3692 -0.0881  0.1262
 6414TIP3    H140801   5.790   3.270   1.364 -0.0125  0.3104 -1.2300
 6414TIP3    H240802   5.771   3.124   1.401  0.5274  0.6901  0.6306
 6415TIP3   OH240803   3.248   0.708   0.842  0.3611 -0.1907  0.0441
 6415TIP3    H140804   3.156   0.728   0.826  0.2691 -1.6398 -1.5249
 6415TIP3    H240805   3.296   0.770   0.787  0.3170  0.1515  0.3855
 6416TIP3   OH240806   0.809   3.039   3.051 -0.1391  0.1668  0.8724
 6416TIP3    H140807   0.802   3.080   2.965  0.8265  0.4340  0.9120
 6416TIP3    H240808   0.740   2.972   3.051 -0.3076  0.3255 -0.0147
 6417TIP3   OH240809   1.124   4.569   2.821  0.4919 -0.2800 -0.0159
 6417TIP3    H140810   1.110   4.475   2.825 -1.3471 -0.3248 -3.8387
 6417TIP3    H240811   1.063   4.606   2.885  0.3237 -1.5974  0.5990
 6418TIP3   OH240812   2.328   4.861   1.228  0.1993 -0.5531  0.0040
 6418TIP3    H140813   2.325   4.768   1.206 -1.6709 -0.6253  0.4346
 6418TIP3    H240814   2.287   4.866   1.314  0.4731  0.6614  0.0768
 6419TIP3   OH240815   4.658   6.763   3.256  0.1532 -0.2116 -0.4345
 6419TIP3    H140816   4.752   6.746   3.261  0.3675  1.0610  0.1018
 6419TIP3    H240817   4.652   6.854   3.226 -0.8935  0.0352  0.4969
 6420TIP3   OH240818   2.243   6.662   2.152 -0.1826 -0.4031  0.3181
 6420TIP3    H140819   2.150   6.647   2.136 -0.2894 -1.1897  1.5000
 6420TIP3    H240820   2.288   6.601   2.095 -0.2770  1.3318 -1.7379
 6421TIP3   OH240821   5.747   6.805   1.046 -0.2783 -0.0705  0.1604
 6421TIP3    H140822   5.835   6.810   1.008 -0.1485 -0.1173  0.4555
 6421TIP3    H240823   5.732   6.712   1.060 -1.4767 -0.3494 -2.4623
 6422TIP3   OH240824   5.393   2.699   8.280  0.3456  0.2051 -0.3159
 6422TIP3    H140825   5.411   2.793   8.286  2.4658 -0.1804  0.2976
 6422TIP3    H240826   5.437   2.662   8.357  0.6103 -1.4221 -1.2150
 6423TIP3   OH240827   6.879   6.284   2.710 -0.4272  0.1164 -0.0717
 6423TIP3    H140828   6.932   6.267   2.631  3.0290  0.8090  1.8810
 6423TIP3    H240829   6.841   6.199   2.732  0.2513 -0.5556 -1.3640
 6424TIP3   OH240830   4.844   3.016   1.391  0.2539 -0.6808 -0.2024
 6424TIP3    H140831   4.881   2.937   1.351 -0.1455 -0.6686 -0.6078
 6424TIP3    H240832   4.772   3.041   1.332 -0.2854 -0.6054  0.4768
 6425TIP3   OH240833   2.898   3.354   0.631 -0.2832 -0.5488  0.6457
 6425TIP3    H140834   2.957   3.381   0.702  0.8736 -1.8054  0.2097
 6425TIP3    H240835   2.950   3.364   0.551 -0.8434 -1.1565  0.1937
 6426TIP3   OH240836   5.600   1.526   4.469  0.2828  0.0488 -1.3211
 6426TIP3    H140837   5.605   1.605   4.522 -0.4022 -0.8640  0.1801
 6426TIP3    H240838   5.660   1.465   4.513 -1.4230 -1.2238 -0.6482
 6427TIP3   OH240839   5.244   3.416   0.669  0.3539  0.1671  0.8166
 6427TIP3    H140840   5.236   3.457   0.583 -0.0950 -1.6780 -0.0663
 6427TIP3    H240841   5.155   3.411   0.702  0.2001 -1.2624  0.2933
 6428TIP3   OH240842   6.424   4.354   4.163 -0.2108  0.2045 -0.2529
 6428TIP3    H140843   6.443   4.422   4.098  1.4132 -0.4637 -0.5251
 6428TIP3    H240844   6.506   4.306   4.172 -1.3049 -1.7598 -0.1123
 6429TIP3   OH240845   5.756   3.272   3.035 -0.8607 -0.4104 -0.0257
 6429TIP3    H140846   5.826   3.248   2.974 -0.2903  0.3469  0.3108
 6429TIP3    H240847   5.689   3.313   2.979 -1.1122 -1.2724 -0.3694
 6430TIP3   OH240848   4.353   4.920   7.960 -0.1864  0.2516 -0.3782
 6430TIP3    H140849   4.296   4.915   7.883 -0.2944 -0.5870 -0.2616
 6430TIP3    H240850   4.295   4.903   8.034 -0.4250  2.8160  0.0906
 6431TIP3   OH240851   6.467   1.600   2.525 -0.3799 -0.8823 -0.2015
 6431TIP3    H140852   6.490   1.559   2.442  1.2734 -0.2238 -0.1068
 6431TIP3    H240853   6.475   1.694   2.509  3.0427 -0.7240  1.3958
 6432TIP3   OH240854   1.898   3.896   2.853 -0.3996  0.3919 -0.1281
 6432TIP3    H140855   1.823   3.924   2.906 -0.1649 -0.7198  0.8232
 6432TIP3    H240856   1.973   3.941   2.893 -0.2032 -0.5508  0.6029
 6433TIP3   OH240857   3.415   4.838   1.484 -0.3016 -0.0340 -0.4416
 6433TIP3    H140858   3.323   4.849   1.506  0.0275 -0.8380  1.5074
 6433TIP3    H240859   3.436   4.912   1.427 -1.7866  0.9394  0.2398
 6434TIP3   OH240860   4.720   2.919   0.632  0.2405  0.4546  0.9925
 6434TIP3    H140861   4.812   2.927   0.657  0.1228  0.1138  1.5355
 6434TIP3    H240862   4.675   2.987   0.682  0.2275  0.8022  0.5245
 6435TIP3   OH240863   6.116   4.373   1.291  0.3186  0.2880  0.4267
 6435TIP3    H140864   6.169   4.421   1.355  0.0301  2.3696 -0.8090
 6435TIP3    H240865   6.172   4.367   1.214 -0.2614  0.1041  0.0150
 6436TIP3   OH240866   1.810   1.509   0.448 -0.5946  0.1127  0.1488
 6436TIP3    H140867   1.737   1.464   0.405 -1.6321  1.4164  0.5065
 6436TIP3    H240868   1.886   1.454   0.429 -1.5614 -0.9709 -0.7165
 6437TIP3   OH240869   6.199   0.685   0.760 -0.3098 -0.0377 -0.9042
 6437TIP3    H140870   6.147   0.743   0.815 -1.3563 -1.1033 -0.7376
 6437TIP3    H240871   6.256   0.639   0.821 -2.3019 -2.1027 -0.4578
 6438TIP3   OH240872   5.239   6.498   3.113  0.3871 -0.1573  0.7548
 6438TIP3    H140873   5.334   6.505   3.104  0.4757 -1.2434  0.7993
 6438TIP3    H240874   5.223   6.406   3.135 -0.6371  0.1191  1.2355
 6439TIP3   OH240875   4.534   1.418   2.056 -0.2801 -0.1787 -0.1920
 6439TIP3    H140876   4.523   1.332   2.095 -1.0642 -0.0085 -0.0253
 6439TIP3    H240877   4.601   1.406   1.989 -0.5375 -0.9546 -0.3128
 6440TIP3   OH240878   3.237   5.019   2.269 -0.1151  0.5919 -0.1843
 6440TIP3    H140879   3.327   5.024   2.302 -0.5280 -1.4200  1.4136
 6440TIP3    H240880   3.187   5.077   2.327 -0.2144 -0.0343  0.3601
 6441TIP3   OH240881   0.293   0.433   2.128 -0.0454  0.1919 -0.4208
 6441TIP3    H140882   0.315   0.513   2.080 -0.5561 -0.1917 -1.3056
 6441TIP3    H240883   0.337   0.363   2.081  0.2302 -0.0842  0.2316
 6442TIP3   OH240884   0.897   6.540   4.019 -0.3285  0.0711  0.3175
 6442TIP3    H140885   0.967   6.475   4.022 -1.0073 -0.6424  0.6383
 6442TIP3    H240886   0.942   6.620   3.991  0.2696 -0.8427 -1.5004
 6443TIP3   OH240887   5.547   1.896   2.202 -0.2168 -0.4569 -0.5617
 6443TIP3    H140888   5.563   1.918   2.110  1.0993  0.8902 -0.0413
 6443TIP3    H240889   5.460   1.932   2.219 -0.4550 -0.6768 -1.2649
 6444TIP3   OH240890   1.594   0.576   3.818  0.3242  0.5559 -0.3919
 6444TIP3    H140891   1.555   0.573   3.906  1.3315  3.0191  0.2076
 6444TIP3    H240892   1.519   0.565   3.759 -0.6099  0.4696  0.7667
 6445TIP3   OH240893   2.243   3.995   2.215 -0.3980  0.0193 -0.1130
 6445TIP3    H140894   2.319   4.048   2.189 -0.0807 -0.2109  0.3330
 6445TIP3    H240895   2.280   3.926   2.271 -1.0209  0.3410  0.7197
 6446TIP3   OH240896   5.892   1.399   2.558 -0.1433 -0.0929  0.1935
 6446TIP3    H140897   5.856   1.385   2.646 -0.0357 -0.9033  0.1225
 6446TIP3    H240898   5.826   1.360   2.500  0.8995 -1.7996  0.0707
 6447TIP3   OH240899   5.627   5.724   1.734 -0.3284  0.0280  0.0232
 6447TIP3    H140900   5.576   5.680   1.801 -0.3823  1.4634  0.9706
 6447TIP3    H240901   5.597   5.815   1.735  1.7317  0.7806  0.1444
 6448TIP3   OH240902   2.922   0.096   3.562  0.4063 -0.4287 -0.5302
 6448TIP3    H140903   2.899   0.115   3.653  0.5775 -0.4978 -0.4716
 6448TIP3    H240904   2.954   0.180   3.528 -1.7851  0.2091 -1.2096
 6449TIP3   OH240905   5.526   1.055   1.438  0.6969  0.1669 -0.7578
 6449TIP3    H140906   5.515   1.004   1.358  0.8881  2.3757 -2.2776
 6449TIP3    H240907   5.619   1.077   1.440  0.3581  1.7392 -1.0175
 6450TIP3   OH240908   0.883   4.566   0.481 -0.5482 -0.0555  1.0103
 6450TIP3    H140909   0.830   4.562   0.561 -2.2006 -1.1288 -0.0916
 6450TIP3    H240910   0.833   4.518   0.416  1.5734 -0.7163 -0.2428
 6451TIP3   OH240911   0.537   5.925   2.451 -0.7024 -0.0345  0.0800
 6451TIP3    H140912   0.448   5.914   2.485 -0.1858 -1.2365  1.1134
 6451TIP3    H240913   0.564   6.011   2.483 -0.7008 -0.5951  1.7204
 6452TIP3   OH240914   5.228   5.880   2.757 -0.3163 -0.1927 -0.3213
 6452TIP3    H140915   5.145   5.872   2.709 -0.6250  0.0376  0.1664
 6452TIP3    H240916   5.219   5.818   2.830 -0.5463  0.6796  0.4081
 6453TIP3   OH240917   0.228   5.424   1.782 -0.2635  0.4476  0.4761
 6453TIP3    H140918   0.266   5.343   1.749 -0.8963  0.7549 -1.1229
 6453TIP3    H240919   0.155   5.397   1.838 -0.1782 -0.0947  0.3213
 6454TIP3   OH240920   3.771   0.589   1.989 -0.1494 -0.5245 -0.0971
 6454TIP3    H140921   3.828   0.533   2.042 -1.3036 -3.5181 -1.8093
 6454TIP3    H240922   3.769   0.548   1.903 -3.9114  0.0756 -0.4706
 6455TIP3   OH240923   1.834   5.611   3.182 -0.3656 -0.0562 -0.3555
 6455TIP3    H140924   1.879   5.533   3.212 -1.1162 -0.6565 -0.7531
 6455TIP3    H240925   1.833   5.669   3.258 -1.7142 -1.3116  0.6423
 6456TIP3   OH240926   3.469   3.199   0.790  0.1531  0.8586  0.2770
 6456TIP3    H140927   3.516   3.188   0.707 -0.2948  1.8035 -0.1087
 6456TIP3    H240928   3.415   3.276   0.777 -0.3875  0.6533  1.2448
 6457TIP3   OH240929   6.459   4.590   1.906 -0.3046 -0.0120 -0.3680
 6457TIP3    H140930   6.495   4.659   1.850  0.5449  1.0558  1.3799
 6457TIP3    H240931   6.383   4.630   1.947 -0.4774 -0.5001 -0.2039
 6458TIP3   OH240932   4.887   0.950   3.110 -0.6877  0.8679  0.9056
 6458TIP3    H140933   4.926   0.872   3.071  0.9475  2.3271 -0.4999
 6458TIP3    H240934   4.824   0.915   3.174 -0.8191 -1.5837 -0.4349
 6459TIP3   OH240935   2.944   0.835   8.256  0.4574  0.0467 -0.1944
 6459TIP3    H140936   2.961   0.754   8.207  0.3389 -0.1103  0.0236
 6459TIP3    H240937   3.031   0.867   8.280  0.4848 -0.3502  0.2578
 6460TIP3   OH240938   0.102   2.446   0.985  0.8605 -0.2452  0.5892
 6460TIP3    H140939   0.188   2.424   0.950 -0.1693 -1.9538 -1.0143
 6460TIP3    H240940   0.080   2.372   1.042 -0.3144 -0.7911 -0.5224
 6461TIP3   OH240941   1.295   2.901   1.294 -0.2691  0.2391  0.4111
 6461TIP3    H140942   1.342   2.877   1.374 -0.2172  0.3990  0.4294
 6461TIP3    H240943   1.362   2.940   1.238 -0.3731  0.4461  0.4285
 6462TIP3   OH240944   4.735   0.789   2.670  0.2122  0.4030  0.1936
 6462TIP3    H140945   4.772   0.733   2.601 -0.7639 -1.2458  0.9393
 6462TIP3    H240946   4.644   0.802   2.644 -0.0635  0.0752  0.9559
 6463TIP3   OH240947   4.667   0.301   3.308  0.7066  0.3009 -0.5218
 6463TIP3    H140948   4.638   0.390   3.287  0.5220  0.3923  0.1007
 6463TIP3    H240949   4.625   0.282   3.392  1.0564 -0.2287 -0.4684
 6464TIP3   OH240950   2.470   1.425   2.215 -0.0198 -0.1545  0.6698
 6464TIP3    H140951   2.415   1.441   2.139  0.3621 -1.2165  0.1453
 6464TIP3    H240952   2.423   1.360   2.266 -1.0868  1.7513  2.2574
 6465TIP3   OH240953   3.005   6.480   3.457  0.2076  0.0952  0.8818
 6465TIP3    H140954   2.988   6.573   3.439 -0.1041 -0.2009 -0.4552
 6465TIP3    H240955   2.919   6.438   3.453  0.5345 -0.5183 -0.3171
 6466TIP3   OH240956   2.200   4.689   8.172 -0.3114  0.0261 -0.0275
 6466TIP3    H140957   2.153   4.770   8.151 -1.2358 -0.3038  0.7548
 6466TIP3    H240958   2.186   4.676   8.265  0.7617 -0.4599  0.0797
 6467TIP3   OH240959   2.008   1.693   2.964  0.5547 -1.2737 -0.1520
 6467TIP3    H140960   2.016   1.741   2.881  0.7829 -0.0577  0.5456
 6467TIP3    H240961   1.929   1.728   3.005  1.2519 -0.7895  0.8074
 6468TIP3   OH240962   0.506   3.124   2.279 -0.1730 -0.0192 -0.6090
 6468TIP3    H140963   0.478   3.215   2.287 -0.3294 -0.1776  1.1291
 6468TIP3    H240964   0.424   3.074   2.273 -0.2234 -0.2268  1.2153
 6469TIP3   OH240965   4.398   1.014   3.466 -0.0917  0.0301  0.0818
 6469TIP3    H140966   4.329   1.076   3.441  1.8448  2.8522  1.2083
 6469TIP3    H240967   4.449   1.001   3.386 -0.8223 -0.6067 -0.2950
 6470TIP3   OH240968   1.154   6.587   3.480  0.0829  0.0502  0.8505
 6470TIP3    H140969   1.121   6.510   3.526 -1.4992  1.1749  1.6953
 6470TIP3    H240970   1.249   6.579   3.485 -0.0280 -2.0087  0.5942
 6471TIP3   OH240971   0.666   6.457   8.343 -0.1322  0.0059 -0.1493
 6471TIP3    H140972   0.600   6.436   8.277 -1.9030  1.4155  1.0398
 6471TIP3    H240973   0.740   6.400   8.323 -1.8267 -1.9196 -1.3874
 6472TIP3   OH240974   3.970   0.698   1.612  0.3625 -0.1965 -0.3075
 6472TIP3    H140975   3.941   0.637   1.680 -1.9755  1.2370  0.0923
 6472TIP3    H240976   4.054   0.663   1.583 -0.6479 -3.3563  0.1641
 6473TIP3   OH240977   6.521   1.409   8.125  0.5138  0.1584  0.0629
 6473TIP3    H140978   6.606   1.451   8.110 -0.1749  1.1876 -1.2052
 6473TIP3    H240979   6.457   1.478   8.107 -0.6053 -0.7141  0.5998
 6474TIP3   OH240980   2.036   2.901   4.156 -0.2380  0.6954  0.6457
 6474TIP3    H140981   1.985   2.962   4.103  0.7974  0.5358 -0.5771
 6474TIP3    H240982   1.989   2.817   4.148  0.2771  0.5081 -0.6080
 6475TIP3   OH240983   3.880   2.177   2.631  0.3291 -0.0749 -0.6827
 6475TIP3    H140984   3.836   2.164   2.547  2.3426 -1.2918 -1.6290
 6475TIP3    H240985   3.861   2.267   2.655  0.3928  0.5818 -2.9016
 6476TIP3   OH240986   3.304   3.556   0.727  0.1041  0.1669  0.3275
 6476TIP3    H140987   3.364   3.629   0.742 -0.8344  0.8145  1.0606
 6476TIP3    H240988   3.292   3.553   0.632  3.2440 -1.5995 -0.1357
 6477TIP3   OH240989   0.450   1.452   2.669 -0.3839 -0.3496 -0.1695
 6477TIP3    H140990   0.470   1.417   2.755  1.4105 -0.4002 -0.5489
 6477TIP3    H240991   0.355   1.465   2.668 -0.7423 -2.5387  0.9684
 6478TIP3   OH240992   3.219   6.538   0.693  0.4790 -0.0771 -0.2406
 6478TIP3    H140993   3.262   6.452   0.686 -1.8472 -1.3651  0.2664
 6478TIP3    H240994   3.233   6.564   0.784  0.7406 -0.1481 -0.2585
 6479TIP3   OH240995   5.895   1.059   2.451  0.1020  0.0295 -0.0859
 6479TIP3    H140996   5.952   1.064   2.527  2.7076  1.4351 -1.9803
 6479TIP3    H240997   5.827   1.124   2.466 -0.2501 -0.6848  1.5970
 6480TIP3   OH240998   2.513   4.747   2.190  0.0770  0.4037  0.3113
 6480TIP3    H140999   2.572   4.808   2.234  1.9664 -1.4710  0.5984
 6480TIP3    H241000   2.536   4.661   2.228 -3.0165 -0.4177  0.5434
 6481TIP3   OH241001   6.295   3.146   1.550  0.2920 -0.2878  0.0083
 6481TIP3    H141002   6.283   3.238   1.527  1.7787 -0.2996 -0.9530
 6481TIP3    H241003   6.248   3.098   1.482 -0.2504 -0.2508  0.3526
 6482TIP3   OH241004   2.114   6.475   2.782 -0.3466  0.1671  0.4757
 6482TIP3    H141005   2.180   6.416   2.819  0.4756  0.8036  0.0737
 6482TIP3    H241006   2.117   6.552   2.839  0.0650  0.6554 -0.1973
 6483TIP3   OH241007   6.603   0.920   1.631 -0.0931  0.0837 -0.2098
 6483TIP3    H141008   6.615   0.878   1.716 -0.3012  0.3841 -0.0309
 6483TIP3    H241009   6.692   0.934   1.598 -0.0246 -0.6488 -0.3483
 6484TIP3   OH241010   6.754   3.970   2.372  0.5814  0.2921 -0.0384
 6484TIP3    H141011   6.805   4.007   2.300  0.6140  0.0555 -0.1386
 6484TIP3    H241012   6.774   3.876   2.370  2.1855  0.5597  1.5688
 6485TIP3   OH241013   5.756   4.807   2.324 -0.1232  0.0901 -0.6419
 6485TIP3    H141014   5.727   4.899   2.321 -2.0246 -0.4370  0.0523
 6485TIP3    H241015   5.676   4.757   2.310  0.1106 -1.5351  2.9573
 6486TIP3   OH241016   1.536   5.273   3.517  1.0542 -0.0109  0.3712
 6486TIP3    H141017   1.500   5.198   3.564 -0.7348  0.1365 -0.6679
 6486TIP3    H241018   1.522   5.347   3.576  0.8484 -0.1560  0.5063
 6487TIP3   OH241019   2.394   5.187   4.195  0.1444  0.3076 -0.5083
 6487TIP3    H141020   2.316   5.181   4.250  0.5885  1.6041  0.3049
 6487TIP3    H241021   2.420   5.096   4.181 -2.0900 -0.2396 -1.6924
 6488TIP3   OH241022   6.839   3.434   1.269  0.4707  0.4972 -0.5991
 6488TIP3    H141023   6.908   3.420   1.204  1.2709 -0.3487  0.4008
 6488TIP3    H241024   6.758   3.407   1.225  1.3486 -3.0583 -0.3134
 6489TIP3   OH241025   2.680   4.074   1.346  0.8888  0.0959  0.0620
 6489TIP3    H141026   2.632   3.995   1.322 -0.5871  1.1501 -0.5587
 6489TIP3    H241027   2.674   4.077   1.442 -0.9020  0.5737 -0.0487
 6490TIP3   OH241028   3.440   4.794   2.082 -0.2993  0.3317  0.1086
 6490TIP3    H141029   3.459   4.865   2.143 -0.4433  1.2784 -0.8917
 6490TIP3    H241030   3.445   4.836   1.996 -0.4384 -0.8758 -0.5027
 6491TIP3   OH241031   2.185   2.260   4.091  0.3443 -0.2557 -0.6668
 6491TIP3    H141032   2.121   2.310   4.141 -1.0021 -0.8902 -1.6732
 6491TIP3    H241033   2.149   2.171   4.088  2.0206 -0.9957 -0.0309
 6492TIP3   OH241034   6.235   2.216   1.600  0.5873  0.1722  0.2763
 6492TIP3    H141035   6.155   2.163   1.600  0.6693  0.0492  0.3364
 6492TIP3    H241036   6.209   2.297   1.643  1.1493 -0.8705  2.7359
 6493TIP3   OH241037   1.372   1.510   1.969 -0.1334  0.4227 -0.8635
 6493TIP3    H141038   1.291   1.556   1.947 -0.5346  1.2070  1.8223
 6493TIP3    H241039   1.410   1.562   2.041  0.9937 -1.7521  0.2202
 6494TIP3   OH241040   4.189   4.746   1.725  0.1578 -0.1219 -0.3517
 6494TIP3    H141041   4.278   4.747   1.760 -0.2790 -1.3042  0.9108
 6494TIP3    H241042   4.155   4.833   1.742 -0.3085 -0.8404  3.0912
 6495TIP3   OH241043   6.946   1.848   1.292  0.2340 -0.0055  0.3670
 6495TIP3    H141044   6.987   1.811   1.214  0.6713  0.9871  0.1138
 6495TIP3    H241045   6.852   1.844   1.273  0.2624 -1.0681  0.3964
 6496TIP3   OH241046   4.829   3.798   1.086  0.4746 -0.1534 -0.3712
 6496TIP3    H141047   4.844   3.889   1.112 -0.2157 -1.0850  4.1232
 6496TIP3    H241048   4.733   3.791   1.082  0.5301 -0.5201 -1.8709
 6497TIP3   OH241049   6.613   4.212   3.871  0.1962  0.0301 -0.7639
 6497TIP3    H141050   6.587   4.143   3.932  0.9099 -1.3073 -1.9049
 6497TIP3    H241051   6.541   4.275   3.873 -0.1444 -0.3745  0.8503
 6498TIP3   OH241052   6.308   0.525   2.472 -0.1663  0.0907 -0.0556
 6498TIP3    H141053   6.358   0.605   2.453  1.4057 -0.6582  0.7530
 6498TIP3    H241054   6.217   0.551   2.461  0.3320  1.8165 -0.4730
 6499TIP3   OH241055   4.997   5.447   1.112  0.0206  0.0096 -0.6908
 6499TIP3    H141056   4.905   5.440   1.138  0.0003  0.7351 -0.5484
 6499TIP3    H241057   4.999   5.520   1.050  0.8442  1.4593  0.9811
 6500TIP3   OH241058   3.539   0.597   2.618  0.2307 -0.4037  0.2770
 6500TIP3    H141059   3.519   0.685   2.587 -1.1934 -1.1142 -0.9444
 6500TIP3    H241060   3.491   0.539   2.559  2.3325 -2.0886  0.0931
 6501TIP3   OH241061   6.537   2.569   2.975 -0.0974 -0.0837  0.2865
 6501TIP3    H141062   6.616   2.535   3.017  0.5193  0.4100 -0.4499
 6501TIP3    H241063   6.473   2.499   2.985  0.4329 -0.4990  0.8715
 6502TIP3   OH241064   1.307   1.580   4.122  0.0989  0.3176 -0.0791
 6502TIP3    H141065   1.298   1.607   4.213  2.3816  1.0167 -0.0015
 6502TIP3    H241066   1.281   1.656   4.071 -2.3995 -0.4733 -0.1087
 6503TIP3   OH241067   5.927   2.629   1.522  0.7330 -0.2482 -0.1504
 6503TIP3    H141068   5.981   2.707   1.516 -1.5374  1.4812  0.4899
 6503TIP3    H241069   5.929   2.606   1.615  0.0009  0.1039 -0.0463
 6504TIP3   OH241070   6.926   4.086   0.900  0.1783 -0.2579  0.1175
 6504TIP3    H141071   6.867   4.160   0.903  0.9391  0.3277  1.2888
 6504TIP3    H241072   6.979   4.093   0.979  2.3686 -0.2815 -1.2441
 6505TIP3   OH241073   2.034   0.601   1.546 -0.2323 -0.1380 -0.3175
 6505TIP3    H141074   2.102   0.619   1.611  2.4930 -0.4365 -2.8325
 6505TIP3    H241075   2.062   0.650   1.469 -1.4916 -2.2905 -2.2784
 6506TIP3   OH241076   6.644   4.720   3.814 -0.2092 -0.0869  0.3708
 6506TIP3    H141077   6.682   4.648   3.864  1.3088  0.4160 -0.0103
 6506TIP3    H241078   6.625   4.787   3.879  0.1585 -0.0966  0.4901
 6507TIP3   OH241079   4.837   6.800   0.912  0.1726  0.4964  0.4519
 6507TIP3    H141080   4.931   6.818   0.916 -0.0159  1.4761  0.7487
 6507TIP3    H241081   4.805   6.817   1.000 -0.3571  0.5789  0.2500
 6508TIP3   OH241082   2.523   5.194   1.540 -0.1053  0.4379  0.1657
 6508TIP3    H141083   2.466   5.243   1.481  0.3544  2.4200  1.2927
 6508TIP3    H241084   2.611   5.221   1.517  0.2770 -0.8927 -0.0427
 6509TIP3   OH241085   4.374   1.492   3.144 -0.1235 -0.3641  0.0239
 6509TIP3    H141086   4.322   1.493   3.064  2.0284  0.3657 -1.4718
 6509TIP3    H241087   4.449   1.436   3.123  0.1203 -0.7541  1.7925
 6510TIP3   OH241088   5.048   5.682   0.967  0.0868  1.0804 -0.2688
 6510TIP3    H141089   5.061   5.743   0.895 -0.8555  1.4780 -0.1101
 6510TIP3    H241090   4.965   5.709   1.007  0.9066  1.2794  1.3695
 6511TIP3   OH241091   0.908   3.279   2.636 -0.3341 -0.1550 -0.3157
 6511TIP3    H141092   0.902   3.239   2.549  2.2943 -0.3789 -0.4934
 6511TIP3    H241093   0.901   3.206   2.697 -0.8924 -0.1676 -0.3934
 6512TIP3   OH241094   6.337   3.452   0.093 -0.2516  0.4389 -0.0086
 6512TIP3    H141095   6.245   3.449   0.120 -0.0066 -2.1362  0.8619
 6512TIP3    H241096   6.377   3.515   0.153 -0.7136 -1.4915  2.5186
 6513TIP3   OH241097   0.043   6.003   0.666 -0.5194 -0.3102 -0.1198
 6513TIP3    H141098   0.134   5.976   0.654 -0.8922 -1.2490 -0.9737
 6513TIP3    H241099   0.049   6.081   0.722  0.9382  0.6569 -1.4910
 6514TIP3   OH241100   6.845   2.352   0.570  0.4635 -0.1623 -0.0885
 6514TIP3    H141101   6.797   2.402   0.635  0.2043 -0.5387  0.0131
 6514TIP3    H241102   6.926   2.326   0.614 -0.3253 -1.6258  0.5876
 6515TIP3   OH241103   3.677   0.188   3.048  0.3139 -1.0254 -0.3683
 6515TIP3    H141104   3.587   0.187   3.018  0.2581  1.0554 -0.4414
 6515TIP3    H241105   3.675   0.145   3.134 -0.6509 -1.3951 -0.5711
 6516TIP3   OH241106   1.017   5.448   2.167  0.4197  0.0618 -0.1365
 6516TIP3    H141107   0.928   5.425   2.138  0.6129  0.0816 -0.7495
 6516TIP3    H241108   1.061   5.478   2.087  1.1952 -0.6122  0.0326
 6517TIP3   OH241109   3.156   5.866   3.429 -0.3579 -0.1583  0.9324
 6517TIP3    H141110   3.119   5.867   3.517 -0.4708 -1.4392  0.9232
 6517TIP3    H241111   3.122   5.785   3.390  1.4891 -0.7746  0.4974
 6518TIP3   OH241112   0.179   4.184   3.738 -0.3039  0.2827  0.0519
 6518TIP3    H141113   0.273   4.198   3.752  0.5180 -2.4964 -1.8640
 6518TIP3    H241114   0.146   4.269   3.709  1.2541  1.7140  2.1379
 6519TIP3   OH241115   3.271   3.554   4.529  0.4322 -0.0755  0.4331
 6519TIP3    H141116   3.234   3.467   4.540  1.2475 -0.3607  1.0839
 6519TIP3    H241117   3.360   3.539   4.498  0.2026  0.5709 -0.5716
 6520TIP3   OH241118   6.451   6.026   4.153  0.0899 -0.8242 -0.2926
 6520TIP3    H141119   6.359   6.038   4.175  0.7264  0.9099  1.7178
 6520TIP3    H241120   6.492   5.996   4.234  1.5823  0.0838 -0.6725
 6521TIP3   OH241121   5.643   0.147   0.678 -0.8769  0.2310  0.3590
 6521TIP3    H141122   5.693   0.185   0.751 -0.0759 -1.0874  0.5413
 6521TIP3    H241123   5.553   0.173   0.695 -0.3833  1.9235  0.5181
 6522TIP3   OH241124   1.937   5.743   3.476  0.1222  0.4926  0.3167
 6522TIP3    H141125   2.021   5.697   3.478 -0.1658 -0.1142 -0.7187
 6522TIP3    H241126   1.923   5.772   3.566 -0.3359 -2.6045  1.3351
 6523TIP3   OH241127   1.169   6.846   1.142 -0.0480  0.7412  0.4643
 6523TIP3    H141128   1.079   6.833   1.173 -0.2456 -1.0652 -0.7254
 6523TIP3    H241129   1.190   6.936   1.166 -2.3896  1.4011  0.2238
 6524TIP3   OH241130   2.116   2.850   1.615 -0.4637  0.1391  0.0501
 6524TIP3    H141131   2.041   2.907   1.595  1.5026  2.8828 -0.0329
 6524TIP3    H241132   2.159   2.891   1.690  0.2266 -2.1643  1.0014
 6525TIP3   OH241133   2.898   3.478   0.938 -0.2267  0.1873 -0.0026
 6525TIP3    H141134   2.821   3.501   0.886 -1.1126  0.2356  1.3088
 6525TIP3    H241135   2.937   3.562   0.962  0.0456  0.1681 -0.3603
 6526TIP3   OH241136   3.556   3.823   3.997 -0.2456 -0.2159  0.0111
 6526TIP3    H141137   3.566   3.915   4.020 -1.9105  0.2014 -0.7738
 6526TIP3    H241138   3.631   3.780   4.037  0.9974  1.5951 -0.2704
 6527TIP3   OH241139   4.409   6.489   2.022 -0.9593  0.2557  0.1373
 6527TIP3    H141140   4.429   6.563   1.965 -3.3754  0.2210 -0.8795
 6527TIP3    H241141   4.416   6.412   1.966 -0.2607 -0.1356  0.7307
 6528TIP3   OH241142   3.855   2.558   2.158  0.3291  0.6184  0.2021
 6528TIP3    H141143   3.812   2.586   2.239 -0.6562 -2.0301  0.6973
 6528TIP3    H241144   3.946   2.586   2.168 -0.5507  3.9050  0.3536
 6529TIP3   OH241145   6.247   5.245   3.593  0.1284 -0.1201  0.9746
 6529TIP3    H141146   6.164   5.208   3.562  0.0662  0.3277  0.5789
 6529TIP3    H241147   6.223   5.295   3.671 -0.1456  0.8010  0.3145
 6530TIP3   OH241148   5.586   1.592   1.683  0.2065  0.0174 -0.1464
 6530TIP3    H141149   5.598   1.579   1.588 -2.5188 -0.6525 -0.5055
 6530TIP3    H241150   5.670   1.569   1.721  1.0543 -0.8394 -2.3378
 6531TIP3   OH241151   2.717   5.927   1.118  0.0339  0.2046 -1.0886
 6531TIP3    H141152   2.649   5.870   1.082 -1.1923  0.6584  0.3822
 6531TIP3    H241153   2.774   5.947   1.044  0.5087 -2.8744 -1.6715
 6532TIP3   OH241154   5.159   6.090   3.751 -0.0638  0.1909 -0.0298
 6532TIP3    H141155   5.125   6.041   3.826 -0.4925 -1.0971 -1.0441
 6532TIP3    H241156   5.166   6.180   3.783  0.2971 -0.4261  1.7315
 6533TIP3   OH241157   0.050   6.169   3.751 -0.4032 -0.3699 -0.0401
 6533TIP3    H141158   0.080   6.198   3.837 -0.7363 -2.3789  0.8237
 6533TIP3    H241159  -0.045   6.162   3.759 -0.2898 -2.5144  0.1614
 6534TIP3   OH241160   4.478   6.882   0.995 -0.1385 -0.2046  0.0138
 6534TIP3    H141161   4.489   6.901   0.902  1.5954  0.7816  0.3728
 6534TIP3    H241162   4.465   6.787   1.000  0.4290 -0.3519 -1.1647
 6535TIP3   OH241163   5.516   5.053   2.116 -0.7454  0.6597 -0.1152
 6535TIP3    H141164   5.474   4.975   2.081 -0.2099  0.1345  0.3732
 6535TIP3    H241165   5.542   5.028   2.204 -0.8529  1.5043  0.1617
 6536TIP3   OH241166   1.150   0.463   8.300  0.4296  0.0493 -0.6038
 6536TIP3    H141167   1.152   0.369   8.319 -2.0522  0.1037  0.3895
 6536TIP3    H241168   1.162   0.469   8.206  1.7580 -1.1506 -0.5497
 6537TIP3   OH241169   2.740   3.041   7.865  0.2999  0.0097 -0.3965
 6537TIP3    H141170   2.821   3.037   7.816  1.0335 -0.9944  0.8298
 6537TIP3    H241171   2.767   3.050   7.957 -1.0013  1.1456 -0.0826
 6538TIP3   OH241172   6.739   1.147   2.146  0.6099 -0.3631 -0.3942
 6538TIP3    H141173   6.788   1.220   2.185  1.1348 -1.2145  0.5865
 6538TIP3    H241174   6.667   1.132   2.207  2.1306 -2.5102  1.0168
 6539TIP3   OH241175   1.168   2.701   1.576  0.3778 -0.3603 -0.5971
 6539TIP3    H141176   1.126   2.678   1.659 -0.4667  0.2511 -0.8331
 6539TIP3    H241177   1.098   2.694   1.511  0.5055  1.0904 -0.9364
 6540TIP3   OH241178   5.804   3.133   1.068  0.2865 -0.1584  0.3173
 6540TIP3    H141179   5.803   3.153   1.162  0.6995  1.3564  0.0187
 6540TIP3    H241180   5.741   3.061   1.059 -2.3831  1.8836  1.2758
 6541TIP3   OH241181   1.283   6.014   2.614 -0.2303  0.5933  0.0941
 6541TIP3    H141182   1.262   6.100   2.651 -2.3502 -0.2570  1.0380
 6541TIP3    H241183   1.259   6.021   2.522 -3.4551  0.1776  0.7875
 6542TIP3   OH241184   2.793   2.868   3.797 -0.2282 -0.4276  0.2545
 6542TIP3    H141185   2.828   2.898   3.713 -0.9085  0.2089  0.1913
 6542TIP3    H241186   2.714   2.921   3.811  1.1310  1.2011  2.4195
 6543TIP3   OH241187   5.421   5.631   0.797  0.3516  0.5531  0.2780
 6543TIP3    H141188   5.428   5.560   0.734 -0.2472  0.8469 -0.1273
 6543TIP3    H241189   5.435   5.711   0.746 -0.4430  0.8142  0.4406
 6544TIP3   OH241190   5.363   5.055   2.442 -0.1555 -0.3549  0.3420
 6544TIP3    H141191   5.403   5.139   2.421 -1.7779  0.5383  0.6877
 6544TIP3    H241192   5.418   4.991   2.396  0.7465  0.9230 -0.4450
 6545TIP3   OH241193   5.578   2.111   0.831  0.4014 -0.1269  0.3423
 6545TIP3    H141194   5.668   2.078   0.836  0.5679  0.0934 -0.8671
 6545TIP3    H241195   5.588   2.204   0.810 -0.0965 -0.3381 -0.9207
 6546TIP3   OH241196   5.323   6.224   1.060  0.1652  0.4188  0.2796
 6546TIP3    H141197   5.351   6.301   1.011 -2.4425  1.6268  0.5252
 6546TIP3    H241198   5.228   6.222   1.049 -0.1586 -1.1042  2.6509
 6547TIP3   OH241199   0.752   5.960   0.991  0.0842 -0.0438  0.3472
 6547TIP3    H141200   0.735   6.017   0.916  0.5524 -0.9252 -0.4427
 6547TIP3    H241201   0.807   6.014   1.049 -1.3054  1.0877  0.6709
 6548TIP3   OH241202   3.832   6.540   2.742 -0.1506 -0.6431 -1.1597
 6548TIP3    H141203   3.839   6.584   2.827 -0.8009  0.5087 -1.6848
 6548TIP3    H241204   3.781   6.461   2.760  0.6399 -0.9706 -0.2894
 6549TIP3   OH241205   1.547   6.066   1.091  0.7894 -0.3059  0.3353
 6549TIP3    H141206   1.569   5.988   1.142  2.2635 -0.8022 -0.9804
 6549TIP3    H241207   1.475   6.039   1.034  2.1113 -1.1638 -1.0190
 6550TIP3   OH241208   5.061   3.473   8.401  0.9878 -0.1144 -0.1033
 6550TIP3    H141209   5.001   3.521   8.458  1.4410 -0.5481  0.7409
 6550TIP3    H241210   5.047   3.513   8.314  1.7789  1.9905  0.6678
 6551TIP3   OH241211   1.233   6.607   2.222 -0.1483 -0.1977  0.2862
 6551TIP3    H141212   1.139   6.596   2.206 -0.2412  1.3544 -0.4085
 6551TIP3    H241213   1.238   6.640   2.311 -0.3296  0.5198  0.0347
 6552TIP3   OH241214   6.744   0.539   2.553  0.0383  0.4359  0.2730
 6552TIP3    H141215   6.682   0.479   2.595 -1.2963  1.8028  0.3386
 6552TIP3    H241216   6.829   0.496   2.561 -0.6021 -0.5732  1.9682
 6553TIP3   OH241217   0.378   3.190   3.660  0.2001  0.3680 -0.6301
 6553TIP3    H141218   0.370   3.096   3.650 -0.0789  0.3545 -0.3115
 6553TIP3    H241219   0.326   3.210   3.739  2.5674  0.3853  1.0376
 6554TIP3   OH241220   5.227   1.068   2.565  0.0810 -0.0221  0.2677
 6554TIP3    H141221   5.312   1.034   2.537  0.1645  0.4998 -0.1364
 6554TIP3    H241222   5.163   1.017   2.515  0.0575 -1.5693  1.7849
 6555TIP3   OH241223   3.567   4.346   4.253 -0.1101 -0.3524  0.3769
 6555TIP3    H141224   3.507   4.317   4.322  0.2661  0.7016  1.1792
 6555TIP3    H241225   3.594   4.434   4.280  1.7588 -0.7681  0.0225
 6556TIP3   OH241226   0.423   0.245   3.402 -0.2186  0.5008 -0.1428
 6556TIP3    H141227   0.396   0.333   3.375 -0.2941  0.3802 -0.4590
 6556TIP3    H241228   0.355   0.187   3.368 -0.7290  0.4181  0.9575
 6557TIP3   OH241229   3.149   3.704   4.281  0.4390  0.3409 -0.3398
 6557TIP3    H141230   3.116   3.669   4.363  1.3682  0.3424  0.0419
 6557TIP3    H241231   3.243   3.714   4.294  1.3156 -3.1461 -2.6219
 6558TIP3   OH241232   6.372   1.687   1.724  0.1550  0.3478  0.3474
 6558TIP3    H141233   6.342   1.602   1.692 -1.6826  1.3807 -0.8225
 6558TIP3    H241234   6.304   1.749   1.696  1.3778  2.1930  1.2692
 6559TIP3   OH241235   0.306   1.820   4.232 -0.0120  1.0290  0.3094
 6559TIP3    H141236   0.350   1.904   4.245 -0.3409  1.6507 -2.1459
 6559TIP3    H241237   0.213   1.840   4.243  0.0082  0.5442  1.5718
 6560TIP3   OH241238   0.268   4.351   1.374 -0.0582  0.3087 -0.0590
 6560TIP3    H141239   0.205   4.422   1.364  0.0310  0.9674  2.9096
 6560TIP3    H241240   0.232   4.298   1.445  1.2502 -1.0361 -0.3552
 6561TIP3   OH241241   5.229   0.854   0.210  0.0756  0.1697  0.3903
 6561TIP3    H141242   5.225   0.761   0.190 -1.1557  0.1213  0.8299
 6561TIP3    H241243   5.213   0.897   0.126 -1.1923 -0.0304  0.5130
 6562TIP3   OH241244   5.022   6.916   0.539 -0.1584 -0.0866 -0.1132
 6562TIP3    H141245   4.930   6.896   0.556 -0.2583 -0.1125 -0.6845
 6562TIP3    H241246   5.027   7.011   0.550 -0.1528 -0.1356  0.3611
 6563TIP3   OH241247   2.209   3.183   0.456  0.0233 -0.2398  0.2314
 6563TIP3    H141248   2.116   3.180   0.432 -1.0050 -1.7001  3.7488
 6563TIP3    H241249   2.223   3.273   0.485  0.1609  0.3833 -1.6699
 6564TIP3   OH241250   0.426   5.812   0.396 -0.2089 -0.1422 -0.0868
 6564TIP3    H141251   0.349   5.861   0.423  0.4323  0.8692 -0.0640
 6564TIP3    H241252   0.460   5.860   0.320 -0.6981 -1.6771 -1.3410
 6565TIP3   OH241253   3.721   1.904   3.451  0.4392 -0.3237 -0.0585
 6565TIP3    H141254   3.736   1.998   3.454  0.0390 -0.2668  0.2059
 6565TIP3    H241255   3.645   1.893   3.395  0.3479 -0.4736  0.0939
 6566TIP3   OH241256   1.572   2.149   0.677 -0.2548 -0.0482 -0.3964
 6566TIP3    H141257   1.593   2.242   0.687  2.2429 -0.0962 -3.5903
 6566TIP3    H241258   1.650   2.104   0.711 -0.5272 -0.8557 -0.8331
 6567TIP3   OH241259   6.894   6.530   0.052 -0.3036 -0.0731  0.2402
 6567TIP3    H141260   6.916   6.623   0.046 -1.4712  0.2457  0.7345
 6567TIP3    H241261   6.907   6.497  -0.037  2.4586 -0.0204  0.5173
 6568TIP3   OH241262   2.678   4.988   2.881 -0.1854  0.4858 -0.0001
 6568TIP3    H141263   2.626   4.913   2.912 -0.6287  0.5757 -0.5165
 6568TIP3    H241264   2.613   5.051   2.851  0.1969  1.0230  0.2940
 6569TIP3   OH241265   4.800   0.137   1.776  0.4520  0.1810 -0.1638
 6569TIP3    H141266   4.728   0.196   1.754  0.2361  0.3945  1.0395
 6569TIP3    H241267   4.877   0.178   1.736  0.0851  0.5189 -0.5436
 6570TIP3   OH241268   6.713   1.024   3.290 -0.0621  0.4835 -0.7357
 6570TIP3    H141269   6.802   1.008   3.259 -0.0071  1.0714 -0.8764
 6570TIP3    H241270   6.722   1.096   3.352 -0.3628  0.1748 -0.3237
 6571TIP3   OH241271   2.488   3.196   4.656  0.2006 -0.5954 -0.4578
 6571TIP3    H141272   2.506   3.140   4.580 -0.7070 -0.2814 -0.9099
 6571TIP3    H241273   2.575   3.227   4.683  0.6334 -1.4774 -0.7610
 6572TIP3   OH241274   5.438   0.589   0.778  0.3791 -0.3356  0.1541
 6572TIP3    H141275   5.492   0.649   0.829  0.3940 -0.2401  0.0259
 6572TIP3    H241276   5.348   0.610   0.804  0.2883  0.6822 -0.8875
 6573TIP3   OH241277   1.963   6.331   3.532 -0.3588 -0.1093  0.2247
 6573TIP3    H141278   2.009   6.411   3.557 -1.4379  0.4205  0.5848
 6573TIP3    H241279   1.977   6.272   3.606  1.1583 -0.5907 -0.4120
 6574TIP3   OH241280   5.410   4.610   0.890 -0.3341 -0.4825  0.2066
 6574TIP3    H141281   5.471   4.559   0.836  0.7825  0.7621  0.2327
 6574TIP3    H241282   5.428   4.583   0.980 -0.0716 -0.3716  0.1866
 6575TIP3   OH241283   6.943   4.136   1.733  0.0595 -0.6665  0.7071
 6575TIP3    H141284   6.853   4.111   1.754 -0.1202  0.7636  1.8457
 6575TIP3    H241285   6.993   4.055   1.741 -0.9165 -1.2286  1.3793
 6576TIP3   OH241286   2.505   2.782   3.083  0.6307  0.2435  0.2942
 6576TIP3    H141287   2.555   2.861   3.102  0.8732  0.2736 -0.4296
 6576TIP3    H241288   2.417   2.814   3.064  0.7966  0.3693 -0.2740
 6577TIP3   OH241289   6.221   6.492   0.294  0.4948  0.7145 -0.2307
 6577TIP3    H141290   6.257   6.448   0.217  0.6786  0.7882 -0.1857
 6577TIP3    H241291   6.150   6.546   0.259  2.3827  2.9899 -0.7920
 6578TIP3   OH241292   2.906   5.693   8.382 -0.1754  1.0673  0.3260
 6578TIP3    H141293   2.991   5.704   8.426 -0.3115 -0.3501  0.9896
 6578TIP3    H241294   2.905   5.762   8.316  1.1125  1.6783  0.8953
 6579TIP3   OH241295   1.838   3.517   3.937 -0.2498 -0.2906 -0.0526
 6579TIP3    H141296   1.896   3.468   3.878  2.7049  0.7511  1.7713
 6579TIP3    H241297   1.797   3.450   3.992  0.6427 -0.9756 -0.1961
 6580TIP3   OH241298   5.200   0.669   0.839 -0.3472  0.1148  0.2851
 6580TIP3    H141299   5.199   0.765   0.845  0.6194  0.0708  1.5592
 6580TIP3    H241300   5.109   0.646   0.821 -0.5012  1.2914 -0.5810
 6581TIP3   OH241301   1.813   4.883   0.779 -0.0257  0.1306  0.4082
 6581TIP3    H141302   1.751   4.928   0.836  2.1679  1.7501  1.6275
 6581TIP3    H241303   1.874   4.840   0.839  1.5049  0.6986 -0.6842
 6582TIP3   OH241304   3.567   1.818   3.705 -0.6374 -0.2385  0.1772
 6582TIP3    H141305   3.614   1.815   3.621  0.6468  0.3116  0.8507
 6582TIP3    H241306   3.636   1.830   3.770 -1.8003  1.9927  1.0925
 6583TIP3   OH241307   5.146   0.144   0.314 -0.1159 -0.1494 -0.6187
 6583TIP3    H141308   5.223   0.189   0.281 -0.4915 -0.6090 -2.1877
 6583TIP3    H241309   5.078   0.162   0.249 -1.0424 -0.6443  0.1796
 6584TIP3   OH241310   2.607   1.237   3.962  0.1510 -0.6308 -0.4166
 6584TIP3    H141311   2.683   1.211   4.014  0.1878  0.3217  0.0308
 6584TIP3    H241312   2.579   1.320   4.001 -0.6630 -0.6003 -1.0514
 6585TIP3   OH241313   1.978   2.757   2.403 -0.3094 -0.2144  0.1748
 6585TIP3    H141314   1.908   2.754   2.468 -2.8514  1.5682 -2.2646
 6585TIP3    H241315   1.975   2.671   2.361 -2.1009  0.2732 -0.8171
 6586TIP3   OH241316   5.066   3.276   0.180  0.0108  0.5481  0.0793
 6586TIP3    H141317   5.063   3.315   0.092 -4.8302 -3.2970 -1.9774
 6586TIP3    H241318   5.128   3.204   0.172 -0.2194  0.3703 -0.1219
 6587TIP3   OH241319   4.134   4.750   2.525 -0.5289 -0.1657  0.1011
 6587TIP3    H141320   4.088   4.725   2.606  0.3397  1.1749  1.0544
 6587TIP3    H241321   4.092   4.698   2.457 -3.0460  0.5084  1.0111
 6588TIP3   OH241322   0.274   5.867   1.254  0.2758  0.0242 -0.4864
 6588TIP3    H141323   0.366   5.881   1.231  0.4520 -0.2286  0.0272
 6588TIP3    H241324   0.267   5.772   1.269 -0.4816 -0.2318 -2.2050
 6589TIP3   OH241325   5.547   1.755   0.731  0.2688  0.0562  0.0769
 6589TIP3    H141326   5.502   1.752   0.646  0.3940  1.9547 -0.0954
 6589TIP3    H241327   5.638   1.772   0.708  0.4094 -0.0244  0.5808
 6590TIP3   OH241328   2.260   5.323   1.470  0.3262  0.1052  0.1479
 6590TIP3    H141329   2.186   5.274   1.506  1.9715 -1.2793  1.8762
 6590TIP3    H241330   2.254   5.409   1.512 -0.8233  0.3754 -0.5117
 6591TIP3   OH241331   3.017   4.965   2.979 -0.5198 -0.1083 -0.0204
 6591TIP3    H141332   3.071   5.026   2.929 -2.5271  0.0481 -2.1391
 6591TIP3    H241333   2.977   5.019   3.047  1.5109 -0.1398  1.2920
 6592TIP3   OH241334   6.058   2.379   2.324 -1.0508 -0.4446 -0.2512
 6592TIP3    H141335   6.145   2.364   2.360 -1.1683 -1.2991 -0.2830
 6592TIP3    H241336   6.037   2.469   2.346  0.1258 -0.0108 -0.8376
 6593TIP3   OH241337   4.944   2.398   3.205 -0.1425 -0.6123 -0.1823
 6593TIP3    H141338   4.912   2.323   3.153  0.6757 -1.6477  0.7551
 6593TIP3    H241339   4.871   2.417   3.265 -0.4920 -0.4282 -0.6622
 6594TIP3   OH241340   1.281   6.322   0.212  0.4791  0.3375 -0.3782
 6594TIP3    H141341   1.205   6.378   0.231 -0.8743 -1.1929 -1.0632
 6594TIP3    H241342   1.353   6.362   0.261 -1.4193  0.1381  2.8506
 6595TIP3   OH241343   5.278   4.182   2.217  0.4259  0.4096  0.5946
 6595TIP3    H141344   5.183   4.172   2.210  0.5543 -1.1214  0.8182
 6595TIP3    H241345   5.314   4.122   2.152  1.2582  1.5974 -0.0952
 6596TIP3   OH241346   6.171   3.232   0.463 -0.1351 -1.1160 -0.1066
 6596TIP3    H141347   6.199   3.323   0.450  1.3121 -1.5054  0.1019
 6596TIP3    H241348   6.083   3.239   0.499 -0.4729  0.1777 -1.1049
 6597TIP3   OH241349   5.300   5.484   8.298 -0.4218  0.2700 -0.1985
 6597TIP3    H141350   5.351   5.545   8.351 -0.2216  0.6983 -0.8649
 6597TIP3    H241351   5.313   5.399   8.340 -0.2816  0.6039  0.4392
 6598TIP3   OH241352   6.734   5.746   4.213  0.4813  0.2446  0.2193
 6598TIP3    H141353   6.793   5.795   4.272  0.1221 -0.7953  1.4955
 6598TIP3    H241354   6.649   5.752   4.255 -0.0089  0.3478 -0.7644
 6599TIP3   OH241355   0.525   0.560   2.902  0.3929  0.1951  0.1357
 6599TIP3    H141356   0.543   0.524   2.989  0.2929  0.7176  0.3765
 6599TIP3    H241357   0.480   0.489   2.856  0.2739 -0.0212  0.5741
 6600TIP3   OH241358   1.697   5.808   3.938 -0.3697 -0.8189 -0.4544
 6600TIP3    H141359   1.750   5.767   4.008  0.2279 -0.2515 -0.5609
 6600TIP3    H241360   1.656   5.883   3.981 -2.3289 -2.0781  0.0252
 6601TIP3   OH241361   2.350   6.596   2.449  0.1500  0.2966 -0.0775
 6601TIP3    H141362   2.255   6.585   2.445 -0.0384  1.3659  0.7047
 6601TIP3    H241363   2.385   6.536   2.384 -1.0560 -0.2638 -0.2277
 6602TIP3   OH241364   6.491   1.164   2.643 -1.0212  0.0322  0.4923
 6602TIP3    H141365   6.457   1.244   2.682 -2.1249  0.3454 -1.0232
 6602TIP3    H241366   6.491   1.181   2.549  1.1229 -0.8522  0.2809
 6603TIP3   OH241367   1.713   6.438   4.502  0.9185 -0.0661 -0.7604
 6603TIP3    H141368   1.673   6.375   4.563  2.0256  0.8353  0.9906
 6603TIP3    H241369   1.763   6.384   4.441  1.3135 -0.9257  0.3009
 6604TIP3   OH241370   4.253   3.513   2.287  0.0708  0.0761  0.3037
 6604TIP3    H141371   4.285   3.597   2.253 -2.1116  1.0357  0.4100
 6604TIP3    H241372   4.329   3.455   2.285  1.4193  1.7828 -0.6647
 6605TIP3   OH241373   1.221   3.066   3.519 -0.4576  0.4197 -0.1463
 6605TIP3    H141374   1.175   3.136   3.565 -0.8581 -0.9029  1.5543
 6605TIP3    H241375   1.303   3.055   3.567 -1.4938 -1.9186  1.2285
 6606TIP3   OH241376   6.506   4.878   1.538 -0.9352  0.1890 -0.3128
 6606TIP3    H141377   6.414   4.854   1.545 -0.3948 -2.0438 -0.0043
 6606TIP3    H241378   6.545   4.807   1.486  0.3827  1.7957 -1.6364
 6607TIP3   OH241379   3.380   0.443   0.800 -0.1590  0.0778  0.4144
 6607TIP3    H141380   3.318   0.516   0.806  0.3456  0.4691  0.8901
 6607TIP3    H241381   3.462   0.478   0.835 -0.4317 -1.2913  2.6262
 6608TIP3   OH241382   2.278   6.181   3.616  0.2526 -0.0714 -0.4442
 6608TIP3    H141383   2.338   6.239   3.664  0.2877  1.0375 -1.7468
 6608TIP3    H241384   2.306   6.189   3.525 -0.3943 -1.3907 -0.7746
 6609TIP3   OH241385   4.835   5.610   2.862 -0.4032  0.9970 -0.1080
 6609TIP3    H141386   4.799   5.534   2.816 -1.4992  0.7846  1.0587
 6609TIP3    H241387   4.872   5.665   2.792 -1.3926  0.3613 -1.1631
 6610TIP3   OH241388   1.907   5.226   0.646  0.4248  0.1393 -0.1262
 6610TIP3    H141389   1.942   5.182   0.724 -0.9850 -0.2470  0.3149
 6610TIP3    H241390   1.851   5.296   0.680  0.3289  0.4066 -0.8048
 6611TIP3   OH241391   2.457   3.325   2.725  0.5988 -0.1514  0.3825
 6611TIP3    H141392   2.497   3.392   2.669 -0.4119  0.7484  0.7227
 6611TIP3    H241393   2.412   3.373   2.794 -2.4723 -1.0001 -0.8649
 6612TIP3   OH241394   2.578   1.835   0.958 -0.0741 -0.1488 -0.1240
 6612TIP3    H141395   2.634   1.864   1.030 -0.0092  0.0287 -0.2467
 6612TIP3    H241396   2.489   1.852   0.989 -0.0392  0.1059 -0.1627
 6613TIP3   OH241397   0.948   6.603   8.378 -0.5341  0.3769  0.1986
 6613TIP3    H141398   0.870   6.613   8.433 -1.0734  0.0691 -0.4988
 6613TIP3    H241399   0.923   6.641   8.294  0.1177  0.3987  0.0141
 6614TIP3   OH241400   4.115   1.889   3.124  1.1702  0.5915  0.2381
 6614TIP3    H141401   4.145   1.953   3.188 -1.1467  1.6152  0.4092
 6614TIP3    H241402   4.026   1.918   3.101 -0.5342 -3.2449  1.2835
 6615TIP3   OH241403   3.399   2.872   3.349  0.0112 -0.0968  0.2380
 6615TIP3    H141404   3.424   2.879   3.257  0.3316 -0.6180  0.2814
 6615TIP3    H241405   3.403   2.963   3.381 -0.2051  0.0998 -0.2835
 6616TIP3   OH241406   6.199   3.847   3.776  0.9546 -0.2636  0.6179
 6616TIP3    H141407   6.158   3.881   3.856  1.5339 -0.0331  0.8197
 6616TIP3    H241408   6.235   3.924   3.733 -0.6260 -0.1568 -0.6447
 6617TIP3   OH241409   4.746   4.530   4.323  0.0080 -0.0508  0.5470
 6617TIP3    H141410   4.732   4.572   4.408 -2.1222  0.5087 -0.0060
 6617TIP3    H241411   4.674   4.562   4.269 -0.0968 -2.2529 -0.7483
 6618TIP3   OH241412   2.272   2.830   0.268 -0.3380 -0.2522 -0.5313
 6618TIP3    H141413   2.205   2.896   0.249 -0.2897 -0.1326 -0.2847
 6618TIP3    H241414   2.355   2.878   0.264 -0.3623 -0.1161  0.4922
 6619TIP3   OH241415   6.144   5.308   2.920  0.2873  0.1012  0.0342
 6619TIP3    H141416   6.226   5.354   2.940  1.1738 -0.6433 -1.5815
 6619TIP3    H241417   6.108   5.285   3.005  0.8389  1.9777  0.8384
 6620TIP3   OH241418   3.914   1.357   3.739  0.3104 -0.3462  0.1776
 6620TIP3    H141419   3.948   1.333   3.653  0.0819  0.3903 -0.1251
 6620TIP3    H241420   3.991   1.363   3.795  0.9210  2.5874 -0.7956
 6621TIP3   OH241421   1.066   6.488   1.487 -0.0780 -0.4080  0.0112
 6621TIP3    H141422   1.070   6.539   1.406 -0.9824 -0.5537 -0.1352
 6621TIP3    H241423   1.036   6.401   1.459 -0.8945 -0.3190  0.5523
 6622TIP3   OH241424   0.863   0.858   3.682  0.3484 -0.1982 -0.0350
 6622TIP3    H141425   0.781   0.880   3.727  0.4187  1.2016 -0.5305
 6622TIP3    H241426   0.867   0.920   3.609  0.4233 -2.1414 -1.7767
 6623TIP3   OH241427   6.256   0.676   4.209  0.1624  0.1650 -0.9167
 6623TIP3    H141428   6.304   0.682   4.292 -0.3600  0.7029 -0.6408
 6623TIP3    H241429   6.301   0.608   4.160  0.0838 -0.6197  0.0744
 6624TIP3   OH241430   2.271   5.182   2.647  0.1623 -0.0689 -0.0698
 6624TIP3    H141431   2.199   5.223   2.598  0.8368 -0.1106 -1.1235
 6624TIP3    H241432   2.241   5.182   2.738 -1.5944 -0.9835 -0.6099
 6625TIP3   OH241433   1.131   3.625   2.848  0.2765  0.0875 -0.2277
 6625TIP3    H141434   1.099   3.684   2.779 -1.1020  0.8458  0.9897
 6625TIP3    H241435   1.158   3.546   2.801 -0.5757  0.5882 -1.6444
 6626TIP3   OH241436   1.949   2.807   0.308  0.4974 -0.5380 -0.2176
 6626TIP3    H141437   1.974   2.888   0.263 -0.0139 -0.3226 -0.1162
 6626TIP3    H241438   1.929   2.746   0.238  0.2231 -0.3668 -0.2882
 6627TIP3   OH241439   1.170   0.031   0.139 -0.1553  0.0573  0.4694
 6627TIP3    H141440   1.246   0.044   0.083  1.1504  1.2978  2.4118
 6627TIP3    H241441   1.192   0.075   0.221 -2.9546  0.4462  1.1396
 6628TIP3   OH241442   5.147   3.454   0.399 -0.1332 -0.4861  0.2950
 6628TIP3    H141443   5.116   3.526   0.344 -0.7317 -1.0152 -0.0768
 6628TIP3    H241444   5.118   3.374   0.354 -0.0284 -0.9475  1.0138
 6629TIP3   OH241445   6.615   2.488   3.484  0.0676 -0.4188 -0.5266
 6629TIP3    H141446   6.591   2.576   3.512  0.3810 -0.8515  1.2118
 6629TIP3    H241447   6.689   2.501   3.425  0.3217  0.4728 -0.0239
 6630TIP3   OH241448   5.194   3.912   1.725 -0.6434 -0.1784  0.0927
 6630TIP3    H141449   5.109   3.882   1.756 -1.1986 -1.2325 -2.2176
 6630TIP3    H241450   5.238   3.832   1.695  0.0231  0.6473 -1.2451
 6631TIP3   OH241451   0.125   2.697   1.133  0.1254  0.5712 -0.7437
 6631TIP3    H141452   0.073   2.617   1.144  1.1006 -0.0477 -0.5144
 6631TIP3    H241453   0.113   2.745   1.214  3.1481 -1.5320  1.1616
 6632TIP3   OH241454   3.197   2.942   1.113 -0.3509 -0.4899 -0.1395
 6632TIP3    H141455   3.247   2.914   1.037  0.4827  0.6055 -0.0245
 6632TIP3    H241456   3.231   3.029   1.134 -1.8522  0.0185  0.3579
 6633TIP3   OH241457   1.002   3.541   3.696 -0.4866 -0.4069  0.0172
 6633TIP3    H141458   0.916   3.518   3.731 -0.1256  0.1268  1.3035
 6633TIP3    H241459   1.052   3.459   3.699  0.2990  0.0612  3.1105
 6634TIP3   OH241460   4.273   4.028   2.595 -0.2961  0.4760 -0.5185
 6634TIP3    H141461   4.286   4.121   2.579  0.3379  0.5365  0.2737
 6634TIP3    H241462   4.263   4.022   2.690  0.3993 -0.3459 -0.4889
 6635TIP3   OH241463   2.448   5.455   2.706  0.0540 -0.0745 -0.3676
 6635TIP3    H141464   2.360   5.421   2.723 -0.1637 -0.6995 -2.5101
 6635TIP3    H241465   2.451   5.470   2.612  2.2003  0.0672 -0.3409
 6636TIP3   OH241466   3.223   5.258   2.633 -0.0166  0.1386  0.3753
 6636TIP3    H141467   3.249   5.168   2.616  1.1732  0.3537  0.9621
 6636TIP3    H241468   3.136   5.266   2.594 -1.4421 -2.0919  2.7348
 6637TIP3   OH241469   1.269   1.731   2.368 -0.5207 -0.0518  0.3276
 6637TIP3    H141470   1.205   1.681   2.419 -1.8937  0.8217 -0.4917
 6637TIP3    H241471   1.317   1.665   2.318 -2.8906 -0.6009 -1.4144
 6638TIP3   OH241472   1.845   4.250   3.457  0.6452  0.1690 -0.5050
 6638TIP3    H141473   1.754   4.222   3.471 -0.1539  3.2319  1.4871
 6638TIP3    H241474   1.893   4.214   3.532  0.7304 -0.1269 -0.7018
 6639TIP3   OH241475   0.207   5.402   2.947  0.2046 -0.2676 -0.6002
 6639TIP3    H141476   0.205   5.498   2.947 -0.0709 -0.2739 -0.9684
 6639TIP3    H241477   0.255   5.380   3.027 -1.6927  0.1459  0.7459
 6640TIP3   OH241478   4.231   3.287   1.496  0.3317 -0.3853 -0.5837
 6640TIP3    H141479   4.229   3.326   1.583 -1.0437 -0.4104 -0.5775
 6640TIP3    H241480   4.219   3.193   1.512 -1.2656 -0.2545 -0.8400
 6641TIP3   OH241481   6.252   4.882   2.757 -0.2007  0.1870  0.0737
 6641TIP3    H141482   6.268   4.797   2.799 -2.1501 -0.3198 -0.1385
 6641TIP3    H241483   6.175   4.868   2.702  0.3822  1.6983 -1.1895
 6642TIP3   OH241484   0.891   0.909   1.814 -0.5575 -0.1058 -0.0449
 6642TIP3    H141485   0.888   0.832   1.758 -2.0222  1.7641 -2.8190
 6642TIP3    H241486   0.979   0.944   1.802  0.0884 -1.2370  1.1687
 6643TIP3   OH241487   1.800   6.233   2.806 -0.2688  0.0672 -0.0827
 6643TIP3    H141488   1.755   6.262   2.885  0.8531  0.6450  0.3788
 6643TIP3    H241489   1.878   6.187   2.839  0.1815  0.2637 -0.8559
 6644TIP3   OH241490   1.937   4.611   2.543  0.5857 -0.1795  0.5247
 6644TIP3    H141491   1.950   4.555   2.467 -0.8861  0.5876 -0.3476
 6644TIP3    H241492   1.886   4.557   2.604 -1.7019  0.4423 -0.7216
 6645TIP3   OH241493   2.955   2.677   2.548 -0.4195  0.4185  0.5616
 6645TIP3    H141494   2.865   2.706   2.565 -0.4213 -0.2386  1.8144
 6645TIP3    H241495   2.966   2.600   2.604  1.1208  0.8257  0.8637
 6646TIP3   OH241496   1.543   4.686   1.914 -0.0974  0.2513  0.7148
 6646TIP3    H141497   1.499   4.604   1.893 -0.2579  0.4063  0.4430
 6646TIP3    H241498   1.566   4.678   2.007  0.9620 -0.5942  0.4050
 6647TIP3   OH241499   0.734   3.448   2.821 -0.3408 -0.4592 -0.2549
 6647TIP3    H141500   0.717   3.432   2.914 -0.4164 -1.1572 -0.3827
 6647TIP3    H241501   0.799   3.382   2.797  1.5584  1.2772 -0.1254
 6648TIP3   OH241502   0.963   3.330   1.750 -0.4641 -0.1170  0.2835
 6648TIP3    H141503   0.940   3.255   1.695 -1.5067 -0.3490  1.0015
 6648TIP3    H241504   1.058   3.339   1.740 -0.5054 -0.7270 -0.8128
 6649TIP3   OH241505   3.216   4.228   2.774 -0.4816 -0.0244 -0.1195
 6649TIP3    H141506   3.205   4.321   2.757 -1.0564 -0.0946 -0.1614
 6649TIP3    H241507   3.147   4.186   2.723  0.4645 -0.5609 -0.9889
 6650TIP3   OH241508   3.087   4.061   1.368 -0.1358  0.0250  0.2735
 6650TIP3    H141509   3.012   4.008   1.340  1.0338 -1.0886 -0.8587
 6650TIP3    H241510   3.164   4.011   1.341  1.0320  1.3770  0.9576
 6651TIP3   OH241511   5.502   5.496   2.134 -0.5180  0.5978  0.1190
 6651TIP3    H141512   5.561   5.534   2.198 -0.1331  2.9539 -1.4883
 6651TIP3    H241513   5.559   5.442   2.078 -0.2590  1.1229 -0.1319
 6652TIP3   OH241514   1.273   3.395   1.974 -0.5044 -0.4724 -0.2865
 6652TIP3    H141515   1.347   3.396   2.034 -0.3361  2.0738 -0.4516
 6652TIP3    H241516   1.309   3.361   1.892  0.5625  0.9624 -0.4351
 6653TIP3   OH241517   2.406   2.388   0.228 -0.2319 -0.3987 -0.4489
 6653TIP3    H141518   2.365   2.394   0.142 -1.8697 -1.5627  0.1944
 6653TIP3    H241519   2.334   2.365   0.287  1.0239 -0.5714  1.0774
 6654TIP3   OH241520   5.785   2.374   3.602  0.0039  0.5305 -0.1283
 6654TIP3    H141521   5.849   2.419   3.657 -0.1622 -0.1057  0.5901
 6654TIP3    H241522   5.818   2.388   3.512  0.1914  1.6929  0.0977
 6655TIP3   OH241523   0.455   3.859   1.809  0.0041  0.2961 -0.3864
 6655TIP3    H141524   0.446   3.952   1.790  0.7903  0.1849 -1.3784
 6655TIP3    H241525   0.549   3.842   1.809 -0.1342 -0.5512 -0.4988
 6656TIP3   OH241526   2.578   5.980   0.809 -0.1136 -0.3147  0.9983
 6656TIP3    H141527   2.606   6.018   0.725  0.7489 -2.2968  0.3381
 6656TIP3    H241528   2.611   5.890   0.807 -2.0430 -1.1151  2.5020
 6657TIP3   OH241529   6.611   0.433   3.103 -0.4662  0.3349 -0.3473
 6657TIP3    H141530   6.518   0.451   3.114  0.3238  3.6989  2.6331
 6657TIP3    H241531   6.629   0.361   3.164 -1.0951 -0.6469 -1.2727
 6658TIP3   OH241532   0.658   4.850   3.821 -0.0953  0.4044 -0.2512
 6658TIP3    H141533   0.580   4.853   3.766 -0.3255 -0.9694 -0.0343
 6658TIP3    H241534   0.687   4.759   3.818 -0.1662  0.2424  1.9393
 6659TIP3   OH241535   6.415   5.743   1.850  0.3383  1.1945 -0.1714
 6659TIP3    H141536   6.385   5.725   1.760  3.2334  0.4470 -1.0910
 6659TIP3    H241537   6.464   5.665   1.875 -0.8003  1.1726  2.3428
 6660TIP3   OH241538   3.010   3.946   0.466  0.1942 -0.5626 -0.0611
 6660TIP3    H141539   3.001   3.866   0.519 -0.4777  1.0524  2.4284
 6660TIP3    H241540   2.991   3.917   0.377 -0.5694 -3.0703  0.8125
 6661TIP3   OH241541   0.413   1.351   1.566 -0.0389  0.1491 -0.4885
 6661TIP3    H141542   0.495   1.376   1.608  0.2408 -0.1685 -0.8369
 6661TIP3    H241543   0.440   1.294   1.493 -0.5079  0.8072 -1.1890
 6662TIP3   OH241544   6.038   4.282   2.804 -0.3861  0.0890 -0.5597
 6662TIP3    H141545   6.025   4.245   2.891  2.1891  0.6846  0.1564
 6662TIP3    H241546   5.953   4.317   2.779 -1.5030 -1.3257  1.1056
 6663TIP3   OH241547   3.394   6.631   1.842  0.7336 -0.3138 -0.2953
 6663TIP3    H141548   3.321   6.692   1.839 -0.5500 -1.7659 -0.1277
 6663TIP3    H241549   3.438   6.651   1.925 -1.3881 -1.4270  1.2080
 6664TIP3   OH241550   3.036   2.415   1.891  0.3018 -0.2187 -0.6729
 6664TIP3    H141551   2.952   2.388   1.855 -0.0037 -0.6801  0.3428
 6664TIP3    H241552   3.013   2.468   1.968  0.9302 -0.5771 -0.2288
 6665TIP3   OH241553   1.944   6.027   2.428  0.1151  0.6026 -0.0914
 6665TIP3    H141554   1.936   6.109   2.379 -0.4461 -0.0974 -1.1929
 6665TIP3    H241555   1.857   6.012   2.465  0.1403  0.3526 -0.1331
 6666TIP3   OH241556   0.412   0.135   3.657  0.6218  0.3577 -0.1984
 6666TIP3    H141557   0.489   0.182   3.688 -0.2050  0.6529  1.4897
 6666TIP3    H241558   0.409   0.153   3.563  3.3423 -0.7692 -0.5803
 6667TIP3   OH241559   6.126   4.171   3.066  0.0772  0.0266 -0.2251
 6667TIP3    H141560   6.216   4.142   3.081 -0.1046 -0.0044  0.9350
 6667TIP3    H241561   6.072   4.102   3.104 -0.3606  1.7790  2.6602
 6668TIP3   OH241562   1.451   3.475   1.381 -0.3271 -0.8385 -0.4117
 6668TIP3    H141563   1.533   3.453   1.425 -1.0506 -0.3256  1.2706
 6668TIP3    H241564   1.394   3.400   1.400 -0.6272 -0.6466 -0.5558
 6669TIP3   OH241565   5.080   1.102   2.023  0.3869 -0.3188 -0.6021
 6669TIP3    H141566   5.094   1.017   2.066 -1.5769 -0.3761  0.0306
 6669TIP3    H241567   5.114   1.166   2.085 -0.5580 -0.5245  0.1682
 6670TIP3   OH241568   2.971   1.037   2.635 -0.3057  0.2659  0.4643
 6670TIP3    H141569   3.015   0.975   2.577 -0.3249 -1.0020  1.7456
 6670TIP3    H241570   2.907   1.081   2.579  0.1120 -0.4489 -0.6099
 6671TIP3   OH241571   4.686   4.400   2.250 -0.1073 -0.5641  0.5186
 6671TIP3    H141572   4.700   4.339   2.323 -0.9888 -2.1054 -0.5591
 6671TIP3    H241573   4.610   4.366   2.204  1.6180 -0.8636 -2.3557
 6672TIP3   OH241574   3.019   6.604   0.035  0.5262 -0.5584  0.3972
 6672TIP3    H141575   2.963   6.531   0.008 -2.3035  2.1642 -1.7561
 6672TIP3    H241576   3.076   6.620  -0.040  1.6198 -0.9270  1.1281
 6673TIP3   OH241577   6.550   5.930   0.920 -0.7521  0.9634 -0.0534
 6673TIP3    H141578   6.519   5.840   0.934  0.1509  0.6258 -0.1249
 6673TIP3    H241579   6.499   5.962   0.847 -0.0382 -0.0402 -1.0244
 6674TIP3   OH241580   5.834   1.077   1.777  0.0503  0.3635  0.1394
 6674TIP3    H141581   5.788   1.093   1.694  0.2143 -2.8001 -0.7018
 6674TIP3    H241582   5.765   1.052   1.838  0.2399 -0.9838 -0.1568
 6675TIP3   OH241583   6.545   4.263   2.958  0.4914 -0.0688 -0.2475
 6675TIP3    H141584   6.626   4.275   3.007 -0.1387  0.5785  0.6642
 6675TIP3    H241585   6.558   4.313   2.877  0.5282  1.1199  0.4691
 6676TIP3   OH241586   2.314   6.288   2.844  0.3290  0.0338 -0.2052
 6676TIP3    H141587   2.312   6.284   2.749  3.7019 -1.2718 -0.3637
 6676TIP3    H241588   2.277   6.204   2.873  0.2059  0.0238 -0.3890
 6677TIP3   OH241589   3.268   4.875   4.721 -0.7734 -0.3258 -0.2323
 6677TIP3    H141590   3.296   4.880   4.630  2.3577  0.3341  0.6235
 6677TIP3    H241591   3.243   4.964   4.744 -2.1344 -0.6066 -0.5712
 6678TIP3   OH241592   3.937   1.729   8.380 -0.0052 -0.1631  0.1180
 6678TIP3    H141593   3.918   1.637   8.398  1.6334 -0.5513  0.0791
 6678TIP3    H241594   3.991   1.727   8.301 -0.1125  0.8441  0.0081
 6679TIP3   OH241595   2.855   4.090   1.074  0.0438 -0.0987 -0.2588
 6679TIP3    H141596   2.818   4.068   0.989 -0.3254 -0.2907 -0.0490
 6679TIP3    H241597   2.948   4.107   1.057 -0.4729  2.3150 -1.1376
 6680TIP3   OH241598   2.278   3.948   1.883 -0.5380  0.5369  0.3180
 6680TIP3    H141599   2.202   4.006   1.888 -1.5561 -0.5646 -1.3600
 6680TIP3    H241600   2.308   3.956   1.793 -0.4838 -1.2690  0.1504
 6681TIP3   OH241601   1.276   6.011   3.931 -0.4113 -0.1919  0.5700
 6681TIP3    H141602   1.188   5.976   3.944  0.0878 -1.2551  1.2088
 6681TIP3    H241603   1.314   6.012   4.019  0.8388 -1.4526  0.0667
 6682TIP3   OH241604   6.381   3.170   2.690  0.3917 -0.5807 -0.0619
 6682TIP3    H141605   6.292   3.192   2.717  0.7463  0.2427  0.4668
 6682TIP3    H241606   6.390   3.077   2.712 -0.3503 -0.6878 -0.1764
 6683TIP3   OH241607   2.938   0.894   0.273  0.4658 -0.1625  0.0040
 6683TIP3    H141608   2.975   0.968   0.226  0.8964 -0.0559  0.5009
 6683TIP3    H241609   2.995   0.882   0.349  0.0347 -0.5995  0.2711
 6684TIP3   OH241610   4.414   2.447   3.773  0.1356 -0.0359  0.0350
 6684TIP3    H141611   4.453   2.479   3.692  2.0770 -1.0038  0.5115
 6684TIP3    H241612   4.470   2.482   3.842 -0.8463 -0.1058  0.8875
 6685TIP3   OH241613   0.093   4.573   3.398  0.7068 -0.2373  0.1211
 6685TIP3    H141614   0.174   4.524   3.386  0.1851 -0.9200 -0.7360
 6685TIP3    H241615   0.031   4.533   3.337  0.1219  1.1759 -0.2597
 6686TIP3   OH241616   1.051   0.033   2.237  0.2098  0.0909  0.3706
 6686TIP3    H141617   1.023   0.116   2.275  0.8905  1.0188 -1.0451
 6686TIP3    H241618   1.093  -0.014   2.308  0.3792  1.2344  1.0390
 6687TIP3   OH241619   2.188   5.321   7.517 -0.1278 -0.1854  0.0463
 6687TIP3    H141620   2.190   5.327   7.613 -0.5415 -0.2524  0.0608
 6687TIP3    H241621   2.173   5.229   7.499  3.3555 -0.8463 -0.1399
 6688TIP3   OH241622   5.459   3.447   1.240  0.1568 -0.0648  0.1329
 6688TIP3    H141623   5.495   3.407   1.319 -0.4162 -0.5599  0.1453
 6688TIP3    H241624   5.512   3.411   1.168  0.3852  0.0413  0.2470
 6689TIP3   OH241625   2.130   6.551   3.608  0.5645  0.1963 -0.4677
 6689TIP3    H141626   2.146   6.586   3.520 -1.4471  0.5118 -0.7607
 6689TIP3    H241627   2.092   6.625   3.656  1.9442  0.1222  0.8010
 6690TIP3   OH241628   2.503   3.644   3.324  0.1961  0.0410  0.0660
 6690TIP3    H141629   2.510   3.686   3.410  1.6818 -0.0115 -0.0125
 6690TIP3    H241630   2.580   3.587   3.319  0.3680  0.3867 -1.4821
 6691TIP3   OH241631   5.896   6.276   8.411 -0.5846 -0.3533 -0.1763
 6691TIP3    H141632   5.828   6.239   8.355  0.4332  0.6067 -2.1576
 6691TIP3    H241633   5.867   6.365   8.430  0.3410  0.2922 -1.5782
 6692TIP3   OH241634   0.002   5.756   3.382 -0.3756  0.3899  0.8142
 6692TIP3    H141635  -0.014   5.821   3.450 -1.5486 -0.4118  1.3483
 6692TIP3    H241636   0.097   5.755   3.370 -0.2811  1.5982  1.3744
 6693TIP3   OH241637   5.859   2.061   0.884 -0.6701 -0.5173  0.1512
 6693TIP3    H141638   5.897   1.991   0.831  1.1751  0.8621 -0.4638
 6693TIP3    H241639   5.876   2.034   0.975 -0.1510 -0.9639 -0.0730
 6694TIP3   OH241640   4.139   4.715   0.651  0.5179 -0.5536 -0.8790
 6694TIP3    H141641   4.164   4.767   0.575  1.6477 -0.5293 -0.5042
 6694TIP3    H241642   4.215   4.660   0.669  1.3623  1.3097  1.8277
 6695TIP3   OH241643   4.673   2.751   2.918 -0.0698  0.0742  0.2715
 6695TIP3    H141644   4.612   2.791   2.980  2.3210  4.5552  0.1761
 6695TIP3    H241645   4.618   2.705   2.856 -2.8973 -0.4762  2.9434
 6696TIP3   OH241646   6.719   2.415   1.092  0.7302  0.2318 -0.1099
 6696TIP3    H141647   6.706   2.346   1.027  0.6486  1.3948 -1.3714
 6696TIP3    H241648   6.633   2.456   1.101  0.2736 -1.0773  2.1575
 6697TIP3   OH241649   1.589   1.058   1.142 -0.0948 -0.3930  0.0136
 6697TIP3    H141650   1.560   1.077   1.231 -0.4688  2.6471 -0.6651
 6697TIP3    H241651   1.683   1.077   1.142 -0.0012 -0.8303 -0.1504
 6698TIP3   OH241652   4.594   4.169   2.667  0.4325 -0.1964 -0.4142
 6698TIP3    H141653   4.652   4.189   2.593 -0.5320  0.1820 -1.0982
 6698TIP3    H241654   4.621   4.229   2.736  1.5364 -0.7518 -0.3519
 6699TIP3   OH241655   1.180   3.435   2.299 -0.2599  0.5679  0.6419
 6699TIP3    H141656   1.185   3.529   2.283 -2.3187  0.9318  1.7193
 6699TIP3    H241657   1.109   3.405   2.242 -0.5482 -0.0634  1.3179
 6700TIP3   OH241658   1.165   5.747   1.231 -0.2965 -0.4166 -0.1026
 6700TIP3    H141659   1.214   5.827   1.250  0.7581 -0.8960 -0.6903
 6700TIP3    H241660   1.075   5.776   1.220 -0.1982  0.4740  1.1902
 6701TIP3   OH241661   4.323   1.015   8.462 -0.0151 -0.0463  0.0562
 6701TIP3    H141662   4.302   1.099   8.420  2.7283  1.3731  1.1829
 6701TIP3    H241663   4.314   0.950   8.392 -3.1192  0.9663 -0.6288
 6702TIP3   OH241664   0.031   3.249   2.863 -0.0652  0.1117 -0.5689
 6702TIP3    H141665   0.017   3.219   2.773  0.2012  0.1969 -0.6399
 6702TIP3    H241666   0.089   3.324   2.854 -1.2492  1.0757 -0.4436
 6703TIP3   OH241667   0.934   0.048   4.597  0.0229 -0.3082 -0.4077
 6703TIP3    H141668   0.962   0.130   4.556 -1.0621 -0.1383 -0.8286
 6703TIP3    H241669   0.839   0.047   4.588 -0.1437 -0.8342  1.0585
 6704TIP3   OH241670   3.274   6.124   1.421 -0.1507  0.3343  0.4893
 6704TIP3    H141671   3.343   6.075   1.376 -0.1220 -0.6229  1.5115
 6704TIP3    H241672   3.193   6.078   1.398 -0.3781  1.0660 -0.1905
 6705TIP3   OH241673   2.807   4.646   0.942  0.3685  0.3757 -0.2499
 6705TIP3    H141674   2.825   4.645   0.848 -1.1055 -0.8815 -0.5437
 6705TIP3    H241675   2.741   4.715   0.954  0.9070  0.8683 -0.0472
 6706TIP3   OH241676   5.966   4.887   3.174  0.4959  0.3085  0.1329
 6706TIP3    H141677   5.976   4.976   3.141 -0.6504  1.6100  2.9020
 6706TIP3    H241678   6.029   4.881   3.246  1.7296 -1.7758 -1.0123
 6707TIP3   OH241679   4.273   3.166   3.505  0.1654  0.4884  0.4096
 6707TIP3    H141680   4.177   3.168   3.512  0.3011  2.2035  3.3700
 6707TIP3    H241681   4.301   3.122   3.585  1.8873 -2.0602 -1.4617
 6708TIP3   OH241682   5.097   6.063   1.652 -0.1757 -0.4584  0.3596
 6708TIP3    H141683   5.166   5.997   1.639  1.3766  1.0114  0.7646
 6708TIP3    H241684   5.053   6.037   1.733  1.7143  0.0123  1.6112
 6709TIP3   OH241685   4.396   0.429   2.999 -0.6996  0.1491 -0.4347
 6709TIP3    H141686   4.381   0.511   3.047 -1.9469 -0.3564  0.0976
 6709TIP3    H241687   4.323   0.425   2.937 -1.0699 -0.8931  0.0445
 6710TIP3   OH241688   5.906   4.777   8.143 -0.3845  0.5147  0.0772
 6710TIP3    H141689   5.867   4.862   8.161  1.0919  1.3181 -0.3704
 6710TIP3    H241690   5.832   4.716   8.144 -1.4928  1.8187  0.2184
 6711TIP3   OH241691   4.897   5.039   1.792 -0.5432 -0.0218  0.0492
 6711TIP3    H141692   4.828   5.049   1.857  0.3222 -0.5281  1.0859
 6711TIP3    H241693   4.889   4.949   1.762 -1.6267  0.5147 -1.3957
 6712TIP3   OH241694   6.357   6.499   2.166 -0.4512  0.1581  0.4039
 6712TIP3    H141695   6.290   6.449   2.120 -0.3296  0.8236 -0.5126
 6712TIP3    H241696   6.403   6.434   2.220 -0.2202 -0.7346 -0.8395
 6713TIP3   OH241697   5.926   6.165   1.431  0.2130 -0.3173 -0.2459
 6713TIP3    H141698   5.888   6.236   1.379 -0.6191 -1.0439 -0.6507
 6713TIP3    H241699   5.866   6.156   1.506  0.4566 -0.4355 -0.0634
 6714TIP3   OH241700   0.009   3.557   1.485  0.0696 -0.3967 -0.0300
 6714TIP3    H141701   0.052   3.474   1.508 -0.1441 -0.5164 -0.0535
 6714TIP3    H241702  -0.048   3.535   1.412  0.3333 -0.1335 -0.3150
 6715TIP3   OH241703   2.043   1.411   0.353  0.3379  0.6732 -0.1936
 6715TIP3    H141704   2.075   1.496   0.322  0.9264  0.8417  0.8153
 6715TIP3    H241705   2.097   1.347   0.306  0.1879  0.8686 -0.6354
 6716TIP3   OH241706   3.528   1.029   1.732 -0.1679 -0.3343  0.0253
 6716TIP3    H141707   3.450   0.976   1.716 -0.0212 -0.2936 -0.8737
 6716TIP3    H241708   3.600   0.978   1.695  0.3629 -0.7591  1.5935
 6717TIP3   OH241709   0.551   4.526   3.703  0.4131  0.1931  0.2046
 6717TIP3    H141710   0.510   4.577   3.634  0.2944 -0.5292 -0.2777
 6717TIP3    H241711   0.644   4.528   3.683  0.2418 -1.5186 -1.0833
 6718TIP3   OH241712   1.486   6.329   3.657 -0.4005 -0.3908  0.2978
 6718TIP3    H141713   1.541   6.265   3.702  0.1479  0.5914  1.0557
 6718TIP3    H241714   1.538   6.354   3.580 -0.7357 -1.0409 -0.1510
 6719TIP3   OH241715   3.736   5.159   8.216  0.1049 -0.0191  0.0337
 6719TIP3    H141716   3.816   5.209   8.231 -0.7653  1.3819  0.1376
 6719TIP3    H241717   3.727   5.104   8.294 -0.4104  1.7510  1.2900
 6720TIP3   OH241718   3.276   6.159   8.145 -0.1379 -0.1294  0.6110
 6720TIP3    H141719   3.235   6.112   8.072 -0.5957  0.8558  0.2111
 6720TIP3    H241720   3.276   6.251   8.117  3.3142 -0.1384  0.1177
 6721TIP3   OH241721   5.526   5.049   0.499  0.2694 -0.2046 -0.4055
 6721TIP3    H141722   5.576   5.015   0.426 -3.7299 -0.2634 -3.4521
 6721TIP3    H241723   5.534   5.145   0.491  0.8194 -0.2202 -0.1044
 6722TIP3   OH241724   1.003   3.866   2.288 -0.5000  0.7064 -0.0588
 6722TIP3    H141725   1.021   3.959   2.301 -1.9970  0.8503  1.3031
 6722TIP3    H241726   0.911   3.863   2.261 -0.6434 -0.4140  0.5315
 6723TIP3   OH241727   2.859   0.728   2.707  0.1640  0.0415  0.0980
 6723TIP3    H141728   2.909   0.783   2.647  0.5774  2.2092  2.2750
 6723TIP3    H241729   2.922   0.661   2.736  0.5627  0.2294 -0.3254
 6724TIP3   OH241730   3.883   1.148   1.775  0.1694 -0.3697  0.3264
 6724TIP3    H141731   3.943   1.107   1.836 -2.5847 -0.2483  3.3979
 6724TIP3    H241732   3.839   1.075   1.731  1.1188 -0.4839 -0.4560
 6725TIP3   OH241733   6.844   0.484   1.972  0.4654  0.4470 -1.1185
 6725TIP3    H141734   6.901   0.451   1.902 -0.4430 -0.4708 -1.4512
 6725TIP3    H241735   6.785   0.411   1.991 -2.1701  2.0843 -2.4432
 6726TIP3   OH241736   0.247   3.651   1.660  0.1435  0.0621 -0.6621
 6726TIP3    H141737   0.311   3.698   1.606  0.2782  0.5764 -0.0681
 6726TIP3    H241738   0.169   3.647   1.606 -0.6064  2.9374  0.0385
 6727TIP3   OH241739   1.121   1.344   2.100 -0.8749  0.2468 -0.1060
 6727TIP3    H141740   1.180   1.302   2.037  0.6117  1.5874  0.3322
 6727TIP3    H241741   1.136   1.297   2.182  0.6525  1.4189  0.3387
 6728TIP3   OH241742   0.706   0.074   2.211 -0.2653 -0.0002 -0.3910
 6728TIP3    H141743   0.797   0.100   2.226 -0.0507 -1.1598  0.3977
 6728TIP3    H241744   0.670   0.145   2.157  0.6554  1.2592  0.5930
 6729TIP3   OH241745   3.420   5.613   0.602 -0.2106 -0.1262  0.0837
 6729TIP3    H141746   3.490   5.678   0.596 -0.3785 -0.0386 -1.5101
 6729TIP3    H241747   3.394   5.598   0.511 -1.5637 -0.9207  0.5691
 6730TIP3   OH241748   3.990   1.380   1.666  0.2287 -0.0636 -0.1545
 6730TIP3    H141749   4.082   1.359   1.682  0.2959  0.5849  0.3579
 6730TIP3    H241750   3.942   1.318   1.721  0.3868  0.1122  0.1888
 6731TIP3   OH241751   3.030   1.194   1.268 -0.6205  0.5471 -0.3639
 6731TIP3    H141752   2.973   1.133   1.315  0.1600 -0.9805 -1.3339
 6731TIP3    H241753   3.076   1.241   1.337 -0.1623 -1.0092  0.4380
 6732TIP3   OH241754   6.464   0.954   0.743  0.2752 -0.7178  0.2774
 6732TIP3    H141755   6.530   0.916   0.685  1.7072 -0.1421  1.4681
 6732TIP3    H241756   6.471   1.048   0.729  2.0675 -0.4014  2.7646
 6733TIP3   OH241757   6.862   2.907   3.504 -0.2650 -0.5668  0.1866
 6733TIP3    H141758   6.869   2.957   3.585 -0.1093  0.9075 -0.6946
 6733TIP3    H241759   6.787   2.849   3.518 -0.2484 -0.3345  1.3699
 6734TIP3   OH241760   0.281   3.784   3.689 -0.0203 -0.0295 -0.3118
 6734TIP3    H141761   0.361   3.829   3.716 -1.3353  1.9474  0.5314
 6734TIP3    H241762   0.262   3.725   3.762 -0.6679  1.3887  0.7196
 6735TIP3   OH241763   2.380   6.916   1.113  0.5359  0.2527  0.1881
 6735TIP3    H141764   2.286   6.910   1.131  0.7221 -0.6541  0.9427
 6735TIP3    H241765   2.385   6.933   1.019 -0.3550 -1.2723 -0.1708
 6736TIP3   OH241766   2.418   2.789   3.945  0.0013  0.1044 -0.6412
 6736TIP3    H141767   2.488   2.854   3.935 -1.0021  1.0001 -2.1493
 6736TIP3    H241768   2.461   2.705   3.930  1.5962  0.1897  2.5527
 6737TIP3   OH241769   1.896   5.144   3.998  0.1651  0.1545 -0.2047
 6737TIP3    H141770   1.945   5.182   4.070 -0.3187 -1.1731  0.8515
 6737TIP3    H241771   1.955   5.080   3.959 -0.5403 -1.1596  0.8203
 6738TIP3   OH241772   3.943   2.769   0.131  0.5433 -0.6514 -0.1750
 6738TIP3    H141773   3.941   2.679   0.162  0.1666 -0.6957 -0.3237
 6738TIP3    H241774   3.874   2.814   0.180 -0.8059 -0.9762 -1.6797
 6739TIP3   OH241775   0.091   4.582   1.392  0.0928 -0.1613  0.4999
 6739TIP3    H141776   0.143   4.597   1.470  0.3400 -2.2639  0.7719
 6739TIP3    H241777   0.002   4.567   1.424  0.6055 -3.4837  0.7007
 6740TIP3   OH241778   3.694   6.698   4.403 -0.3553 -0.4873 -0.4039
 6740TIP3    H141779   3.735   6.656   4.328 -2.4222 -0.9617 -1.3260
 6740TIP3    H241780   3.624   6.751   4.366 -2.2873 -1.7552  1.2457
 6741TIP3   OH241781   6.289   2.545   2.171  0.1435  0.1161  0.4379
 6741TIP3    H141782   6.304   2.478   2.105 -1.0220  0.9466 -0.7214
 6741TIP3    H241783   6.291   2.627   2.123 -0.6610  0.7504  1.4488
 6742TIP3   OH241784   5.834   2.020   2.628 -0.1188  0.0274 -0.1603
 6742TIP3    H141785   5.863   1.930   2.611 -3.2427 -0.5613 -3.6345
 6742TIP3    H241786   5.856   2.068   2.548 -0.4148  1.8451  0.7909
 6743TIP3   OH241787   2.776   1.406   1.878  0.0334 -0.0792 -0.0088
 6743TIP3    H141788   2.790   1.482   1.822  1.6465 -0.6822 -0.4887
 6743TIP3    H241789   2.737   1.340   1.821  2.7349 -1.0918 -0.8268
 6744TIP3   OH241790   4.897   2.879   0.312  0.3803 -0.1203 -0.0162
 6744TIP3    H141791   4.824   2.827   0.277  2.1395 -1.1065 -2.4858
 6744TIP3    H241792   4.891   2.867   0.407 -1.4861 -1.7869 -0.2737
 6745TIP3   OH241793   0.720   6.319   0.304 -0.1604 -0.4885  0.2412
 6745TIP3    H141794   0.679   6.282   0.382 -0.6369 -0.1596  0.1547
 6745TIP3    H241795   0.716   6.248   0.239 -0.1949 -0.6032  0.3673
 6746TIP3   OH241796   3.702   1.346   0.674 -0.3001 -0.2225 -0.1791
 6746TIP3    H141797   3.647   1.351   0.752  0.2997 -0.1059  0.2438
 6746TIP3    H241798   3.654   1.396   0.608  0.7228  2.6360  1.0580
 6747TIP3   OH241799   5.237   2.071   2.749  0.0580 -0.5596 -0.3705
 6747TIP3    H141800   5.153   2.109   2.774  0.3001 -1.2357  1.6578
 6747TIP3    H241801   5.301   2.116   2.804  0.6996 -1.7892 -0.0759
 6748TIP3   OH241802   2.193   2.886   3.680  0.3361  0.3648  0.2506
 6748TIP3    H141803   2.257   2.832   3.726  0.4766 -1.6291 -2.0655
 6748TIP3    H241804   2.124   2.825   3.654 -0.1833  1.5430 -1.3141
 6749TIP3   OH241805   2.881   5.284   1.728  0.2189 -0.3343 -0.3377
 6749TIP3    H141806   2.910   5.227   1.799 -1.4220  0.1989  0.8322
 6749TIP3    H241807   2.945   5.356   1.727 -0.5902  0.5036  1.7439
 6750TIP3   OH241808   4.475   0.326   0.391  0.1568 -0.4195 -0.4126
 6750TIP3    H141809   4.517   0.267   0.328  0.6207 -0.1141 -0.3950
 6750TIP3    H241810   4.487   0.284   0.475  1.8141  0.3826 -0.1914
 6751TIP3   OH241811   4.390   5.796   0.986 -0.0640 -0.0062 -0.3884
 6751TIP3    H141812   4.367   5.728   0.923  0.4235 -0.8077  0.2750
 6751TIP3    H241813   4.315   5.856   0.985 -0.3330 -0.3446 -1.2598
 6752TIP3   OH241814   5.867   5.632   1.278  0.2187 -0.2422  0.4459
 6752TIP3    H141815   5.900   5.580   1.351  2.0245  0.8439  0.4835
 6752TIP3    H241816   5.781   5.595   1.258  0.6636 -2.0323  1.6183
 6753TIP3   OH241817   3.735   0.004   2.319 -0.3787  0.4451 -0.4700
 6753TIP3    H141818   3.659  -0.004   2.376  0.4142 -0.7848  0.4715
 6753TIP3    H241819   3.810   0.004   2.378  0.3709  2.1891 -1.3398
 6754TIP3   OH241820   1.947   6.843   0.689  0.1192  0.1480 -0.3593
 6754TIP3    H141821   1.969   6.903   0.617 -0.5730 -0.7795 -1.3672
 6754TIP3    H241822   1.876   6.790   0.655  0.7352 -1.2751  0.5048
 6755TIP3   OH241823   1.519   0.996   2.387 -0.6218  0.0577 -0.0548
 6755TIP3    H141824   1.435   0.961   2.415 -0.4111  0.0521  0.5901
 6755TIP3    H241825   1.548   0.935   2.319 -0.9098 -0.2235  0.0684
 6756TIP3   OH241826   4.131   5.092   3.663  0.0639  0.1630  1.1040
 6756TIP3    H141827   4.160   5.042   3.739 -1.4549 -2.2927  0.1722
 6756TIP3    H241828   4.212   5.115   3.618  0.8469 -1.6228  1.5071
 6757TIP3   OH241829   4.878   3.103   4.073  0.2981  0.1004 -0.2731
 6757TIP3    H141830   4.896   3.039   4.004 -0.7664 -0.9229  0.3521
 6757TIP3    H241831   4.899   3.057   4.154  2.0821  1.4740  0.1106
 6758TIP3   OH241832   1.022   1.329   3.364 -0.4541 -0.1696 -0.3829
 6758TIP3    H141833   1.001   1.408   3.314 -0.3504  0.4781  0.5621
 6758TIP3    H241834   0.973   1.259   3.322 -1.6952  0.6649 -0.3671
 6759TIP3   OH241835   3.202   6.940   3.395  0.1432  0.3132 -0.1248
 6759TIP3    H141836   3.182   7.033   3.402 -0.1136  0.2264  0.4031
 6759TIP3    H241837   3.270   6.925   3.461 -0.8066 -0.1338  0.7823
 6760TIP3   OH241838   1.004   1.163   4.335  0.4020  0.2045  0.2677
 6760TIP3    H141839   0.916   1.172   4.371  1.0552 -0.5372  2.1584
 6760TIP3    H241840   1.029   1.253   4.312 -1.7590  0.1674 -2.7868
 6761TIP3   OH241841   6.457   3.698   3.798 -0.1438  0.1589  0.5985
 6761TIP3    H141842   6.529   3.761   3.794  0.4491 -0.2268  2.9782
 6761TIP3    H241843   6.381   3.745   3.765  0.9643  0.9211 -1.0095
 6762TIP3   OH241844   0.145   1.256   2.540 -0.1258 -0.5525 -0.2752
 6762TIP3    H141845   0.076   1.208   2.586  0.5186 -0.8395  0.4195
 6762TIP3    H241846   0.184   1.312   2.607  1.2490 -1.4440 -0.2940
 6763TIP3   OH241847   1.905   2.362   3.215 -0.4928  0.2637  0.5343
 6763TIP3    H141848   1.987   2.313   3.221 -2.0741 -2.4996  1.1167
 6763TIP3    H241849   1.924   2.432   3.152  1.9585 -1.0083 -0.2892
 6764TIP3   OH241850   5.261   4.966   3.603  0.0126  0.6520  0.0869
 6764TIP3    H141851   5.253   5.052   3.646 -2.8351  0.5346 -0.0753
 6764TIP3    H241852   5.205   4.972   3.526 -0.7884 -1.5495  0.4247
 6765TIP3   OH241853   2.883   6.541   4.254  0.2951 -0.0157 -0.1300
 6765TIP3    H141854   2.801   6.555   4.301 -0.2365 -2.4165 -0.2114
 6765TIP3    H241855   2.947   6.596   4.299 -1.3174  1.9088 -0.0685
 6766TIP3   OH241856   6.690   2.698   2.520 -0.3379  0.5593  0.1093
 6766TIP3    H141857   6.616   2.753   2.495  0.2599  1.5188  0.3961
 6766TIP3    H241858   6.747   2.756   2.571  0.6570 -0.1330 -0.1872
 6767TIP3   OH241859   2.023   1.286   1.308  0.2232 -0.1613 -0.1484
 6767TIP3    H141860   2.046   1.199   1.338 -0.9924 -0.6389 -0.5520
 6767TIP3    H241861   2.107   1.329   1.293  0.8351 -1.1434  0.3617
 6768TIP3   OH241862   4.844   4.210   0.481  0.2635  0.4067 -0.0546
 6768TIP3    H141863   4.757   4.190   0.515  0.7119  0.4079  1.1243
 6768TIP3    H241864   4.874   4.283   0.535  1.5624 -0.5061  0.4881
 6769TIP3   OH241865   4.185   0.204   0.764 -0.1506 -0.2365 -0.7866
 6769TIP3    H141866   4.257   0.182   0.704  0.6408  2.3322 -0.8868
 6769TIP3    H241867   4.167   0.122   0.810  2.6124 -1.0860 -1.0258
 6770TIP3   OH241868   5.695   2.234   2.780 -0.5526 -0.1482 -0.5602
 6770TIP3    H141869   5.728   2.302   2.721 -1.7902 -0.0107 -1.1196
 6770TIP3    H241870   5.735   2.153   2.749  0.2664  0.1854 -0.4130
 6771TIP3   OH241871   6.535   2.504   2.644 -0.2985 -0.1370  0.1209
 6771TIP3    H141872   6.604   2.570   2.636 -1.4258  0.8863 -4.1709
 6771TIP3    H241873   6.572   2.427   2.600 -0.2065 -1.3235  2.1705
 6772TIP3   OH241874   1.596   1.787   1.279 -0.7496  0.1275 -0.0642
 6772TIP3    H141875   1.684   1.825   1.287 -0.4582 -0.5649  0.1526
 6772TIP3    H241876   1.577   1.751   1.366  0.4364 -3.2190 -1.0122
 6773TIP3   OH241877   1.088   2.355   1.720 -0.3845  0.4451 -0.6607
 6773TIP3    H141878   1.023   2.381   1.654  0.1114  2.5486 -0.4074
 6773TIP3    H241879   1.171   2.353   1.673 -0.4442 -1.2050 -0.7530
 6774TIP3   OH241880   5.395   1.024   4.006 -0.2604  0.4013 -0.7264
 6774TIP3    H141881   5.446   1.005   3.927  1.0312  1.6691 -0.2357
 6774TIP3    H241882   5.366   1.114   3.995  1.5681  1.2857  1.0520
 6775TIP3   OH241883   0.607   0.390   0.553  0.1887  0.0831  0.0144
 6775TIP3    H141884   0.653   0.395   0.469  1.9528 -0.3332  0.9337
 6775TIP3    H241885   0.560   0.474   0.559 -0.4144 -0.0932 -1.6051
 6776TIP3   OH241886   4.951   0.064   2.934  0.4387  0.0924  0.4862
 6776TIP3    H141887   4.906  -0.017   2.958  0.9233  0.4463  2.7783
 6776TIP3    H241888   4.897   0.134   2.971  1.7353  0.6234  1.4525
 6777TIP3   OH241889   4.645   3.228   4.436  0.1845  0.9024 -0.3222
 6777TIP3    H141890   4.584   3.180   4.380  0.2012 -0.4109  0.7411
 6777TIP3    H241891   4.589   3.274   4.498  0.2232 -0.8698  1.1096
 6778TIP3   OH241892   4.596   1.235   4.265 -0.2548 -0.4367 -0.1042
 6778TIP3    H141893   4.673   1.185   4.294 -0.7451  0.0964  2.3659
 6778TIP3    H241894   4.558   1.181   4.195  0.6269 -2.2917  0.7572
 6779TIP3   OH241895   3.335   2.568   2.713  0.2000 -0.1015  0.3055
 6779TIP3    H141896   3.264   2.596   2.770  1.6694 -0.4845  2.4247
 6779TIP3    H241897   3.292   2.515   2.645 -1.9225  2.5017 -0.5411
 6780TIP3   OH241898   3.478   1.615   0.772 -0.0748 -0.3059 -0.4081
 6780TIP3    H141899   3.383   1.616   0.758  0.0295  2.3289 -1.4051
 6780TIP3    H241900   3.511   1.553   0.707 -1.0114 -0.3063 -0.8997
 6781TIP3   OH241901   3.617   4.980   2.621 -0.5766  0.7764 -0.0209
 6781TIP3    H141902   3.609   4.889   2.593  0.0174  0.5472  0.5219
 6781TIP3    H241903   3.530   5.017   2.609 -1.0992 -0.1650  0.7995
 6782TIP3   OH241904   3.535   5.494   1.044  0.1499  0.0280  0.5520
 6782TIP3    H141905   3.592   5.467   0.972 -1.2110 -0.6952 -0.2979
 6782TIP3    H241906   3.450   5.508   1.003 -0.0738  2.1179  1.6006
 6783TIP3   OH241907   5.497   2.466   0.481  0.6420  0.7236 -0.1253
 6783TIP3    H141908   5.436   2.394   0.493 -1.5551  2.5538  0.5329
 6783TIP3    H241909   5.580   2.425   0.457 -0.6679 -1.9296 -0.4035
 6784TIP3   OH241910   6.628   5.359   1.718  0.2208 -0.0687  0.2899
 6784TIP3    H141911   6.680   5.280   1.704  0.8066  0.3510  0.0575
 6784TIP3    H241912   6.691   5.431   1.709 -0.7645  0.5831 -2.0630
 6785TIP3   OH241913   0.774   2.641   2.126 -0.2933  0.1275 -0.4200
 6785TIP3    H141914   0.800   2.583   2.055  1.4581 -0.5089  0.6855
 6785TIP3    H241915   0.724   2.710   2.083  1.2492  0.1217 -2.3652
 6786TIP3   OH241916   2.670   0.615   3.875  0.2316 -0.2863  0.1212
 6786TIP3    H141917   2.647   0.593   3.965  1.3184 -1.8434  0.0581
 6786TIP3    H241918   2.760   0.646   3.880  1.3053 -3.0208 -0.7175
 6787TIP3   OH241919   6.714   3.104   2.872 -0.0715  0.5119  0.1801
 6787TIP3    H141920   6.632   3.145   2.900  0.3984  4.1435 -2.8758
 6787TIP3    H241921   6.782   3.166   2.899  1.4934 -1.3231  0.6672
 6788TIP3   OH241922   0.596   5.502   4.110 -0.2072  0.0140 -0.1993
 6788TIP3    H141923   0.549   5.576   4.072 -1.1345 -0.5692 -0.2055
 6788TIP3    H241924   0.537   5.427   4.099  0.0939 -0.4422  1.1121
 6789TIP3   OH241925   6.119   2.481   2.684 -0.0597 -0.4433  0.3087
 6789TIP3    H141926   6.097   2.529   2.604 -2.3088 -1.9056 -0.0221
 6789TIP3    H241927   6.181   2.539   2.729 -1.2070  1.9139 -0.9380
 6790TIP3   OH241928   1.070   4.333   3.547  0.0152 -0.1818  0.0550
 6790TIP3    H141929   1.082   4.249   3.503  0.2309  0.3573 -0.9325
 6790TIP3    H241930   1.151   4.346   3.596 -0.7768 -1.4553  1.8226
 6791TIP3   OH241931   1.997   3.820   0.915  0.0790  0.1332 -0.1416
 6791TIP3    H141932   1.915   3.785   0.948  0.4018  0.3006  0.8779
 6791TIP3    H241933   2.052   3.830   0.993  1.3207 -0.6359 -0.8717
 6792TIP3   OH241934   0.380   5.183   0.438 -0.1479  0.0614 -0.5477
 6792TIP3    H141935   0.342   5.105   0.398 -0.1978  0.0051 -0.3877
 6792TIP3    H241936   0.461   5.153   0.479 -1.3345 -0.4024  1.6094
 6793TIP3   OH241937   4.364   6.099   2.335  0.0803  0.0180 -0.1378
 6793TIP3    H141938   4.338   6.172   2.391  0.9240  0.9798 -0.9474
 6793TIP3    H241939   4.408   6.141   2.260 -2.2591 -1.1022 -2.2723
 6794TIP3   OH241940   0.253   2.072   3.253 -0.3695 -0.0408  0.6412
 6794TIP3    H141941   0.304   2.023   3.187 -1.1663  0.4664 -0.3843
 6794TIP3    H241942   0.318   2.100   3.317  0.1694 -2.0973  1.0559
 6795TIP3   OH241943   5.083   6.572   0.991  0.3981  0.3331 -0.4054
 6795TIP3    H141944   5.087   6.660   0.955  0.6120  1.0582  1.3016
 6795TIP3    H241945   5.174   6.541   0.989  0.4924  0.5873  0.0411
 6796TIP3   OH241946   0.493   5.941   1.587 -0.0898  0.7505  0.3485
 6796TIP3    H141947   0.528   6.014   1.637 -1.1894  0.8637  0.9711
 6796TIP3    H241948   0.401   5.935   1.612  0.3576 -2.0062  1.7317
 6797TIP3   OH241949   0.525   3.277   0.836  0.1586  0.1285  0.2360
 6797TIP3    H141950   0.568   3.217   0.897 -0.6216 -0.2431  0.4353
 6797TIP3    H241951   0.571   3.360   0.847  0.1176  0.0298  1.2336
 6798TIP3   OH241952   0.042   0.729   1.724 -0.3451 -0.3111 -0.9176
 6798TIP3    H141953   0.029   0.712   1.818  0.3423 -1.1210 -0.9480
 6798TIP3    H241954  -0.041   0.764   1.694 -0.7563 -0.5647 -0.1118
 6799TIP3   OH241955   5.692   6.705   1.935  0.1839 -0.2927  0.2165
 6799TIP3    H141956   5.701   6.755   1.853  1.9235  1.1409  1.2091
 6799TIP3    H241957   5.757   6.744   1.993 -3.0414  0.8856  3.3889
 6800TIP3   OH241958   4.369   6.823   3.816  0.1219 -0.6915  0.0349
 6800TIP3    H141959   4.435   6.762   3.851 -0.1368 -0.2931  1.2794
 6800TIP3    H241960   4.410   6.909   3.822  0.3941 -0.6899 -1.4959
 6801TIP3   OH241961   3.345   2.818   3.640 -0.1182 -0.4520  0.3370
 6801TIP3    H141962   3.262   2.771   3.643  0.9007 -2.4203 -0.2140
 6801TIP3    H241963   3.369   2.819   3.547  0.4386  0.1308  0.4785
 6802TIP3   OH241964   3.493   1.305   0.876  0.1018 -1.1722  0.4640
 6802TIP3    H141965   3.401   1.296   0.851  0.3495 -0.1808 -0.9635
 6802TIP3    H241966   3.493   1.373   0.943 -0.1214 -0.4082 -0.2937
 6803TIP3   OH241967   1.862   6.684   3.298  0.6653  0.0314 -0.1185
 6803TIP3    H141968   1.865   6.589   3.306  0.8461 -0.2990 -2.9345
 6803TIP3    H241969   1.816   6.699   3.215  2.2867  2.3242 -0.6780
 6804TIP3   OH241970   2.289   6.019   2.865 -0.2362  0.9660 -0.4354
 6804TIP3    H141971   2.276   5.950   2.801 -0.5675  0.6888 -0.0720
 6804TIP3    H241972   2.338   5.978   2.936  0.5070  1.3790 -0.6852
 6805TIP3   OH241973   0.674   3.329   0.561 -0.1266 -0.5590 -0.4578
 6805TIP3    H141974   0.650   3.314   0.653 -0.3259 -0.2676 -0.4593
 6805TIP3    H241975   0.657   3.245   0.518  1.8515 -1.3188  0.1412
 6806TIP3   OH241976   5.911   5.373   2.725  0.4449 -0.4005  0.4961
 6806TIP3    H141977   5.883   5.434   2.793 -1.0057 -1.9885  1.4262
 6806TIP3    H241978   6.005   5.388   2.716  0.0108  2.6100 -0.0694
 6807TIP3   OH241979   2.116   6.574   0.613 -0.0494 -0.1458  0.5370
 6807TIP3    H141980   2.144   6.658   0.649  0.5836 -0.5145  0.9169
 6807TIP3    H241981   2.195   6.519   0.614  0.2695  0.0814 -2.2625
 6808TIP3   OH241982   6.471   6.278   3.377 -0.5082 -0.0331  0.8219
 6808TIP3    H141983   6.379   6.299   3.363 -1.2320 -2.1182  1.9635
 6808TIP3    H241984   6.469   6.202   3.435  1.9636  0.7605  2.0866
 6809TIP3   OH241985   6.913   4.854   2.759 -0.2489 -0.8436 -0.7113
 6809TIP3    H141986   6.866   4.920   2.810 -1.9176 -2.9353  0.6468
 6809TIP3    H241987   7.005   4.872   2.777 -0.5130  2.0645 -1.7382
 6810TIP3   OH241988   2.933   0.906   1.291  0.1378  0.2227  0.6018
 6810TIP3    H141989   2.869   0.938   1.355  0.5951 -0.4043  1.3786
 6810TIP3    H241990   3.016   0.903   1.339 -0.0058 -2.8380  0.8226
 6811TIP3   OH241991   4.169   6.674   0.699 -0.2307  0.8361  0.5380
 6811TIP3    H141992   4.105   6.630   0.755  1.4072  0.6005  2.3482
 6811TIP3    H241993   4.119   6.741   0.653 -2.2895 -1.1307 -0.2720
 6812TIP3   OH241994   5.512   1.705   1.317  0.5641  0.2252  0.0208
 6812TIP3    H141995   5.456   1.780   1.335 -1.5367 -1.1083 -0.5861
 6812TIP3    H241996   5.583   1.740   1.264  0.0370  1.9013  0.3547
 6813TIP3   OH241997   1.206   6.643   8.296  0.1653 -0.3371 -0.6385
 6813TIP3    H141998   1.248   6.696   8.365 -1.3416 -0.8581  0.7530
 6813TIP3    H241999   1.113   6.649   8.316 -0.2695 -0.9151 -2.3893
 6814TIP3   OH242000   0.486   3.279   3.265  0.5823 -0.5319 -0.2819
 6814TIP3    H142001   0.539   3.253   3.340  0.1125  0.6155  0.4813
 6814TIP3    H242002   0.461   3.370   3.283 -2.8774 -1.4248  0.1442
 6815TIP3   OH242003   2.616   1.173   1.032 -0.1735 -0.7632  0.7292
 6815TIP3    H142004   2.687   1.234   1.050 -2.0957  1.3238  1.6402
 6815TIP3    H242005   2.576   1.155   1.117 -1.7623 -0.5294  0.0779
 6816TIP3   OH242006   0.099   1.857   3.393  0.2249 -0.3088 -0.2175
 6816TIP3    H142007   0.109   1.948   3.365  2.2735 -0.1009  1.0090
 6816TIP3    H242008   0.009   1.853   3.427 -0.1820  1.0113 -1.0509
 6817TIP3   OH242009   4.935   5.208   2.394  0.0861 -1.3348  0.4116
 6817TIP3    H142010   4.878   5.153   2.448  0.0074 -1.6417  0.0248
 6817TIP3    H242011   4.878   5.280   2.366  0.3716 -0.6703  1.4792
 6818TIP3   OH242012   5.929   5.578   0.950  0.5356  0.1244  0.2074
 6818TIP3    H142013   5.946   5.487   0.925 -1.2500  0.4014 -2.4295
 6818TIP3    H242014   5.843   5.575   0.993  0.6318  0.5278  0.4285
 6819TIP3   OH242015   3.479   2.046   3.259 -0.1073 -0.0547  0.1214
 6819TIP3    H142016   3.555   2.104   3.248 -0.6000  0.5245 -0.2864
 6819TIP3    H242017   3.409   2.105   3.288 -0.5971 -0.4623 -0.2299
 6820TIP3   OH242018   6.667   2.534   2.289  0.2740 -0.3595 -0.6375
 6820TIP3    H142019   6.659   2.585   2.369 -0.8384  3.0770 -2.7118
 6820TIP3    H242020   6.731   2.582   2.236 -1.4001 -0.5513 -3.0465
 6821TIP3   OH242021   6.390   0.699   1.269  0.0004 -0.3561  0.3970
 6821TIP3    H142022   6.444   0.770   1.235  0.4350 -0.7950  0.1471
 6821TIP3    H242023   6.300   0.728   1.256  0.1710  0.4968  1.0532
 6822TIP3   OH242024   1.592   3.880   1.824  0.2994  0.2887  0.1626
 6822TIP3    H142025   1.550   3.925   1.751  0.0765 -0.9742 -0.5098
 6822TIP3    H242026   1.519   3.853   1.880  0.1748 -1.4651 -0.7550
 6823TIP3   OH242027   5.045   0.579   2.570 -0.4757 -0.1732 -0.2279
 6823TIP3    H142028   5.039   0.635   2.648 -1.9888 -0.1626 -0.3236
 6823TIP3    H242029   5.061   0.492   2.604  2.2992  0.2952 -0.0901
 6824TIP3   OH242030   2.991   4.303   1.278 -0.1447  0.0704 -0.0990
 6824TIP3    H142031   3.005   4.224   1.331 -0.2078  0.4118  0.4253
 6824TIP3    H242032   3.080   4.337   1.263 -0.1741  0.4287  0.4893
 6825TIP3   OH242033   3.071   5.149   0.015  0.2577  0.3067  0.2002
 6825TIP3    H142034   3.065   5.179  -0.076  1.5866  1.7134  0.5460
 6825TIP3    H242035   3.131   5.075   0.011 -2.6000 -2.1674 -0.5697
 6826TIP3   OH242036   1.904   5.162   2.857  0.1335 -0.0611 -0.1271
 6826TIP3    H142037   1.921   5.131   2.768 -0.5481 -1.2859  0.1440
 6826TIP3    H242038   1.961   5.107   2.912 -1.0498 -0.8217  0.3648
 6827TIP3   OH242039   4.827   1.103   1.359  0.0131  0.7813  0.2134
 6827TIP3    H142040   4.770   1.178   1.343  2.3263  2.1860 -2.1830
 6827TIP3    H242041   4.890   1.104   1.287  0.7502 -2.9586  0.5826
 6828TIP3   OH242042   1.759   4.783   2.419  0.0847 -0.1208  0.3853
 6828TIP3    H142043   1.692   4.782   2.487 -1.3124  3.4731 -0.6923
 6828TIP3    H242044   1.837   4.745   2.461 -1.7210 -1.5723  2.6657
 6829TIP3   OH242045   1.970   5.535   1.628  0.0073 -0.1416  0.7639
 6829TIP3    H142046   2.034   5.507   1.562  0.8216 -0.3790  1.6190
 6829TIP3    H242047   2.024   5.565   1.702 -0.8451  2.7630  0.3061
 6830TIP3   OH242048   5.902   4.575   2.512  0.0648 -0.1224  0.3380
 6830TIP3    H142049   5.937   4.663   2.522  5.4813 -1.9479  0.8807
 6830TIP3    H242050   5.872   4.571   2.421  1.8245  1.7258 -0.3990
 6831TIP3   OH242051   6.161   0.144   1.250 -0.1945  0.2975 -0.3720
 6831TIP3    H142052   6.092   0.082   1.274 -0.7106  1.3322  0.9148
 6831TIP3    H242053   6.183   0.120   1.160 -2.2453 -0.0607 -0.8449
 6832TIP3   OH242054   2.791   1.328   0.619 -0.2126  0.2415  0.0716
 6832TIP3    H142055   2.733   1.284   0.682  0.2113 -0.0346  0.2705
 6832TIP3    H242056   2.878   1.296   0.640  0.0687  0.9521  0.0241
 6833TIP3   OH242057   2.685   0.547   0.779 -0.2042  0.2256 -0.6526
 6833TIP3    H142058   2.744   0.476   0.753  1.3859  0.6902  1.4445
 6833TIP3    H242059   2.652   0.582   0.696  0.1666 -1.9303 -1.7894
 6834TIP3   OH242060   3.891   4.809   2.734 -0.1778 -0.2988  0.2441
 6834TIP3    H142061   3.796   4.800   2.741 -0.2774  0.2358 -0.2697
 6834TIP3    H242062   3.925   4.720   2.744 -0.7734 -0.5751 -0.1201
 6835TIP3   OH242063   6.275   1.231   1.370 -0.1000 -0.0551  0.5967
 6835TIP3    H142064   6.259   1.322   1.345 -1.1482 -0.3123  0.2770
 6835TIP3    H242065   6.369   1.227   1.387  0.0341  0.9816  0.1856
 6836TIP3   OH242066   0.728   3.760   0.399 -0.3523 -0.2912  0.4081
 6836TIP3    H142067   0.710   3.746   0.306 -0.5011  0.0554  0.3827
 6836TIP3    H242068   0.799   3.699   0.419  0.3304  0.2984 -0.1644
 6837TIP3   OH242069   6.689   2.136   8.364 -0.5083  0.1498 -0.2264
 6837TIP3    H142070   6.647   2.221   8.351  0.9387  0.8561 -0.5410
 6837TIP3    H242071   6.750   2.151   8.437 -0.1929 -0.6002 -0.3275
 6838TIP3   OH242072   4.222   2.059   0.523  0.8363  0.3686 -0.4277
 6838TIP3    H142073   4.297   2.102   0.481  1.4339 -0.8639 -0.6854
 6838TIP3    H242074   4.231   1.967   0.498 -0.4410  0.1010  0.0370
 6839TIP3   OH242075   6.576   1.905   1.981  0.0145  0.6828  0.0147
 6839TIP3    H142076   6.638   1.851   2.031 -0.8208  1.3464  1.8821
 6839TIP3    H242077   6.560   1.855   1.901  1.0178 -0.7293  0.6445
 6840TIP3   OH242078   3.551   3.350   0.129  0.3238  0.0097 -0.3988
 6840TIP3    H142079   3.585   3.426   0.081  0.2834 -0.0709 -0.5566
 6840TIP3    H242080   3.577   3.274   0.076  0.5751 -0.1026 -0.1187
 6841TIP3   OH242081   5.600   3.826   3.609  0.6339  0.7169  0.1455
 6841TIP3    H142082   5.644   3.911   3.608  3.9524 -0.7235  3.2265
 6841TIP3    H242083   5.542   3.829   3.685 -0.1207  0.6041 -0.4181
 6842TIP3   OH242084   4.600   0.991   3.297  0.2227 -0.2501  0.6290
 6842TIP3    H142085   4.647   0.908   3.293 -1.6647 -1.3394 -1.1685
 6842TIP3    H242086   4.666   1.058   3.280  1.1819 -1.7082 -1.9128
 6843TIP3   OH242087   6.336   2.752   1.998  0.2144  1.1552 -0.4512
 6843TIP3    H142088   6.306   2.834   2.038  1.1837  1.9948 -1.4034
 6843TIP3    H242089   6.427   2.768   1.975  0.2163  0.0388 -1.3010
 6844TIP3   OH242090   4.810   4.053   1.785  0.2637 -0.4829  0.1026
 6844TIP3    H142091   4.755   4.105   1.843 -1.9526 -1.6604 -0.8442
 6844TIP3    H242092   4.752   4.027   1.714  1.3167 -3.9549  0.3452
 6845TIP3   OH242093   4.611   2.900   0.951 -0.9706 -0.5570 -0.0057
 6845TIP3    H142094   4.635   2.821   0.999  0.6377 -0.6150 -0.8464
 6845TIP3    H242095   4.523   2.882   0.918 -1.3697 -1.2366  1.3396
 6846TIP3   OH242096   3.549   3.245   1.856 -0.1586 -0.5173  0.1052
 6846TIP3    H142097   3.486   3.269   1.788 -0.7713 -1.6857  0.2358
 6846TIP3    H242098   3.499   3.249   1.937  0.8159  1.8535  0.6680
 6847TIP3   OH242099   2.992   3.678   0.471  0.3849 -0.0185 -0.2131
 6847TIP3    H142100   3.071   3.625   0.474 -0.0295 -0.5919  0.8637
 6847TIP3    H242101   2.935   3.633   0.408  0.6333  0.0245 -0.4739
 6848TIP3   OH242102   5.727   5.081   2.333  0.1674  0.0062  0.1928
 6848TIP3    H142103   5.816   5.111   2.318  0.2293 -0.5887 -0.6980
 6848TIP3    H242104   5.682   5.156   2.371  1.2521  0.0482  1.4682
 6849TIP3   OH242105   6.709   6.611   1.131 -0.4062  0.1410  0.6090
 6849TIP3    H142106   6.697   6.648   1.219 -0.9443 -0.0833  0.6372
 6849TIP3    H242107   6.620   6.602   1.097 -0.1993  0.2090  0.0454
 6850TIP3   OH242108   0.614   6.758   0.462 -0.3909  0.0876 -0.3824
 6850TIP3    H142109   0.652   6.820   0.400 -0.5303 -0.4509 -1.0145
 6850TIP3    H242110   0.689   6.709   0.495 -0.3027  0.4563 -0.0263
 6851TIP3   OH242111   6.052   1.176   1.502  0.0047 -0.2692 -0.3082
 6851TIP3    H142112   6.127   1.202   1.449  0.8630  2.4208  1.9909
 6851TIP3    H242113   6.086   1.176   1.592 -2.3927 -0.4743  0.6551
 6852TIP3   OH242114   0.424   6.410   3.410  0.2413  0.1173  0.1837
 6852TIP3    H142115   0.360   6.347   3.377  0.4894  0.1269 -0.3264
 6852TIP3    H242116   0.480   6.359   3.469 -1.0991  0.4188  1.7597
 6853TIP3   OH242117   2.185   5.547   3.219 -0.6625  0.0092 -0.4833
 6853TIP3    H142118   2.180   5.567   3.312 -1.4519  0.5106 -0.6223
 6853TIP3    H242119   2.121   5.476   3.207 -0.6858  0.0604 -0.6695
 6854TIP3   OH242120   1.719   5.520   0.243  0.7390  0.0358  0.0310
 6854TIP3    H142121   1.715   5.436   0.289  1.4210  0.4994  0.9646
 6854TIP3    H242122   1.633   5.530   0.203  0.7994 -1.3381 -0.5237
 6855TIP3   OH242123   1.773   0.285   1.346  0.0373 -0.0187 -0.2381
 6855TIP3    H142124   1.703   0.295   1.411 -1.2084 -1.9750 -1.1813
 6855TIP3    H242125   1.785   0.191   1.338  0.4647  0.1617 -2.4948
 6856TIP3   OH242126   5.515   4.009   0.576 -0.0836  0.2580  0.2253
 6856TIP3    H142127   5.438   3.966   0.540  0.0546  1.4029 -1.5817
 6856TIP3    H242128   5.535   4.080   0.513  1.3062  1.1852  1.6245
 6857TIP3   OH242129   3.546   1.290   4.121  0.2931  0.2247  0.3813
 6857TIP3    H142130   3.463   1.259   4.157  0.5547  0.5864  1.3165
 6857TIP3    H242131   3.611   1.266   4.186  0.9854 -0.3550 -0.4961
 6858TIP3   OH242132   5.534   3.121   2.024 -0.0800  0.0269 -0.4628
 6858TIP3    H142133   5.581   3.041   2.047 -1.1326 -0.6938 -0.7391
 6858TIP3    H242134   5.481   3.141   2.102 -0.5431 -0.0909 -0.7463
 6859TIP3   OH242135   1.995   5.056   1.329 -0.3966  0.3785  0.0067
 6859TIP3    H142136   2.031   5.138   1.362  0.9203 -0.6687  1.2800
 6859TIP3    H242137   1.903   5.057   1.356 -0.0167  0.7711  1.3267
 6860TIP3   OH242138   3.086   2.593   2.837 -0.1334 -0.2085  0.1148
 6860TIP3    H142139   3.024   2.663   2.859 -1.0424 -0.5722 -1.1260
 6860TIP3    H242140   3.040   2.512   2.860  0.4896 -0.4472  0.5567
 6861TIP3   OH242141   6.116   2.753   1.847 -0.0782  0.2235  0.0079
 6861TIP3    H142142   6.108   2.835   1.896 -1.2699  0.9613 -1.3334
 6861TIP3    H242143   6.194   2.711   1.882  0.2227  1.6570  1.1371
 6862TIP3   OH242144   0.923   4.212   2.969 -0.0463 -0.4393  0.1761
 6862TIP3    H142145   1.009   4.197   2.929  0.9400  0.6160  1.7866
 6862TIP3    H242146   0.916   4.145   3.037  0.1899  0.4273  1.0637
 6863TIP3   OH242147   4.548   4.765   3.398  0.1315  0.1278  0.1349
 6863TIP3    H142148   4.557   4.789   3.490  4.2956  0.7984 -0.2635
 6863TIP3    H242149   4.560   4.847   3.350  2.5370 -0.8167 -1.0161
 6864TIP3   OH242150   2.271   4.321   0.998  0.5387 -0.7688  0.1907
 6864TIP3    H142151   2.266   4.407   0.957  1.0653 -1.0799 -0.5504
 6864TIP3    H242152   2.180   4.297   1.014  0.4139  0.3910  1.4437
 6865TIP3   OH242153   3.860   2.923   4.122  0.2989 -0.0882  0.7585
 6865TIP3    H142154   3.936   2.866   4.105 -0.2901 -0.4152 -1.1131
 6865TIP3    H242155   3.858   2.933   4.217  1.5047 -1.7104  1.0060
 6866TIP3   OH242156   4.528   2.576   2.725 -0.0506 -0.4852 -0.1548
 6866TIP3    H142157   4.519   2.494   2.774 -0.4959 -0.3458 -0.0052
 6866TIP3    H242158   4.461   2.571   2.658 -0.5370  0.0693  0.2866
 6867TIP3   OH242159   5.512   0.066   2.023 -0.4473  0.1330  0.0448
 6867TIP3    H142160   5.466   0.082   1.940  1.0032  0.1598 -0.7904
 6867TIP3    H242161   5.546   0.151   2.049 -0.0634 -0.0454  0.1394
 6868TIP3   OH242162   4.210   6.054   1.495 -0.1699 -0.3631 -0.5095
 6868TIP3    H142163   4.212   6.149   1.494 -1.9307 -0.2890  0.2124
 6868TIP3    H242164   4.289   6.029   1.544 -0.4263  0.7671  0.5145
 6869TIP3   OH242165   4.092   1.018   0.592  0.3820  0.1486 -0.5947
 6869TIP3    H142166   4.151   1.082   0.632 -0.8130 -0.2439  2.0390
 6869TIP3    H242167   4.006   1.061   0.593 -0.2534 -1.0783  0.2979
 6870TIP3   OH242168   2.806   4.778   1.959  0.2667  0.4066 -0.3615
 6870TIP3    H142169   2.748   4.854   1.967 -0.3845 -0.1882  1.0303
 6870TIP3    H242170   2.812   4.744   2.048 -0.5823 -2.0025 -1.1634
 6871TIP3   OH242171   1.792   4.882   0.497  0.5637 -0.9239 -0.2675
 6871TIP3    H142172   1.731   4.812   0.475  3.8609 -3.9204 -0.7190
 6871TIP3    H242173   1.799   4.879   0.592  0.8031 -1.2786 -0.2979
 6872TIP3   OH242174   5.902   3.969   3.551  0.0336 -0.4313 -0.5970
 6872TIP3    H142175   5.961   3.907   3.509 -1.2224 -2.1206 -0.0094
 6872TIP3    H242176   5.884   4.035   3.483  2.8776  0.4252 -0.6314
 6873TIP3   OH242177   3.821   5.449   2.196  0.0461 -0.0507  0.5035
 6873TIP3    H142178   3.891   5.429   2.134  0.6821 -2.8354  1.9683
 6873TIP3    H242179   3.775   5.366   2.209 -0.8320  0.7095  2.8321
 6874TIP3   OH242180   1.904   3.275   1.138  0.1623  0.3468  0.2437
 6874TIP3    H142181   1.916   3.201   1.198 -1.4179  0.1320  0.3379
 6874TIP3    H242182   1.983   3.276   1.085  0.8528 -0.5005  1.2217
 6875TIP3   OH242183   2.945   4.946   0.379 -0.0437 -0.0417  0.1988
 6875TIP3    H142184   2.905   4.949   0.292  0.7149 -1.2420 -0.2231
 6875TIP3    H242185   3.026   4.997   0.370  0.3836 -0.7327 -0.0202
 6876TIP3   OH242186   5.351   2.644   2.627 -0.7488 -0.2052  0.1586
 6876TIP3    H142187   5.346   2.559   2.582 -0.6372  0.1920 -0.6174
 6876TIP3    H242188   5.302   2.704   2.572 -0.7250  0.2695  0.6432
 6877TIP3   OH242189   6.365   3.937   4.074 -0.1850  0.4017  0.1473
 6877TIP3    H142190   6.271   3.953   4.068 -0.1979  1.1474  1.6581
 6877TIP3    H242191   6.395   3.931   3.984 -1.9494 -1.6463 -0.3613
 6878TIP3   OH242192   6.025   1.619   3.872  0.3500 -0.3994 -0.6859
 6878TIP3    H142193   5.992   1.531   3.890  0.1111  0.0410  1.2685
 6878TIP3    H242194   6.053   1.652   3.958 -2.2119  2.4896 -0.7773
 6879TIP3   OH242195   2.388   1.299   0.740  0.4909  0.0042 -0.4052
 6879TIP3    H142196   2.407   1.392   0.741 -1.6044  0.5329 -1.8407
 6879TIP3    H242197   2.375   1.278   0.647  1.0764 -1.7760 -0.1393
 6880TIP3   OH242198   4.894   6.700   2.503  0.0644  0.5775  0.4897
 6880TIP3    H142199   4.956   6.635   2.471 -0.7613 -0.7631  1.5083
 6880TIP3    H242200   4.837   6.652   2.563 -2.4781  1.5398 -0.9742
 6881TIP3   OH242201   4.276   6.052   8.454 -0.1532 -0.1207 -0.0684
 6881TIP3    H142202   4.219   6.117   8.494  1.8334  1.6266  0.1256
 6881TIP3    H242203   4.227   6.018   8.379 -0.9465  2.2740 -0.7077
 6882TIP3   OH242204   5.786   4.814   2.815 -0.5453  0.2159  0.1820
 6882TIP3    H142205   5.768   4.869   2.738 -0.5362  1.2936  0.9260
 6882TIP3    H242206   5.861   4.760   2.789 -1.1841 -0.1703 -0.9164
 6883TIP3   OH242207   6.065   4.533   0.849 -0.7493  0.2404  0.3248
 6883TIP3    H142208   5.974   4.546   0.877 -0.5615 -0.2415  1.2087
 6883TIP3    H242209   6.061   4.464   0.784 -1.3767  2.3820 -2.0679
 6884TIP3   OH242210   0.633   0.643   3.684  0.3650  0.2661  0.8793
 6884TIP3    H142211   0.702   0.577   3.694 -0.5685 -0.5938  1.9209
 6884TIP3    H242212   0.602   0.632   3.594  0.1235 -0.8485  1.0799
 6885TIP3   OH242213   3.131   1.299   1.956  0.0833  0.3335 -0.4847
 6885TIP3    H142214   3.169   1.218   1.923  0.0814  0.3715 -0.5796
 6885TIP3    H242215   3.186   1.322   2.031  0.0920  0.2523 -0.4657
 6886TIP3   OH242216   4.725   4.348   8.158 -0.3368 -0.1828  0.2920
 6886TIP3    H142217   4.818   4.361   8.139 -0.2298  1.0824  1.4779
 6886TIP3    H242218   4.702   4.267   8.113  1.4012 -0.6652  0.1948
 6887TIP3   OH242219   2.470   0.385   3.294  0.3535  0.0386  0.0511
 6887TIP3    H142220   2.558   0.394   3.330  0.3079  0.6989  0.0130
 6887TIP3    H242221   2.462   0.458   3.232 -1.3759  2.0793  2.4601
 6888TIP3   OH242222   1.220   3.720   3.760 -0.2471 -0.3304 -0.1533
 6888TIP3    H142223   1.133   3.679   3.765  0.7256 -2.3789  1.4460
 6888TIP3    H242224   1.278   3.650   3.730  1.1024  0.5369  0.3463
 6889TIP3   OH242225   6.609   6.093   1.740  0.0269  0.5017  0.0067
 6889TIP3    H142226   6.661   6.152   1.795  0.1528  0.5670 -0.1821
 6889TIP3    H242227   6.633   6.116   1.651  0.8178 -0.5072 -0.0546
 6890TIP3   OH242228   2.108   4.187   1.900 -0.4402  0.2812  0.1381
 6890TIP3    H142229   2.133   4.271   1.862  0.8852 -0.3041 -0.3259
 6890TIP3    H242230   2.017   4.199   1.928  0.0543  2.1918  1.0504
 6891TIP3   OH242231   3.016   2.845   3.425 -0.0046 -0.1951 -0.6620
 6891TIP3    H142232   3.073   2.779   3.466 -0.2999 -0.2744 -0.3702
 6891TIP3    H242233   3.007   2.815   3.335  1.2129  0.3548 -0.9884
 6892TIP3   OH242234   6.942   3.192   1.088  0.1504  0.1923 -0.0496
 6892TIP3    H142235   6.885   3.133   1.039  0.8191 -1.4582  1.0657
 6892TIP3    H242236   6.966   3.260   1.025 -1.1157 -0.3851 -1.2173
 6893TIP3   OH242237   0.128   0.668   3.455 -0.0565  0.4941 -0.1366
 6893TIP3    H142238   0.043   0.655   3.496 -0.1278  1.4851  0.0579
 6893TIP3    H242239   0.148   0.584   3.413 -1.1449  0.2697 -0.2290
 6894TIP3   OH242240   3.349   5.644   0.323  0.1077 -0.0574 -0.0137
 6894TIP3    H142241   3.351   5.646   0.227  0.3126  2.7679 -0.0333
 6894TIP3    H242242   3.274   5.697   0.346 -0.5820 -1.5856  1.4563
 6895TIP3   OH242243   1.450   0.497   8.082 -0.0635 -0.3306  0.3197
 6895TIP3    H142244   1.538   0.469   8.059 -0.0705  0.5084 -0.8358
 6895TIP3    H242245   1.396   0.419   8.068  0.1908 -0.2902 -1.0775
 6896TIP3   OH242246   2.000   2.887   0.724 -0.5560  0.9130 -0.1237
 6896TIP3    H142247   2.013   2.797   0.696 -0.4633  1.1525 -0.8777
 6896TIP3    H242248   1.955   2.929   0.650 -1.2974  1.2947  0.5249
 6897TIP3   OH242249   4.702   5.755   3.071 -0.3875 -0.4274 -0.5526
 6897TIP3    H142250   4.752   5.718   2.998 -2.0374  0.4712 -2.2323
 6897TIP3    H242251   4.768   5.772   3.139  1.0439 -2.2741 -1.3924
 6898TIP3   OH242252   0.805   6.682   1.986 -0.3124 -0.7407 -0.1504
 6898TIP3    H142253   0.772   6.595   1.964  3.7773 -2.7020  0.6574
 6898TIP3    H242254   0.823   6.723   1.902  0.0606 -1.7076 -0.5591
 6899TIP3   OH242255   3.940   0.299   0.933 -0.3483 -0.2508  0.0402
 6899TIP3    H142256   4.023   0.272   0.894  0.3366  1.9732 -0.1764
 6899TIP3    H242257   3.893   0.341   0.862 -1.1839 -0.4575  0.4602
 6900TIP3   OH242258   2.054   1.980   2.381  0.1647  0.2980  0.2801
 6900TIP3    H142259   2.020   1.891   2.394  1.2277 -0.2651 -0.7165
 6900TIP3    H242260   2.072   2.011   2.470  0.9021 -0.9260  0.5794
 6901TIP3   OH242261   6.377   5.370   1.915 -0.1870  0.3890 -0.2968
 6901TIP3    H142262   6.319   5.336   1.847 -0.0115  2.3472 -1.5105
 6901TIP3    H242263   6.465   5.361   1.879  0.1246 -0.6491  0.6615
 6902TIP3   OH242264   3.789   1.377   3.190 -0.2681 -0.1350 -0.1248
 6902TIP3    H142265   3.741   1.435   3.249 -0.0879  0.1929 -0.2988
 6902TIP3    H242266   3.774   1.414   3.103 -1.9446 -1.5598 -0.5174
 6903TIP3   OH242267   2.037   1.984   3.069 -0.5369 -0.0676 -0.0738
 6903TIP3    H142268   2.100   1.967   3.140  0.0934  1.8076 -0.1347
 6903TIP3    H242269   1.959   1.935   3.094  0.6014 -1.6745  0.5041
 6904TIP3   OH242270   6.082   4.964   1.493  0.1007  0.3618  0.2243
 6904TIP3    H142271   6.030   4.967   1.414 -0.3307 -0.8031  0.4474
 6904TIP3    H242272   6.052   5.038   1.545 -0.6731  0.2529 -0.0583
 6905TIP3   OH242273   3.129   3.278   8.000 -0.2872  0.1005  0.0257
 6905TIP3    H142274   3.162   3.367   7.988  3.6011 -1.3479 -1.2832
 6905TIP3    H242275   3.162   3.251   8.086 -0.1434 -0.5910 -0.2396
 6906TIP3   OH242276   2.998   2.837   2.918 -0.0631 -0.5149 -0.7239
 6906TIP3    H142277   2.938   2.910   2.903  0.1109  0.2235  1.7772
 6906TIP3    H242278   2.998   2.824   3.013  3.1722 -0.9548 -0.6486
 6907TIP3   OH242279   6.399   5.405   1.600  0.3181 -0.4450  0.1615
 6907TIP3    H142280   6.473   5.378   1.654 -1.0975 -1.1458  1.8444
 6907TIP3    H242281   6.389   5.334   1.536  3.5932  1.5381 -2.9556
 6908TIP3   OH242282   0.454   4.645   3.195  0.0771 -0.2139 -0.2365
 6908TIP3    H142283   0.494   4.718   3.148  0.3526 -0.2881 -0.1196
 6908TIP3    H242284   0.414   4.685   3.273 -3.7686  0.5618 -2.3492
 6909TIP3   OH242285   4.438   2.687   1.688 -0.3203  0.6383 -0.1620
 6909TIP3    H142286   4.508   2.633   1.652 -0.6349  0.2352 -0.1804
 6909TIP3    H242287   4.391   2.628   1.748  0.2117  1.3003  0.9335
 6910TIP3   OH242288   6.552   4.657   3.113  0.0464 -0.1252 -0.2075
 6910TIP3    H142289   6.605   4.736   3.114  1.1431 -0.8430  0.3214
 6910TIP3    H242290   6.572   4.613   3.196  0.1496 -1.3797 -0.8706
 6911TIP3   OH242291   6.366   3.892   3.530 -0.3188  0.6780 -0.1976
 6911TIP3    H142292   6.377   3.813   3.477 -0.9896  0.8472 -0.5945
 6911TIP3    H242293   6.454   3.930   3.535  0.6339 -1.4669  2.2223
 6912TIP3   OH242294   1.566   2.160   1.843 -0.1257  0.0989 -0.2471
 6912TIP3    H142295   1.557   2.254   1.859 -0.9004 -0.1705  1.0673
 6912TIP3    H242296   1.550   2.119   1.928  0.3561 -1.2235 -0.7588
 6913TIP3   OH242297   0.075   3.955   1.432  0.3794  0.0577  0.3285
 6913TIP3    H142298   0.154   3.928   1.480 -0.0009 -0.4268  0.6850
 6913TIP3    H242299   0.019   3.995   1.499  0.6061  1.0396 -0.0504
 6914TIP3   OH242300   5.691   4.622   8.404  0.8126 -0.2907 -0.3904
 6914TIP3    H142301   5.680   4.593   8.314 -0.6576 -0.2287 -0.2601
 6914TIP3    H242302   5.736   4.707   8.397  1.2837 -0.5849 -1.0071
 6915TIP3   OH242303   1.974   5.943   0.571  0.2920  0.0756  0.2570
 6915TIP3    H142304   1.887   5.958   0.535 -0.0282 -1.2253  0.4493
 6915TIP3    H242305   1.976   5.997   0.651 -0.3152  0.1363  0.2331
 6916TIP3   OH242306   1.614   0.181   3.524  0.2946  0.0282 -0.1672
 6916TIP3    H142307   1.648   0.091   3.525 -2.1484 -0.9988  2.1056
 6916TIP3    H242308   1.624   0.211   3.614  1.1350  2.1466 -0.9028
 6917TIP3   OH242309   3.345   4.332   3.338 -0.4997 -0.7505  0.6463
 6917TIP3    H142310   3.303   4.408   3.377 -0.0848  0.4477 -1.1545
 6917TIP3    H242311   3.438   4.343   3.357 -0.0775  0.6632 -1.8411
 6918TIP3   OH242312   6.811   5.126   1.782  0.5286  0.1970  0.0056
 6918TIP3    H142313   6.810   5.048   1.727 -0.2329 -0.1375  0.4749
 6918TIP3    H242314   6.736   5.115   1.841  0.6276  1.1088  0.3194
 6919TIP3   OH242315   1.305   2.257   3.590  0.3808  0.3688  0.0825
 6919TIP3    H142316   1.391   2.299   3.588  1.8514 -2.3987 -3.0637
 6919TIP3    H242317   1.322   2.167   3.617 -2.0248  0.3652  2.0196
 6920TIP3   OH242318   5.563   2.272   0.130 -0.0055 -0.2341  0.0019
 6920TIP3    H142319   5.635   2.331   0.152 -0.3280  0.1254  0.0998
 6920TIP3    H242320   5.539   2.297   0.040  0.2661 -0.6322 -0.1810
 6921TIP3   OH242321   6.741   3.449   0.251 -0.1267 -0.2875  0.1705
 6921TIP3    H142322   6.813   3.390   0.227  2.2277  2.9845 -1.6790
 6921TIP3    H242323   6.684   3.450   0.175  1.7882  2.2768 -1.4172
 6922TIP3   OH242324   0.393   3.174   2.818  0.5286  0.1523  0.0733
 6922TIP3    H142325   0.340   3.224   2.880 -1.8353 -0.6936 -1.1455
 6922TIP3    H242326   0.403   3.233   2.742  1.7845  0.4749  0.4653
 6923TIP3   OH242327   0.082   0.412   3.335 -0.1385 -0.2619  0.0516
 6923TIP3    H142328   0.053   0.376   3.251 -1.0263  0.0834  0.2007
 6923TIP3    H242329   0.014   0.386   3.397 -1.0492  2.0185  0.0918
 6924TIP3   OH242330   0.126   3.791   1.180 -0.0974  0.2453 -0.1966
 6924TIP3    H142331   0.162   3.780   1.269 -1.2180  3.3507  0.7752
 6924TIP3    H242332   0.192   3.752   1.123  0.9803 -1.2833  1.9292
 6925TIP3   OH242333   6.158   6.659   0.593  0.3718 -0.1130 -0.4600
 6925TIP3    H142334   6.183   6.752   0.600 -0.9326  0.5513 -3.1771
 6925TIP3    H242335   6.240   6.614   0.575  0.8880  0.6910 -0.1967
 6926TIP3   OH242336   3.182   1.612   0.761 -0.2956 -0.4233 -0.0196
 6926TIP3    H142337   3.155   1.693   0.718 -0.8112 -1.0029 -0.8078
 6926TIP3    H242338   3.166   1.543   0.697 -1.2689 -1.3517  1.1620
 6927TIP3   OH242339   3.359   6.925   1.060 -0.5829 -0.1522  0.0464
 6927TIP3    H142340   3.359   7.019   1.079  2.3775 -0.4099  2.0572
 6927TIP3    H242341   3.412   6.916   0.981 -0.3707 -0.1276  0.1825
 6928TIP3   OH242342   4.092   2.959   3.057  0.1049  0.4269 -0.2836
 6928TIP3    H142343   4.051   2.972   3.142  1.2450  2.4464  0.0246
 6928TIP3    H242344   4.070   2.869   3.033 -1.9833  0.4942  1.1638
 6929TIP3   OH242345   5.419   5.663   1.917 -0.1162  0.0942 -0.5069
 6929TIP3    H142346   5.433   5.631   2.006 -0.0440 -0.3535 -0.6758
 6929TIP3    H242347   5.340   5.618   1.887 -0.1479  0.2533 -0.6653
 6930TIP3   OH242348   4.487   4.412   3.804 -0.1385  0.6199  0.4490
 6930TIP3    H142349   4.476   4.476   3.733 -2.6727 -0.0838  0.1041
 6930TIP3    H242350   4.400   4.374   3.815  0.7525 -1.0308  2.3207
 6931TIP3   OH242351   0.308   1.536   3.610  0.6019  0.1907  0.6226
 6931TIP3    H142352   0.287   1.457   3.659 -0.3258 -1.1880 -1.8313
 6931TIP3    H242353   0.386   1.514   3.560 -0.8081  0.0102 -1.6411
 6932TIP3   OH242354   4.613   4.070   0.932  0.1367  0.2879 -0.8425
 6932TIP3    H142355   4.633   4.163   0.944  0.3212  0.1691 -0.1865
 6932TIP3    H242356   4.541   4.070   0.869 -0.5497  0.9396 -0.0954
 6933TIP3   OH242357   0.050   0.784   0.310  0.4494 -1.1005 -0.6103
 6933TIP3    H142358   0.063   0.711   0.251 -0.8936 -0.1348 -2.1794
 6933TIP3    H242359  -0.031   0.826   0.280  1.1695  1.0298  0.2112
 6934TIP3   OH242360   4.395   6.132   0.676  0.1065 -0.1304 -0.4067
 6934TIP3    H142361   4.322   6.174   0.722  1.2740  1.9405 -0.3204
 6934TIP3    H242362   4.387   6.162   0.586  1.1955  0.6328 -0.2594
 6935TIP3   OH242363   0.500   4.800   1.372  0.4142 -0.1995 -0.2939
 6935TIP3    H142364   0.460   4.713   1.379 -0.0797 -0.1180 -1.7459
 6935TIP3    H242365   0.432   4.860   1.402  0.4625 -0.2623 -0.0614
 6936TIP3   OH242366   0.268   1.708   0.842  0.4168  0.1227  0.1820
 6936TIP3    H142367   0.345   1.762   0.859 -0.0841  1.3040 -1.0742
 6936TIP3    H242368   0.282   1.674   0.753  0.3415 -1.1815  0.6512
 6937TIP3   OH242369   3.404   2.559   3.136  0.4621  0.1797 -0.1427
 6937TIP3    H142370   3.355   2.640   3.123 -0.6533 -0.5768 -0.8790
 6937TIP3    H242371   3.424   2.557   3.230  3.4232  2.8662 -0.5450
 6938TIP3   OH242372   2.384   6.493   3.661  0.4805 -0.4388 -0.3375
 6938TIP3    H142373   2.289   6.490   3.651  0.3349  2.2161 -0.4713
 6938TIP3    H242374   2.416   6.529   3.578  1.4399  0.0425  0.2207
 6939TIP3   OH242375   0.661   6.207   0.540 -0.2360 -0.0571  0.7340
 6939TIP3    H142376   0.645   6.301   0.549  2.0399  0.3666  0.8110
 6939TIP3    H242377   0.726   6.187   0.608 -0.3152 -1.5855  0.3948
 6940TIP3   OH242378   3.757   1.855   2.058 -0.3295  0.1737  0.1991
 6940TIP3    H142379   3.675   1.840   2.105  1.5040 -1.2527  3.2734
 6940TIP3    H242380   3.772   1.950   2.065 -0.6499  0.1434  1.6745
 6941TIP3   OH242381   0.217   4.450   2.331  0.3602  0.1373  0.3191
 6941TIP3    H142382   0.203   4.399   2.252  1.9118 -1.4618  1.0203
 6941TIP3    H242383   0.143   4.429   2.387 -1.5670  2.4254 -1.1706
 6942TIP3   OH242384   1.253   2.549   4.105 -0.7189 -0.5767 -0.2824
 6942TIP3    H142385   1.158   2.552   4.104 -0.7725 -0.7473  1.6810
 6942TIP3    H242386   1.274   2.464   4.143  0.2866 -1.3997 -2.4742
 6943TIP3   OH242387   3.843   1.479   1.467  0.0744 -0.1490 -0.2436
 6943TIP3    H142388   3.877   1.439   1.547 -1.0711 -0.0844  0.3086
 6943TIP3    H242389   3.910   1.463   1.401  1.9214  1.4098  1.1515
 6944TIP3   OH242390   1.269   6.289   1.371  0.3809  0.7027 -0.1281
 6944TIP3    H142391   1.282   6.246   1.455 -0.0927  2.0136  0.6435
 6944TIP3    H242392   1.220   6.369   1.392 -1.0081  0.3657 -1.8148
 6945TIP3   OH242393   3.226   6.812   3.171 -1.1080 -0.3637 -0.2934
 6945TIP3    H142394   3.226   6.847   3.260 -0.5590  0.5426 -0.6358
 6945TIP3    H242395   3.226   6.717   3.183  0.7934 -0.2877  0.7079
 6946TIP3   OH242396   1.367   2.283   3.916  0.0912  0.4682  0.4772
 6946TIP3    H142397   1.302   2.236   3.969  0.1944 -0.7004 -0.3703
 6946TIP3    H242398   1.416   2.213   3.872  1.8125  1.3239  0.9347
 6947TIP3   OH242399   1.327   2.344   3.139 -0.0134 -0.5672 -0.1940
 6947TIP3    H142400   1.367   2.334   3.225 -0.5342  0.3389  0.1745
 6947TIP3    H242401   1.279   2.427   3.145 -0.3521 -0.6743 -1.2404
 6948TIP3   OH242402   5.856   1.405   3.878 -0.1450 -0.8805  0.0403
 6948TIP3    H142403   5.779   1.441   3.923  1.2727 -1.3338  3.0669
 6948TIP3    H242404   5.855   1.312   3.899  1.1396 -0.9196 -0.0079
 6949TIP3   OH242405   2.525   1.176   3.636 -0.1145  0.0677 -0.1732
 6949TIP3    H142406   2.581   1.252   3.622  0.6876 -0.5367 -0.3148
 6949TIP3    H242407   2.583   1.110   3.676 -0.7941 -0.4664 -0.0395
 6950TIP3   OH242408   1.904   5.156   1.897  0.0981 -0.5032  0.0510
 6950TIP3    H142409   1.977   5.166   1.957  0.6714  0.1251 -0.7321
 6950TIP3    H242410   1.867   5.244   1.889 -0.6234 -0.7710  0.2667
 6951TIP3   OH242411   2.352   3.445   3.795 -0.3189  0.0809 -0.0544
 6951TIP3    H142412   2.446   3.436   3.807 -0.5242 -0.4402  1.3553
 6951TIP3    H242413   2.320   3.480   3.879 -1.1603  2.1101 -1.1499
 6952TIP3   OH242414   5.172   4.752   0.907 -0.7455  0.4317 -0.1729
 6952TIP3    H142415   5.260   4.713   0.899 -0.7757  0.4234 -0.4594
 6952TIP3    H242416   5.170   4.821   0.841 -1.1467  0.0791 -0.5327
 6953TIP3   OH242417   1.795   4.168   2.642  0.1445 -0.0560  0.2108
 6953TIP3    H142418   1.886   4.194   2.628  1.5192 -4.1321  0.1127
 6953TIP3    H242419   1.775   4.200   2.730  2.8178 -1.5035  1.4918
 6954TIP3   OH242420   4.473   4.380   1.330 -0.5621  0.1522  0.0333
 6954TIP3    H142421   4.386   4.378   1.368 -1.5827 -0.6834 -2.1439
 6954TIP3    H242422   4.522   4.314   1.379 -1.8709 -1.0228 -0.1704
 6955TIP3   OH242423   3.701   1.280   3.525  0.0649  0.1763  1.0541
 6955TIP3    H142424   3.790   1.272   3.491 -0.1136  1.3946  0.2797
 6955TIP3    H242425   3.679   1.372   3.514 -0.8905  0.1164  2.2794
 6956TIP3   OH242426   1.664   6.448   0.633 -0.0620 -0.0584  0.1091
 6956TIP3    H142427   1.581   6.452   0.586 -0.3978 -1.1050  0.5726
 6956TIP3    H242428   1.731   6.451   0.565 -0.5226 -0.9766 -0.3984
 6957TIP3   OH242429   5.981   0.290   2.416 -0.4906 -0.2642  0.2060
 6957TIP3    H142430   5.979   0.364   2.357 -0.7980  0.0792  0.6367
 6957TIP3    H242431   5.934   0.320   2.494 -1.3685 -1.1808  0.0587
 6958TIP3   OH242432   3.481   4.352   2.160  0.2480  0.0429  0.2569
 6958TIP3    H142433   3.537   4.377   2.234  2.5050  0.2057 -1.4206
 6958TIP3    H242434   3.397   4.330   2.201  1.8411 -1.4195  3.0683
 6959TIP3   OH242435   3.542   1.666   3.176 -0.1412 -0.6573 -0.1300
 6959TIP3    H142436   3.620   1.711   3.207 -2.6102  3.9352  0.2626
 6959TIP3    H242437   3.513   1.613   3.251  0.8596  0.0999  0.8200
 6960TIP3   OH242438   0.133   4.097   2.456 -0.0084 -0.1497 -0.5521
 6960TIP3    H142439   0.066   4.036   2.488  1.1189 -0.6190  1.0493
 6960TIP3    H242440   0.161   4.144   2.535  1.1710  0.4117 -1.2886
 6961TIP3   OH242441   6.505   3.077   0.769  0.2091  0.0742 -0.3867
 6961TIP3    H142442   6.486   2.990   0.735  1.4462 -0.7520  0.9718
 6961TIP3    H242443   6.481   3.074   0.861  3.7087 -0.0726  0.6582
 6962TIP3   OH242444   3.044   0.978   3.817  0.0473 -0.3530  0.4935
 6962TIP3    H142445   3.031   0.923   3.894 -0.6379  0.0214  0.6614
 6962TIP3    H242446   2.988   1.054   3.834  2.2485  1.2361  1.0734
 6963TIP3   OH242447   1.810   6.857   4.005 -0.7324 -0.0935  0.3470
 6963TIP3    H142448   1.758   6.883   4.080 -1.5427 -0.2161 -0.1605
 6963TIP3    H242449   1.840   6.768   4.025 -1.2598 -0.2675  0.3619
 6964TIP3   OH242450   6.897   5.907   4.380  0.3311 -0.5568  0.1425
 6964TIP3    H142451   6.976   5.944   4.343  1.1017 -1.8372  0.4289
 6964TIP3    H242452   6.839   5.982   4.395  1.1910  0.3119 -0.7550
 6965TIP3   OH242453   3.632   2.193   1.604  0.2474 -0.3115  0.0906
 6965TIP3    H142454   3.653   2.112   1.650 -1.0206 -0.9071 -0.3237
 6965TIP3    H242455   3.685   2.260   1.647  1.2884 -1.3482  0.4593
 6966TIP3   OH242456   4.613   6.651   0.797  0.4749 -0.0946  0.1944
 6966TIP3    H142457   4.581   6.740   0.786 -0.4084 -0.3990  0.2463
 6966TIP3    H242458   4.708   6.661   0.806  0.4473  0.7853 -0.3593
 6967TIP3   OH242459   0.446   3.542   3.189 -0.2321 -0.3122  0.0661
 6967TIP3    H142460   0.493   3.598   3.127 -1.2947 -0.8930 -1.3355
 6967TIP3    H242461   0.417   3.601   3.258  1.0336  0.3457  0.0696
 6968TIP3   OH242462   1.043   1.392   1.164 -0.3153  0.1092  0.3742
 6968TIP3    H142463   1.014   1.462   1.222  0.7906 -0.7994  2.0920
 6968TIP3    H242464   1.109   1.434   1.108 -0.0671  0.5726  0.9986
 6969TIP3   OH242465   3.905   0.688   3.316  0.3380 -0.0260  0.1316
 6969TIP3    H142466   3.957   0.665   3.239 -1.3790  0.6701 -1.3138
 6969TIP3    H242467   3.939   0.772   3.344  0.4532  0.1101 -0.3975
 6970TIP3   OH242468   0.014   4.002   3.600  0.2282  0.2821 -0.1578
 6970TIP3    H142469  -0.067   4.048   3.623 -0.1118 -0.9835  1.3477
 6970TIP3    H242470   0.083   4.055   3.640  0.0237  0.5849 -0.2025
 6971TIP3   OH242471   3.291   6.274   2.979 -0.2048  0.1993  0.3482
 6971TIP3    H142472   3.249   6.229   2.906 -1.7737  1.5399  0.3522
 6971TIP3    H242473   3.300   6.365   2.948  0.6791  0.4148  1.1988
 6972TIP3   OH242474   3.140   2.847   1.858 -0.5085 -0.5729 -0.3189
 6972TIP3    H142475   3.059   2.898   1.849 -0.9998 -1.2009  0.4170
 6972TIP3    H242476   3.130   2.774   1.797 -0.9781 -1.2307  0.5174
 6973TIP3   OH242477   3.729   4.046   2.163  0.5661 -0.0590 -0.1802
 6973TIP3    H142478   3.766   4.101   2.232  2.3347 -0.0380 -1.0920
 6973TIP3    H242479   3.642   4.022   2.196 -0.5141  3.5939  0.0939
 6974TIP3   OH242480   2.115   0.503   2.473  0.0482  0.6635 -0.5795
 6974TIP3    H142481   2.030   0.547   2.474  0.7270  2.0239 -0.7569
 6974TIP3    H242482   2.102   0.428   2.414 -1.0903  0.6913 -0.3866
 6975TIP3   OH242483   4.477   3.630   3.520 -0.2907 -0.1352  0.8550
 6975TIP3    H142484   4.571   3.634   3.507 -0.2918 -1.2293  0.4123
 6975TIP3    H242485   4.449   3.722   3.524  0.5910  0.2213 -0.5764
 6976TIP3   OH242486   4.820   2.446   2.780 -0.4165 -0.2456 -0.2606
 6976TIP3    H142487   4.896   2.387   2.779 -1.1068 -1.1562  0.3315
 6976TIP3    H242488   4.846   2.517   2.838 -0.0663 -0.6184  0.0393
 6977TIP3   OH242489   4.731   3.328   3.264 -0.4179  0.4604  0.7052
 6977TIP3    H142490   4.655   3.283   3.301 -1.3618 -1.0607 -2.6478
 6977TIP3    H242491   4.804   3.300   3.318 -1.5981 -1.9626  1.1922
 6978TIP3   OH242492   3.624   3.331   1.520 -0.9074  0.9796 -0.3397
 6978TIP3    H142493   3.675   3.372   1.589 -1.7135  1.6760 -0.1401
 6978TIP3    H242494   3.612   3.241   1.550  0.7490  0.6066 -0.7136
 6979TIP3   OH242495   3.402   1.258   2.863 -0.3595  0.1041  0.4277
 6979TIP3    H142496   3.455   1.193   2.909  0.3573  0.0727 -0.4214
 6979TIP3    H242497   3.340   1.208   2.811  0.5555  0.0756 -0.6528
 6980TIP3   OH242498   2.353   6.738   0.765 -0.2493 -0.2717 -0.4798
 6980TIP3    H142499   2.425   6.677   0.781 -0.9022 -0.9321  0.0258
 6980TIP3    H242500   2.283   6.709   0.824  0.0641  2.1493  1.2377
 6981TIP3   OH242501   4.675   3.393   3.871  0.4048  0.0227  0.5641
 6981TIP3    H142502   4.607   3.379   3.805  0.3904 -0.8603  0.7554
 6981TIP3    H242503   4.644   3.468   3.922 -0.1600 -0.0385  0.3147
 6982TIP3   OH242504   4.533   2.291   1.821  0.4781 -0.0621  0.2708
 6982TIP3    H142505   4.574   2.208   1.797  1.9383  0.9194 -0.7382
 6982TIP3    H242506   4.576   2.357   1.766 -0.9843  1.3154  0.6941
 6983TIP3   OH242507   6.821   2.582   3.307 -0.6308 -0.2273 -0.0641
 6983TIP3    H142508   6.795   2.508   3.251 -0.4884  1.5629 -2.6376
 6983TIP3    H242509   6.788   2.659   3.262 -0.4290  1.3653  2.3437
 6984TIP3   OH242510   1.108   1.751   3.067  0.6257 -0.1095 -0.2329
 6984TIP3    H142511   1.105   1.838   3.107 -1.0179 -0.2141 -0.0334
 6984TIP3    H242512   1.151   1.764   2.983 -1.0386  1.2288 -0.9222
 6985TIP3   OH242513   5.127   3.067   2.364  0.1870  0.6377 -0.4750
 6985TIP3    H142514   5.136   3.061   2.269 -0.7958 -3.4784 -0.4912
 6985TIP3    H242515   5.044   3.113   2.378 -0.1996  0.3190 -1.6506
 6986TIP3   OH242516   3.744   3.487   3.659 -0.5099  0.2015  0.0513
 6986TIP3    H142517   3.711   3.574   3.639  0.5121  0.5799 -0.0295
 6986TIP3    H242518   3.811   3.501   3.726  1.6728 -0.1744 -1.9255
 6987TIP3   OH242519   3.612   6.367   2.203  0.5095 -0.7182  0.8372
 6987TIP3    H142520   3.682   6.420   2.164 -0.4241 -0.5131 -0.6370
 6987TIP3    H242521   3.627   6.373   2.297  1.3650  0.8512  0.6402
 6988TIP3   OH242522   3.901   4.093   3.752 -0.4649 -0.3535  0.2339
 6988TIP3    H142523   3.946   4.037   3.689 -0.7112  0.0656 -0.3214
 6988TIP3    H242524   3.964   4.104   3.823  0.3725  0.3196 -0.5851
 6989TIP3   OH242525   4.640   2.954   2.678 -0.0018 -0.3757  0.5982
 6989TIP3    H142526   4.711   2.994   2.728  1.3597 -1.9303 -0.0125
 6989TIP3    H242527   4.570   2.941   2.742  0.6496  0.1909  1.4575
 6990TIP3   OH242528   0.452   5.353   3.536 -0.0532  0.1590 -1.0597
 6990TIP3    H142529   0.458   5.265   3.574  0.4315  0.0719 -1.3360
 6990TIP3    H242530   0.470   5.341   3.443 -0.0766  0.5413 -1.1152
 6991TIP3   OH242531   1.598   6.718   1.541 -0.3638 -0.1425 -0.3550
 6991TIP3    H142532   1.598   6.706   1.446  0.5818 -2.1975 -0.1428
 6991TIP3    H242533   1.506   6.738   1.562 -0.6190  0.1722 -1.6647
 6992TIP3   OH242534   0.407   2.957   0.632  0.6242 -0.4208 -0.0008
 6992TIP3    H142535   0.460   3.029   0.666  0.6364 -0.1595 -0.5624
 6992TIP3    H242536   0.318   2.978   0.659  0.7567 -0.6802  0.6443
 6993TIP3   OH242537   5.510   6.330   2.887  0.1712  0.4284 -0.2032
 6993TIP3    H142538   5.498   6.318   2.981 -1.1454  0.9795 -0.2803
 6993TIP3    H242539   5.452   6.265   2.847  0.3810  0.5054 -0.6392
 6994TIP3   OH242540   2.313   2.411   8.449  0.4196 -0.2563  0.0517
 6994TIP3    H142541   2.363   2.359   8.386 -0.4379 -1.6303  0.4626
 6994TIP3    H242542   2.326   2.501   8.420  0.4685 -0.8022 -1.8016
 6995TIP3   OH242543   3.453   5.142   8.460  0.2586 -0.2203  0.3065
 6995TIP3    H142544   3.536   5.103   8.432  0.1670 -0.1498 -0.0744
 6995TIP3    H242545   3.403   5.069   8.496 -0.5420 -0.8229 -1.8290
 6996TIP3   OH242546   5.338   2.660   1.581 -0.5921 -0.0004 -0.0336
 6996TIP3    H142547   5.345   2.596   1.510 -0.7979  0.6459 -0.6448
 6996TIP3    H242548   5.280   2.728   1.546 -0.8624  0.2178  0.8347
 6997TIP3   OH242549   3.244   4.925   4.125 -0.8959 -0.0890 -0.2853
 6997TIP3    H142550   3.214   4.952   4.212  1.2269  0.5080  0.3123
 6997TIP3    H242551   3.247   4.829   4.130 -1.2190 -0.0853  0.1294
 6998TIP3   OH242552   4.668   2.581   1.397  0.1454 -0.0467 -0.2576
 6998TIP3    H142553   4.580   2.554   1.371 -0.1538  0.2454  0.4223
 6998TIP3    H242554   4.706   2.619   1.318 -0.4589  0.1189 -0.4725
 6999TIP3   OH242555   0.142   6.574   2.345 -0.0204 -0.0455 -0.8501
 6999TIP3    H142556   0.204   6.510   2.312  0.1066 -0.6336  0.4893
 6999TIP3    H242557   0.196   6.648   2.373 -0.0809  0.1845 -1.3197
 7000TIP3   OH242558   1.170   1.922   4.483  0.6871 -0.3223  0.1465
 7000TIP3    H142559   1.172   2.010   4.445  1.9806 -0.0386  0.7967
 7000TIP3    H242560   1.090   1.921   4.536  0.5785  0.4082  0.0152
 7001TIP3   OH242561   0.839   0.952   8.425  0.0752  0.1067  0.1875
 7001TIP3    H142562   0.935   0.956   8.422  0.0294  1.2180 -0.5398
 7001TIP3    H242563   0.816   0.993   8.509  0.2447 -0.3596  0.4625
 7002TIP3   OH242564   3.819   0.422   8.195  0.3597 -0.3814 -0.1075
 7002TIP3    H142565   3.841   0.351   8.135 -1.0967 -1.6509  0.7916
 7002TIP3    H242566   3.884   0.490   8.177  0.1437 -0.8046 -2.9271
 7003TIP3   OH242567   6.224   0.806   2.333  0.2521  0.2467 -0.3608
 7003TIP3    H142568   6.222   0.865   2.258  1.7893  0.1243 -0.5165
 7003TIP3    H242569   6.172   0.730   2.304  1.2175 -0.0113 -1.5111
 7004TIP3   OH242570   6.726   1.645   2.691  0.4092 -0.2874 -0.3278
 7004TIP3    H142571   6.806   1.604   2.726  1.1792  0.2953 -1.3693
 7004TIP3    H242572   6.703   1.590   2.616 -1.2320 -1.5243  1.0052
 7005TIP3   OH242573   2.653   6.340   1.511  0.2532  0.0047  0.7681
 7005TIP3    H142574   2.599   6.262   1.499  1.3060 -0.7311  0.6209
 7005TIP3    H242575   2.743   6.307   1.506  0.7272  0.9391  2.5614
 7006TIP3   OH242576   5.922   5.567   2.124  0.0400  0.3629  0.0765
 7006TIP3    H142577   5.850   5.621   2.091 -0.8172 -0.0823  1.1938
 7006TIP3    H242578   5.938   5.600   2.213 -1.3248 -1.9849  1.2615
 7007TIP3   OH242579   6.225   4.782   1.997 -0.2771 -0.1274 -0.3582
 7007TIP3    H142580   6.150   4.730   2.028  0.1450 -1.1999 -1.0659
 7007TIP3    H242581   6.269   4.810   2.077 -1.1466  0.0795  0.0571
 7008TIP3   OH242582   2.065   0.094   1.508  0.3330 -0.4261 -0.2658
 7008TIP3    H142583   2.089   0.152   1.580 -0.1175 -1.4422  0.7339
 7008TIP3    H242584   2.096   0.139   1.430 -1.6674  2.1227  0.2457
 7009TIP3   OH242585   4.349   4.461   2.268 -0.0540  0.2576  0.3979
 7009TIP3    H142586   4.274   4.448   2.210  0.1379  0.2908  0.1405
 7009TIP3    H242587   4.373   4.373   2.295 -1.8762  0.3674  2.6696
 7010TIP3   OH242588   3.885   6.108   1.042  0.0165  0.4065  0.2280
 7010TIP3    H142589   3.839   6.027   1.017  1.4357 -0.5616  0.6413
 7010TIP3    H242590   3.862   6.170   0.973 -0.3269 -0.6372 -0.6345
 7011TIP3   OH242591   0.991   0.611   3.685  0.1448  0.1859  0.5752
 7011TIP3    H142592   1.076   0.642   3.715  0.1347  0.5357  0.2423
 7011TIP3    H242593   0.934   0.688   3.689 -0.4930 -0.3108  1.9978
 7012TIP3   OH242594   5.319   3.526   8.380 -0.0957 -0.4258 -0.4072
 7012TIP3    H142595   5.362   3.455   8.334 -2.1436 -0.4916 -2.4040
 7012TIP3    H242596   5.226   3.503   8.379 -0.5081  0.8669  1.5424
 7013TIP3   OH242597   3.367   5.338   3.061 -0.1825  0.0911  0.1222
 7013TIP3    H142598   3.426   5.393   3.113 -1.7484  1.5905  0.4214
 7013TIP3    H242599   3.314   5.400   3.011 -0.4423 -1.2564 -1.3624
 7014TIP3   OH242600   5.736   0.462   3.526  0.2195 -0.1213  0.3816
 7014TIP3    H142601   5.742   0.433   3.435  1.6904  1.5785 -0.1161
 7014TIP3    H242602   5.821   0.440   3.564  0.2754  0.7934  0.8215
 7015TIP3   OH242603   5.034   1.754   2.919 -0.1534  0.2283 -0.3575
 7015TIP3    H142604   5.112   1.750   2.864 -0.2363 -0.2737 -0.4403
 7015TIP3    H242605   4.966   1.709   2.869  0.0011 -1.0432  0.5366
 7016TIP3   OH242606   6.321   2.381   2.457  0.9666 -0.0705 -0.0949
 7016TIP3    H142607   6.322   2.476   2.459  1.2032 -0.0462 -1.0648
 7016TIP3    H242608   6.386   2.354   2.521  0.2979  0.3983  0.8066
 7017TIP3   OH242609   0.345   2.733   3.433 -0.0130  0.0433  0.4264
 7017TIP3    H142610   0.280   2.795   3.464 -0.0212  0.4014 -0.2829
 7017TIP3    H242611   0.370   2.765   3.346  2.6066  1.1031  1.4618
 7018TIP3   OH242612   4.075   4.408   0.299 -0.3726 -0.1356  0.2460
 7018TIP3    H142613   4.154   4.434   0.347 -2.2244  2.4909  2.1487
 7018TIP3    H242614   4.063   4.478   0.235 -0.9356 -0.7706 -0.3547
 7019TIP3   OH242615   0.829   5.233   0.929 -0.1865  0.8518  0.5553
 7019TIP3    H142616   0.756   5.194   0.882  0.3417  1.6833 -1.0389
 7019TIP3    H242617   0.897   5.165   0.928  0.2763  1.2904 -1.0790
 7020TIP3   OH242618   5.642   1.350   1.847 -0.0640  0.3754  0.2246
 7020TIP3    H142619   5.606   1.262   1.842  0.1792  0.3199 -0.6474
 7020TIP3    H242620   5.625   1.388   1.761  1.0485  0.6946  0.1344
 7021TIP3   OH242621   1.131   0.302   1.611 -0.7333 -0.1615  0.2599
 7021TIP3    H142622   1.077   0.251   1.672 -0.2520  1.2718  1.9641
 7021TIP3    H242623   1.072   0.370   1.579 -0.6191 -0.1150  0.1516
 7022TIP3   OH242624   6.283   6.859   3.711 -0.1857  0.7741 -0.1626
 7022TIP3    H142625   6.300   6.849   3.617 -0.3633  3.3073 -0.5606
 7022TIP3    H242626   6.370   6.860   3.751 -0.1482 -1.9805  0.0027
 7023TIP3   OH242627   0.379   1.266   2.893 -0.1450  0.1702  0.0361
 7023TIP3    H142628   0.343   1.305   2.972 -2.2113 -0.3061 -0.6178
 7023TIP3    H242629   0.310   1.208   2.860  1.1061 -0.5526 -1.4759
 7024TIP3   OH242630   2.183   4.001   1.526 -0.4651 -0.0361  0.4017
 7024TIP3    H142631   2.124   4.041   1.463 -0.1043  1.7520  1.1301
 7024TIP3    H242632   2.126   3.964   1.593 -0.7937  0.8298  0.6093
 7025TIP3   OH242633   3.290   5.799   8.231  0.2999  0.2597 -0.7848
 7025TIP3    H142634   3.213   5.747   8.206  0.9990 -0.6390 -1.1664
 7025TIP3    H242635   3.363   5.738   8.222  0.7749  0.1661  2.4130
 7026TIP3   OH242636   3.972   3.708   0.965 -0.0607 -0.6729  0.0337
 7026TIP3    H142637   3.981   3.803   0.960  0.7601 -0.7248  0.4177
 7026TIP3    H242638   4.026   3.682   1.039 -0.2120 -1.4484 -0.1184
 7027TIP3   OH242639   1.584   6.664   4.427  0.1415  0.1026  0.0162
 7027TIP3    H142640   1.497   6.672   4.465  0.0165  0.3625 -0.3125
 7027TIP3    H242641   1.618   6.581   4.459 -1.3259 -1.3983 -2.0737
 7028TIP3   OH242642   2.220   0.410   8.362  0.2355  0.1056  0.3282
 7028TIP3    H142643   2.272   0.360   8.299  0.5932  0.3309  0.4420
 7028TIP3    H242644   2.230   0.362   8.444 -1.4235 -1.0198 -0.0907
 7029TIP3   OH242645   1.617   3.734   2.304 -0.2987  0.4430 -0.2418
 7029TIP3    H142646   1.697   3.740   2.253 -0.2603  0.1434 -0.2221
 7029TIP3    H242647   1.641   3.765   2.391 -0.0899 -0.0489 -0.1166
 7030TIP3   OH242648   1.378   3.256   3.184 -0.7238 -0.3638  0.3583
 7030TIP3    H142649   1.292   3.235   3.149 -0.5321 -1.6507  0.5912
 7030TIP3    H242650   1.393   3.189   3.251  0.5296 -0.2786  0.1855
 7031TIP3   OH242651   1.986   6.019   0.844 -0.2612  0.2426 -0.2380
 7031TIP3    H142652   1.966   5.926   0.832 -1.7788  0.7867 -2.5313
 7031TIP3    H242653   1.940   6.044   0.924 -1.3891 -0.5985 -0.5977
 7032TIP3   OH242654   6.665   0.800   8.071  0.5354 -0.6997 -0.3614
 7032TIP3    H142655   6.635   0.855   7.998 -0.8568  0.0222  0.7208
 7032TIP3    H242656   6.605   0.725   8.071  0.3152 -0.5300  0.2310
 7033TIP3   OH242657   5.177   3.425   2.095  0.1827  0.2297  0.4673
 7033TIP3    H142658   5.148   3.484   2.025 -0.7632 -0.1028  0.5602
 7033TIP3    H242659   5.134   3.342   2.075  0.4669 -0.0621  1.0585
 7034TIP3   OH242660   2.935   5.532   2.340 -0.3005  0.3167 -0.4861
 7034TIP3    H142661   2.999   5.488   2.284 -0.9682  0.2757 -1.2326
 7034TIP3    H242662   2.897   5.600   2.285  0.4508  1.6151  0.5397
 7035TIP3   OH242663   0.181   5.689   2.934 -0.0569  0.5416 -0.5251
 7035TIP3    H142664   0.183   5.778   2.970  0.4331  0.3099  0.0502
 7035TIP3    H242665   0.175   5.701   2.840 -0.6226  1.1820 -0.4129
 7036TIP3   OH242666   1.145   0.575   3.186  0.2175 -0.1963  0.0089
 7036TIP3    H142667   1.188   0.517   3.124  0.0365  1.8522 -2.1699
 7036TIP3    H242668   1.194   0.657   3.181 -0.7639  0.5291  1.4023
 7037TIP3   OH242669   1.892   2.669   4.136 -0.1961  0.2917 -0.1191
 7037TIP3    H142670   1.832   2.611   4.089  0.8008 -1.7804  1.0266
 7037TIP3    H242671   1.886   2.641   4.227  1.9447  0.5105  0.1388
 7038TIP3   OH242672   6.265   1.912   1.994  0.2875  0.0361  0.9271
 7038TIP3    H142673   6.354   1.946   1.985 -0.0625  0.3992 -2.0146
 7038TIP3    H242674   6.271   1.821   1.967 -0.3479  0.2857 -0.1021
 7039TIP3   OH242675   3.093   6.704   4.346 -0.1804 -0.2450 -0.2325
 7039TIP3    H142676   3.148   6.742   4.278  1.0097 -2.2763 -0.5079
 7039TIP3    H242677   3.117   6.749   4.426  0.8826 -0.1415 -0.6003
 7040TIP3   OH242678   0.377   2.870   1.836  0.0133 -0.3341 -0.3579
 7040TIP3    H142679   0.284   2.860   1.857 -0.1935  3.0386  0.9531
 7040TIP3    H242680   0.382   2.954   1.790  2.2543 -1.1902 -1.8140
 7041TIP3   OH242681   2.554   4.895   0.351  0.5415 -0.0488 -0.3427
 7041TIP3    H142682   2.606   4.882   0.272  0.2704  0.4300 -0.6004
 7041TIP3    H242683   2.615   4.932   0.415  1.0160 -1.3677  0.0053
 7042TIP3   OH242684   4.074   2.472   3.909 -0.2754 -0.4687  0.3407
 7042TIP3    H142685   4.017   2.504   3.839  0.5052 -0.5949 -0.3723
 7042TIP3    H242686   4.049   2.380   3.920  1.3241 -1.2067 -1.6082
 7043TIP3   OH242687   5.224   1.984   1.958 -0.9178  0.3859 -0.5395
 7043TIP3    H142688   5.203   2.030   2.039  1.9036 -2.4258  2.0241
 7043TIP3    H242689   5.187   1.897   1.969 -1.3792  0.2309 -2.8205
 7044TIP3   OH242690   2.404   6.132   3.370  0.0997 -0.8532 -0.6286
 7044TIP3    H142691   2.429   6.208   3.317  1.9061 -1.1397 -0.2386
 7044TIP3    H242692   2.336   6.088   3.318 -1.6826  1.4865 -0.4501
 7045TIP3   OH242693   4.624   1.979   3.966 -0.3914 -0.4757 -0.4208
 7045TIP3    H142694   4.530   1.978   3.948 -0.2574 -1.9615 -1.1399
 7045TIP3    H242695   4.630   2.006   4.057 -1.4498  0.5162 -0.6071
 7046TIP3   OH242696   5.999   6.313   1.999  0.6069  0.6071 -0.0114
 7046TIP3    H142697   5.970   6.224   2.018  0.3586  0.8687  0.8870
 7046TIP3    H242698   6.094   6.305   1.987  0.2667 -0.2122 -2.7629
 7047TIP3   OH242699   3.173   0.233   2.730  0.0217  0.1253 -0.0294
 7047TIP3    H142700   3.198   0.232   2.638 -0.1251 -0.7634 -0.0745
 7047TIP3    H242701   3.095   0.289   2.732 -0.7892 -0.9197 -0.6954
 7048TIP3   OH242702   3.360   2.869   8.316  0.7606  0.1153  0.2997
 7048TIP3    H142703   3.429   2.853   8.380  1.0720 -0.1010 -0.0844
 7048TIP3    H242704   3.395   2.834   8.234  1.0384  1.8033 -0.3457
 7049TIP3   OH242705   0.527   4.647   0.558  0.0591 -0.7689 -0.2375
 7049TIP3    H142706   0.497   4.734   0.587 -0.2637 -0.4653 -1.4243
 7049TIP3    H242707   0.476   4.630   0.479  0.5086 -1.8195 -0.3105
 7050TIP3   OH242708   6.867   2.152   1.556 -0.3387  0.1466  0.3925
 7050TIP3    H142709   6.796   2.160   1.492 -0.8362  0.9613  1.0295
 7050TIP3    H242710   6.941   2.196   1.513 -0.1352 -0.8874 -0.3588
 7051TIP3   OH242711   2.749   2.178   1.377 -0.2623  0.5202  0.0128
 7051TIP3    H142712   2.822   2.207   1.430 -0.2380  0.3021  0.0962
 7051TIP3    H242713   2.789   2.136   1.301 -0.0770  4.8683 -2.6632
 7052TIP3   OH242714   5.253   0.273   1.272 -0.0909  0.0283 -0.6598
 7052TIP3    H142715   5.212   0.339   1.216 -2.8453 -1.4442 -0.5966
 7052TIP3    H242716   5.237   0.190   1.226  0.8360 -0.8512  0.5534
 7053TIP3   OH242717   1.794   0.259   4.092 -0.7165  0.1625  0.0284
 7053TIP3    H142718   1.858   0.217   4.149  0.0592  1.3379  0.0599
 7053TIP3    H242719   1.709   0.231   4.126 -0.2491 -0.1484  0.9694
 7054LIG     O142720   2.191   5.253   5.990  0.4226 -0.0764  0.2444
 7054LIG     O242721   2.114   5.105   6.187  0.1129  0.5238  0.1975
 7054LIG     O342722   2.046   5.466   6.149 -0.8875  0.1376 -0.3029
 7054LIG     O442723   2.305   5.005   6.263 -0.4685  0.3067 -0.1458
 7054LIG     O542724   2.155   5.309   6.381 -0.1174 -0.1845 -0.1276
 7054LIG     O642725   2.391   5.262   6.558 -0.2369 -0.0226  0.1009
 7054LIG     O742726   2.598   5.116   6.450 -0.2933 -0.5755 -0.0899
 7054LIG     O842727   2.633   4.860   6.235  0.4655 -0.4027 -1.0702
 7054LIG     O942728   2.463   4.779   6.350  0.0378 -0.1385 -0.4771
 7054LIG      N42729   1.980   5.079   5.563 -0.1348  0.5281  0.8841
 7054LIG     C142730   2.089   5.134   5.814  0.1949  0.5855 -0.8010
 7054LIG     C242731   2.001   5.001   5.798 -0.6770 -0.1366  0.1164
 7054LIG     C342732   2.181   5.121   5.944 -0.0364  0.6517  0.2417
 7054LIG     C442733   1.903   5.042   5.685 -0.2400 -0.1255 -0.0582
 7054LIG     C542734   2.164   5.172   5.688  0.1050  0.4308  0.1326
 7054LIG     C642735   2.006   5.254   5.849  0.2911  0.1751  0.7767
 7054LIG     C742736   1.808   5.168   5.724  0.0903  0.4083 -0.2170
 7054LIG     C842737   2.063   5.199   5.574  0.6081 -0.1768  0.1469
 7054LIG     C942738   2.134   5.033   6.062  0.2869  1.0389 -0.0807
 7054LIG    C1042739   1.870   5.257   5.833  0.2621 -0.2200  0.1619
 7054LIG    C1142740   1.943   4.951   5.920 -0.2610 -0.5130 -0.4399
 7054LIG    C1242741   2.065   5.309   5.962  0.1793 -0.8581 -0.0759
 7054LIG    C1342742   1.997   4.971   6.040 -0.3573  0.6366  0.2627
 7054LIG    C1442743   2.042   4.961   5.507  0.3402 -0.0228 -0.1207
 7054LIG    C1542744   1.795   5.339   5.912  0.0555 -0.5666  0.1266
 7054LIG    C1642745   1.997   5.400   6.041  0.1533  0.5653  0.6421
 7054LIG    C1742746   1.860   5.423   6.009 -0.0472 -0.1015  0.1423
 7054LIG    C1842747   2.240   5.129   6.247  0.1913  0.5409  0.9649
 7054LIG    C1942748   2.231   5.185   6.387 -0.2311 -0.3379 -0.2646
 7054LIG    C2042749   2.376   5.212   6.425  0.2009 -0.4416 -0.0099
 7054LIG    C2142750   2.460   5.086   6.420 -1.0652  0.1524 -0.1197
 7054LIG    C2242751   2.445   5.011   6.288  0.0557 -0.8326 -0.8259
 7054LIG    C2342752   2.511   4.875   6.300 -0.7084  0.9544 -0.0810
 7054LIG     H142753   2.075   4.924   5.768  0.2081  0.0706  1.6548
 7054LIG     H242754   2.286   5.097   5.916 -0.5757 -1.9105  0.1025
 7054LIG     H342755   1.835   4.959   5.655  1.0237 -0.3308 -2.6628
 7054LIG     H442756   2.235   5.095   5.652 -1.4243 -1.6902  1.4266
 7054LIG     H542757   2.227   5.259   5.718 -0.2158 -0.0276  2.3341
 7054LIG     H642758   1.714   5.130   5.769 -0.9803  0.7114 -2.0949
 7054LIG     H742759   1.779   5.228   5.636  2.8383  2.1990  0.0055
 7054LIG     H842760   2.003   5.291   5.591  0.0292 -0.9914  3.0727
 7054LIG     H942761   2.106   5.210   5.472 -0.4992  2.5447 -0.1234
 7054LIG    H1042762   2.188   4.937   6.074  1.3543  1.6014 -0.2741
 7054LIG    H1142763   1.844   4.905   5.930 -1.2338  1.8198  2.1008
 7054LIG    H1242764   1.950   4.934   6.133 -0.3641 -1.5573 -0.5525
 7054LIG    H1342765   2.121   4.926   5.577 -0.0125  1.4877  1.0690
 7054LIG    H1442766   2.095   4.973   5.410  0.5448  0.4135  0.0447
 7054LIG    H1542767   1.979   4.871   5.490  0.6162 -0.7044  2.1632
 7054LIG    H1642768   1.688   5.347   5.900 -0.0064  0.9787  1.3597
 7054LIG    H1742769   1.795   5.490   6.063 -0.3971 -1.0534  0.9226
 7054LIG    H1842770   2.305   5.196   6.188 -0.6317  2.6909  2.3720
 7054LIG    H1942771   2.181   5.117   6.459 -0.7170  0.2140 -0.0647
 7054LIG    H2042772   2.426   5.279   6.351 -1.5367 -3.8919 -4.7633
 7054LIG    H2142773   2.140   5.447   6.142 -1.1588 -0.6292 -2.3549
 7054LIG    H2242774   2.407   5.026   6.497 -1.2282  2.3171  1.5416
 7054LIG    H2342775   2.497   5.070   6.209 -0.6174  2.0751  0.7876
 7054LIG    H2442776   2.073   5.293   6.334 -2.1746  2.9189  2.0150
 7054LIG    H2542777   2.336   5.340   6.554 -0.2343  0.0022  0.5297
 7054LIG    H2642778   2.589   5.174   6.525  2.5622  0.4213 -0.3804
 7054LIG    H2742779   2.669   4.774   6.258 -0.8333 -0.5869  0.4517
   6.95315   6.95315   8.46370
